Title t= 493.00000 step= 246500
19942
    1ASP      N    1   1.281   2.061   3.487
    1ASP    HT1    2   1.187   2.023   3.464
    1ASP    HT2    3   1.276   2.155   3.444
    1ASP    HT3    4   1.282   2.065   3.591
    1ASP     CA    5   1.405   1.994   3.447
    1ASP     HA    6   1.486   2.027   3.511
    1ASP     CB    7   1.394   1.840   3.495
    1ASP    HB1    8   1.336   1.769   3.432
    1ASP    HB2    9   1.345   1.824   3.593
    1ASP     CG   10   1.528   1.771   3.511
    1ASP    OD1   11   1.537   1.645   3.503
    1ASP    OD2   12   1.630   1.843   3.534
    1ASP      C   13   1.440   2.025   3.304
    1ASP      O   14   1.381   2.116   3.248
    2ALA      N   15   1.534   1.948   3.240
    2ALA     HN   16   1.581   1.871   3.283
    2ALA     CA   17   1.563   1.969   3.099
    2ALA     HA   18   1.526   2.064   3.063
    2ALA     CB   19   1.717   1.968   3.060
    2ALA    HB1   20   1.767   1.870   3.074
    2ALA    HB2   21   1.772   2.040   3.124
    2ALA    HB3   22   1.730   2.004   2.955
    2ALA      C   23   1.491   1.867   3.013
    2ALA      O   24   1.456   1.760   3.059
    3ASP      N   25   1.472   1.900   2.881
    3ASP     HN   26   1.498   1.991   2.850
    3ASP     CA   27   1.431   1.801   2.782
    3ASP     HA   28   1.349   1.752   2.833
    3ASP     CB   29   1.398   1.864   2.644
    3ASP    HB1   30   1.372   1.781   2.575
    3ASP    HB2   31   1.492   1.906   2.603
    3ASP     CG   32   1.290   1.969   2.653
    3ASP    OD1   33   1.291   2.060   2.566
    3ASP    OD2   34   1.195   1.952   2.735
    3ASP      C   35   1.541   1.697   2.760
    3ASP      O   36   1.660   1.711   2.782
    4GLY      N   37   1.511   1.576   2.714
    4GLY     HN   38   1.414   1.555   2.725
    4GLY     CA   39   1.600   1.478   2.669
    4GLY    HA1   40   1.536   1.395   2.643
    4GLY    HA2   41   1.664   1.461   2.755
    4GLY      C   42   1.675   1.526   2.539
    4GLY      O   43   1.656   1.640   2.490
    5PRO      N   44   1.751   1.437   2.476
    5PRO     CD   45   1.783   1.300   2.527
    5PRO    HD1   46   1.695   1.237   2.505
    5PRO    HD2   47   1.809   1.309   2.635
    5PRO     CA   48   1.816   1.449   2.346
    5PRO     HA   49   1.904   1.511   2.360
    5PRO     CB   50   1.861   1.303   2.314
    5PRO    HB1   51   1.943   1.305   2.240
    5PRO    HB2   52   1.772   1.249   2.273
    5PRO     CG   53   1.897   1.240   2.444
    5PRO    HG1   54   1.898   1.130   2.457
    5PRO    HG2   55   1.987   1.277   2.497
    5PRO      C   56   1.739   1.517   2.240
    5PRO      O   57   1.621   1.488   2.228
    6GLY      N   58   1.802   1.592   2.154
    6GLY     HN   59   1.899   1.610   2.172
    6GLY     CA   60   1.739   1.671   2.049
    6GLY    HA1   61   1.785   1.768   2.039
    6GLY    HA2   62   1.634   1.686   2.068
    6GLY      C   63   1.740   1.592   1.915
    6GLY      O   64   1.669   1.622   1.823
    7ASP      N   65   1.834   1.495   1.902
    7ASP     HN   66   1.910   1.487   1.965
    7ASP     CA   67   1.853   1.424   1.771
    7ASP     HA   68   1.846   1.501   1.695
    7ASP     CB   69   1.990   1.358   1.769
    7ASP    HB1   70   2.008   1.301   1.676
    7ASP    HB2   71   2.005   1.293   1.858
    7ASP     CG   72   2.094   1.462   1.781
    7ASP    OD1   73   2.090   1.564   1.707
    7ASP    OD2   74   2.191   1.444   1.864
    7ASP      C   75   1.731   1.326   1.749
    7ASP      O   76   1.668   1.285   1.849
    8PRO      N   77   1.686   1.281   1.634
    8PRO     CD   78   1.754   1.295   1.507
    8PRO    HD1   79   1.858   1.259   1.522
    8PRO    HD2   80   1.753   1.402   1.475
    8PRO     CA   81   1.564   1.195   1.624
    8PRO     HA   82   1.483   1.237   1.681
    8PRO     CB   83   1.529   1.207   1.477
    8PRO    HB1   84   1.458   1.291   1.464
    8PRO    HB2   85   1.493   1.115   1.428
    8PRO     CG   86   1.663   1.230   1.406
    8PRO    HG1   87   1.718   1.138   1.378
    8PRO    HG2   88   1.654   1.298   1.319
    8PRO      C   89   1.586   1.055   1.665
    8PRO      O   90   1.496   0.998   1.730
    9ASP      N   91   1.696   0.987   1.636
    9ASP     HN   92   1.779   1.026   1.598
    9ASP     CA   93   1.712   0.850   1.666
    9ASP     HA   94   1.619   0.796   1.673
    9ASP     CB   95   1.794   0.780   1.550
    9ASP    HB1   96   1.808   0.673   1.574
    9ASP    HB2   97   1.894   0.827   1.539
    9ASP     CG   98   1.708   0.798   1.419
    9ASP    OD1   99   1.767   0.840   1.318
    9ASP    OD2  100   1.582   0.761   1.425
    9ASP      C  101   1.790   0.839   1.799
    9ASP      O  102   1.832   0.730   1.844
   10ALA      N  103   1.806   0.950   1.871
   10ALA     HN  104   1.771   1.039   1.843
   10ALA     CA  105   1.856   0.942   2.004
   10ALA     HA  106   1.895   0.844   2.027
   10ALA     CB  107   1.975   1.039   2.005
   10ALA    HB1  108   2.063   1.008   1.945
   10ALA    HB2  109   2.007   1.044   2.112
   10ALA    HB3  110   1.944   1.144   1.984
   10ALA      C  111   1.754   0.973   2.120
   10ALA      O  112   1.661   1.055   2.095
   11GLY      N  113   1.774   0.906   2.237
   11GLY     HN  114   1.847   0.837   2.236
   11GLY     CA  115   1.690   0.908   2.352
   11GLY    HA1  116   1.642   1.003   2.369
   11GLY    HA2  117   1.747   0.890   2.442
   11GLY      C  118   1.573   0.802   2.361
   11GLY    OT1  119   1.505   0.763   2.261
   11GLY    OT2  120   1.537   0.760   2.475
   12LIT    LIT  121   4.791   5.284   1.798
   13LIT    LIT  122   3.299   5.238   4.812
   14LIT    LIT  123   2.884   5.644   4.400
   15LIT    LIT  124   3.349   5.733   4.067
   16LIT    LIT  125   4.833   5.179   4.755
   17LIT    LIT  126   5.085   0.744   2.749
   18LIT    LIT  127   2.032   2.274   4.017
   19LIT    LIT  128   5.124   4.780   2.321
   20LIT    LIT  129   2.371   1.665   4.029
   21LIT    LIT  130   4.225   4.074   0.968
   22LIT    LIT  131   5.524   4.785   3.721
   23LIT    LIT  132   0.538   2.940   1.904
   24LIT    LIT  133   0.291   3.911   5.095
   25LIT    LIT  134   0.050   4.620   2.891
   26LIT    LIT  135   3.569   1.466   4.893
   27LIT    LIT  136   1.550   0.596   4.165
   28LIT    LIT  137   1.664   1.575   3.395
   29LIT    LIT  138   1.996   5.695   3.905
   30LIT    LIT  139   5.050   3.920   0.937
   31LIT    LIT  140   5.073   2.938   3.389
   32LIT    LIT  141   3.791   5.332   1.413
   33LIT    LIT  142   4.948   3.508   4.943
   34CLA    CLA  143   1.260   3.747   2.629
   35CLA    CLA  144   5.163   4.722   2.106
   36CLA    CLA  145   5.072   2.949   2.729
   37CLA    CLA  146   5.100   0.538   3.799
   38CLA    CLA  147   2.337   1.874   4.128
   39CLA    CLA  148   2.291   0.722   2.774
   40CLA    CLA  149   5.515   0.002   4.966
   41CLA    CLA  150   3.147   5.739   4.738
   42CLA    CLA  151   3.239   2.666   4.774
   43CLA    CLA  152   1.855   1.754   4.201
   44CLA    CLA  153   1.034   5.733   0.425
   45CLA    CLA  154   1.996   2.202   3.524
   46CLA    CLA  155   5.155   1.264   2.811
   47CLA    CLA  156   4.297   1.667   5.141
   48CLA    CLA  157   4.793   4.852   0.399
   49CLA    CLA  158   3.087   0.299   3.317
   50CLA    CLA  159   3.180   5.951   1.071
   51CLA    CLA  160   2.373   3.251   5.039
   52TIP3   OH2  161   2.927   2.860   4.773
   52TIP3    H1  162   2.989   2.797   4.809
   52TIP3    H2  163   2.844   2.840   4.816
   53TIP3   OH2  164   1.191   0.090   0.712
   53TIP3    H1  165   1.139   0.095   0.793
   53TIP3    H2  166   1.230   0.177   0.704
   54TIP3   OH2  167   0.106   1.537   2.981
   54TIP3    H1  168   0.155   1.577   3.053
   54TIP3    H2  169   0.074   1.611   2.930
   55TIP3   OH2  170   1.332   0.782   1.742
   55TIP3    H1  171   1.288   0.782   1.657
   55TIP3    H2  172   1.402   0.847   1.733
   56TIP3   OH2  173   4.258   0.796   0.199
   56TIP3    H1  174   4.278   0.737   0.272
   56TIP3    H2  175   4.311   0.874   0.216
   57TIP3   OH2  176   2.112   0.201   3.532
   57TIP3    H1  177   2.196   0.246   3.531
   57TIP3    H2  178   2.120   0.137   3.602
   58TIP3   OH2  179   1.442   4.264   2.166
   58TIP3    H1  180   1.486   4.328   2.222
   58TIP3    H2  181   1.357   4.250   2.207
   59TIP3   OH2  182   0.934   3.108   0.808
   59TIP3    H1  183   0.901   3.023   0.836
   59TIP3    H2  184   0.974   3.146   0.886
   60TIP3   OH2  185   4.664   3.179   1.385
   60TIP3    H1  186   4.660   3.206   1.476
   60TIP3    H2  187   4.576   3.147   1.365
   61TIP3   OH2  188   0.276   0.899   1.401
   61TIP3    H1  189   0.335   0.973   1.418
   61TIP3    H2  190   0.188   0.934   1.418
   62TIP3   OH2  191   4.007   2.940   1.063
   62TIP3    H1  192   3.918   2.923   1.032
   62TIP3    H2  193   4.048   2.854   1.064
   63TIP3   OH2  194   5.065   1.489  -0.035
   63TIP3    H1  195   5.072   1.530   0.051
   63TIP3    H2  196   5.082   1.396  -0.020
   64TIP3   OH2  197   3.600   1.355   3.720
   64TIP3    H1  198   3.588   1.447   3.740
   64TIP3    H2  199   3.542   1.309   3.781
   65TIP3   OH2  200   2.077   1.798   2.202
   65TIP3    H1  201   2.124   1.842   2.273
   65TIP3    H2  202   2.123   1.715   2.189
   66TIP3   OH2  203   5.991   1.756   0.293
   66TIP3    H1  204   5.998   1.748   0.388
   66TIP3    H2  205   6.082   1.751   0.262
   67TIP3   OH2  206   2.738   2.970   3.910
   67TIP3    H1  207   2.788   2.892   3.883
   67TIP3    H2  208   2.786   3.005   3.985
   68TIP3   OH2  209   4.401   2.325   4.807
   68TIP3    H1  210   4.472   2.262   4.792
   68TIP3    H2  211   4.356   2.292   4.885
   69TIP3   OH2  212   5.006   1.760   4.632
   69TIP3    H1  213   4.997   1.812   4.712
   69TIP3    H2  214   4.921   1.716   4.622
   70TIP3   OH2  215   4.790   1.198   2.405
   70TIP3    H1  216   4.711   1.157   2.370
   70TIP3    H2  217   4.773   1.204   2.499
   71TIP3   OH2  218   4.919   0.909   1.494
   71TIP3    H1  219   4.971   0.844   1.447
   71TIP3    H2  220   4.977   0.985   1.502
   72TIP3   OH2  221   3.282   1.953   4.679
   72TIP3    H1  222   3.233   1.982   4.602
   72TIP3    H2  223   3.235   1.876   4.710
   73TIP3   OH2  224   1.901   1.696   0.204
   73TIP3    H1  225   1.819   1.745   0.212
   73TIP3    H2  226   1.957   1.734   0.273
   74TIP3   OH2  227   4.837   3.453   3.307
   74TIP3    H1  228   4.888   3.407   3.240
   74TIP3    H2  229   4.753   3.471   3.266
   75TIP3   OH2  230   3.731   2.581   0.561
   75TIP3    H1  231   3.672   2.519   0.519
   75TIP3    H2  232   3.720   2.662   0.511
   76TIP3   OH2  233   4.744   5.868   0.088
   76TIP3    H1  234   4.783   5.780   0.085
   76TIP3    H2  235   4.691   5.868   0.168
   77TIP3   OH2  236   2.713   2.218   4.375
   77TIP3    H1  237   2.762   2.260   4.446
   77TIP3    H2  238   2.643   2.280   4.354
   78TIP3   OH2  239   0.991   1.512   4.748
   78TIP3    H1  240   1.047   1.451   4.700
   78TIP3    H2  241   1.034   1.596   4.739
   79TIP3   OH2  242   4.830   1.535   4.723
   79TIP3    H1  243   4.755   1.542   4.782
   79TIP3    H2  244   4.907   1.539   4.781
   80TIP3   OH2  245   5.347   1.646   3.803
   80TIP3    H1  246   5.338   1.557   3.768
   80TIP3    H2  247   5.293   1.645   3.883
   81TIP3   OH2  248   4.923   1.251   0.501
   81TIP3    H1  249   4.844   1.296   0.470
   81TIP3    H2  250   4.982   1.254   0.426
   82TIP3   OH2  251   1.461   1.350   3.728
   82TIP3    H1  252   1.465   1.271   3.675
   82TIP3    H2  253   1.416   1.414   3.674
   83TIP3   OH2  254   0.587   3.408   2.094
   83TIP3    H1  255   0.545   3.455   2.167
   83TIP3    H2  256   0.659   3.360   2.135
   84TIP3   OH2  257   3.339   1.098   1.599
   84TIP3    H1  258   3.306   1.051   1.675
   84TIP3    H2  259   3.390   1.033   1.550
   85TIP3   OH2  260   0.337   1.001   2.004
   85TIP3    H1  261   0.399   1.073   1.990
   85TIP3    H2  262   0.311   1.009   2.096
   86TIP3   OH2  263   3.097   4.870   1.455
   86TIP3    H1  264   3.176   4.924   1.454
   86TIP3    H2  265   3.090   4.835   1.367
   87TIP3   OH2  266   4.723   4.055   1.796
   87TIP3    H1  267   4.756   3.979   1.843
   87TIP3    H2  268   4.799   4.113   1.789
   88TIP3   OH2  269   2.222   1.175   1.017
   88TIP3    H1  270   2.160   1.102   1.013
   88TIP3    H2  271   2.218   1.214   0.930
   89TIP3   OH2  272   4.822   5.798   2.509
   89TIP3    H1  273   4.881   5.779   2.583
   89TIP3    H2  274   4.781   5.881   2.533
   90TIP3   OH2  275   1.054  -0.001   2.949
   90TIP3    H1  276   1.117  -0.074   2.954
   90TIP3    H2  277   1.109   0.078   2.952
   91TIP3   OH2  278   2.369   5.804   2.435
   91TIP3    H1  279   2.352   5.877   2.375
   91TIP3    H2  280   2.283   5.770   2.457
   92TIP3   OH2  281   2.237   2.823   1.353
   92TIP3    H1  282   2.239   2.881   1.276
   92TIP3    H2  283   2.165   2.763   1.336
   93TIP3   OH2  284   2.147   3.575   3.363
   93TIP3    H1  285   2.242   3.568   3.370
   93TIP3    H2  286   2.128   3.667   3.382
   94TIP3   OH2  287   4.971   5.373   4.046
   94TIP3    H1  288   4.952   5.407   4.133
   94TIP3    H2  289   4.907   5.416   3.989
   95TIP3   OH2  290   2.875   5.050   1.502
   95TIP3    H1  291   2.970   5.057   1.490
   95TIP3    H2  292   2.839   5.067   1.415
   96TIP3   OH2  293  -0.025   5.332   0.193
   96TIP3    H1  294   0.048   5.275   0.168
   96TIP3    H2  295  -0.002   5.361   0.282
   97TIP3   OH2  296   4.951   1.362   4.953
   97TIP3    H1  297   4.859   1.349   4.932
   97TIP3    H2  298   4.955   1.448   4.995
   98TIP3   OH2  299   2.021   0.139   0.753
   98TIP3    H1  300   2.107   0.141   0.711
   98TIP3    H2  301   1.967   0.199   0.701
   99TIP3   OH2  302   2.569   1.873   3.563
   99TIP3    H1  303   2.641   1.926   3.597
   99TIP3    H2  304   2.612   1.792   3.533
  100TIP3   OH2  305   0.093   4.403   4.132
  100TIP3    H1  306   0.107   4.313   4.163
  100TIP3    H2  307   0.111   4.458   4.208
  101TIP3   OH2  308   0.907   0.888   0.706
  101TIP3    H1  309   0.992   0.856   0.676
  101TIP3    H2  310   0.866   0.926   0.628
  102TIP3   OH2  311   4.199   3.171   5.006
  102TIP3    H1  312   4.265   3.239   4.993
  102TIP3    H2  313   4.248   3.093   5.031
  103TIP3   OH2  314   1.703   4.952   2.869
  103TIP3    H1  315   1.662   4.867   2.884
  103TIP3    H2  316   1.690   5.000   2.950
  104TIP3   OH2  317   2.294   5.423   4.002
  104TIP3    H1  318   2.337   5.378   3.929
  104TIP3    H2  319   2.249   5.497   3.962
  105TIP3   OH2  320   3.704   1.672   2.019
  105TIP3    H1  321   3.772   1.631   1.965
  105TIP3    H2  322   3.752   1.711   2.092
  106TIP3   OH2  323   6.262   4.746   1.376
  106TIP3    H1  324   6.343   4.713   1.416
  106TIP3    H2  325   6.260   4.839   1.399
  107TIP3   OH2  326   5.632   1.785   4.526
  107TIP3    H1  327   5.550   1.740   4.509
  107TIP3    H2  328   5.614   1.841   4.601
  108TIP3   OH2  329   4.960   2.192   2.079
  108TIP3    H1  330   5.025   2.123   2.078
  108TIP3    H2  331   4.905   2.174   2.002
  109TIP3   OH2  332   3.038   5.451   1.697
  109TIP3    H1  333   2.947   5.437   1.724
  109TIP3    H2  334   3.071   5.363   1.678
  110TIP3   OH2  335   0.575   3.623   0.613
  110TIP3    H1  336   0.577   3.699   0.554
  110TIP3    H2  337   0.482   3.606   0.627
  111TIP3   OH2  338   0.939   4.123   1.427
  111TIP3    H1  339   0.925   4.217   1.441
  111TIP3    H2  340   1.033   4.111   1.441
  112TIP3   OH2  341   2.525   4.568   5.111
  112TIP3    H1  342   2.490   4.551   5.198
  112TIP3    H2  343   2.533   4.481   5.072
  113TIP3   OH2  344   5.807   5.954   1.538
  113TIP3    H1  345   5.821   6.023   1.602
  113TIP3    H2  346   5.870   5.887   1.560
  114TIP3   OH2  347   4.051   0.919   1.074
  114TIP3    H1  348   4.078   0.942   0.985
  114TIP3    H2  349   4.045   0.824   1.074
  115TIP3   OH2  350   5.013   3.627   4.511
  115TIP3    H1  351   5.080   3.578   4.465
  115TIP3    H2  352   5.039   3.719   4.501
  116TIP3   OH2  353   2.291   5.728   0.616
  116TIP3    H1  354   2.347   5.779   0.558
  116TIP3    H2  355   2.203   5.738   0.579
  117TIP3   OH2  356   0.035   1.533   0.841
  117TIP3    H1  357   0.023   1.461   0.780
  117TIP3    H2  358  -0.053   1.557   0.868
  118TIP3   OH2  359   2.596   1.124   3.649
  118TIP3    H1  360   2.518   1.071   3.669
  118TIP3    H2  361   2.669   1.072   3.683
  119TIP3   OH2  362   6.342   5.640   3.159
  119TIP3    H1  363   6.386   5.625   3.242
  119TIP3    H2  364   6.268   5.580   3.160
  120TIP3   OH2  365   6.076   2.550   2.384
  120TIP3    H1  366   6.012   2.605   2.339
  120TIP3    H2  367   6.104   2.602   2.458
  121TIP3   OH2  368   0.240   0.668   2.121
  121TIP3    H1  369   0.336   0.667   2.118
  121TIP3    H2  370   0.214   0.720   2.045
  122TIP3   OH2  371   4.904   5.167   0.857
  122TIP3    H1  372   4.852   5.108   0.911
  122TIP3    H2  373   4.870   5.156   0.769
  123TIP3   OH2  374   1.914   2.946   4.325
  123TIP3    H1  375   1.961   2.881   4.273
  123TIP3    H2  376   1.822   2.920   4.318
  124TIP3   OH2  377   0.152   4.882   1.592
  124TIP3    H1  378   0.161   4.889   1.687
  124TIP3    H2  379   0.241   4.897   1.558
  125TIP3   OH2  380   3.620   4.641   1.215
  125TIP3    H1  381   3.531   4.612   1.234
  125TIP3    H2  382   3.656   4.574   1.157
  126TIP3   OH2  383   1.968   0.319   3.862
  126TIP3    H1  384   1.925   0.267   3.794
  126TIP3    H2  385   1.944   0.410   3.842
  127TIP3   OH2  386   6.220   4.278   4.465
  127TIP3    H1  387   6.273   4.350   4.431
  127TIP3    H2  388   6.265   4.252   4.546
  128TIP3   OH2  389   2.016   1.752   0.740
  128TIP3    H1  390   2.012   1.735   0.834
  128TIP3    H2  391   2.027   1.847   0.734
  129TIP3   OH2  392   0.911   5.690   2.752
  129TIP3    H1  393   0.914   5.616   2.691
  129TIP3    H2  394   0.969   5.756   2.713
  130TIP3   OH2  395   5.692   1.897   3.973
  130TIP3    H1  396   5.779   1.933   3.957
  130TIP3    H2  397   5.678   1.909   4.067
  131TIP3   OH2  398   0.257   3.968   4.375
  131TIP3    H1  399   0.287   4.010   4.456
  131TIP3    H2  400   0.203   3.895   4.405
  132TIP3   OH2  401   0.592   4.735   4.857
  132TIP3    H1  402   0.676   4.732   4.810
  132TIP3    H2  403   0.596   4.815   4.908
  133TIP3   OH2  404   1.625   1.837   2.325
  133TIP3    H1  405   1.602   1.756   2.370
  133TIP3    H2  406   1.678   1.885   2.388
  134TIP3   OH2  407   5.242   0.334   1.370
  134TIP3    H1  408   5.290   0.254   1.391
  134TIP3    H2  409   5.307   0.392   1.330
  135TIP3   OH2  410   0.514   5.552   2.467
  135TIP3    H1  411   0.509   5.457   2.456
  135TIP3    H2  412   0.524   5.564   2.562
  136TIP3   OH2  413   0.056   2.041   4.594
  136TIP3    H1  414   0.112   2.118   4.586
  136TIP3    H2  415   0.051   2.005   4.506
  137TIP3   OH2  416   2.535   3.033   2.913
  137TIP3    H1  417   2.482   2.958   2.888
  137TIP3    H2  418   2.489   3.109   2.876
  138TIP3   OH2  419   1.199   1.434   5.123
  138TIP3    H1  420   1.122   1.397   5.166
  138TIP3    H2  421   1.164   1.496   5.060
  139TIP3   OH2  422   6.336   0.244   2.436
  139TIP3    H1  423   6.297   0.313   2.382
  139TIP3    H2  424   6.284   0.246   2.517
  140TIP3   OH2  425   1.819   0.248   0.516
  140TIP3    H1  426   1.737   0.298   0.514
  140TIP3    H2  427   1.793   0.161   0.484
  141TIP3   OH2  428   4.852   5.109   2.680
  141TIP3    H1  429   4.808   5.192   2.702
  141TIP3    H2  430   4.903   5.130   2.602
  142TIP3   OH2  431   3.591   0.854   0.197
  142TIP3    H1  432   3.543   0.785   0.151
  142TIP3    H2  433   3.662   0.808   0.242
  143TIP3   OH2  434   3.082   5.757   0.842
  143TIP3    H1  435   3.102   5.819   0.912
  143TIP3    H2  436   2.994   5.782   0.812
  144TIP3   OH2  437  -0.011   5.741   4.081
  144TIP3    H1  438  -0.036   5.817   4.134
  144TIP3    H2  439   0.084   5.734   4.091
  145TIP3   OH2  440   4.455   0.813   4.879
  145TIP3    H1  441   4.477   0.721   4.892
  145TIP3    H2  442   4.488   0.833   4.791
  146TIP3   OH2  443   4.504   4.906   0.537
  146TIP3    H1  444   4.435   4.855   0.494
  146TIP3    H2  445   4.585   4.859   0.515
  147TIP3   OH2  446   0.422   2.673   4.282
  147TIP3    H1  447   0.352   2.610   4.263
  147TIP3    H2  448   0.380   2.739   4.337
  148TIP3   OH2  449   0.207   4.811   2.135
  148TIP3    H1  450   0.253   4.739   2.092
  148TIP3    H2  451   0.134   4.769   2.180
  149TIP3   OH2  452   5.446   2.150   3.514
  149TIP3    H1  453   5.466   2.068   3.558
  149TIP3    H2  454   5.510   2.212   3.550
  150TIP3   OH2  455   6.322   5.200   3.792
  150TIP3    H1  456   6.278   5.144   3.856
  150TIP3    H2  457   6.286   5.172   3.708
  151TIP3   OH2  458   3.802   0.775   2.226
  151TIP3    H1  459   3.829   0.796   2.137
  151TIP3    H2  460   3.715   0.736   2.216
  152TIP3   OH2  461   0.602   1.232   0.766
  152TIP3    H1  462   0.691   1.244   0.733
  152TIP3    H2  463   0.614   1.198   0.854
  153TIP3   OH2  464   0.980   5.263   0.829
  153TIP3    H1  465   1.055   5.288   0.774
  153TIP3    H2  466   0.951   5.345   0.869
  154TIP3   OH2  467   4.835   2.904   0.210
  154TIP3    H1  468   4.821   2.997   0.228
  154TIP3    H2  469   4.915   2.882   0.259
  155TIP3   OH2  470   3.592   3.898   0.437
  155TIP3    H1  471   3.658   3.895   0.368
  155TIP3    H2  472   3.632   3.850   0.510
  156TIP3   OH2  473   0.101   4.778   2.780
  156TIP3    H1  474   0.026   4.837   2.782
  156TIP3    H2  475   0.164   4.820   2.721
  157TIP3   OH2  476   1.610   2.956   1.965
  157TIP3    H1  477   1.556   2.960   2.045
  157TIP3    H2  478   1.676   2.890   1.984
  158TIP3   OH2  479   4.468   3.591   1.487
  158TIP3    H1  480   4.527   3.546   1.548
  158TIP3    H2  481   4.496   3.683   1.491
  159TIP3   OH2  482   5.486   1.020   3.097
  159TIP3    H1  483   5.517   0.930   3.107
  159TIP3    H2  484   5.422   1.016   3.026
  160TIP3   OH2  485   6.177   4.082   0.451
  160TIP3    H1  486   6.235   4.083   0.376
  160TIP3    H2  487   6.170   4.174   0.478
  161TIP3   OH2  488   2.017   0.327   3.058
  161TIP3    H1  489   2.080   0.344   3.128
  161TIP3    H2  490   2.065   0.347   2.977
  162TIP3   OH2  491   0.183   1.531   2.427
  162TIP3    H1  492   0.148   1.444   2.443
  162TIP3    H2  493   0.108   1.583   2.397
  163TIP3   OH2  494   3.175   2.069   3.014
  163TIP3    H1  495   3.204   2.070   2.923
  163TIP3    H2  496   3.248   2.108   3.063
  164TIP3   OH2  497   1.780   0.949   3.718
  164TIP3    H1  498   1.686   0.931   3.716
  164TIP3    H2  499   1.802   0.952   3.811
  165TIP3   OH2  500   0.811   5.145   2.427
  165TIP3    H1  501   0.860   5.068   2.397
  165TIP3    H2  502   0.770   5.179   2.347
  166TIP3   OH2  503   4.624   0.314   4.435
  166TIP3    H1  504   4.547   0.358   4.397
  166TIP3    H2  505   4.695   0.377   4.423
  167TIP3   OH2  506   4.448   0.837   1.773
  167TIP3    H1  507   4.490   0.751   1.774
  167TIP3    H2  508   4.425   0.853   1.865
  168TIP3   OH2  509   4.055   2.334   5.046
  168TIP3    H1  510   4.084   2.414   5.089
  168TIP3    H2  511   4.127   2.272   5.058
  169TIP3   OH2  512   5.335   0.202   3.170
  169TIP3    H1  513   5.280   0.157   3.233
  169TIP3    H2  514   5.320   0.295   3.187
  170TIP3   OH2  515   0.423   4.555   4.101
  170TIP3    H1  516   0.500   4.526   4.051
  170TIP3    H2  517   0.395   4.635   4.056
  171TIP3   OH2  518   3.120   4.356   0.184
  171TIP3    H1  519   3.113   4.283   0.246
  171TIP3    H2  520   3.207   4.392   0.200
  172TIP3   OH2  521   3.512   4.756   3.511
  172TIP3    H1  522   3.579   4.688   3.501
  172TIP3    H2  523   3.547   4.832   3.466
  173TIP3   OH2  524   4.454   3.888   4.846
  173TIP3    H1  525   4.457   3.878   4.941
  173TIP3    H2  526   4.419   3.805   4.814
  174TIP3   OH2  527   5.352   4.407   5.083
  174TIP3    H1  528   5.441   4.419   5.050
  174TIP3    H2  529   5.319   4.495   5.099
  175TIP3   OH2  530   3.589   2.638   3.188
  175TIP3    H1  531   3.640   2.678   3.259
  175TIP3    H2  532   3.504   2.619   3.227
  176TIP3   OH2  533   4.039   3.026   0.317
  176TIP3    H1  534   4.043   2.939   0.357
  176TIP3    H2  535   4.048   3.086   0.391
  177TIP3   OH2  536   3.915   3.991   1.199
  177TIP3    H1  537   3.902   4.073   1.246
  177TIP3    H2  538   3.908   3.923   1.267
  178TIP3   OH2  539   3.626   5.413   0.462
  178TIP3    H1  540   3.709   5.444   0.425
  178TIP3    H2  541   3.586   5.492   0.499
  179TIP3   OH2  542   6.192   5.079   2.489
  179TIP3    H1  543   6.179   4.990   2.457
  179TIP3    H2  544   6.242   5.122   2.420
  180TIP3   OH2  545   4.827   2.526   4.127
  180TIP3    H1  546   4.809   2.456   4.065
  180TIP3    H2  547   4.922   2.526   4.137
  181TIP3   OH2  548   4.157   4.758   2.737
  181TIP3    H1  549   4.236   4.788   2.782
  181TIP3    H2  550   4.186   4.738   2.648
  182TIP3   OH2  551   3.549   2.034   4.343
  182TIP3    H1  552   3.544   2.096   4.416
  182TIP3    H2  553   3.606   2.077   4.280
  183TIP3   OH2  554   3.053   2.350   4.446
  183TIP3    H1  555   2.975   2.326   4.498
  183TIP3    H2  556   3.044   2.300   4.365
  184TIP3   OH2  557   4.576   0.311   4.727
  184TIP3    H1  558   4.605   0.226   4.759
  184TIP3    H2  559   4.585   0.305   4.632
  185TIP3   OH2  560   4.151   5.423   0.640
  185TIP3    H1  561   4.230   5.398   0.593
  185TIP3    H2  562   4.175   5.503   0.687
  186TIP3   OH2  563   3.314   5.221   1.883
  186TIP3    H1  564   3.390   5.182   1.927
  186TIP3    H2  565   3.243   5.158   1.897
  187TIP3   OH2  566   0.828   2.949   5.060
  187TIP3    H1  567   0.922   2.961   5.044
  187TIP3    H2  568   0.786   3.026   5.022
  188TIP3   OH2  569   1.666   3.531   2.871
  188TIP3    H1  570   1.737   3.552   2.932
  188TIP3    H2  571   1.609   3.607   2.875
  189TIP3   OH2  572   1.206   2.113   1.353
  189TIP3    H1  573   1.196   2.092   1.445
  189TIP3    H2  574   1.128   2.075   1.311
  190TIP3   OH2  575   2.287   5.817   0.150
  190TIP3    H1  576   2.289   5.722   0.159
  190TIP3    H2  577   2.197   5.842   0.171
  191TIP3   OH2  578   5.757   1.752   3.016
  191TIP3    H1  579   5.770   1.666   3.055
  191TIP3    H2  580   5.671   1.780   3.049
  192TIP3   OH2  581   5.865   0.442   3.630
  192TIP3    H1  582   5.916   0.376   3.584
  192TIP3    H2  583   5.817   0.394   3.698
  193TIP3   OH2  584   6.296   0.087   5.164
  193TIP3    H1  585   6.350   0.134   5.101
  193TIP3    H2  586   6.358   0.049   5.227
  194TIP3   OH2  587   5.930   1.442   2.353
  194TIP3    H1  588   5.877   1.409   2.281
  194TIP3    H2  589   5.950   1.364   2.405
  195TIP3   OH2  590   4.617   2.445   0.300
  195TIP3    H1  591   4.597   2.529   0.341
  195TIP3    H2  592   4.631   2.385   0.373
  196TIP3   OH2  593   1.504   0.176   3.230
  196TIP3    H1  594   1.569   0.108   3.250
  196TIP3    H2  595   1.521   0.200   3.139
  197TIP3   OH2  596   3.314   4.881   0.452
  197TIP3    H1  597   3.255   4.956   0.455
  197TIP3    H2  598   3.278   4.824   0.384
  198TIP3   OH2  599   5.740   0.597   1.291
  198TIP3    H1  600   5.739   0.596   1.387
  198TIP3    H2  601   5.832   0.611   1.268
  199TIP3   OH2  602   3.122   3.789   4.085
  199TIP3    H1  603   3.049   3.728   4.076
  199TIP3    H2  604   3.200   3.738   4.063
  200TIP3   OH2  605   5.097   4.266   1.571
  200TIP3    H1  606   5.150   4.335   1.531
  200TIP3    H2  607   5.140   4.185   1.546
  201TIP3   OH2  608   0.217   2.657   3.315
  201TIP3    H1  609   0.276   2.708   3.259
  201TIP3    H2  610   0.267   2.579   3.338
  202TIP3   OH2  611   4.741   0.414   3.059
  202TIP3    H1  612   4.830   0.410   3.094
  202TIP3    H2  613   4.695   0.476   3.116
  203TIP3   OH2  614   2.263   3.983   4.289
  203TIP3    H1  615   2.238   4.075   4.276
  203TIP3    H2  616   2.195   3.948   4.347
  204TIP3   OH2  617   0.394   5.710   2.983
  204TIP3    H1  618   0.327   5.733   3.047
  204TIP3    H2  619   0.470   5.686   3.035
  205TIP3   OH2  620   3.811   0.920   3.067
  205TIP3    H1  621   3.810   0.956   2.979
  205TIP3    H2  622   3.738   0.961   3.112
  206TIP3   OH2  623   1.870   1.898   3.453
  206TIP3    H1  624   1.915   1.967   3.503
  206TIP3    H2  625   1.780   1.899   3.487
  207TIP3   OH2  626   1.024   2.101   0.873
  207TIP3    H1  627   0.980   2.021   0.902
  207TIP3    H2  628   1.004   2.165   0.941
  208TIP3   OH2  629   4.095   1.511   2.414
  208TIP3    H1  630   4.093   1.423   2.377
  208TIP3    H2  631   4.187   1.530   2.429
  209TIP3   OH2  632   4.603   4.431   5.007
  209TIP3    H1  633   4.539   4.429   5.078
  209TIP3    H2  634   4.682   4.392   5.045
  210TIP3   OH2  635   5.070   4.853   3.171
  210TIP3    H1  636   5.055   4.816   3.257
  210TIP3    H2  637   5.001   4.815   3.116
  211TIP3   OH2  638   6.098   1.752   0.651
  211TIP3    H1  639   6.137   1.711   0.728
  211TIP3    H2  640   6.011   1.713   0.645
  212TIP3   OH2  641   2.566   3.446   0.205
  212TIP3    H1  642   2.587   3.362   0.246
  212TIP3    H2  643   2.565   3.508   0.278
  213TIP3   OH2  644   2.100   1.404   4.807
  213TIP3    H1  645   2.017   1.366   4.837
  213TIP3    H2  646   2.101   1.387   4.713
  214TIP3   OH2  647   2.486   2.212   3.445
  214TIP3    H1  648   2.550   2.202   3.515
  214TIP3    H2  649   2.411   2.161   3.473
  215TIP3   OH2  650   1.557   2.921   3.296
  215TIP3    H1  651   1.613   2.924   3.374
  215TIP3    H2  652   1.527   3.011   3.285
  216TIP3   OH2  653   0.174   2.642   4.501
  216TIP3    H1  654   0.214   2.728   4.492
  216TIP3    H2  655   0.239   2.589   4.546
  217TIP3   OH2  656   5.435   2.610   0.615
  217TIP3    H1  657   5.505   2.619   0.551
  217TIP3    H2  658   5.481   2.593   0.698
  218TIP3   OH2  659   1.843   3.103   2.794
  218TIP3    H1  660   1.833   3.030   2.733
  218TIP3    H2  661   1.828   3.064   2.880
  219TIP3   OH2  662   3.233   4.148   2.044
  219TIP3    H1  663   3.242   4.225   1.988
  219TIP3    H2  664   3.275   4.077   1.995
  220TIP3   OH2  665   5.616   4.519   5.015
  220TIP3    H1  666   5.675   4.469   5.072
  220TIP3    H2  667   5.668   4.594   4.985
  221TIP3   OH2  668   3.985   4.638   1.222
  221TIP3    H1  669   4.017   4.619   1.135
  221TIP3    H2  670   4.063   4.660   1.273
  222TIP3   OH2  671   5.991   4.576   0.196
  222TIP3    H1  672   5.959   4.514   0.261
  222TIP3    H2  673   5.913   4.626   0.170
  223TIP3   OH2  674   1.339   4.443   0.637
  223TIP3    H1  675   1.270   4.467   0.574
  223TIP3    H2  676   1.363   4.353   0.612
  224TIP3   OH2  677   3.131   1.029   0.923
  224TIP3    H1  678   3.159   0.984   1.002
  224TIP3    H2  679   3.208   1.079   0.895
  225TIP3   OH2  680   1.486   0.176   4.999
  225TIP3    H1  681   1.491   0.271   4.989
  225TIP3    H2  682   1.403   0.152   4.956
  226TIP3   OH2  683   3.139   3.809   0.625
  226TIP3    H1  684   3.092   3.821   0.707
  226TIP3    H2  685   3.145   3.897   0.587
  227TIP3   OH2  686   1.970   2.753   2.746
  227TIP3    H1  687   1.928   2.831   2.709
  227TIP3    H2  688   1.933   2.680   2.696
  228TIP3   OH2  689   2.221   5.980   3.642
  228TIP3    H1  690   2.261   5.894   3.652
  228TIP3    H2  691   2.231   6.001   3.549
  229TIP3   OH2  692   3.247   2.660   1.342
  229TIP3    H1  693   3.202   2.587   1.385
  229TIP3    H2  694   3.241   2.639   1.248
  230TIP3   OH2  695   6.197   2.886   1.108
  230TIP3    H1  696   6.213   2.978   1.085
  230TIP3    H2  697   6.192   2.841   1.024
  231TIP3   OH2  698   5.129   5.727   3.729
  231TIP3    H1  699   5.138   5.822   3.724
  231TIP3    H2  700   5.180   5.702   3.805
  232TIP3   OH2  701   3.314   1.392   0.686
  232TIP3    H1  702   3.362   1.322   0.642
  232TIP3    H2  703   3.313   1.367   0.778
  233TIP3   OH2  704   4.869   5.459   1.361
  233TIP3    H1  705   4.813   5.447   1.285
  233TIP3    H2  706   4.944   5.401   1.347
  234TIP3   OH2  707   0.477   1.872   0.770
  234TIP3    H1  708   0.412   1.814   0.730
  234TIP3    H2  709   0.558   1.855   0.722
  235TIP3   OH2  710   3.841   1.227   0.299
  235TIP3    H1  711   3.819   1.315   0.328
  235TIP3    H2  712   3.761   1.194   0.258
  236TIP3   OH2  713   4.484   0.854   0.720
  236TIP3    H1  714   4.524   0.836   0.805
  236TIP3    H2  715   4.461   0.768   0.686
  237TIP3   OH2  716   4.383   0.034   0.805
  237TIP3    H1  717   4.362   0.004   0.717
  237TIP3    H2  718   4.299   0.060   0.843
  238TIP3   OH2  719   4.328   4.458   1.789
  238TIP3    H1  720   4.273   4.393   1.833
  238TIP3    H2  721   4.266   4.514   1.743
  239TIP3   OH2  722   0.253   3.812   3.726
  239TIP3    H1  723   0.318   3.747   3.753
  239TIP3    H2  724   0.213   3.841   3.808
  240TIP3   OH2  725   2.238   2.500   0.773
  240TIP3    H1  726   2.180   2.554   0.719
  240TIP3    H2  727   2.313   2.482   0.717
  241TIP3   OH2  728   3.099   3.889   3.259
  241TIP3    H1  729   3.101   3.904   3.164
  241TIP3    H2  730   3.037   3.817   3.270
  242TIP3   OH2  731   2.287   4.244   2.808
  242TIP3    H1  732   2.249   4.311   2.864
  242TIP3    H2  733   2.315   4.175   2.868
  243TIP3   OH2  734   4.262   4.998   1.883
  243TIP3    H1  735   4.316   5.054   1.939
  243TIP3    H2  736   4.201   4.955   1.943
  244TIP3   OH2  737   4.796   3.098   2.719
  244TIP3    H1  738   4.784   3.133   2.807
  244TIP3    H2  739   4.890   3.084   2.711
  245TIP3   OH2  740   4.331   1.301   4.579
  245TIP3    H1  741   4.386   1.299   4.501
  245TIP3    H2  742   4.338   1.213   4.616
  246TIP3   OH2  743   4.319   1.230   0.003
  246TIP3    H1  744   4.331   1.247   0.097
  246TIP3    H2  745   4.234   1.185  -0.002
  247TIP3   OH2  746   3.090   3.186   1.516
  247TIP3    H1  747   3.088   3.094   1.540
  247TIP3    H2  748   3.107   3.186   1.422
  248TIP3   OH2  749   3.901   4.247   1.342
  248TIP3    H1  750   3.820   4.213   1.380
  248TIP3    H2  751   3.946   4.290   1.416
  249TIP3   OH2  752   4.952   0.391   2.021
  249TIP3    H1  753   5.033   0.359   1.980
  249TIP3    H2  754   4.887   0.324   2.002
  250TIP3   OH2  755   3.180   5.395   0.576
  250TIP3    H1  756   3.119   5.347   0.631
  250TIP3    H2  757   3.266   5.379   0.615
  251TIP3   OH2  758   4.478   5.944   1.498
  251TIP3    H1  759   4.519   5.920   1.414
  251TIP3    H2  760   4.536   5.905   1.564
  252TIP3   OH2  761   4.694   4.047   3.394
  252TIP3    H1  762   4.720   4.118   3.453
  252TIP3    H2  763   4.728   4.073   3.308
  253TIP3   OH2  764   2.828   5.787   4.728
  253TIP3    H1  765   2.821   5.876   4.762
  253TIP3    H2  766   2.919   5.778   4.702
  254TIP3   OH2  767   1.530   4.788   0.649
  254TIP3    H1  768   1.614   4.784   0.696
  254TIP3    H2  769   1.499   4.698   0.648
  255TIP3   OH2  770   2.995   3.575   3.056
  255TIP3    H1  771   2.931   3.506   3.073
  255TIP3    H2  772   2.941   3.654   3.046
  256TIP3   OH2  773   2.963   1.812   4.127
  256TIP3    H1  774   2.990   1.840   4.215
  256TIP3    H2  775   3.045   1.789   4.083
  257TIP3   OH2  776   6.072   2.559   3.328
  257TIP3    H1  777   6.062   2.481   3.383
  257TIP3    H2  778   6.151   2.543   3.277
  258TIP3   OH2  779   5.142   1.846   1.414
  258TIP3    H1  780   5.187   1.762   1.423
  258TIP3    H2  781   5.190   1.906   1.472
  259TIP3   OH2  782   2.502   5.662   3.259
  259TIP3    H1  783   2.483   5.713   3.180
  259TIP3    H2  784   2.529   5.577   3.225
  260TIP3   OH2  785   1.254   1.345   4.443
  260TIP3    H1  786   1.191   1.279   4.471
  260TIP3    H2  787   1.268   1.327   4.350
  261TIP3   OH2  788   2.390   4.883   3.340
  261TIP3    H1  789   2.348   4.842   3.265
  261TIP3    H2  790   2.451   4.816   3.373
  262TIP3   OH2  791   3.096   5.934   3.619
  262TIP3    H1  792   3.149   5.993   3.673
  262TIP3    H2  793   3.014   5.924   3.668
  263TIP3   OH2  794   5.100   4.111   2.712
  263TIP3    H1  795   5.144   4.040   2.759
  263TIP3    H2  796   5.088   4.078   2.623
  264TIP3   OH2  797   0.852   3.793   0.847
  264TIP3    H1  798   0.922   3.843   0.890
  264TIP3    H2  799   0.822   3.731   0.914
  265TIP3   OH2  800   2.698   2.324   0.532
  265TIP3    H1  801   2.711   2.238   0.494
  265TIP3    H2  802   2.687   2.308   0.626
  266TIP3   OH2  803   2.340   4.719   4.581
  266TIP3    H1  804   2.259   4.720   4.530
  266TIP3    H2  805   2.327   4.784   4.649
  267TIP3   OH2  806   4.433   0.313   0.807
  267TIP3    H1  807   4.460   0.221   0.810
  267TIP3    H2  808   4.396   0.330   0.893
  268TIP3   OH2  809   3.895   0.257   4.460
  268TIP3    H1  810   3.956   0.185   4.443
  268TIP3    H2  811   3.858   0.277   4.374
  269TIP3   OH2  812   2.591   5.652   3.611
  269TIP3    H1  813   2.599   5.597   3.533
  269TIP3    H2  814   2.681   5.662   3.641
  270TIP3   OH2  815   4.859   4.882   4.034
  270TIP3    H1  816   4.783   4.862   4.088
  270TIP3    H2  817   4.921   4.812   4.054
  271TIP3   OH2  818   2.959   5.840   0.169
  271TIP3    H1  819   2.890   5.774   0.180
  271TIP3    H2  820   2.911   5.922   0.152
  272TIP3   OH2  821   1.260   4.527   4.014
  272TIP3    H1  822   1.251   4.606   4.068
  272TIP3    H2  823   1.171   4.493   4.006
  273TIP3   OH2  824   0.898   1.831   5.080
  273TIP3    H1  825   0.992   1.810   5.076
  273TIP3    H2  826   0.877   1.863   4.992
  274TIP3   OH2  827   0.868   5.058   4.043
  274TIP3    H1  828   0.880   5.041   4.136
  274TIP3    H2  829   0.802   4.994   4.015
  275TIP3   OH2  830   3.546   0.814   4.881
  275TIP3    H1  831   3.559   0.909   4.883
  275TIP3    H2  832   3.457   0.801   4.848
  276TIP3   OH2  833   3.273   4.136   2.577
  276TIP3    H1  834   3.263   4.162   2.486
  276TIP3    H2  835   3.208   4.067   2.591
  277TIP3   OH2  836   4.139   1.814   0.075
  277TIP3    H1  837   4.230   1.834   0.052
  277TIP3    H2  838   4.141   1.796   0.169
  278TIP3   OH2  839   6.391   4.496   0.569
  278TIP3    H1  840   6.406   4.497   0.664
  278TIP3    H2  841   6.302   4.464   0.559
  279TIP3   OH2  842   2.578   4.858   2.840
  279TIP3    H1  843   2.577   4.946   2.803
  279TIP3    H2  844   2.527   4.806   2.778
  280TIP3   OH2  845   0.627   1.102   2.180
  280TIP3    H1  846   0.554   1.152   2.144
  280TIP3    H2  847   0.697   1.167   2.192
  281TIP3   OH2  848   1.894   2.050   0.408
  281TIP3    H1  849   1.921   1.958   0.404
  281TIP3    H2  850   1.800   2.046   0.429
  282TIP3   OH2  851   1.961   3.201   4.488
  282TIP3    H1  852   2.023   3.266   4.457
  282TIP3    H2  853   1.956   3.137   4.417
  283TIP3   OH2  854   5.700   2.319   4.617
  283TIP3    H1  855   5.775   2.378   4.604
  283TIP3    H2  856   5.714   2.284   4.705
  284TIP3   OH2  857   0.515   1.261   0.204
  284TIP3    H1  858   0.532   1.350   0.173
  284TIP3    H2  859   0.588   1.243   0.264
  285TIP3   OH2  860   5.879   3.650   3.490
  285TIP3    H1  861   5.805   3.592   3.474
  285TIP3    H2  862   5.916   3.619   3.572
  286TIP3   OH2  863   4.525   2.823   2.366
  286TIP3    H1  864   4.515   2.737   2.407
  286TIP3    H2  865   4.545   2.882   2.439
  287TIP3   OH2  866   2.061   0.488   3.508
  287TIP3    H1  867   2.065   0.395   3.529
  287TIP3    H2  868   1.982   0.520   3.552
  288TIP3   OH2  869   5.302   1.462   1.594
  288TIP3    H1  870   5.331   1.371   1.599
  288TIP3    H2  871   5.255   1.477   1.676
  289TIP3   OH2  872   5.124   2.435   2.045
  289TIP3    H1  873   5.063   2.363   2.059
  289TIP3    H2  874   5.111   2.460   1.953
  290TIP3   OH2  875   6.245   1.857   3.136
  290TIP3    H1  876   6.209   1.909   3.208
  290TIP3    H2  877   6.300   1.791   3.179
  291TIP3   OH2  878   3.244   2.743   2.820
  291TIP3    H1  879   3.216   2.825   2.780
  291TIP3    H2  880   3.323   2.766   2.869
  292TIP3   OH2  881   4.945   4.252   0.724
  292TIP3    H1  882   4.941   4.346   0.710
  292TIP3    H2  883   5.033   4.227   0.696
  293TIP3   OH2  884   0.572   2.203   4.889
  293TIP3    H1  885   0.550   2.110   4.895
  293TIP3    H2  886   0.666   2.205   4.873
  294TIP3   OH2  887   4.883   5.441   1.842
  294TIP3    H1  888   4.974   5.437   1.873
  294TIP3    H2  889   4.849   5.523   1.879
  295TIP3   OH2  890   1.286   0.577   3.819
  295TIP3    H1  891   1.322   0.611   3.737
  295TIP3    H2  892   1.242   0.496   3.794
  296TIP3   OH2  893   6.216   2.620   4.765
  296TIP3    H1  894   6.165   2.648   4.689
  296TIP3    H2  895   6.202   2.526   4.770
  297TIP3   OH2  896   1.666   2.519   0.683
  297TIP3    H1  897   1.684   2.529   0.776
  297TIP3    H2  898   1.650   2.426   0.671
  298TIP3   OH2  899   0.982   1.905   0.108
  298TIP3    H1  900   1.029   1.917   0.191
  298TIP3    H2  901   1.010   1.978   0.053
  299TIP3   OH2  902   2.232   4.615   2.973
  299TIP3    H1  903   2.196   4.689   2.923
  299TIP3    H2  904   2.184   4.616   3.056
  300TIP3   OH2  905   2.636   3.907   1.824
  300TIP3    H1  906   2.603   3.989   1.789
  300TIP3    H2  907   2.560   3.848   1.826
  301TIP3   OH2  908   2.623   4.988   2.155
  301TIP3    H1  909   2.634   4.932   2.232
  301TIP3    H2  910   2.643   4.932   2.080
  302TIP3   OH2  911   4.680   5.902   0.715
  302TIP3    H1  912   4.654   5.983   0.758
  302TIP3    H2  913   4.624   5.835   0.755
  303TIP3   OH2  914   0.978   4.736   4.275
  303TIP3    H1  915   0.914   4.697   4.216
  303TIP3    H2  916   0.933   4.742   4.359
  304TIP3   OH2  917   4.516   0.003   4.201
  304TIP3    H1  918   4.604   0.040   4.203
  304TIP3    H2  919   4.482   0.016   4.289
  305TIP3   OH2  920   3.569   2.611   1.372
  305TIP3    H1  921   3.562   2.517   1.389
  305TIP3    H2  922   3.597   2.617   1.281
  306TIP3   OH2  923   2.139   0.038   2.362
  306TIP3    H1  924   2.195   0.093   2.307
  306TIP3    H2  925   2.051   0.050   2.326
  307TIP3   OH2  926   5.287   5.345   0.419
  307TIP3    H1  927   5.326   5.426   0.452
  307TIP3    H2  928   5.242   5.308   0.494
  308TIP3   OH2  929   2.859   5.486   3.713
  308TIP3    H1  930   2.948   5.495   3.677
  308TIP3    H2  931   2.801   5.500   3.638
  309TIP3   OH2  932   0.460   0.160   3.860
  309TIP3    H1  933   0.371   0.160   3.895
  309TIP3    H2  934   0.451   0.197   3.772
  310TIP3   OH2  935   0.544   0.312   4.595
  310TIP3    H1  936   0.544   0.384   4.532
  310TIP3    H2  937   0.539   0.355   4.680
  311TIP3   OH2  938   1.732   0.427   1.883
  311TIP3    H1  939   1.722   0.500   1.822
  311TIP3    H2  940   1.717   0.465   1.969
  312TIP3   OH2  941   1.160   5.167   1.022
  312TIP3    H1  942   1.203   5.252   1.023
  312TIP3    H2  943   1.110   5.166   0.941
  313TIP3   OH2  944   4.184   0.709   3.397
  313TIP3    H1  945   4.265   0.734   3.442
  313TIP3    H2  946   4.192   0.747   3.310
  314TIP3   OH2  947   0.676   0.333   1.756
  314TIP3    H1  948   0.650   0.352   1.666
  314TIP3    H2  949   0.618   0.261   1.782
  315TIP3   OH2  950   3.328   5.599   4.492
  315TIP3    H1  951   3.308   5.637   4.578
  315TIP3    H2  952   3.307   5.506   4.502
  316TIP3   OH2  953   1.885   4.117   0.380
  316TIP3    H1  954   1.869   4.024   0.391
  316TIP3    H2  955   1.933   4.124   0.298
  317TIP3   OH2  956   1.990   2.211   0.202
  317TIP3    H1  957   1.981   2.295   0.247
  317TIP3    H2  958   1.955   2.146   0.263
  318TIP3   OH2  959   2.771   5.323   2.711
  318TIP3    H1  960   2.783   5.335   2.617
  318TIP3    H2  961   2.746   5.409   2.743
  319TIP3   OH2  962   5.307   5.220   2.957
  319TIP3    H1  963   5.292   5.248   3.047
  319TIP3    H2  964   5.250   5.144   2.946
  320TIP3   OH2  965   1.924   2.563   4.245
  320TIP3    H1  966   1.939   2.473   4.216
  320TIP3    H2  967   1.834   2.582   4.217
  321TIP3   OH2  968   0.654   0.608   3.558
  321TIP3    H1  969   0.646   0.690   3.606
  321TIP3    H2  970   0.564   0.585   3.535
  322TIP3   OH2  971   2.868   0.275   0.825
  322TIP3    H1  972   2.868   0.365   0.857
  322TIP3    H2  973   2.928   0.229   0.884
  323TIP3   OH2  974   3.889   4.536   0.093
  323TIP3    H1  975   3.894   4.608   0.030
  323TIP3    H2  976   3.928   4.462   0.046
  324TIP3   OH2  977   5.163   5.214   0.227
  324TIP3    H1  978   5.217   5.275   0.277
  324TIP3    H2  979   5.124   5.157   0.294
  325TIP3   OH2  980   2.460   0.840   5.057
  325TIP3    H1  981   2.387   0.792   5.096
  325TIP3    H2  982   2.423   0.926   5.036
  326TIP3   OH2  983   1.097   2.583   4.464
  326TIP3    H1  984   1.055   2.515   4.411
  326TIP3    H2  985   1.040   2.659   4.455
  327TIP3   OH2  986   2.566   3.566   4.454
  327TIP3    H1  987   2.499   3.531   4.512
  327TIP3    H2  988   2.648   3.526   4.486
  328TIP3   OH2  989   4.998   0.163   0.764
  328TIP3    H1  990   4.982   0.105   0.690
  328TIP3    H2  991   5.088   0.193   0.752
  329TIP3   OH2  992   2.040   2.207   1.472
  329TIP3    H1  993   1.964   2.204   1.530
  329TIP3    H2  994   2.007   2.243   1.390
  330TIP3   OH2  995   3.354   4.136   4.417
  330TIP3    H1  996   3.350   4.066   4.483
  330TIP3    H2  997   3.310   4.098   4.340
  331TIP3   OH2  998   1.761   1.392   0.224
  331TIP3    H1  999   1.832   1.443   0.263
  331TIP3    H2 1000   1.685   1.449   0.230
  332TIP3   OH2 1001   2.131   4.360   0.430
  332TIP3    H1 1002   2.208   4.408   0.399
  332TIP3    H2 1003   2.117   4.393   0.519
  333TIP3   OH2 1004   4.599   0.583   1.006
  333TIP3    H1 1005   4.504   0.595   1.006
  333TIP3    H2 1006   4.630   0.636   0.933
  334TIP3   OH2 1007   0.302   4.218   0.659
  334TIP3    H1 1008   0.236   4.229   0.727
  334TIP3    H2 1009   0.293   4.296   0.604
  335TIP3   OH2 1010   0.134   5.779   1.169
  335TIP3    H1 1011   0.168   5.849   1.225
  335TIP3    H2 1012   0.122   5.821   1.083
  336TIP3   OH2 1013   4.676   4.320   3.059
  336TIP3    H1 1014   4.606   4.322   2.994
  336TIP3    H2 1015   4.660   4.240   3.110
  337TIP3   OH2 1016   1.708   3.324   0.246
  337TIP3    H1 1017   1.804   3.330   0.241
  337TIP3    H2 1018   1.690   3.231   0.259
  338TIP3   OH2 1019   4.972   3.495   4.738
  338TIP3    H1 1020   4.937   3.420   4.690
  338TIP3    H2 1021   4.985   3.562   4.672
  339TIP3   OH2 1022   2.209   4.586   2.669
  339TIP3    H1 1023   2.290   4.562   2.715
  339TIP3    H2 1024   2.197   4.679   2.688
  340TIP3   OH2 1025   4.829   5.556   3.059
  340TIP3    H1 1026   4.773   5.633   3.051
  340TIP3    H2 1027   4.844   5.529   2.968
  341TIP3   OH2 1028   3.979   1.106   3.209
  341TIP3    H1 1029   3.967   1.080   3.300
  341TIP3    H2 1030   3.921   1.047   3.160
  342TIP3   OH2 1031   0.898   0.077   4.074
  342TIP3    H1 1032   0.871   0.166   4.096
  342TIP3    H2 1033   0.967   0.056   4.138
  343TIP3   OH2 1034   3.895   0.240   3.576
  343TIP3    H1 1035   3.969   0.279   3.622
  343TIP3    H2 1036   3.932   0.208   3.494
  344TIP3   OH2 1037   0.692   2.665   2.535
  344TIP3    H1 1038   0.668   2.608   2.609
  344TIP3    H2 1039   0.759   2.615   2.488
  345TIP3   OH2 1040   6.089   3.280   4.412
  345TIP3    H1 1041   6.120   3.283   4.502
  345TIP3    H2 1042   6.102   3.189   4.385
  346TIP3   OH2 1043   5.485   3.535   2.181
  346TIP3    H1 1044   5.450   3.618   2.148
  346TIP3    H2 1045   5.532   3.559   2.261
  347TIP3   OH2 1046   5.325   5.655   3.898
  347TIP3    H1 1047   5.397   5.620   3.951
  347TIP3    H2 1048   5.253   5.593   3.912
  348TIP3   OH2 1049   2.346   5.757   4.113
  348TIP3    H1 1050   2.401   5.766   4.035
  348TIP3    H2 1051   2.372   5.831   4.169
  349TIP3   OH2 1052   5.734   5.211   0.179
  349TIP3    H1 1053   5.748   5.262   0.258
  349TIP3    H2 1054   5.750   5.273   0.107
  350TIP3   OH2 1055   0.134   4.883   1.879
  350TIP3    H1 1056   0.145   4.898   1.972
  350TIP3    H2 1057   0.040   4.865   1.868
  351TIP3   OH2 1058   3.820   4.488   0.553
  351TIP3    H1 1059   3.846   4.441   0.474
  351TIP3    H2 1060   3.840   4.580   0.534
  352TIP3   OH2 1061   0.192   1.156   0.296
  352TIP3    H1 1062   0.238   1.211   0.359
  352TIP3    H2 1063   0.211   1.195   0.211
  353TIP3   OH2 1064   4.623   0.054   2.793
  353TIP3    H1 1065   4.707   0.034   2.750
  353TIP3    H2 1066   4.564   0.074   2.720
  354TIP3   OH2 1067   4.360   5.350   3.759
  354TIP3    H1 1068   4.347   5.280   3.695
  354TIP3    H2 1069   4.436   5.399   3.725
  355TIP3   OH2 1070   3.143   4.156   3.711
  355TIP3    H1 1071   3.238   4.167   3.703
  355TIP3    H2 1072   3.113   4.143   3.621
  356TIP3   OH2 1073   1.077   5.256   2.483
  356TIP3    H1 1074   1.103   5.258   2.391
  356TIP3    H2 1075   0.996   5.206   2.484
  357TIP3   OH2 1076   2.555   0.165   2.203
  357TIP3    H1 1077   2.581   0.235   2.263
  357TIP3    H2 1078   2.596   0.086   2.237
  358TIP3   OH2 1079   2.288   4.401   1.479
  358TIP3    H1 1080   2.370   4.353   1.467
  358TIP3    H2 1081   2.316   4.489   1.506
  359TIP3   OH2 1082   0.507   1.347   2.484
  359TIP3    H1 1083   0.586   1.298   2.464
  359TIP3    H2 1084   0.467   1.365   2.398
  360TIP3   OH2 1085   1.051   5.881   1.276
  360TIP3    H1 1086   0.981   5.902   1.338
  360TIP3    H2 1087   1.080   5.965   1.241
  361TIP3   OH2 1088   4.267   0.956   1.438
  361TIP3    H1 1089   4.354   0.954   1.477
  361TIP3    H2 1090   4.281   0.984   1.348
  362TIP3   OH2 1091   3.895   1.784   0.603
  362TIP3    H1 1092   3.853   1.790   0.689
  362TIP3    H2 1093   3.982   1.822   0.616
  363TIP3   OH2 1094   5.111   1.194   5.121
  363TIP3    H1 1095   5.042   1.238   5.072
  363TIP3    H2 1096   5.086   1.102   5.122
  364TIP3   OH2 1097   3.255   1.394   3.324
  364TIP3    H1 1098   3.263   1.427   3.413
  364TIP3    H2 1099   3.244   1.472   3.270
  365TIP3   OH2 1100   4.626   0.026   4.786
  365TIP3    H1 1101   4.531   0.029   4.775
  365TIP3    H2 1102   4.645  -0.064   4.810
  366TIP3   OH2 1103   2.503   3.939   1.322
  366TIP3    H1 1104   2.567   3.932   1.251
  366TIP3    H2 1105   2.547   3.990   1.390
  367TIP3   OH2 1106   1.116   0.402   3.670
  367TIP3    H1 1107   1.035   0.450   3.691
  367TIP3    H2 1108   1.103   0.373   3.580
  368TIP3   OH2 1109   2.452   2.375   3.817
  368TIP3    H1 1110   2.502   2.406   3.741
  368TIP3    H2 1111   2.366   2.352   3.780
  369TIP3   OH2 1112   5.954   5.374   0.381
  369TIP3    H1 1113   5.980   5.418   0.300
  369TIP3    H2 1114   6.015   5.301   0.390
  370TIP3   OH2 1115   5.489   5.477   4.990
  370TIP3    H1 1116   5.537   5.551   5.028
  370TIP3    H2 1117   5.466   5.506   4.902
  371TIP3   OH2 1118   2.568   0.371   4.476
  371TIP3    H1 1119   2.491   0.325   4.442
  371TIP3    H2 1120   2.616   0.398   4.398
  372TIP3   OH2 1121   5.727   0.676   2.723
  372TIP3    H1 1122   5.647   0.623   2.733
  372TIP3    H2 1123   5.795   0.612   2.702
  373TIP3   OH2 1124   1.072   0.711   0.416
  373TIP3    H1 1125   1.126   0.667   0.351
  373TIP3    H2 1126   1.103   0.802   0.416
  374TIP3   OH2 1127   1.365   2.523   1.233
  374TIP3    H1 1128   1.421   2.476   1.295
  374TIP3    H2 1129   1.337   2.602   1.280
  375TIP3   OH2 1130   5.827   1.271   0.497
  375TIP3    H1 1131   5.920   1.271   0.479
  375TIP3    H2 1132   5.803   1.178   0.504
  376TIP3   OH2 1133   2.675   0.213   4.268
  376TIP3    H1 1134   2.701   0.161   4.192
  376TIP3    H2 1135   2.615   0.279   4.233
  377TIP3   OH2 1136   3.973   1.780   4.708
  377TIP3    H1 1137   4.028   1.846   4.665
  377TIP3    H2 1138   3.885   1.816   4.704
  378TIP3   OH2 1139   0.662   3.900   3.969
  378TIP3    H1 1140   0.575   3.940   3.972
  378TIP3    H2 1141   0.663   3.839   4.043
  379TIP3   OH2 1142   3.274   0.697   4.811
  379TIP3    H1 1143   3.331   0.632   4.769
  379TIP3    H2 1144   3.269   0.669   4.902
  380TIP3   OH2 1145   2.379   0.986   1.383
  380TIP3    H1 1146   2.323   1.062   1.398
  380TIP3    H2 1147   2.334   0.914   1.426
  381TIP3   OH2 1148   5.414   0.805   0.936
  381TIP3    H1 1149   5.365   0.726   0.958
  381TIP3    H2 1150   5.498   0.773   0.903
  382TIP3   OH2 1151   2.956   5.363   1.213
  382TIP3    H1 1152   2.979   5.442   1.163
  382TIP3    H2 1153   2.898   5.394   1.282
  383TIP3   OH2 1154   2.541   1.288   2.651
  383TIP3    H1 1155   2.478   1.337   2.704
  383TIP3    H2 1156   2.627   1.319   2.680
  384TIP3   OH2 1157   1.044   0.400   2.784
  384TIP3    H1 1158   1.067   0.491   2.805
  384TIP3    H2 1159   1.069   0.390   2.692
  385TIP3   OH2 1160   4.157   2.844   4.344
  385TIP3    H1 1161   4.073   2.889   4.351
  385TIP3    H2 1162   4.147   2.767   4.399
  386TIP3   OH2 1163   4.398   2.824   1.323
  386TIP3    H1 1164   4.379   2.916   1.302
  386TIP3    H2 1165   4.492   2.814   1.305
  387TIP3   OH2 1166   3.102   4.322   4.890
  387TIP3    H1 1167   3.146   4.324   4.805
  387TIP3    H2 1168   3.154   4.261   4.943
  388TIP3   OH2 1169   1.474   5.041   0.727
  388TIP3    H1 1170   1.481   4.959   0.678
  388TIP3    H2 1171   1.551   5.091   0.702
  389TIP3   OH2 1172   2.496   4.083   3.789
  389TIP3    H1 1173   2.448   4.028   3.850
  389TIP3    H2 1174   2.588   4.056   3.799
  390TIP3   OH2 1175   5.290   3.874   4.889
  390TIP3    H1 1176   5.211   3.920   4.861
  390TIP3    H2 1177   5.361   3.935   4.872
  391TIP3   OH2 1178   1.671   5.574   1.333
  391TIP3    H1 1179   1.674   5.615   1.419
  391TIP3    H2 1180   1.614   5.631   1.281
  392TIP3   OH2 1181   2.313   4.030   2.980
  392TIP3    H1 1182   2.305   4.076   3.064
  392TIP3    H2 1183   2.359   3.949   3.002
  393TIP3   OH2 1184   0.995   1.439   1.691
  393TIP3    H1 1185   1.022   1.493   1.765
  393TIP3    H2 1186   1.077   1.415   1.647
  394TIP3   OH2 1187   0.719   2.194   2.742
  394TIP3    H1 1188   0.728   2.178   2.836
  394TIP3    H2 1189   0.801   2.161   2.704
  395TIP3   OH2 1190   4.776   3.858   4.716
  395TIP3    H1 1191   4.744   3.796   4.650
  395TIP3    H2 1192   4.696   3.894   4.755
  396TIP3   OH2 1193   1.014   1.660   0.192
  396TIP3    H1 1194   0.999   1.739   0.139
  396TIP3    H2 1195   1.085   1.614   0.147
  397TIP3   OH2 1196   0.219   4.964   4.075
  397TIP3    H1 1197   0.247   5.048   4.038
  397TIP3    H2 1198   0.189   4.986   4.163
  398TIP3   OH2 1199   1.590   1.202   4.203
  398TIP3    H1 1200   1.532   1.217   4.128
  398TIP3    H2 1201   1.676   1.232   4.173
  399TIP3   OH2 1202   2.162   5.275   5.109
  399TIP3    H1 1203   2.244   5.324   5.097
  399TIP3    H2 1204   2.146   5.277   5.203
  400TIP3   OH2 1205   4.051   3.725   2.410
  400TIP3    H1 1206   4.003   3.673   2.475
  400TIP3    H2 1207   4.106   3.661   2.364
  401TIP3   OH2 1208   2.770   1.533   4.268
  401TIP3    H1 1209   2.706   1.499   4.330
  401TIP3    H2 1210   2.742   1.623   4.251
  402TIP3   OH2 1211   1.607   5.402   0.891
  402TIP3    H1 1212   1.529   5.385   0.943
  402TIP3    H2 1213   1.574   5.426   0.805
  403TIP3   OH2 1214   3.913   0.575   0.872
  403TIP3    H1 1215   3.879   0.486   0.859
  403TIP3    H2 1216   3.944   0.576   0.962
  404TIP3   OH2 1217   1.369   5.227   3.133
  404TIP3    H1 1218   1.310   5.211   3.059
  404TIP3    H2 1219   1.310   5.244   3.207
  405TIP3   OH2 1220   3.997   4.282   5.162
  405TIP3    H1 1221   3.922   4.289   5.221
  405TIP3    H2 1222   4.068   4.251   5.218
  406TIP3   OH2 1223   1.036   3.413   4.677
  406TIP3    H1 1224   1.116   3.432   4.726
  406TIP3    H2 1225   0.967   3.459   4.725
  407TIP3   OH2 1226   5.713   5.744   3.314
  407TIP3    H1 1227   5.733   5.777   3.226
  407TIP3    H2 1228   5.783   5.779   3.369
  408TIP3   OH2 1229   1.773   0.901   3.061
  408TIP3    H1 1230   1.854   0.851   3.050
  408TIP3    H2 1231   1.802   0.992   3.070
  409TIP3   OH2 1232   1.946   2.283   4.891
  409TIP3    H1 1233   1.886   2.312   4.822
  409TIP3    H2 1234   1.984   2.364   4.925
  410TIP3   OH2 1235   5.395   2.990   3.070
  410TIP3    H1 1236   5.405   3.067   3.126
  410TIP3    H2 1237   5.355   3.023   2.990
  411TIP3   OH2 1238   3.529   5.835   2.330
  411TIP3    H1 1239   3.598   5.821   2.265
  411TIP3    H2 1240   3.449   5.841   2.278
  412TIP3   OH2 1241   1.589   4.242   1.187
  412TIP3    H1 1242   1.657   4.285   1.239
  412TIP3    H2 1243   1.508   4.284   1.214
  413TIP3   OH2 1244   5.899   2.634   0.323
  413TIP3    H1 1245   5.981   2.647   0.276
  413TIP3    H2 1246   5.862   2.553   0.287
  414TIP3   OH2 1247   0.830   0.641   4.543
  414TIP3    H1 1248   0.741   0.610   4.523
  414TIP3    H2 1249   0.825   0.736   4.533
  415TIP3   OH2 1250   1.552   3.403   0.028
  415TIP3    H1 1251   1.635   3.391   0.076
  415TIP3    H2 1252   1.499   3.458   0.086
  416TIP3   OH2 1253   4.590   2.808   4.443
  416TIP3    H1 1254   4.602   2.782   4.352
  416TIP3    H2 1255   4.616   2.731   4.494
  417TIP3   OH2 1256   3.856   1.486   4.422
  417TIP3    H1 1257   3.909   1.424   4.372
  417TIP3    H2 1258   3.887   1.477   4.512
  418TIP3   OH2 1259   2.646   1.056   3.993
  418TIP3    H1 1260   2.689   0.979   3.956
  418TIP3    H2 1261   2.657   1.047   4.088
  419TIP3   OH2 1262   2.822   3.350   4.314
  419TIP3    H1 1263   2.783   3.398   4.386
  419TIP3    H2 1264   2.839   3.263   4.350
  420TIP3   OH2 1265   0.895   0.985   1.099
  420TIP3    H1 1266   0.878   0.935   1.179
  420TIP3    H2 1267   0.863   0.928   1.029
  421TIP3   OH2 1268   2.522   1.287   4.258
  421TIP3    H1 1269   2.536   1.268   4.165
  421TIP3    H2 1270   2.445   1.235   4.282
  422TIP3   OH2 1271   0.230   0.799   1.877
  422TIP3    H1 1272   0.136   0.813   1.895
  422TIP3    H2 1273   0.270   0.885   1.894
  423TIP3   OH2 1274   4.792   2.647   1.749
  423TIP3    H1 1275   4.812   2.718   1.687
  423TIP3    H2 1276   4.796   2.689   1.835
  424TIP3   OH2 1277   5.170   4.303   2.067
  424TIP3    H1 1278   5.086   4.262   2.087
  424TIP3    H2 1279   5.184   4.285   1.974
  425TIP3   OH2 1280   2.773   1.408   3.999
  425TIP3    H1 1281   2.793   1.496   3.968
  425TIP3    H2 1282   2.801   1.408   4.091
  426TIP3   OH2 1283   0.921   1.084   4.170
  426TIP3    H1 1284   0.851   1.020   4.159
  426TIP3    H2 1285   0.884   1.152   4.226
  427TIP3   OH2 1286   5.113   0.711   4.069
  427TIP3    H1 1287   5.167   0.705   4.148
  427TIP3    H2 1288   5.133   0.631   4.020
  428TIP3   OH2 1289   1.042   0.402   4.183
  428TIP3    H1 1290   1.030   0.413   4.089
  428TIP3    H2 1291   0.958   0.365   4.213
  429TIP3   OH2 1292   3.517   3.562   2.595
  429TIP3    H1 1293   3.490   3.648   2.564
  429TIP3    H2 1294   3.598   3.544   2.547
  430TIP3   OH2 1295   2.826   0.095   1.546
  430TIP3    H1 1296   2.748   0.053   1.582
  430TIP3    H2 1297   2.796   0.136   1.465
  431TIP3   OH2 1298   2.640   0.681   0.689
  431TIP3    H1 1299   2.602   0.763   0.657
  431TIP3    H2 1300   2.727   0.705   0.719
  432TIP3   OH2 1301   1.947   3.737   1.048
  432TIP3    H1 1302   2.011   3.676   1.085
  432TIP3    H2 1303   1.901   3.772   1.125
  433TIP3   OH2 1304   2.480   0.511   0.284
  433TIP3    H1 1305   2.388   0.533   0.270
  433TIP3    H2 1306   2.481   0.461   0.365
  434TIP3   OH2 1307   2.549   5.887   0.227
  434TIP3    H1 1308   2.457   5.871   0.208
  434TIP3    H2 1309   2.597   5.845   0.155
  435TIP3   OH2 1310   5.433   4.439   0.687
  435TIP3    H1 1311   5.450   4.356   0.731
  435TIP3    H2 1312   5.434   4.418   0.594
  436TIP3   OH2 1313   0.064   5.731   0.307
  436TIP3    H1 1314   0.135   5.770   0.356
  436TIP3    H2 1315   0.047   5.647   0.350
  437TIP3   OH2 1316   5.811   1.016   4.192
  437TIP3    H1 1317   5.835   0.924   4.179
  437TIP3    H2 1318   5.884   1.053   4.242
  438TIP3   OH2 1319   1.864   5.469   2.692
  438TIP3    H1 1320   1.818   5.390   2.723
  438TIP3    H2 1321   1.794   5.526   2.660
  439TIP3   OH2 1322   1.875   5.158   3.254
  439TIP3    H1 1323   1.951   5.211   3.231
  439TIP3    H2 1324   1.807   5.222   3.277
  440TIP3   OH2 1325   1.879   4.988   1.133
  440TIP3    H1 1326   1.854   4.932   1.207
  440TIP3    H2 1327   1.806   5.049   1.123
  441TIP3   OH2 1328   5.640   0.147   1.664
  441TIP3    H1 1329   5.677   0.201   1.594
  441TIP3    H2 1330   5.545   0.155   1.654
  442TIP3   OH2 1331   3.754   2.694   2.446
  442TIP3    H1 1332   3.770   2.650   2.530
  442TIP3    H2 1333   3.787   2.633   2.381
  443TIP3   OH2 1334   2.021   5.862   0.206
  443TIP3    H1 1335   1.934   5.861   0.247
  443TIP3    H2 1336   2.023   5.945   0.157
  444TIP3   OH2 1337   3.282   2.745   1.636
  444TIP3    H1 1338   3.315   2.661   1.668
  444TIP3    H2 1339   3.269   2.732   1.542
  445TIP3   OH2 1340   4.984   2.469   1.324
  445TIP3    H1 1341   4.954   2.543   1.271
  445TIP3    H2 1342   4.991   2.397   1.261
  446TIP3   OH2 1343   5.262   4.661   4.613
  446TIP3    H1 1344   5.201   4.698   4.677
  446TIP3    H2 1345   5.325   4.730   4.596
  447TIP3   OH2 1346   1.189   5.563   3.797
  447TIP3    H1 1347   1.227   5.478   3.820
  447TIP3    H2 1348   1.166   5.554   3.704
  448TIP3   OH2 1349   6.141   1.532   5.018
  448TIP3    H1 1350   6.089   1.452   5.010
  448TIP3    H2 1351   6.086   1.591   5.070
  449TIP3   OH2 1352   3.739   0.572   3.484
  449TIP3    H1 1353   3.775   0.533   3.404
  449TIP3    H2 1354   3.666   0.516   3.507
  450TIP3   OH2 1355   0.294   2.004   5.144
  450TIP3    H1 1356   0.373   1.949   5.150
  450TIP3    H2 1357   0.264   1.994   5.054
  451TIP3   OH2 1358   3.317   4.813   1.089
  451TIP3    H1 1359   3.289   4.732   1.131
  451TIP3    H2 1360   3.383   4.849   1.149
  452TIP3   OH2 1361   2.809   4.439   2.407
  452TIP3    H1 1362   2.886   4.383   2.415
  452TIP3    H2 1363   2.840   4.526   2.431
  453TIP3   OH2 1364   2.842   4.857   4.525
  453TIP3    H1 1365   2.860   4.814   4.442
  453TIP3    H2 1366   2.747   4.868   4.527
  454TIP3   OH2 1367   5.406   4.735   0.000
  454TIP3    H1 1368   5.377   4.802  -0.061
  454TIP3    H2 1369   5.434   4.783   0.078
  455TIP3   OH2 1370   3.296   4.267   0.959
  455TIP3    H1 1371   3.220   4.304   0.913
  455TIP3    H2 1372   3.303   4.177   0.926
  456TIP3   OH2 1373   4.622   3.875   1.492
  456TIP3    H1 1374   4.583   3.932   1.558
  456TIP3    H2 1375   4.664   3.934   1.430
  457TIP3   OH2 1376   5.820   1.194   1.372
  457TIP3    H1 1377   5.831   1.103   1.341
  457TIP3    H2 1378   5.883   1.244   1.320
  458TIP3   OH2 1379   2.028   4.790   2.398
  458TIP3    H1 1380   1.992   4.822   2.480
  458TIP3    H2 1381   2.034   4.695   2.410
  459TIP3   OH2 1382   2.983   1.401   0.543
  459TIP3    H1 1383   2.950   1.489   0.560
  459TIP3    H2 1384   3.064   1.396   0.594
  460TIP3   OH2 1385   2.385   3.219   1.930
  460TIP3    H1 1386   2.357   3.149   1.989
  460TIP3    H2 1387   2.340   3.201   1.847
  461TIP3   OH2 1388   1.302   0.658   4.402
  461TIP3    H1 1389   1.261   0.580   4.439
  461TIP3    H2 1390   1.228   0.715   4.380
  462TIP3   OH2 1391   0.533   5.730   0.003
  462TIP3    H1 1392   0.544   5.822   0.027
  462TIP3    H2 1393   0.444   5.708   0.032
  463TIP3   OH2 1394   3.867   4.665   4.892
  463TIP3    H1 1395   3.940   4.726   4.876
  463TIP3    H2 1396   3.901   4.603   4.956
  464TIP3   OH2 1397   6.073   0.167   3.041
  464TIP3    H1 1398   6.099   0.158   3.132
  464TIP3    H2 1399   6.045   0.080   3.015
  465TIP3   OH2 1400   5.257   0.247   2.267
  465TIP3    H1 1401   5.288   0.271   2.180
  465TIP3    H2 1402   5.177   0.196   2.251
  466TIP3   OH2 1403   4.900   0.088   4.850
  466TIP3    H1 1404   4.878   0.070   4.942
  466TIP3    H2 1405   4.817   0.082   4.804
  467TIP3   OH2 1406   1.517   0.977   2.619
  467TIP3    H1 1407   1.502   1.039   2.547
  467TIP3    H2 1408   1.551   0.899   2.576
  468TIP3   OH2 1409   6.088   2.722   4.551
  468TIP3    H1 1410   6.115   2.678   4.470
  468TIP3    H2 1411   6.003   2.761   4.529
  469TIP3   OH2 1412   1.419   4.622   0.845
  469TIP3    H1 1413   1.378   4.582   0.767
  469TIP3    H2 1414   1.356   4.606   0.915
  470TIP3   OH2 1415   1.229   4.083   1.430
  470TIP3    H1 1416   1.239   4.087   1.335
  470TIP3    H2 1417   1.292   4.148   1.463
  471TIP3   OH2 1418   3.834   1.542   1.291
  471TIP3    H1 1419   3.754   1.555   1.240
  471TIP3    H2 1420   3.841   1.447   1.303
  472TIP3   OH2 1421   1.914   0.740   0.345
  472TIP3    H1 1422   1.929   0.760   0.252
  472TIP3    H2 1423   1.990   0.777   0.390
  473TIP3   OH2 1424   4.498   2.410   3.992
  473TIP3    H1 1425   4.530   2.323   3.966
  473TIP3    H2 1426   4.499   2.461   3.911
  474TIP3   OH2 1427   0.098   3.984   3.040
  474TIP3    H1 1428   0.129   4.007   3.127
  474TIP3    H2 1429   0.063   4.065   3.004
  475TIP3   OH2 1430   2.202   1.970   2.363
  475TIP3    H1 1431   2.271   2.018   2.410
  475TIP3    H2 1432   2.121   2.016   2.386
  476TIP3   OH2 1433   0.139   1.915   0.231
  476TIP3    H1 1434   0.146   1.820   0.219
  476TIP3    H2 1435   0.124   1.926   0.325
  477TIP3   OH2 1436   4.601   5.860   1.219
  477TIP3    H1 1437   4.675   5.888   1.273
  477TIP3    H2 1438   4.579   5.773   1.251
  478TIP3   OH2 1439   1.310   2.259   1.141
  478TIP3    H1 1440   1.329   2.344   1.182
  478TIP3    H2 1441   1.244   2.220   1.198
  479TIP3   OH2 1442   4.541   0.952   0.225
  479TIP3    H1 1443   4.474   1.017   0.203
  479TIP3    H2 1444   4.623   1.002   0.229
  480TIP3   OH2 1445   6.247   5.884   4.460
  480TIP3    H1 1446   6.291   5.951   4.512
  480TIP3    H2 1447   6.225   5.929   4.378
  481TIP3   OH2 1448   4.264   4.923   2.433
  481TIP3    H1 1449   4.200   4.861   2.398
  481TIP3    H2 1450   4.340   4.913   2.377
  482TIP3   OH2 1451   1.515   1.128   3.569
  482TIP3    H1 1452   1.522   1.074   3.491
  482TIP3    H2 1453   1.481   1.070   3.636
  483TIP3   OH2 1454   3.685   5.241   1.280
  483TIP3    H1 1455   3.589   5.251   1.276
  483TIP3    H2 1456   3.707   5.191   1.202
  484TIP3   OH2 1457   6.257   1.630   3.708
  484TIP3    H1 1458   6.336   1.641   3.760
  484TIP3    H2 1459   6.254   1.707   3.651
  485TIP3   OH2 1460   1.304   1.043   0.119
  485TIP3    H1 1461   1.297   1.028   0.024
  485TIP3    H2 1462   1.368   0.978   0.148
  486TIP3   OH2 1463   4.850   2.692   1.272
  486TIP3    H1 1464   4.884   2.689   1.182
  486TIP3    H2 1465   4.760   2.725   1.262
  487TIP3   OH2 1466   1.031   0.164   2.198
  487TIP3    H1 1467   1.123   0.150   2.176
  487TIP3    H2 1468   1.001   0.077   2.227
  488TIP3   OH2 1469   1.127   2.987   3.295
  488TIP3    H1 1470   1.090   2.945   3.217
  488TIP3    H2 1471   1.112   2.925   3.366
  489TIP3   OH2 1472   2.154   4.436   3.341
  489TIP3    H1 1473   2.111   4.506   3.292
  489TIP3    H2 1474   2.136   4.457   3.432
  490TIP3   OH2 1475   1.942   3.131   2.407
  490TIP3    H1 1476   1.911   3.211   2.450
  490TIP3    H2 1477   2.018   3.104   2.458
  491TIP3   OH2 1478   0.145   4.520   3.863
  491TIP3    H1 1479   0.231   4.494   3.830
  491TIP3    H2 1480   0.132   4.467   3.941
  492TIP3   OH2 1481   5.510   4.910   2.406
  492TIP3    H1 1482   5.493   4.875   2.494
  492TIP3    H2 1483   5.524   5.004   2.421
  493TIP3   OH2 1484   3.824   5.599   3.980
  493TIP3    H1 1485   3.881   5.657   4.031
  493TIP3    H2 1486   3.800   5.651   3.903
  494TIP3   OH2 1487   0.498   4.382   2.473
  494TIP3    H1 1488   0.583   4.339   2.473
  494TIP3    H2 1489   0.517   4.472   2.499
  495TIP3   OH2 1490   3.029   4.893   3.663
  495TIP3    H1 1491   2.965   4.896   3.593
  495TIP3    H2 1492   2.978   4.899   3.743
  496TIP3   OH2 1493   3.304   3.716   0.362
  496TIP3    H1 1494   3.343   3.765   0.434
  496TIP3    H2 1495   3.227   3.673   0.399
  497TIP3   OH2 1496   1.838   1.852   2.619
  497TIP3    H1 1497   1.794   1.917   2.564
  497TIP3    H2 1498   1.766   1.802   2.658
  498TIP3   OH2 1499   5.584   0.954   3.808
  498TIP3    H1 1500   5.521   0.946   3.737
  498TIP3    H2 1501   5.668   0.930   3.768
  499TIP3   OH2 1502   0.446   2.083   2.129
  499TIP3    H1 1503   0.499   2.042   2.197
  499TIP3    H2 1504   0.487   2.168   2.114
  500TIP3   OH2 1505   3.718   4.904   2.915
  500TIP3    H1 1506   3.704   4.976   2.976
  500TIP3    H2 1507   3.803   4.922   2.876
  501TIP3   OH2 1508   0.528   2.410   3.680
  501TIP3    H1 1509   0.537   2.486   3.738
  501TIP3    H2 1510   0.490   2.342   3.736
  502TIP3   OH2 1511   4.361   0.455   4.605
  502TIP3    H1 1512   4.360   0.548   4.582
  502TIP3    H2 1513   4.452   0.438   4.631
  503TIP3   OH2 1514   3.138   5.088   0.497
  503TIP3    H1 1515   3.211   5.111   0.554
  503TIP3    H2 1516   3.060   5.113   0.548
  504TIP3   OH2 1517   5.768   0.543   0.461
  504TIP3    H1 1518   5.763   0.452   0.489
  504TIP3    H2 1519   5.805   0.539   0.373
  505TIP3   OH2 1520   4.019   2.871   0.001
  505TIP3    H1 1521   4.081   2.824   0.057
  505TIP3    H2 1522   3.934   2.854   0.041
  506TIP3   OH2 1523   0.615   1.425   1.335
  506TIP3    H1 1524   0.581   1.441   1.247
  506TIP3    H2 1525   0.599   1.508   1.382
  507TIP3   OH2 1526   3.859   1.115   1.769
  507TIP3    H1 1527   3.898   1.045   1.716
  507TIP3    H2 1528   3.817   1.068   1.841
  508TIP3   OH2 1529   5.070   3.103   4.183
  508TIP3    H1 1530   5.023   3.187   4.189
  508TIP3    H2 1531   5.005   3.038   4.209
  509TIP3   OH2 1532   3.561   3.870   2.894
  509TIP3    H1 1533   3.536   3.895   2.805
  509TIP3    H2 1534   3.650   3.836   2.885
  510TIP3   OH2 1535   3.750   5.299   2.788
  510TIP3    H1 1536   3.685   5.239   2.750
  510TIP3    H2 1537   3.720   5.386   2.761
  511TIP3   OH2 1538   2.518   4.016   2.593
  511TIP3    H1 1539   2.565   3.991   2.673
  511TIP3    H2 1540   2.572   3.983   2.522
  512TIP3   OH2 1541   0.461   4.894   0.479
  512TIP3    H1 1542   0.490   4.982   0.505
  512TIP3    H2 1543   0.426   4.905   0.391
  513TIP3   OH2 1544   1.510   5.151   2.195
  513TIP3    H1 1545   1.560   5.229   2.172
  513TIP3    H2 1546   1.470   5.171   2.280
  514TIP3   OH2 1547   0.790   1.522   2.752
  514TIP3    H1 1548   0.851   1.492   2.685
  514TIP3    H2 1549   0.719   1.563   2.703
  515TIP3   OH2 1550   4.458   3.327   0.461
  515TIP3    H1 1551   4.444   3.328   0.556
  515TIP3    H2 1552   4.372   3.312   0.424
  516TIP3   OH2 1553   5.992   3.800   0.323
  516TIP3    H1 1554   6.040   3.721   0.300
  516TIP3    H2 1555   6.055   3.854   0.371
  517TIP3   OH2 1556   1.873   1.169   0.347
  517TIP3    H1 1557   1.813   1.239   0.322
  517TIP3    H2 1558   1.931   1.159   0.271
  518TIP3   OH2 1559   4.616   2.784   0.885
  518TIP3    H1 1560   4.622   2.879   0.875
  518TIP3    H2 1561   4.678   2.748   0.821
  519TIP3   OH2 1562   3.421   2.008   2.484
  519TIP3    H1 1563   3.457   2.077   2.540
  519TIP3    H2 1564   3.334   2.038   2.462
  520TIP3   OH2 1565   2.964   1.729   0.387
  520TIP3    H1 1566   2.899   1.674   0.429
  520TIP3    H2 1567   2.954   1.815   0.427
  521TIP3   OH2 1568   5.269   3.630   1.609
  521TIP3    H1 1569   5.225   3.694   1.553
  521TIP3    H2 1570   5.201   3.566   1.630
  522TIP3   OH2 1571   0.945   2.453   3.826
  522TIP3    H1 1572   0.901   2.497   3.754
  522TIP3    H2 1573   0.907   2.365   3.828
  523TIP3   OH2 1574   3.208   0.479   0.879
  523TIP3    H1 1575   3.196   0.565   0.839
  523TIP3    H2 1576   3.254   0.496   0.961
  524TIP3   OH2 1577   1.673   5.921   4.085
  524TIP3    H1 1578   1.693   5.888   4.172
  524TIP3    H2 1579   1.722   6.003   4.079
  525TIP3   OH2 1580   2.543   3.034   1.644
  525TIP3    H1 1581   2.623   3.014   1.596
  525TIP3    H2 1582   2.488   3.080   1.581
  526TIP3   OH2 1583   4.944   0.977   2.388
  526TIP3    H1 1584   5.002   1.017   2.453
  526TIP3    H2 1585   4.870   1.038   2.382
  527TIP3   OH2 1586   1.935   4.032   3.759
  527TIP3    H1 1587   1.922   4.000   3.670
  527TIP3    H2 1588   2.001   4.100   3.751
  528TIP3   OH2 1589   3.335   1.390   1.082
  528TIP3    H1 1590   3.412   1.371   1.136
  528TIP3    H2 1591   3.294   1.305   1.068
  529TIP3   OH2 1592   4.570   3.886   3.011
  529TIP3    H1 1593   4.632   3.929   3.071
  529TIP3    H2 1594   4.485   3.899   3.052
  530TIP3   OH2 1595   4.330   2.962   4.540
  530TIP3    H1 1596   4.409   2.912   4.520
  530TIP3    H2 1597   4.264   2.930   4.479
  531TIP3   OH2 1598   5.788   5.486   2.752
  531TIP3    H1 1599   5.742   5.413   2.792
  531TIP3    H2 1600   5.855   5.445   2.698
  532TIP3   OH2 1601   3.556   3.338   3.939
  532TIP3    H1 1602   3.491   3.267   3.941
  532TIP3    H2 1603   3.510   3.411   3.896
  533TIP3   OH2 1604   0.898   3.098   3.545
  533TIP3    H1 1605   0.919   3.145   3.464
  533TIP3    H2 1606   0.920   3.006   3.526
  534TIP3   OH2 1607   5.879   3.254   2.893
  534TIP3    H1 1608   5.888   3.174   2.944
  534TIP3    H2 1609   5.965   3.269   2.855
  535TIP3   OH2 1610   0.608   0.846   3.320
  535TIP3    H1 1611   0.567   0.885   3.243
  535TIP3    H2 1612   0.535   0.829   3.380
  536TIP3   OH2 1613   0.097   1.449   0.053
  536TIP3    H1 1614   0.049   1.456  -0.030
  536TIP3    H2 1615   0.122   1.357   0.059
  537TIP3   OH2 1616   0.253   5.170   4.349
  537TIP3    H1 1617   0.308   5.105   4.392
  537TIP3    H2 1618   0.216   5.222   4.420
  538TIP3   OH2 1619   4.382   2.221   0.491
  538TIP3    H1 1620   4.424   2.290   0.543
  538TIP3    H2 1621   4.388   2.143   0.545
  539TIP3   OH2 1622   5.214   2.871   2.402
  539TIP3    H1 1623   5.287   2.886   2.342
  539TIP3    H2 1624   5.250   2.813   2.470
  540TIP3   OH2 1625   1.899   1.217   4.835
  540TIP3    H1 1626   1.898   1.124   4.855
  540TIP3    H2 1627   1.900   1.221   4.739
  541TIP3   OH2 1628   0.278   5.783   4.058
  541TIP3    H1 1629   0.279   5.878   4.070
  541TIP3    H2 1630   0.370   5.757   4.064
  542TIP3   OH2 1631   1.323   0.127   2.425
  542TIP3    H1 1632   1.418   0.136   2.418
  542TIP3    H2 1633   1.288   0.184   2.357
  543TIP3   OH2 1634   3.685   1.163   1.577
  543TIP3    H1 1635   3.748   1.142   1.646
  543TIP3    H2 1636   3.610   1.106   1.596
  544TIP3   OH2 1637   5.505   2.797   3.748
  544TIP3    H1 1638   5.571   2.729   3.764
  544TIP3    H2 1639   5.515   2.858   3.821
  545TIP3   OH2 1640   5.707   5.518   2.348
  545TIP3    H1 1641   5.641   5.477   2.404
  545TIP3    H2 1642   5.777   5.453   2.343
  546TIP3   OH2 1643   0.573   2.489   0.018
  546TIP3    H1 1644   0.626   2.443   0.084
  546TIP3    H2 1645   0.538   2.565   0.065
  547TIP3   OH2 1646   3.845   2.706   0.766
  547TIP3    H1 1647   3.800   2.674   0.688
  547TIP3    H2 1648   3.923   2.751   0.732
  548TIP3   OH2 1649   5.923   0.780   4.081
  548TIP3    H1 1650   5.952   0.697   4.118
  548TIP3    H2 1651   5.829   0.769   4.067
  549TIP3   OH2 1652   5.251   2.773   0.064
  549TIP3    H1 1653   5.307   2.721   0.005
  549TIP3    H2 1654   5.222   2.846   0.010
  550TIP3   OH2 1655   5.075   0.203   1.592
  550TIP3    H1 1656   5.089   0.273   1.529
  550TIP3    H2 1657   5.140   0.136   1.568
  551TIP3   OH2 1658   5.635   4.414   2.273
  551TIP3    H1 1659   5.552   4.456   2.249
  551TIP3    H2 1660   5.697   4.487   2.279
  552TIP3   OH2 1661   4.493   0.082   2.565
  552TIP3    H1 1662   4.431   0.144   2.527
  552TIP3    H2 1663   4.481   0.002   2.513
  553TIP3   OH2 1664   2.374   2.671   4.462
  553TIP3    H1 1665   2.346   2.751   4.417
  553TIP3    H2 1666   2.296   2.615   4.462
  554TIP3   OH2 1667   1.174   3.618   3.336
  554TIP3    H1 1668   1.103   3.554   3.342
  554TIP3    H2 1669   1.214   3.601   3.251
  555TIP3   OH2 1670   1.759   5.227   2.446
  555TIP3    H1 1671   1.785   5.310   2.405
  555TIP3    H2 1672   1.830   5.209   2.509
  556TIP3   OH2 1673   1.247   4.893   4.819
  556TIP3    H1 1674   1.298   4.812   4.810
  556TIP3    H2 1675   1.168   4.866   4.865
  557TIP3   OH2 1676   1.203   2.739   1.311
  557TIP3    H1 1677   1.215   2.723   1.405
  557TIP3    H2 1678   1.285   2.778   1.282
  558TIP3   OH2 1679   4.230   5.073   4.918
  558TIP3    H1 1680   4.265   5.085   5.006
  558TIP3    H2 1681   4.292   5.119   4.861
  559TIP3   OH2 1682   3.687   0.823   1.595
  559TIP3    H1 1683   3.721   0.836   1.506
  559TIP3    H2 1684   3.763   0.794   1.645
  560TIP3   OH2 1685   3.372   3.662   4.007
  560TIP3    H1 1686   3.362   3.620   3.922
  560TIP3    H2 1687   3.463   3.692   4.009
  561TIP3   OH2 1688   5.553   0.599   2.219
  561TIP3    H1 1689   5.588   0.688   2.209
  561TIP3    H2 1690   5.621   0.542   2.183
  562TIP3   OH2 1691   3.500   2.322   4.987
  562TIP3    H1 1692   3.546   2.242   5.014
  562TIP3    H2 1693   3.569   2.381   4.959
  563TIP3   OH2 1694   5.072   5.029   2.841
  563TIP3    H1 1695   5.104   4.945   2.807
  563TIP3    H2 1696   5.016   5.063   2.771
  564TIP3   OH2 1697   3.780   0.765   0.582
  564TIP3    H1 1698   3.802   0.702   0.651
  564TIP3    H2 1699   3.688   0.747   0.562
  565TIP3   OH2 1700   0.860   0.430   0.065
  565TIP3    H1 1701   0.880   0.389  -0.019
  565TIP3    H2 1702   0.878   0.361   0.130
  566TIP3   OH2 1703   0.319   2.880   4.416
  566TIP3    H1 1704   0.382   2.917   4.478
  566TIP3    H2 1705   0.266   2.954   4.387
  567TIP3   OH2 1706   5.053   3.563   0.968
  567TIP3    H1 1707   5.066   3.557   0.873
  567TIP3    H2 1708   4.992   3.492   0.988
  568TIP3   OH2 1709   6.042   4.070   1.408
  568TIP3    H1 1710   6.108   4.002   1.420
  568TIP3    H2 1711   6.081   4.149   1.446
  569TIP3   OH2 1712   5.950   4.039   4.587
  569TIP3    H1 1713   6.006   4.016   4.661
  569TIP3    H2 1714   5.957   4.135   4.580
  570TIP3   OH2 1715   5.770   3.453   0.785
  570TIP3    H1 1716   5.739   3.479   0.872
  570TIP3    H2 1717   5.809   3.533   0.749
  571TIP3   OH2 1718   1.152   4.708   1.887
  571TIP3    H1 1719   1.177   4.799   1.869
  571TIP3    H2 1720   1.235   4.664   1.906
  572TIP3   OH2 1721   3.024   2.549   3.984
  572TIP3    H1 1722   3.113   2.543   3.949
  572TIP3    H2 1723   3.036   2.574   4.076
  573TIP3   OH2 1724   2.028   3.584   4.814
  573TIP3    H1 1725   2.058   3.494   4.804
  573TIP3    H2 1726   2.018   3.595   4.908
  574TIP3   OH2 1727   0.704   0.849   4.900
  574TIP3    H1 1728   0.673   0.940   4.902
  574TIP3    H2 1729   0.728   0.830   4.990
  575TIP3   OH2 1730   4.451   0.788   3.499
  575TIP3    H1 1731   4.527   0.784   3.441
  575TIP3    H2 1732   4.464   0.714   3.559
  576TIP3   OH2 1733   6.114   5.566   2.462
  576TIP3    H1 1734   6.141   5.655   2.436
  576TIP3    H2 1735   6.187   5.534   2.516
  577TIP3   OH2 1736   2.827   5.925   3.689
  577TIP3    H1 1737   2.858   6.015   3.682
  577TIP3    H2 1738   2.734   5.929   3.666
  578TIP3   OH2 1739   3.792   2.130   2.009
  578TIP3    H1 1740   3.882   2.102   2.027
  578TIP3    H2 1741   3.752   2.056   1.965
  579TIP3   OH2 1742   2.807   3.535   1.904
  579TIP3    H1 1743   2.846   3.479   1.837
  579TIP3    H2 1744   2.714   3.539   1.881
  580TIP3   OH2 1745   3.079   5.482   3.271
  580TIP3    H1 1746   3.005   5.515   3.220
  580TIP3    H2 1747   3.051   5.491   3.362
  581TIP3   OH2 1748   2.117   5.299   3.245
  581TIP3    H1 1749   2.200   5.253   3.249
  581TIP3    H2 1750   2.135   5.377   3.192
  582TIP3   OH2 1751   0.246   4.429   5.107
  582TIP3    H1 1752   0.299   4.434   5.187
  582TIP3    H2 1753   0.175   4.368   5.129
  583TIP3   OH2 1754   2.285   3.497   1.883
  583TIP3    H1 1755   2.317   3.412   1.913
  583TIP3    H2 1756   2.347   3.560   1.918
  584TIP3   OH2 1757   1.130   2.470   5.104
  584TIP3    H1 1758   1.146   2.478   5.010
  584TIP3    H2 1759   1.079   2.548   5.126
  585TIP3   OH2 1760   5.381   1.604   2.446
  585TIP3    H1 1761   5.420   1.636   2.528
  585TIP3    H2 1762   5.300   1.655   2.437
  586TIP3   OH2 1763   1.118   0.996   0.312
  586TIP3    H1 1764   1.043   0.958   0.266
  586TIP3    H2 1765   1.190   0.991   0.248
  587TIP3   OH2 1766   0.936   4.195   3.714
  587TIP3    H1 1767   0.884   4.228   3.641
  587TIP3    H2 1768   0.978   4.273   3.751
  588TIP3   OH2 1769   5.238   0.621   3.479
  588TIP3    H1 1770   5.226   0.601   3.572
  588TIP3    H2 1771   5.219   0.714   3.472
  589TIP3   OH2 1772   4.026   1.255   0.097
  589TIP3    H1 1773   4.017   1.345   0.068
  589TIP3    H2 1774   3.954   1.243   0.159
  590TIP3   OH2 1775   2.182   2.480   1.510
  590TIP3    H1 1776   2.169   2.510   1.600
  590TIP3    H2 1777   2.189   2.385   1.517
  591TIP3   OH2 1778   5.204   5.533   4.163
  591TIP3    H1 1779   5.136   5.467   4.146
  591TIP3    H2 1780   5.168   5.614   4.127
  592TIP3   OH2 1781   4.428   3.676  -0.002
  592TIP3    H1 1782   4.461   3.680   0.088
  592TIP3    H2 1783   4.351   3.620   0.003
  593TIP3   OH2 1784   3.129   1.035   3.860
  593TIP3    H1 1785   3.068   1.073   3.923
  593TIP3    H2 1786   3.141   1.103   3.794
  594TIP3   OH2 1787   3.742   5.932   3.601
  594TIP3    H1 1788   3.690   5.919   3.522
  594TIP3    H2 1789   3.713   6.016   3.636
  595TIP3   OH2 1790   4.858   3.703   4.941
  595TIP3    H1 1791   4.847   3.757   4.862
  595TIP3    H2 1792   4.854   3.765   5.013
  596TIP3   OH2 1793   4.725   1.728   4.262
  596TIP3    H1 1794   4.768   1.814   4.268
  596TIP3    H2 1795   4.664   1.736   4.189
  597TIP3   OH2 1796   1.583   0.181   2.386
  597TIP3    H1 1797   1.568   0.111   2.323
  597TIP3    H2 1798   1.634   0.246   2.340
  598TIP3   OH2 1799   1.441   3.344   3.058
  598TIP3    H1 1800   1.476   3.313   2.975
  598TIP3    H2 1801   1.374   3.279   3.081
  599TIP3   OH2 1802   6.147   2.471   1.115
  599TIP3    H1 1803   6.054   2.448   1.104
  599TIP3    H2 1804   6.195   2.399   1.074
  600TIP3   OH2 1805   4.997   1.642   2.665
  600TIP3    H1 1806   4.925   1.703   2.647
  600TIP3    H2 1807   4.988   1.621   2.758
  601TIP3   OH2 1808   2.876   3.939   1.649
  601TIP3    H1 1809   2.873   3.851   1.611
  601TIP3    H2 1810   2.786   3.971   1.641
  602TIP3   OH2 1811   5.576   3.430   0.509
  602TIP3    H1 1812   5.636   3.479   0.564
  602TIP3    H2 1813   5.505   3.405   0.568
  603TIP3   OH2 1814   4.111   0.648   2.979
  603TIP3    H1 1815   4.122   0.712   2.909
  603TIP3    H2 1816   4.024   0.610   2.964
  604TIP3   OH2 1817   2.063   3.556   4.241
  604TIP3    H1 1818   1.977   3.568   4.200
  604TIP3    H2 1819   2.117   3.624   4.202
  605TIP3   OH2 1820   0.243   3.085   1.603
  605TIP3    H1 1821   0.297   3.155   1.567
  605TIP3    H2 1822   0.219   3.031   1.527
  606TIP3   OH2 1823   5.835   1.872   1.766
  606TIP3    H1 1824   5.926   1.844   1.776
  606TIP3    H2 1825   5.815   1.855   1.674
  607TIP3   OH2 1826   1.788   2.130   4.239
  607TIP3    H1 1827   1.721   2.067   4.266
  607TIP3    H2 1828   1.866   2.078   4.224
  608TIP3   OH2 1829   3.032   5.537   2.945
  608TIP3    H1 1830   3.040   5.450   2.984
  608TIP3    H2 1831   2.944   5.566   2.969
  609TIP3   OH2 1832   0.032   0.534   2.512
  609TIP3    H1 1833   0.043   0.584   2.593
  609TIP3    H2 1834   0.044   0.443   2.538
  610TIP3   OH2 1835   5.920   2.799   1.499
  610TIP3    H1 1836   5.914   2.826   1.408
  610TIP3    H2 1837   6.008   2.825   1.527
  611TIP3   OH2 1838   1.976   5.739   4.128
  611TIP3    H1 1839   2.025   5.820   4.143
  611TIP3    H2 1840   1.926   5.726   4.210
  612TIP3   OH2 1841   1.088   0.773   1.940
  612TIP3    H1 1842   1.129   0.745   2.022
  612TIP3    H2 1843   1.160   0.809   1.888
  613TIP3   OH2 1844   3.971   2.785   3.727
  613TIP3    H1 1845   3.977   2.700   3.683
  613TIP3    H2 1846   3.981   2.765   3.820
  614TIP3   OH2 1847   4.271   2.189   3.224
  614TIP3    H1 1848   4.365   2.186   3.206
  614TIP3    H2 1849   4.261   2.259   3.288
  615TIP3   OH2 1850   4.268   4.681   1.344
  615TIP3    H1 1851   4.256   4.776   1.348
  615TIP3    H2 1852   4.327   4.667   1.271
  616TIP3   OH2 1853   5.831   0.038   4.940
  616TIP3    H1 1854   5.744   0.056   4.976
  616TIP3    H2 1855   5.838  -0.057   4.940
  617TIP3   OH2 1856   6.150   2.210   5.074
  617TIP3    H1 1857   6.224   2.257   5.036
  617TIP3    H2 1858   6.073   2.264   5.053
  618TIP3   OH2 1859   3.624   4.511   4.723
  618TIP3    H1 1860   3.667   4.573   4.782
  618TIP3    H2 1861   3.574   4.453   4.780
  619TIP3   OH2 1862   6.209   1.814   4.004
  619TIP3    H1 1863   6.145   1.819   4.074
  619TIP3    H2 1864   6.252   1.729   4.016
  620TIP3   OH2 1865   0.324   0.290   4.246
  620TIP3    H1 1866   0.392   0.342   4.203
  620TIP3    H2 1867   0.369   0.249   4.320
  621TIP3   OH2 1868   2.393   0.507   1.779
  621TIP3    H1 1869   2.443   0.588   1.772
  621TIP3    H2 1870   2.306   0.530   1.745
  622TIP3   OH2 1871   6.373   1.752   2.583
  622TIP3    H1 1872   6.302   1.816   2.583
  622TIP3    H2 1873   6.336   1.675   2.538
  623TIP3   OH2 1874   3.302   2.648   3.187
  623TIP3    H1 1875   3.249   2.569   3.178
  623TIP3    H2 1876   3.268   2.708   3.120
  624TIP3   OH2 1877   1.379   4.589   3.272
  624TIP3    H1 1878   1.429   4.520   3.229
  624TIP3    H2 1879   1.443   4.633   3.329
  625TIP3   OH2 1880   0.517   3.751   3.089
  625TIP3    H1 1881   0.546   3.827   3.140
  625TIP3    H2 1882   0.521   3.678   3.151
  626TIP3   OH2 1883   5.459   4.150   0.710
  626TIP3    H1 1884   5.511   4.147   0.630
  626TIP3    H2 1885   5.465   4.062   0.747
  627TIP3   OH2 1886   1.809   4.451   2.538
  627TIP3    H1 1887   1.797   4.358   2.520
  627TIP3    H2 1888   1.888   4.475   2.489
  628TIP3   OH2 1889   5.666   0.307   4.612
  628TIP3    H1 1890   5.746   0.261   4.636
  628TIP3    H2 1891   5.621   0.324   4.695
  629TIP3   OH2 1892   0.030   4.145   2.049
  629TIP3    H1 1893  -0.013   4.227   2.025
  629TIP3    H2 1894   0.112   4.173   2.091
  630TIP3   OH2 1895   5.114   4.502   4.099
  630TIP3    H1 1896   5.050   4.438   4.130
  630TIP3    H2 1897   5.181   4.503   4.167
  631TIP3   OH2 1898   3.550   1.292   4.455
  631TIP3    H1 1899   3.519   1.227   4.392
  631TIP3    H2 1900   3.638   1.263   4.478
  632TIP3   OH2 1901   2.781   2.412   3.142
  632TIP3    H1 1902   2.768   2.317   3.142
  632TIP3    H2 1903   2.872   2.425   3.116
  633TIP3   OH2 1904   0.769   2.330   0.196
  633TIP3    H1 1905   0.752   2.246   0.239
  633TIP3    H2 1906   0.864   2.340   0.201
  634TIP3   OH2 1907   4.445   4.942   0.850
  634TIP3    H1 1908   4.441   4.959   0.756
  634TIP3    H2 1909   4.538   4.950   0.872
  635TIP3   OH2 1910   0.523   5.283   1.032
  635TIP3    H1 1911   0.429   5.267   1.035
  635TIP3    H2 1912   0.532   5.372   0.998
  636TIP3   OH2 1913   3.401   2.829   1.080
  636TIP3    H1 1914   3.434   2.818   1.169
  636TIP3    H2 1915   3.333   2.762   1.071
  637TIP3   OH2 1916   4.270   2.704   5.097
  637TIP3    H1 1917   4.210   2.648   5.145
  637TIP3    H2 1918   4.253   2.685   5.005
  638TIP3   OH2 1919   0.247   1.698   0.790
  638TIP3    H1 1920   0.314   1.630   0.789
  638TIP3    H2 1921   0.166   1.652   0.768
  639TIP3   OH2 1922   3.353   5.428   3.290
  639TIP3    H1 1923   3.261   5.450   3.276
  639TIP3    H2 1924   3.401   5.485   3.230
  640TIP3   OH2 1925   6.106   4.460   3.069
  640TIP3    H1 1926   6.013   4.437   3.072
  640TIP3    H2 1927   6.114   4.536   3.126
  641TIP3   OH2 1928   3.726   0.427   2.008
  641TIP3    H1 1929   3.820   0.433   2.027
  641TIP3    H2 1930   3.720   0.384   1.923
  642TIP3   OH2 1931   3.225   2.358   4.939
  642TIP3    H1 1932   3.220   2.452   4.922
  642TIP3    H2 1933   3.318   2.340   4.953
  643TIP3   OH2 1934   0.846   3.291   0.620
  643TIP3    H1 1935   0.857   3.214   0.676
  643TIP3    H2 1936   0.933   3.306   0.583
  644TIP3   OH2 1937   4.237   3.585   1.925
  644TIP3    H1 1938   4.259   3.629   1.843
  644TIP3    H2 1939   4.142   3.579   1.925
  645TIP3   OH2 1940   3.061   2.221   2.716
  645TIP3    H1 1941   3.022   2.308   2.726
  645TIP3    H2 1942   2.987   2.160   2.718
  646TIP3   OH2 1943   5.937   2.196   0.851
  646TIP3    H1 1944   5.881   2.232   0.783
  646TIP3    H2 1945   5.957   2.107   0.822
  647TIP3   OH2 1946   3.493   0.978   4.540
  647TIP3    H1 1947   3.530   1.021   4.463
  647TIP3    H2 1948   3.398   0.986   4.529
  648TIP3   OH2 1949   0.455   5.687   0.507
  648TIP3    H1 1950   0.547   5.688   0.481
  648TIP3    H2 1951   0.456   5.659   0.599
  649TIP3   OH2 1952   1.961   3.623   1.336
  649TIP3    H1 1953   1.900   3.638   1.409
  649TIP3    H2 1954   2.027   3.563   1.372
  650TIP3   OH2 1955   0.213   0.950   2.284
  650TIP3    H1 1956   0.235   0.862   2.254
  650TIP3    H2 1957   0.119   0.948   2.299
  651TIP3   OH2 1958   0.709   1.629   2.241
  651TIP3    H1 1959   0.804   1.622   2.242
  651TIP3    H2 1960   0.686   1.660   2.329
  652TIP3   OH2 1961   0.918   1.956   0.461
  652TIP3    H1 1962   0.926   2.032   0.519
  652TIP3    H2 1963   1.009   1.928   0.447
  653TIP3   OH2 1964   4.407   0.660   2.372
  653TIP3    H1 1965   4.442   0.728   2.314
  653TIP3    H2 1966   4.475   0.592   2.372
  654TIP3   OH2 1967   1.880   3.119   4.737
  654TIP3    H1 1968   1.918   3.153   4.656
  654TIP3    H2 1969   1.955   3.103   4.794
  655TIP3   OH2 1970   1.189   0.985   1.079
  655TIP3    H1 1971   1.100   1.018   1.067
  655TIP3    H2 1972   1.178   0.892   1.100
  656TIP3   OH2 1973   3.343   3.303   1.145
  656TIP3    H1 1974   3.390   3.249   1.208
  656TIP3    H2 1975   3.326   3.245   1.071
  657TIP3   OH2 1976   3.532   1.547   2.239
  657TIP3    H1 1977   3.557   1.456   2.224
  657TIP3    H2 1978   3.554   1.592   2.158
  658TIP3   OH2 1979   1.060   4.297   2.487
  658TIP3    H1 1980   1.155   4.301   2.476
  658TIP3    H2 1981   1.026   4.369   2.434
  659TIP3   OH2 1982   0.667   5.916   0.177
  659TIP3    H1 1983   0.587   5.925   0.228
  659TIP3    H2 1984   0.722   5.990   0.203
  660TIP3   OH2 1985   3.731   3.482   1.225
  660TIP3    H1 1986   3.763   3.556   1.276
  660TIP3    H2 1987   3.797   3.469   1.157
  661TIP3   OH2 1988   0.693   4.579   1.752
  661TIP3    H1 1989   0.774   4.537   1.722
  661TIP3    H2 1990   0.698   4.576   1.847
  662TIP3   OH2 1991   1.223   0.207   1.563
  662TIP3    H1 1992   1.232   0.112   1.571
  662TIP3    H2 1993   1.133   0.220   1.531
  663TIP3   OH2 1994   3.427   5.717   3.013
  663TIP3    H1 1995   3.419   5.663   2.934
  663TIP3    H2 1996   3.337   5.730   3.043
  664TIP3   OH2 1997   4.299   1.772   3.810
  664TIP3    H1 1998   4.230   1.749   3.748
  664TIP3    H2 1999   4.327   1.689   3.848
  665TIP3   OH2 2000   1.261   4.545   1.054
  665TIP3    H1 2001   1.298   4.594   1.128
  665TIP3    H2 2002   1.168   4.564   1.057
  666TIP3   OH2 2003   4.263   4.299   2.221
  666TIP3    H1 2004   4.330   4.308   2.289
  666TIP3    H2 2005   4.202   4.233   2.255
  667TIP3   OH2 2006   4.628   3.301   1.618
  667TIP3    H1 2007   4.680   3.313   1.697
  667TIP3    H2 2008   4.539   3.287   1.649
  668TIP3   OH2 2009   4.385   0.232   3.194
  668TIP3    H1 2010   4.440   0.181   3.134
  668TIP3    H2 2011   4.303   0.246   3.146
  669TIP3   OH2 2012   4.010   3.289   0.421
  669TIP3    H1 2013   3.928   3.317   0.380
  669TIP3    H2 2014   4.031   3.359   0.483
  670TIP3   OH2 2015   5.364   1.386   4.628
  670TIP3    H1 2016   5.342   1.475   4.599
  670TIP3    H2 2017   5.314   1.329   4.569
  671TIP3   OH2 2018   4.749   5.098   0.623
  671TIP3    H1 2019   4.705   5.106   0.539
  671TIP3    H2 2020   4.779   5.007   0.626
  672TIP3   OH2 2021   4.526   4.452   4.485
  672TIP3    H1 2022   4.453   4.455   4.423
  672TIP3    H2 2023   4.488   4.421   4.567
  673TIP3   OH2 2024   1.020   0.226   2.520
  673TIP3    H1 2025   0.981   0.139   2.532
  673TIP3    H2 2026   0.945   0.282   2.500
  674TIP3   OH2 2027   1.231   2.361   4.144
  674TIP3    H1 2028   1.183   2.443   4.134
  674TIP3    H2 2029   1.321   2.388   4.166
  675TIP3   OH2 2030   1.450   1.611   1.106
  675TIP3    H1 2031   1.417   1.585   1.020
  675TIP3    H2 2032   1.468   1.528   1.150
  676TIP3   OH2 2033   3.489   2.799   2.961
  676TIP3    H1 2034   3.506   2.757   3.046
  676TIP3    H2 2035   3.564   2.776   2.907
  677TIP3   OH2 2036   1.696   5.544   3.608
  677TIP3    H1 2037   1.675   5.618   3.665
  677TIP3    H2 2038   1.754   5.581   3.541
  678TIP3   OH2 2039   1.514   0.243   2.966
  678TIP3    H1 2040   1.467   0.327   2.960
  678TIP3    H2 2041   1.606   0.267   2.962
  679TIP3   OH2 2042   4.100   3.663   4.542
  679TIP3    H1 2043   4.103   3.570   4.561
  679TIP3    H2 2044   4.111   3.670   4.448
  680TIP3   OH2 2045   6.103   1.458   3.850
  680TIP3    H1 2046   6.154   1.501   3.781
  680TIP3    H2 2047   6.064   1.382   3.807
  681TIP3   OH2 2048   1.952   2.344   2.730
  681TIP3    H1 2049   1.933   2.412   2.666
  681TIP3    H2 2050   1.952   2.389   2.814
  682TIP3   OH2 2051   0.315   2.092   3.414
  682TIP3    H1 2052   0.293   2.059   3.327
  682TIP3    H2 2053   0.256   2.045   3.473
  683TIP3   OH2 2054   5.462   3.057   4.355
  683TIP3    H1 2055   5.549   3.094   4.340
  683TIP3    H2 2056   5.462   3.032   4.447
  684TIP3   OH2 2057   4.644   5.167   1.154
  684TIP3    H1 2058   4.650   5.123   1.068
  684TIP3    H2 2059   4.580   5.114   1.203
  685TIP3   OH2 2060   0.322   0.252   3.664
  685TIP3    H1 2061   0.374   0.255   3.584
  685TIP3    H2 2062   0.309   0.343   3.688
  686TIP3   OH2 2063   3.135   0.852   4.207
  686TIP3    H1 2064   3.097   0.768   4.233
  686TIP3    H2 2065   3.229   0.834   4.200
  687TIP3   OH2 2066   1.476   5.611   4.462
  687TIP3    H1 2067   1.405   5.570   4.512
  687TIP3    H2 2068   1.498   5.690   4.512
  688TIP3   OH2 2069   2.807   3.297   0.246
  688TIP3    H1 2070   2.864   3.371   0.225
  688TIP3    H2 2071   2.862   3.240   0.300
  689TIP3   OH2 2072   1.326   2.774   4.128
  689TIP3    H1 2073   1.236   2.741   4.138
  689TIP3    H2 2074   1.369   2.752   4.210
  690TIP3   OH2 2075   3.297   0.036   3.971
  690TIP3    H1 2076   3.213  -0.011   3.968
  690TIP3    H2 2077   3.363  -0.034   3.981
  691TIP3   OH2 2078   2.351   2.462   4.104
  691TIP3    H1 2079   2.389   2.431   4.022
  691TIP3    H2 2080   2.314   2.548   4.082
  692TIP3   OH2 2081   4.209   3.235   1.978
  692TIP3    H1 2082   4.177   3.325   1.975
  692TIP3    H2 2083   4.176   3.195   1.898
  693TIP3   OH2 2084   4.112   5.646   1.073
  693TIP3    H1 2085   4.158   5.592   1.009
  693TIP3    H2 2086   4.020   5.630   1.057
  694TIP3   OH2 2087   0.461   4.238   1.512
  694TIP3    H1 2088   0.410   4.217   1.433
  694TIP3    H2 2089   0.436   4.170   1.575
  695TIP3   OH2 2090   0.814   1.267   4.377
  695TIP3    H1 2091   0.760   1.220   4.440
  695TIP3    H2 2092   0.811   1.359   4.406
  696TIP3   OH2 2093   5.416   2.935   3.535
  696TIP3    H1 2094   5.456   2.883   3.605
  696TIP3    H2 2095   5.382   2.869   3.474
  697TIP3   OH2 2096   1.913   5.531   0.642
  697TIP3    H1 2097   1.861   5.457   0.611
  697TIP3    H2 2098   1.983   5.491   0.694
  698TIP3   OH2 2099   2.472   2.889   3.957
  698TIP3    H1 2100   2.561   2.922   3.961
  698TIP3    H2 2101   2.479   2.805   3.913
  699TIP3   OH2 2102   2.467   3.171   4.480
  699TIP3    H1 2103   2.532   3.101   4.486
  699TIP3    H2 2104   2.420   3.168   4.563
  700TIP3   OH2 2105   1.324   5.488   1.142
  700TIP3    H1 2106   1.300   5.487   1.050
  700TIP3    H2 2107   1.240   5.479   1.188
  701TIP3   OH2 2108   5.137   3.657   3.498
  701TIP3    H1 2109   5.207   3.673   3.435
  701TIP3    H2 2110   5.163   3.706   3.576
  702TIP3   OH2 2111   3.563   1.354   2.743
  702TIP3    H1 2112   3.566   1.283   2.680
  702TIP3    H2 2113   3.609   1.427   2.700
  703TIP3   OH2 2114   1.473  -0.028   5.188
  703TIP3    H1 2115   1.491   0.027   5.112
  703TIP3    H2 2116   1.411   0.023   5.240
  704TIP3   OH2 2117   2.627   4.161   2.929
  704TIP3    H1 2118   2.606   4.074   2.895
  704TIP3    H2 2119   2.710   4.150   2.976
  705TIP3   OH2 2120   4.170   4.061   0.575
  705TIP3    H1 2121   4.121   4.135   0.538
  705TIP3    H2 2122   4.108   3.988   0.572
  706TIP3   OH2 2123   5.659   2.590   3.855
  706TIP3    H1 2124   5.661   2.645   3.933
  706TIP3    H2 2125   5.617   2.509   3.883
  707TIP3   OH2 2126   3.100   2.137   4.799
  707TIP3    H1 2127   3.115   2.215   4.851
  707TIP3    H2 2128   3.185   2.092   4.799
  708TIP3   OH2 2129   5.199   0.823   2.602
  708TIP3    H1 2130   5.190   0.802   2.509
  708TIP3    H2 2131   5.250   0.905   2.603
  709TIP3   OH2 2132   0.355   3.188   3.388
  709TIP3    H1 2133   0.436   3.231   3.413
  709TIP3    H2 2134   0.372   3.152   3.301
  710TIP3   OH2 2135   2.064   1.709   4.707
  710TIP3    H1 2136   2.050   1.803   4.717
  710TIP3    H2 2137   2.038   1.690   4.617
  711TIP3   OH2 2138   2.540   0.768   1.954
  711TIP3    H1 2139   2.560   0.754   1.861
  711TIP3    H2 2140   2.540   0.680   1.992
  712TIP3   OH2 2141   1.883   3.676   1.932
  712TIP3    H1 2142   1.925   3.681   1.846
  712TIP3    H2 2143   1.927   3.744   1.984
  713TIP3   OH2 2144   5.593   2.124   0.978
  713TIP3    H1 2145   5.613   2.205   1.023
  713TIP3    H2 2146   5.559   2.151   0.893
  714TIP3   OH2 2147   2.061   2.071   2.922
  714TIP3    H1 2148   2.029   2.112   3.003
  714TIP3    H2 2149   2.054   1.977   2.939
  715TIP3   OH2 2150   2.200   0.932   0.226
  715TIP3    H1 2151   2.196   0.889   0.311
  715TIP3    H2 2152   2.278   0.989   0.231
  716TIP3   OH2 2153   5.743   3.383   4.885
  716TIP3    H1 2154   5.660   3.429   4.901
  716TIP3    H2 2155   5.784   3.377   4.971
  717TIP3   OH2 2156   2.319   3.028   4.183
  717TIP3    H1 2157   2.240   3.066   4.146
  717TIP3    H2 2158   2.358   2.979   4.111
  718TIP3   OH2 2159   3.091   1.975   3.579
  718TIP3    H1 2160   3.033   1.985   3.503
  718TIP3    H2 2161   3.089   2.061   3.622
  719TIP3   OH2 2162   2.276   2.135   1.268
  719TIP3    H1 2163   2.194   2.182   1.285
  719TIP3    H2 2164   2.340   2.178   1.325
  720TIP3   OH2 2165   3.625   4.029   3.883
  720TIP3    H1 2166   3.538   4.035   3.922
  720TIP3    H2 2167   3.618   4.076   3.800
  721TIP3   OH2 2168   3.033   3.924   4.347
  721TIP3    H1 2169   3.054   4.005   4.301
  721TIP3    H2 2170   2.984   3.873   4.283
  722TIP3   OH2 2171   2.571   1.866   1.224
  722TIP3    H1 2172   2.656   1.863   1.269
  722TIP3    H2 2173   2.519   1.798   1.266
  723TIP3   OH2 2174   2.901   0.538   0.875
  723TIP3    H1 2175   2.874   0.554   0.965
  723TIP3    H2 2176   2.904   0.625   0.834
  724TIP3   OH2 2177   0.182   4.171   3.887
  724TIP3    H1 2178   0.166   4.193   3.979
  724TIP3    H2 2179   0.124   4.097   3.870
  725TIP3   OH2 2180  -0.030   3.473   3.672
  725TIP3    H1 2181   0.029   3.524   3.617
  725TIP3    H2 2182  -0.019   3.382   3.642
  726TIP3   OH2 2183   2.475   3.120   0.111
  726TIP3    H1 2184   2.549   3.088   0.162
  726TIP3    H2 2185   2.403   3.060   0.132
  727TIP3   OH2 2186   4.144   1.984   4.626
  727TIP3    H1 2187   4.239   1.993   4.632
  727TIP3    H2 2188   4.121   2.023   4.542
  728TIP3   OH2 2189   5.234   3.935   3.233
  728TIP3    H1 2190   5.281   3.923   3.150
  728TIP3    H2 2191   5.200   4.025   3.228
  729TIP3   OH2 2192   1.163   1.674   3.225
  729TIP3    H1 2193   1.200   1.587   3.237
  729TIP3    H2 2194   1.076   1.659   3.189
  730TIP3   OH2 2195   1.958   0.530   2.470
  730TIP3    H1 2196   1.973   0.469   2.543
  730TIP3    H2 2197   1.863   0.543   2.471
  731TIP3   OH2 2198   4.200   4.566   3.062
  731TIP3    H1 2199   4.246   4.621   2.999
  731TIP3    H2 2200   4.171   4.490   3.011
  732TIP3   OH2 2201   2.403   3.756   4.873
  732TIP3    H1 2202   2.372   3.665   4.877
  732TIP3    H2 2203   2.336   3.802   4.823
  733TIP3   OH2 2204   0.226   2.739   2.088
  733TIP3    H1 2205   0.205   2.681   2.014
  733TIP3    H2 2206   0.176   2.704   2.161
  734TIP3   OH2 2207   5.098   4.168   1.265
  734TIP3    H1 2208   5.152   4.126   1.332
  734TIP3    H2 2209   5.160   4.197   1.198
  735TIP3   OH2 2210   4.597   1.893   2.091
  735TIP3    H1 2211   4.692   1.888   2.085
  735TIP3    H2 2212   4.580   1.928   2.179
  736TIP3   OH2 2213   1.173   0.703   2.202
  736TIP3    H1 2214   1.124   0.667   2.276
  736TIP3    H2 2215   1.247   0.749   2.242
  737TIP3   OH2 2216   1.969   4.718   2.124
  737TIP3    H1 2217   1.976   4.723   2.219
  737TIP3    H2 2218   1.896   4.658   2.109
  738TIP3   OH2 2219   4.598   3.877   0.477
  738TIP3    H1 2220   4.640   3.958   0.446
  738TIP3    H2 2221   4.520   3.869   0.423
  739TIP3   OH2 2222   1.396   5.341   0.459
  739TIP3    H1 2223   1.380   5.358   0.367
  739TIP3    H2 2224   1.489   5.360   0.471
  740TIP3   OH2 2225   3.721   4.337   3.655
  740TIP3    H1 2226   3.758   4.381   3.731
  740TIP3    H2 2227   3.777   4.261   3.641
  741TIP3   OH2 2228   3.547   0.827   1.959
  741TIP3    H1 2229   3.642   0.830   1.962
  741TIP3    H2 2230   3.523   0.755   2.017
  742TIP3   OH2 2231   3.679   5.789   4.220
  742TIP3    H1 2232   3.771   5.797   4.244
  742TIP3    H2 2233   3.663   5.863   4.161
  743TIP3   OH2 2234   5.715   4.602   0.570
  743TIP3    H1 2235   5.626   4.579   0.544
  743TIP3    H2 2236   5.719   4.697   0.563
  744TIP3   OH2 2237   1.026   4.646   1.466
  744TIP3    H1 2238   1.000   4.698   1.541
  744TIP3    H2 2239   0.944   4.615   1.428
  745TIP3   OH2 2240   6.021   0.860   2.482
  745TIP3    H1 2241   5.927   0.870   2.496
  745TIP3    H2 2242   6.056   0.836   2.567
  746TIP3   OH2 2243   1.435   3.692   2.889
  746TIP3    H1 2244   1.394   3.716   2.806
  746TIP3    H2 2245   1.477   3.772   2.920
  747TIP3   OH2 2246   2.003   1.912   1.223
  747TIP3    H1 2247   1.929   1.856   1.198
  747TIP3    H2 2248   1.965   1.999   1.231
  748TIP3   OH2 2249   2.135   1.622   3.491
  748TIP3    H1 2250   2.101   1.575   3.566
  748TIP3    H2 2251   2.184   1.696   3.528
  749TIP3   OH2 2252   2.735   1.011   4.271
  749TIP3    H1 2253   2.746   0.918   4.293
  749TIP3    H2 2254   2.741   1.056   4.355
  750TIP3   OH2 2255   3.769   3.760   2.707
  750TIP3    H1 2256   3.828   3.822   2.664
  750TIP3    H2 2257   3.718   3.721   2.636
  751TIP3   OH2 2258   2.226   5.284   0.606
  751TIP3    H1 2259   2.136   5.285   0.640
  751TIP3    H2 2260   2.225   5.215   0.540
  752TIP3   OH2 2261   5.120   3.668   0.193
  752TIP3    H1 2262   5.166   3.584   0.187
  752TIP3    H2 2263   5.174   3.728   0.141
  753TIP3   OH2 2264   4.159   0.374   3.933
  753TIP3    H1 2265   4.168   0.296   3.878
  753TIP3    H2 2266   4.114   0.437   3.877
  754TIP3   OH2 2267   5.721   3.321   1.516
  754TIP3    H1 2268   5.693   3.410   1.537
  754TIP3    H2 2269   5.757   3.327   1.428
  755TIP3   OH2 2270   1.851   5.198   1.400
  755TIP3    H1 2271   1.771   5.147   1.407
  755TIP3    H2 2272   1.873   5.222   1.490
  756TIP3   OH2 2273   5.845   4.334   0.743
  756TIP3    H1 2274   5.828   4.409   0.687
  756TIP3    H2 2275   5.799   4.261   0.701
  757TIP3   OH2 2276   4.268   3.981   2.903
  757TIP3    H1 2277   4.199   4.034   2.862
  757TIP3    H2 2278   4.294   3.919   2.834
  758TIP3   OH2 2279   4.034   4.552   1.864
  758TIP3    H1 2280   3.975   4.503   1.808
  758TIP3    H2 2281   4.062   4.489   1.930
  759TIP3   OH2 2282   0.684   0.239   1.110
  759TIP3    H1 2283   0.588   0.237   1.102
  759TIP3    H2 2284   0.713   0.264   1.022
  760TIP3   OH2 2285   5.663   1.063   1.005
  760TIP3    H1 2286   5.723   1.003   0.961
  760TIP3    H2 2287   5.621   1.010   1.072
  761TIP3   OH2 2288   1.841   3.023   4.031
  761TIP3    H1 2289   1.928   2.984   4.036
  761TIP3    H2 2290   1.852   3.112   4.065
  762TIP3   OH2 2291   2.003   5.653   3.694
  762TIP3    H1 2292   2.056   5.580   3.663
  762TIP3    H2 2293   1.972   5.696   3.614
  763TIP3   OH2 2294   4.667   3.517   3.076
  763TIP3    H1 2295   4.686   3.523   2.982
  763TIP3    H2 2296   4.629   3.602   3.098
  764TIP3   OH2 2297   5.969   1.278   2.560
  764TIP3    H1 2298   6.035   1.274   2.629
  764TIP3    H2 2299   5.915   1.200   2.573
  765TIP3   OH2 2300   5.169   2.656   2.796
  765TIP3    H1 2301   5.139   2.745   2.776
  765TIP3    H2 2302   5.109   2.599   2.747
  766TIP3   OH2 2303   1.042   2.969   2.790
  766TIP3    H1 2304   1.010   3.059   2.802
  766TIP3    H2 2305   1.000   2.940   2.709
  767TIP3   OH2 2306   5.509   3.431   0.991
  767TIP3    H1 2307   5.422   3.398   0.970
  767TIP3    H2 2308   5.519   3.415   1.085
  768TIP3   OH2 2309   2.085   5.399   4.194
  768TIP3    H1 2310   2.088   5.391   4.290
  768TIP3    H2 2311   2.175   5.420   4.169
  769TIP3   OH2 2312   5.140   0.431   4.935
  769TIP3    H1 2313   5.206   0.476   4.881
  769TIP3    H2 2314   5.166   0.339   4.931
  770TIP3   OH2 2315   1.436   4.690   1.893
  770TIP3    H1 2316   1.507   4.743   1.856
  770TIP3    H2 2317   1.469   4.600   1.890
  771TIP3   OH2 2318   1.752   1.487   0.728
  771TIP3    H1 2319   1.694   1.547   0.774
  771TIP3    H2 2320   1.785   1.537   0.653
  772TIP3   OH2 2321   3.059   0.815   3.599
  772TIP3    H1 2322   3.061   0.719   3.590
  772TIP3    H2 2323   3.150   0.842   3.583
  773TIP3   OH2 2324   4.385   4.932   3.362
  773TIP3    H1 2325   4.386   4.837   3.355
  773TIP3    H2 2326   4.472   4.959   3.331
  774TIP3   OH2 2327   1.174   4.167   0.889
  774TIP3    H1 2328   1.124   4.186   0.969
  774TIP3    H2 2329   1.161   4.073   0.875
  775TIP3   OH2 2330   0.053   2.764   4.155
  775TIP3    H1 2331   0.107   2.687   4.137
  775TIP3    H2 2332   0.103   2.838   4.120
  776TIP3   OH2 2333   0.304   4.635   1.964
  776TIP3    H1 2334   0.314   4.663   1.873
  776TIP3    H2 2335   0.353   4.553   1.969
  777TIP3   OH2 2336   6.191   2.287   0.521
  777TIP3    H1 2337   6.198   2.304   0.615
  777TIP3    H2 2338   6.188   2.191   0.515
  778TIP3   OH2 2339   4.695   3.344   1.140
  778TIP3    H1 2340   4.668   3.435   1.127
  778TIP3    H2 2341   4.641   3.314   1.213
  779TIP3   OH2 2342   0.613   4.276   0.170
  779TIP3    H1 2343   0.706   4.255   0.172
  779TIP3    H2 2344   0.610   4.372   0.162
  780TIP3   OH2 2345   4.223   5.268   3.092
  780TIP3    H1 2346   4.290   5.281   3.159
  780TIP3    H2 2347   4.270   5.233   3.017
  781TIP3   OH2 2348   5.310   1.418   3.673
  781TIP3    H1 2349   5.281   1.337   3.714
  781TIP3    H2 2350   5.388   1.394   3.624
  782TIP3   OH2 2351   5.743   5.127   3.901
  782TIP3    H1 2352   5.824   5.157   3.861
  782TIP3    H2 2353   5.768   5.050   3.952
  783TIP3   OH2 2354   1.021   3.192   1.054
  783TIP3    H1 2355   1.114   3.211   1.058
  783TIP3    H2 2356   1.012   3.105   1.092
  784TIP3   OH2 2357   5.669   4.952   4.434
  784TIP3    H1 2358   5.735   4.987   4.374
  784TIP3    H2 2359   5.612   4.899   4.379
  785TIP3   OH2 2360   4.257   5.921   0.746
  785TIP3    H1 2361   4.332   5.980   0.747
  785TIP3    H2 2362   4.182   5.978   0.766
  786TIP3   OH2 2363   3.494   5.660   3.605
  786TIP3    H1 2364   3.505   5.572   3.639
  786TIP3    H2 2365   3.402   5.681   3.622
  787TIP3   OH2 2366   2.974   5.092   5.064
  787TIP3    H1 2367   2.898   5.059   5.111
  787TIP3    H2 2368   2.992   5.027   4.996
  788TIP3   OH2 2369   3.990   4.959   0.089
  788TIP3    H1 2370   4.025   5.024   0.028
  788TIP3    H2 2371   3.913   5.001   0.128
  789TIP3   OH2 2372   1.204   3.619   2.075
  789TIP3    H1 2373   1.233   3.680   2.144
  789TIP3    H2 2374   1.283   3.570   2.053
  790TIP3   OH2 2375   2.969   5.812   2.138
  790TIP3    H1 2376   3.047   5.837   2.188
  790TIP3    H2 2377   2.969   5.870   2.062
  791TIP3   OH2 2378   4.778   3.758   1.207
  791TIP3    H1 2379   4.841   3.697   1.246
  791TIP3    H2 2380   4.707   3.702   1.176
  792TIP3   OH2 2381   6.338   0.174   4.240
  792TIP3    H1 2382   6.321   0.258   4.197
  792TIP3    H2 2383   6.301   0.185   4.327
  793TIP3   OH2 2384   2.807   0.733   4.380
  793TIP3    H1 2385   2.828   0.675   4.307
  793TIP3    H2 2386   2.884   0.729   4.437
  794TIP3   OH2 2387   5.091   2.629   3.077
  794TIP3    H1 2388   5.140   2.568   3.131
  794TIP3    H2 2389   5.123   2.614   2.988
  795TIP3   OH2 2390   2.620   0.016   1.305
  795TIP3    H1 2391   2.713  -0.005   1.298
  795TIP3    H2 2392   2.617   0.111   1.313
  796TIP3   OH2 2393   0.888   5.204   2.878
  796TIP3    H1 2394   0.846   5.120   2.858
  796TIP3    H2 2395   0.857   5.263   2.809
  797TIP3   OH2 2396   2.190   0.017   3.755
  797TIP3    H1 2397   2.153  -0.071   3.763
  797TIP3    H2 2398   2.229   0.035   3.840
  798TIP3   OH2 2399   1.136   4.055   3.341
  798TIP3    H1 2400   1.151   3.998   3.417
  798TIP3    H2 2401   1.175   4.007   3.268
  799TIP3   OH2 2402   4.296   2.877   0.487
  799TIP3    H1 2403   4.212   2.834   0.504
  799TIP3    H2 2404   4.317   2.922   0.568
  800TIP3   OH2 2405   3.403   0.831   4.239
  800TIP3    H1 2406   3.491   0.810   4.207
  800TIP3    H2 2407   3.392   0.776   4.317
  801TIP3   OH2 2408   0.074   4.809   0.550
  801TIP3    H1 2409   0.045   4.720   0.527
  801TIP3    H2 2410   0.105   4.846   0.467
  802TIP3   OH2 2411   2.456   4.984   0.774
  802TIP3    H1 2412   2.456   5.069   0.818
  802TIP3    H2 2413   2.373   4.943   0.799
  803TIP3   OH2 2414   5.922   3.565   2.519
  803TIP3    H1 2415   6.015   3.548   2.534
  803TIP3    H2 2416   5.880   3.539   2.601
  804TIP3   OH2 2417   2.180   0.763   0.458
  804TIP3    H1 2418   2.175   0.688   0.399
  804TIP3    H2 2419   2.182   0.725   0.545
  805TIP3   OH2 2420   0.716   3.857   0.261
  805TIP3    H1 2421   0.644   3.887   0.317
  805TIP3    H2 2422   0.772   3.806   0.320
  806TIP3   OH2 2423   1.213   2.578   1.543
  806TIP3    H1 2424   1.155   2.524   1.596
  806TIP3    H2 2425   1.274   2.516   1.503
  807TIP3   OH2 2426   4.036   2.069   3.440
  807TIP3    H1 2427   4.086   1.989   3.455
  807TIP3    H2 2428   4.103   2.136   3.425
  808TIP3   OH2 2429   5.114   5.498   2.805
  808TIP3    H1 2430   5.059   5.445   2.862
  808TIP3    H2 2431   5.193   5.516   2.857
  809TIP3   OH2 2432   3.632   3.752   3.983
  809TIP3    H1 2433   3.641   3.764   4.078
  809TIP3    H2 2434   3.659   3.836   3.946
  810TIP3   OH2 2435   2.631   3.641   1.321
  810TIP3    H1 2436   2.569   3.713   1.314
  810TIP3    H2 2437   2.610   3.583   1.247
  811TIP3   OH2 2438   4.753   0.872   3.868
  811TIP3    H1 2439   4.686   0.893   3.933
  811TIP3    H2 2440   4.719   0.907   3.786
  812TIP3   OH2 2441   3.734   4.223   2.524
  812TIP3    H1 2442   3.822   4.242   2.493
  812TIP3    H2 2443   3.733   4.256   2.614
  813TIP3   OH2 2444   0.436   3.082   3.173
  813TIP3    H1 2445   0.446   3.088   3.078
  813TIP3    H2 2446   0.519   3.046   3.204
  814TIP3   OH2 2447   3.957   4.400   0.960
  814TIP3    H1 2448   4.013   4.477   0.947
  814TIP3    H2 2449   3.947   4.362   0.873
  815TIP3   OH2 2450   4.770   3.678   1.633
  815TIP3    H1 2451   4.718   3.655   1.711
  815TIP3    H2 2452   4.719   3.747   1.591
  816TIP3   OH2 2453   2.051   1.079   1.598
  816TIP3    H1 2454   2.104   1.052   1.673
  816TIP3    H2 2455   2.113   1.122   1.539
  817TIP3   OH2 2456   4.859   1.567   0.635
  817TIP3    H1 2457   4.822   1.654   0.620
  817TIP3    H2 2458   4.792   1.521   0.686
  818TIP3   OH2 2459   5.196   1.542   4.017
  818TIP3    H1 2460   5.199   1.447   4.018
  818TIP3    H2 2461   5.115   1.564   4.062
  819TIP3   OH2 2462   5.286   5.004   3.395
  819TIP3    H1 2463   5.282   5.016   3.300
  819TIP3    H2 2464   5.268   4.910   3.408
  820TIP3   OH2 2465   1.826   1.624   4.851
  820TIP3    H1 2466   1.844   1.678   4.927
  820TIP3    H2 2467   1.901   1.638   4.793
  821TIP3   OH2 2468   5.940   4.322   0.245
  821TIP3    H1 2469   5.928   4.274   0.164
  821TIP3    H2 2470   6.035   4.333   0.253
  822TIP3   OH2 2471   1.721   2.977   2.327
  822TIP3    H1 2472   1.648   3.034   2.350
  822TIP3    H2 2473   1.797   3.035   2.321
  823TIP3   OH2 2474   1.452   3.728   3.693
  823TIP3    H1 2475   1.458   3.635   3.715
  823TIP3    H2 2476   1.460   3.730   3.597
  824TIP3   OH2 2477   6.229   4.571   2.825
  824TIP3    H1 2478   6.172   4.518   2.881
  824TIP3    H2 2479   6.171   4.635   2.784
  825TIP3   OH2 2480   5.203   3.588   0.710
  825TIP3    H1 2481   5.218   3.538   0.630
  825TIP3    H2 2482   5.204   3.680   0.682
  826TIP3   OH2 2483   3.571   4.007   2.620
  826TIP3    H1 2484   3.497   4.059   2.590
  826TIP3    H2 2485   3.647   4.045   2.576
  827TIP3   OH2 2486   1.000   4.227   2.762
  827TIP3    H1 2487   1.041   4.249   2.678
  827TIP3    H2 2488   0.929   4.167   2.739
  828TIP3   OH2 2489   0.490   4.429   4.331
  828TIP3    H1 2490   0.471   4.467   4.245
  828TIP3    H2 2491   0.548   4.355   4.313
  829TIP3   OH2 2492   4.692   1.548   4.493
  829TIP3    H1 2493   4.724   1.590   4.414
  829TIP3    H2 2494   4.766   1.551   4.554
  830TIP3   OH2 2495   0.709   5.821   4.870
  830TIP3    H1 2496   0.631   5.765   4.875
  830TIP3    H2 2497   0.675   5.907   4.844
  831TIP3   OH2 2498   2.279   3.150   1.695
  831TIP3    H1 2499   2.286   3.055   1.694
  831TIP3    H2 2500   2.329   3.178   1.618
  832TIP3   OH2 2501   5.170   4.499   1.430
  832TIP3    H1 2502   5.211   4.482   1.345
  832TIP3    H2 2503   5.224   4.568   1.469
  833TIP3   OH2 2504   0.827   0.490   3.369
  833TIP3    H1 2505   0.843   0.541   3.290
  833TIP3    H2 2506   0.755   0.536   3.413
  834TIP3   OH2 2507   2.273   2.809   0.029
  834TIP3    H1 2508   2.272   2.869   0.104
  834TIP3    H2 2509   2.211   2.740   0.052
  835TIP3   OH2 2510   5.071   4.057   2.427
  835TIP3    H1 2511   4.980   4.064   2.396
  835TIP3    H2 2512   5.121   4.033   2.349
  836TIP3   OH2 2513   1.085   3.357   0.432
  836TIP3    H1 2514   1.165   3.342   0.382
  836TIP3    H2 2515   1.083   3.451   0.448
  837TIP3   OH2 2516   5.484   4.351   1.705
  837TIP3    H1 2517   5.533   4.421   1.749
  837TIP3    H2 2518   5.535   4.332   1.627
  838TIP3   OH2 2519   3.142   4.819   2.221
  838TIP3    H1 2520   3.083   4.794   2.150
  838TIP3    H2 2521   3.126   4.912   2.235
  839TIP3   OH2 2522   2.786   5.134   0.118
  839TIP3    H1 2523   2.703   5.161   0.157
  839TIP3    H2 2524   2.792   5.040   0.135
  840TIP3   OH2 2525   2.493   0.866   3.710
  840TIP3    H1 2526   2.575   0.828   3.678
  840TIP3    H2 2527   2.437   0.872   3.633
  841TIP3   OH2 2528   2.098   0.569   1.038
  841TIP3    H1 2529   2.010   0.531   1.034
  841TIP3    H2 2530   2.149   0.506   1.088
  842TIP3   OH2 2531   0.043   2.330   1.299
  842TIP3    H1 2532   0.052   2.425   1.294
  842TIP3    H2 2533  -0.051   2.316   1.314
  843TIP3   OH2 2534   2.636   4.832   2.370
  843TIP3    H1 2535   2.683   4.823   2.453
  843TIP3    H2 2536   2.562   4.772   2.377
  844TIP3   OH2 2537   2.547   1.914   1.845
  844TIP3    H1 2538   2.475   1.944   1.789
  844TIP3    H2 2539   2.616   1.888   1.785
  845TIP3   OH2 2540   3.647   1.093   4.887
  845TIP3    H1 2541   3.735   1.084   4.924
  845TIP3    H2 2542   3.589   1.097   4.962
  846TIP3   OH2 2543   4.910   0.074   0.181
  846TIP3    H1 2544   4.899   0.162   0.145
  846TIP3    H2 2545   4.835   0.062   0.240
  847TIP3   OH2 2546   3.050   1.110   4.244
  847TIP3    H1 2547   3.083   1.021   4.237
  847TIP3    H2 2548   2.997   1.123   4.165
  848TIP3   OH2 2549   3.723   5.569   4.422
  848TIP3    H1 2550   3.791   5.597   4.361
  848TIP3    H2 2551   3.717   5.639   4.487
  849TIP3   OH2 2552   6.122   1.987   1.241
  849TIP3    H1 2553   6.195   1.937   1.278
  849TIP3    H2 2554   6.093   2.044   1.313
  850TIP3   OH2 2555   1.303   1.683   0.275
  850TIP3    H1 2556   1.354   1.613   0.315
  850TIP3    H2 2557   1.266   1.644   0.196
  851TIP3   OH2 2558   5.287   2.389   0.940
  851TIP3    H1 2559   5.368   2.386   0.992
  851TIP3    H2 2560   5.309   2.343   0.859
  852TIP3   OH2 2561   0.115   1.069   1.167
  852TIP3    H1 2562   0.121   1.095   1.075
  852TIP3    H2 2563   0.074   1.144   1.210
  853TIP3   OH2 2564   2.692   3.489   1.577
  853TIP3    H1 2565   2.667   3.433   1.650
  853TIP3    H2 2566   2.631   3.563   1.582
  854TIP3   OH2 2567   0.557   0.646   4.753
  854TIP3    H1 2568   0.553   0.561   4.795
  854TIP3    H2 2569   0.594   0.704   4.819
  855TIP3   OH2 2570   1.627   5.184   0.130
  855TIP3    H1 2571   1.604   5.128   0.056
  855TIP3    H2 2572   1.600   5.272   0.103
  856TIP3   OH2 2573   1.833   2.279   4.582
  856TIP3    H1 2574   1.825   2.363   4.539
  856TIP3    H2 2575   1.918   2.245   4.555
  857TIP3   OH2 2576   6.217   3.040   2.690
  857TIP3    H1 2577   6.230   3.072   2.601
  857TIP3    H2 2578   6.290   2.979   2.704
  858TIP3   OH2 2579   1.937   0.082   2.182
  858TIP3    H1 2580   1.943   0.051   2.092
  858TIP3    H2 2581   1.876   0.156   2.178
  859TIP3   OH2 2582   2.638   0.826   0.408
  859TIP3    H1 2583   2.565   0.776   0.373
  859TIP3    H2 2584   2.599   0.881   0.475
  860TIP3   OH2 2585   4.687   0.354   1.100
  860TIP3    H1 2586   4.701   0.300   1.022
  860TIP3    H2 2587   4.623   0.420   1.072
  861TIP3   OH2 2588   1.118   1.498   2.079
  861TIP3    H1 2589   1.185   1.450   2.029
  861TIP3    H2 2590   1.116   1.454   2.164
  862TIP3   OH2 2591   0.671   5.704   1.850
  862TIP3    H1 2592   0.642   5.643   1.782
  862TIP3    H2 2593   0.716   5.773   1.802
  863TIP3   OH2 2594   1.028   3.351   5.187
  863TIP3    H1 2595   1.098   3.370   5.125
  863TIP3    H2 2596   1.047   3.263   5.219
  864TIP3   OH2 2597   1.047   4.000   4.429
  864TIP3    H1 2598   1.072   3.990   4.338
  864TIP3    H2 2599   0.962   4.045   4.426
  865TIP3   OH2 2600   0.616   0.344   3.083
  865TIP3    H1 2601   0.703   0.332   3.045
  865TIP3    H2 2602   0.582   0.256   3.093
  866TIP3   OH2 2603   5.107   1.488   2.483
  866TIP3    H1 2604   5.201   1.503   2.488
  866TIP3    H2 2605   5.068   1.556   2.538
  867TIP3   OH2 2606   4.897   3.088   4.442
  867TIP3    H1 2607   4.987   3.060   4.457
  867TIP3    H2 2608   4.905   3.179   4.412
  868TIP3   OH2 2609   5.772   2.925   3.368
  868TIP3    H1 2610   5.690   2.885   3.341
  868TIP3    H2 2611   5.783   3.000   3.310
  869TIP3   OH2 2612   1.615   2.620   2.838
  869TIP3    H1 2613   1.677   2.672   2.891
  869TIP3    H2 2614   1.569   2.566   2.902
  870TIP3   OH2 2615   3.595   4.147   3.256
  870TIP3    H1 2616   3.507   4.110   3.243
  870TIP3    H2 2617   3.651   4.071   3.268
  871TIP3   OH2 2618   1.096   0.588   2.516
  871TIP3    H1 2619   1.088   0.514   2.456
  871TIP3    H2 2620   1.189   0.590   2.540
  872TIP3   OH2 2621   1.555   5.208   4.832
  872TIP3    H1 2622   1.462   5.226   4.846
  872TIP3    H2 2623   1.585   5.280   4.776
  873TIP3   OH2 2624   0.217   5.465   3.596
  873TIP3    H1 2625   0.249   5.375   3.587
  873TIP3    H2 2626   0.237   5.488   3.687
  874TIP3   OH2 2627   3.916   0.525   4.144
  874TIP3    H1 2628   3.828   0.488   4.140
  874TIP3    H2 2629   3.907   0.612   4.104
  875TIP3   OH2 2630   5.428   0.144   3.722
  875TIP3    H1 2631   5.452   0.165   3.812
  875TIP3    H2 2632   5.511   0.124   3.679
  876TIP3   OH2 2633   3.797   5.308   3.609
  876TIP3    H1 2634   3.828   5.333   3.696
  876TIP3    H2 2635   3.737   5.235   3.624
  877TIP3   OH2 2636   1.576   5.423   2.114
  877TIP3    H1 2637   1.549   5.482   2.043
  877TIP3    H2 2638   1.501   5.419   2.172
  878TIP3   OH2 2639   0.716   1.444   4.178
  878TIP3    H1 2640   0.737   1.360   4.219
  878TIP3    H2 2641   0.624   1.459   4.200
  879TIP3   OH2 2642   5.886   3.901   0.066
  879TIP3    H1 2643   5.873   3.840   0.139
  879TIP3    H2 2644   5.904   3.844  -0.009
  880TIP3   OH2 2645   3.261   4.474   3.499
  880TIP3    H1 2646   3.348   4.435   3.507
  880TIP3    H2 2647   3.217   4.421   3.432
  881TIP3   OH2 2648   5.090   0.153   1.173
  881TIP3    H1 2649   5.153   0.085   1.152
  881TIP3    H2 2650   5.123   0.232   1.131
  882TIP3   OH2 2651   2.568   2.728   0.668
  882TIP3    H1 2652   2.496   2.701   0.611
  882TIP3    H2 2653   2.556   2.822   0.679
  883TIP3   OH2 2654   0.066   2.505   2.957
  883TIP3    H1 2655   0.097   2.559   2.886
  883TIP3    H2 2656   0.087   2.415   2.931
  884TIP3   OH2 2657   2.636   0.006   0.405
  884TIP3    H1 2658   2.576   0.062   0.454
  884TIP3    H2 2659   2.615  -0.083   0.434
  885TIP3   OH2 2660   5.292   1.190   2.348
  885TIP3    H1 2661   5.352   1.219   2.416
  885TIP3    H2 2662   5.211   1.169   2.396
  886TIP3   OH2 2663   1.333   2.408   4.872
  886TIP3    H1 2664   1.287   2.407   4.788
  886TIP3    H2 2665   1.395   2.480   4.864
  887TIP3   OH2 2666   1.829   0.522   5.044
  887TIP3    H1 2667   1.758   0.538   5.106
  887TIP3    H2 2668   1.875   0.446   5.079
  888TIP3   OH2 2669   3.525   0.679   0.469
  888TIP3    H1 2670   3.490   0.590   0.462
  888TIP3    H2 2671   3.449   0.736   0.455
  889TIP3   OH2 2672   2.450   0.081   4.562
  889TIP3    H1 2673   2.417   0.035   4.639
  889TIP3    H2 2674   2.486   0.163   4.596
  890TIP3   OH2 2675   0.295   2.320   0.121
  890TIP3    H1 2676   0.335   2.235   0.137
  890TIP3    H2 2677   0.333   2.378   0.187
  891TIP3   OH2 2678   2.129   2.031   4.801
  891TIP3    H1 2679   2.045   2.028   4.755
  891TIP3    H2 2680   2.134   2.120   4.836
  892TIP3   OH2 2681   5.380   4.277   3.136
  892TIP3    H1 2682   5.317   4.261   3.207
  892TIP3    H2 2683   5.326   4.289   3.058
  893TIP3   OH2 2684   2.792   1.147   5.169
  893TIP3    H1 2685   2.873   1.191   5.144
  893TIP3    H2 2686   2.760   1.108   5.088
  894TIP3   OH2 2687   2.795   2.653   0.182
  894TIP3    H1 2688   2.819   2.738   0.218
  894TIP3    H2 2689   2.846   2.589   0.231
  895TIP3   OH2 2690   4.288   1.059   0.247
  895TIP3    H1 2691   4.302   1.136   0.302
  895TIP3    H2 2692   4.193   1.045   0.250
  896TIP3   OH2 2693   4.737   5.211   3.182
  896TIP3    H1 2694   4.754   5.279   3.117
  896TIP3    H2 2695   4.822   5.191   3.221
  897TIP3   OH2 2696   2.771   3.185  -0.004
  897TIP3    H1 2697   2.839   3.122   0.020
  897TIP3    H2 2698   2.756   3.235   0.076
  898TIP3   OH2 2699   3.680   1.804   1.472
  898TIP3    H1 2700   3.715   1.721   1.504
  898TIP3    H2 2701   3.676   1.793   1.377
  899TIP3   OH2 2702   0.261   5.643   0.081
  899TIP3    H1 2703   0.219   5.666  -0.002
  899TIP3    H2 2704   0.211   5.691   0.147
  900TIP3   OH2 2705   0.239   0.365   4.584
  900TIP3    H1 2706   0.331   0.339   4.590
  900TIP3    H2 2707   0.203   0.346   4.671
  901TIP3   OH2 2708   2.989   0.176   1.773
  901TIP3    H1 2709   2.938   0.177   1.692
  901TIP3    H2 2710   2.926   0.152   1.840
  902TIP3   OH2 2711   5.525   3.049   4.629
  902TIP3    H1 2712   5.450   3.050   4.688
  902TIP3    H2 2713   5.542   2.956   4.613
  903TIP3   OH2 2714   2.146   3.303   4.335
  903TIP3    H1 2715   2.117   3.392   4.315
  903TIP3    H2 2716   2.241   3.305   4.321
  904TIP3   OH2 2717   6.347   1.855   1.326
  904TIP3    H1 2718   6.426   1.909   1.326
  904TIP3    H2 2719   6.365   1.786   1.390
  905TIP3   OH2 2720   4.034   3.634   1.031
  905TIP3    H1 2721   3.968   3.681   0.980
  905TIP3    H2 2722   4.000   3.545   1.039
  906TIP3   OH2 2723   1.927   4.573   0.992
  906TIP3    H1 2724   1.844   4.538   0.959
  906TIP3    H2 2725   1.991   4.504   0.974
  907TIP3   OH2 2726   2.719   2.594   2.156
  907TIP3    H1 2727   2.799   2.540   2.156
  907TIP3    H2 2728   2.752   2.684   2.157
  908TIP3   OH2 2729   2.398   1.357   1.677
  908TIP3    H1 2730   2.451   1.283   1.706
  908TIP3    H2 2731   2.360   1.392   1.758
  909TIP3   OH2 2732   4.221   4.006   3.491
  909TIP3    H1 2733   4.180   3.920   3.484
  909TIP3    H2 2734   4.312   3.992   3.465
  910TIP3   OH2 2735   5.633   0.786   3.098
  910TIP3    H1 2736   5.710   0.741   3.062
  910TIP3    H2 2737   5.613   0.738   3.178
  911TIP3   OH2 2738   2.973   2.489   2.075
  911TIP3    H1 2739   3.020   2.564   2.039
  911TIP3    H2 2740   2.915   2.462   2.004
  912TIP3   OH2 2741   3.653   0.603   3.883
  912TIP3    H1 2742   3.572   0.633   3.842
  912TIP3    H2 2743   3.719   0.609   3.814
  913TIP3   OH2 2744   0.269   4.574   0.290
  913TIP3    H1 2745   0.184   4.617   0.289
  913TIP3    H2 2746   0.291   4.561   0.198
  914TIP3   OH2 2747   5.846   0.647   4.555
  914TIP3    H1 2748   5.912   0.588   4.518
  914TIP3    H2 2749   5.779   0.652   4.486
  915TIP3   OH2 2750   1.606   2.034   0.381
  915TIP3    H1 2751   1.637   2.088   0.308
  915TIP3    H2 2752   1.510   2.039   0.377
  916TIP3   OH2 2753   4.325   0.276   0.544
  916TIP3    H1 2754   4.359   0.305   0.629
  916TIP3    H2 2755   4.260   0.209   0.565
  917TIP3   OH2 2756   3.584   1.591   3.001
  917TIP3    H1 2757   3.514   1.653   2.980
  917TIP3    H2 2758   3.661   1.645   3.015
  918TIP3   OH2 2759   0.720   0.410   1.358
  918TIP3    H1 2760   0.716   0.364   1.274
  918TIP3    H2 2761   0.737   0.501   1.335
  919TIP3   OH2 2762   0.033   0.514   4.860
  919TIP3    H1 2763  -0.024   0.591   4.862
  919TIP3    H2 2764   0.109   0.541   4.809
  920TIP3   OH2 2765   4.802   2.053   0.849
  920TIP3    H1 2766   4.844   1.985   0.902
  920TIP3    H2 2767   4.755   2.107   0.912
  921TIP3   OH2 2768   4.812   2.365   0.897
  921TIP3    H1 2769   4.723   2.397   0.884
  921TIP3    H2 2770   4.857   2.384   0.814
  922TIP3   OH2 2771   5.445   2.539   2.110
  922TIP3    H1 2772   5.481   2.502   2.029
  922TIP3    H2 2773   5.363   2.580   2.083
  923TIP3   OH2 2774   5.750   4.391   3.628
  923TIP3    H1 2775   5.697   4.334   3.571
  923TIP3    H2 2776   5.823   4.337   3.656
  924TIP3   OH2 2777   1.228   4.131   2.866
  924TIP3    H1 2778   1.267   4.205   2.912
  924TIP3    H2 2779   1.134   4.153   2.861
  925TIP3   OH2 2780   2.373   1.990   1.589
  925TIP3    H1 2781   2.415   1.936   1.523
  925TIP3    H2 2782   2.280   1.987   1.566
  926TIP3   OH2 2783   5.634   4.140   3.154
  926TIP3    H1 2784   5.565   4.205   3.142
  926TIP3    H2 2785   5.600   4.081   3.221
  927TIP3   OH2 2786   2.271   1.958   0.235
  927TIP3    H1 2787   2.253   1.951   0.329
  927TIP3    H2 2788   2.324   2.038   0.227
  928TIP3   OH2 2789   4.976   3.113   0.556
  928TIP3    H1 2790   4.907   3.176   0.533
  928TIP3    H2 2791   5.031   3.160   0.617
  929TIP3   OH2 2792   3.510   2.886   1.696
  929TIP3    H1 2793   3.434   2.839   1.663
  929TIP3    H2 2794   3.523   2.852   1.784
  930TIP3   OH2 2795   0.339   2.883   2.290
  930TIP3    H1 2796   0.301   2.857   2.205
  930TIP3    H2 2797   0.268   2.929   2.334
  931TIP3   OH2 2798   5.139   3.231   3.719
  931TIP3    H1 2799   5.215   3.284   3.740
  931TIP3    H2 2800   5.100   3.274   3.643
  932TIP3   OH2 2801   3.640   0.949   3.779
  932TIP3    H1 2802   3.611   0.928   3.690
  932TIP3    H2 2803   3.562   0.936   3.833
  933TIP3   OH2 2804   5.095   2.657   4.166
  933TIP3    H1 2805   5.179   2.644   4.210
  933TIP3    H2 2806   5.041   2.705   4.229
  934TIP3   OH2 2807   3.230   4.934   4.448
  934TIP3    H1 2808   3.269   4.854   4.482
  934TIP3    H2 2809   3.189   4.909   4.365
  935TIP3   OH2 2810   6.115   5.145   0.371
  935TIP3    H1 2811   6.205   5.112   0.364
  935TIP3    H2 2812   6.077   5.128   0.285
  936TIP3   OH2 2813   0.479   0.912   1.739
  936TIP3    H1 2814   0.461   0.819   1.746
  936TIP3    H2 2815   0.573   0.917   1.721
  937TIP3   OH2 2816   1.503   0.485   1.656
  937TIP3    H1 2817   1.485   0.543   1.730
  937TIP3    H2 2818   1.569   0.531   1.605
  938TIP3   OH2 2819   4.530   0.944   4.012
  938TIP3    H1 2820   4.495   0.956   4.100
  938TIP3    H2 2821   4.520   1.030   3.970
  939TIP3   OH2 2822   4.201   2.626  -0.005
  939TIP3    H1 2823   4.158   2.575   0.064
  939TIP3    H2 2824   4.252   2.561  -0.054
  940TIP3   OH2 2825   6.138   3.271   2.844
  940TIP3    H1 2826   6.159   3.194   2.791
  940TIP3    H2 2827   6.213   3.282   2.902
  941TIP3   OH2 2828   5.438   3.660   0.813
  941TIP3    H1 2829   5.464   3.600   0.884
  941TIP3    H2 2830   5.370   3.613   0.766
  942TIP3   OH2 2831   0.506   5.690   1.036
  942TIP3    H1 2832   0.465   5.765   0.992
  942TIP3    H2 2833   0.469   5.613   0.992
  943TIP3   OH2 2834   5.308   1.406   5.157
  943TIP3    H1 2835   5.253   1.328   5.145
  943TIP3    H2 2836   5.281   1.466   5.088
  944TIP3   OH2 2837   0.549   0.448   5.134
  944TIP3    H1 2838   0.524   0.455   5.226
  944TIP3    H2 2839   0.578   0.357   5.124
  945TIP3   OH2 2840   2.356   2.776   4.883
  945TIP3    H1 2841   2.324   2.802   4.970
  945TIP3    H2 2842   2.285   2.799   4.824
  946TIP3   OH2 2843   5.940   1.621   4.020
  946TIP3    H1 2844   5.883   1.656   3.952
  946TIP3    H2 2845   6.011   1.577   3.973
  947TIP3   OH2 2846   1.697   2.929   4.678
  947TIP3    H1 2847   1.776   2.887   4.644
  947TIP3    H2 2848   1.728   3.010   4.717
  948TIP3   OH2 2849   6.152   4.338   0.600
  948TIP3    H1 2850   6.101   4.326   0.681
  948TIP3    H2 2851   6.094   4.387   0.542
  949TIP3   OH2 2852   5.212   2.455   5.012
  949TIP3    H1 2853   5.173   2.419   4.933
  949TIP3    H2 2854   5.202   2.386   5.078
  950TIP3   OH2 2855   1.240   0.191   3.011
  950TIP3    H1 2856   1.335   0.184   2.998
  950TIP3    H2 2857   1.228   0.269   3.064
  951TIP3   OH2 2858   6.189   1.334   0.991
  951TIP3    H1 2859   6.115   1.292   0.947
  951TIP3    H2 2860   6.264   1.279   0.968
  952TIP3   OH2 2861   3.489   4.906   2.026
  952TIP3    H1 2862   3.467   4.844   2.095
  952TIP3    H2 2863   3.412   4.907   1.969
  953TIP3   OH2 2864   6.073   3.515   3.724
  953TIP3    H1 2865   6.162   3.504   3.691
  953TIP3    H2 2866   6.061   3.610   3.728
  954TIP3   OH2 2867   2.292   4.772   2.101
  954TIP3    H1 2868   2.220   4.737   2.049
  954TIP3    H2 2869   2.326   4.845   2.049
  955TIP3   OH2 2870   6.090   1.897   2.259
  955TIP3    H1 2871   6.014   1.950   2.236
  955TIP3    H2 2872   6.063   1.807   2.241
  956TIP3   OH2 2873   5.602   4.067   5.098
  956TIP3    H1 2874   5.574   3.981   5.126
  956TIP3    H2 2875   5.550   4.086   5.020
  957TIP3   OH2 2876   5.002   5.729   4.786
  957TIP3    H1 2877   4.956   5.696   4.863
  957TIP3    H2 2878   4.973   5.820   4.779
  958TIP3   OH2 2879   2.367   5.116   1.134
  958TIP3    H1 2880   2.286   5.089   1.177
  958TIP3    H2 2881   2.433   5.055   1.166
  959TIP3   OH2 2882   5.322   0.071   1.375
  959TIP3    H1 2883   5.259  -0.001   1.385
  959TIP3    H2 2884   5.340   0.075   1.282
  960TIP3   OH2 2885   1.085   5.374   3.062
  960TIP3    H1 2886   1.021   5.305   3.077
  960TIP3    H2 2887   1.149   5.336   3.001
  961TIP3   OH2 2888   1.392   5.571   1.923
  961TIP3    H1 2889   1.389   5.509   1.851
  961TIP3    H2 2890   1.300   5.584   1.947
  962TIP3   OH2 2891   0.584   2.834   5.198
  962TIP3    H1 2892   0.664   2.883   5.179
  962TIP3    H2 2893   0.529   2.846   5.120
  963TIP3   OH2 2894   3.913   3.028   3.546
  963TIP3    H1 2895   3.943   2.964   3.610
  963TIP3    H2 2896   3.993   3.061   3.505
  964TIP3   OH2 2897   0.027   1.151   1.968
  964TIP3    H1 2898  -0.017   1.209   1.906
  964TIP3    H2 2899  -0.018   1.067   1.958
  965TIP3   OH2 2900   5.150   1.571   2.898
  965TIP3    H1 2901   5.170   1.499   2.839
  965TIP3    H2 2902   5.065   1.549   2.936
  966TIP3   OH2 2903   2.081   0.758   2.212
  966TIP3    H1 2904   2.140   0.739   2.140
  966TIP3    H2 2905   2.135   0.749   2.291
  967TIP3   OH2 2906   4.971   1.801   3.162
  967TIP3    H1 2907   4.956   1.708   3.143
  967TIP3    H2 2908   5.057   1.804   3.203
  968TIP3   OH2 2909   2.777   4.536   4.601
  968TIP3    H1 2910   2.815   4.558   4.686
  968TIP3    H2 2911   2.806   4.606   4.543
  969TIP3   OH2 2912   3.696   1.853   4.726
  969TIP3    H1 2913   3.671   1.843   4.634
  969TIP3    H2 2914   3.709   1.947   4.737
  970TIP3   OH2 2915   0.108   5.442   5.030
  970TIP3    H1 2916   0.067   5.377   5.086
  970TIP3    H2 2917   0.092   5.412   4.941
  971TIP3   OH2 2918   1.218   1.006   3.696
  971TIP3    H1 2919   1.209   0.952   3.774
  971TIP3    H2 2920   1.181   1.091   3.721
  972TIP3   OH2 2921   3.421   0.116   4.702
  972TIP3    H1 2922   3.505   0.115   4.747
  972TIP3    H2 2923   3.442   0.088   4.613
  973TIP3   OH2 2924   1.530   2.922   1.535
  973TIP3    H1 2925   1.443   2.932   1.573
  973TIP3    H2 2926   1.590   2.938   1.608
  974TIP3   OH2 2927   1.482   1.265   2.891
  974TIP3    H1 2928   1.472   1.349   2.937
  974TIP3    H2 2929   1.469   1.199   2.960
  975TIP3   OH2 2930   5.058   4.586   2.844
  975TIP3    H1 2931   4.986   4.616   2.900
  975TIP3    H2 2932   5.044   4.491   2.836
  976TIP3   OH2 2933   0.205   2.522   4.164
  976TIP3    H1 2934   0.244   2.464   4.099
  976TIP3    H2 2935   0.146   2.466   4.214
  977TIP3   OH2 2936   1.416   1.524   1.792
  977TIP3    H1 2937   1.504   1.497   1.817
  977TIP3    H2 2938   1.411   1.616   1.819
  978TIP3   OH2 2939   3.666   4.405   5.055
  978TIP3    H1 2940   3.670   4.309   5.049
  978TIP3    H2 2941   3.648   4.422   5.147
  979TIP3   OH2 2942   2.598   2.401   0.201
  979TIP3    H1 2943   2.603   2.455   0.123
  979TIP3    H2 2944   2.682   2.415   0.245
  980TIP3   OH2 2945   5.816   2.067   3.144
  980TIP3    H1 2946   5.776   2.068   3.231
  980TIP3    H2 2947   5.829   1.974   3.124
  981TIP3   OH2 2948   1.981   3.595   5.096
  981TIP3    H1 2949   2.021   3.536   5.160
  981TIP3    H2 2950   1.893   3.611   5.129
  982TIP3   OH2 2951   4.403   3.128   1.310
  982TIP3    H1 2952   4.330   3.110   1.370
  982TIP3    H2 2953   4.390   3.219   1.284
  983TIP3   OH2 2954   1.205   0.848   3.954
  983TIP3    H1 2955   1.154   0.789   4.010
  983TIP3    H2 2956   1.290   0.804   3.945
  984TIP3   OH2 2957   1.050   4.625   0.179
  984TIP3    H1 2958   0.975   4.591   0.227
  984TIP3    H2 2959   1.050   4.576   0.096
  985TIP3   OH2 2960   6.014   0.161   1.983
  985TIP3    H1 2961   5.924   0.154   2.016
  985TIP3    H2 2962   6.046   0.243   2.020
  986TIP3   OH2 2963   5.265   2.019   1.592
  986TIP3    H1 2964   5.323   2.065   1.532
  986TIP3    H2 2965   5.225   2.087   1.645
  987TIP3   OH2 2966   3.433   3.805   2.508
  987TIP3    H1 2967   3.504   3.854   2.551
  987TIP3    H2 2968   3.426   3.845   2.421
  988TIP3   OH2 2969   0.232   1.551   4.902
  988TIP3    H1 2970   0.279   1.468   4.897
  988TIP3    H2 2971   0.213   1.563   4.996
  989TIP3   OH2 2972   2.405   5.061   5.054
  989TIP3    H1 2973   2.320   5.102   5.069
  989TIP3    H2 2974   2.386   4.968   5.047
  990TIP3   OH2 2975   0.632   2.820   0.669
  990TIP3    H1 2976   0.559   2.883   0.669
  990TIP3    H2 2977   0.628   2.779   0.583
  991TIP3   OH2 2978   5.015   5.161   3.515
  991TIP3    H1 2979   4.985   5.206   3.594
  991TIP3    H2 2980   5.110   5.165   3.519
  992TIP3   OH2 2981   3.046   2.024   2.328
  992TIP3    H1 2982   3.031   1.947   2.382
  992TIP3    H2 2983   3.016   1.998   2.241
  993TIP3   OH2 2984   2.391   1.455   0.935
  993TIP3    H1 2985   2.349   1.383   0.888
  993TIP3    H2 2986   2.415   1.418   1.020
  994TIP3   OH2 2987   2.245   2.334   3.633
  994TIP3    H1 2988   2.303   2.369   3.566
  994TIP3    H2 2989   2.164   2.313   3.587
  995TIP3   OH2 2990   0.846   3.231   3.911
  995TIP3    H1 2991   0.869   3.139   3.926
  995TIP3    H2 2992   0.780   3.228   3.842
  996TIP3   OH2 2993   1.342   0.874   2.800
  996TIP3    H1 2994   1.260   0.896   2.757
  996TIP3    H2 2995   1.410   0.903   2.740
  997TIP3   OH2 2996   0.141   1.037   2.815
  997TIP3    H1 2997   0.218   1.016   2.763
  997TIP3    H2 2998   0.127   1.131   2.801
  998TIP3   OH2 2999   5.678   5.333   1.825
  998TIP3    H1 3000   5.634   5.268   1.880
  998TIP3    H2 3001   5.688   5.409   1.882
  999TIP3   OH2 3002   1.461   2.424   1.459
  999TIP3    H1 3003   1.436   2.347   1.510
  999TIP3    H2 3004   1.497   2.485   1.523
 1000TIP3   OH2 3005   2.984   4.222   2.453
 1000TIP3    H1 3006   2.925   4.186   2.387
 1000TIP3    H2 3007   3.071   4.195   2.424
 1001TIP3   OH2 3008   5.808   4.087   2.602
 1001TIP3    H1 3009   5.826   4.000   2.566
 1001TIP3    H2 3010   5.864   4.093   2.680
 1002TIP3   OH2 3011   3.762   0.970   4.314
 1002TIP3    H1 3012   3.828   0.907   4.344
 1002TIP3    H2 3013   3.794   1.054   4.346
 1003TIP3   OH2 3014   4.077   1.383   0.992
 1003TIP3    H1 3015   4.013   1.408   0.926
 1003TIP3    H2 3016   4.151   1.349   0.942
 1004TIP3   OH2 3017   3.287   3.440   0.791
 1004TIP3    H1 3018   3.194   3.419   0.789
 1004TIP3    H2 3019   3.307   3.456   0.883
 1005TIP3   OH2 3020   2.130   0.454   4.155
 1005TIP3    H1 3021   2.071   0.459   4.230
 1005TIP3    H2 3022   2.125   0.541   4.115
 1006TIP3   OH2 3023   2.560   0.028   1.681
 1006TIP3    H1 3024   2.591   0.024   1.772
 1006TIP3    H2 3025   2.469  -0.001   1.685
 1007TIP3   OH2 3026   5.278   0.353   4.635
 1007TIP3    H1 3027   5.351   0.340   4.695
 1007TIP3    H2 3028   5.215   0.284   4.659
 1008TIP3   OH2 3029   3.116   2.543   0.467
 1008TIP3    H1 3030   3.131   2.540   0.562
 1008TIP3    H2 3031   3.178   2.480   0.432
 1009TIP3   OH2 3032   1.716   2.039   2.474
 1009TIP3    H1 3033   1.630   2.070   2.502
 1009TIP3    H2 3034   1.766   2.119   2.458
 1010TIP3   OH2 3035   2.697   3.928   4.297
 1010TIP3    H1 3036   2.669   3.981   4.222
 1010TIP3    H2 3037   2.762   3.982   4.341
 1011TIP3   OH2 3038   6.161   1.505   4.696
 1011TIP3    H1 3039   6.127   1.593   4.679
 1011TIP3    H2 3040   6.114   1.477   4.775
 1012TIP3   OH2 3041   4.480   3.103   2.018
 1012TIP3    H1 3042   4.433   3.054   2.085
 1012TIP3    H2 3043   4.411   3.145   1.966
 1013TIP3   OH2 3044   2.015   2.657   0.855
 1013TIP3    H1 3045   2.089   2.596   0.862
 1013TIP3    H2 3046   1.938   2.602   0.866
 1014TIP3   OH2 3047   5.925   2.623   4.176
 1014TIP3    H1 3048   5.943   2.529   4.186
 1014TIP3    H2 3049   5.885   2.630   4.089
 1015TIP3   OH2 3050   3.978   5.136   3.082
 1015TIP3    H1 3051   3.983   5.073   3.010
 1015TIP3    H2 3052   4.062   5.182   3.080
 1016TIP3   OH2 3053   2.429   2.078   1.056
 1016TIP3    H1 3054   2.348   2.066   1.106
 1016TIP3    H2 3055   2.496   2.033   1.108
 1017TIP3   OH2 3056   6.039   3.373   1.444
 1017TIP3    H1 3057   6.113   3.341   1.497
 1017TIP3    H2 3058   6.022   3.461   1.479
 1018TIP3   OH2 3059   5.893   5.953   2.812
 1018TIP3    H1 3060   5.933   5.910   2.736
 1018TIP3    H2 3061   5.819   6.002   2.776
 1019TIP3   OH2 3062   2.801   2.552   3.375
 1019TIP3    H1 3063   2.889   2.587   3.382
 1019TIP3    H2 3064   2.807   2.487   3.305
 1020TIP3   OH2 3065   5.911   2.854   1.975
 1020TIP3    H1 3066   5.850   2.828   1.906
 1020TIP3    H2 3067   5.963   2.924   1.936
 1021TIP3   OH2 3068   0.099   1.318   1.547
 1021TIP3    H1 3069   0.099   1.342   1.640
 1021TIP3    H2 3070   0.187   1.284   1.531
 1022TIP3   OH2 3071   2.445   2.948   3.629
 1022TIP3    H1 3072   2.484   2.904   3.705
 1022TIP3    H2 3073   2.469   2.892   3.555
 1023TIP3   OH2 3074   1.485   0.665   1.175
 1023TIP3    H1 3075   1.547   0.725   1.133
 1023TIP3    H2 3076   1.470   0.704   1.261
 1024TIP3   OH2 3077   0.905   0.313   0.336
 1024TIP3    H1 3078   0.982   0.366   0.315
 1024TIP3    H2 3079   0.940   0.237   0.382
 1025TIP3   OH2 3080   5.046   1.272   3.601
 1025TIP3    H1 3081   4.977   1.295   3.664
 1025TIP3    H2 3082   5.106   1.216   3.652
 1026TIP3   OH2 3083   0.186   5.152   1.365
 1026TIP3    H1 3084   0.207   5.225   1.308
 1026TIP3    H2 3085   0.229   5.076   1.324
 1027TIP3   OH2 3086   5.002   0.824   0.899
 1027TIP3    H1 3087   5.017   0.885   0.971
 1027TIP3    H2 3088   5.089   0.812   0.860
 1028TIP3   OH2 3089   0.297   3.656   0.738
 1028TIP3    H1 3090   0.354   3.653   0.815
 1028TIP3    H2 3091   0.297   3.748   0.712
 1029TIP3   OH2 3092   3.695   3.844   1.459
 1029TIP3    H1 3093   3.726   3.760   1.427
 1029TIP3    H2 3094   3.612   3.824   1.502
 1030TIP3   OH2 3095   0.142   3.696   3.374
 1030TIP3    H1 3096   0.172   3.606   3.379
 1030TIP3    H2 3097   0.185   3.732   3.296
 1031TIP3   OH2 3098   2.916  -0.027   4.248
 1031TIP3    H1 3099   2.838  -0.071   4.281
 1031TIP3    H2 3100   2.945   0.029   4.320
 1032TIP3   OH2 3101   0.925   3.580   1.689
 1032TIP3    H1 3102   0.854   3.600   1.750
 1032TIP3    H2 3103   1.003   3.617   1.730
 1033TIP3   OH2 3104   4.291   1.923   3.532
 1033TIP3    H1 3105   4.341   1.908   3.612
 1033TIP3    H2 3106   4.355   1.915   3.461
 1034TIP3   OH2 3107   5.800   4.096   3.986
 1034TIP3    H1 3108   5.749   4.022   4.021
 1034TIP3    H2 3109   5.763   4.173   4.028
 1035TIP3   OH2 3110   1.836   2.340   4.078
 1035TIP3    H1 3111   1.809   2.274   4.142
 1035TIP3    H2 3112   1.754   2.371   4.039
 1036TIP3   OH2 3113   0.781   2.594   2.842
 1036TIP3    H1 3114   0.821   2.561   2.762
 1036TIP3    H2 3115   0.829   2.551   2.913
 1037TIP3   OH2 3116   1.755   5.076   3.561
 1037TIP3    H1 3117   1.673   5.048   3.602
 1037TIP3    H2 3118   1.823   5.054   3.625
 1038TIP3   OH2 3119   0.287   5.234   4.078
 1038TIP3    H1 3120   0.353   5.304   4.075
 1038TIP3    H2 3121   0.280   5.212   4.171
 1039TIP3   OH2 3122   0.150   0.792   3.675
 1039TIP3    H1 3123   0.119   0.718   3.727
 1039TIP3    H2 3124   0.192   0.850   3.738
 1040TIP3   OH2 3125   0.951   0.358   3.936
 1040TIP3    H1 3126   0.969   0.397   3.851
 1040TIP3    H2 3127   0.859   0.333   3.932
 1041TIP3   OH2 3128   5.078   4.698   0.308
 1041TIP3    H1 3129   5.145   4.744   0.359
 1041TIP3    H2 3130   5.000   4.752   0.315
 1042TIP3   OH2 3131   4.247   5.620   2.851
 1042TIP3    H1 3132   4.259   5.527   2.871
 1042TIP3    H2 3133   4.203   5.656   2.928
 1043TIP3   OH2 3134   2.028   3.191   1.839
 1043TIP3    H1 3135   2.109   3.208   1.791
 1043TIP3    H2 3136   2.026   3.096   1.849
 1044TIP3   OH2 3137   4.758   0.204   3.916
 1044TIP3    H1 3138   4.851   0.223   3.902
 1044TIP3    H2 3139   4.725   0.182   3.828
 1045TIP3   OH2 3140   5.064   4.428   4.544
 1045TIP3    H1 3141   4.987   4.478   4.571
 1045TIP3    H2 3142   5.138   4.487   4.560
 1046TIP3   OH2 3143   4.227   1.093   1.157
 1046TIP3    H1 3144   4.282   1.096   1.078
 1046TIP3    H2 3145   4.166   1.021   1.141
 1047TIP3   OH2 3146   0.398   0.469   3.406
 1047TIP3    H1 3147   0.356   0.478   3.321
 1047TIP3    H2 3148   0.412   0.375   3.416
 1048TIP3   OH2 3149   1.694   0.025   4.408
 1048TIP3    H1 3150   1.722   0.108   4.448
 1048TIP3    H2 3151   1.598   0.026   4.414
 1049TIP3   OH2 3152   4.636   4.382   1.212
 1049TIP3    H1 3153   4.718   4.369   1.260
 1049TIP3    H2 3154   4.664   4.395   1.122
 1050TIP3   OH2 3155   2.324   0.323   3.989
 1050TIP3    H1 3156   2.320   0.365   3.903
 1050TIP3    H2 3157   2.260   0.371   4.042
 1051TIP3   OH2 3158   0.726   5.184   0.733
 1051TIP3    H1 3159   0.698   5.275   0.739
 1051TIP3    H2 3160   0.805   5.179   0.787
 1052TIP3   OH2 3161   3.611   4.185   2.243
 1052TIP3    H1 3162   3.702   4.155   2.249
 1052TIP3    H2 3163   3.617   4.281   2.244
 1053TIP3   OH2 3164   0.302   4.461   1.154
 1053TIP3    H1 3165   0.242   4.439   1.082
 1053TIP3    H2 3166   0.296   4.556   1.162
 1054TIP3   OH2 3167   1.339   5.849   4.901
 1054TIP3    H1 3168   1.259   5.820   4.855
 1054TIP3    H2 3169   1.331   5.945   4.904
 1055TIP3   OH2 3170   1.320   2.207   2.347
 1055TIP3    H1 3171   1.291   2.160   2.425
 1055TIP3    H2 3172   1.282   2.294   2.356
 1056TIP3   OH2 3173   4.299   5.172   2.823
 1056TIP3    H1 3174   4.345   5.205   2.745
 1056TIP3    H2 3175   4.207   5.194   2.807
 1057TIP3   OH2 3176   4.663   5.147   4.668
 1057TIP3    H1 3177   4.602   5.075   4.682
 1057TIP3    H2 3178   4.610   5.226   4.678
 1058TIP3   OH2 3179   1.911   4.519   1.735
 1058TIP3    H1 3180   1.900   4.464   1.657
 1058TIP3    H2 3181   1.944   4.459   1.802
 1059TIP3   OH2 3182   6.113   0.783   3.075
 1059TIP3    H1 3183   6.166   0.846   3.026
 1059TIP3    H2 3184   6.176   0.721   3.111
 1060TIP3   OH2 3185   0.466   3.635   2.385
 1060TIP3    H1 3186   0.546   3.595   2.420
 1060TIP3    H2 3187   0.409   3.561   2.364
 1061TIP3   OH2 3188   0.719   5.430   2.843
 1061TIP3    H1 3189   0.643   5.476   2.807
 1061TIP3    H2 3190   0.775   5.500   2.878
 1062TIP3   OH2 3191   3.069   3.936   4.881
 1062TIP3    H1 3192   2.992   3.900   4.837
 1062TIP3    H2 3193   3.035   4.011   4.930
 1063TIP3   OH2 3194   1.056   2.912   0.576
 1063TIP3    H1 3195   1.025   2.952   0.495
 1063TIP3    H2 3196   1.114   2.842   0.547
 1064TIP3   OH2 3197   2.574   4.755   4.732
 1064TIP3    H1 3198   2.536   4.841   4.711
 1064TIP3    H2 3199   2.551   4.700   4.657
 1065TIP3   OH2 3200   6.320   3.202   0.006
 1065TIP3    H1 3201   6.290   3.263   0.074
 1065TIP3    H2 3202   6.241   3.161  -0.027
 1066TIP3   OH2 3203   4.819   2.957   4.202
 1066TIP3    H1 3204   4.804   3.017   4.275
 1066TIP3    H2 3205   4.795   2.871   4.235
 1067TIP3   OH2 3206   1.093   4.672   3.309
 1067TIP3    H1 3207   1.188   4.666   3.317
 1067TIP3    H2 3208   1.067   4.732   3.379
 1068TIP3   OH2 3209   3.789   3.493   0.584
 1068TIP3    H1 3210   3.811   3.529   0.498
 1068TIP3    H2 3211   3.769   3.401   0.567
 1069TIP3   OH2 3212   3.719   3.070   1.704
 1069TIP3    H1 3213   3.740   3.063   1.797
 1069TIP3    H2 3214   3.641   3.015   1.692
 1070TIP3   OH2 3215   0.175   3.844   3.990
 1070TIP3    H1 3216   0.129   3.869   4.070
 1070TIP3    H2 3217   0.158   3.750   3.981
 1071TIP3   OH2 3218   0.551   2.043   3.564
 1071TIP3    H1 3219   0.489   2.087   3.507
 1071TIP3    H2 3220   0.614   2.111   3.588
 1072TIP3   OH2 3221   5.712   0.172   3.681
 1072TIP3    H1 3222   5.662   0.228   3.622
 1072TIP3    H2 3223   5.730   0.227   3.757
 1073TIP3   OH2 3224   5.251   2.692   1.965
 1073TIP3    H1 3225   5.185   2.684   1.896
 1073TIP3    H2 3226   5.212   2.752   2.028
 1074TIP3   OH2 3227   0.123   5.281   4.561
 1074TIP3    H1 3228   0.092   5.307   4.648
 1074TIP3    H2 3229   0.060   5.321   4.501
 1075TIP3   OH2 3230   3.031   4.516   3.706
 1075TIP3    H1 3231   3.043   4.469   3.623
 1075TIP3    H2 3232   3.025   4.608   3.681
 1076TIP3   OH2 3233   3.857   2.891   2.859
 1076TIP3    H1 3234   3.817   2.972   2.826
 1076TIP3    H2 3235   3.808   2.821   2.817
 1077TIP3   OH2 3236   5.632   4.362   0.265
 1077TIP3    H1 3237   5.676   4.288   0.308
 1077TIP3    H2 3238   5.703   4.413   0.226
 1078TIP3   OH2 3239   5.304   2.998   1.945
 1078TIP3    H1 3240   5.262   2.934   1.888
 1078TIP3    H2 3241   5.236   3.025   2.007
 1079TIP3   OH2 3242   4.613   1.642   2.564
 1079TIP3    H1 3243   4.649   1.572   2.509
 1079TIP3    H2 3244   4.532   1.667   2.520
 1080TIP3   OH2 3245   6.097   5.631   1.943
 1080TIP3    H1 3246   6.048   5.679   2.009
 1080TIP3    H2 3247   6.125   5.698   1.880
 1081TIP3   OH2 3248   3.551   2.360   3.987
 1081TIP3    H1 3249   3.472   2.328   4.030
 1081TIP3    H2 3250   3.570   2.443   4.032
 1082TIP3   OH2 3251   0.077   5.165   1.860
 1082TIP3    H1 3252   0.084   5.075   1.892
 1082TIP3    H2 3253   0.155   5.177   1.806
 1083TIP3   OH2 3254   0.754   4.054   1.217
 1083TIP3    H1 3255   0.813   4.068   1.291
 1083TIP3    H2 3256   0.685   4.120   1.228
 1084TIP3   OH2 3257   3.039   2.545   4.253
 1084TIP3    H1 3258   3.050   2.484   4.326
 1084TIP3    H2 3259   2.956   2.590   4.271
 1085TIP3   OH2 3260   4.490   5.459   3.990
 1085TIP3    H1 3261   4.494   5.368   4.018
 1085TIP3    H2 3262   4.423   5.460   3.922
 1086TIP3   OH2 3263   5.349   4.205   3.513
 1086TIP3    H1 3264   5.276   4.192   3.573
 1086TIP3    H2 3265   5.344   4.297   3.489
 1087TIP3   OH2 3266   3.128   4.738   0.276
 1087TIP3    H1 3267   3.101   4.694   0.195
 1087TIP3    H2 3268   3.077   4.695   0.345
 1088TIP3   OH2 3269   1.655   5.491   4.261
 1088TIP3    H1 3270   1.623   5.511   4.172
 1088TIP3    H2 3271   1.588   5.528   4.319
 1089TIP3   OH2 3272   4.453   0.366   2.754
 1089TIP3    H1 3273   4.414   0.321   2.829
 1089TIP3    H2 3274   4.411   0.325   2.678
 1090TIP3   OH2 3275   0.537   1.570   3.957
 1090TIP3    H1 3276   0.624   1.564   3.918
 1090TIP3    H2 3277   0.541   1.513   4.033
 1091TIP3   OH2 3278   2.293   1.735   2.614
 1091TIP3    H1 3279   2.206   1.695   2.613
 1091TIP3    H2 3280   2.276   1.829   2.606
 1092TIP3   OH2 3281   3.980   2.522   4.848
 1092TIP3    H1 3282   3.975   2.466   4.926
 1092TIP3    H2 3283   3.950   2.466   4.777
 1093TIP3   OH2 3284   0.336   4.840   4.289
 1093TIP3    H1 3285   0.422   4.800   4.306
 1093TIP3    H2 3286   0.345   4.883   4.204
 1094TIP3   OH2 3287   3.794   5.190   4.545
 1094TIP3    H1 3288   3.757   5.102   4.540
 1094TIP3    H2 3289   3.888   5.175   4.558
 1095TIP3   OH2 3290   4.420   4.105   2.626
 1095TIP3    H1 3291   4.384   4.184   2.667
 1095TIP3    H2 3292   4.344   4.054   2.599
 1096TIP3   OH2 3293   2.567   4.322   5.010
 1096TIP3    H1 3294   2.521   4.336   4.928
 1096TIP3    H2 3295   2.660   4.329   4.988
 1097TIP3   OH2 3296   5.471   5.177   3.944
 1097TIP3    H1 3297   5.477   5.271   3.930
 1097TIP3    H2 3298   5.560   5.145   3.930
 1098TIP3   OH2 3299   3.977   1.232   4.296
 1098TIP3    H1 3300   3.932   1.266   4.219
 1098TIP3    H2 3301   4.031   1.161   4.263
 1099TIP3   OH2 3302   4.018   4.236   0.452
 1099TIP3    H1 3303   3.951   4.193   0.400
 1099TIP3    H2 3304   4.026   4.324   0.414
 1100TIP3   OH2 3305   4.921   0.977   4.394
 1100TIP3    H1 3306   4.985   0.935   4.451
 1100TIP3    H2 3307   4.918   0.922   4.316
 1101TIP3   OH2 3308   5.441   0.694   1.867
 1101TIP3    H1 3309   5.366   0.664   1.816
 1101TIP3    H2 3310   5.421   0.785   1.888
 1102TIP3   OH2 3311   2.007   3.286   0.168
 1102TIP3    H1 3312   2.073   3.265   0.234
 1102TIP3    H2 3313   2.004   3.210   0.111
 1103TIP3   OH2 3314   0.209   5.739   0.702
 1103TIP3    H1 3315   0.125   5.783   0.714
 1103TIP3    H2 3316   0.187   5.646   0.690
 1104TIP3   OH2 3317   5.090   4.880   0.667
 1104TIP3    H1 3318   5.144   4.956   0.690
 1104TIP3    H2 3319   5.153   4.817   0.631
 1105TIP3   OH2 3320   4.420   0.885   3.155
 1105TIP3    H1 3321   4.453   0.815   3.098
 1105TIP3    H2 3322   4.325   0.879   3.146
 1106TIP3   OH2 3323   0.069   3.976   0.688
 1106TIP3    H1 3324   0.041   4.018   0.607
 1106TIP3    H2 3325   0.005   4.004   0.753
 1107TIP3   OH2 3326   5.871   3.019   4.677
 1107TIP3    H1 3327   5.806   2.951   4.693
 1107TIP3    H2 3328   5.853   3.048   4.587
 1108TIP3   OH2 3329   1.688   1.114   2.790
 1108TIP3    H1 3330   1.616   1.160   2.832
 1108TIP3    H2 3331   1.646   1.055   2.727
 1109TIP3   OH2 3332   1.978   0.099   2.766
 1109TIP3    H1 3333   1.949   0.030   2.825
 1109TIP3    H2 3334   1.920   0.093   2.691
 1110TIP3   OH2 3335   1.744   5.851   1.174
 1110TIP3    H1 3336   1.696   5.815   1.248
 1110TIP3    H2 3337   1.832   5.813   1.181
 1111TIP3   OH2 3338   1.048   1.851   4.077
 1111TIP3    H1 3339   1.075   1.794   4.149
 1111TIP3    H2 3340   1.067   1.940   4.109
 1112TIP3   OH2 3341   5.633   3.691   1.525
 1112TIP3    H1 3342   5.601   3.613   1.572
 1112TIP3    H2 3343   5.713   3.715   1.571
 1113TIP3   OH2 3344   5.383   3.221   3.200
 1113TIP3    H1 3345   5.368   3.310   3.168
 1113TIP3    H2 3346   5.476   3.219   3.225
 1114TIP3   OH2 3347   1.179   5.715   2.952
 1114TIP3    H1 3348   1.165   5.678   3.039
 1114TIP3    H2 3349   1.119   5.790   2.948
 1115TIP3   OH2 3350   3.406   4.221   4.918
 1115TIP3    H1 3351   3.399   4.316   4.924
 1115TIP3    H2 3352   3.458   4.205   4.838
 1116TIP3   OH2 3353   2.820   2.096   4.090
 1116TIP3    H1 3354   2.752   2.161   4.069
 1116TIP3    H2 3355   2.790   2.057   4.173
 1117TIP3   OH2 3356   3.224   0.899   0.533
 1117TIP3    H1 3357   3.286   0.931   0.467
 1117TIP3    H2 3358   3.139   0.929   0.502
 1118TIP3   OH2 3359   2.209   0.625   0.728
 1118TIP3    H1 3360   2.299   0.592   0.737
 1118TIP3    H2 3361   2.170   0.612   0.815
 1119TIP3   OH2 3362   6.250   3.261   1.561
 1119TIP3    H1 3363   6.273   3.332   1.622
 1119TIP3    H2 3364   6.314   3.269   1.490
 1120TIP3   OH2 3365   1.283   0.404   3.174
 1120TIP3    H1 3366   1.270   0.498   3.163
 1120TIP3    H2 3367   1.371   0.397   3.213
 1121TIP3   OH2 3368   4.618   4.411   3.356
 1121TIP3    H1 3369   4.575   4.358   3.423
 1121TIP3    H2 3370   4.604   4.362   3.274
 1122TIP3   OH2 3371   1.633   2.877   4.209
 1122TIP3    H1 3372   1.661   2.934   4.136
 1122TIP3    H2 3373   1.601   2.938   4.275
 1123TIP3   OH2 3374   5.917   2.081   2.741
 1123TIP3    H1 3375   5.866   2.001   2.741
 1123TIP3    H2 3376   5.974   2.073   2.664
 1124TIP3   OH2 3377   6.292   2.992   0.538
 1124TIP3    H1 3378   6.317   3.017   0.627
 1124TIP3    H2 3379   6.326   3.062   0.483
 1125TIP3   OH2 3380   1.159   2.087   4.135
 1125TIP3    H1 3381   1.161   2.180   4.114
 1125TIP3    H2 3382   1.249   2.067   4.163
 1126TIP3   OH2 3383   1.539   2.214   2.591
 1126TIP3    H1 3384   1.536   2.237   2.684
 1126TIP3    H2 3385   1.463   2.157   2.578
 1127TIP3   OH2 3386   5.034   5.156   4.320
 1127TIP3    H1 3387   5.081   5.120   4.245
 1127TIP3    H2 3388   5.011   5.080   4.373
 1128TIP3   OH2 3389   0.767   4.099   4.390
 1128TIP3    H1 3390   0.733   4.010   4.403
 1128TIP3    H2 3391   0.726   4.128   4.308
 1129TIP3   OH2 3392   0.032   1.172   0.894
 1129TIP3    H1 3393  -0.018   1.114   0.837
 1129TIP3    H2 3394   0.123   1.158   0.868
 1130TIP3   OH2 3395   0.475   2.900   4.108
 1130TIP3    H1 3396   0.535   2.970   4.133
 1130TIP3    H2 3397   0.464   2.848   4.187
 1131TIP3   OH2 3398   5.944   0.275   4.264
 1131TIP3    H1 3399   5.854   0.285   4.235
 1131TIP3    H2 3400   5.994   0.260   4.184
 1132TIP3   OH2 3401   3.532   0.446   1.473
 1132TIP3    H1 3402   3.439   0.427   1.466
 1132TIP3    H2 3403   3.564   0.441   1.383
 1133TIP3   OH2 3404   4.748   1.536   0.898
 1133TIP3    H1 3405   4.709   1.612   0.941
 1133TIP3    H2 3406   4.836   1.530   0.935
 1134TIP3   OH2 3407   1.918   1.699   1.564
 1134TIP3    H1 3408   1.984   1.639   1.600
 1134TIP3    H2 3409   1.965   1.782   1.553
 1135TIP3   OH2 3410   0.195   4.933   0.066
 1135TIP3    H1 3411   0.278   4.911   0.108
 1135TIP3    H2 3412   0.172   4.855   0.015
 1136TIP3   OH2 3413   3.267   1.144   2.338
 1136TIP3    H1 3414   3.205   1.100   2.396
 1136TIP3    H2 3415   3.352   1.106   2.360
 1137TIP3   OH2 3416   6.237   1.448   3.123
 1137TIP3    H1 3417   6.251   1.491   3.207
 1137TIP3    H2 3418   6.320   1.459   3.076
 1138TIP3   OH2 3419   2.093   3.188   2.873
 1138TIP3    H1 3420   2.125   3.172   2.962
 1138TIP3    H2 3421   2.009   3.141   2.869
 1139TIP3   OH2 3422   6.263   2.589   1.487
 1139TIP3    H1 3423   6.231   2.675   1.460
 1139TIP3    H2 3424   6.194   2.528   1.457
 1140TIP3   OH2 3425   0.421   2.765   4.775
 1140TIP3    H1 3426   0.358   2.698   4.803
 1140TIP3    H2 3427   0.482   2.718   4.718
 1141TIP3   OH2 3428   0.178   1.670   0.141
 1141TIP3    H1 3429   0.248   1.635   0.197
 1141TIP3    H2 3430   0.139   1.593   0.101
 1142TIP3   OH2 3431   4.152   5.106   3.340
 1142TIP3    H1 3432   4.082   5.076   3.281
 1142TIP3    H2 3433   4.213   5.032   3.343
 1143TIP3   OH2 3434   1.220   4.049   0.088
 1143TIP3    H1 3435   1.253   4.075   0.002
 1143TIP3    H2 3436   1.218   4.130   0.139
 1144TIP3   OH2 3437   6.363   5.856   3.012
 1144TIP3    H1 3438   6.352   5.780   3.069
 1144TIP3    H2 3439   6.274   5.893   3.004
 1145TIP3   OH2 3440   6.300   1.760   4.922
 1145TIP3    H1 3441   6.259   1.675   4.939
 1145TIP3    H2 3442   6.321   1.794   5.008
 1146TIP3   OH2 3443   1.574   2.776   2.312
 1146TIP3    H1 3444   1.644   2.840   2.296
 1146TIP3    H2 3445   1.575   2.763   2.407
 1147TIP3   OH2 3446   1.633   2.794   0.902
 1147TIP3    H1 3447   1.582   2.839   0.834
 1147TIP3    H2 3448   1.572   2.730   0.939
 1148TIP3   OH2 3449   1.136   1.709   3.841
 1148TIP3    H1 3450   1.135   1.785   3.899
 1148TIP3    H2 3451   1.228   1.686   3.832
 1149TIP3   OH2 3452   0.396   3.897   2.418
 1149TIP3    H1 3453   0.409   3.805   2.441
 1149TIP3    H2 3454   0.368   3.939   2.499
 1150TIP3   OH2 3455   3.123   4.487   5.091
 1150TIP3    H1 3456   3.168   4.417   5.138
 1150TIP3    H2 3457   3.101   4.449   5.006
 1151TIP3   OH2 3458   1.466   2.455   4.266
 1151TIP3    H1 3459   1.494   2.379   4.317
 1151TIP3    H2 3460   1.486   2.530   4.322
 1152TIP3   OH2 3461   0.303   1.413   1.888
 1152TIP3    H1 3462   0.336   1.502   1.891
 1152TIP3    H2 3463   0.209   1.423   1.871
 1153TIP3   OH2 3464   3.118   4.908   4.208
 1153TIP3    H1 3465   3.182   4.970   4.175
 1153TIP3    H2 3466   3.033   4.951   4.196
 1154TIP3   OH2 3467   2.202   5.119   0.401
 1154TIP3    H1 3468   2.173   5.168   0.324
 1154TIP3    H2 3469   2.291   5.093   0.381
 1155TIP3   OH2 3470   5.647   5.072   1.035
 1155TIP3    H1 3471   5.627   5.151   1.086
 1155TIP3    H2 3472   5.562   5.041   1.004
 1156TIP3   OH2 3473   3.382   4.148   3.980
 1156TIP3    H1 3474   3.353   4.188   3.897
 1156TIP3    H2 3475   3.395   4.222   4.039
 1157TIP3   OH2 3476   3.792   2.825   0.159
 1157TIP3    H1 3477   3.709   2.854   0.122
 1157TIP3    H2 3478   3.794   2.731   0.142
 1158TIP3   OH2 3479   1.587   2.710   2.579
 1158TIP3    H1 3480   1.597   2.621   2.545
 1158TIP3    H2 3481   1.588   2.700   2.674
 1159TIP3   OH2 3482   3.526   2.530   0.229
 1159TIP3    H1 3483   3.450   2.505   0.176
 1159TIP3    H2 3484   3.490   2.587   0.297
 1160TIP3   OH2 3485   1.096   1.775   4.722
 1160TIP3    H1 3486   1.166   1.821   4.769
 1160TIP3    H2 3487   1.143   1.717   4.661
 1161TIP3   OH2 3488   0.879   2.609   2.314
 1161TIP3    H1 3489   0.952   2.646   2.363
 1161TIP3    H2 3490   0.906   2.519   2.296
 1162TIP3   OH2 3491   1.045   4.157   2.162
 1162TIP3    H1 3492   1.084   4.124   2.081
 1162TIP3    H2 3493   1.041   4.080   2.219
 1163TIP3   OH2 3494   5.279   5.112   1.444
 1163TIP3    H1 3495   5.245   5.164   1.517
 1163TIP3    H2 3496   5.205   5.103   1.384
 1164TIP3   OH2 3497   0.741   1.245   2.462
 1164TIP3    H1 3498   0.782   1.188   2.396
 1164TIP3    H2 3499   0.809   1.310   2.482
 1165TIP3   OH2 3500   4.455   1.231   1.645
 1165TIP3    H1 3501   4.419   1.256   1.730
 1165TIP3    H2 3502   4.521   1.298   1.626
 1166TIP3   OH2 3503   0.394   5.774   1.386
 1166TIP3    H1 3504   0.420   5.866   1.388
 1166TIP3    H2 3505   0.422   5.742   1.300
 1167TIP3   OH2 3506   2.545   2.582   4.807
 1167TIP3    H1 3507   2.600   2.571   4.884
 1167TIP3    H2 3508   2.465   2.623   4.840
 1168TIP3   OH2 3509   5.296   5.069   0.720
 1168TIP3    H1 3510   5.308   5.046   0.812
 1168TIP3    H2 3511   5.365   5.021   0.675
 1169TIP3   OH2 3512   1.139   3.560   2.862
 1169TIP3    H1 3513   1.084   3.617   2.916
 1169TIP3    H2 3514   1.174   3.619   2.794
 1170TIP3   OH2 3515   6.120   2.889   0.835
 1170TIP3    H1 3516   6.141   2.979   0.811
 1170TIP3    H2 3517   6.153   2.836   0.763
 1171TIP3   OH2 3518   4.156   4.190   3.171
 1171TIP3    H1 3519   4.243   4.221   3.149
 1171TIP3    H2 3520   4.170   4.109   3.220
 1172TIP3   OH2 3521   5.652   0.976   3.402
 1172TIP3    H1 3522   5.701   0.932   3.471
 1172TIP3    H2 3523   5.708   0.971   3.325
 1173TIP3   OH2 3524   5.860   0.035   0.304
 1173TIP3    H1 3525   5.932   0.005   0.247
 1173TIP3    H2 3526   5.797   0.074   0.243
 1174TIP3   OH2 3527   2.510   2.643   2.795
 1174TIP3    H1 3528   2.588   2.639   2.850
 1174TIP3    H2 3529   2.542   2.630   2.706
 1175TIP3   OH2 3530   5.679   3.886   2.243
 1175TIP3    H1 3531   5.614   3.957   2.250
 1175TIP3    H2 3532   5.727   3.889   2.325
 1176TIP3   OH2 3533   1.791   3.396   4.892
 1176TIP3    H1 3534   1.866   3.339   4.873
 1176TIP3    H2 3535   1.797   3.414   4.985
 1177TIP3   OH2 3536   0.238   2.450   3.795
 1177TIP3    H1 3537   0.252   2.537   3.831
 1177TIP3    H2 3538   0.314   2.399   3.825
 1178TIP3   OH2 3539   0.398   1.737   1.986
 1178TIP3    H1 3540   0.388   1.827   2.017
 1178TIP3    H2 3541   0.352   1.685   2.052
 1179TIP3   OH2 3542   6.338   3.629   2.748
 1179TIP3    H1 3543   6.297   3.646   2.663
 1179TIP3    H2 3544   6.323   3.709   2.798
 1180TIP3   OH2 3545   3.619   0.734   4.529
 1180TIP3    H1 3546   3.574   0.818   4.532
 1180TIP3    H2 3547   3.712   0.756   4.524
 1181TIP3   OH2 3548   4.453   3.674   3.622
 1181TIP3    H1 3549   4.451   3.767   3.645
 1181TIP3    H2 3550   4.419   3.630   3.700
 1182TIP3   OH2 3551   5.530   2.529   4.475
 1182TIP3    H1 3552   5.575   2.444   4.482
 1182TIP3    H2 3553   5.489   2.527   4.389
 1183TIP3   OH2 3554   4.165   1.888   0.655
 1183TIP3    H1 3555   4.251   1.911   0.618
 1183TIP3    H2 3556   4.166   1.924   0.743
 1184TIP3   OH2 3557   2.821   2.662   4.951
 1184TIP3    H1 3558   2.885   2.696   5.013
 1184TIP3    H2 3559   2.737   2.664   4.998
 1185TIP3   OH2 3560   0.989   5.498   2.587
 1185TIP3    H1 3561   1.018   5.410   2.561
 1185TIP3    H2 3562   0.962   5.539   2.505
 1186TIP3   OH2 3563   1.397   2.182   1.548
 1186TIP3    H1 3564   1.454   2.138   1.611
 1186TIP3    H2 3565   1.348   2.112   1.506
 1187TIP3   OH2 3566   5.859   3.789   1.319
 1187TIP3    H1 3567   5.885   3.773   1.228
 1187TIP3    H2 3568   5.935   3.763   1.371
 1188TIP3   OH2 3569   6.042   2.137   1.449
 1188TIP3    H1 3570   6.048   2.232   1.448
 1188TIP3    H2 3571   6.114   2.109   1.507
 1189TIP3   OH2 3572   0.703   0.932   2.376
 1189TIP3    H1 3573   0.796   0.940   2.354
 1189TIP3    H2 3574   0.659   0.990   2.313
 1190TIP3   OH2 3575   4.405   5.649   0.908
 1190TIP3    H1 3576   4.416   5.559   0.939
 1190TIP3    H2 3577   4.321   5.649   0.861
 1191TIP3   OH2 3578   3.108   0.127   0.685
 1191TIP3    H1 3579   3.202   0.131   0.670
 1191TIP3    H2 3580   3.070   0.189   0.622
 1192TIP3   OH2 3581   5.289   4.807   1.201
 1192TIP3    H1 3582   5.310   4.714   1.214
 1192TIP3    H2 3583   5.358   4.854   1.247
 1193TIP3   OH2 3584   1.763   4.823   0.819
 1193TIP3    H1 3585   1.722   4.829   0.906
 1193TIP3    H2 3586   1.769   4.914   0.789
 1194TIP3   OH2 3587   3.213   4.065   0.075
 1194TIP3    H1 3588   3.146   3.996   0.084
 1194TIP3    H2 3589   3.236   4.088   0.165
 1195TIP3   OH2 3590   5.101   4.149   4.520
 1195TIP3    H1 3591   5.070   4.237   4.536
 1195TIP3    H2 3592   5.022   4.097   4.505
 1196TIP3   OH2 3593   5.202   0.600   1.765
 1196TIP3    H1 3594   5.184   0.694   1.770
 1196TIP3    H2 3595   5.209   0.583   1.671
 1197TIP3   OH2 3596   5.187   3.147   2.963
 1197TIP3    H1 3597   5.229   3.220   2.918
 1197TIP3    H2 3598   5.154   3.091   2.892
 1198TIP3   OH2 3599   4.370   4.993   1.505
 1198TIP3    H1 3600   4.402   4.957   1.587
 1198TIP3    H2 3601   4.293   5.044   1.530
 1199TIP3   OH2 3602   3.123   1.667   1.368
 1199TIP3    H1 3603   3.029   1.680   1.378
 1199TIP3    H2 3604   3.137   1.575   1.389
 1200TIP3   OH2 3605   1.089   5.617   1.983
 1200TIP3    H1 3606   1.048   5.531   1.991
 1200TIP3    H2 3607   1.021   5.679   2.011
 1201TIP3   OH2 3608   5.765   5.874   3.911
 1201TIP3    H1 3609   5.821   5.930   3.857
 1201TIP3    H2 3610   5.719   5.819   3.849
 1202TIP3   OH2 3611   5.865   1.030   1.638
 1202TIP3    H1 3612   5.958   1.052   1.646
 1202TIP3    H2 3613   5.819   1.101   1.683
 1203TIP3   OH2 3614   4.831   2.648   2.980
 1203TIP3    H1 3615   4.915   2.635   3.024
 1203TIP3    H2 3616   4.769   2.662   3.052
 1204TIP3   OH2 3617   0.557   4.179   3.603
 1204TIP3    H1 3618   0.501   4.253   3.581
 1204TIP3    H2 3619   0.540   4.164   3.696
 1205TIP3   OH2 3620   6.166   2.705   1.737
 1205TIP3    H1 3621   6.246   2.693   1.685
 1205TIP3    H2 3622   6.195   2.753   1.814
 1206TIP3   OH2 3623   5.833   2.028   2.309
 1206TIP3    H1 3624   5.776   2.032   2.386
 1206TIP3    H2 3625   5.871   2.115   2.303
 1207TIP3   OH2 3626   1.882   0.861   5.157
 1207TIP3    H1 3627   1.802   0.829   5.115
 1207TIP3    H2 3628   1.949   0.852   5.090
 1208TIP3   OH2 3629   5.945   2.842   1.225
 1208TIP3    H1 3630   6.037   2.815   1.220
 1208TIP3    H2 3631   5.913   2.838   1.135
 1209TIP3   OH2 3632   2.027   2.240   1.197
 1209TIP3    H1 3633   1.983   2.319   1.166
 1209TIP3    H2 3634   2.106   2.234   1.142
 1210TIP3   OH2 3635   5.721   2.604   1.970
 1210TIP3    H1 3636   5.679   2.684   2.000
 1210TIP3    H2 3637   5.750   2.623   1.881
 1211TIP3   OH2 3638   0.958   0.881   2.841
 1211TIP3    H1 3639   0.863   0.877   2.856
 1211TIP3    H2 3640   0.967   0.895   2.747
 1212TIP3   OH2 3641   2.367   1.825   4.827
 1212TIP3    H1 3642   2.332   1.742   4.859
 1212TIP3    H2 3643   2.289   1.881   4.817
 1213TIP3   OH2 3644   2.512   4.621   0.133
 1213TIP3    H1 3645   2.573   4.677   0.085
 1213TIP3    H2 3646   2.495   4.548   0.074
 1214TIP3   OH2 3647   6.242   2.734   3.456
 1214TIP3    H1 3648   6.216   2.662   3.399
 1214TIP3    H2 3649   6.175   2.801   3.442
 1215TIP3   OH2 3650   2.078   5.888   4.526
 1215TIP3    H1 3651   2.157   5.922   4.567
 1215TIP3    H2 3652   2.107   5.812   4.476
 1216TIP3   OH2 3653   6.023   2.294   2.156
 1216TIP3    H1 3654   6.034   2.289   2.251
 1216TIP3    H2 3655   5.951   2.356   2.143
 1217TIP3   OH2 3656   2.339   2.687   3.277
 1217TIP3    H1 3657   2.364   2.732   3.357
 1217TIP3    H2 3658   2.414   2.632   3.255
 1218TIP3   OH2 3659   3.748   2.530   3.500
 1218TIP3    H1 3660   3.723   2.620   3.482
 1218TIP3    H2 3661   3.757   2.527   3.595
 1219TIP3   OH2 3662   3.067   1.631   1.713
 1219TIP3    H1 3663   2.997   1.628   1.778
 1219TIP3    H2 3664   3.032   1.583   1.638
 1220TIP3   OH2 3665   3.249   4.691   0.641
 1220TIP3    H1 3666   3.281   4.748   0.570
 1220TIP3    H2 3667   3.154   4.690   0.628
 1221TIP3   OH2 3668   5.266   1.412   4.366
 1221TIP3    H1 3669   5.222   1.328   4.378
 1221TIP3    H2 3670   5.356   1.388   4.342
 1222TIP3   OH2 3671   4.601   0.913   4.634
 1222TIP3    H1 3672   4.691   0.884   4.648
 1222TIP3    H2 3673   4.607   1.009   4.635
 1223TIP3   OH2 3674   1.860   1.587   3.414
 1223TIP3    H1 3675   1.922   1.519   3.390
 1223TIP3    H2 3676   1.915   1.662   3.439
 1224TIP3   OH2 3677   1.566   2.988   4.447
 1224TIP3    H1 3678   1.611   2.973   4.530
 1224TIP3    H2 3679   1.474   2.971   4.466
 1225TIP3   OH2 3680   2.229   1.191   3.929
 1225TIP3    H1 3681   2.187   1.156   4.008
 1225TIP3    H2 3682   2.159   1.238   3.883
 1226TIP3   OH2 3683   5.062   1.499   2.214
 1226TIP3    H1 3684   5.047   1.460   2.300
 1226TIP3    H2 3685   5.152   1.534   2.219
 1227TIP3   OH2 3686   0.976   1.245   1.088
 1227TIP3    H1 3687   0.947   1.156   1.108
 1227TIP3    H2 3688   1.008   1.241   0.998
 1228TIP3   OH2 3689   4.178   3.377   3.042
 1228TIP3    H1 3690   4.205   3.342   2.957
 1228TIP3    H2 3691   4.146   3.302   3.090
 1229TIP3   OH2 3692   2.486   2.252   1.393
 1229TIP3    H1 3693   2.553   2.213   1.336
 1229TIP3    H2 3694   2.533   2.271   1.474
 1230TIP3   OH2 3695   4.230   5.756   4.833
 1230TIP3    H1 3696   4.262   5.730   4.746
 1230TIP3    H2 3697   4.152   5.809   4.814
 1231TIP3   OH2 3698   5.433   0.475   4.235
 1231TIP3    H1 3699   5.374   0.549   4.250
 1231TIP3    H2 3700   5.387   0.400   4.274
 1232TIP3   OH2 3701   2.351   3.834   0.894
 1232TIP3    H1 3702   2.322   3.845   0.984
 1232TIP3    H2 3703   2.422   3.770   0.899
 1233TIP3   OH2 3704   3.066   2.955   1.922
 1233TIP3    H1 3705   2.986   3.006   1.937
 1233TIP3    H2 3706   3.129   2.992   1.984
 1234TIP3   OH2 3707   4.050   4.617   3.578
 1234TIP3    H1 3708   4.078   4.562   3.505
 1234TIP3    H2 3709   4.130   4.663   3.605
 1235TIP3   OH2 3710   2.559   0.610   3.960
 1235TIP3    H1 3711   2.466   0.611   3.984
 1235TIP3    H2 3712   2.561   0.574   3.872
 1236TIP3   OH2 3713   3.096   2.449   1.461
 1236TIP3    H1 3714   3.028   2.456   1.528
 1236TIP3    H2 3715   3.177   2.435   1.511
 1237TIP3   OH2 3716   0.740   1.868   2.856
 1237TIP3    H1 3717   0.828   1.831   2.867
 1237TIP3    H2 3718   0.755   1.948   2.806
 1238TIP3   OH2 3719   5.742   0.068   4.257
 1238TIP3    H1 3720   5.675   0.075   4.324
 1238TIP3    H2 3721   5.821   0.041   4.304
 1239TIP3   OH2 3722   4.702   4.261   4.378
 1239TIP3    H1 3723   4.640   4.328   4.408
 1239TIP3    H2 3724   4.700   4.194   4.446
 1240TIP3   OH2 3725   2.263   3.943   1.973
 1240TIP3    H1 3726   2.252   4.004   2.046
 1240TIP3    H2 3727   2.244   3.995   1.895
 1241TIP3   OH2 3728   3.847   2.921   4.347
 1241TIP3    H1 3729   3.791   2.864   4.400
 1241TIP3    H2 3730   3.808   2.918   4.260
 1242TIP3   OH2 3731   0.990   4.730   0.903
 1242TIP3    H1 3732   0.972   4.651   0.954
 1242TIP3    H2 3733   0.941   4.799   0.948
 1243TIP3   OH2 3734   5.855   5.196   1.334
 1243TIP3    H1 3735   5.788   5.254   1.297
 1243TIP3    H2 3736   5.895   5.154   1.258
 1244TIP3   OH2 3737   6.315   0.598   3.057
 1244TIP3    H1 3738   6.367   0.519   3.068
 1244TIP3    H2 3739   6.302   0.606   2.963
 1245TIP3   OH2 3740   4.539   0.417   2.361
 1245TIP3    H1 3741   4.625   0.403   2.402
 1245TIP3    H2 3742   4.481   0.357   2.408
 1246TIP3   OH2 3743   5.518   1.791   3.150
 1246TIP3    H1 3744   5.429   1.799   3.117
 1246TIP3    H2 3745   5.520   1.705   3.193
 1247TIP3   OH2 3746   1.607   4.584   4.724
 1247TIP3    H1 3747   1.677   4.524   4.698
 1247TIP3    H2 3748   1.598   4.643   4.649
 1248TIP3   OH2 3749   0.353   3.454   1.746
 1248TIP3    H1 3750   0.408   3.532   1.743
 1248TIP3    H2 3751   0.323   3.441   1.656
 1249TIP3   OH2 3752   4.251   3.015   0.753
 1249TIP3    H1 3753   4.280   3.004   0.843
 1249TIP3    H2 3754   4.202   2.935   0.734
 1250TIP3   OH2 3755   5.113  -0.008   3.945
 1250TIP3    H1 3756   5.100   0.077   3.903
 1250TIP3    H2 3757   5.097   0.008   4.038
 1251TIP3   OH2 3758   2.581   2.899   4.770
 1251TIP3    H1 3759   2.625   2.933   4.848
 1251TIP3    H2 3760   2.511   2.844   4.804
 1252TIP3   OH2 3761   3.494   5.739   3.932
 1252TIP3    H1 3762   3.563   5.787   3.886
 1252TIP3    H2 3763   3.487   5.656   3.884
 1253TIP3   OH2 3764   4.463   5.893   1.010
 1253TIP3    H1 3765   4.525   5.887   1.082
 1253TIP3    H2 3766   4.471   5.809   0.964
 1254TIP3   OH2 3767   3.860   1.116   1.034
 1254TIP3    H1 3768   3.888   1.035   1.077
 1254TIP3    H2 3769   3.923   1.182   1.065
 1255TIP3   OH2 3770   1.292   4.039   1.173
 1255TIP3    H1 3771   1.332   4.115   1.130
 1255TIP3    H2 3772   1.236   4.000   1.105
 1256TIP3   OH2 3773   1.911   2.487   1.178
 1256TIP3    H1 3774   1.922   2.576   1.211
 1256TIP3    H2 3775   1.827   2.458   1.216
 1257TIP3   OH2 3776   0.333   2.470   4.642
 1257TIP3    H1 3777   0.301   2.444   4.728
 1257TIP3    H2 3778   0.428   2.465   4.649
 1258TIP3   OH2 3779   0.140   1.726   1.855
 1258TIP3    H1 3780   0.093   1.752   1.934
 1258TIP3    H2 3781   0.225   1.768   1.863
 1259TIP3   OH2 3782   5.950   3.997   0.949
 1259TIP3    H1 3783   5.942   4.085   0.984
 1259TIP3    H2 3784   5.876   3.988   0.889
 1260TIP3   OH2 3785   4.453   5.742   2.447
 1260TIP3    H1 3786   4.463   5.832   2.418
 1260TIP3    H2 3787   4.362   5.720   2.429
 1261TIP3   OH2 3788   0.447   2.055   0.473
 1261TIP3    H1 3789   0.398   2.074   0.393
 1261TIP3    H2 3790   0.536   2.084   0.454
 1262TIP3   OH2 3791   4.886   1.311   4.214
 1262TIP3    H1 3792   4.879   1.263   4.132
 1262TIP3    H2 3793   4.897   1.403   4.188
 1263TIP3   OH2 3794   3.750   2.237   2.940
 1263TIP3    H1 3795   3.667   2.278   2.917
 1263TIP3    H2 3796   3.778   2.283   3.019
 1264TIP3   OH2 3797   1.269   5.444   0.879
 1264TIP3    H1 3798   1.241   5.521   0.830
 1264TIP3    H2 3799   1.273   5.374   0.814
 1265TIP3   OH2 3800   3.152   4.133   1.260
 1265TIP3    H1 3801   3.159   4.040   1.241
 1265TIP3    H2 3802   3.228   4.152   1.316
 1266TIP3   OH2 3803   5.360   3.385   3.737
 1266TIP3    H1 3804   5.417   3.320   3.696
 1266TIP3    H2 3805   5.419   3.455   3.764
 1267TIP3   OH2 3806   4.645   5.310   0.451
 1267TIP3    H1 3807   4.721   5.358   0.483
 1267TIP3    H2 3808   4.672   5.278   0.365
 1268TIP3   OH2 3809   3.921   1.783   4.425
 1268TIP3    H1 3810   3.831   1.812   4.414
 1268TIP3    H2 3811   3.915   1.689   4.442
 1269TIP3   OH2 3812   2.882   3.940   2.491
 1269TIP3    H1 3813   2.916   3.913   2.576
 1269TIP3    H2 3814   2.921   4.026   2.474
 1270TIP3   OH2 3815   4.735   2.252   3.471
 1270TIP3    H1 3816   4.717   2.328   3.527
 1270TIP3    H2 3817   4.813   2.212   3.510
 1271TIP3   OH2 3818   2.962   2.792   1.446
 1271TIP3    H1 3819   3.015   2.819   1.521
 1271TIP3    H2 3820   2.924   2.708   1.472
 1272TIP3   OH2 3821   0.238   2.082   1.772
 1272TIP3    H1 3822   0.235   2.007   1.712
 1272TIP3    H2 3823   0.229   2.043   1.859
 1273TIP3   OH2 3824   3.888   3.488   5.134
 1273TIP3    H1 3825   3.794   3.502   5.124
 1273TIP3    H2 3826   3.919   3.464   5.047
 1274TIP3   OH2 3827   1.865   1.208   4.556
 1274TIP3    H1 3828   1.782   1.235   4.515
 1274TIP3    H2 3829   1.927   1.276   4.530
 1275TIP3   OH2 3830   0.838   5.699   0.179
 1275TIP3    H1 3831   0.791   5.774   0.143
 1275TIP3    H2 3832   0.874   5.731   0.261
 1276TIP3   OH2 3833   2.162   0.492   4.854
 1276TIP3    H1 3834   2.127   0.403   4.845
 1276TIP3    H2 3835   2.246   0.489   4.808
 1277TIP3   OH2 3836   2.094   0.173   4.070
 1277TIP3    H1 3837   2.031   0.217   4.013
 1277TIP3    H2 3838   2.179   0.202   4.039
 1278TIP3   OH2 3839   2.500   2.422   4.378
 1278TIP3    H1 3840   2.454   2.433   4.294
 1278TIP3    H2 3841   2.491   2.506   4.422
 1279TIP3   OH2 3842   4.482   2.946   3.382
 1279TIP3    H1 3843   4.570   2.966   3.412
 1279TIP3    H2 3844   4.472   2.852   3.399
 1280TIP3   OH2 3845   3.438   6.002   3.018
 1280TIP3    H1 3846   3.422   5.908   3.029
 1280TIP3    H2 3847   3.356   6.043   3.043
 1281TIP3   OH2 3848   2.202   5.490   3.043
 1281TIP3    H1 3849   2.155   5.539   2.975
 1281TIP3    H2 3850   2.288   5.472   3.003
 1282TIP3   OH2 3851   4.900   4.245   3.394
 1282TIP3    H1 3852   4.888   4.305   3.320
 1282TIP3    H2 3853   4.864   4.292   3.469
 1283TIP3   OH2 3854   2.141   4.762   3.447
 1283TIP3    H1 3855   2.188   4.840   3.418
 1283TIP3    H2 3856   2.175   4.744   3.534
 1284TIP3   OH2 3857   6.119   5.516   1.207
 1284TIP3    H1 3858   6.150   5.490   1.294
 1284TIP3    H2 3859   6.162   5.455   1.147
 1285TIP3   OH2 3860   3.410   0.697   1.640
 1285TIP3    H1 3861   3.462   0.633   1.591
 1285TIP3    H2 3862   3.465   0.775   1.643
 1286TIP3   OH2 3863   4.692   3.500   2.778
 1286TIP3    H1 3864   4.703   3.592   2.755
 1286TIP3    H2 3865   4.759   3.454   2.726
 1287TIP3   OH2 3866   0.113   1.413   3.479
 1287TIP3    H1 3867   0.059   1.366   3.543
 1287TIP3    H2 3868   0.050   1.460   3.424
 1288TIP3   OH2 3869   5.462   0.309   4.850
 1288TIP3    H1 3870   5.460   0.217   4.875
 1288TIP3    H2 3871   5.502   0.353   4.925
 1289TIP3   OH2 3872   0.589   2.318   1.577
 1289TIP3    H1 3873   0.498   2.295   1.598
 1289TIP3    H2 3874   0.602   2.404   1.616
 1290TIP3   OH2 3875   1.125   3.734   1.842
 1290TIP3    H1 3876   1.135   3.667   1.910
 1290TIP3    H2 3877   1.215   3.757   1.818
 1291TIP3   OH2 3878   1.007   4.425   4.018
 1291TIP3    H1 3879   0.950   4.425   4.095
 1291TIP3    H2 3880   0.970   4.491   3.960
 1292TIP3   OH2 3881   2.273   5.554   1.757
 1292TIP3    H1 3882   2.326   5.628   1.726
 1292TIP3    H2 3883   2.311   5.533   1.843
 1293TIP3   OH2 3884   4.663   5.018   2.413
 1293TIP3    H1 3885   4.653   5.100   2.462
 1293TIP3    H2 3886   4.723   4.966   2.466
 1294TIP3   OH2 3887   3.917   5.420   5.071
 1294TIP3    H1 3888   3.913   5.440   4.978
 1294TIP3    H2 3889   3.910   5.325   5.076
 1295TIP3   OH2 3890   1.396   3.519   4.670
 1295TIP3    H1 3891   1.430   3.595   4.718
 1295TIP3    H2 3892   1.372   3.553   4.584
 1296TIP3   OH2 3893   2.863   0.741   1.738
 1296TIP3    H1 3894   2.953   0.759   1.713
 1296TIP3    H2 3895   2.858   0.645   1.745
 1297TIP3   OH2 3896   4.748   3.767   3.619
 1297TIP3    H1 3897   4.812   3.752   3.550
 1297TIP3    H2 3898   4.664   3.745   3.579
 1298TIP3   OH2 3899   0.276   3.854   4.902
 1298TIP3    H1 3900   0.205   3.882   4.844
 1298TIP3    H2 3901   0.311   3.775   4.860
 1299TIP3   OH2 3902   5.431   3.883   2.453
 1299TIP3    H1 3903   5.439   3.973   2.420
 1299TIP3    H2 3904   5.450   3.890   2.547
 1300TIP3   OH2 3905   3.155   2.959   3.920
 1300TIP3    H1 3906   3.115   2.919   3.843
 1300TIP3    H2 3907   3.121   2.908   3.993
 1301TIP3   OH2 3908   2.917   2.772   0.543
 1301TIP3    H1 3909   2.877   2.751   0.627
 1301TIP3    H2 3910   3.003   2.730   0.545
 1302TIP3   OH2 3911   1.643   5.107   3.957
 1302TIP3    H1 3912   1.550   5.104   3.978
 1302TIP3    H2 3913   1.654   5.186   3.904
 1303TIP3   OH2 3914   6.074   2.395   1.407
 1303TIP3    H1 3915   6.075   2.425   1.317
 1303TIP3    H2 3916   5.991   2.427   1.442
 1304TIP3   OH2 3917   3.669   5.345   4.181
 1304TIP3    H1 3918   3.581   5.382   4.181
 1304TIP3    H2 3919   3.719   5.400   4.242
 1305TIP3   OH2 3920   4.356   0.037   4.724
 1305TIP3    H1 3921   4.342  -0.047   4.768
 1305TIP3    H2 3922   4.330   0.102   4.789
 1306TIP3   OH2 3923   2.091   2.837   0.370
 1306TIP3    H1 3924   2.069   2.760   0.319
 1306TIP3    H2 3925   2.007   2.880   0.387
 1307TIP3   OH2 3926   4.415   1.962   1.858
 1307TIP3    H1 3927   4.472   1.912   1.916
 1307TIP3    H2 3928   4.381   1.897   1.796
 1308TIP3   OH2 3929   4.789   1.074   0.206
 1308TIP3    H1 3930   4.861   1.011   0.214
 1308TIP3    H2 3931   4.801   1.114   0.120
 1309TIP3   OH2 3932   0.333   5.447   0.419
 1309TIP3    H1 3933   0.356   5.396   0.342
 1309TIP3    H2 3934   0.289   5.524   0.384
 1310TIP3   OH2 3935   3.248   3.426   1.959
 1310TIP3    H1 3936   3.173   3.480   1.984
 1310TIP3    H2 3937   3.222   3.388   1.875
 1311TIP3   OH2 3938   6.178   0.645   0.914
 1311TIP3    H1 3939   6.204   0.692   0.834
 1311TIP3    H2 3940   6.150   0.714   0.974
 1312TIP3   OH2 3941   4.841   0.365   0.242
 1312TIP3    H1 3942   4.896   0.368   0.164
 1312TIP3    H2 3943   4.836   0.457   0.270
 1313TIP3   OH2 3944   5.834   5.396   0.877
 1313TIP3    H1 3945   5.768   5.381   0.810
 1313TIP3    H2 3946   5.873   5.310   0.893
 1314TIP3   OH2 3947   0.865   2.925   2.530
 1314TIP3    H1 3948   0.811   3.003   2.521
 1314TIP3    H2 3949   0.818   2.858   2.479
 1315TIP3   OH2 3950   2.014   2.288   0.801
 1315TIP3    H1 3951   2.076   2.317   0.868
 1315TIP3    H2 3952   1.937   2.259   0.850
 1316TIP3   OH2 3953   2.875   0.351   4.366
 1316TIP3    H1 3954   2.930   0.358   4.289
 1316TIP3    H2 3955   2.800   0.298   4.338
 1317TIP3   OH2 3956   1.402   0.388   3.435
 1317TIP3    H1 3957   1.496   0.372   3.441
 1317TIP3    H2 3958   1.363   0.301   3.424
 1318TIP3   OH2 3959   2.205   5.820   1.643
 1318TIP3    H1 3960   2.268   5.890   1.659
 1318TIP3    H2 3961   2.235   5.779   1.562
 1319TIP3   OH2 3962   4.818   0.598   3.925
 1319TIP3    H1 3963   4.808   0.685   3.886
 1319TIP3    H2 3964   4.906   0.570   3.902
 1320TIP3   OH2 3965   5.548   0.569   4.598
 1320TIP3    H1 3966   5.600   0.491   4.581
 1320TIP3    H2 3967   5.577   0.632   4.531
 1321TIP3   OH2 3968   5.871   1.623   0.989
 1321TIP3    H1 3969   5.777   1.629   0.972
 1321TIP3    H2 3970   5.882   1.540   1.033
 1322TIP3   OH2 3971   0.189   1.126   3.479
 1322TIP3    H1 3972   0.254   1.168   3.422
 1322TIP3    H2 3973   0.110   1.122   3.425
 1323TIP3   OH2 3974   1.804   0.242   4.215
 1323TIP3    H1 3975   1.728   0.216   4.163
 1323TIP3    H2 3976   1.789   0.334   4.236
 1324TIP3   OH2 3977   1.754   0.090   3.702
 1324TIP3    H1 3978   1.773   0.104   3.610
 1324TIP3    H2 3979   1.787   0.002   3.720
 1325TIP3   OH2 3980   0.456   4.196   3.866
 1325TIP3    H1 3981   0.393   4.266   3.848
 1325TIP3    H2 3982   0.404   4.127   3.907
 1326TIP3   OH2 3983  -0.001   4.487   2.526
 1326TIP3    H1 3984   0.074   4.432   2.505
 1326TIP3    H2 3985  -0.040   4.447   2.603
 1327TIP3   OH2 3986   4.438   4.257   3.502
 1327TIP3    H1 3987   4.343   4.266   3.500
 1327TIP3    H2 3988   4.460   4.250   3.595
 1328TIP3   OH2 3989   5.856   2.662   3.524
 1328TIP3    H1 3990   5.943   2.633   3.551
 1328TIP3    H2 3991   5.869   2.695   3.435
 1329TIP3   OH2 3992   0.899   0.558   3.693
 1329TIP3    H1 3993   0.821   0.551   3.638
 1329TIP3    H2 3994   0.879   0.627   3.756
 1330TIP3   OH2 3995   3.490   5.619   0.587
 1330TIP3    H1 3996   3.403   5.659   0.594
 1330TIP3    H2 3997   3.539   5.676   0.529
 1331TIP3   OH2 3998   2.054   1.169   0.638
 1331TIP3    H1 3999   2.012   1.136   0.717
 1331TIP3    H2 4000   1.982   1.193   0.580
 1332TIP3   OH2 4001   2.025   1.540   3.730
 1332TIP3    H1 4002   1.945   1.591   3.719
 1332TIP3    H2 4003   1.995   1.451   3.743
 1333TIP3   OH2 4004   0.634   4.270   1.832
 1333TIP3    H1 4005   0.727   4.292   1.833
 1333TIP3    H2 4006   0.623   4.214   1.755
 1334TIP3   OH2 4007   0.162   1.719   4.176
 1334TIP3    H1 4008   0.157   1.635   4.130
 1334TIP3    H2 4009   0.250   1.752   4.156
 1335TIP3   OH2 4010   3.313   0.769   1.036
 1335TIP3    H1 4011   3.305   0.794   1.128
 1335TIP3    H2 4012   3.387   0.709   1.034
 1336TIP3   OH2 4013   4.837   4.737   1.177
 1336TIP3    H1 4014   4.918   4.743   1.128
 1336TIP3    H2 4015   4.855   4.673   1.246
 1337TIP3   OH2 4016   4.240   3.414   3.577
 1337TIP3    H1 4017   4.241   3.334   3.630
 1337TIP3    H2 4018   4.267   3.483   3.638
 1338TIP3   OH2 4019   4.362   1.001   3.629
 1338TIP3    H1 4020   4.281   0.971   3.671
 1338TIP3    H2 4021   4.388   0.927   3.573
 1339TIP3   OH2 4022   3.182   4.141   0.368
 1339TIP3    H1 4023   3.123   4.142   0.444
 1339TIP3    H2 4024   3.259   4.092   0.398
 1340TIP3   OH2 4025   4.283   3.203   4.390
 1340TIP3    H1 4026   4.195   3.233   4.412
 1340TIP3    H2 4027   4.296   3.126   4.445
 1341TIP3   OH2 4028   3.703   0.320   4.227
 1341TIP3    H1 4029   3.647   0.325   4.149
 1341TIP3    H2 4030   3.642   0.305   4.299
 1342TIP3   OH2 4031   0.963   4.695   5.031
 1342TIP3    H1 4032   1.030   4.678   5.097
 1342TIP3    H2 4033   0.888   4.642   5.058
 1343TIP3   OH2 4034   3.358   4.333   0.525
 1343TIP3    H1 4035   3.273   4.364   0.492
 1343TIP3    H2 4036   3.395   4.283   0.452
 1344TIP3   OH2 4037   5.653   3.703   0.640
 1344TIP3    H1 4038   5.615   3.756   0.570
 1344TIP3    H2 4039   5.580   3.685   0.699
 1345TIP3   OH2 4040   4.800   3.191   5.107
 1345TIP3    H1 4041   4.747   3.112   5.094
 1345TIP3    H2 4042   4.865   3.166   5.173
 1346TIP3   OH2 4043   1.441   0.311   1.436
 1346TIP3    H1 4044   1.466   0.363   1.512
 1346TIP3    H2 4045   1.347   0.294   1.448
 1347TIP3   OH2 4046   5.234   5.863   1.489
 1347TIP3    H1 4047   5.310   5.882   1.544
 1347TIP3    H2 4048   5.269   5.815   1.415
 1348TIP3   OH2 4049   5.455   4.704   0.787
 1348TIP3    H1 4050   5.391   4.704   0.858
 1348TIP3    H2 4051   5.442   4.621   0.742
 1349TIP3   OH2 4052   3.375   3.889   3.458
 1349TIP3    H1 4053   3.307   3.869   3.394
 1349TIP3    H2 4054   3.377   3.985   3.462
 1350TIP3   OH2 4055   1.561   0.107   1.282
 1350TIP3    H1 4056   1.511   0.184   1.310
 1350TIP3    H2 4057   1.551   0.045   1.355
 1351TIP3   OH2 4058   5.084   4.654   1.831
 1351TIP3    H1 4059   5.120   4.680   1.916
 1351TIP3    H2 4060   5.089   4.558   1.832
 1352TIP3   OH2 4061   3.029   3.608   4.355
 1352TIP3    H1 4062   3.042   3.514   4.367
 1352TIP3    H2 4063   2.976   3.615   4.275
 1353TIP3   OH2 4064   0.240   1.944   1.126
 1353TIP3    H1 4065   0.191   1.868   1.096
 1353TIP3    H2 4066   0.318   1.906   1.169
 1354TIP3   OH2 4067   1.209   3.294   4.335
 1354TIP3    H1 4068   1.234   3.308   4.426
 1354TIP3    H2 4069   1.143   3.225   4.338
 1355TIP3   OH2 4070   2.885   4.944   0.425
 1355TIP3    H1 4071   2.811   4.984   0.470
 1355TIP3    H2 4072   2.962   4.977   0.471
 1356TIP3   OH2 4073   0.945   5.048   4.769
 1356TIP3    H1 4074   0.978   5.092   4.691
 1356TIP3    H2 4075   0.861   5.091   4.788
 1357TIP3   OH2 4076   1.929   3.524   2.307
 1357TIP3    H1 4077   1.984   3.513   2.229
 1357TIP3    H2 4078   1.976   3.588   2.360
 1358TIP3   OH2 4079   0.872   1.585   3.376
 1358TIP3    H1 4080   0.958   1.593   3.417
 1358TIP3    H2 4081   0.866   1.494   3.350
 1359TIP3   OH2 4082   1.049   2.548   4.806
 1359TIP3    H1 4083   1.015   2.469   4.764
 1359TIP3    H2 4084   0.974   2.607   4.813
 1360TIP3   OH2 4085   1.654   2.472   5.086
 1360TIP3    H1 4086   1.595   2.518   5.144
 1360TIP3    H2 4087   1.708   2.540   5.047
 1361TIP3   OH2 4088   1.825   3.796   4.625
 1361TIP3    H1 4089   1.916   3.767   4.619
 1361TIP3    H2 4090   1.820   3.842   4.708
 1362TIP3   OH2 4091   1.642   2.028   1.382
 1362TIP3    H1 4092   1.675   1.993   1.464
 1362TIP3    H2 4093   1.547   2.017   1.388
 1363TIP3   OH2 4094   4.523   4.956   3.976
 1363TIP3    H1 4095   4.525   4.986   3.884
 1363TIP3    H2 4096   4.518   4.861   3.970
 1364TIP3   OH2 4097   4.401   3.394   1.268
 1364TIP3    H1 4098   4.442   3.432   1.346
 1364TIP3    H2 4099   4.334   3.458   1.243
 1365TIP3   OH2 4100   2.322   2.946   5.131
 1365TIP3    H1 4101   2.380   3.017   5.104
 1365TIP3    H2 4102   2.321   2.950   5.227
 1366TIP3   OH2 4103   5.608   5.152   0.666
 1366TIP3    H1 4104   5.570   5.064   0.664
 1366TIP3    H2 4105   5.588   5.185   0.754
 1367TIP3   OH2 4106   2.057   5.620   2.804
 1367TIP3    H1 4107   2.007   5.702   2.800
 1367TIP3    H2 4108   2.008   5.559   2.749
 1368TIP3   OH2 4109   3.089   4.134   1.683
 1368TIP3    H1 4110   3.016   4.073   1.682
 1368TIP3    H2 4111   3.052   4.217   1.651
 1369TIP3   OH2 4112   6.032   2.902   4.977
 1369TIP3    H1 4113   5.967   2.837   4.951
 1369TIP3    H2 4114   6.017   2.915   5.071
 1370TIP3   OH2 4115   6.218   3.193   4.027
 1370TIP3    H1 4116   6.208   3.152   3.941
 1370TIP3    H2 4117   6.306   3.230   4.026
 1371TIP3   OH2 4118   0.297   2.704   3.878
 1371TIP3    H1 4119   0.229   2.759   3.916
 1371TIP3    H2 4120   0.360   2.766   3.841
 1372TIP3   OH2 4121   0.999   2.816   3.511
 1372TIP3    H1 4122   1.075   2.803   3.567
 1372TIP3    H2 4123   0.992   2.734   3.462
 1373TIP3   OH2 4124   6.262   0.885   1.129
 1373TIP3    H1 4125   6.270   0.808   1.185
 1373TIP3    H2 4126   6.344   0.933   1.143
 1374TIP3   OH2 4127   4.256   0.375   1.675
 1374TIP3    H1 4128   4.322   0.349   1.740
 1374TIP3    H2 4129   4.245   0.298   1.619
 1375TIP3   OH2 4130   5.846   0.831   0.889
 1375TIP3    H1 4131   5.834   0.739   0.863
 1375TIP3    H2 4132   5.900   0.868   0.819
 1376TIP3   OH2 4133   0.557   2.602   1.584
 1376TIP3    H1 4134   0.622   2.635   1.523
 1376TIP3    H2 4135   0.477   2.649   1.562
 1377TIP3   OH2 4136   6.213   2.545   4.040
 1377TIP3    H1 4137   6.129   2.567   3.998
 1377TIP3    H2 4138   6.194   2.467   4.092
 1378TIP3   OH2 4139   4.904   4.554   5.162
 1378TIP3    H1 4140   4.970   4.509   5.110
 1378TIP3    H2 4141   4.920   4.647   5.146
 1379TIP3   OH2 4142   0.793   0.367   2.439
 1379TIP3    H1 4143   0.804   0.451   2.394
 1379TIP3    H2 4144   0.754   0.310   2.373
 1380TIP3   OH2 4145   0.893   6.013   2.217
 1380TIP3    H1 4146   0.948   5.948   2.173
 1380TIP3    H2 4147   0.848   5.964   2.287
 1381TIP3   OH2 4148   3.762   5.341   3.893
 1381TIP3    H1 4149   3.856   5.329   3.879
 1381TIP3    H2 4150   3.757   5.407   3.962
 1382TIP3   OH2 4151   3.755   6.013   1.367
 1382TIP3    H1 4152   3.827   6.016   1.304
 1382TIP3    H2 4153   3.790   5.966   1.442
 1383TIP3   OH2 4154   5.222   2.456   2.585
 1383TIP3    H1 4155   5.277   2.459   2.507
 1383TIP3    H2 4156   5.241   2.372   2.625
 1384TIP3   OH2 4157   5.170   4.961   2.336
 1384TIP3    H1 4158   5.251   4.997   2.373
 1384TIP3    H2 4159   5.108   5.034   2.341
 1385TIP3   OH2 4160   0.521   1.440   2.196
 1385TIP3    H1 4161   0.615   1.442   2.210
 1385TIP3    H2 4162   0.492   1.531   2.211
 1386TIP3   OH2 4163   0.492   3.546   3.290
 1386TIP3    H1 4164   0.501   3.590   3.375
 1386TIP3    H2 4165   0.402   3.513   3.290
 1387TIP3   OH2 4166   3.488   4.620   2.728
 1387TIP3    H1 4167   3.561   4.583   2.678
 1387TIP3    H2 4168   3.471   4.556   2.797
 1388TIP3   OH2 4169   2.234   0.440   2.392
 1388TIP3    H1 4170   2.140   0.448   2.377
 1388TIP3    H2 4171   2.265   0.387   2.318
 1389TIP3   OH2 4172   2.063   3.407   2.682
 1389TIP3    H1 4173   2.061   3.338   2.747
 1389TIP3    H2 4174   1.980   3.397   2.634
 1390TIP3   OH2 4175   0.991   5.813   0.754
 1390TIP3    H1 4176   0.992   5.757   0.677
 1390TIP3    H2 4177   1.005   5.901   0.720
 1391TIP3   OH2 4178   0.791   0.050   1.549
 1391TIP3    H1 4179   0.842  -0.018   1.504
 1391TIP3    H2 4180   0.738   0.002   1.613
 1392TIP3   OH2 4181   2.554   3.390   1.789
 1392TIP3    H1 4182   2.481   3.450   1.770
 1392TIP3    H2 4183   2.511   3.305   1.804
 1393TIP3   OH2 4184   1.735   4.911   4.326
 1393TIP3    H1 4185   1.688   4.986   4.291
 1393TIP3    H2 4186   1.827   4.936   4.321
 1394TIP3   OH2 4187   1.150   3.230   3.401
 1394TIP3    H1 4188   1.168   3.224   3.495
 1394TIP3    H2 4189   1.176   3.145   3.366
 1395TIP3   OH2 4190   2.064   1.512   4.122
 1395TIP3    H1 4191   2.119   1.581   4.084
 1395TIP3    H2 4192   1.984   1.557   4.149
 1396TIP3   OH2 4193   2.398   0.133   2.478
 1396TIP3    H1 4194   2.410   0.227   2.470
 1396TIP3    H2 4195   2.321   0.113   2.425
 1397TIP3   OH2 4196   2.170   3.099   2.538
 1397TIP3    H1 4197   2.185   3.017   2.585
 1397TIP3    H2 4198   2.160   3.165   2.606
 1398TIP3   OH2 4199   3.396   4.484   0.762
 1398TIP3    H1 4200   3.385   4.405   0.708
 1398TIP3    H2 4201   3.346   4.551   0.716
 1399TIP3   OH2 4202   1.202   1.869   0.688
 1399TIP3    H1 4203   1.289   1.903   0.709
 1399TIP3    H2 4204   1.142   1.940   0.710
 1400TIP3   OH2 4205   1.070   5.045   2.110
 1400TIP3    H1 4206   1.134   5.030   2.040
 1400TIP3    H2 4207   0.988   5.065   2.065
 1401TIP3   OH2 4208   5.623   1.117   1.979
 1401TIP3    H1 4209   5.663   1.176   1.915
 1401TIP3    H2 4210   5.585   1.176   2.044
 1402TIP3   OH2 4211   3.506   4.976   1.206
 1402TIP3    H1 4212   3.598   4.954   1.207
 1402TIP3    H2 4213   3.501   5.056   1.154
 1403TIP3   OH2 4214   4.574  -0.014   1.670
 1403TIP3    H1 4215   4.620   0.046   1.612
 1403TIP3    H2 4216   4.639  -0.038   1.736
 1404TIP3   OH2 4217   4.405   4.869   0.024
 1404TIP3    H1 4218   4.437   4.824  -0.055
 1404TIP3    H2 4219   4.438   4.815   0.096
 1405TIP3   OH2 4220   3.823   1.243   2.453
 1405TIP3    H1 4221   3.742   1.246   2.505
 1405TIP3    H2 4222   3.820   1.323   2.401
 1406TIP3   OH2 4223   0.755   1.179   1.631
 1406TIP3    H1 4224   0.760   1.180   1.536
 1406TIP3    H2 4225   0.799   1.097   1.656
 1407TIP3   OH2 4226   3.475   0.700   3.530
 1407TIP3    H1 4227   3.545   0.739   3.478
 1407TIP3    H2 4228   3.409   0.770   3.538
 1408TIP3   OH2 4229   3.906   2.114   0.974
 1408TIP3    H1 4230   3.912   2.205   1.004
 1408TIP3    H2 4231   3.819   2.108   0.934
 1409TIP3   OH2 4232   0.347   5.428   1.292
 1409TIP3    H1 4233   0.278   5.474   1.243
 1409TIP3    H2 4234   0.428   5.452   1.246
 1410TIP3   OH2 4235   2.575   4.988   4.566
 1410TIP3    H1 4236   2.519   4.962   4.493
 1410TIP3    H2 4237   2.563   5.083   4.572
 1411TIP3   OH2 4238  -0.003   5.168   2.292
 1411TIP3    H1 4239   0.045   5.251   2.295
 1411TIP3    H2 4240  -0.041   5.167   2.204
 1412TIP3   OH2 4241   4.183   0.834   2.469
 1412TIP3    H1 4242   4.102   0.784   2.456
 1412TIP3    H2 4243   4.252   0.776   2.439
 1413TIP3   OH2 4244   5.917   1.828   4.873
 1413TIP3    H1 4245   5.845   1.889   4.890
 1413TIP3    H2 4246   5.968   1.829   4.953
 1414TIP3   OH2 4247   2.877   4.139   0.120
 1414TIP3    H1 4248   2.960   4.185   0.135
 1414TIP3    H2 4249   2.810   4.205   0.141
 1415TIP3   OH2 4250   0.796   3.941   3.729
 1415TIP3    H1 4251   0.747   3.934   3.810
 1415TIP3    H2 4252   0.821   4.034   3.724
 1416TIP3   OH2 4253   5.577   1.500   2.270
 1416TIP3    H1 4254   5.554   1.549   2.191
 1416TIP3    H2 4255   5.509   1.523   2.334
 1417TIP3   OH2 4256   1.000   0.105   3.212
 1417TIP3    H1 4257   1.010   0.010   3.202
 1417TIP3    H2 4258   0.957   0.133   3.131
 1418TIP3   OH2 4259   3.531   0.610   0.099
 1418TIP3    H1 4260   3.457   0.564   0.059
 1418TIP3    H2 4261   3.597   0.614   0.031
 1419TIP3   OH2 4262   4.926   1.903   4.845
 1419TIP3    H1 4263   4.875   1.984   4.843
 1419TIP3    H2 4264   4.938   1.885   4.939
 1420TIP3   OH2 4265   3.531   5.565   2.144
 1420TIP3    H1 4266   3.473   5.580   2.070
 1420TIP3    H2 4267   3.612   5.611   2.120
 1421TIP3   OH2 4268   6.370   4.218   1.175
 1421TIP3    H1 4269   6.356   4.183   1.263
 1421TIP3    H2 4270   6.282   4.230   1.139
 1422TIP3   OH2 4271   4.934   4.384   4.307
 1422TIP3    H1 4272   4.989   4.379   4.384
 1422TIP3    H2 4273   4.856   4.332   4.330
 1423TIP3   OH2 4274   2.456   5.734   2.715
 1423TIP3    H1 4275   2.487   5.750   2.626
 1423TIP3    H2 4276   2.416   5.647   2.712
 1424TIP3   OH2 4277   4.433   0.174   1.311
 1424TIP3    H1 4278   4.443   0.126   1.229
 1424TIP3    H2 4279   4.511   0.152   1.361
 1425TIP3   OH2 4280   4.054   2.392   3.889
 1425TIP3    H1 4281   4.127   2.430   3.840
 1425TIP3    H2 4282   4.009   2.335   3.826
 1426TIP3   OH2 4283   4.282   5.521   1.570
 1426TIP3    H1 4284   4.357   5.559   1.526
 1426TIP3    H2 4285   4.207   5.549   1.518
 1427TIP3   OH2 4286   0.318   5.557   4.821
 1427TIP3    H1 4287   0.329   5.467   4.791
 1427TIP3    H2 4288   0.250   5.551   4.888
 1428TIP3   OH2 4289   4.270   5.781   1.305
 1428TIP3    H1 4290   4.345   5.729   1.335
 1428TIP3    H2 4291   4.247   5.744   1.220
 1429TIP3   OH2 4292   4.056   1.001   4.120
 1429TIP3    H1 4293   4.143   1.041   4.110
 1429TIP3    H2 4294   4.001   1.047   4.057
 1430TIP3   OH2 4295   4.970   2.902   3.945
 1430TIP3    H1 4296   4.945   2.845   4.018
 1430TIP3    H2 4297   5.065   2.908   3.950
 1431TIP3   OH2 4298   0.056   0.538   3.868
 1431TIP3    H1 4299   0.001   0.605   3.908
 1431TIP3    H2 4300   0.023   0.456   3.904
 1432TIP3   OH2 4301   1.741   0.454   4.798
 1432TIP3    H1 4302   1.653   0.435   4.832
 1432TIP3    H2 4303   1.788   0.491   4.872
 1433TIP3   OH2 4304   1.811   5.330   1.971
 1433TIP3    H1 4305   1.728   5.376   1.984
 1433TIP3    H2 4306   1.869   5.366   2.039
 1434TIP3   OH2 4307   6.120   1.089   1.571
 1434TIP3    H1 4308   6.084   1.069   1.485
 1434TIP3    H2 4309   6.139   1.183   1.567
 1435TIP3   OH2 4310   0.549   4.627   2.575
 1435TIP3    H1 4311   0.479   4.690   2.557
 1435TIP3    H2 4312   0.629   4.676   2.559
 1436TIP3   OH2 4313   3.561   4.632   3.907
 1436TIP3    H1 4314   3.611   4.626   3.826
 1436TIP3    H2 4315   3.554   4.726   3.924
 1437TIP3   OH2 4316   5.979   1.071   4.923
 1437TIP3    H1 4317   6.003   0.992   4.874
 1437TIP3    H2 4318   5.943   1.038   5.006
 1438TIP3   OH2 4319   0.128   4.628   1.488
 1438TIP3    H1 4320   0.194   4.562   1.506
 1438TIP3    H2 4321   0.166   4.710   1.518
 1439TIP3   OH2 4322   4.882   2.506   2.487
 1439TIP3    H1 4323   4.895   2.575   2.552
 1439TIP3    H2 4324   4.926   2.538   2.408
 1440TIP3   OH2 4325   2.849   2.717   3.848
 1440TIP3    H1 4326   2.905   2.649   3.886
 1440TIP3    H2 4327   2.901   2.752   3.776
 1441TIP3   OH2 4328   2.444   4.773   3.835
 1441TIP3    H1 4329   2.359   4.781   3.792
 1441TIP3    H2 4330   2.462   4.679   3.835
 1442TIP3   OH2 4331   5.194   5.402   3.889
 1442TIP3    H1 4332   5.110   5.393   3.935
 1442TIP3    H2 4333   5.185   5.345   3.812
 1443TIP3   OH2 4334   3.839   5.978   0.811
 1443TIP3    H1 4335   3.922   6.014   0.842
 1443TIP3    H2 4336   3.786   5.972   0.891
 1444TIP3   OH2 4337   1.222   1.137   1.494
 1444TIP3    H1 4338   1.145   1.113   1.443
 1444TIP3    H2 4339   1.285   1.066   1.478
 1445TIP3   OH2 4340   6.165   0.269   1.754
 1445TIP3    H1 4341   6.198   0.319   1.829
 1445TIP3    H2 4342   6.178   0.178   1.778
 1446TIP3   OH2 4343   5.660   1.692   0.509
 1446TIP3    H1 4344   5.638   1.745   0.432
 1446TIP3    H2 4345   5.624   1.605   0.488
 1447TIP3   OH2 4346   4.008   5.241   3.788
 1447TIP3    H1 4347   4.057   5.309   3.834
 1447TIP3    H2 4348   4.074   5.176   3.763
 1448TIP3   OH2 4349   4.546   3.931   2.393
 1448TIP3    H1 4350   4.578   3.990   2.461
 1448TIP3    H2 4351   4.543   3.845   2.435
 1449TIP3   OH2 4352   5.209   1.173   3.808
 1449TIP3    H1 4353   5.205   1.206   3.898
 1449TIP3    H2 4354   5.215   1.078   3.817
 1450TIP3   OH2 4355   5.230   1.317   3.352
 1450TIP3    H1 4356   5.175   1.310   3.429
 1450TIP3    H2 4357   5.306   1.261   3.371
 1451TIP3   OH2 4358   2.095   2.024   0.755
 1451TIP3    H1 4359   2.184   2.037   0.787
 1451TIP3    H2 4360   2.052   2.108   0.769
 1452TIP3   OH2 4361   3.915   1.101   5.003
 1452TIP3    H1 4362   3.938   1.179   4.952
 1452TIP3    H2 4363   3.984   1.038   4.981
 1453TIP3   OH2 4364   1.356   3.774   4.943
 1453TIP3    H1 4365   1.418   3.701   4.943
 1453TIP3    H2 4366   1.361   3.810   4.855
 1454TIP3   OH2 4367   1.520   0.926   3.996
 1454TIP3    H1 4368   1.487   1.008   3.960
 1454TIP3    H2 4369   1.526   0.941   4.090
 1455TIP3   OH2 4370   0.385   3.168   4.264
 1455TIP3    H1 4371   0.342   3.252   4.249
 1455TIP3    H2 4372   0.328   3.104   4.221
 1456TIP3   OH2 4373   0.307   4.518   0.021
 1456TIP3    H1 4374   0.285   4.430  -0.010
 1456TIP3    H2 4375   0.233   4.572  -0.006
 1457TIP3   OH2 4376   2.717   3.066   2.647
 1457TIP3    H1 4377   2.779   3.124   2.603
 1457TIP3    H2 4378   2.653   3.124   2.687
 1458TIP3   OH2 4379   6.062   4.738   0.455
 1458TIP3    H1 4380   6.052   4.833   0.467
 1458TIP3    H2 4381   6.116   4.729   0.377
 1459TIP3   OH2 4382   5.525   2.383   1.414
 1459TIP3    H1 4383   5.486   2.470   1.411
 1459TIP3    H2 4384   5.554   2.373   1.505
 1460TIP3   OH2 4385   0.878   2.605   5.164
 1460TIP3    H1 4386   0.852   2.667   5.232
 1460TIP3    H2 4387   0.817   2.533   5.173
 1461TIP3   OH2 4388   4.033   3.340   4.575
 1461TIP3    H1 4389   4.039   3.261   4.629
 1461TIP3    H2 4390   3.944   3.338   4.541
 1462TIP3   OH2 4391   4.580   3.500   2.213
 1462TIP3    H1 4392   4.528   3.497   2.133
 1462TIP3    H2 4393   4.587   3.409   2.241
 1463TIP3   OH2 4394   4.389   1.696   0.098
 1463TIP3    H1 4395   4.467   1.752   0.092
 1463TIP3    H2 4396   4.398   1.652   0.183
 1464TIP3   OH2 4397   3.072   5.987   4.929
 1464TIP3    H1 4398   3.166   6.007   4.930
 1464TIP3    H2 4399   3.066   5.902   4.885
 1465TIP3   OH2 4400   5.439   0.779   0.203
 1465TIP3    H1 4401   5.385   0.752   0.128
 1465TIP3    H2 4402   5.421   0.873   0.212
 1466TIP3   OH2 4403   5.277   4.692   5.078
 1466TIP3    H1 4404   5.197   4.645   5.056
 1466TIP3    H2 4405   5.262   4.726   5.166
 1467TIP3   OH2 4406   0.202   3.364   1.108
 1467TIP3    H1 4407   0.237   3.446   1.143
 1467TIP3    H2 4408   0.203   3.376   1.013
 1468TIP3   OH2 4409   0.204   2.654   0.720
 1468TIP3    H1 4410   0.179   2.620   0.806
 1468TIP3    H2 4411   0.167   2.742   0.718
 1469TIP3   OH2 4412   3.289   0.345   2.494
 1469TIP3    H1 4413   3.207   0.356   2.541
 1469TIP3    H2 4414   3.264   0.306   2.410
 1470TIP3   OH2 4415   1.776   3.262   1.676
 1470TIP3    H1 4416   1.832   3.254   1.754
 1470TIP3    H2 4417   1.741   3.351   1.680
 1471TIP3   OH2 4418   5.161   2.189   2.925
 1471TIP3    H1 4419   5.066   2.187   2.920
 1471TIP3    H2 4420   5.186   2.098   2.943
 1472TIP3   OH2 4421   0.950   1.680   3.067
 1472TIP3    H1 4422   0.985   1.685   2.978
 1472TIP3    H2 4423   0.873   1.624   3.059
 1473TIP3   OH2 4424   4.429   3.579   2.857
 1473TIP3    H1 4425   4.366   3.521   2.900
 1473TIP3    H2 4426   4.496   3.519   2.823
 1474TIP3   OH2 4427   1.548   2.922   0.109
 1474TIP3    H1 4428   1.477   2.980   0.084
 1474TIP3    H2 4429   1.584   2.962   0.189
 1475TIP3   OH2 4430   5.397   3.298   0.692
 1475TIP3    H1 4431   5.433   3.230   0.749
 1475TIP3    H2 4432   5.302   3.295   0.708
 1476TIP3   OH2 4433   6.010   5.820   2.604
 1476TIP3    H1 4434   6.040   5.746   2.657
 1476TIP3    H2 4435   6.082   5.837   2.544
 1477TIP3   OH2 4436   2.221   3.675   2.527
 1477TIP3    H1 4437   2.132   3.640   2.531
 1477TIP3    H2 4438   2.211   3.768   2.547
 1478TIP3   OH2 4439   4.046   4.267   3.874
 1478TIP3    H1 4440   3.954   4.294   3.879
 1478TIP3    H2 4441   4.043   4.181   3.831
 1479TIP3   OH2 4442   4.412   1.973   2.801
 1479TIP3    H1 4443   4.435   2.065   2.813
 1479TIP3    H2 4444   4.483   1.924   2.843
 1480TIP3   OH2 4445   2.662   2.178   1.227
 1480TIP3    H1 4446   2.719   2.101   1.232
 1480TIP3    H2 4447   2.644   2.189   1.134
 1481TIP3   OH2 4448   3.855   5.940   2.957
 1481TIP3    H1 4449   3.832   5.847   2.966
 1481TIP3    H2 4450   3.791   5.975   2.895
 1482TIP3   OH2 4451   2.705   0.568   3.349
 1482TIP3    H1 4452   2.711   0.578   3.254
 1482TIP3    H2 4453   2.790   0.532   3.375
 1483TIP3   OH2 4454   5.232   2.834   4.381
 1483TIP3    H1 4455   5.247   2.926   4.404
 1483TIP3    H2 4456   5.148   2.813   4.420
 1484TIP3   OH2 4457   5.363   4.972   1.730
 1484TIP3    H1 4458   5.375   5.014   1.645
 1484TIP3    H2 4459   5.450   4.940   1.753
 1485TIP3   OH2 4460   3.357   4.492   1.629
 1485TIP3    H1 4461   3.417   4.465   1.560
 1485TIP3    H2 4462   3.403   4.563   1.675
 1486TIP3   OH2 4463   1.953   1.399   0.865
 1486TIP3    H1 4464   1.882   1.419   0.804
 1486TIP3    H2 4465   1.916   1.332   0.922
 1487TIP3   OH2 4466   4.047   2.986   1.323
 1487TIP3    H1 4467   3.962   2.975   1.367
 1487TIP3    H2 4468   4.025   2.987   1.230
 1488TIP3   OH2 4469   4.903   5.689   3.931
 1488TIP3    H1 4470   4.880   5.739   3.853
 1488TIP3    H2 4471   4.977   5.736   3.969
 1489TIP3   OH2 4472   4.886   4.353   1.302
 1489TIP3    H1 4473   4.973   4.315   1.294
 1489TIP3    H2 4474   4.901   4.447   1.309
 1490TIP3   OH2 4475   0.207   0.043   4.627
 1490TIP3    H1 4476   0.241  -0.035   4.672
 1490TIP3    H2 4477   0.213   0.113   4.692
 1491TIP3   OH2 4478   4.684   2.713   3.204
 1491TIP3    H1 4479   4.591   2.735   3.214
 1491TIP3    H2 4480   4.689   2.620   3.228
 1492TIP3   OH2 4481   1.455   1.121   0.427
 1492TIP3    H1 4482   1.542   1.150   0.452
 1492TIP3    H2 4483   1.455   1.027   0.445
 1493TIP3   OH2 4484   0.320   3.981   2.672
 1493TIP3    H1 4485   0.295   3.909   2.730
 1493TIP3    H2 4486   0.249   4.044   2.680
 1494TIP3   OH2 4487   3.931   0.748   1.742
 1494TIP3    H1 4488   3.960   0.667   1.783
 1494TIP3    H2 4489   3.914   0.808   1.815
 1495TIP3   OH2 4490   2.051   4.787   1.074
 1495TIP3    H1 4491   1.994   4.859   1.101
 1495TIP3    H2 4492   1.992   4.712   1.063
 1496TIP3   OH2 4493   2.273   0.703   3.495
 1496TIP3    H1 4494   2.334   0.645   3.449
 1496TIP3    H2 4495   2.193   0.652   3.503
 1497TIP3   OH2 4496   0.857   2.961   4.225
 1497TIP3    H1 4497   0.776   3.010   4.215
 1497TIP3    H2 4498   0.898   2.963   4.139
 1498TIP3   OH2 4499   1.273   1.291   1.926
 1498TIP3    H1 4500   1.316   1.249   2.000
 1498TIP3    H2 4501   1.343   1.333   1.877
 1499TIP3   OH2 4502   3.106   2.689   1.919
 1499TIP3    H1 4503   3.104   2.675   1.824
 1499TIP3    H2 4504   3.093   2.783   1.930
 1500TIP3   OH2 4505   6.170   2.358   4.785
 1500TIP3    H1 4506   6.196   2.366   4.694
 1500TIP3    H2 4507   6.134   2.270   4.793
 1501TIP3   OH2 4508   3.747   0.385   0.138
 1501TIP3    H1 4509   3.675   0.322   0.131
 1501TIP3    H2 4510   3.773   0.401   0.047
 1502TIP3   OH2 4511   2.669   0.327   5.140
 1502TIP3    H1 4512   2.657   0.422   5.136
 1502TIP3    H2 4513   2.600   0.292   5.084
 1503TIP3   OH2 4514   3.633   2.545   4.352
 1503TIP3    H1 4515   3.609   2.638   4.348
 1503TIP3    H2 4516   3.577   2.510   4.422
 1504TIP3   OH2 4517   2.944   0.515   3.467
 1504TIP3    H1 4518   2.975   0.452   3.402
 1504TIP3    H2 4519   2.965   0.475   3.551
 1505TIP3   OH2 4520   1.386   1.493   3.024
 1505TIP3    H1 4521   1.398   1.587   3.038
 1505TIP3    H2 4522   1.327   1.488   2.949
 1506TIP3   OH2 4523   4.515   2.204   3.811
 1506TIP3    H1 4524   4.428   2.165   3.822
 1506TIP3    H2 4525   4.539   2.183   3.720
 1507TIP3   OH2 4526   4.545   2.737   1.542
 1507TIP3    H1 4527   4.541   2.774   1.631
 1507TIP3    H2 4528   4.453   2.734   1.514
 1508TIP3   OH2 4529   0.252   2.767   2.852
 1508TIP3    H1 4530   0.246   2.773   2.948
 1508TIP3    H2 4531   0.339   2.729   2.837
 1509TIP3   OH2 4532   6.257   3.880   2.894
 1509TIP3    H1 4533   6.259   3.930   2.812
 1509TIP3    H2 4534   6.330   3.915   2.945
 1510TIP3   OH2 4535   2.640   5.281   0.716
 1510TIP3    H1 4536   2.669   5.371   0.733
 1510TIP3    H2 4537   2.562   5.270   0.772
 1511TIP3   OH2 4538   1.757   4.566   2.023
 1511TIP3    H1 4539   1.800   4.581   1.939
 1511TIP3    H2 4540   1.731   4.474   2.021
 1512TIP3   OH2 4541   1.187   5.285   1.517
 1512TIP3    H1 4542   1.236   5.248   1.443
 1512TIP3    H2 4543   1.104   5.313   1.479
 1513TIP3   OH2 4544   3.632   0.172   2.675
 1513TIP3    H1 4545   3.599   0.261   2.690
 1513TIP3    H2 4546   3.579   0.117   2.733
 1514TIP3   OH2 4547   3.008   0.099   4.498
 1514TIP3    H1 4548   2.922   0.135   4.521
 1514TIP3    H2 4549   3.054   0.092   4.581
 1515TIP3   OH2 4550   6.150   0.373   4.704
 1515TIP3    H1 4551   6.200   0.398   4.781
 1515TIP3    H2 4552   6.071   0.333   4.739
 1516TIP3   OH2 4553   4.512   1.745   4.079
 1516TIP3    H1 4554   4.564   1.806   4.026
 1516TIP3    H2 4555   4.429   1.791   4.092
 1517TIP3   OH2 4556   2.324   3.935   3.970
 1517TIP3    H1 4557   2.271   3.922   4.049
 1517TIP3    H2 4558   2.279   3.883   3.903
 1518TIP3   OH2 4559   4.817   5.977   2.843
 1518TIP3    H1 4560   4.885   6.024   2.795
 1518TIP3    H2 4561   4.865   5.930   2.912
 1519TIP3   OH2 4562   4.899   3.821   0.845
 1519TIP3    H1 4563   4.886   3.756   0.776
 1519TIP3    H2 4564   4.812   3.830   0.885
 1520TIP3   OH2 4565   3.649   2.448   0.890
 1520TIP3    H1 4566   3.645   2.368   0.837
 1520TIP3    H2 4567   3.741   2.471   0.893
 1521TIP3   OH2 4568   4.189   2.482   0.732
 1521TIP3    H1 4569   4.279   2.453   0.746
 1521TIP3    H2 4570   4.157   2.427   0.661
 1522TIP3   OH2 4571   3.831   0.715   3.698
 1522TIP3    H1 4572   3.803   0.802   3.671
 1522TIP3    H2 4573   3.794   0.656   3.633
 1523TIP3   OH2 4574   0.791   4.421   2.209
 1523TIP3    H1 4575   0.759   4.365   2.280
 1523TIP3    H2 4576   0.868   4.464   2.246
 1524TIP3   OH2 4577   4.385   0.067   1.981
 1524TIP3    H1 4578   4.342   0.146   1.946
 1524TIP3    H2 4579   4.357  -0.003   1.922
 1525TIP3   OH2 4580   5.152   0.129   4.661
 1525TIP3    H1 4581   5.092   0.115   4.734
 1525TIP3    H2 4582   5.215   0.057   4.667
 1526TIP3   OH2 4583   5.946   0.479   0.272
 1526TIP3    H1 4584   6.032   0.486   0.231
 1526TIP3    H2 4585   5.955   0.406   0.333
 1527TIP3   OH2 4586   5.970   4.488   3.481
 1527TIP3    H1 4587   6.006   4.413   3.530
 1527TIP3    H2 4588   5.876   4.483   3.496
 1528TIP3   OH2 4589   1.455   2.287   5.079
 1528TIP3    H1 4590   1.529   2.347   5.088
 1528TIP3    H2 4591   1.394   2.333   5.022
 1529TIP3   OH2 4592   5.184   2.519   0.524
 1529TIP3    H1 4593   5.187   2.517   0.428
 1529TIP3    H2 4594   5.252   2.581   0.548
 1530TIP3   OH2 4595   5.159   2.383   4.320
 1530TIP3    H1 4596   5.123   2.341   4.243
 1530TIP3    H2 4597   5.223   2.446   4.286
 1531TIP3   OH2 4598   5.820   2.081  -0.023
 1531TIP3    H1 4599   5.871   2.066   0.057
 1531TIP3    H2 4600   5.755   2.148   0.002
 1532TIP3   OH2 4601   1.953   2.957   1.991
 1532TIP3    H1 4602   2.036   2.910   1.989
 1532TIP3    H2 4603   1.886   2.888   1.985
 1533TIP3   OH2 4604   0.648   1.826   0.255
 1533TIP3    H1 4605   0.644   1.781   0.171
 1533TIP3    H2 4606   0.741   1.821   0.280
 1534TIP3   OH2 4607   5.361   1.916   4.190
 1534TIP3    H1 4608   5.388   1.824   4.187
 1534TIP3    H2 4609   5.412   1.958   4.121
 1535TIP3   OH2 4610   1.133   4.010   1.952
 1535TIP3    H1 4611   1.095   4.028   1.866
 1535TIP3    H2 4612   1.197   3.941   1.936
 1536TIP3   OH2 4613   4.721   3.670   0.662
 1536TIP3    H1 4614   4.775   3.605   0.617
 1536TIP3    H2 4615   4.708   3.739   0.596
 1537TIP3   OH2 4616   5.290   1.895   1.119
 1537TIP3    H1 4617   5.298   1.913   1.213
 1537TIP3    H2 4618   5.241   1.969   1.084
 1538TIP3   OH2 4619   5.550   5.388   3.671
 1538TIP3    H1 4620   5.596   5.408   3.753
 1538TIP3    H2 4621   5.590   5.307   3.641
 1539TIP3   OH2 4622   3.276   3.319   4.684
 1539TIP3    H1 4623   3.256   3.226   4.692
 1539TIP3    H2 4624   3.362   3.329   4.726
 1540TIP3   OH2 4625   0.808   1.600   3.894
 1540TIP3    H1 4626   0.891   1.573   3.933
 1540TIP3    H2 4627   0.809   1.695   3.898
 1541TIP3   OH2 4628   5.980   4.281   2.846
 1541TIP3    H1 4629   5.886   4.297   2.852
 1541TIP3    H2 4630   6.004   4.250   2.933
 1542TIP3   OH2 4631   4.341   5.132   1.040
 1542TIP3    H1 4632   4.393   5.119   1.119
 1542TIP3    H2 4633   4.377   5.070   0.977
 1543TIP3   OH2 4634   4.609   0.629   3.227
 1543TIP3    H1 4635   4.552   0.639   3.150
 1543TIP3    H2 4636   4.571   0.556   3.276
 1544TIP3   OH2 4637   0.256   2.559   1.845
 1544TIP3    H1 4638   0.229   2.468   1.858
 1544TIP3    H2 4639   0.350   2.559   1.865
 1545TIP3   OH2 4640   4.053   2.095   4.049
 1545TIP3    H1 4641   4.028   2.005   4.069
 1545TIP3    H2 4642   3.997   2.119   3.976
 1546TIP3   OH2 4643   4.534   3.067   3.777
 1546TIP3    H1 4644   4.543   3.162   3.781
 1546TIP3    H2 4645   4.586   3.041   3.701
 1547TIP3   OH2 4646   6.144   3.156   4.656
 1547TIP3    H1 4647   6.052   3.135   4.674
 1547TIP3    H2 4648   6.189   3.072   4.656
 1548TIP3   OH2 4649   3.588   1.057   2.302
 1548TIP3    H1 4650   3.530   0.981   2.292
 1548TIP3    H2 4651   3.629   1.067   2.216
 1549TIP3   OH2 4652   3.697   2.574   4.092
 1549TIP3    H1 4653   3.691   2.669   4.094
 1549TIP3    H2 4654   3.681   2.546   4.182
 1550TIP3   OH2 4655   2.546   2.992   2.377
 1550TIP3    H1 4656   2.623   3.026   2.333
 1550TIP3    H2 4657   2.477   3.056   2.357
 1551TIP3   OH2 4658   1.900   5.399   4.883
 1551TIP3    H1 4659   1.862   5.350   4.810
 1551TIP3    H2 4660   1.846   5.375   4.958
 1552TIP3   OH2 4661   1.618   4.096   2.911
 1552TIP3    H1 4662   1.682   4.155   2.952
 1552TIP3    H2 4663   1.542   4.151   2.894
 1553TIP3   OH2 4664   2.844   4.942   2.542
 1553TIP3    H1 4665   2.894   5.013   2.502
 1553TIP3    H2 4666   2.773   4.986   2.588
 1554TIP3   OH2 4667   0.498   3.454   2.728
 1554TIP3    H1 4668   0.475   3.392   2.659
 1554TIP3    H2 4669   0.472   3.539   2.694
 1555TIP3   OH2 4670   4.713   0.990   2.796
 1555TIP3    H1 4671   4.805   1.003   2.775
 1555TIP3    H2 4672   4.706   1.010   2.889
 1556TIP3   OH2 4673   3.185   0.602   3.231
 1556TIP3    H1 4674   3.163   0.516   3.266
 1556TIP3    H2 4675   3.106   0.654   3.245
 1557TIP3   OH2 4676   1.670   1.844   0.577
 1557TIP3    H1 4677   1.624   1.911   0.526
 1557TIP3    H2 4678   1.601   1.781   0.601
 1558TIP3   OH2 4679   0.272   3.000   0.383
 1558TIP3    H1 4680   0.307   2.914   0.407
 1558TIP3    H2 4681   0.287   3.054   0.461
 1559TIP3   OH2 4682   1.468   1.669   4.444
 1559TIP3    H1 4683   1.479   1.763   4.428
 1559TIP3    H2 4684   1.533   1.649   4.510
 1560TIP3   OH2 4685   5.050   1.286   3.115
 1560TIP3    H1 4686   5.081   1.258   3.029
 1560TIP3    H2 4687   5.127   1.279   3.172
 1561TIP3   OH2 4688   6.345   1.950  -0.014
 1561TIP3    H1 4689   6.423   1.938   0.040
 1561TIP3    H2 4690   6.285   2.000   0.041
 1562TIP3   OH2 4691   5.507   1.790   3.509
 1562TIP3    H1 4692   5.418   1.755   3.504
 1562TIP3    H2 4693   5.507   1.844   3.588
 1563TIP3   OH2 4694   1.104   3.858   3.516
 1563TIP3    H1 4695   1.008   3.856   3.515
 1563TIP3    H2 4696   1.130   3.766   3.516
 1564TIP3   OH2 4697   3.602   4.133   0.055
 1564TIP3    H1 4698   3.600   4.226   0.029
 1564TIP3    H2 4699   3.692   4.106   0.040
 1565TIP3   OH2 4700   0.982   2.215   5.151
 1565TIP3    H1 4701   1.055   2.275   5.139
 1565TIP3    H2 4702   1.002   2.170   5.234
 1566TIP3   OH2 4703   0.111   0.474   3.521
 1566TIP3    H1 4704   0.128   0.475   3.427
 1566TIP3    H2 4705   0.198   0.470   3.561
 1567TIP3   OH2 4706   4.737   0.159   4.196
 1567TIP3    H1 4707   4.726   0.207   4.114
 1567TIP3    H2 4708   4.719   0.224   4.264
 1568TIP3   OH2 4709   3.584   1.743   3.493
 1568TIP3    H1 4710   3.625   1.667   3.452
 1568TIP3    H2 4711   3.496   1.714   3.516
 1569TIP3   OH2 4712   3.061   3.348   2.301
 1569TIP3    H1 4713   3.121   3.410   2.344
 1569TIP3    H2 4714   3.002   3.404   2.250
 1570TIP3   OH2 4715   4.844   1.987   3.835
 1570TIP3    H1 4716   4.837   2.018   3.925
 1570TIP3    H2 4717   4.759   1.948   3.816
 1571TIP3   OH2 4718   1.513   5.587   2.998
 1571TIP3    H1 4719   1.556   5.505   2.976
 1571TIP3    H2 4720   1.509   5.636   2.915
 1572TIP3   OH2 4721   5.714   1.808   2.214
 1572TIP3    H1 4722   5.740   1.754   2.288
 1572TIP3    H2 4723   5.761   1.890   2.226
 1573TIP3   OH2 4724   3.725   5.131   0.560
 1573TIP3    H1 4725   3.721   5.224   0.537
 1573TIP3    H2 4726   3.644   5.115   0.608
 1574TIP3   OH2 4727   0.069   4.918   3.186
 1574TIP3    H1 4728   0.129   4.919   3.260
 1574TIP3    H2 4729   0.106   4.982   3.124
 1575TIP3   OH2 4730   3.203   2.458   2.254
 1575TIP3    H1 4731   3.143   2.512   2.305
 1575TIP3    H2 4732   3.171   2.466   2.164
 1576TIP3   OH2 4733   4.791   0.222   1.892
 1576TIP3    H1 4734   4.827   0.165   1.825
 1576TIP3    H2 4735   4.751   0.162   1.955
 1577TIP3   OH2 4736   0.954   2.975   4.684
 1577TIP3    H1 4737   1.041   3.012   4.700
 1577TIP3    H2 4738   0.969   2.881   4.675
 1578TIP3   OH2 4739   1.980   0.792   2.518
 1578TIP3    H1 4740   1.949   0.789   2.608
 1578TIP3    H2 4741   1.989   0.700   2.492
 1579TIP3   OH2 4742   1.370   3.288   0.616
 1579TIP3    H1 4743   1.317   3.353   0.662
 1579TIP3    H2 4744   1.457   3.296   0.655
 1580TIP3   OH2 4745   1.906   2.272   1.889
 1580TIP3    H1 4746   1.821   2.315   1.877
 1580TIP3    H2 4747   1.920   2.272   1.984
 1581TIP3   OH2 4748   2.996   0.545   2.966
 1581TIP3    H1 4749   3.058   0.540   3.039
 1581TIP3    H2 4750   2.991   0.639   2.946
 1582TIP3   OH2 4751   2.181   2.902   4.403
 1582TIP3    H1 4752   2.237   2.977   4.382
 1582TIP3    H2 4753   2.140   2.879   4.320
 1583TIP3   OH2 4754   1.174   5.299   2.231
 1583TIP3    H1 4755   1.183   5.223   2.174
 1583TIP3    H2 4756   1.098   5.346   2.195
 1584TIP3   OH2 4757   1.356   3.829   1.731
 1584TIP3    H1 4758   1.372   3.742   1.694
 1584TIP3    H2 4759   1.361   3.888   1.655
 1585TIP3   OH2 4760   5.534   3.501   1.691
 1585TIP3    H1 4761   5.445   3.534   1.700
 1585TIP3    H2 4762   5.553   3.461   1.775
 1586TIP3   OH2 4763   2.518   3.673   4.166
 1586TIP3    H1 4764   2.532   3.614   4.240
 1586TIP3    H2 4765   2.569   3.751   4.189
 1587TIP3   OH2 4766   3.265   2.249   2.057
 1587TIP3    H1 4767   3.360   2.237   2.051
 1587TIP3    H2 4768   3.229   2.162   2.041
 1588TIP3   OH2 4769   1.634   2.606   0.244
 1588TIP3    H1 4770   1.706   2.607   0.307
 1588TIP3    H2 4771   1.575   2.676   0.274
 1589TIP3   OH2 4772   5.329   5.197   0.018
 1589TIP3    H1 4773   5.274   5.263  -0.025
 1589TIP3    H2 4774   5.295   5.191   0.107
 1590TIP3   OH2 4775   1.873   0.812   2.771
 1590TIP3    H1 4776   1.904   0.739   2.823
 1590TIP3    H2 4777   1.779   0.817   2.790
 1591TIP3   OH2 4778   2.807   4.184   4.760
 1591TIP3    H1 4779   2.897   4.198   4.731
 1591TIP3    H2 4780   2.789   4.256   4.819
 1592TIP3   OH2 4781   6.259   2.098   0.189
 1592TIP3    H1 4782   6.336   2.048   0.214
 1592TIP3    H2 4783   6.288   2.188   0.187
 1593TIP3   OH2 4784   5.137   2.892   4.757
 1593TIP3    H1 4785   5.207   2.917   4.817
 1593TIP3    H2 4786   5.056   2.904   4.808
 1594TIP3   OH2 4787   4.286   1.497   3.564
 1594TIP3    H1 4788   4.327   1.422   3.520
 1594TIP3    H2 4789   4.215   1.522   3.505
 1595TIP3   OH2 4790   4.716   0.243   0.587
 1595TIP3    H1 4791   4.723   0.161   0.636
 1595TIP3    H2 4792   4.676   0.219   0.504
 1596TIP3   OH2 4793   2.435   5.257   4.829
 1596TIP3    H1 4794   2.458   5.192   4.896
 1596TIP3    H2 4795   2.439   5.341   4.875
 1597TIP3   OH2 4796   0.409   5.021   0.235
 1597TIP3    H1 4797   0.445   4.976   0.158
 1597TIP3    H2 4798   0.482   5.071   0.270
 1598TIP3   OH2 4799   2.839   4.031   2.001
 1598TIP3    H1 4800   2.837   4.108   1.944
 1598TIP3    H2 4801   2.826   3.957   1.943
 1599TIP3   OH2 4802   3.402   2.766   3.426
 1599TIP3    H1 4803   3.457   2.842   3.407
 1599TIP3    H2 4804   3.364   2.741   3.342
 1600TIP3   OH2 4805   5.652   5.910   2.049
 1600TIP3    H1 4806   5.744   5.932   2.037
 1600TIP3    H2 4807   5.652   5.837   2.111
 1601TIP3   OH2 4808   4.326   1.855   0.958
 1601TIP3    H1 4809   4.315   1.834   1.051
 1601TIP3    H2 4810   4.278   1.937   0.946
 1602TIP3   OH2 4811   2.666   5.587   4.017
 1602TIP3    H1 4812   2.609   5.646   3.967
 1602TIP3    H2 4813   2.612   5.556   4.089
 1603TIP3   OH2 4814   1.823   4.343   3.737
 1603TIP3    H1 4815   1.749   4.286   3.759
 1603TIP3    H2 4816   1.836   4.329   3.643
 1604TIP3   OH2 4817   4.997   5.307   2.970
 1604TIP3    H1 4818   5.046   5.314   3.052
 1604TIP3    H2 4819   5.002   5.214   2.948
 1605TIP3   OH2 4820   3.557   1.732   4.097
 1605TIP3    H1 4821   3.636   1.746   4.044
 1605TIP3    H2 4822   3.588   1.735   4.188
 1606TIP3   OH2 4823   1.615   5.764   3.729
 1606TIP3    H1 4824   1.522   5.758   3.751
 1606TIP3    H2 4825   1.639   5.854   3.752
 1607TIP3   OH2 4826   5.690   5.612   0.975
 1607TIP3    H1 4827   5.675   5.639   0.885
 1607TIP3    H2 4828   5.749   5.537   0.968
 1608TIP3   OH2 4829   3.874   1.310   4.049
 1608TIP3    H1 4830   3.917   1.370   3.989
 1608TIP3    H2 4831   3.783   1.341   4.054
 1609TIP3   OH2 4832   3.980   5.967   0.111
 1609TIP3    H1 4833   4.066   6.008   0.099
 1609TIP3    H2 4834   3.935   5.981   0.027
 1610TIP3   OH2 4835   4.463   3.922   3.753
 1610TIP3    H1 4836   4.414   3.994   3.713
 1610TIP3    H2 4837   4.413   3.900   3.832
 1611TIP3   OH2 4838   5.636   1.605   3.820
 1611TIP3    H1 4839   5.630   1.581   3.912
 1611TIP3    H2 4840   5.546   1.627   3.795
 1612TIP3   OH2 4841   3.859   4.053   1.671
 1612TIP3    H1 4842   3.774   4.086   1.702
 1612TIP3    H2 4843   3.872   3.973   1.722
 1613TIP3   OH2 4844   5.530   2.559   3.140
 1613TIP3    H1 4845   5.539   2.464   3.142
 1613TIP3    H2 4846   5.512   2.579   3.048
 1614TIP3   OH2 4847   2.946   3.720   3.665
 1614TIP3    H1 4848   2.967   3.804   3.705
 1614TIP3    H2 4849   2.974   3.655   3.730
 1615TIP3   OH2 4850   4.517   0.208   3.677
 1615TIP3    H1 4851   4.447   0.144   3.687
 1615TIP3    H2 4852   4.473   0.293   3.673
 1616TIP3   OH2 4853   1.085   2.600   4.139
 1616TIP3    H1 4854   1.036   2.652   4.076
 1616TIP3    H2 4855   1.018   2.568   4.201
 1617TIP3   OH2 4856   3.221   2.740   4.483
 1617TIP3    H1 4857   3.235   2.734   4.578
 1617TIP3    H2 4858   3.127   2.748   4.473
 1618TIP3   OH2 4859   6.041   1.094   0.384
 1618TIP3    H1 4860   6.041   1.047   0.468
 1618TIP3    H2 4861   6.106   1.163   0.395
 1619TIP3   OH2 4862   5.188   4.272   4.793
 1619TIP3    H1 4863   5.135   4.202   4.755
 1619TIP3    H2 4864   5.241   4.304   4.720
 1620TIP3   OH2 4865   3.629   2.048   3.500
 1620TIP3    H1 4866   3.677   2.092   3.430
 1620TIP3    H2 4867   3.635   1.955   3.479
 1621TIP3   OH2 4868   5.166   1.288   0.900
 1621TIP3    H1 4869   5.210   1.205   0.918
 1621TIP3    H2 4870   5.205   1.320   0.819
 1622TIP3   OH2 4871   5.952   5.021   1.641
 1622TIP3    H1 4872   5.947   4.925   1.639
 1622TIP3    H2 4873   6.037   5.042   1.603
 1623TIP3   OH2 4874   5.057   0.527   2.231
 1623TIP3    H1 4875   5.112   0.461   2.273
 1623TIP3    H2 4876   5.015   0.480   2.159
 1624TIP3   OH2 4877   4.208   4.874   0.515
 1624TIP3    H1 4878   4.196   4.832   0.430
 1624TIP3    H2 4879   4.128   4.925   0.528
 1625TIP3   OH2 4880   2.682   2.870   4.238
 1625TIP3    H1 4881   2.670   2.779   4.211
 1625TIP3    H2 4882   2.667   2.869   4.332
 1626TIP3   OH2 4883   0.242   4.830   3.478
 1626TIP3    H1 4884   0.298   4.857   3.405
 1626TIP3    H2 4885   0.199   4.910   3.507
 1627TIP3   OH2 4886   4.920   0.280   2.727
 1627TIP3    H1 4887   4.849   0.341   2.744
 1627TIP3    H2 4888   4.969   0.277   2.809
 1628TIP3   OH2 4889   5.072   3.784   0.429
 1628TIP3    H1 4890   5.109   3.869   0.404
 1628TIP3    H2 4891   5.061   3.737   0.347
 1629TIP3   OH2 4892   0.572   5.202   2.861
 1629TIP3    H1 4893   0.624   5.282   2.859
 1629TIP3    H2 4894   0.605   5.149   2.789
 1630TIP3   OH2 4895   5.146   2.221   1.750
 1630TIP3    H1 4896   5.066   2.270   1.730
 1630TIP3    H2 4897   5.183   2.264   1.827
 1631TIP3   OH2 4898   1.586   4.199   3.716
 1631TIP3    H1 4899   1.501   4.180   3.676
 1631TIP3    H2 4900   1.564   4.230   3.805
 1632TIP3   OH2 4901   1.292   0.048   3.580
 1632TIP3    H1 4902   1.298   0.081   3.490
 1632TIP3    H2 4903   1.206   0.079   3.611
 1633TIP3   OH2 4904   0.049   4.523   1.925
 1633TIP3    H1 4905   0.132   4.571   1.921
 1633TIP3    H2 4906   0.073   4.433   1.901
 1634TIP3   OH2 4907   4.612   5.592   4.778
 1634TIP3    H1 4908   4.635   5.681   4.751
 1634TIP3    H2 4909   4.600   5.597   4.873
 1635TIP3   OH2 4910   4.231   3.461   0.103
 1635TIP3    H1 4911   4.166   3.402   0.064
 1635TIP3    H2 4912   4.268   3.411   0.176
 1636TIP3   OH2 4913   1.405   3.605   1.600
 1636TIP3    H1 4914   1.485   3.556   1.618
 1636TIP3    H2 4915   1.361   3.555   1.531
 1637TIP3   OH2 4916   1.477   5.891   2.900
 1637TIP3    H1 4917   1.388   5.878   2.931
 1637TIP3    H2 4918   1.513   5.960   2.955
 1638TIP3   OH2 4919   5.557   5.588   4.745
 1638TIP3    H1 4920   5.503   5.626   4.676
 1638TIP3    H2 4921   5.604   5.663   4.781
 1639TIP3   OH2 4922   6.273   3.991   3.881
 1639TIP3    H1 4923   6.235   3.903   3.877
 1639TIP3    H2 4924   6.221   4.037   3.947
 1640TIP3   OH2 4925   1.485   1.964   1.714
 1640TIP3    H1 4926   1.424   1.901   1.675
 1640TIP3    H2 4927   1.571   1.939   1.680
 1641TIP3   OH2 4928   3.551   1.172   2.556
 1641TIP3    H1 4929   3.547   1.136   2.467
 1641TIP3    H2 4930   3.480   1.128   2.603
 1642TIP3   OH2 4931   0.747   2.092   1.560
 1642TIP3    H1 4932   0.717   2.151   1.629
 1642TIP3    H2 4933   0.686   2.109   1.487
 1643TIP3   OH2 4934   5.835   3.346   4.375
 1643TIP3    H1 4935   5.918   3.300   4.384
 1643TIP3    H2 4936   5.805   3.359   4.464
 1644TIP3   OH2 4937   0.874   5.845   3.647
 1644TIP3    H1 4938   0.852   5.756   3.620
 1644TIP3    H2 4939   0.854   5.898   3.570
 1645TIP3   OH2 4940   1.436   0.604   4.665
 1645TIP3    H1 4941   1.431   0.620   4.571
 1645TIP3    H2 4942   1.389   0.677   4.704
 1646TIP3   OH2 4943   2.596   4.741   0.360
 1646TIP3    H1 4944   2.606   4.665   0.417
 1646TIP3    H2 4945   2.580   4.704   0.273
 1647TIP3   OH2 4946   6.135   0.803   4.445
 1647TIP3    H1 4947   6.049   0.844   4.438
 1647TIP3    H2 4948   6.197   0.874   4.430
 1648TIP3   OH2 4949   4.107   0.349   4.206
 1648TIP3    H1 4950   4.029   0.404   4.203
 1648TIP3    H2 4951   4.137   0.344   4.116
 1649TIP3   OH2 4952   0.637   5.595   3.152
 1649TIP3    H1 4953   0.728   5.572   3.136
 1649TIP3    H2 4954   0.640   5.684   3.188
 1650TIP3   OH2 4955   4.649   5.806   2.085
 1650TIP3    H1 4956   4.672   5.889   2.127
 1650TIP3    H2 4957   4.651   5.742   2.156
 1651TIP3   OH2 4958   4.071   2.683   1.052
 1651TIP3    H1 4959   4.103   2.654   1.138
 1651TIP3    H2 4960   4.015   2.612   1.021
 1652TIP3   OH2 4961   0.284   5.015   2.729
 1652TIP3    H1 4962   0.373   4.990   2.755
 1652TIP3    H2 4963   0.288   5.019   2.633
 1653TIP3   OH2 4964   3.788   3.125   2.265
 1653TIP3    H1 4965   3.830   3.076   2.335
 1653TIP3    H2 4966   3.718   3.175   2.308
 1654TIP3   OH2 4967   4.797   5.913   3.753
 1654TIP3    H1 4968   4.734   5.841   3.747
 1654TIP3    H2 4969   4.750   5.982   3.798
 1655TIP3   OH2 4970   0.904   4.435   4.261
 1655TIP3    H1 4971   0.891   4.458   4.353
 1655TIP3    H2 4972   0.989   4.392   4.258
 1656TIP3   OH2 4973   0.868   1.860   4.525
 1656TIP3    H1 4974   0.882   1.847   4.431
 1656TIP3    H2 4975   0.955   1.880   4.560
 1657TIP3   OH2 4976   5.297   3.468   4.118
 1657TIP3    H1 4977   5.344   3.387   4.140
 1657TIP3    H2 4978   5.217   3.438   4.075
 1658TIP3   OH2 4979   4.189   5.224   2.396
 1658TIP3    H1 4980   4.199   5.129   2.395
 1658TIP3    H2 4981   4.095   5.238   2.404
 1659TIP3   OH2 4982   5.961   4.994   0.510
 1659TIP3    H1 4983   6.018   4.971   0.584
 1659TIP3    H2 4984   6.002   5.071   0.471
 1660TIP3   OH2 4985   4.113   2.764   2.889
 1660TIP3    H1 4986   4.027   2.802   2.905
 1660TIP3    H2 4987   4.175   2.829   2.922
 1661TIP3   OH2 4988   6.315   2.104   2.831
 1661TIP3    H1 4989   6.295   2.028   2.777
 1661TIP3    H2 4990   6.241   2.111   2.891
 1662TIP3   OH2 4991   5.754   0.654   4.824
 1662TIP3    H1 4992   5.770   0.674   4.732
 1662TIP3    H2 4993   5.840   0.627   4.858
 1663TIP3   OH2 4994   6.276   0.994   2.984
 1663TIP3    H1 4995   6.335   1.012   2.911
 1663TIP3    H2 4996   6.189   1.017   2.951
 1664TIP3   OH2 4997   0.613   3.330   3.374
 1664TIP3    H1 4998   0.708   3.338   3.364
 1664TIP3    H2 4999   0.578   3.397   3.316
 1665TIP3   OH2 5000   4.457   0.642   3.754
 1665TIP3    H1 5001   4.431   0.645   3.845
 1665TIP3    H2 5002   4.400   0.575   3.715
 1666TIP3   OH2 5003   1.257   4.979   1.913
 1666TIP3    H1 5004   1.239   5.047   1.848
 1666TIP3    H2 5005   1.352   4.980   1.924
 1667TIP3   OH2 5006   4.730   1.701   1.216
 1667TIP3    H1 5007   4.788   1.664   1.283
 1667TIP3    H2 5008   4.659   1.638   1.207
 1668TIP3   OH2 5009   2.934   2.318   2.274
 1668TIP3    H1 5010   2.949   2.395   2.219
 1668TIP3    H2 5011   3.006   2.259   2.254
 1669TIP3   OH2 5012   0.387   5.751   1.908
 1669TIP3    H1 5013   0.458   5.804   1.947
 1669TIP3    H2 5014   0.312   5.811   1.906
 1670TIP3   OH2 5015   4.607   5.286   2.566
 1670TIP3    H1 5016   4.654   5.360   2.604
 1670TIP3    H2 5017   4.514   5.307   2.578
 1671TIP3   OH2 5018   0.978   5.832   4.891
 1671TIP3    H1 5019   0.987   5.888   4.968
 1671TIP3    H2 5020   0.884   5.818   4.883
 1672TIP3   OH2 5021   6.014   3.752   1.087
 1672TIP3    H1 5022   6.094   3.718   1.045
 1672TIP3    H2 5023   5.991   3.829   1.035
 1673TIP3   OH2 5024   1.456   2.650   0.570
 1673TIP3    H1 5025   1.532   2.612   0.614
 1673TIP3    H2 5026   1.403   2.574   0.545
 1674TIP3   OH2 5027   3.032   3.320   0.802
 1674TIP3    H1 5028   2.941   3.314   0.772
 1674TIP3    H2 5029   3.058   3.229   0.818
 1675TIP3   OH2 5030   2.557   2.804   3.421
 1675TIP3    H1 5031   2.599   2.722   3.393
 1675TIP3    H2 5032   2.629   2.867   3.426
 1676TIP3   OH2 5033   4.936   4.162   2.163
 1676TIP3    H1 5034   4.971   4.079   2.133
 1676TIP3    H2 5035   4.868   4.184   2.099
 1677TIP3   OH2 5036   2.202   5.029   3.581
 1677TIP3    H1 5037   2.142   5.104   3.581
 1677TIP3    H2 5038   2.150   4.957   3.616
 1678TIP3   OH2 5039   2.519   5.418   0.141
 1678TIP3    H1 5040   2.596   5.461   0.104
 1678TIP3    H2 5041   2.526   5.434   0.235
 1679TIP3   OH2 5042   3.509   4.928   1.664
 1679TIP3    H1 5043   3.438   4.967   1.613
 1679TIP3    H2 5044   3.588   4.972   1.633
 1680TIP3   OH2 5045   1.173   1.261   0.426
 1680TIP3    H1 5046   1.167   1.204   0.350
 1680TIP3    H2 5047   1.267   1.268   0.444
 1681TIP3   OH2 5048   3.214   3.003   2.711
 1681TIP3    H1 5049   3.127   3.035   2.735
 1681TIP3    H2 5050   3.236   3.051   2.631
 1682TIP3   OH2 5051   3.748   5.681   2.951
 1682TIP3    H1 5052   3.781   5.651   2.866
 1682TIP3    H2 5053   3.656   5.703   2.935
 1683TIP3   OH2 5054   4.977   0.354   0.529
 1683TIP3    H1 5055   4.889   0.323   0.550
 1683TIP3    H2 5056   4.963   0.424   0.464
 1684TIP3   OH2 5057   0.292   0.856   5.194
 1684TIP3    H1 5058   0.258   0.910   5.122
 1684TIP3    H2 5059   0.246   0.772   5.184
 1685TIP3   OH2 5060   0.103   2.833   1.449
 1685TIP3    H1 5061   0.017   2.797   1.428
 1685TIP3    H2 5062   0.100   2.851   1.542
 1686TIP3   OH2 5063   5.440   3.943   3.889
 1686TIP3    H1 5064   5.381   3.906   3.955
 1686TIP3    H2 5065   5.389   3.943   3.808
 1687TIP3   OH2 5066   4.488   4.604   1.974
 1687TIP3    H1 5067   4.566   4.547   1.976
 1687TIP3    H2 5068   4.430   4.563   1.910
 1688TIP3   OH2 5069   5.449   4.486   3.468
 1688TIP3    H1 5070   5.464   4.533   3.386
 1688TIP3    H2 5071   5.439   4.555   3.533
 1689TIP3   OH2 5072   4.964   0.419   4.202
 1689TIP3    H1 5073   4.869   0.422   4.185
 1689TIP3    H2 5074   4.971   0.425   4.297
 1690TIP3   OH2 5075   0.457   4.016   1.012
 1690TIP3    H1 5076   0.474   4.005   0.918
 1690TIP3    H2 5077   0.364   3.997   1.022
 1691TIP3   OH2 5078   5.752   3.540   4.570
 1691TIP3    H1 5079   5.720   3.456   4.604
 1691TIP3    H2 5080   5.822   3.565   4.630
 1692TIP3   OH2 5081   0.015   3.203   3.573
 1692TIP3    H1 5082   0.092   3.147   3.561
 1692TIP3    H2 5083  -0.019   3.216   3.485
 1693TIP3   OH2 5084   0.179   5.202   3.261
 1693TIP3    H1 5085   0.166   5.290   3.225
 1693TIP3    H2 5086   0.248   5.164   3.207
 1694TIP3   OH2 5087   4.468   0.962   5.102
 1694TIP3    H1 5088   4.539   1.025   5.093
 1694TIP3    H2 5089   4.472   0.910   5.021
 1695TIP3   OH2 5090   3.925   3.882   4.677
 1695TIP3    H1 5091   4.000   3.841   4.634
 1695TIP3    H2 5092   3.906   3.825   4.752
 1696TIP3   OH2 5093   1.044   1.719   2.515
 1696TIP3    H1 5094   1.119   1.730   2.456
 1696TIP3    H2 5095   1.000   1.804   2.512
 1697TIP3   OH2 5096   2.219   2.892   2.742
 1697TIP3    H1 5097   2.138   2.843   2.754
 1697TIP3    H2 5098   2.259   2.895   2.829
 1698TIP3   OH2 5099   5.518   5.166   3.256
 1698TIP3    H1 5100   5.441   5.116   3.229
 1698TIP3    H2 5101   5.518   5.160   3.352
 1699TIP3   OH2 5102   5.910   1.362  -0.009
 1699TIP3    H1 5103   5.899   1.435   0.052
 1699TIP3    H2 5104   5.942   1.289   0.046
 1700TIP3   OH2 5105   6.033   1.596   3.511
 1700TIP3    H1 5106   6.082   1.602   3.593
 1700TIP3    H2 5107   5.942   1.589   3.538
 1701TIP3   OH2 5108   2.304   4.684   0.499
 1701TIP3    H1 5109   2.314   4.608   0.441
 1701TIP3    H2 5110   2.340   4.656   0.583
 1702TIP3   OH2 5111   2.085   2.903   0.911
 1702TIP3    H1 5112   2.004   2.949   0.890
 1702TIP3    H2 5113   2.061   2.810   0.913
 1703TIP3   OH2 5114   4.128   0.625   0.693
 1703TIP3    H1 5115   4.128   0.559   0.625
 1703TIP3    H2 5116   4.052   0.604   0.748
 1704TIP3   OH2 5117   3.306   0.290   3.522
 1704TIP3    H1 5118   3.231   0.303   3.464
 1704TIP3    H2 5119   3.382   0.316   3.469
 1705TIP3   OH2 5120   4.413   3.479   3.985
 1705TIP3    H1 5121   4.430   3.544   4.052
 1705TIP3    H2 5122   4.375   3.405   4.032
 1706TIP3   OH2 5123   2.746   4.463   1.388
 1706TIP3    H1 5124   2.744   4.558   1.379
 1706TIP3    H2 5125   2.745   4.430   1.298
 1707TIP3   OH2 5126   0.925   2.775   0.209
 1707TIP3    H1 5127   0.897   2.754   0.298
 1707TIP3    H2 5128   0.992   2.709   0.189
 1708TIP3   OH2 5129   3.653   4.638   4.488
 1708TIP3    H1 5130   3.645   4.592   4.572
 1708TIP3    H2 5131   3.688   4.572   4.428
 1709TIP3   OH2 5132   1.504   4.742   3.475
 1709TIP3    H1 5133   1.429   4.780   3.520
 1709TIP3    H2 5134   1.573   4.740   3.541
 1710TIP3   OH2 5135   3.240   3.620   4.742
 1710TIP3    H1 5136   3.245   3.526   4.722
 1710TIP3    H2 5137   3.173   3.653   4.682
 1711TIP3   OH2 5138   2.469   3.987   5.007
 1711TIP3    H1 5139   2.393   4.035   4.977
 1711TIP3    H2 5140   2.475   3.911   4.949
 1712TIP3   OH2 5141   1.379   0.520   0.415
 1712TIP3    H1 5142   1.428   0.590   0.372
 1712TIP3    H2 5143   1.447   0.467   0.458
 1713TIP3   OH2 5144   2.652   5.190   4.263
 1713TIP3    H1 5145   2.697   5.269   4.233
 1713TIP3    H2 5146   2.585   5.222   4.324
 1714TIP3   OH2 5147   5.778   2.410   2.143
 1714TIP3    H1 5148   5.770   2.475   2.213
 1714TIP3    H2 5149   5.751   2.457   2.064
 1715TIP3   OH2 5150   5.763   4.921   0.197
 1715TIP3    H1 5151   5.852   4.887   0.190
 1715TIP3    H2 5152   5.774   5.016   0.202
 1716TIP3   OH2 5153   4.542   5.624   1.345
 1716TIP3    H1 5154   4.563   5.615   1.438
 1716TIP3    H2 5155   4.597   5.558   1.302
 1717TIP3   OH2 5156   5.097   4.101   4.096
 1717TIP3    H1 5157   5.112   4.173   4.156
 1717TIP3    H2 5158   5.132   4.024   4.141
 1718TIP3   OH2 5159   4.700   5.131   4.335
 1718TIP3    H1 5160   4.739   5.048   4.362
 1718TIP3    H2 5161   4.734   5.196   4.398
 1719TIP3   OH2 5162   1.512   5.084   2.497
 1719TIP3    H1 5163   1.536   5.000   2.536
 1719TIP3    H2 5164   1.596   5.126   2.479
 1720TIP3   OH2 5165   3.975   2.093   2.825
 1720TIP3    H1 5166   3.884   2.105   2.852
 1720TIP3    H2 5167   4.017   2.178   2.841
 1721TIP3   OH2 5168   3.038   5.885   1.524
 1721TIP3    H1 5169   2.963   5.899   1.467
 1721TIP3    H2 5170   3.003   5.839   1.600
 1722TIP3   OH2 5171   4.039   1.045   0.321
 1722TIP3    H1 5172   3.966   1.107   0.331
 1722TIP3    H2 5173   4.015   0.971   0.377
 1723TIP3   OH2 5174   5.075   5.635   1.033
 1723TIP3    H1 5175   5.015   5.708   1.047
 1723TIP3    H2 5176   5.021   5.557   1.048
 1724TIP3   OH2 5177   6.234   2.556   2.146
 1724TIP3    H1 5178   6.158   2.530   2.198
 1724TIP3    H2 5179   6.305   2.564   2.209
 1725TIP3   OH2 5180   4.571   2.132   3.225
 1725TIP3    H1 5181   4.533   2.058   3.272
 1725TIP3    H2 5182   4.619   2.181   3.291
 1726TIP3   OH2 5183   6.001   5.224   3.789
 1726TIP3    H1 5184   6.061   5.219   3.864
 1726TIP3    H2 5185   6.035   5.160   3.726
 1727TIP3   OH2 5186   6.088   0.445   2.316
 1727TIP3    H1 5187   6.141   0.523   2.331
 1727TIP3    H2 5188   6.106   0.421   2.225
 1728TIP3   OH2 5189   0.614   4.988   4.958
 1728TIP3    H1 5190   0.616   5.054   4.889
 1728TIP3    H2 5191   0.650   5.032   5.035
 1729TIP3   OH2 5192   4.128   3.203   0.998
 1729TIP3    H1 5193   4.097   3.113   0.991
 1729TIP3    H2 5194   4.219   3.195   1.027
 1730TIP3   OH2 5195   3.161   1.897   1.683
 1730TIP3    H1 5196   3.136   1.805   1.688
 1730TIP3    H2 5197   3.251   1.895   1.651
 1731TIP3   OH2 5198   3.351   1.015   2.660
 1731TIP3    H1 5199   3.329   1.079   2.727
 1731TIP3    H2 5200   3.276   0.956   2.657
 1732TIP3   OH2 5201   4.751   4.892   2.847
 1732TIP3    H1 5202   4.659   4.913   2.837
 1732TIP3    H2 5203   4.797   4.959   2.796
 1733TIP3   OH2 5204   3.168   4.513   2.285
 1733TIP3    H1 5205   3.091   4.570   2.287
 1733TIP3    H2 5206   3.227   4.550   2.350
 1734TIP3   OH2 5207   4.726   4.498   0.547
 1734TIP3    H1 5208   4.745   4.432   0.480
 1734TIP3    H2 5209   4.656   4.552   0.509
 1735TIP3   OH2 5210   6.264   2.224   3.586
 1735TIP3    H1 5211   6.317   2.262   3.516
 1735TIP3    H2 5212   6.242   2.299   3.641
 1736TIP3   OH2 5213   2.310   1.264   0.767
 1736TIP3    H1 5214   2.285   1.179   0.732
 1736TIP3    H2 5215   2.375   1.297   0.705
 1737TIP3   OH2 5216   4.848   1.149   3.784
 1737TIP3    H1 5217   4.883   1.107   3.862
 1737TIP3    H2 5218   4.808   1.078   3.733
 1738TIP3   OH2 5219   1.208   2.418   3.704
 1738TIP3    H1 5220   1.114   2.414   3.725
 1738TIP3    H2 5221   1.250   2.438   3.788
 1739TIP3   OH2 5222   5.887   5.811   0.003
 1739TIP3    H1 5223   5.924   5.850   0.082
 1739TIP3    H2 5224   5.870   5.720   0.027
 1740TIP3   OH2 5225   4.952   2.521   3.675
 1740TIP3    H1 5226   4.956   2.427   3.688
 1740TIP3    H2 5227   5.023   2.540   3.614
 1741TIP3   OH2 5228   1.370   2.707   2.994
 1741TIP3    H1 5229   1.282   2.669   2.998
 1741TIP3    H2 5230   1.369   2.762   2.916
 1742TIP3   OH2 5231   3.415   2.938   4.026
 1742TIP3    H1 5232   3.460   2.933   3.941
 1742TIP3    H2 5233   3.324   2.959   4.004
 1743TIP3   OH2 5234   0.895   4.596   3.819
 1743TIP3    H1 5235   0.876   4.678   3.773
 1743TIP3    H2 5236   0.912   4.533   3.749
 1744TIP3   OH2 5237   3.196   0.764   2.677
 1744TIP3    H1 5238   3.251   0.696   2.717
 1744TIP3    H2 5239   3.123   0.775   2.738
 1745TIP3   OH2 5240   1.155   4.314   4.270
 1745TIP3    H1 5241   1.231   4.273   4.312
 1745TIP3    H2 5242   1.174   4.306   4.176
 1746TIP3   OH2 5243   1.885   4.136   4.747
 1746TIP3    H1 5244   1.894   4.054   4.797
 1746TIP3    H2 5245   1.885   4.205   4.814
 1747TIP3   OH2 5246   1.679   0.545   2.436
 1747TIP3    H1 5247   1.607   0.500   2.392
 1747TIP3    H2 5248   1.642   0.630   2.462
 1748TIP3   OH2 5249   5.491   3.095   0.843
 1748TIP3    H1 5250   5.491   3.021   0.903
 1748TIP3    H2 5251   5.579   3.094   0.804
 1749TIP3   OH2 5252   4.175   0.290   3.032
 1749TIP3    H1 5253   4.179   0.223   2.963
 1749TIP3    H2 5254   4.127   0.362   2.992
 1750TIP3   OH2 5255   5.086   4.680   1.052
 1750TIP3    H1 5256   5.143   4.618   1.006
 1750TIP3    H2 5257   5.145   4.748   1.084
 1751TIP3   OH2 5258   1.007   5.633   1.141
 1751TIP3    H1 5259   1.019   5.549   1.184
 1751TIP3    H2 5260   1.028   5.698   1.209
 1752TIP3   OH2 5261   2.188   2.815   3.600
 1752TIP3    H1 5262   2.152   2.869   3.529
 1752TIP3    H2 5263   2.256   2.871   3.639
 1753TIP3   OH2 5264   6.259   0.197   0.321
 1753TIP3    H1 5265   6.266   0.115   0.273
 1753TIP3    H2 5266   6.348   0.215   0.351
 1754TIP3   OH2 5267   1.044   2.099   4.906
 1754TIP3    H1 5268   0.996   2.148   4.973
 1754TIP3    H2 5269   1.129   2.079   4.947
 1755TIP3   OH2 5270   1.830   1.626   2.969
 1755TIP3    H1 5271   1.790   1.680   2.900
 1755TIP3    H2 5272   1.878   1.558   2.921
 1756TIP3   OH2 5273   1.433   0.910   4.949
 1756TIP3    H1 5274   1.373   0.901   4.875
 1756TIP3    H2 5275   1.487   0.985   4.927
 1757TIP3   OH2 5276   5.641   0.323   2.381
 1757TIP3    H1 5277   5.578   0.395   2.379
 1757TIP3    H2 5278   5.593   0.249   2.342
 1758TIP3   OH2 5279   1.615   3.659   1.909
 1758TIP3    H1 5280   1.702   3.658   1.947
 1758TIP3    H2 5281   1.593   3.753   1.902
 1759TIP3   OH2 5282   2.569   5.310   4.518
 1759TIP3    H1 5283   2.513   5.386   4.500
 1759TIP3    H2 5284   2.591   5.318   4.611
 1760TIP3   OH2 5285   3.612   1.537   4.321
 1760TIP3    H1 5286   3.586   1.461   4.373
 1760TIP3    H2 5287   3.708   1.534   4.321
 1761TIP3   OH2 5288   0.594   1.262   2.755
 1761TIP3    H1 5289   0.595   1.306   2.670
 1761TIP3    H2 5290   0.602   1.169   2.733
 1762TIP3   OH2 5291   1.412   1.342   1.151
 1762TIP3    H1 5292   1.437   1.250   1.146
 1762TIP3    H2 5293   1.336   1.343   1.210
 1763TIP3   OH2 5294   1.655   5.339   3.774
 1763TIP3    H1 5295   1.744   5.305   3.781
 1763TIP3    H2 5296   1.659   5.401   3.701
 1764TIP3   OH2 5297   0.045   2.336   3.389
 1764TIP3    H1 5298   0.015   2.370   3.304
 1764TIP3    H2 5299   0.126   2.384   3.406
 1765TIP3   OH2 5300   6.113   0.741   3.874
 1765TIP3    H1 5301   6.107   0.806   3.804
 1765TIP3    H2 5302   6.060   0.777   3.946
 1766TIP3   OH2 5303   2.129   1.830   2.989
 1766TIP3    H1 5304   2.126   1.734   2.986
 1766TIP3    H2 5305   2.097   1.852   3.077
 1767TIP3   OH2 5306   4.885   1.561   1.682
 1767TIP3    H1 5307   4.870   1.632   1.745
 1767TIP3    H2 5308   4.799   1.520   1.671
 1768TIP3   OH2 5309   2.109   5.118   2.018
 1768TIP3    H1 5310   2.119   5.079   2.105
 1768TIP3    H2 5311   2.085   5.044   1.962
 1769TIP3   OH2 5312   1.163   2.286   2.686
 1769TIP3    H1 5313   1.199   2.298   2.774
 1769TIP3    H2 5314   1.201   2.203   2.656
 1770TIP3   OH2 5315   0.305   2.317   5.087
 1770TIP3    H1 5316   0.332   2.233   5.125
 1770TIP3    H2 5317   0.349   2.383   5.141
 1771TIP3   OH2 5318   0.926   5.096   1.249
 1771TIP3    H1 5319   0.957   5.014   1.212
 1771TIP3    H2 5320   0.834   5.101   1.224
 1772TIP3   OH2 5321   3.160   3.252   3.912
 1772TIP3    H1 5322   3.175   3.254   4.007
 1772TIP3    H2 5323   3.185   3.163   3.886
 1773TIP3   OH2 5324   4.460   2.218   1.964
 1773TIP3    H1 5325   4.457   2.125   1.941
 1773TIP3    H2 5326   4.520   2.257   1.900
 1774TIP3   OH2 5327   6.149   3.997   4.762
 1774TIP3    H1 5328   6.209   3.938   4.808
 1774TIP3    H2 5329   6.120   4.058   4.829
 1775TIP3   OH2 5330   2.164   5.631   1.086
 1775TIP3    H1 5331   2.228   5.602   1.150
 1775TIP3    H2 5332   2.124   5.551   1.053
 1776TIP3   OH2 5333   0.827   0.733   3.197
 1776TIP3    H1 5334   0.761   0.779   3.248
 1776TIP3    H2 5335   0.892   0.800   3.174
 1777TIP3   OH2 5336   0.376   5.008   4.550
 1777TIP3    H1 5337   0.464   5.037   4.527
 1777TIP3    H2 5338   0.379   4.913   4.545
 1778TIP3   OH2 5339   5.628   4.632   3.654
 1778TIP3    H1 5340   5.671   4.671   3.579
 1778TIP3    H2 5341   5.667   4.544   3.660
 1779TIP3   OH2 5342   0.662   0.925   1.960
 1779TIP3    H1 5343   0.673   0.996   2.024
 1779TIP3    H2 5344   0.572   0.934   1.930
 1780TIP3   OH2 5345   0.580   2.871   1.131
 1780TIP3    H1 5346   0.508   2.846   1.189
 1780TIP3    H2 5347   0.586   2.799   1.068
 1781TIP3   OH2 5348   2.658   2.429   3.614
 1781TIP3    H1 5349   2.728   2.458   3.555
 1781TIP3    H2 5350   2.704   2.393   3.690
 1782TIP3   OH2 5351   3.157   5.001   1.902
 1782TIP3    H1 5352   3.069   4.992   1.940
 1782TIP3    H2 5353   3.191   4.912   1.901
 1783TIP3   OH2 5354   1.735   0.594   4.549
 1783TIP3    H1 5355   1.703   0.685   4.547
 1783TIP3    H2 5356   1.711   0.563   4.636
 1784TIP3   OH2 5357   4.672   4.171   0.789
 1784TIP3    H1 5358   4.642   4.082   0.776
 1784TIP3    H2 5359   4.765   4.169   0.766
 1785TIP3   OH2 5360   0.367   3.187   0.899
 1785TIP3    H1 5361   0.332   3.262   0.851
 1785TIP3    H2 5362   0.455   3.213   0.925
 1786TIP3   OH2 5363   5.022   1.151   4.727
 1786TIP3    H1 5364   4.961   1.206   4.679
 1786TIP3    H2 5365   4.967   1.097   4.784
 1787TIP3   OH2 5366   6.049   1.889   4.232
 1787TIP3    H1 5367   6.053   1.935   4.316
 1787TIP3    H2 5368   5.983   1.821   4.244
 1788TIP3   OH2 5369   5.391   1.286   2.605
 1788TIP3    H1 5370   5.314   1.293   2.660
 1788TIP3    H2 5371   5.448   1.358   2.633
 1789TIP3   OH2 5372   0.402   0.312   0.395
 1789TIP3    H1 5373   0.458   0.306   0.472
 1789TIP3    H2 5374   0.408   0.404   0.369
 1790TIP3   OH2 5375   1.941   3.879   4.017
 1790TIP3    H1 5376   1.973   3.789   4.011
 1790TIP3    H2 5377   1.948   3.913   3.928
 1791TIP3   OH2 5378   3.046   0.999   1.712
 1791TIP3    H1 5379   3.104   0.922   1.715
 1791TIP3    H2 5380   2.998   0.996   1.795
 1792TIP3   OH2 5381   4.777   2.209   0.192
 1792TIP3    H1 5382   4.844   2.274   0.213
 1792TIP3    H2 5383   4.695   2.258   0.188
 1793TIP3   OH2 5384   2.209   1.801   1.795
 1793TIP3    H1 5385   2.178   1.711   1.796
 1793TIP3    H2 5386   2.196   1.831   1.705
 1794TIP3   OH2 5387   5.588   1.145   0.659
 1794TIP3    H1 5388   5.597   1.237   0.684
 1794TIP3    H2 5389   5.571   1.100   0.742
 1795TIP3   OH2 5390   3.858   3.037   5.020
 1795TIP3    H1 5391   3.857   2.942   5.035
 1795TIP3    H2 5392   3.906   3.073   5.094
 1796TIP3   OH2 5393   5.784   5.320   4.318
 1796TIP3    H1 5394   5.847   5.377   4.363
 1796TIP3    H2 5395   5.701   5.368   4.325
 1797TIP3   OH2 5396   5.044   2.326   1.084
 1797TIP3    H1 5397   5.133   2.337   1.050
 1797TIP3    H2 5398   4.989   2.376   1.024
 1798TIP3   OH2 5399   4.866   0.689   3.249
 1798TIP3    H1 5400   4.771   0.676   3.248
 1798TIP3    H2 5401   4.900   0.609   3.289
 1799TIP3   OH2 5402   4.520   2.222   2.603
 1799TIP3    H1 5403   4.502   2.226   2.697
 1799TIP3    H2 5404   4.615   2.229   2.597
 1800TIP3   OH2 5405   0.198   4.815   0.784
 1800TIP3    H1 5406   0.277   4.777   0.745
 1800TIP3    H2 5407   0.136   4.822   0.712
 1801TIP3   OH2 5408   3.850   4.431   1.652
 1801TIP3    H1 5409   3.903   4.386   1.587
 1801TIP3    H2 5410   3.856   4.523   1.630
 1802TIP3   OH2 5411   1.355   0.557   0.952
 1802TIP3    H1 5412   1.399   0.487   0.904
 1802TIP3    H2 5413   1.419   0.585   1.017
 1803TIP3   OH2 5414   1.389   5.098   4.082
 1803TIP3    H1 5415   1.348   5.099   4.168
 1803TIP3    H2 5416   1.366   5.013   4.044
 1804TIP3   OH2 5417   4.756   4.889   3.777
 1804TIP3    H1 5418   4.730   4.962   3.720
 1804TIP3    H2 5419   4.798   4.932   3.852
 1805TIP3   OH2 5420   4.038   1.973   2.000
 1805TIP3    H1 5421   4.084   1.908   2.054
 1805TIP3    H2 5422   4.055   1.945   1.910
 1806TIP3   OH2 5423   2.213   0.876   4.811
 1806TIP3    H1 5424   2.150   0.840   4.873
 1806TIP3    H2 5425   2.254   0.949   4.858
 1807TIP3   OH2 5426   4.220   0.208   1.471
 1807TIP3    H1 5427   4.152   0.171   1.414
 1807TIP3    H2 5428   4.301   0.196   1.423
 1808TIP3   OH2 5429   5.725   1.501   3.195
 1808TIP3    H1 5430   5.630   1.508   3.183
 1808TIP3    H2 5431   5.740   1.535   3.283
 1809TIP3   OH2 5432   3.674   1.536   2.517
 1809TIP3    H1 5433   3.597   1.578   2.477
 1809TIP3    H2 5434   3.738   1.532   2.446
 1810TIP3   OH2 5435   2.454   2.736   0.328
 1810TIP3    H1 5436   2.504   2.696   0.257
 1810TIP3    H2 5437   2.414   2.661   0.374
 1811TIP3   OH2 5438   3.720   3.178   1.345
 1811TIP3    H1 5439   3.780   3.113   1.381
 1811TIP3    H2 5440   3.775   3.255   1.329
 1812TIP3   OH2 5441   5.092   0.308   4.006
 1812TIP3    H1 5442   5.078   0.370   3.934
 1812TIP3    H2 5443   5.042   0.345   4.079
 1813TIP3   OH2 5444   0.094   2.217   4.261
 1813TIP3    H1 5445   0.139   2.222   4.345
 1813TIP3    H2 5446   0.066   2.125   4.254
 1814TIP3   OH2 5447   2.755   2.154   0.777
 1814TIP3    H1 5448   2.815   2.084   0.803
 1814TIP3    H2 5449   2.736   2.200   0.859
 1815TIP3   OH2 5450   1.932   1.937   1.811
 1815TIP3    H1 5451   2.018   1.895   1.819
 1815TIP3    H2 5452   1.946   2.026   1.845
 1816TIP3   OH2 5453   0.465   1.084   1.472
 1816TIP3    H1 5454   0.434   1.167   1.508
 1816TIP3    H2 5455   0.471   1.026   1.548
 1817TIP3   OH2 5456   2.088   0.162   1.145
 1817TIP3    H1 5457   2.031   0.238   1.131
 1817TIP3    H2 5458   2.053   0.121   1.224
 1818TIP3   OH2 5459   4.264   1.383   3.028
 1818TIP3    H1 5460   4.206   1.429   3.088
 1818TIP3    H2 5461   4.307   1.317   3.082
 1819TIP3   OH2 5462   1.222   4.770   0.696
 1819TIP3    H1 5463   1.311   4.793   0.723
 1819TIP3    H2 5464   1.171   4.772   0.777
 1820TIP3   OH2 5465   4.367   4.187   4.268
 1820TIP3    H1 5466   4.348   4.280   4.268
 1820TIP3    H2 5467   4.369   4.163   4.360
 1821TIP3   OH2 5468   2.846   2.443   0.342
 1821TIP3    H1 5469   2.923   2.458   0.397
 1821TIP3    H2 5470   2.780   2.411   0.404
 1822TIP3   OH2 5471   1.822   2.965   0.959
 1822TIP3    H1 5472   1.770   3.022   0.903
 1822TIP3    H2 5473   1.763   2.894   0.982
 1823TIP3   OH2 5474   4.562   3.687   0.238
 1823TIP3    H1 5475   4.572   3.595   0.262
 1823TIP3    H2 5476   4.648   3.725   0.253
 1824TIP3   OH2 5477   4.938   0.703   0.612
 1824TIP3    H1 5478   5.017   0.708   0.666
 1824TIP3    H2 5479   4.921   0.794   0.587
 1825TIP3   OH2 5480   3.689   4.249   2.805
 1825TIP3    H1 5481   3.643   4.267   2.887
 1825TIP3    H2 5482   3.659   4.162   2.780
 1826TIP3   OH2 5483   3.522   0.415   2.657
 1826TIP3    H1 5484   3.445   0.412   2.600
 1826TIP3    H2 5485   3.543   0.508   2.662
 1827TIP3   OH2 5486   3.689   5.088   3.110
 1827TIP3    H1 5487   3.643   5.172   3.111
 1827TIP3    H2 5488   3.779   5.109   3.132
 1828TIP3   OH2 5489   5.461   4.424   3.811
 1828TIP3    H1 5490   5.448   4.357   3.878
 1828TIP3    H2 5491   5.540   4.397   3.765
 1829TIP3   OH2 5492   2.246   2.582   1.993
 1829TIP3    H1 5493   2.224   2.543   2.077
 1829TIP3    H2 5494   2.342   2.590   1.994
 1830TIP3   OH2 5495   6.345   0.807   0.739
 1830TIP3    H1 5496   6.364   0.767   0.654
 1830TIP3    H2 5497   6.428   0.846   0.766
 1831TIP3   OH2 5498   6.028   3.671   4.213
 1831TIP3    H1 5499   5.953   3.612   4.201
 1831TIP3    H2 5500   5.995   3.740   4.271
 1832TIP3   OH2 5501   0.021   1.354   0.562
 1832TIP3    H1 5502   0.081   1.401   0.504
 1832TIP3    H2 5503   0.067   1.273   0.584
 1833TIP3   OH2 5504   3.744   2.202   0.624
 1833TIP3    H1 5505   3.838   2.205   0.642
 1833TIP3    H2 5506   3.736   2.229   0.533
 1834TIP3   OH2 5507   0.529   1.837   5.136
 1834TIP3    H1 5508   0.586   1.832   5.212
 1834TIP3    H2 5509   0.588   1.853   5.062
 1835TIP3   OH2 5510   3.896   0.065   1.917
 1835TIP3    H1 5511   3.953   0.135   1.948
 1835TIP3    H2 5512   3.834   0.109   1.859
 1836TIP3   OH2 5513   2.353   3.353   0.815
 1836TIP3    H1 5514   2.433   3.321   0.856
 1836TIP3    H2 5515   2.382   3.420   0.754
 1837TIP3   OH2 5516   4.254   3.713   3.290
 1837TIP3    H1 5517   4.281   3.622   3.303
 1837TIP3    H2 5518   4.162   3.708   3.265
 1838TIP3   OH2 5519   3.739   4.749   3.287
 1838TIP3    H1 5520   3.664   4.796   3.324
 1838TIP3    H2 5521   3.805   4.749   3.356
 1839TIP3   OH2 5522   4.530   1.004   1.526
 1839TIP3    H1 5523   4.513   0.954   1.605
 1839TIP3    H2 5524   4.495   1.091   1.544
 1840TIP3   OH2 5525   2.397   0.065   4.278
 1840TIP3    H1 5526   2.369   0.157   4.272
 1840TIP3    H2 5527   2.378   0.041   4.369
 1841TIP3   OH2 5528   3.655   1.468   1.653
 1841TIP3    H1 5529   3.657   1.394   1.592
 1841TIP3    H2 5530   3.729   1.522   1.626
 1842TIP3   OH2 5531   6.070   5.751   0.729
 1842TIP3    H1 5532   6.024   5.744   0.646
 1842TIP3    H2 5533   6.034   5.680   0.782
 1843TIP3   OH2 5534   1.959   2.229   2.165
 1843TIP3    H1 5535   1.913   2.150   2.135
 1843TIP3    H2 5536   1.999   2.204   2.248
 1844TIP3   OH2 5537   5.689   1.391   1.084
 1844TIP3    H1 5538   5.664   1.301   1.105
 1844TIP3    H2 5539   5.621   1.421   1.023
 1845TIP3   OH2 5540   3.422   2.608   2.299
 1845TIP3    H1 5541   3.492   2.554   2.263
 1845TIP3    H2 5542   3.347   2.550   2.303
 1846TIP3   OH2 5543   4.820   4.719   4.491
 1846TIP3    H1 5544   4.838   4.652   4.557
 1846TIP3    H2 5545   4.725   4.729   4.492
 1847TIP3   OH2 5546   5.877   4.242   2.334
 1847TIP3    H1 5547   5.857   4.331   2.303
 1847TIP3    H2 5548   5.818   4.229   2.408
 1848TIP3   OH2 5549   2.415   3.076   3.183
 1848TIP3    H1 5550   2.406   3.044   3.093
 1848TIP3    H2 5551   2.418   2.997   3.237
 1849TIP3   OH2 5552   4.122   5.769   3.057
 1849TIP3    H1 5553   4.060   5.840   3.038
 1849TIP3    H2 5554   4.073   5.710   3.115
 1850TIP3   OH2 5555   4.737   2.996   2.297
 1850TIP3    H1 5556   4.808   2.958   2.350
 1850TIP3    H2 5557   4.677   2.923   2.282
 1851TIP3   OH2 5558   5.433   0.683   2.673
 1851TIP3    H1 5559   5.356   0.740   2.661
 1851TIP3    H2 5560   5.443   0.640   2.589
 1852TIP3   OH2 5561   3.660   0.854   3.367
 1852TIP3    H1 5562   3.629   0.936   3.328
 1852TIP3    H2 5563   3.755   0.858   3.357
 1853TIP3   OH2 5564   5.495   4.104   1.286
 1853TIP3    H1 5565   5.510   4.013   1.312
 1853TIP3    H2 5566   5.543   4.114   1.204
 1854TIP3   OH2 5567   3.983   2.167   1.310
 1854TIP3    H1 5568   4.013   2.123   1.389
 1854TIP3    H2 5569   3.898   2.128   1.292
 1855TIP3   OH2 5570   3.959   2.857   4.652
 1855TIP3    H1 5571   4.008   2.775   4.648
 1855TIP3    H2 5572   3.869   2.832   4.630
 1856TIP3   OH2 5573   3.331   1.460   2.842
 1856TIP3    H1 5574   3.305   1.474   2.751
 1856TIP3    H2 5575   3.426   1.447   2.838
 1857TIP3   OH2 5576   1.382   3.272   4.597
 1857TIP3    H1 5577   1.474   3.276   4.569
 1857TIP3    H2 5578   1.367   3.353   4.645
 1858TIP3   OH2 5579   2.365   5.336   3.466
 1858TIP3    H1 5580   2.355   5.291   3.383
 1858TIP3    H2 5581   2.413   5.274   3.521
 1859TIP3   OH2 5582   3.027   5.716   1.758
 1859TIP3    H1 5583   3.072   5.632   1.763
 1859TIP3    H2 5584   2.939   5.698   1.791
 1860TIP3   OH2 5585   1.586   2.324   0.337
 1860TIP3    H1 5586   1.613   2.416   0.335
 1860TIP3    H2 5587   1.512   2.319   0.277
 1861TIP3   OH2 5588   4.103   4.017   2.282
 1861TIP3    H1 5589   4.077   3.940   2.333
 1861TIP3    H2 5590   4.167   3.983   2.219
 1862TIP3   OH2 5591   4.956   3.977   1.562
 1862TIP3    H1 5592   4.945   4.064   1.524
 1862TIP3    H2 5593   4.906   3.919   1.504
 1863TIP3   OH2 5594   4.044   2.603   1.310
 1863TIP3    H1 5595   4.012   2.659   1.381
 1863TIP3    H2 5596   3.966   2.559   1.277
 1864TIP3   OH2 5597   5.629   1.459   0.346
 1864TIP3    H1 5598   5.682   1.503   0.279
 1864TIP3    H2 5599   5.684   1.388   0.377
 1865TIP3   OH2 5600   4.301   1.529   4.724
 1865TIP3    H1 5601   4.320   1.448   4.676
 1865TIP3    H2 5602   4.341   1.598   4.672
 1866TIP3   OH2 5603   0.720   3.291   0.046
 1866TIP3    H1 5604   0.735   3.383   0.024
 1866TIP3    H2 5605   0.801   3.247   0.020
 1867TIP3   OH2 5606   5.541   1.025   4.213
 1867TIP3    H1 5607   5.636   1.023   4.205
 1867TIP3    H2 5608   5.509   0.985   4.132
 1868TIP3   OH2 5609   5.853   4.222   1.721
 1868TIP3    H1 5610   5.828   4.280   1.793
 1868TIP3    H2 5611   5.773   4.173   1.701
 1869TIP3   OH2 5612   5.079   0.997   1.115
 1869TIP3    H1 5613   5.165   0.962   1.139
 1869TIP3    H2 5614   5.087   1.091   1.130
 1870TIP3   OH2 5615   5.725   3.463   0.270
 1870TIP3    H1 5616   5.646   3.425   0.307
 1870TIP3    H2 5617   5.752   3.401   0.202
 1871TIP3   OH2 5618   0.571   0.119   4.296
 1871TIP3    H1 5619   0.612   0.072   4.369
 1871TIP3    H2 5620   0.591   0.066   4.219
 1872TIP3   OH2 5621   0.952   2.579   3.357
 1872TIP3    H1 5622   1.003   2.498   3.356
 1872TIP3    H2 5623   0.939   2.601   3.265
 1873TIP3   OH2 5624   2.678   3.828   4.562
 1873TIP3    H1 5625   2.636   3.744   4.544
 1873TIP3    H2 5626   2.678   3.874   4.479
 1874TIP3   OH2 5627   2.526   5.334   1.194
 1874TIP3    H1 5628   2.470   5.258   1.181
 1874TIP3    H2 5629   2.523   5.380   1.110
 1875TIP3   OH2 5630   3.929   3.489   3.136
 1875TIP3    H1 5631   3.972   3.486   3.221
 1875TIP3    H2 5632   3.988   3.443   3.077
 1876TIP3   OH2 5633   2.419   1.669   2.169
 1876TIP3    H1 5634   2.442   1.758   2.194
 1876TIP3    H2 5635   2.450   1.615   2.242
 1877TIP3   OH2 5636   6.341   4.089   3.631
 1877TIP3    H1 5637   6.323   4.074   3.724
 1877TIP3    H2 5638   6.274   4.038   3.585
 1878TIP3   OH2 5639   6.028   2.140   4.723
 1878TIP3    H1 5640   6.072   2.058   4.746
 1878TIP3    H2 5641   5.973   2.117   4.648
 1879TIP3   OH2 5642   3.655   0.498   1.244
 1879TIP3    H1 5643   3.717   0.434   1.208
 1879TIP3    H2 5644   3.626   0.548   1.169
 1880TIP3   OH2 5645   0.574   2.320   4.547
 1880TIP3    H1 5646   0.630   2.379   4.598
 1880TIP3    H2 5647   0.578   2.237   4.594
 1881TIP3   OH2 5648   4.036   1.364   1.568
 1881TIP3    H1 5649   4.017   1.296   1.632
 1881TIP3    H2 5650   4.031   1.319   1.483
 1882TIP3   OH2 5651   0.788   3.513   3.958
 1882TIP3    H1 5652   0.854   3.575   3.990
 1882TIP3    H2 5653   0.831   3.428   3.964
 1883TIP3   OH2 5654   2.942   1.557   0.835
 1883TIP3    H1 5655   2.906   1.614   0.902
 1883TIP3    H2 5656   2.866   1.512   0.798
 1884TIP3   OH2 5657   0.591   5.312   1.800
 1884TIP3    H1 5658   0.557   5.332   1.887
 1884TIP3    H2 5659   0.553   5.226   1.778
 1885TIP3   OH2 5660   3.793   5.786   2.687
 1885TIP3    H1 5661   3.838   5.856   2.640
 1885TIP3    H2 5662   3.700   5.801   2.668
 1886TIP3   OH2 5663   5.279   0.793   3.154
 1886TIP3    H1 5664   5.305   0.831   3.238
 1886TIP3    H2 5665   5.197   0.838   3.132
 1887TIP3   OH2 5666   2.449   0.410   1.300
 1887TIP3    H1 5667   2.410   0.381   1.217
 1887TIP3    H2 5668   2.404   0.493   1.319
 1888TIP3   OH2 5669   1.574   1.523   4.901
 1888TIP3    H1 5670   1.538   1.475   4.826
 1888TIP3    H2 5671   1.659   1.555   4.870
 1889TIP3   OH2 5672   3.223   5.402   1.408
 1889TIP3    H1 5673   3.177   5.471   1.456
 1889TIP3    H2 5674   3.284   5.448   1.351
 1890TIP3   OH2 5675   2.214   4.380   1.785
 1890TIP3    H1 5676   2.282   4.386   1.852
 1890TIP3    H2 5677   2.205   4.286   1.769
 1891TIP3   OH2 5678   3.973   5.851   0.412
 1891TIP3    H1 5679   4.040   5.886   0.354
 1891TIP3    H2 5680   3.976   5.907   0.489
 1892TIP3   OH2 5681   0.694   5.225   4.791
 1892TIP3    H1 5682   0.630   5.260   4.853
 1892TIP3    H2 5683   0.775   5.270   4.814
 1893TIP3   OH2 5684   2.520   1.850   0.572
 1893TIP3    H1 5685   2.458   1.788   0.611
 1893TIP3    H2 5686   2.506   1.931   0.621
 1894TIP3   OH2 5687   4.788   0.337   3.385
 1894TIP3    H1 5688   4.716   0.324   3.446
 1894TIP3    H2 5689   4.850   0.392   3.433
 1895TIP3   OH2 5690   5.331   3.787   2.160
 1895TIP3    H1 5691   5.261   3.741   2.206
 1895TIP3    H2 5692   5.355   3.859   2.218
 1896TIP3   OH2 5693   3.538   4.200   4.678
 1896TIP3    H1 5694   3.500   4.117   4.651
 1896TIP3    H2 5695   3.632   4.182   4.684
 1897TIP3   OH2 5696   0.255   1.588   2.687
 1897TIP3    H1 5697   0.198   1.661   2.709
 1897TIP3    H2 5698   0.235   1.568   2.595
 1898TIP3   OH2 5699   3.012   4.900   3.047
 1898TIP3    H1 5700   3.041   4.814   3.079
 1898TIP3    H2 5701   3.089   4.938   3.006
 1899TIP3   OH2 5702   4.753   5.359   3.451
 1899TIP3    H1 5703   4.798   5.431   3.406
 1899TIP3    H2 5704   4.823   5.296   3.472
 1900TIP3   OH2 5705   3.119   4.501   2.015
 1900TIP3    H1 5706   3.151   4.486   2.104
 1900TIP3    H2 5707   3.155   4.429   1.964
 1901TIP3   OH2 5708   2.924   1.281   0.113
 1901TIP3    H1 5709   2.974   1.255   0.036
 1901TIP3    H2 5710   2.978   1.348   0.156
 1902TIP3   OH2 5711   0.696   1.163   1.351
 1902TIP3    H1 5712   0.609   1.129   1.372
 1902TIP3    H2 5713   0.680   1.254   1.324
 1903TIP3   OH2 5714   3.768   3.213   0.047
 1903TIP3    H1 5715   3.690   3.219  -0.009
 1903TIP3    H2 5716   3.767   3.123   0.079
 1904TIP3   OH2 5717   0.528   0.105   0.899
 1904TIP3    H1 5718   0.531   0.153   0.817
 1904TIP3    H2 5719   0.493   0.167   0.963
 1905TIP3   OH2 5720   2.576   0.183   1.932
 1905TIP3    H1 5721   2.568   0.173   2.027
 1905TIP3    H2 5722   2.580   0.277   1.917
 1906TIP3   OH2 5723   3.808   4.087   0.324
 1906TIP3    H1 5724   3.730   4.142   0.330
 1906TIP3    H2 5725   3.823   4.077   0.230
 1907TIP3   OH2 5726   3.964   2.306   3.562
 1907TIP3    H1 5727   3.909   2.375   3.524
 1907TIP3    H2 5728   3.927   2.225   3.528
 1908TIP3   OH2 5729   5.884   2.435   1.034
 1908TIP3    H1 5730   5.845   2.370   1.093
 1908TIP3    H2 5731   5.914   2.385   0.959
 1909TIP3   OH2 5732   1.067   2.527   2.014
 1909TIP3    H1 5733   1.019   2.493   2.090
 1909TIP3    H2 5734   1.150   2.479   2.015
 1910TIP3   OH2 5735   3.851   4.930   4.204
 1910TIP3    H1 5736   3.895   4.987   4.266
 1910TIP3    H2 5737   3.786   4.986   4.161
 1911TIP3   OH2 5738   5.941   4.633   1.032
 1911TIP3    H1 5739   5.952   4.716   1.079
 1911TIP3    H2 5740   5.921   4.658   0.942
 1912TIP3   OH2 5741   4.221   4.028   1.972
 1912TIP3    H1 5742   4.147   3.968   1.960
 1912TIP3    H2 5743   4.298   3.973   1.963
 1913TIP3   OH2 5744   6.259   5.831   0.102
 1913TIP3    H1 5745   6.316   5.799   0.032
 1913TIP3    H2 5746   6.296   5.795   0.182
 1914TIP3   OH2 5747   5.309   1.840   0.692
 1914TIP3    H1 5748   5.237   1.812   0.748
 1914TIP3    H2 5749   5.384   1.848   0.751
 1915TIP3   OH2 5750   0.789   0.142   0.128
 1915TIP3    H1 5751   0.824   0.195   0.199
 1915TIP3    H2 5752   0.696   0.165   0.124
 1916TIP3   OH2 5753   1.816   3.652   3.697
 1916TIP3    H1 5754   1.784   3.609   3.618
 1916TIP3    H2 5755   1.911   3.636   3.695
 1917TIP3   OH2 5756   0.677   0.857   2.885
 1917TIP3    H1 5757   0.612   0.884   2.951
 1917TIP3    H2 5758   0.687   0.763   2.898
 1918TIP3   OH2 5759   4.919   5.914   1.050
 1918TIP3    H1 5760   4.902   5.915   1.144
 1918TIP3    H2 5761   4.847   5.964   1.011
 1919TIP3   OH2 5762   2.602   0.880   1.254
 1919TIP3    H1 5763   2.664   0.875   1.326
 1919TIP3    H2 5764   2.519   0.905   1.295
 1920TIP3   OH2 5765   5.711   2.637   0.550
 1920TIP3    H1 5766   5.785   2.625   0.490
 1920TIP3    H2 5767   5.738   2.710   0.606
 1921TIP3   OH2 5768   5.312   5.055   2.660
 1921TIP3    H1 5769   5.238   5.058   2.722
 1921TIP3    H2 5770   5.388   5.037   2.715
 1922TIP3   OH2 5771   1.066   1.983   1.677
 1922TIP3    H1 5772   1.010   1.946   1.610
 1922TIP3    H2 5773   1.056   1.925   1.752
 1923TIP3   OH2 5774   5.225   1.927   4.814
 1923TIP3    H1 5775   5.131   1.929   4.832
 1923TIP3    H2 5776   5.248   2.018   4.797
 1924TIP3   OH2 5777   4.476   0.416   3.339
 1924TIP3    H1 5778   4.418   0.468   3.283
 1924TIP3    H2 5779   4.488   0.334   3.291
 1925TIP3   OH2 5780   4.947   3.801   4.293
 1925TIP3    H1 5781   5.006   3.792   4.219
 1925TIP3    H2 5782   4.872   3.746   4.272
 1926TIP3   OH2 5783   5.756   1.586   5.062
 1926TIP3    H1 5784   5.752   1.508   5.118
 1926TIP3    H2 5785   5.823   1.641   5.103
 1927TIP3   OH2 5786   3.762   5.036   1.578
 1927TIP3    H1 5787   3.829   5.015   1.513
 1927TIP3    H2 5788   3.812   5.052   1.659
 1928TIP3   OH2 5789   3.127   1.723   4.711
 1928TIP3    H1 5790   3.127   1.669   4.790
 1928TIP3    H2 5791   3.163   1.666   4.643
 1929TIP3   OH2 5792   3.807   0.031   3.751
 1929TIP3    H1 5793   3.809   0.093   3.678
 1929TIP3    H2 5794   3.823   0.085   3.829
 1930TIP3   OH2 5795   6.016   5.592   0.933
 1930TIP3    H1 5796   5.962   5.513   0.930
 1930TIP3    H2 5797   5.978   5.645   1.003
 1931TIP3   OH2 5798   5.137   3.564   5.040
 1931TIP3    H1 5799   5.163   3.653   5.016
 1931TIP3    H2 5800   5.139   3.563   5.136
 1932TIP3   OH2 5801   2.713   3.273   4.060
 1932TIP3    H1 5802   2.729   3.336   4.130
 1932TIP3    H2 5803   2.617   3.265   4.057
 1933TIP3   OH2 5804   2.495   3.592   2.497
 1933TIP3    H1 5805   2.501   3.521   2.434
 1933TIP3    H2 5806   2.401   3.611   2.502
 1934TIP3   OH2 5807   5.361   2.659   3.466
 1934TIP3    H1 5808   5.442   2.628   3.506
 1934TIP3    H2 5809   5.351   2.607   3.387
 1935TIP3   OH2 5810   2.720   5.334   3.879
 1935TIP3    H1 5811   2.709   5.396   3.950
 1935TIP3    H2 5812   2.786   5.373   3.822
 1936TIP3   OH2 5813   1.518   2.149   1.948
 1936TIP3    H1 5814   1.494   2.236   1.916
 1936TIP3    H2 5815   1.523   2.096   1.868
 1937TIP3   OH2 5816   5.775   0.153   2.548
 1937TIP3    H1 5817   5.737   0.066   2.563
 1937TIP3    H2 5818   5.709   0.200   2.497
 1938TIP3   OH2 5819   0.422   4.721   0.664
 1938TIP3    H1 5820   0.500   4.739   0.716
 1938TIP3    H2 5821   0.426   4.784   0.592
 1939TIP3   OH2 5822   1.580   3.978   1.742
 1939TIP3    H1 5823   1.544   4.061   1.773
 1939TIP3    H2 5824   1.511   3.914   1.756
 1940TIP3   OH2 5825   2.998   1.179   3.228
 1940TIP3    H1 5826   2.988   1.208   3.318
 1940TIP3    H2 5827   3.046   1.250   3.185
 1941TIP3   OH2 5828   6.244   1.610   0.255
 1941TIP3    H1 5829   6.322   1.577   0.210
 1941TIP3    H2 5830   6.273   1.690   0.298
 1942TIP3   OH2 5831   2.059   3.308   4.916
 1942TIP3    H1 5832   2.089   3.217   4.909
 1942TIP3    H2 5833   2.111   3.345   4.988
 1943TIP3   OH2 5834   0.707   1.855   0.614
 1943TIP3    H1 5835   0.743   1.938   0.645
 1943TIP3    H2 5836   0.783   1.801   0.595
 1944TIP3   OH2 5837   5.071   0.560   5.177
 1944TIP3    H1 5838   5.146   0.550   5.236
 1944TIP3    H2 5839   5.095   0.510   5.099
 1945TIP3   OH2 5840   5.937   2.065   4.037
 1945TIP3    H1 5841   6.019   2.105   4.006
 1945TIP3    H2 5842   5.962   2.017   4.116
 1946TIP3   OH2 5843   4.641   3.074   0.913
 1946TIP3    H1 5844   4.645   3.132   0.989
 1946TIP3    H2 5845   4.725   3.029   0.912
 1947TIP3   OH2 5846   5.303   0.246   4.364
 1947TIP3    H1 5847   5.359   0.172   4.388
 1947TIP3    H2 5848   5.287   0.292   4.446
 1948TIP3   OH2 5849   1.621   3.266   2.776
 1948TIP3    H1 5850   1.706   3.230   2.800
 1948TIP3    H2 5851   1.625   3.357   2.805
 1949TIP3   OH2 5852   4.764   4.555   3.543
 1949TIP3    H1 5853   4.717   4.637   3.559
 1949TIP3    H2 5854   4.703   4.501   3.494
 1950TIP3   OH2 5855   0.212   0.170   4.856
 1950TIP3    H1 5856   0.164   0.228   4.916
 1950TIP3    H2 5857   0.186   0.082   4.883
 1951TIP3   OH2 5858   1.474   0.652   0.687
 1951TIP3    H1 5859   1.506   0.733   0.727
 1951TIP3    H2 5860   1.525   0.583   0.729
 1952TIP3   OH2 5861   3.435   0.423   1.751
 1952TIP3    H1 5862   3.416   0.516   1.757
 1952TIP3    H2 5863   3.440   0.405   1.657
 1953TIP3   OH2 5864   5.378   5.723   0.081
 1953TIP3    H1 5865   5.351   5.758   0.166
 1953TIP3    H2 5866   5.437   5.651   0.102
 1954TIP3   OH2 5867   1.761   0.881   0.058
 1954TIP3    H1 5868   1.820   0.809   0.079
 1954TIP3    H2 5869   1.801   0.923  -0.018
 1955TIP3   OH2 5870   2.077   3.632   3.957
 1955TIP3    H1 5871   2.143   3.683   3.909
 1955TIP3    H2 5872   2.098   3.541   3.936
 1956TIP3   OH2 5873   2.143   2.025   3.722
 1956TIP3    H1 5874   2.199   1.952   3.696
 1956TIP3    H2 5875   2.129   2.075   3.641
 1957TIP3   OH2 5876   2.553   2.688   3.800
 1957TIP3    H1 5877   2.532   2.653   3.713
 1957TIP3    H2 5878   2.644   2.661   3.814
 1958TIP3   OH2 5879   1.063   1.874   3.417
 1958TIP3    H1 5880   1.085   1.794   3.369
 1958TIP3    H2 5881   0.975   1.897   3.386
 1959TIP3   OH2 5882   1.675   3.287   0.613
 1959TIP3    H1 5883   1.641   3.269   0.526
 1959TIP3    H2 5884   1.769   3.299   0.601
 1960TIP3   OH2 5885   2.039   1.670   2.557
 1960TIP3    H1 5886   1.963   1.614   2.539
 1960TIP3    H2 5887   2.001   1.752   2.589
 1961TIP3   OH2 5888   4.697   1.420   0.159
 1961TIP3    H1 5889   4.713   1.503   0.204
 1961TIP3    H2 5890   4.684   1.357   0.230
 1962TIP3   OH2 5891   3.042   4.176   4.237
 1962TIP3    H1 5892   3.067   4.269   4.238
 1962TIP3    H2 5893   2.950   4.176   4.209
 1963TIP3   OH2 5894   5.271   0.778   5.061
 1963TIP3    H1 5895   5.350   0.810   5.017
 1963TIP3    H2 5896   5.265   0.686   5.036
 1964TIP3   OH2 5897   1.462   0.641   4.006
 1964TIP3    H1 5898   1.401   0.605   3.941
 1964TIP3    H2 5899   1.468   0.734   3.983
 1965TIP3   OH2 5900   0.556   1.707   4.457
 1965TIP3    H1 5901   0.633   1.747   4.415
 1965TIP3    H2 5902   0.593   1.656   4.530
 1966TIP3   OH2 5903   6.123   2.229   3.229
 1966TIP3    H1 5904   6.216   2.249   3.224
 1966TIP3    H2 5905   6.092   2.235   3.138
 1967TIP3   OH2 5906   2.918   3.902   2.773
 1967TIP3    H1 5907   2.826   3.908   2.797
 1967TIP3    H2 5908   2.965   3.923   2.853
 1968TIP3   OH2 5909   2.661   2.879   3.148
 1968TIP3    H1 5910   2.610   2.944   3.099
 1968TIP3    H2 5911   2.739   2.927   3.176
 1969TIP3   OH2 5912   2.919   0.481   2.425
 1969TIP3    H1 5913   2.838   0.529   2.445
 1969TIP3    H2 5914   2.961   0.468   2.510
 1970TIP3   OH2 5915   5.490   4.932   0.192
 1970TIP3    H1 5916   5.414   4.988   0.201
 1970TIP3    H2 5917   5.562   4.991   0.170
 1971TIP3   OH2 5918   4.049   3.174   3.971
 1971TIP3    H1 5919   4.131   3.133   3.997
 1971TIP3    H2 5920   3.997   3.180   4.051
 1972TIP3   OH2 5921   1.406   2.262   0.113
 1972TIP3    H1 5922   1.363   2.312   0.044
 1972TIP3    H2 5923   1.489   2.233   0.074
 1973TIP3   OH2 5924   4.418   5.519   1.795
 1973TIP3    H1 5925   4.410   5.612   1.817
 1973TIP3    H2 5926   4.376   5.512   1.709
 1974TIP3   OH2 5927   4.180   0.379   0.974
 1974TIP3    H1 5928   4.234   0.393   1.052
 1974TIP3    H2 5929   4.164   0.467   0.939
 1975TIP3   OH2 5930   4.572   2.857   1.785
 1975TIP3    H1 5931   4.638   2.925   1.799
 1975TIP3    H2 5932   4.507   2.874   1.853
 1976TIP3   OH2 5933   5.529   5.428   0.115
 1976TIP3    H1 5934   5.620   5.442   0.088
 1976TIP3    H2 5935   5.499   5.357   0.058
 1977TIP3   OH2 5936   4.912   4.259   1.811
 1977TIP3    H1 5937   4.998   4.254   1.770
 1977TIP3    H2 5938   4.858   4.307   1.748
 1978TIP3   OH2 5939   0.402   2.959   0.748
 1978TIP3    H1 5940   0.385   3.034   0.806
 1978TIP3    H2 5941   0.345   2.890   0.781
 1979TIP3   OH2 5942   3.604   5.565   0.123
 1979TIP3    H1 5943   3.526   5.512   0.137
 1979TIP3    H2 5944   3.672   5.523   0.176
 1980TIP3   OH2 5945   2.921   5.158   0.632
 1980TIP3    H1 5946   2.931   5.212   0.710
 1980TIP3    H2 5947   2.839   5.111   0.645
 1981TIP3   OH2 5948   0.750   1.478   3.010
 1981TIP3    H1 5949   0.770   1.494   2.918
 1981TIP3    H2 5950   0.656   1.495   3.018
 1982TIP3   OH2 5951   1.118   2.190   4.653
 1982TIP3    H1 5952   1.070   2.169   4.733
 1982TIP3    H2 5953   1.063   2.253   4.607
 1983TIP3   OH2 5954   6.022   1.118   0.102
 1983TIP3    H1 5955   6.041   1.116   0.196
 1983TIP3    H2 5956   6.106   1.141   0.062
 1984TIP3   OH2 5957   1.217   0.548   1.195
 1984TIP3    H1 5958   1.132   0.572   1.159
 1984TIP3    H2 5959   1.281   0.590   1.137
 1985TIP3   OH2 5960   2.850   2.753   2.374
 1985TIP3    H1 5961   2.832   2.790   2.460
 1985TIP3    H2 5962   2.898   2.672   2.392
 1986TIP3   OH2 5963   4.557   5.803   0.282
 1986TIP3    H1 5964   4.539   5.719   0.239
 1986TIP3    H2 5965   4.499   5.803   0.359
 1987TIP3   OH2 5966   1.842   0.180   3.458
 1987TIP3    H1 5967   1.935   0.190   3.476
 1987TIP3    H2 5968   1.839   0.130   3.376
 1988TIP3   OH2 5969   6.271   3.187   1.079
 1988TIP3    H1 5970   6.363   3.162   1.090
 1988TIP3    H2 5971   6.263   3.268   1.130
 1989TIP3   OH2 5972   1.069   2.774   2.439
 1989TIP3    H1 5973   1.014   2.839   2.483
 1989TIP3    H2 5974   1.158   2.809   2.445
 1990TIP3   OH2 5975   0.673   0.122   2.090
 1990TIP3    H1 5976   0.684   0.050   2.152
 1990TIP3    H2 5977   0.615   0.088   2.022
 1991TIP3   OH2 5978   5.749   3.117   0.680
 1991TIP3    H1 5979   5.816   3.185   0.672
 1991TIP3    H2 5980   5.699   3.123   0.598
 1992TIP3   OH2 5981   3.414   4.817   4.809
 1992TIP3    H1 5982   3.506   4.813   4.785
 1992TIP3    H2 5983   3.367   4.797   4.728
 1993TIP3   OH2 5984   4.106   1.025  -0.017
 1993TIP3    H1 5985   4.092   0.946   0.035
 1993TIP3    H2 5986   4.074   1.096   0.039
 1994TIP3   OH2 5987   3.608   3.001   2.547
 1994TIP3    H1 5988   3.566   2.921   2.580
 1994TIP3    H2 5989   3.648   3.040   2.625
 1995TIP3   OH2 5990   0.224   0.712   1.593
 1995TIP3    H1 5991   0.217   0.771   1.668
 1995TIP3    H2 5992   0.234   0.770   1.518
 1996TIP3   OH2 5993   4.689   0.155   0.350
 1996TIP3    H1 5994   4.751   0.218   0.313
 1996TIP3    H2 5995   4.633   0.131   0.277
 1997TIP3   OH2 5996   6.012   1.325   1.237
 1997TIP3    H1 5997   6.076   1.341   1.167
 1997TIP3    H2 5998   6.008   1.408   1.285
 1998TIP3   OH2 5999   4.356   5.711   4.581
 1998TIP3    H1 6000   4.365   5.799   4.542
 1998TIP3    H2 6001   4.420   5.658   4.535
 1999TIP3   OH2 6002   0.435   1.020   0.612
 1999TIP3    H1 6003   0.479   1.103   0.628
 1999TIP3    H2 6004   0.494   0.954   0.649
 2000TIP3   OH2 6005   3.522   2.404   2.981
 2000TIP3    H1 6006   3.461   2.441   2.917
 2000TIP3    H2 6007   3.534   2.474   3.046
 2001TIP3   OH2 6008   1.480   1.677   0.701
 2001TIP3    H1 6009   1.473   1.584   0.683
 2001TIP3    H2 6010   1.410   1.695   0.764
 2002TIP3   OH2 6011   0.035   5.492   0.432
 2002TIP3    H1 6012   0.020   5.514   0.524
 2002TIP3    H2 6013   0.102   5.424   0.435
 2003TIP3   OH2 6014   3.179   5.382   4.081
 2003TIP3    H1 6015   3.219   5.315   4.027
 2003TIP3    H2 6016   3.190   5.351   4.171
 2004TIP3   OH2 6017   3.309   1.901   1.345
 2004TIP3    H1 6018   3.254   1.823   1.336
 2004TIP3    H2 6019   3.352   1.891   1.430
 2005TIP3   OH2 6020   1.801   3.388   1.926
 2005TIP3    H1 6021   1.832   3.321   1.987
 2005TIP3    H2 6022   1.835   3.470   1.960
 2006TIP3   OH2 6023   3.222   4.233   2.317
 2006TIP3    H1 6024   3.202   4.209   2.227
 2006TIP3    H2 6025   3.212   4.328   2.319
 2007TIP3   OH2 6026   5.847   3.891   3.333
 2007TIP3    H1 6027   5.847   3.819   3.396
 2007TIP3    H2 6028   5.919   3.870   3.273
 2008TIP3   OH2 6029   2.630   1.794   2.980
 2008TIP3    H1 6030   2.601   1.823   3.067
 2008TIP3    H2 6031   2.557   1.817   2.922
 2009TIP3   OH2 6032   0.852   5.149   4.470
 2009TIP3    H1 6033   0.761   5.172   4.451
 2009TIP3    H2 6034   0.875   5.084   4.404
 2010TIP3   OH2 6035   2.703   3.505   3.456
 2010TIP3    H1 6036   2.774   3.452   3.422
 2010TIP3    H2 6037   2.713   3.502   3.551
 2011TIP3   OH2 6038   1.859   5.974   2.988
 2011TIP3    H1 6039   1.939   5.952   3.036
 2011TIP3    H2 6040   1.876   6.060   2.951
 2012TIP3   OH2 6041   2.488   4.650   3.417
 2012TIP3    H1 6042   2.414   4.612   3.465
 2012TIP3    H2 6043   2.561   4.644   3.478
 2013TIP3   OH2 6044   5.246   5.646   1.731
 2013TIP3    H1 6045   5.317   5.692   1.775
 2013TIP3    H2 6046   5.273   5.640   1.640
 2014TIP3   OH2 6047   5.688   4.222   2.068
 2014TIP3    H1 6048   5.770   4.201   2.112
 2014TIP3    H2 6049   5.651   4.295   2.118
 2015TIP3   OH2 6050   0.195   1.277   2.182
 2015TIP3    H1 6051   0.130   1.224   2.135
 2015TIP3    H2 6052   0.270   1.279   2.123
 2016TIP3   OH2 6053   3.068   1.137   2.924
 2016TIP3    H1 6054   3.080   1.220   2.970
 2016TIP3    H2 6055   3.149   1.089   2.941
 2017TIP3   OH2 6056   4.897   4.605   1.426
 2017TIP3    H1 6057   4.988   4.616   1.456
 2017TIP3    H2 6058   4.845   4.646   1.495
 2018TIP3   OH2 6059   0.830   3.306   4.539
 2018TIP3    H1 6060   0.858   3.307   4.448
 2018TIP3    H2 6061   0.910   3.325   4.589
 2019TIP3   OH2 6062   2.236   1.822   1.243
 2019TIP3    H1 6063   2.149   1.797   1.213
 2019TIP3    H2 6064   2.244   1.915   1.222
 2020TIP3   OH2 6065   4.273   2.296   2.529
 2020TIP3    H1 6066   4.250   2.215   2.484
 2020TIP3    H2 6067   4.369   2.295   2.533
 2021TIP3   OH2 6068   3.571   5.606   3.198
 2021TIP3    H1 6069   3.622   5.540   3.151
 2021TIP3    H2 6070   3.529   5.657   3.129
 2022TIP3   OH2 6071   4.402   2.134   4.551
 2022TIP3    H1 6072   4.463   2.185   4.605
 2022TIP3    H2 6073   4.354   2.199   4.501
 2023TIP3   OH2 6074   1.680   0.787   0.975
 2023TIP3    H1 6075   1.705   0.797   0.884
 2023TIP3    H2 6076   1.670   0.877   1.007
 2024TIP3   OH2 6077   2.751   3.573   0.530
 2024TIP3    H1 6078   2.672   3.580   0.477
 2024TIP3    H2 6079   2.761   3.659   0.570
 2025TIP3   OH2 6080   2.787   5.619   1.830
 2025TIP3    H1 6081   2.702   5.635   1.790
 2025TIP3    H2 6082   2.768   5.602   1.923
 2026TIP3   OH2 6083   5.636   3.905   4.096
 2026TIP3    H1 6084   5.611   3.816   4.122
 2026TIP3    H2 6085   5.582   3.924   4.020
 2027TIP3   OH2 6086   5.886   5.781   4.260
 2027TIP3    H1 6087   5.935   5.850   4.305
 2027TIP3    H2 6088   5.824   5.749   4.326
 2028TIP3   OH2 6089   0.105   3.774   1.183
 2028TIP3    H1 6090   0.131   3.859   1.149
 2028TIP3    H2 6091   0.183   3.719   1.176
 2029TIP3   OH2 6092   3.672   2.841   4.104
 2029TIP3    H1 6093   3.718   2.895   4.040
 2029TIP3    H2 6094   3.583   2.875   4.104
 2030TIP3   OH2 6095   4.980   4.939   4.462
 2030TIP3    H1 6096   5.061   4.906   4.422
 2030TIP3    H2 6097   4.922   4.863   4.465
 2031TIP3   OH2 6098   3.629   1.450   4.062
 2031TIP3    H1 6099   3.592   1.519   4.117
 2031TIP3    H2 6100   3.569   1.376   4.073
 2032TIP3   OH2 6101   3.891   3.744   4.184
 2032TIP3    H1 6102   3.899   3.785   4.098
 2032TIP3    H2 6103   3.893   3.817   4.246
 2033TIP3   OH2 6104   0.496   2.478   4.894
 2033TIP3    H1 6105   0.509   2.387   4.922
 2033TIP3    H2 6106   0.454   2.520   4.969
 2034TIP3   OH2 6107   3.068   5.160   3.908
 2034TIP3    H1 6108   3.129   5.088   3.896
 2034TIP3    H2 6109   3.067   5.206   3.824
 2035TIP3   OH2 6110   6.032   1.184   3.040
 2035TIP3    H1 6111   5.975   1.188   3.117
 2035TIP3    H2 6112   6.067   1.273   3.032
 2036TIP3   OH2 6113   5.853   3.840   2.485
 2036TIP3    H1 6114   5.928   3.846   2.426
 2036TIP3    H2 6115   5.847   3.748   2.508
 2037TIP3   OH2 6116   4.405   4.437   1.042
 2037TIP3    H1 6117   4.470   4.388   1.091
 2037TIP3    H2 6118   4.455   4.504   0.996
 2038TIP3   OH2 6119   0.948   2.405   2.942
 2038TIP3    H1 6120   0.955   2.373   2.852
 2038TIP3    H2 6121   0.967   2.328   2.996
 2039TIP3   OH2 6122   4.083   5.434   0.319
 2039TIP3    H1 6123   4.072   5.477   0.404
 2039TIP3    H2 6124   4.120   5.348   0.339
 2040TIP3   OH2 6125   0.046   2.913   2.295
 2040TIP3    H1 6126  -0.005   2.986   2.329
 2040TIP3    H2 6127  -0.008   2.836   2.312
 2041TIP3   OH2 6128   2.497   4.077   4.664
 2041TIP3    H1 6129   2.525   4.169   4.658
 2041TIP3    H2 6130   2.573   4.027   4.634
 2042TIP3   OH2 6131   1.064   0.423   2.302
 2042TIP3    H1 6132   1.060   0.328   2.291
 2042TIP3    H2 6133   1.028   0.458   2.220
 2043TIP3   OH2 6134   3.654   2.731   2.759
 2043TIP3    H1 6135   3.570   2.698   2.727
 2043TIP3    H2 6136   3.713   2.656   2.752
 2044TIP3   OH2 6137   4.134   1.025   1.749
 2044TIP3    H1 6138   4.190   0.990   1.679
 2044TIP3    H2 6139   4.182   1.004   1.830
 2045TIP3   OH2 6140   1.224   4.292   0.210
 2045TIP3    H1 6141   1.178   4.330   0.135
 2045TIP3    H2 6142   1.175   4.324   0.286
 2046TIP3   OH2 6143   0.903   0.943   0.165
 2046TIP3    H1 6144   0.884   1.003   0.092
 2046TIP3    H2 6145   0.891   0.856   0.128
 2047TIP3   OH2 6146   2.317   0.890   4.512
 2047TIP3    H1 6147   2.312   0.882   4.607
 2047TIP3    H2 6148   2.400   0.849   4.489
 2048TIP3   OH2 6149   4.724   4.438   1.994
 2048TIP3    H1 6150   4.781   4.411   1.922
 2048TIP3    H2 6151   4.665   4.364   2.007
 2049TIP3   OH2 6152   0.390   4.483   4.592
 2049TIP3    H1 6153   0.468   4.454   4.639
 2049TIP3    H2 6154   0.409   4.463   4.500
 2050TIP3   OH2 6155   4.608   5.337   1.824
 2050TIP3    H1 6156   4.556   5.288   1.889
 2050TIP3    H2 6157   4.552   5.409   1.798
 2051TIP3   OH2 6158   3.287   5.013   3.302
 2051TIP3    H1 6159   3.267   4.920   3.291
 2051TIP3    H2 6160   3.263   5.033   3.393
 2052TIP3   OH2 6161   1.102   2.966   5.017
 2052TIP3    H1 6162   1.141   2.900   4.960
 2052TIP3    H2 6163   1.160   3.042   5.009
 2053TIP3   OH2 6164   0.747   1.847   3.354
 2053TIP3    H1 6165   0.765   1.767   3.305
 2053TIP3    H2 6166   0.653   1.843   3.373
 2054TIP3   OH2 6167   0.988   1.436   0.518
 2054TIP3    H1 6168   1.037   1.517   0.527
 2054TIP3    H2 6169   1.051   1.374   0.481
 2055TIP3   OH2 6170   5.350   2.364   0.167
 2055TIP3    H1 6171   5.437   2.374   0.127
 2055TIP3    H2 6172   5.334   2.270   0.165
 2056TIP3   OH2 6173   3.612   5.765   4.950
 2056TIP3    H1 6174   3.619   5.704   5.024
 2056TIP3    H2 6175   3.539   5.821   4.973
 2057TIP3   OH2 6176   6.343   2.605   0.235
 2057TIP3    H1 6177   6.360   2.664   0.308
 2057TIP3    H2 6178   6.259   2.635   0.199
 2058TIP3   OH2 6179   5.559   4.145   2.351
 2058TIP3    H1 6180   5.476   4.182   2.381
 2058TIP3    H2 6181   5.613   4.221   2.331
 2059TIP3   OH2 6182   0.840   3.594   2.651
 2059TIP3    H1 6183   0.769   3.591   2.588
 2059TIP3    H2 6184   0.800   3.626   2.732
 2060TIP3   OH2 6185   2.314   2.288   4.570
 2060TIP3    H1 6186   2.395   2.333   4.545
 2060TIP3    H2 6187   2.294   2.322   4.657
 2061TIP3   OH2 6188   2.925   1.262   4.444
 2061TIP3    H1 6189   2.981   1.215   4.383
 2061TIP3    H2 6190   2.860   1.304   4.388
 2062TIP3   OH2 6191   1.565   1.878   0.079
 2062TIP3    H1 6192   1.603   1.800   0.119
 2062TIP3    H2 6193   1.518   1.921   0.150
 2063TIP3   OH2 6194   3.325   3.555   1.041
 2063TIP3    H1 6195   3.341   3.466   1.071
 2063TIP3    H2 6196   3.340   3.610   1.118
 2064TIP3   OH2 6197   4.735   1.201   3.379
 2064TIP3    H1 6198   4.685   1.160   3.309
 2064TIP3    H2 6199   4.810   1.142   3.393
 2065TIP3   OH2 6200   3.248   0.420   0.025
 2065TIP3    H1 6201   3.237   0.432   0.120
 2065TIP3    H2 6202   3.163   0.390  -0.005
 2066TIP3   OH2 6203   4.280   1.292   0.806
 2066TIP3    H1 6204   4.239   1.270   0.722
 2066TIP3    H2 6205   4.354   1.232   0.814
 2067TIP3   OH2 6206   4.509   3.248   2.566
 2067TIP3    H1 6207   4.536   3.211   2.482
 2067TIP3    H2 6208   4.591   3.277   2.607
 2068TIP3   OH2 6209   5.209   1.171   4.537
 2068TIP3    H1 6210   5.244   1.095   4.490
 2068TIP3    H2 6211   5.144   1.134   4.597
 2069TIP3   OH2 6212   2.690   2.158   3.662
 2069TIP3    H1 6213   2.784   2.142   3.671
 2069TIP3    H2 6214   2.650   2.105   3.730
 2070TIP3   OH2 6215   2.284   1.605   0.472
 2070TIP3    H1 6216   2.260   1.697   0.475
 2070TIP3    H2 6217   2.221   1.561   0.530
 2071TIP3   OH2 6218   5.420   1.662   4.149
 2071TIP3    H1 6219   5.349   1.618   4.101
 2071TIP3    H2 6220   5.475   1.590   4.180
 2072TIP3   OH2 6221   2.790   5.757   3.383
 2072TIP3    H1 6222   2.778   5.831   3.442
 2072TIP3    H2 6223   2.883   5.735   3.390
 2073TIP3   OH2 6224   1.502   2.551   0.977
 2073TIP3    H1 6225   1.427   2.567   0.920
 2073TIP3    H2 6226   1.464   2.524   1.061
 2074TIP3   OH2 6227   4.450   5.117   0.348
 2074TIP3    H1 6228   4.502   5.190   0.380
 2074TIP3    H2 6229   4.467   5.046   0.409
 2075TIP3   OH2 6230   3.748   5.060   0.198
 2075TIP3    H1 6231   3.708   5.142   0.227
 2075TIP3    H2 6232   3.695   4.992   0.237
 2076TIP3   OH2 6233   5.453   1.280   2.126
 2076TIP3    H1 6234   5.395   1.267   2.201
 2076TIP3    H2 6235   5.468   1.374   2.124
 2077TIP3   OH2 6236   4.582   1.092   2.196
 2077TIP3    H1 6237   4.577   1.083   2.101
 2077TIP3    H2 6238   4.515   1.033   2.230
 2078TIP3   OH2 6239   5.933   3.353   4.094
 2078TIP3    H1 6240   5.908   3.379   4.183
 2078TIP3    H2 6241   6.000   3.285   4.107
 2079TIP3   OH2 6242   5.982   3.277   0.623
 2079TIP3    H1 6243   6.033   3.309   0.698
 2079TIP3    H2 6244   5.968   3.353   0.568
 2080TIP3   OH2 6245   0.925   5.545   0.891
 2080TIP3    H1 6246   0.926   5.602   0.968
 2080TIP3    H2 6247   0.947   5.603   0.818
 2081TIP3   OH2 6248   2.869   5.580   4.220
 2081TIP3    H1 6249   2.811   5.635   4.168
 2081TIP3    H2 6250   2.877   5.498   4.170
 2082TIP3   OH2 6251   3.264   3.922   1.124
 2082TIP3    H1 6252   3.331   3.985   1.150
 2082TIP3    H2 6253   3.299   3.837   1.152
 2083TIP3   OH2 6254   3.340   1.063   2.948
 2083TIP3    H1 6255   3.332   0.969   2.962
 2083TIP3    H2 6256   3.390   1.095   3.024
 2084TIP3   OH2 6257   1.681   0.801   4.990
 2084TIP3    H1 6258   1.661   0.709   5.003
 2084TIP3    H2 6259   1.596   0.842   4.972
 2085TIP3   OH2 6260   5.200   2.626   0.879
 2085TIP3    H1 6261   5.220   2.688   0.949
 2085TIP3    H2 6262   5.214   2.540   0.919
 2086TIP3   OH2 6263   2.161   3.257   0.383
 2086TIP3    H1 6264   2.110   3.319   0.434
 2086TIP3    H2 6265   2.252   3.283   0.397
 2087TIP3   OH2 6266   1.418   5.535   3.285
 2087TIP3    H1 6267   1.505   5.572   3.303
 2087TIP3    H2 6268   1.391   5.577   3.203
 2088TIP3   OH2 6269   4.306   2.556   1.607
 2088TIP3    H1 6270   4.375   2.527   1.667
 2088TIP3    H2 6271   4.339   2.537   1.520
 2089TIP3   OH2 6272   5.604   0.609   3.315
 2089TIP3    H1 6273   5.594   0.523   3.274
 2089TIP3    H2 6274   5.598   0.592   3.409
 2090TIP3   OH2 6275   0.575   3.451   3.004
 2090TIP3    H1 6276   0.484   3.446   3.033
 2090TIP3    H2 6277   0.570   3.454   2.908
 2091TIP3   OH2 6278   3.675   3.395   3.072
 2091TIP3    H1 6279   3.755   3.435   3.108
 2091TIP3    H2 6280   3.648   3.454   3.002
 2092TIP3   OH2 6281   4.845   2.701   0.728
 2092TIP3    H1 6282   4.833   2.656   0.645
 2092TIP3    H2 6283   4.919   2.760   0.713
 2093TIP3   OH2 6284   1.481   5.236   3.519
 2093TIP3    H1 6285   1.567   5.248   3.479
 2093TIP3    H2 6286   1.498   5.182   3.597
 2094TIP3   OH2 6287   0.170   0.441   1.587
 2094TIP3    H1 6288   0.075   0.439   1.572
 2094TIP3    H2 6289   0.190   0.534   1.598
 2095TIP3   OH2 6290   4.051   4.862   4.551
 2095TIP3    H1 6291   4.022   4.914   4.477
 2095TIP3    H2 6292   4.013   4.905   4.628
 2096TIP3   OH2 6293   0.943   5.412   2.091
 2096TIP3    H1 6294   0.861   5.460   2.100
 2096TIP3    H2 6295   0.926   5.349   2.021
 2097TIP3   OH2 6296   3.185   0.356   3.038
 2097TIP3    H1 6297   3.151   0.342   3.126
 2097TIP3    H2 6298   3.280   0.360   3.049
 2098TIP3   OH2 6299   5.003   5.713   2.708
 2098TIP3    H1 6300   5.019   5.767   2.786
 2098TIP3    H2 6301   5.047   5.630   2.726
 2099TIP3   OH2 6302   4.020   4.004   3.733
 2099TIP3    H1 6303   4.037   3.929   3.676
 2099TIP3    H2 6304   3.958   4.058   3.683
 2100TIP3   OH2 6305   1.531   3.552   4.960
 2100TIP3    H1 6306   1.600   3.578   5.021
 2100TIP3    H2 6307   1.569   3.481   4.908
 2101TIP3   OH2 6308   2.743   5.635   2.118
 2101TIP3    H1 6309   2.663   5.686   2.129
 2101TIP3    H2 6310   2.813   5.694   2.145
 2102TIP3   OH2 6311   0.572   5.959   0.701
 2102TIP3    H1 6312   0.650   5.941   0.753
 2102TIP3    H2 6313   0.501   5.915   0.747
 2103TIP3   OH2 6314   2.474   3.277   4.225
 2103TIP3    H1 6315   2.418   3.201   4.218
 2103TIP3    H2 6316   2.503   3.277   4.316
 2104TIP3   OH2 6317   4.972   3.838   1.781
 2104TIP3    H1 6318   4.942   3.756   1.741
 2104TIP3    H2 6319   4.980   3.899   1.708
 2105TIP3   OH2 6320   5.981   3.042   1.816
 2105TIP3    H1 6321   6.046   3.057   1.748
 2105TIP3    H2 6322   5.897   3.064   1.776
 2106TIP3   OH2 6323   3.307   4.593   2.501
 2106TIP3    H1 6324   3.259   4.641   2.569
 2106TIP3    H2 6325   3.357   4.528   2.549
 2107TIP3   OH2 6326   1.211   5.605   5.087
 2107TIP3    H1 6327   1.283   5.543   5.086
 2107TIP3    H2 6328   1.174   5.601   4.999
 2108TIP3   OH2 6329   5.348   3.266   2.770
 2108TIP3    H1 6330   5.435   3.264   2.809
 2108TIP3    H2 6331   5.353   3.204   2.697
 2109TIP3   OH2 6332   2.379   1.506   4.133
 2109TIP3    H1 6333   2.353   1.452   4.208
 2109TIP3    H2 6334   2.457   1.463   4.098
 2110TIP3   OH2 6335   2.804   4.978   1.231
 2110TIP3    H1 6336   2.873   4.918   1.203
 2110TIP3    H2 6337   2.816   5.055   1.176
 2111TIP3   OH2 6338   1.705   4.397   4.515
 2111TIP3    H1 6339   1.729   4.328   4.453
 2111TIP3    H2 6340   1.688   4.474   4.461
 2112TIP3   OH2 6341   4.400   4.327   4.731
 2112TIP3    H1 6342   4.338   4.276   4.681
 2112TIP3    H2 6343   4.348   4.397   4.770
 2113TIP3   OH2 6344   2.571   2.583   3.185
 2113TIP3    H1 6345   2.657   2.542   3.178
 2113TIP3    H2 6346   2.587   2.676   3.171
 2114TIP3   OH2 6347   5.112   3.060   2.132
 2114TIP3    H1 6348   5.053   3.125   2.094
 2114TIP3    H2 6349   5.055   2.986   2.154
 2115TIP3   OH2 6350   0.876   1.913   4.813
 2115TIP3    H1 6351   0.928   1.985   4.849
 2115TIP3    H2 6352   0.938   1.861   4.762
 2116TIP3   OH2 6353   1.639   3.975   2.598
 2116TIP3    H1 6354   1.552   4.013   2.611
 2116TIP3    H2 6355   1.622   3.888   2.563
 2117TIP3   OH2 6356   0.781   3.833   3.454
 2117TIP3    H1 6357   0.739   3.756   3.493
 2117TIP3    H2 6358   0.805   3.887   3.529
 2118TIP3   OH2 6359   1.482   3.164   3.411
 2118TIP3    H1 6360   1.443   3.111   3.480
 2118TIP3    H2 6361   1.487   3.252   3.448
 2119TIP3   OH2 6362   6.018   5.769   4.019
 2119TIP3    H1 6363   5.959   5.800   4.087
 2119TIP3    H2 6364   6.105   5.796   4.048
 2120TIP3   OH2 6365   5.294   2.863   1.329
 2120TIP3    H1 6366   5.217   2.908   1.365
 2120TIP3    H2 6367   5.366   2.924   1.342
 2121TIP3   OH2 6368   1.344   4.321   1.248
 2121TIP3    H1 6369   1.297   4.391   1.203
 2121TIP3    H2 6370   1.339   4.343   1.341
 2122TIP3   OH2 6371   1.722   3.002   3.802
 2122TIP3    H1 6372   1.753   3.007   3.892
 2122TIP3    H2 6373   1.689   3.091   3.783
 2123TIP3   OH2 6374   6.141   0.419   3.344
 2123TIP3    H1 6375   6.235   0.438   3.354
 2123TIP3    H2 6376   6.109   0.486   3.285
 2124TIP3   OH2 6377   0.712   4.742   3.063
 2124TIP3    H1 6378   0.663   4.802   3.007
 2124TIP3    H2 6379   0.804   4.766   3.049
 2125TIP3   OH2 6380   1.799   2.653   0.475
 2125TIP3    H1 6381   1.833   2.724   0.530
 2125TIP3    H2 6382   1.732   2.611   0.528
 2126TIP3   OH2 6383   2.790   1.694   3.951
 2126TIP3    H1 6384   2.858   1.708   3.885
 2126TIP3    H2 6385   2.827   1.734   4.030
 2127TIP3   OH2 6386   3.558   1.403   0.897
 2127TIP3    H1 6387   3.474   1.375   0.934
 2127TIP3    H2 6388   3.611   1.323   0.895
 2128TIP3   OH2 6389   2.658   1.860   2.698
 2128TIP3    H1 6390   2.577   1.880   2.744
 2128TIP3    H2 6391   2.679   1.770   2.723
 2129TIP3   OH2 6392   3.965   5.056   1.777
 2129TIP3    H1 6393   4.021   5.129   1.805
 2129TIP3    H2 6394   3.973   4.992   1.847
 2130TIP3   OH2 6395   1.896   1.520   1.256
 2130TIP3    H1 6396   1.821   1.537   1.314
 2130TIP3    H2 6397   1.937   1.606   1.246
 2131TIP3   OH2 6398   5.556   1.945   4.726
 2131TIP3    H1 6399   5.609   2.024   4.720
 2131TIP3    H2 6400   5.532   1.939   4.818
 2132TIP3   OH2 6401   6.356   1.953   4.296
 2132TIP3    H1 6402   6.420   1.883   4.277
 2132TIP3    H2 6403   6.272   1.917   4.267
 2133TIP3   OH2 6404   1.679   4.680   2.263
 2133TIP3    H1 6405   1.670   4.775   2.257
 2133TIP3    H2 6406   1.688   4.651   2.172
 2134TIP3   OH2 6407   3.509   2.361   1.833
 2134TIP3    H1 6408   3.529   2.317   1.916
 2134TIP3    H2 6409   3.442   2.426   1.856
 2135TIP3   OH2 6410   2.512   5.408   2.926
 2135TIP3    H1 6411   2.446   5.445   2.866
 2135TIP3    H2 6412   2.596   5.438   2.890
 2136TIP3   OH2 6413   3.659   5.533   0.818
 2136TIP3    H1 6414   3.611   5.567   0.742
 2136TIP3    H2 6415   3.606   5.560   0.893
 2137TIP3   OH2 6416   0.170   0.498   4.334
 2137TIP3    H1 6417   0.171   0.494   4.430
 2137TIP3    H2 6418   0.202   0.412   4.306
 2138TIP3   OH2 6419   2.772   1.863   1.700
 2138TIP3    H1 6420   2.846   1.840   1.643
 2138TIP3    H2 6421   2.810   1.922   1.765
 2139TIP3   OH2 6422   0.964   4.835   3.114
 2139TIP3    H1 6423   1.012   4.773   3.168
 2139TIP3    H2 6424   1.021   4.852   3.039
 2140TIP3   OH2 6425   5.440   2.207   0.405
 2140TIP3    H1 6426   5.395   2.166   0.479
 2140TIP3    H2 6427   5.385   2.281   0.381
 2141TIP3   OH2 6428   0.304   3.199   5.142
 2141TIP3    H1 6429   0.377   3.166   5.089
 2141TIP3    H2 6430   0.237   3.223   5.078
 2142TIP3   OH2 6431   6.054   4.051   1.785
 2142TIP3    H1 6432   5.979   4.096   1.746
 2142TIP3    H2 6433   6.120   4.119   1.795
 2143TIP3   OH2 6434   1.401   1.641   1.388
 2143TIP3    H1 6435   1.408   1.630   1.293
 2143TIP3    H2 6436   1.492   1.636   1.419
 2144TIP3   OH2 6437   4.792   4.043   3.119
 2144TIP3    H1 6438   4.861   4.090   3.072
 2144TIP3    H2 6439   4.823   3.953   3.123
 2145TIP3   OH2 6440   3.418   1.000   0.361
 2145TIP3    H1 6441   3.359   1.027   0.290
 2145TIP3    H2 6442   3.493   0.962   0.316
 2146TIP3   OH2 6443   2.699   0.780   3.550
 2146TIP3    H1 6444   2.756   0.854   3.529
 2146TIP3    H2 6445   2.720   0.713   3.485
 2147TIP3   OH2 6446   1.943   3.332   0.553
 2147TIP3    H1 6447   2.001   3.314   0.627
 2147TIP3    H2 6448   1.971   3.418   0.521
 2148TIP3   OH2 6449   3.246   0.707   0.201
 2148TIP3    H1 6450   3.254   0.741   0.112
 2148TIP3    H2 6451   3.156   0.727   0.226
 2149TIP3   OH2 6452   5.803   1.473   4.631
 2149TIP3    H1 6453   5.874   1.533   4.653
 2149TIP3    H2 6454   5.729   1.502   4.685
 2150TIP3   OH2 6455   5.902   4.622   3.972
 2150TIP3    H1 6456   5.973   4.626   4.037
 2150TIP3    H2 6457   5.942   4.655   3.891
 2151TIP3   OH2 6458   3.637   3.303   1.846
 2151TIP3    H1 6459   3.697   3.245   1.893
 2151TIP3    H2 6460   3.550   3.276   1.874
 2152TIP3   OH2 6461   3.233   1.787   4.100
 2152TIP3    H1 6462   3.253   1.873   4.063
 2152TIP3    H2 6463   3.305   1.770   4.161
 2153TIP3   OH2 6464   5.659   2.788   4.039
 2153TIP3    H1 6465   5.715   2.863   4.060
 2153TIP3    H2 6466   5.610   2.771   4.120
 2154TIP3   OH2 6467   5.703   4.581   1.496
 2154TIP3    H1 6468   5.702   4.486   1.508
 2154TIP3    H2 6469   5.611   4.607   1.506
 2155TIP3   OH2 6470   5.940   3.475   0.440
 2155TIP3    H1 6471   5.863   3.464   0.384
 2155TIP3    H2 6472   6.014   3.466   0.379
 2156TIP3   OH2 6473   6.301   4.413   2.244
 2156TIP3    H1 6474   6.387   4.373   2.234
 2156TIP3    H2 6475   6.308   4.465   2.324
 2157TIP3   OH2 6476   4.145   0.326   4.679
 2157TIP3    H1 6477   4.234   0.361   4.679
 2157TIP3    H2 6478   4.133   0.286   4.765
 2158TIP3   OH2 6479   0.496   5.423   2.065
 2158TIP3    H1 6480   0.493   5.518   2.061
 2158TIP3    H2 6481   0.424   5.400   2.125
 2159TIP3   OH2 6482   0.318   1.238   0.869
 2159TIP3    H1 6483   0.378   1.164   0.880
 2159TIP3    H2 6484   0.345   1.278   0.786
 2160TIP3   OH2 6485   1.837   5.943   4.629
 2160TIP3    H1 6486   1.829   5.848   4.627
 2160TIP3    H2 6487   1.915   5.962   4.577
 2161TIP3   OH2 6488   2.487   1.279   3.978
 2161TIP3    H1 6489   2.405   1.243   3.945
 2161TIP3    H2 6490   2.552   1.211   3.960
 2162TIP3   OH2 6491   3.586   1.928   1.908
 2162TIP3    H1 6492   3.641   1.861   1.948
 2162TIP3    H2 6493   3.503   1.923   1.957
 2163TIP3   OH2 6494   1.115   1.248   0.028
 2163TIP3    H1 6495   1.026   1.221   0.052
 2163TIP3    H2 6496   1.172   1.185   0.073
 2164TIP3   OH2 6497   1.660   5.327   3.310
 2164TIP3    H1 6498   1.572   5.327   3.273
 2164TIP3    H2 6499   1.656   5.390   3.382
 2165TIP3   OH2 6500   3.328   0.585   4.374
 2165TIP3    H1 6501   3.322   0.491   4.358
 2165TIP3    H2 6502   3.403   0.595   4.433
 2166TIP3   OH2 6503   2.194   2.175   3.948
 2166TIP3    H1 6504   2.282   2.145   3.971
 2166TIP3    H2 6505   2.170   2.122   3.872
 2167TIP3   OH2 6506   3.273   3.732   4.393
 2167TIP3    H1 6507   3.263   3.823   4.364
 2167TIP3    H2 6508   3.196   3.687   4.360
 2168TIP3   OH2 6509   0.398   2.145   0.756
 2168TIP3    H1 6510   0.421   2.064   0.802
 2168TIP3    H2 6511   0.405   2.123   0.663
 2169TIP3   OH2 6512   4.621   1.500   3.938
 2169TIP3    H1 6513   4.606   1.568   4.004
 2169TIP3    H2 6514   4.534   1.473   3.911
 2170TIP3   OH2 6515   2.020   4.136   2.699
 2170TIP3    H1 6516   2.108   4.098   2.693
 2170TIP3    H2 6517   2.036   4.228   2.723
 2171TIP3   OH2 6518   3.726   0.082   4.719
 2171TIP3    H1 6519   3.733   0.176   4.704
 2171TIP3    H2 6520   3.778   0.042   4.650
 2172TIP3   OH2 6521   2.320   2.413   2.504
 2172TIP3    H1 6522   2.372   2.338   2.533
 2172TIP3    H2 6523   2.319   2.405   2.408
 2173TIP3   OH2 6524   6.325   2.567   3.210
 2173TIP3    H1 6525   6.361   2.538   3.126
 2173TIP3    H2 6526   6.395   2.620   3.249
 2174TIP3   OH2 6527   3.029   0.859   5.055
 2174TIP3    H1 6528   3.020   0.803   4.979
 2174TIP3    H2 6529   2.999   0.945   5.026
 2175TIP3   OH2 6530   4.949   3.152   4.739
 2175TIP3    H1 6531   5.007   3.115   4.672
 2175TIP3    H2 6532   4.898   3.218   4.692
 2176TIP3   OH2 6533   5.895   2.032   0.503
 2176TIP3    H1 6534   5.850   1.979   0.569
 2176TIP3    H2 6535   5.975   2.063   0.546
 2177TIP3   OH2 6536   6.323   0.333   2.716
 2177TIP3    H1 6537   6.410   0.348   2.753
 2177TIP3    H2 6538   6.266   0.324   2.793
 2178TIP3   OH2 6539   0.705   0.272   3.869
 2178TIP3    H1 6540   0.627   0.222   3.892
 2178TIP3    H2 6541   0.692   0.296   3.777
 2179TIP3   OH2 6542   4.853   5.106   1.854
 2179TIP3    H1 6543   4.941   5.069   1.857
 2179TIP3    H2 6544   4.795   5.030   1.865
 2180TIP3   OH2 6545   4.332   2.558   1.323
 2180TIP3    H1 6546   4.236   2.559   1.329
 2180TIP3    H2 6547   4.357   2.651   1.328
 2181TIP3   OH2 6548   5.228   0.092   0.099
 2181TIP3    H1 6549   5.203   0.004   0.071
 2181TIP3    H2 6550   5.149   0.129   0.137
 2182TIP3   OH2 6551   6.338   1.270   1.306
 2182TIP3    H1 6552   6.360   1.296   1.395
 2182TIP3    H2 6553   6.287   1.343   1.271
 2183TIP3   OH2 6554   3.854   0.897   4.761
 2183TIP3    H1 6555   3.759   0.904   4.761
 2183TIP3    H2 6556   3.884   0.984   4.734
 2184TIP3   OH2 6557   5.080   3.440   1.738
 2184TIP3    H1 6558   5.143   3.374   1.764
 2184TIP3    H2 6559   5.035   3.403   1.662
 2185TIP3   OH2 6560   2.438   0.532   2.968
 2185TIP3    H1 6561   2.385   0.598   2.924
 2185TIP3    H2 6562   2.382   0.498   3.037
 2186TIP3   OH2 6563   4.372   1.245   3.494
 2186TIP3    H1 6564   4.353   1.218   3.404
 2186TIP3    H2 6565   4.350   1.169   3.548
 2187TIP3   OH2 6566   1.321   3.070   0.065
 2187TIP3    H1 6567   1.232   3.049   0.095
 2187TIP3    H2 6568   1.316   3.064  -0.030
 2188TIP3   OH2 6569   2.390   4.533   0.746
 2188TIP3    H1 6570   2.415   4.486   0.826
 2188TIP3    H2 6571   2.296   4.516   0.737
 2189TIP3   OH2 6572   0.625   1.597   1.948
 2189TIP3    H1 6573   0.645   1.580   2.040
 2189TIP3    H2 6574   0.554   1.662   1.950
 2190TIP3   OH2 6575   4.427   4.832   1.754
 2190TIP3    H1 6576   4.375   4.756   1.729
 2190TIP3    H2 6577   4.374   4.877   1.819
 2191TIP3   OH2 6578   0.556   2.685   3.180
 2191TIP3    H1 6579   0.586   2.612   3.235
 2191TIP3    H2 6580   0.637   2.731   3.156
 2192TIP3   OH2 6581   2.533   1.766   1.516
 2192TIP3    H1 6582   2.490   1.708   1.453
 2192TIP3    H2 6583   2.603   1.713   1.554
 2193TIP3   OH2 6584   3.330   0.462   1.134
 2193TIP3    H1 6585   3.341   0.367   1.135
 2193TIP3    H2 6586   3.419   0.496   1.146
 2194TIP3   OH2 6587   2.623   2.274   4.014
 2194TIP3    H1 6588   2.566   2.251   4.087
 2194TIP3    H2 6589   2.562   2.300   3.944
 2195TIP3   OH2 6590   5.185   3.446   4.374
 2195TIP3    H1 6591   5.256   3.400   4.419
 2195TIP3    H2 6592   5.210   3.444   4.281
 2196TIP3   OH2 6593   0.404   3.265   2.443
 2196TIP3    H1 6594   0.426   3.236   2.355
 2196TIP3    H2 6595   0.353   3.193   2.480
 2197TIP3   OH2 6596   3.344   5.249   3.867
 2197TIP3    H1 6597   3.326   5.281   3.778
 2197TIP3    H2 6598   3.419   5.190   3.856
 2198TIP3   OH2 6599   5.287   1.861   1.832
 2198TIP3    H1 6600   5.379   1.871   1.856
 2198TIP3    H2 6601   5.280   1.900   1.745
 2199TIP3   OH2 6602   2.987   1.638   4.376
 2199TIP3    H1 6603   2.945   1.695   4.440
 2199TIP3    H2 6604   2.915   1.592   4.333
 2200TIP3   OH2 6605   2.891   3.885   0.452
 2200TIP3    H1 6606   2.901   3.822   0.523
 2200TIP3    H2 6607   2.849   3.961   0.492
 2201TIP3   OH2 6608   4.878   3.443   2.580
 2201TIP3    H1 6609   4.974   3.448   2.586
 2201TIP3    H2 6610   4.862   3.379   2.510
 2202TIP3   OH2 6611   3.224   3.614   3.562
 2202TIP3    H1 6612   3.173   3.682   3.518
 2202TIP3    H2 6613   3.193   3.617   3.653
 2203TIP3   OH2 6614   2.895   3.325   3.835
 2203TIP3    H1 6615   2.979   3.290   3.866
 2203TIP3    H2 6616   2.833   3.303   3.904
 2204TIP3   OH2 6617   6.282   2.404   3.801
 2204TIP3    H1 6618   6.377   2.408   3.795
 2204TIP3    H2 6619   6.261   2.440   3.887
 2205TIP3   OH2 6620   2.977   5.359   0.814
 2205TIP3    H1 6621   2.898   5.410   0.799
 2205TIP3    H2 6622   3.014   5.394   0.895
 2206TIP3   OH2 6623   5.021   1.638   0.203
 2206TIP3    H1 6624   4.926   1.646   0.215
 2206TIP3    H2 6625   5.052   1.594   0.282
 2207TIP3   OH2 6626   5.438   2.231   0.742
 2207TIP3    H1 6627   5.500   2.273   0.682
 2207TIP3    H2 6628   5.388   2.172   0.687
 2208TIP3   OH2 6629   4.410   5.818   3.986
 2208TIP3    H1 6630   4.459   5.897   4.008
 2208TIP3    H2 6631   4.403   5.770   4.069
 2209TIP3   OH2 6632   4.113   2.448   0.228
 2209TIP3    H1 6633   4.170   2.429   0.303
 2209TIP3    H2 6634   4.026   2.461   0.266
 2210TIP3   OH2 6635   5.035   2.420   0.726
 2210TIP3    H1 6636   5.046   2.502   0.774
 2210TIP3    H2 6637   5.081   2.435   0.643
 2211TIP3   OH2 6638   3.871   1.358   3.367
 2211TIP3    H1 6639   3.858   1.281   3.311
 2211TIP3    H2 6640   3.846   1.328   3.454
 2212TIP3   OH2 6641   1.156   0.159   3.901
 2212TIP3    H1 6642   1.089   0.219   3.933
 2212TIP3    H2 6643   1.115   0.115   3.826
 2213TIP3   OH2 6644   2.629   3.324   4.909
 2213TIP3    H1 6645   2.541   3.306   4.941
 2213TIP3    H2 6646   2.640   3.418   4.921
 2214TIP3   OH2 6647   0.110   5.130   2.983
 2214TIP3    H1 6648   0.131   5.214   3.024
 2214TIP3    H2 6649   0.195   5.096   2.954
 2215TIP3   OH2 6650   2.870   2.903   0.298
 2215TIP3    H1 6651   2.892   2.852   0.375
 2215TIP3    H2 6652   2.850   2.991   0.332
 2216TIP3   OH2 6653   1.885   3.256   0.921
 2216TIP3    H1 6654   1.925   3.191   0.863
 2216TIP3    H2 6655   1.940   3.334   0.912
 2217TIP3   OH2 6656   3.277   4.511   4.192
 2217TIP3    H1 6657   3.316   4.596   4.170
 2217TIP3    H2 6658   3.219   4.530   4.265
 2218TIP3   OH2 6659   2.638   0.428   2.818
 2218TIP3    H1 6660   2.603   0.427   2.729
 2218TIP3    H2 6661   2.571   0.474   2.869
 2219TIP3   OH2 6662   1.750   4.391   0.313
 2219TIP3    H1 6663   1.837   4.365   0.344
 2219TIP3    H2 6664   1.697   4.312   0.322
 2220TIP3   OH2 6665   4.667   1.948   4.554
 2220TIP3    H1 6666   4.574   1.925   4.561
 2220TIP3    H2 6667   4.677   2.026   4.609
 2221TIP3   OH2 6668   1.709   3.960   3.635
 2221TIP3    H1 6669   1.734   3.874   3.667
 2221TIP3    H2 6670   1.722   4.018   3.710
 2222TIP3   OH2 6671   0.234   2.909   0.033
 2222TIP3    H1 6672   0.139   2.911   0.021
 2222TIP3    H2 6673   0.250   2.831   0.087
 2223TIP3   OH2 6674   1.896   4.895   2.641
 2223TIP3    H1 6675   1.803   4.898   2.620
 2223TIP3    H2 6676   1.920   4.987   2.655
 2224TIP3   OH2 6677   4.863   4.353   3.689
 2224TIP3    H1 6678   4.839   4.434   3.645
 2224TIP3    H2 6679   4.781   4.322   3.728
 2225TIP3   OH2 6680   1.624   1.149   4.916
 2225TIP3    H1 6681   1.702   1.185   4.873
 2225TIP3    H2 6682   1.602   1.214   4.982
 2226TIP3   OH2 6683   6.361   0.479   1.044
 2226TIP3    H1 6684   6.300   0.540   1.000
 2226TIP3    H2 6685   6.309   0.440   1.114
 2227TIP3   OH2 6686   2.498   4.047   4.143
 2227TIP3    H1 6687   2.436   4.071   4.212
 2227TIP3    H2 6688   2.445   3.997   4.080
 2228TIP3   OH2 6689   2.629   4.113   1.507
 2228TIP3    H1 6690   2.620   4.152   1.594
 2228TIP3    H2 6691   2.717   4.138   1.479
 2229TIP3   OH2 6692   3.888   3.628   1.424
 2229TIP3    H1 6693   3.879   3.605   1.517
 2229TIP3    H2 6694   3.969   3.585   1.396
 2230TIP3   OH2 6695   4.036   4.828   1.930
 2230TIP3    H1 6696   3.954   4.837   1.979
 2230TIP3    H2 6697   4.040   4.735   1.907
 2231TIP3   OH2 6698   1.859   2.115   0.952
 2231TIP3    H1 6699   1.769   2.140   0.975
 2231TIP3    H2 6700   1.865   2.022   0.977
 2232TIP3   OH2 6701   4.351   3.606   0.985
 2232TIP3    H1 6702   4.281   3.559   0.940
 2232TIP3    H2 6703   4.407   3.639   0.915
 2233TIP3   OH2 6704   2.895   5.322   4.107
 2233TIP3    H1 6705   2.849   5.283   4.032
 2233TIP3    H2 6706   2.986   5.325   4.080
 2234TIP3   OH2 6707   5.350   0.940   4.038
 2234TIP3    H1 6708   5.344   0.938   3.943
 2234TIP3    H2 6709   5.282   0.880   4.069
 2235TIP3   OH2 6710   2.262   0.670   1.330
 2235TIP3    H1 6711   2.260   0.702   1.420
 2235TIP3    H2 6712   2.178   0.697   1.293
 2236TIP3   OH2 6713   4.941   0.618   2.876
 2236TIP3    H1 6714   4.865   0.565   2.852
 2236TIP3    H2 6715   4.977   0.574   2.953
 2237TIP3   OH2 6716   2.744   4.901   3.051
 2237TIP3    H1 6717   2.708   4.893   2.962
 2237TIP3    H2 6718   2.838   4.902   3.038
 2238TIP3   OH2 6719   1.052   2.363   1.607
 2238TIP3    H1 6720   1.062   2.283   1.658
 2238TIP3    H2 6721   1.018   2.334   1.523
 2239TIP3   OH2 6722   3.542   1.228   3.448
 2239TIP3    H1 6723   3.450   1.207   3.430
 2239TIP3    H2 6724   3.545   1.244   3.542
 2240TIP3   OH2 6725   0.106   5.992   1.455
 2240TIP3    H1 6726   0.019   5.981   1.416
 2240TIP3    H2 6727   0.137   5.903   1.471
 2241TIP3   OH2 6728   4.570   0.828   2.042
 2241TIP3    H1 6729   4.610   0.742   2.042
 2241TIP3    H2 6730   4.636   0.886   2.081
 2242TIP3   OH2 6731   1.075   3.836   0.190
 2242TIP3    H1 6732   0.984   3.865   0.186
 2242TIP3    H2 6733   1.122   3.893   0.130
 2243TIP3   OH2 6734   6.276   4.784   3.458
 2243TIP3    H1 6735   6.360   4.805   3.418
 2243TIP3    H2 6736   6.298   4.753   3.546
 2244TIP3   OH2 6737   0.744   3.345   5.199
 2244TIP3    H1 6738   0.713   3.287   5.130
 2244TIP3    H2 6739   0.839   3.341   5.194
 2245TIP3   OH2 6740   4.614   2.816   1.153
 2245TIP3    H1 6741   4.602   2.778   1.066
 2245TIP3    H2 6742   4.687   2.876   1.143
 2246TIP3   OH2 6743   4.190   5.891   3.845
 2246TIP3    H1 6744   4.220   5.928   3.762
 2246TIP3    H2 6745   4.270   5.867   3.890
 2247TIP3   OH2 6746   0.362   1.793   0.399
 2247TIP3    H1 6747   0.287   1.799   0.458
 2247TIP3    H2 6748   0.416   1.869   0.420
 2248TIP3   OH2 6749   3.655   5.105   4.050
 2248TIP3    H1 6750   3.604   5.138   3.977
 2248TIP3    H2 6751   3.684   5.183   4.097
 2249TIP3   OH2 6752   0.841   2.680   3.943
 2249TIP3    H1 6753   0.750   2.675   3.914
 2249TIP3    H2 6754   0.881   2.600   3.908
 2250TIP3   OH2 6755   2.290   1.004   0.556
 2250TIP3    H1 6756   2.217   1.067   0.553
 2250TIP3    H2 6757   2.252   0.922   0.526
 2251TIP3   OH2 6758   2.978   4.965   4.789
 2251TIP3    H1 6759   2.897   4.928   4.822
 2251TIP3    H2 6760   2.976   4.948   4.695
 2252TIP3   OH2 6761   4.716   3.641   2.473
 2252TIP3    H1 6762   4.723   3.606   2.384
 2252TIP3    H2 6763   4.775   3.586   2.524
 2253TIP3   OH2 6764   4.187   3.041   3.446
 2253TIP3    H1 6765   4.267   3.044   3.394
 2253TIP3    H2 6766   4.216   3.025   3.535
 2254TIP3   OH2 6767   2.720   0.982   4.949
 2254TIP3    H1 6768   2.697   1.008   4.860
 2254TIP3    H2 6769   2.660   0.912   4.971
 2255TIP3   OH2 6770   4.582   3.418   0.222
 2255TIP3    H1 6771   4.549   3.370   0.298
 2255TIP3    H2 6772   4.595   3.350   0.156
 2256TIP3   OH2 6773   6.320   4.272   2.965
 2256TIP3    H1 6774   6.227   4.269   2.943
 2256TIP3    H2 6775   6.323   4.306   3.054
 2257TIP3   OH2 6776   1.702   0.439   2.702
 2257TIP3    H1 6777   1.701   0.465   2.610
 2257TIP3    H2 6778   1.650   0.505   2.747
 2258TIP3   OH2 6779   3.290   4.737   1.914
 2258TIP3    H1 6780   3.370   4.698   1.878
 2258TIP3    H2 6781   3.224   4.667   1.907
 2259TIP3   OH2 6782   1.631   2.498   3.814
 2259TIP3    H1 6783   1.690   2.425   3.828
 2259TIP3    H2 6784   1.655   2.532   3.727
 2260TIP3   OH2 6785   6.350   3.984   2.665
 2260TIP3    H1 6786   6.387   3.949   2.583
 2260TIP3    H2 6787   6.316   4.070   2.641
 2261TIP3   OH2 6788   4.633   1.426   3.496
 2261TIP3    H1 6789   4.696   1.368   3.453
 2261TIP3    H2 6790   4.553   1.373   3.502
 2262TIP3   OH2 6791   2.296   0.980   3.539
 2262TIP3    H1 6792   2.299   0.892   3.500
 2262TIP3    H2 6793   2.214   0.981   3.589
 2263TIP3   OH2 6794   3.868   1.788   0.900
 2263TIP3    H1 6795   3.774   1.799   0.909
 2263TIP3    H2 6796   3.905   1.825   0.980
 2264TIP3   OH2 6797   1.522   0.810   3.421
 2264TIP3    H1 6798   1.488   0.854   3.343
 2264TIP3    H2 6799   1.464   0.736   3.435
 2265TIP3   OH2 6800   1.185   0.711   0.165
 2265TIP3    H1 6801   1.107   0.741   0.119
 2265TIP3    H2 6802   1.251   0.698   0.096
 2266TIP3   OH2 6803   2.560   5.727   4.741
 2266TIP3    H1 6804   2.655   5.737   4.735
 2266TIP3    H2 6805   2.545   5.688   4.827
 2267TIP3   OH2 6806   3.801   3.361   3.707
 2267TIP3    H1 6807   3.857   3.289   3.678
 2267TIP3    H2 6808   3.726   3.318   3.747
 2268TIP3   OH2 6809   2.199   4.167   2.130
 2268TIP3    H1 6810   2.133   4.114   2.175
 2268TIP3    H2 6811   2.230   4.228   2.197
 2269TIP3   OH2 6812   6.148   2.190   1.029
 2269TIP3    H1 6813   6.070   2.162   0.982
 2269TIP3    H2 6814   6.173   2.114   1.081
 2270TIP3   OH2 6815   3.449   2.677   0.450
 2270TIP3    H1 6816   3.491   2.732   0.515
 2270TIP3    H2 6817   3.431   2.595   0.496
 2271TIP3   OH2 6818   1.444   1.902   2.114
 2271TIP3    H1 6819   1.511   1.888   2.181
 2271TIP3    H2 6820   1.461   1.990   2.082
 2272TIP3   OH2 6821   6.294   3.384   5.020
 2272TIP3    H1 6822   6.322   3.367   5.110
 2272TIP3    H2 6823   6.270   3.298   4.985
 2273TIP3   OH2 6824   3.722   5.667   4.729
 2273TIP3    H1 6825   3.692   5.707   4.811
 2273TIP3    H2 6826   3.668   5.708   4.661
 2274TIP3   OH2 6827   0.184   3.092   1.084
 2274TIP3    H1 6828   0.250   3.077   1.017
 2274TIP3    H2 6829   0.201   3.181   1.115
 2275TIP3   OH2 6830   0.639   2.535   2.166
 2275TIP3    H1 6831   0.562   2.546   2.221
 2275TIP3    H2 6832   0.711   2.569   2.220
 2276TIP3   OH2 6833   0.876   5.629   4.121
 2276TIP3    H1 6834   0.883   5.547   4.073
 2276TIP3    H2 6835   0.888   5.697   4.056
 2277TIP3   OH2 6836   1.278   5.811   0.807
 2277TIP3    H1 6837   1.240   5.832   0.893
 2277TIP3    H2 6838   1.372   5.808   0.822
 2278TIP3   OH2 6839   6.232   5.736   3.522
 2278TIP3    H1 6840   6.235   5.826   3.490
 2278TIP3    H2 6841   6.247   5.744   3.616
 2279TIP3   OH2 6842   1.063   2.005   2.419
 2279TIP3    H1 6843   1.088   1.934   2.361
 2279TIP3    H2 6844   1.144   2.029   2.464
 2280TIP3   OH2 6845   1.439   3.289   4.193
 2280TIP3    H1 6846   1.432   3.211   4.138
 2280TIP3    H2 6847   1.360   3.289   4.247
 2281TIP3   OH2 6848   0.505   3.295   3.827
 2281TIP3    H1 6849   0.546   3.306   3.913
 2281TIP3    H2 6850   0.568   3.332   3.766
 2282TIP3   OH2 6851   0.744   4.111   1.631
 2282TIP3    H1 6852   0.835   4.118   1.601
 2282TIP3    H2 6853   0.694   4.090   1.552
 2283TIP3   OH2 6854   3.559   3.592   0.335
 2283TIP3    H1 6855   3.502   3.532   0.287
 2283TIP3    H2 6856   3.499   3.657   0.372
 2284TIP3   OH2 6857   0.858   0.951   3.766
 2284TIP3    H1 6858   0.871   1.036   3.808
 2284TIP3    H2 6859   0.900   0.958   3.681
 2285TIP3   OH2 6860   2.158   5.678   2.208
 2285TIP3    H1 6861   2.238   5.638   2.175
 2285TIP3    H2 6862   2.141   5.751   2.148
 2286TIP3   OH2 6863   5.937   1.240   3.693
 2286TIP3    H1 6864   5.962   1.234   3.600
 2286TIP3    H2 6865   5.841   1.245   3.691
 2287TIP3   OH2 6866   6.037   4.646   1.812
 2287TIP3    H1 6867   6.033   4.583   1.740
 2287TIP3    H2 6868   6.050   4.592   1.890
 2288TIP3   OH2 6869   3.500   1.615   3.792
 2288TIP3    H1 6870   3.546   1.686   3.837
 2288TIP3    H2 6871   3.408   1.629   3.812
 2289TIP3   OH2 6872   4.715   4.090   2.659
 2289TIP3    H1 6873   4.636   4.037   2.669
 2289TIP3    H2 6874   4.787   4.027   2.666
 2290TIP3   OH2 6875   4.392   3.003   0.205
 2290TIP3    H1 6876   4.422   2.952   0.280
 2290TIP3    H2 6877   4.384   2.939   0.134
 2291TIP3   OH2 6878   4.404   0.946   2.325
 2291TIP3    H1 6879   4.313   0.971   2.340
 2291TIP3    H2 6880   4.442   0.939   2.413
 2292TIP3   OH2 6881   2.637   2.221   2.021
 2292TIP3    H1 6882   2.589   2.150   2.065
 2292TIP3    H2 6883   2.603   2.301   2.060
 2293TIP3   OH2 6884   2.660   4.923   3.706
 2293TIP3    H1 6885   2.720   4.933   3.780
 2293TIP3    H2 6886   2.593   4.862   3.737
 2294TIP3   OH2 6887   2.142   4.893   0.624
 2294TIP3    H1 6888   2.162   4.961   0.559
 2294TIP3    H2 6889   2.147   4.811   0.575
 2295TIP3   OH2 6890   4.051   5.788   4.545
 2295TIP3    H1 6891   4.021   5.772   4.635
 2295TIP3    H2 6892   4.033   5.705   4.500
 2296TIP3   OH2 6893   1.850   1.237   1.101
 2296TIP3    H1 6894   1.790   1.162   1.104
 2296TIP3    H2 6895   1.837   1.283   1.184
 2297TIP3   OH2 6896   3.289   3.977   4.198
 2297TIP3    H1 6897   3.308   4.031   4.120
 2297TIP3    H2 6898   3.202   3.941   4.181
 2298TIP3   OH2 6899   0.970   2.635   1.401
 2298TIP3    H1 6900   1.037   2.658   1.337
 2298TIP3    H2 6901   0.942   2.547   1.376
 2299TIP3   OH2 6902   5.637   0.961   1.484
 2299TIP3    H1 6903   5.630   1.055   1.469
 2299TIP3    H2 6904   5.711   0.952   1.544
 2300TIP3   OH2 6905   5.505   2.084   1.480
 2300TIP3    H1 6906   5.541   2.170   1.502
 2300TIP3    H2 6907   5.576   2.023   1.498
 2301TIP3   OH2 6908   1.814   2.759   2.988
 2301TIP3    H1 6909   1.813   2.851   3.015
 2301TIP3    H2 6910   1.871   2.756   2.911
 2302TIP3   OH2 6911   3.823   3.104   1.977
 2302TIP3    H1 6912   3.903   3.144   1.941
 2302TIP3    H2 6913   3.831   3.116   2.071
 2303TIP3   OH2 6914   4.556   3.597   1.170
 2303TIP3    H1 6915   4.527   3.623   1.258
 2303TIP3    H2 6916   4.475   3.580   1.122
 2304TIP3   OH2 6917   1.792   0.912   4.223
 2304TIP3    H1 6918   1.814   0.902   4.315
 2304TIP3    H2 6919   1.767   0.825   4.194
 2305TIP3   OH2 6920   5.994   5.733   3.740
 2305TIP3    H1 6921   5.983   5.638   3.733
 2305TIP3    H2 6922   6.002   5.749   3.834
 2306TIP3   OH2 6923   6.320   3.870   4.932
 2306TIP3    H1 6924   6.318   3.917   5.015
 2306TIP3    H2 6925   6.266   3.792   4.947
 2307TIP3   OH2 6926   0.346   5.052   4.884
 2307TIP3    H1 6927   0.363   4.966   4.846
 2307TIP3    H2 6928   0.413   5.061   4.952
 2308TIP3   OH2 6929   1.711   5.181   1.024
 2308TIP3    H1 6930   1.630   5.158   1.070
 2308TIP3    H2 6931   1.691   5.264   0.980
 2309TIP3   OH2 6932   4.845   2.107   4.093
 2309TIP3    H1 6933   4.915   2.168   4.113
 2309TIP3    H2 6934   4.830   2.060   4.176
 2310TIP3   OH2 6935   0.087   3.858   0.390
 2310TIP3    H1 6936   0.159   3.826   0.336
 2310TIP3    H2 6937   0.018   3.881   0.328
 2311TIP3   OH2 6938   6.270   2.068   1.584
 2311TIP3    H1 6939   6.267   1.979   1.620
 2311TIP3    H2 6940   6.277   2.125   1.660
 2312TIP3   OH2 6941   4.640   5.603   4.186
 2312TIP3    H1 6942   4.636   5.548   4.263
 2312TIP3    H2 6943   4.585   5.560   4.121
 2313TIP3   OH2 6944   4.850   1.973   4.323
 2313TIP3    H1 6945   4.939   1.966   4.358
 2313TIP3    H2 6946   4.794   1.956   4.399
 2314TIP3   OH2 6947   0.803   0.075   0.605
 2314TIP3    H1 6948   0.795   0.025   0.686
 2314TIP3    H2 6949   0.747   0.028   0.543
 2315TIP3   OH2 6950   1.882   5.273   1.675
 2315TIP3    H1 6951   1.944   5.338   1.641
 2315TIP3    H2 6952   1.850   5.311   1.757
 2316TIP3   OH2 6953   4.308   4.973   4.186
 2316TIP3    H1 6954   4.388   4.981   4.134
 2316TIP3    H2 6955   4.311   5.047   4.247
 2317TIP3   OH2 6956   2.328   5.496   5.080
 2317TIP3    H1 6957   2.377   5.483   5.161
 2317TIP3    H2 6958   2.392   5.536   5.021
 2318TIP3   OH2 6959   1.092   1.567   3.560
 2318TIP3    H1 6960   1.185   1.555   3.539
 2318TIP3    H2 6961   1.091   1.594   3.651
 2319TIP3   OH2 6962   0.415   4.383   1.956
 2319TIP3    H1 6963   0.436   4.354   2.045
 2319TIP3    H2 6964   0.489   4.356   1.903
 2320TIP3   OH2 6965   3.813   1.844   0.338
 2320TIP3    H1 6966   3.830   1.830   0.432
 2320TIP3    H2 6967   3.717   1.848   0.332
 2321TIP3   OH2 6968   6.339   0.974   1.465
 2321TIP3    H1 6969   6.337   1.050   1.406
 2321TIP3    H2 6970   6.268   0.990   1.527
 2322TIP3   OH2 6971   1.037   1.262   3.557
 2322TIP3    H1 6972   1.023   1.250   3.651
 2322TIP3    H2 6973   1.064   1.354   3.548
 2323TIP3   OH2 6974   5.959   5.473   3.700
 2323TIP3    H1 6975   5.897   5.475   3.628
 2323TIP3    H2 6976   5.979   5.380   3.713
 2324TIP3   OH2 6977   0.611   1.851   1.587
 2324TIP3    H1 6978   0.648   1.934   1.616
 2324TIP3    H2 6979   0.664   1.785   1.631
 2325TIP3   OH2 6980   6.215   3.946   3.429
 2325TIP3    H1 6981   6.239   3.891   3.504
 2325TIP3    H2 6982   6.189   3.884   3.361
 2326TIP3   OH2 6983   0.133   5.213   0.422
 2326TIP3    H1 6984   0.114   5.157   0.347
 2326TIP3    H2 6985   0.197   5.163   0.473
 2327TIP3   OH2 6986   3.790   5.519   1.342
 2327TIP3    H1 6987   3.732   5.574   1.290
 2327TIP3    H2 6988   3.801   5.568   1.424
 2328TIP3   OH2 6989   5.439   5.695   3.348
 2328TIP3    H1 6990   5.411   5.662   3.434
 2328TIP3    H2 6991   5.512   5.754   3.369
 2329TIP3   OH2 6992   0.024   5.691   4.739
 2329TIP3    H1 6993  -0.054   5.721   4.784
 2329TIP3    H2 6994   0.097   5.724   4.792
 2330TIP3   OH2 6995   4.798   1.155   3.033
 2330TIP3    H1 6996   4.737   1.103   3.085
 2330TIP3    H2 6997   4.874   1.168   3.090
 2331TIP3   OH2 6998   3.076   2.178   4.217
 2331TIP3    H1 6999   3.132   2.233   4.163
 2331TIP3    H2 7000   3.019   2.133   4.154
 2332TIP3   OH2 7001   0.630   0.836   3.702
 2332TIP3    H1 7002   0.586   0.910   3.660
 2332TIP3    H2 7003   0.711   0.873   3.736
 2333TIP3   OH2 7004   0.204   2.006   3.159
 2333TIP3    H1 7005   0.162   1.931   3.200
 2333TIP3    H2 7006   0.293   1.976   3.141
 2334TIP3   OH2 7007   6.314   0.843   1.977
 2334TIP3    H1 7008   6.313   0.762   2.029
 2334TIP3    H2 7009   6.225   0.877   1.984
 2335TIP3   OH2 7010   4.085   4.871   1.591
 2335TIP3    H1 7011   4.102   4.881   1.685
 2335TIP3    H2 7012   4.027   4.944   1.570
 2336TIP3   OH2 7013   5.678   3.549   1.284
 2336TIP3    H1 7014   5.738   3.539   1.210
 2336TIP3    H2 7015   5.701   3.635   1.321
 2337TIP3   OH2 7016   2.013   0.783   4.667
 2337TIP3    H1 7017   2.102   0.807   4.694
 2337TIP3    H2 7018   2.023   0.697   4.625
 2338TIP3   OH2 7019   4.217   5.935   0.282
 2338TIP3    H1 7020   4.213   5.839   0.277
 2338TIP3    H2 7021   4.294   5.953   0.335
 2339TIP3   OH2 7022   3.853   4.749   0.441
 2339TIP3    H1 7023   3.929   4.749   0.383
 2339TIP3    H2 7024   3.883   4.792   0.521
 2340TIP3   OH2 7025   2.868   0.095   2.005
 2340TIP3    H1 7026   2.786   0.045   2.003
 2340TIP3    H2 7027   2.912   0.064   2.085
 2341TIP3   OH2 7028   6.076   3.681   1.473
 2341TIP3    H1 7029   6.069   3.710   1.564
 2341TIP3    H2 7030   6.170   3.680   1.455
 2342TIP3   OH2 7031   0.270   3.477   2.265
 2342TIP3    H1 7032   0.313   3.395   2.241
 2342TIP3    H2 7033   0.177   3.454   2.272
 2343TIP3   OH2 7034   1.759   2.911   2.620
 2343TIP3    H1 7035   1.687   2.848   2.610
 2343TIP3    H2 7036   1.756   2.963   2.540
 2344TIP3   OH2 7037   1.035   0.500   2.028
 2344TIP3    H1 7038   1.032   0.585   1.983
 2344TIP3    H2 7039   0.990   0.440   1.968
 2345TIP3   OH2 7040   5.836   5.476   1.193
 2345TIP3    H1 7041   5.819   5.566   1.220
 2345TIP3    H2 7042   5.931   5.466   1.198
 2346TIP3   OH2 7043   5.374   2.432   1.761
 2346TIP3    H1 7044   5.297   2.418   1.707
 2346TIP3    H2 7045   5.398   2.523   1.746
 2347TIP3   OH2 7046   3.765   2.507   2.228
 2347TIP3    H1 7047   3.759   2.575   2.161
 2347TIP3    H2 7048   3.854   2.473   2.221
 2348TIP3   OH2 7049   3.029   5.586   1.052
 2348TIP3    H1 7050   3.053   5.632   0.972
 2348TIP3    H2 7051   3.099   5.608   1.114
 2349TIP3   OH2 7052   0.152   4.330   0.412
 2349TIP3    H1 7053   0.215   4.373   0.355
 2349TIP3    H2 7054   0.113   4.400   0.464
 2350TIP3   OH2 7055   0.844   1.230   0.141
 2350TIP3    H1 7056   0.840   1.218   0.236
 2350TIP3    H2 7057   0.760   1.269   0.118
 2351TIP3   OH2 7058   5.756   0.258   1.915
 2351TIP3    H1 7059   5.815   0.312   1.862
 2351TIP3    H2 7060   5.713   0.200   1.852
 2352TIP3   OH2 7061   3.636   0.083   0.418
 2352TIP3    H1 7062   3.575   0.143   0.376
 2352TIP3    H2 7063   3.587   0.000   0.425
 2353TIP3   OH2 7064   0.371   3.607   3.892
 2353TIP3    H1 7065   0.457   3.604   3.849
 2353TIP3    H2 7066   0.333   3.521   3.875
 2354TIP3   OH2 7067   1.541   4.788   1.042
 2354TIP3    H1 7068   1.506   4.768   0.955
 2354TIP3    H2 7069   1.524   4.881   1.054
 2355TIP3   OH2 7070   3.220   5.087   4.699
 2355TIP3    H1 7071   3.144   5.044   4.740
 2355TIP3    H2 7072   3.248   5.026   4.632
 2356TIP3   OH2 7073   0.029   1.881   5.184
 2356TIP3    H1 7074   0.110   1.915   5.146
 2356TIP3    H2 7075   0.056   1.841   5.266
 2357TIP3   OH2 7076   1.139   4.937   3.865
 2357TIP3    H1 7077   1.178   4.876   3.927
 2357TIP3    H2 7078   1.047   4.944   3.892
 2358TIP3   OH2 7079   4.020   5.070   4.382
 2358TIP3    H1 7080   4.034   5.147   4.328
 2358TIP3    H2 7081   4.072   5.085   4.461
 2359TIP3   OH2 7082   0.511   1.521   3.369
 2359TIP3    H1 7083   0.513   1.499   3.462
 2359TIP3    H2 7084   0.548   1.610   3.364
 2360TIP3   OH2 7085   4.608   4.717   2.329
 2360TIP3    H1 7086   4.618   4.624   2.312
 2360TIP3    H2 7087   4.567   4.722   2.415
 2361TIP3   OH2 7088   3.318   4.694   4.582
 2361TIP3    H1 7089   3.383   4.630   4.551
 2361TIP3    H2 7090   3.238   4.642   4.596
 2362TIP3   OH2 7091   1.180   1.649   0.537
 2362TIP3    H1 7092   1.203   1.717   0.601
 2362TIP3    H2 7093   1.252   1.649   0.474
 2363TIP3   OH2 7094   2.015   4.422   2.854
 2363TIP3    H1 7095   1.942   4.483   2.851
 2363TIP3    H2 7096   2.091   4.476   2.874
 2364TIP3   OH2 7097   4.021   2.334   2.631
 2364TIP3    H1 7098   4.017   2.239   2.647
 2364TIP3    H2 7099   4.107   2.348   2.592
 2365TIP3   OH2 7100   5.982   1.517   3.046
 2365TIP3    H1 7101   6.073   1.498   3.069
 2365TIP3    H2 7102   5.944   1.552   3.126
 2366TIP3   OH2 7103   0.750   2.895   3.201
 2366TIP3    H1 7104   0.827   2.948   3.224
 2366TIP3    H2 7105   0.702   2.886   3.284
 2367TIP3   OH2 7106   3.717   3.593   0.050
 2367TIP3    H1 7107   3.645   3.541   0.086
 2367TIP3    H2 7108   3.681   3.682   0.042
 2368TIP3   OH2 7109   1.188   4.941   1.229
 2368TIP3    H1 7110   1.146   5.001   1.167
 2368TIP3    H2 7111   1.256   4.993   1.272
 2369TIP3   OH2 7112   3.259   0.396   1.510
 2369TIP3    H1 7113   3.192   0.396   1.441
 2369TIP3    H2 7114   3.209   0.396   1.592
 2370TIP3   OH2 7115   2.515   2.728   2.486
 2370TIP3    H1 7116   2.597   2.736   2.534
 2370TIP3    H2 7117   2.493   2.818   2.462
 2371TIP3   OH2 7118   3.763   1.130   2.066
 2371TIP3    H1 7119   3.848   1.173   2.079
 2371TIP3    H2 7120   3.710   1.196   2.021
 2372TIP3   OH2 7121   3.602   4.648   0.382
 2372TIP3    H1 7122   3.578   4.732   0.342
 2372TIP3    H2 7123   3.690   4.661   0.417
 2373TIP3   OH2 7124   2.170   5.169   1.557
 2373TIP3    H1 7125   2.138   5.254   1.525
 2373TIP3    H2 7126   2.202   5.188   1.646
 2374TIP3   OH2 7127   0.242   5.621   2.314
 2374TIP3    H1 7128   0.319   5.630   2.370
 2374TIP3    H2 7129   0.174   5.670   2.360
 2375TIP3   OH2 7130   4.027   1.402   3.819
 2375TIP3    H1 7131   4.119   1.375   3.816
 2375TIP3    H2 7132   4.028   1.495   3.797
 2376TIP3   OH2 7133   1.419   3.884   4.721
 2376TIP3    H1 7134   1.476   3.960   4.708
 2376TIP3    H2 7135   1.430   3.832   4.642
 2377TIP3   OH2 7136   6.082   4.659   3.306
 2377TIP3    H1 7137   6.158   4.685   3.358
 2377TIP3    H2 7138   6.044   4.585   3.355
 2378TIP3   OH2 7139   5.139   0.217   2.938
 2378TIP3    H1 7140   5.232   0.211   2.958
 2378TIP3    H2 7141   5.102   0.134   2.968
 2379TIP3   OH2 7142   2.388   3.385   0.030
 2379TIP3    H1 7143   2.442   3.436   0.090
 2379TIP3    H2 7144   2.418   3.295   0.041
 2380TIP3   OH2 7145   5.087   4.983   1.907
 2380TIP3    H1 7146   5.155   4.996   1.841
 2380TIP3    H2 7147   5.118   4.910   1.961
 2381TIP3   OH2 7148   3.676   5.460   2.385
 2381TIP3    H1 7149   3.756   5.505   2.358
 2381TIP3    H2 7150   3.606   5.507   2.339
 2382TIP3   OH2 7151   1.106   3.399   3.781
 2382TIP3    H1 7152   1.066   3.332   3.836
 2382TIP3    H2 7153   1.161   3.450   3.841
 2383TIP3   OH2 7154   1.112   4.436   2.177
 2383TIP3    H1 7155   1.116   4.342   2.194
 2383TIP3    H2 7156   1.164   4.475   2.247
 2384TIP3   OH2 7157   0.467   1.666   4.822
 2384TIP3    H1 7158   0.503   1.595   4.769
 2384TIP3    H2 7159   0.381   1.635   4.850
 2385TIP3   OH2 7160   1.111   3.628   4.945
 2385TIP3    H1 7161   1.196   3.619   4.902
 2385TIP3    H2 7162   1.120   3.707   4.999
 2386TIP3   OH2 7163   4.437   4.564   0.558
 2386TIP3    H1 7164   4.385   4.632   0.601
 2386TIP3    H2 7165   4.422   4.486   0.612
 2387TIP3   OH2 7166   2.670   1.598   1.685
 2387TIP3    H1 7167   2.682   1.683   1.728
 2387TIP3    H2 7168   2.592   1.560   1.726
 2388TIP3   OH2 7169   5.938   3.774   3.838
 2388TIP3    H1 7170   5.859   3.725   3.860
 2388TIP3    H2 7171   5.907   3.848   3.786
 2389TIP3   OH2 7172   0.276   0.748   3.231
 2389TIP3    H1 7173   0.357   0.704   3.207
 2389TIP3    H2 7174   0.275   0.829   3.180
 2390TIP3   OH2 7175   4.148   5.492   3.409
 2390TIP3    H1 7176   4.214   5.555   3.378
 2390TIP3    H2 7177   4.189   5.407   3.397
 2391TIP3   OH2 7178   1.990   2.096   2.604
 2391TIP3    H1 7179   2.015   2.018   2.652
 2391TIP3    H2 7180   1.972   2.162   2.671
 2392TIP3   OH2 7181   5.683   1.334   3.736
 2392TIP3    H1 7182   5.608   1.285   3.772
 2392TIP3    H2 7183   5.671   1.423   3.770
 2393TIP3   OH2 7184   2.092   4.810   4.045
 2393TIP3    H1 7185   2.163   4.874   4.055
 2393TIP3    H2 7186   2.017   4.861   4.017
 2394TIP3   OH2 7187   2.948   4.382   1.626
 2394TIP3    H1 7188   2.997   4.465   1.628
 2394TIP3    H2 7189   2.890   4.390   1.551
 2395TIP3   OH2 7190   5.965   3.255   3.788
 2395TIP3    H1 7191   6.005   3.341   3.782
 2395TIP3    H2 7192   6.037   3.195   3.810
 2396TIP3   OH2 7193   1.053   3.336   3.012
 2396TIP3    H1 7194   0.975   3.365   3.059
 2396TIP3    H2 7195   1.076   3.411   2.957
 2397TIP3   OH2 7196   4.230   4.141   4.936
 2397TIP3    H1 7197   4.236   4.232   4.907
 2397TIP3    H2 7198   4.280   4.092   4.871
 2398TIP3   OH2 7199   1.259   3.921   0.720
 2398TIP3    H1 7200   1.206   3.845   0.695
 2398TIP3    H2 7201   1.350   3.891   0.708
 2399TIP3   OH2 7202   1.844   3.191   2.122
 2399TIP3    H1 7203   1.885   3.193   2.209
 2399TIP3    H2 7204   1.863   3.104   2.088
 2400TIP3   OH2 7205   3.318   2.394   0.102
 2400TIP3    H1 7206   3.380   2.347   0.046
 2400TIP3    H2 7207   3.236   2.394   0.052
 2401TIP3   OH2 7208   3.863   4.117   2.147
 2401TIP3    H1 7209   3.867   4.175   2.071
 2401TIP3    H2 7210   3.954   4.105   2.173
 2402TIP3   OH2 7211   5.876   0.901   0.281
 2402TIP3    H1 7212   5.920   0.979   0.316
 2402TIP3    H2 7213   5.943   0.833   0.285
 2403TIP3   OH2 7214   2.445   1.457   0.279
 2403TIP3    H1 7215   2.537   1.479   0.292
 2403TIP3    H2 7216   2.396   1.531   0.315
 2404TIP3   OH2 7217   1.097   0.756   3.590
 2404TIP3    H1 7218   1.135   0.818   3.653
 2404TIP3    H2 7219   1.059   0.687   3.645
 2405TIP3   OH2 7220   0.773   2.365   2.438
 2405TIP3    H1 7221   0.679   2.356   2.450
 2405TIP3    H2 7222   0.801   2.280   2.405
 2406TIP3   OH2 7223   3.131   1.846   2.770
 2406TIP3    H1 7224   3.063   1.824   2.833
 2406TIP3    H2 7225   3.084   1.870   2.691
 2407TIP3   OH2 7226   5.518   0.752   4.962
 2407TIP3    H1 7227   5.535   0.828   5.016
 2407TIP3    H2 7228   5.595   0.743   4.906
 2408TIP3   OH2 7229   5.039   1.763   1.874
 2408TIP3    H1 7230   5.078   1.679   1.851
 2408TIP3    H2 7231   5.097   1.828   1.835
 2409TIP3   OH2 7232   2.952   1.801   2.509
 2409TIP3    H1 7233   2.860   1.826   2.499
 2409TIP3    H2 7234   2.950   1.705   2.507
 2410TIP3   OH2 7235   3.951   1.271   2.998
 2410TIP3    H1 7236   3.856   1.280   3.003
 2410TIP3    H2 7237   3.975   1.229   3.081
 2411TIP3   OH2 7238   0.626   1.408   1.702
 2411TIP3    H1 7239   0.665   1.333   1.657
 2411TIP3    H2 7240   0.697   1.471   1.713
 2412TIP3   OH2 7241   0.533   4.212   1.186
 2412TIP3    H1 7242   0.457   4.224   1.243
 2412TIP3    H2 7243   0.506   4.145   1.123
 2413TIP3   OH2 7244   4.111   2.330   1.116
 2413TIP3    H1 7245   4.189   2.281   1.143
 2413TIP3    H2 7246   4.058   2.337   1.196
 2414TIP3   OH2 7247   4.650   1.312   0.428
 2414TIP3    H1 7248   4.599   1.231   0.414
 2414TIP3    H2 7249   4.657   1.319   0.523
 2415TIP3   OH2 7250   5.540   5.456   2.594
 2415TIP3    H1 7251   5.593   5.488   2.668
 2415TIP3    H2 7252   5.463   5.512   2.595
 2416TIP3   OH2 7253   6.280   3.921   2.167
 2416TIP3    H1 7254   6.313   3.997   2.118
 2416TIP3    H2 7255   6.237   3.866   2.101
 2417TIP3   OH2 7256   1.710   0.445   0.244
 2417TIP3    H1 7257   1.782   0.445   0.181
 2417TIP3    H2 7258   1.631   0.445   0.190
 2418TIP3   OH2 7259   4.707   3.333   0.747
 2418TIP3    H1 7260   4.649   3.374   0.683
 2418TIP3    H2 7261   4.671   3.245   0.760
 2419TIP3   OH2 7262   1.289   5.251   4.813
 2419TIP3    H1 7263   1.231   5.203   4.873
 2419TIP3    H2 7264   1.272   5.343   4.832
 2420TIP3   OH2 7265   5.858   4.080   0.361
 2420TIP3    H1 7266   5.922   4.009   0.350
 2420TIP3    H2 7267   5.893   4.152   0.309
 2421TIP3   OH2 7268   0.161   3.797   1.506
 2421TIP3    H1 7269   0.091   3.748   1.463
 2421TIP3    H2 7270   0.117   3.871   1.547
 2422TIP3   OH2 7271   6.273   5.294   2.859
 2422TIP3    H1 7272   6.196   5.266   2.908
 2422TIP3    H2 7273   6.346   5.246   2.899
 2423TIP3   OH2 7274   2.077   4.974   3.204
 2423TIP3    H1 7275   1.997   5.024   3.220
 2423TIP3    H2 7276   2.147   5.039   3.212
 2424TIP3   OH2 7277   0.644   4.409   2.805
 2424TIP3    H1 7278   0.619   4.316   2.808
 2424TIP3    H2 7279   0.589   4.446   2.737
 2425TIP3   OH2 7280   1.442   1.206   3.967
 2425TIP3    H1 7281   1.449   1.247   3.881
 2425TIP3    H2 7282   1.347   1.200   3.983
 2426TIP3   OH2 7283   0.555   2.527   1.859
 2426TIP3    H1 7284   0.607   2.447   1.873
 2426TIP3    H2 7285   0.565   2.546   1.766
 2427TIP3   OH2 7286   2.839   4.370   4.970
 2427TIP3    H1 7287   2.924   4.326   4.964
 2427TIP3    H2 7288   2.858   4.462   4.951
 2428TIP3   OH2 7289   1.018   3.239   2.306
 2428TIP3    H1 7290   1.038   3.317   2.358
 2428TIP3    H2 7291   1.102   3.197   2.291
 2429TIP3   OH2 7292   4.778   1.841   0.666
 2429TIP3    H1 7293   4.813   1.925   0.695
 2429TIP3    H2 7294   4.719   1.814   0.737
 2430TIP3   OH2 7295   3.097   3.665   2.804
 2430TIP3    H1 7296   3.103   3.755   2.836
 2430TIP3    H2 7297   3.072   3.614   2.882
 2431TIP3   OH2 7298   5.182   4.137   0.592
 2431TIP3    H1 7299   5.270   4.168   0.569
 2431TIP3    H2 7300   5.129   4.153   0.514
 2432TIP3   OH2 7301   3.892   2.980   2.458
 2432TIP3    H1 7302   3.799   2.965   2.470
 2432TIP3    H2 7303   3.934   2.903   2.497
 2433TIP3   OH2 7304   1.373   0.256   3.760
 2433TIP3    H1 7305   1.376   0.179   3.702
 2433TIP3    H2 7306   1.284   0.255   3.795
 2434TIP3   OH2 7307   2.769   2.988   3.465
 2434TIP3    H1 7308   2.865   2.981   3.462
 2434TIP3    H2 7309   2.751   3.034   3.548
 2435TIP3   OH2 7310   5.141   1.587   3.349
 2435TIP3    H1 7311   5.135   1.492   3.341
 2435TIP3    H2 7312   5.078   1.610   3.417
 2436TIP3   OH2 7313   2.505   5.092   3.532
 2436TIP3    H1 7314   2.569   5.046   3.587
 2436TIP3    H2 7315   2.435   5.029   3.519
 2437TIP3   OH2 7316   0.769   5.606   4.370
 2437TIP3    H1 7317   0.805   5.609   4.281
 2437TIP3    H2 7318   0.832   5.655   4.423
 2438TIP3   OH2 7319   2.608   1.105   3.148
 2438TIP3    H1 7320   2.584   1.129   3.238
 2438TIP3    H2 7321   2.635   1.188   3.109
 2439TIP3   OH2 7322   2.758   2.802   2.639
 2439TIP3    H1 7323   2.778   2.776   2.729
 2439TIP3    H2 7324   2.761   2.897   2.640
 2440TIP3   OH2 7325   2.544   4.719   0.895
 2440TIP3    H1 7326   2.505   4.668   0.823
 2440TIP3    H2 7327   2.541   4.809   0.864
 2441TIP3   OH2 7328   0.347   3.946   1.352
 2441TIP3    H1 7329   0.270   3.896   1.379
 2441TIP3    H2 7330   0.315   4.035   1.340
 2442TIP3   OH2 7331   4.877   2.937   3.002
 2442TIP3    H1 7332   4.823   2.862   2.978
 2442TIP3    H2 7333   4.954   2.930   2.946
 2443TIP3   OH2 7334   5.545   3.729   5.044
 2443TIP3    H1 7335   5.547   3.733   4.948
 2443TIP3    H2 7336   5.635   3.747   5.070
 2444TIP3   OH2 7337   2.270   2.504   2.769
 2444TIP3    H1 7338   2.349   2.545   2.805
 2444TIP3    H2 7339   2.293   2.483   2.678
 2445TIP3   OH2 7340   5.817   3.056   4.385
 2445TIP3    H1 7341   5.759   3.133   4.385
 2445TIP3    H2 7342   5.839   3.043   4.293
 2446TIP3   OH2 7343   1.635   1.384   3.425
 2446TIP3    H1 7344   1.605   1.320   3.489
 2446TIP3    H2 7345   1.695   1.336   3.369
 2447TIP3   OH2 7346   2.528   5.917   3.392
 2447TIP3    H1 7347   2.559   5.972   3.320
 2447TIP3    H2 7348   2.554   5.828   3.366
 2448TIP3   OH2 7349   1.046   5.333   4.525
 2448TIP3    H1 7350   0.988   5.260   4.505
 2448TIP3    H2 7351   1.068   5.371   4.440
 2449TIP3   OH2 7352   6.269   2.845   3.852
 2449TIP3    H1 7353   6.308   2.830   3.937
 2449TIP3    H2 7354   6.317   2.787   3.792
 2450TIP3   OH2 7355   3.870   0.337   1.101
 2450TIP3    H1 7356   3.965   0.330   1.095
 2450TIP3    H2 7357   3.848   0.289   1.181
 2451TIP3   OH2 7358   5.060   0.451   3.064
 2451TIP3    H1 7359   5.132   0.494   3.110
 2451TIP3    H2 7360   5.080   0.357   3.073
 2452TIP3   OH2 7361   3.557   2.064   1.466
 2452TIP3    H1 7362   3.636   2.013   1.485
 2452TIP3    H2 7363   3.527   2.031   1.381
 2453TIP3   OH2 7364   1.219   2.179   1.804
 2453TIP3    H1 7365   1.215   2.101   1.748
 2453TIP3    H2 7366   1.197   2.147   1.891
 2454TIP3   OH2 7367   5.712   1.178   2.386
 2454TIP3    H1 7368   5.669   1.093   2.382
 2454TIP3    H2 7369   5.697   1.209   2.476
 2455TIP3   OH2 7370   0.362   2.506   0.358
 2455TIP3    H1 7371   0.433   2.444   0.377
 2455TIP3    H2 7372   0.291   2.478   0.415
 2456TIP3   OH2 7373   2.846   5.317   1.925
 2456TIP3    H1 7374   2.822   5.296   2.016
 2456TIP3    H2 7375   2.857   5.231   1.884
 2457TIP3   OH2 7376   5.237   3.347   1.042
 2457TIP3    H1 7377   5.219   3.333   1.135
 2457TIP3    H2 7378   5.190   3.428   1.021
 2458TIP3   OH2 7379   3.979   0.789   4.989
 2458TIP3    H1 7380   3.926   0.818   4.914
 2458TIP3    H2 7381   3.928   0.719   5.029
 2459TIP3   OH2 7382   2.030   4.693   5.014
 2459TIP3    H1 7383   1.947   4.691   4.967
 2459TIP3    H2 7384   2.027   4.774   5.064
 2460TIP3   OH2 7385   4.975   1.753   3.911
 2460TIP3    H1 7386   4.971   1.844   3.881
 2460TIP3    H2 7387   4.911   1.707   3.857
 2461TIP3   OH2 7388   5.970   3.124   0.368
 2461TIP3    H1 7389   5.989   3.131   0.461
 2461TIP3    H2 7390   5.905   3.054   0.362
 2462TIP3   OH2 7391   5.236   4.822   4.376
 2462TIP3    H1 7392   5.210   4.749   4.433
 2462TIP3    H2 7393   5.275   4.886   4.436
 2463TIP3   OH2 7394   5.175   1.804   2.404
 2463TIP3    H1 7395   5.185   1.796   2.309
 2463TIP3    H2 7396   5.081   1.812   2.418
 2464TIP3   OH2 7397   3.025   1.403   1.230
 2464TIP3    H1 7398   3.055   1.399   1.139
 2464TIP3    H2 7399   2.936   1.367   1.227
 2465TIP3   OH2 7400   3.853   5.644   1.565
 2465TIP3    H1 7401   3.910   5.623   1.639
 2465TIP3    H2 7402   3.835   5.738   1.574
 2466TIP3   OH2 7403   2.239   2.793   2.482
 2466TIP3    H1 7404   2.320   2.751   2.454
 2466TIP3    H2 7405   2.245   2.797   2.578
 2467TIP3   OH2 7406   2.317   1.812   3.624
 2467TIP3    H1 7407   2.377   1.869   3.576
 2467TIP3    H2 7408   2.368   1.778   3.697
 2468TIP3   OH2 7409   1.584   0.670   2.839
 2468TIP3    H1 7410   1.581   0.656   2.934
 2468TIP3    H2 7411   1.497   0.705   2.817
 2469TIP3   OH2 7412   2.137   5.698   1.383
 2469TIP3    H1 7413   2.182   5.633   1.329
 2469TIP3    H2 7414   2.128   5.775   1.327
 2470TIP3   OH2 7415   5.843   0.907   3.622
 2470TIP3    H1 7416   5.895   0.861   3.556
 2470TIP3    H2 7417   5.908   0.944   3.682
 2471TIP3   OH2 7418   5.674   1.960   2.530
 2471TIP3    H1 7419   5.712   1.922   2.610
 2471TIP3    H2 7420   5.670   1.888   2.468
 2472TIP3   OH2 7421   4.437   0.156   5.079
 2472TIP3    H1 7422   4.348   0.180   5.106
 2472TIP3    H2 7423   4.451   0.069   5.117
 2473TIP3   OH2 7424   1.988   2.884   3.814
 2473TIP3    H1 7425   1.909   2.924   3.778
 2473TIP3    H2 7426   2.022   2.830   3.743
 2474TIP3   OH2 7427   3.013   2.740   5.137
 2474TIP3    H1 7428   2.995   2.834   5.127
 2474TIP3    H2 7429   3.089   2.737   5.196
 2475TIP3   OH2 7430   6.292   2.911   4.659
 2475TIP3    H1 7431   6.210   2.860   4.658
 2475TIP3    H2 7432   6.351   2.862   4.602
 2476TIP3   OH2 7433   0.762   5.122   5.146
 2476TIP3    H1 7434   0.817   5.201   5.145
 2476TIP3    H2 7435   0.692   5.142   5.208
 2477TIP3   OH2 7436   0.605   5.127   4.184
 2477TIP3    H1 7437   0.669   5.197   4.202
 2477TIP3    H2 7438   0.531   5.173   4.144
 2478TIP3   OH2 7439   6.279   0.941   3.577
 2478TIP3    H1 7440   6.348   0.883   3.608
 2478TIP3    H2 7441   6.251   0.902   3.493
 2479TIP3   OH2 7442   0.863   0.289   2.971
 2479TIP3    H1 7443   0.851   0.222   2.904
 2479TIP3    H2 7444   0.919   0.355   2.929
 2480TIP3   OH2 7445   1.467   2.811   5.053
 2480TIP3    H1 7446   1.484   2.735   5.109
 2480TIP3    H2 7447   1.380   2.795   5.016
 2481TIP3   OH2 7448   5.988   0.689   3.505
 2481TIP3    H1 7449   5.962   0.651   3.421
 2481TIP3    H2 7450   6.079   0.661   3.517
 2482TIP3   OH2 7451   1.400   4.902   0.091
 2482TIP3    H1 7452   1.434   4.819   0.123
 2482TIP3    H2 7453   1.384   4.954   0.170
 2483TIP3   OH2 7454   5.586   5.951   0.129
 2483TIP3    H1 7455   5.493   5.975   0.137
 2483TIP3    H2 7456   5.633   6.033   0.141
 2484TIP3   OH2 7457   4.497   2.576   3.771
 2484TIP3    H1 7458   4.557   2.567   3.697
 2484TIP3    H2 7459   4.543   2.634   3.832
 2485TIP3   OH2 7460   0.674   2.278   0.665
 2485TIP3    H1 7461   0.611   2.345   0.692
 2485TIP3    H2 7462   0.665   2.209   0.731
 2486TIP3   OH2 7463   5.294   2.064   0.049
 2486TIP3    H1 7464   5.240   1.987   0.065
 2486TIP3    H2 7465   5.380   2.041   0.083
 2487TIP3   OH2 7466   5.829   2.417   2.953
 2487TIP3    H1 7467   5.808   2.377   3.038
 2487TIP3    H2 7468   5.745   2.425   2.909
 2488TIP3   OH2 7469   0.021   4.659   3.070
 2488TIP3    H1 7470   0.006   4.613   3.152
 2488TIP3    H2 7471   0.020   4.751   3.094
 2489TIP3   OH2 7472   1.073   5.158   4.992
 2489TIP3    H1 7473   1.039   5.087   4.938
 2489TIP3    H2 7474   1.065   5.126   5.081
 2490TIP3   OH2 7475   0.785   4.245   3.500
 2490TIP3    H1 7476   0.715   4.188   3.531
 2490TIP3    H2 7477   0.817   4.203   3.420
 2491TIP3   OH2 7478   4.790   2.276   3.140
 2491TIP3    H1 7479   4.702   2.254   3.173
 2491TIP3    H2 7480   4.845   2.204   3.170
 2492TIP3   OH2 7481   2.151   4.265   3.944
 2492TIP3    H1 7482   2.216   4.266   4.014
 2492TIP3    H2 7483   2.077   4.217   3.981
 2493TIP3   OH2 7484   2.193   2.188   0.021
 2493TIP3    H1 7485   2.111   2.191   0.072
 2493TIP3    H2 7486   2.239   2.112   0.056
 2494TIP3   OH2 7487   2.850   4.574   2.936
 2494TIP3    H1 7488   2.793   4.523   2.878
 2494TIP3    H2 7489   2.890   4.639   2.880
 2495TIP3   OH2 7490   1.683   5.003   4.929
 2495TIP3    H1 7491   1.669   5.000   5.024
 2495TIP3    H2 7492   1.627   5.074   4.899
 2496TIP3   OH2 7493   4.199   5.207   1.592
 2496TIP3    H1 7494   4.276   5.259   1.574
 2496TIP3    H2 7495   4.178   5.226   1.684
 2497TIP3   OH2 7496   4.528   2.475   1.739
 2497TIP3    H1 7497   4.597   2.440   1.682
 2497TIP3    H2 7498   4.571   2.544   1.789
 2498TIP3   OH2 7499   1.103   2.538   1.080
 2498TIP3    H1 7500   1.055   2.457   1.097
 2498TIP3    H2 7501   1.152   2.555   1.160
 2499TIP3   OH2 7502   1.232   2.750   4.888
 2499TIP3    H1 7503   1.172   2.685   4.852
 2499TIP3    H2 7504   1.314   2.737   4.840
 2500TIP3   OH2 7505   5.662   3.102   4.919
 2500TIP3    H1 7506   5.601   3.176   4.922
 2500TIP3    H2 7507   5.645   3.060   4.835
 2501TIP3   OH2 7508   2.569   4.176   1.789
 2501TIP3    H1 7509   2.630   4.225   1.844
 2501TIP3    H2 7510   2.485   4.184   1.833
 2502TIP3   OH2 7511   0.611   2.078   1.317
 2502TIP3    H1 7512   0.578   2.135   1.248
 2502TIP3    H2 7513   0.538   2.019   1.336
 2503TIP3   OH2 7514   0.259   5.805   1.637
 2503TIP3    H1 7515   0.279   5.778   1.548
 2503TIP3    H2 7516   0.339   5.786   1.686
 2504TIP3   OH2 7517   0.580   3.382   4.108
 2504TIP3    H1 7518   0.529   3.447   4.156
 2504TIP3    H2 7519   0.669   3.417   4.107
 2505TIP3   OH2 7520   0.488   2.986   0.209
 2505TIP3    H1 7521   0.417   3.013   0.267
 2505TIP3    H2 7522   0.485   3.048   0.136
 2506TIP3   OH2 7523   3.000   2.901   3.699
 2506TIP3    H1 7524   3.085   2.858   3.686
 2506TIP3    H2 7525   2.988   2.954   3.620
 2507TIP3   OH2 7526   1.050   0.867   3.101
 2507TIP3    H1 7527   1.112   0.800   3.130
 2507TIP3    H2 7528   1.057   0.865   3.005
 2508TIP3   OH2 7529   2.524   0.030   4.925
 2508TIP3    H1 7530   2.584  -0.003   4.992
 2508TIP3    H2 7531   2.571   0.104   4.887
 2509TIP3   OH2 7532   1.082   0.845   4.383
 2509TIP3    H1 7533   0.996   0.826   4.421
 2509TIP3    H2 7534   1.097   0.937   4.402
 2510TIP3   OH2 7535   4.744   3.640   3.880
 2510TIP3    H1 7536   4.753   3.720   3.932
 2510TIP3    H2 7537   4.759   3.668   3.790
 2511TIP3   OH2 7538   4.967   1.075   4.032
 2511TIP3    H1 7539   4.910   1.010   4.072
 2511TIP3    H2 7540   5.013   1.116   4.105
 2512TIP3   OH2 7541   1.297   4.048   0.384
 2512TIP3    H1 7542   1.303   4.104   0.461
 2512TIP3    H2 7543   1.339   3.966   0.410
 2513TIP3   OH2 7544   3.124   2.314   1.743
 2513TIP3    H1 7545   3.173   2.252   1.689
 2513TIP3    H2 7546   3.177   2.324   1.823
 2514TIP3   OH2 7547   6.204   4.778   4.942
 2514TIP3    H1 7548   6.216   4.854   4.999
 2514TIP3    H2 7549   6.264   4.712   4.977
 2515TIP3   OH2 7550   3.536   5.062   3.807
 2515TIP3    H1 7551   3.499   5.055   3.719
 2515TIP3    H2 7552   3.567   4.974   3.828
 2516TIP3   OH2 7553   0.597   3.242   1.518
 2516TIP3    H1 7554   0.600   3.184   1.442
 2516TIP3    H2 7555   0.666   3.209   1.576
 2517TIP3   OH2 7556   5.704   2.968   1.336
 2517TIP3    H1 7557   5.750   2.920   1.267
 2517TIP3    H2 7558   5.723   3.060   1.316
 2518TIP3   OH2 7559   3.898   5.702   0.740
 2518TIP3    H1 7560   3.847   5.655   0.806
 2518TIP3    H2 7561   3.869   5.793   0.747
 2519TIP3   OH2 7562   5.663   1.191   2.931
 2519TIP3    H1 7563   5.677   1.096   2.934
 2519TIP3    H2 7564   5.581   1.205   2.978
 2520TIP3   OH2 7565   2.840   0.096   5.153
 2520TIP3    H1 7566   2.784   0.172   5.136
 2520TIP3    H2 7567   2.781   0.021   5.146
 2521TIP3   OH2 7568   6.131   4.167   2.398
 2521TIP3    H1 7569   6.195   4.229   2.361
 2521TIP3    H2 7570   6.047   4.195   2.362
 2522TIP3   OH2 7571   1.109   3.221   1.935
 2522TIP3    H1 7572   1.023   3.263   1.937
 2522TIP3    H2 7573   1.170   3.293   1.917
 2523TIP3   OH2 7574   5.228   5.549   4.769
 2523TIP3    H1 7575   5.224   5.453   4.761
 2523TIP3    H2 7576   5.137   5.577   4.761
 2524TIP3   OH2 7577   0.200   5.584   3.859
 2524TIP3    H1 7578   0.141   5.518   3.896
 2524TIP3    H2 7579   0.216   5.645   3.931
 2525TIP3   OH2 7580   0.018   5.687   2.809
 2525TIP3    H1 7581   0.020   5.750   2.881
 2525TIP3    H2 7582   0.014   5.740   2.730
 2526TIP3   OH2 7583   4.654   2.725   4.195
 2526TIP3    H1 7584   4.638   2.771   4.113
 2526TIP3    H2 7585   4.708   2.649   4.170
 2527TIP3   OH2 7586   5.072   5.813   2.950
 2527TIP3    H1 7587   5.125   5.887   2.979
 2527TIP3    H2 7588   5.086   5.746   3.017
 2528TIP3   OH2 7589   2.154   4.675   1.707
 2528TIP3    H1 7590   2.110   4.593   1.731
 2528TIP3    H2 7591   2.129   4.689   1.616
 2529TIP3   OH2 7592   4.886   0.579   1.083
 2529TIP3    H1 7593   4.850   0.630   1.010
 2529TIP3    H2 7594   4.814   0.521   1.109
 2530TIP3   OH2 7595   3.240   2.723   0.006
 2530TIP3    H1 7596   3.249   2.728   0.101
 2530TIP3    H2 7597   3.324   2.754  -0.028
 2531TIP3   OH2 7598   4.521   4.099   1.625
 2531TIP3    H1 7599   4.500   4.165   1.559
 2531TIP3    H2 7600   4.603   4.129   1.664
 2532TIP3   OH2 7601   2.618   3.101   1.334
 2532TIP3    H1 7602   2.679   3.152   1.388
 2532TIP3    H2 7603   2.640   3.125   1.244
 2533TIP3   OH2 7604   3.056   4.195   4.622
 2533TIP3    H1 7605   3.070   4.231   4.535
 2533TIP3    H2 7606   3.095   4.108   4.619
 2534TIP3   OH2 7607   4.973   5.229   0.041
 2534TIP3    H1 7608   5.034   5.216   0.114
 2534TIP3    H2 7609   5.015   5.296  -0.013
 2535TIP3   OH2 7610   4.578   3.654   1.809
 2535TIP3    H1 7611   4.518   3.727   1.798
 2535TIP3    H2 7612   4.530   3.592   1.864
 2536TIP3   OH2 7613   5.072   5.270   1.224
 2536TIP3    H1 7614   5.038   5.323   1.153
 2536TIP3    H2 7615   4.996   5.222   1.257
 2537TIP3   OH2 7616   5.084   3.971   1.990
 2537TIP3    H1 7617   5.165   3.947   1.946
 2537TIP3    H2 7618   5.016   3.923   1.943
 2538TIP3   OH2 7619   2.698   0.494   1.093
 2538TIP3    H1 7620   2.608   0.522   1.109
 2538TIP3    H2 7621   2.689   0.418   1.035
 2539TIP3   OH2 7622   3.237   1.259   4.105
 2539TIP3    H1 7623   3.189   1.193   4.156
 2539TIP3    H2 7624   3.192   1.341   4.125
 2540TIP3   OH2 7625   3.331   2.240   2.655
 2540TIP3    H1 7626   3.318   2.255   2.561
 2540TIP3    H2 7627   3.243   2.220   2.688
 2541TIP3   OH2 7628   5.529   2.892   1.021
 2541TIP3    H1 7629   5.546   2.822   1.084
 2541TIP3    H2 7630   5.611   2.942   1.017
 2542TIP3   OH2 7631   2.196   2.798   4.666
 2542TIP3    H1 7632   2.212   2.712   4.628
 2542TIP3    H2 7633   2.202   2.859   4.593
 2543TIP3   OH2 7634   3.162   0.106   4.777
 2543TIP3    H1 7635   3.254   0.123   4.757
 2543TIP3    H2 7636   3.163   0.057   4.858
 2544TIP3   OH2 7637   2.535   0.942   0.623
 2544TIP3    H1 7638   2.550   0.990   0.704
 2544TIP3    H2 7639   2.444   0.961   0.600
 2545TIP3   OH2 7640   1.741   0.790   0.713
 2545TIP3    H1 7641   1.809   0.728   0.686
 2545TIP3    H2 7642   1.726   0.844   0.636
 2546TIP3   OH2 7643   6.068   3.478   1.894
 2546TIP3    H1 7644   5.978   3.510   1.884
 2546TIP3    H2 7645   6.059   3.386   1.918
 2547TIP3   OH2 7646   1.104   0.537   5.039
 2547TIP3    H1 7647   1.028   0.543   5.097
 2547TIP3    H2 7648   1.165   0.603   5.073
 2548TIP3   OH2 7649   4.057   0.119   1.245
 2548TIP3    H1 7650   4.096   0.049   1.193
 2548TIP3    H2 7651   3.963   0.102   1.241
 2549TIP3   OH2 7652   3.361   1.475   0.205
 2549TIP3    H1 7653   3.372   1.487   0.111
 2549TIP3    H2 7654   3.267   1.456   0.216
 2550TIP3   OH2 7655   5.454   3.244   1.624
 2550TIP3    H1 7656   5.498   3.328   1.611
 2550TIP3    H2 7657   5.482   3.191   1.549
 2551TIP3   OH2 7658   5.985   3.203   0.995
 2551TIP3    H1 7659   6.076   3.191   1.023
 2551TIP3    H2 7660   5.987   3.280   0.939
 2552TIP3   OH2 7661   3.550   1.716   0.960
 2552TIP3    H1 7662   3.459   1.745   0.957
 2552TIP3    H2 7663   3.551   1.632   0.913
 2553TIP3   OH2 7664   5.466   0.062   0.293
 2553TIP3    H1 7665   5.541   0.099   0.247
 2553TIP3    H2 7666   5.416   0.017   0.224
 2554TIP3   OH2 7667   5.097   1.292   1.184
 2554TIP3    H1 7668   5.019   1.348   1.178
 2554TIP3    H2 7669   5.135   1.295   1.096
 2555TIP3   OH2 7670   4.605   0.858   1.298
 2555TIP3    H1 7671   4.577   0.892   1.383
 2555TIP3    H2 7672   4.662   0.784   1.319
 2556TIP3   OH2 7673   2.535   3.447   1.111
 2556TIP3    H1 7674   2.584   3.379   1.066
 2556TIP3    H2 7675   2.462   3.401   1.153
 2557TIP3   OH2 7676   5.660   4.055   1.649
 2557TIP3    H1 7677   5.566   4.048   1.630
 2557TIP3    H2 7678   5.689   3.964   1.657
 2558TIP3   OH2 7679   0.743   0.178   2.729
 2558TIP3    H1 7680   0.733   0.273   2.729
 2558TIP3    H2 7681   0.818   0.162   2.672
 2559TIP3   OH2 7682   5.521   0.700   1.494
 2559TIP3    H1 7683   5.552   0.790   1.507
 2559TIP3    H2 7684   5.596   0.646   1.519
 2560TIP3   OH2 7685   3.616   1.709   1.233
 2560TIP3    H1 7686   3.586   1.729   1.144
 2560TIP3    H2 7687   3.577   1.624   1.253
 2561TIP3   OH2 7688   4.590   4.128   4.596
 2561TIP3    H1 7689   4.555   4.039   4.587
 2561TIP3    H2 7690   4.523   4.176   4.645
 2562TIP3   OH2 7691   1.443   0.216   1.045
 2562TIP3    H1 7692   1.367   0.249   1.094
 2562TIP3    H2 7693   1.497   0.172   1.111
 2563TIP3   OH2 7694   2.048   5.087   4.012
 2563TIP3    H1 7695   2.139   5.113   3.997
 2563TIP3    H2 7696   2.029   5.116   4.101
 2564TIP3   OH2 7697   2.273   5.616   3.414
 2564TIP3    H1 7698   2.336   5.667   3.363
 2564TIP3    H2 7699   2.315   5.531   3.425
 2565TIP3   OH2 7700   3.480   3.164   2.262
 2565TIP3    H1 7701   3.465   3.177   2.169
 2565TIP3    H2 7702   3.464   3.071   2.277
 2566TIP3   OH2 7703   5.554   5.534   0.355
 2566TIP3    H1 7704   5.544   5.483   0.274
 2566TIP3    H2 7705   5.610   5.479   0.410
 2567TIP3   OH2 7706   2.052   4.701   3.189
 2567TIP3    H1 7707   2.037   4.701   3.284
 2567TIP3    H2 7708   2.067   4.793   3.167
 2568TIP3   OH2 7709   3.215   0.030   3.361
 2568TIP3    H1 7710   3.136  -0.023   3.358
 2568TIP3    H2 7711   3.184   0.120   3.350
 2569TIP3   OH2 7712   5.969   1.067   2.790
 2569TIP3    H1 7713   5.888   1.016   2.797
 2569TIP3    H2 7714   5.969   1.122   2.869
 2570TIP3   OH2 7715   3.479   3.423   0.124
 2570TIP3    H1 7716   3.452   3.332   0.129
 2570TIP3    H2 7717   3.430   3.458   0.049
 2571TIP3   OH2 7718   0.286   1.448   0.472
 2571TIP3    H1 7719   0.346   1.460   0.398
 2571TIP3    H2 7720   0.337   1.474   0.549
 2572TIP3   OH2 7721   3.657   5.374   1.870
 2572TIP3    H1 7722   3.747   5.388   1.900
 2572TIP3    H2 7723   3.629   5.293   1.913
 2573TIP3   OH2 7724   5.319   3.497   3.159
 2573TIP3    H1 7725   5.390   3.526   3.101
 2573TIP3    H2 7726   5.329   3.552   3.237
 2574TIP3   OH2 7727   0.958   0.358   1.804
 2574TIP3    H1 7728   0.989   0.366   1.714
 2574TIP3    H2 7729   0.868   0.326   1.796
 2575TIP3   OH2 7730   2.481   0.356   0.007
 2575TIP3    H1 7731   2.525   0.372   0.091
 2575TIP3    H2 7732   2.541   0.299  -0.041
 2576TIP3   OH2 7733   1.918   2.188   3.851
 2576TIP3    H1 7734   1.850   2.123   3.831
 2576TIP3    H2 7735   1.967   2.197   3.769
 2577TIP3   OH2 7736   0.836   3.263   1.887
 2577TIP3    H1 7737   0.769   3.331   1.897
 2577TIP3    H2 7738   0.830   3.236   1.795
 2578TIP3   OH2 7739   0.828  -0.012   3.826
 2578TIP3    H1 7740   0.736   0.013   3.818
 2578TIP3    H2 7741   0.850   0.007   3.917
 2579TIP3   OH2 7742   3.770   2.145   4.767
 2579TIP3    H1 7743   3.718   2.168   4.691
 2579TIP3    H2 7744   3.859   2.172   4.745
 2580TIP3   OH2 7745   6.319   4.723   3.733
 2580TIP3    H1 7746   6.386   4.770   3.782
 2580TIP3    H2 7747   6.339   4.630   3.748
 2581TIP3   OH2 7748   2.093   1.221   2.878
 2581TIP3    H1 7749   2.166   1.177   2.921
 2581TIP3    H2 7750   2.071   1.165   2.804
 2582TIP3   OH2 7751   5.896   0.273   4.801
 2582TIP3    H1 7752   5.908   0.222   4.721
 2582TIP3    H2 7753   5.864   0.209   4.865
 2583TIP3   OH2 7754   2.212   1.367   4.297
 2583TIP3    H1 7755   2.170   1.421   4.230
 2583TIP3    H2 7756   2.175   1.280   4.284
 2584TIP3   OH2 7757   0.696   5.539   5.095
 2584TIP3    H1 7758   0.773   5.591   5.073
 2584TIP3    H2 7759   0.693   5.540   5.191
 2585TIP3   OH2 7760   5.154   1.481   1.823
 2585TIP3    H1 7761   5.077   1.475   1.766
 2585TIP3    H2 7762   5.151   1.401   1.876
 2586TIP3   OH2 7763   0.304   2.392   2.190
 2586TIP3    H1 7764   0.246   2.361   2.120
 2586TIP3    H2 7765   0.369   2.447   2.145
 2587TIP3   OH2 7766   5.606   5.348   1.207
 2587TIP3    H1 7767   5.573   5.421   1.260
 2587TIP3    H2 7768   5.692   5.378   1.177
 2588TIP3   OH2 7769   1.128   0.643   3.290
 2588TIP3    H1 7770   1.098   0.569   3.342
 2588TIP3    H2 7771   1.063   0.712   3.307
 2589TIP3   OH2 7772   3.368   1.181   0.869
 2589TIP3    H1 7773   3.430   1.170   0.797
 2589TIP3    H2 7774   3.419   1.158   0.947
 2590TIP3   OH2 7775   2.801   5.202   1.051
 2590TIP3    H1 7776   2.716   5.244   1.066
 2590TIP3    H2 7777   2.865   5.267   1.077
 2591TIP3   OH2 7778   2.555   3.461   3.762
 2591TIP3    H1 7779   2.567   3.375   3.722
 2591TIP3    H2 7780   2.466   3.486   3.739
 2592TIP3   OH2 7781   5.594   3.177   1.136
 2592TIP3    H1 7782   5.633   3.265   1.132
 2592TIP3    H2 7783   5.556   3.165   1.049
 2593TIP3   OH2 7784   1.391   3.062   4.074
 2593TIP3    H1 7785   1.377   2.975   4.111
 2593TIP3    H2 7786   1.326   3.069   4.004
 2594TIP3   OH2 7787   2.362   0.335   0.476
 2594TIP3    H1 7788   2.274   0.355   0.508
 2594TIP3    H2 7789   2.402   0.283   0.546
 2595TIP3   OH2 7790   5.926   5.008   1.964
 2595TIP3    H1 7791   5.865   4.938   1.987
 2595TIP3    H2 7792   5.898   5.036   1.877
 2596TIP3   OH2 7793   1.089   5.895   2.081
 2596TIP3    H1 7794   1.170   5.846   2.095
 2596TIP3    H2 7795   1.102   5.939   1.997
 2597TIP3   OH2 7796   2.329   4.086   0.800
 2597TIP3    H1 7797   2.355   4.002   0.837
 2597TIP3    H2 7798   2.246   4.068   0.756
 2598TIP3   OH2 7799   3.282   1.127   0.149
 2598TIP3    H1 7800   3.358   1.171   0.110
 2598TIP3    H2 7801   3.238   1.084   0.076
 2599TIP3   OH2 7802   2.559   5.404   1.927
 2599TIP3    H1 7803   2.547   5.412   1.833
 2599TIP3    H2 7804   2.653   5.395   1.939
 2600TIP3   OH2 7805   0.999   5.082   3.489
 2600TIP3    H1 7806   0.958   5.081   3.402
 2600TIP3    H2 7807   1.075   5.138   3.479
 2601TIP3   OH2 7808   1.294   0.417   2.006
 2601TIP3    H1 7809   1.214   0.447   2.050
 2601TIP3    H2 7810   1.262   0.367   1.931
 2602TIP3   OH2 7811   3.967   3.816   2.071
 2602TIP3    H1 7812   4.009   3.747   2.123
 2602TIP3    H2 7813   3.879   3.824   2.109
 2603TIP3   OH2 7814   2.810   5.494   4.492
 2603TIP3    H1 7815   2.818   5.490   4.588
 2603TIP3    H2 7816   2.777   5.408   4.468
 2604TIP3   OH2 7817   2.437   2.488   3.473
 2604TIP3    H1 7818   2.519   2.486   3.522
 2604TIP3    H2 7819   2.440   2.411   3.417
 2605TIP3   OH2 7820   5.843   4.364   3.155
 2605TIP3    H1 7821   5.781   4.316   3.100
 2605TIP3    H2 7822   5.869   4.302   3.223
 2606TIP3   OH2 7823   3.035   4.351   1.134
 2606TIP3    H1 7824   3.096   4.423   1.118
 2606TIP3    H2 7825   3.091   4.274   1.146
 2607TIP3   OH2 7826   0.893   4.418   1.707
 2607TIP3    H1 7827   0.906   4.412   1.802
 2607TIP3    H2 7828   0.975   4.386   1.670
 2608TIP3   OH2 7829   3.072   0.418   2.632
 2608TIP3    H1 7830   3.010   0.376   2.691
 2608TIP3    H2 7831   3.140   0.454   2.689
 2609TIP3   OH2 7832   0.905   2.786   4.458
 2609TIP3    H1 7833   0.889   2.828   4.374
 2609TIP3    H2 7834   0.834   2.815   4.514
 2610TIP3   OH2 7835   2.077   3.563   0.572
 2610TIP3    H1 7836   2.149   3.589   0.630
 2610TIP3    H2 7837   1.998   3.598   0.614
 2611TIP3   OH2 7838   5.496   1.924   3.756
 2611TIP3    H1 7839   5.563   1.893   3.817
 2611TIP3    H2 7840   5.420   1.868   3.774
 2612TIP3   OH2 7841   2.923   0.572   4.160
 2612TIP3    H1 7842   2.980   0.496   4.146
 2612TIP3    H2 7843   2.912   0.610   4.073
 2613TIP3   OH2 7844   1.780   2.516   4.813
 2613TIP3    H1 7845   1.813   2.548   4.729
 2613TIP3    H2 7846   1.852   2.532   4.875
 2614TIP3   OH2 7847   3.415   5.821   0.838
 2614TIP3    H1 7848   3.402   5.853   0.749
 2614TIP3    H2 7849   3.347   5.866   0.889
 2615TIP3   OH2 7850   2.518   1.749   2.450
 2615TIP3    H1 7851   2.423   1.741   2.462
 2615TIP3    H2 7852   2.551   1.779   2.535
 2616TIP3   OH2 7853   2.870   0.355   2.146
 2616TIP3    H1 7854   2.857   0.270   2.104
 2616TIP3    H2 7855   2.889   0.334   2.237
 2617TIP3   OH2 7856   2.052   1.816   3.268
 2617TIP3    H1 7857   1.998   1.850   3.339
 2617TIP3    H2 7858   2.053   1.722   3.281
 2618TIP3   OH2 7859   0.383   1.884   3.785
 2618TIP3    H1 7860   0.467   1.842   3.769
 2618TIP3    H2 7861   0.387   1.966   3.735
 2619TIP3   OH2 7862   3.567   1.787   0.673
 2619TIP3    H1 7863   3.549   1.758   0.763
 2619TIP3    H2 7864   3.580   1.706   0.624
 2620TIP3   OH2 7865   5.149   1.128   4.227
 2620TIP3    H1 7866   5.207   1.060   4.261
 2620TIP3    H2 7867   5.089   1.147   4.300
 2621TIP3   OH2 7868   1.386   5.076   1.367
 2621TIP3    H1 7869   1.437   5.144   1.323
 2621TIP3    H2 7870   1.435   5.056   1.446
 2622TIP3   OH2 7871   2.924   4.571   0.162
 2622TIP3    H1 7872   2.901   4.543   0.074
 2622TIP3    H2 7873   2.986   4.505   0.193
 2623TIP3   OH2 7874   6.345   0.727   3.388
 2623TIP3    H1 7875   6.422   0.772   3.353
 2623TIP3    H2 7876   6.379   0.644   3.421
 2624TIP3   OH2 7877   4.154   5.167   0.315
 2624TIP3    H1 7878   4.105   5.107   0.259
 2624TIP3    H2 7879   4.244   5.135   0.311
 2625TIP3   OH2 7880   3.821   3.162   4.502
 2625TIP3    H1 7881   3.737   3.181   4.460
 2625TIP3    H2 7882   3.839   3.071   4.480
 2626TIP3   OH2 7883   1.527   5.004   3.682
 2626TIP3    H1 7884   1.528   4.969   3.771
 2626TIP3    H2 7885   1.463   4.949   3.636
 2627TIP3   OH2 7886   0.535   0.521   4.410
 2627TIP3    H1 7887   0.525   0.503   4.317
 2627TIP3    H2 7888   0.504   0.610   4.421
 2628TIP3   OH2 7889   2.628   0.477   2.001
 2628TIP3    H1 7890   2.683   0.461   2.077
 2628TIP3    H2 7891   2.690   0.493   1.929
 2629TIP3   OH2 7892   6.101   3.902   2.372
 2629TIP3    H1 7893   6.087   3.995   2.390
 2629TIP3    H2 7894   6.143   3.901   2.285
 2630TIP3   OH2 7895   3.564   5.238   0.838
 2630TIP3    H1 7896   3.596   5.326   0.822
 2630TIP3    H2 7897   3.642   5.187   0.861
 2631TIP3   OH2 7898   3.205   5.262   3.611
 2631TIP3    H1 7899   3.215   5.167   3.615
 2631TIP3    H2 7900   3.291   5.294   3.583
 2632TIP3   OH2 7901   3.197   3.854   1.921
 2632TIP3    H1 7902   3.109   3.833   1.890
 2632TIP3    H2 7903   3.199   3.822   2.012
 2633TIP3   OH2 7904   4.776   0.687   2.340
 2633TIP3    H1 7905   4.798   0.760   2.282
 2633TIP3    H2 7906   4.750   0.617   2.281
 2634TIP3   OH2 7907   2.632   4.653   4.192
 2634TIP3    H1 7908   2.574   4.702   4.250
 2634TIP3    H2 7909   2.573   4.615   4.126
 2635TIP3   OH2 7910   0.206   1.999   2.042
 2635TIP3    H1 7911   0.136   2.018   2.104
 2635TIP3    H2 7912   0.285   2.036   2.082
 2636TIP3   OH2 7913   1.856   4.644   2.738
 2636TIP3    H1 7914   1.880   4.721   2.688
 2636TIP3    H2 7915   1.837   4.577   2.672
 2637TIP3   OH2 7916   0.807   1.688   1.174
 2637TIP3    H1 7917   0.869   1.656   1.239
 2637TIP3    H2 7918   0.729   1.711   1.224
 2638TIP3   OH2 7919   0.219   0.065   4.151
 2638TIP3    H1 7920   0.251   0.154   4.166
 2638TIP3    H2 7921   0.128   0.067   4.182
 2639TIP3   OH2 7922   5.656   5.755   2.705
 2639TIP3    H1 7923   5.703   5.772   2.624
 2639TIP3    H2 7924   5.713   5.696   2.754
 2640TIP3   OH2 7925   0.208   3.015   3.532
 2640TIP3    H1 7926   0.249   2.930   3.547
 2640TIP3    H2 7927   0.273   3.066   3.485
 2641TIP3   OH2 7928   1.292   0.137   2.149
 2641TIP3    H1 7929   1.338   0.061   2.114
 2641TIP3    H2 7930   1.294   0.201   2.078
 2642TIP3   OH2 7931   2.724   4.380   2.779
 2642TIP3    H1 7932   2.673   4.303   2.804
 2642TIP3    H2 7933   2.662   4.435   2.731
 2643TIP3   OH2 7934   3.288   1.621   2.328
 2643TIP3    H1 7935   3.377   1.592   2.307
 2643TIP3    H2 7936   3.295   1.660   2.415
 2644TIP3   OH2 7937   1.236   1.145   2.748
 2644TIP3    H1 7938   1.172   1.158   2.818
 2644TIP3    H2 7939   1.321   1.147   2.793
 2645TIP3   OH2 7940   5.544   4.235   1.006
 2645TIP3    H1 7941   5.636   4.261   1.013
 2645TIP3    H2 7942   5.544   4.162   0.944
 2646TIP3   OH2 7943   0.800   1.314   2.169
 2646TIP3    H1 7944   0.884   1.331   2.211
 2646TIP3    H2 7945   0.821   1.302   2.076
 2647TIP3   OH2 7946   6.063   5.598   5.038
 2647TIP3    H1 7947   6.001   5.670   5.028
 2647TIP3    H2 7948   6.141   5.637   5.077
 2648TIP3   OH2 7949   1.326   4.261   2.440
 2648TIP3    H1 7950   1.399   4.319   2.462
 2648TIP3    H2 7951   1.338   4.186   2.498
 2649TIP3   OH2 7952   1.539   3.749   2.481
 2649TIP3    H1 7953   1.456   3.720   2.519
 2649TIP3    H2 7954   1.584   3.669   2.455
 2650TIP3   OH2 7955   1.865   5.832   1.821
 2650TIP3    H1 7956   1.853   5.919   1.857
 2650TIP3    H2 7957   1.853   5.842   1.726
 2651TIP3   OH2 7958   4.380   5.676   3.403
 2651TIP3    H1 7959   4.377   5.745   3.336
 2651TIP3    H2 7960   4.322   5.707   3.472
 2652TIP3   OH2 7961   3.976   5.923   1.841
 2652TIP3    H1 7962   4.017   5.872   1.912
 2652TIP3    H2 7963   3.913   5.980   1.886
 2653TIP3   OH2 7964   4.732   4.413   0.902
 2653TIP3    H1 7965   4.824   4.431   0.880
 2653TIP3    H2 7966   4.711   4.333   0.854
 2654TIP3   OH2 7967   0.461   1.219   4.246
 2654TIP3    H1 7968   0.395   1.275   4.206
 2654TIP3    H2 7969   0.413   1.140   4.272
 2655TIP3   OH2 7970   2.497   4.174   2.155
 2655TIP3    H1 7971   2.587   4.203   2.171
 2655TIP3    H2 7972   2.453   4.252   2.121
 2656TIP3   OH2 7973   3.181   5.929   2.892
 2656TIP3    H1 7974   3.122   5.867   2.850
 2656TIP3    H2 7975   3.196   5.893   2.980
 2657TIP3   OH2 7976   4.821   1.136   1.257
 2657TIP3    H1 7977   4.904   1.105   1.295
 2657TIP3    H2 7978   4.753   1.091   1.306
 2658TIP3   OH2 7979   0.601   4.253   0.793
 2658TIP3    H1 7980   0.592   4.166   0.755
 2658TIP3    H2 7981   0.649   4.303   0.727
 2659TIP3   OH2 7982   1.607   2.155   1.045
 2659TIP3    H1 7983   1.533   2.215   1.040
 2659TIP3    H2 7984   1.567   2.068   1.056
 2660TIP3   OH2 7985   3.954   5.083   3.534
 2660TIP3    H1 7986   4.028   5.099   3.476
 2660TIP3    H2 7987   3.928   5.170   3.565
 2661TIP3   OH2 7988   2.191   0.872   3.002
 2661TIP3    H1 7989   2.240   0.841   2.926
 2661TIP3    H2 7990   2.149   0.794   3.038
 2662TIP3   OH2 7991   5.159   2.183   0.363
 2662TIP3    H1 7992   5.177   2.150   0.451
 2662TIP3    H2 7993   5.186   2.113   0.304
 2663TIP3   OH2 7994   6.297   5.752   3.800
 2663TIP3    H1 7995   6.288   5.658   3.783
 2663TIP3    H2 7996   6.298   5.759   3.896
 2664TIP3   OH2 7997   2.877   4.124   3.043
 2664TIP3    H1 7998   2.856   4.186   3.113
 2664TIP3    H2 7999   2.962   4.153   3.009
 2665TIP3   OH2 8000   0.325   1.326   2.752
 2665TIP3    H1 8001   0.405   1.295   2.710
 2665TIP3    H2 8002   0.312   1.413   2.716
 2666TIP3   OH2 8003   5.499   4.324   0.024
 2666TIP3    H1 8004   5.562   4.375   0.075
 2666TIP3    H2 8005   5.431   4.300   0.088
 2667TIP3   OH2 8006   4.343   2.973   2.236
 2667TIP3    H1 8007   4.250   2.959   2.214
 2667TIP3    H2 8008   4.369   2.892   2.280
 2668TIP3   OH2 8009   5.616   5.165   2.308
 2668TIP3    H1 8010   5.534   5.178   2.261
 2668TIP3    H2 8011   5.683   5.174   2.241
 2669TIP3   OH2 8012   6.094   0.961   0.616
 2669TIP3    H1 8013   6.121   0.964   0.707
 2669TIP3    H2 8014   6.111   0.871   0.588
 2670TIP3   OH2 8015   1.254   3.775   2.274
 2670TIP3    H1 8016   1.341   3.801   2.247
 2670TIP3    H2 8017   1.232   3.834   2.346
 2671TIP3   OH2 8018   5.261   2.856   1.056
 2671TIP3    H1 8019   5.254   2.849   1.151
 2671TIP3    H2 8020   5.351   2.883   1.040
 2672TIP3   OH2 8021   0.913   1.222   3.859
 2672TIP3    H1 8022   0.828   1.209   3.817
 2672TIP3    H2 8023   0.895   1.281   3.932
 2673TIP3   OH2 8024   3.477   3.537   2.158
 2673TIP3    H1 8025   3.462   3.631   2.168
 2673TIP3    H2 8026   3.416   3.510   2.090
 2674TIP3   OH2 8027   4.451   4.025   5.105
 2674TIP3    H1 8028   4.477   4.022   5.197
 2674TIP3    H2 8029   4.369   4.074   5.104
 2675TIP3   OH2 8030   2.527   5.781   3.007
 2675TIP3    H1 8031   2.615   5.818   3.016
 2675TIP3    H2 8032   2.513   5.775   2.913
 2676TIP3   OH2 8033   3.625   3.148   5.089
 2676TIP3    H1 8034   3.701   3.128   5.034
 2676TIP3    H2 8035   3.577   3.065   5.094
 2677TIP3   OH2 8036   0.988   3.757   3.791
 2677TIP3    H1 8037   0.937   3.836   3.774
 2677TIP3    H2 8038   0.965   3.698   3.720
 2678TIP3   OH2 8039   0.612   1.128   4.521
 2678TIP3    H1 8040   0.567   1.134   4.437
 2678TIP3    H2 8041   0.542   1.132   4.586
 2679TIP3   OH2 8042   4.606   5.706   3.818
 2679TIP3    H1 8043   4.546   5.726   3.891
 2679TIP3    H2 8044   4.562   5.636   3.770
 2680TIP3   OH2 8045   5.618   4.917   1.778
 2680TIP3    H1 8046   5.674   4.922   1.855
 2680TIP3    H2 8047   5.678   4.899   1.706
 2681TIP3   OH2 8048   2.493   4.456   4.042
 2681TIP3    H1 8049   2.408   4.500   4.036
 2681TIP3    H2 8050   2.472   4.367   4.069
 2682TIP3   OH2 8051   3.445   5.280   2.435
 2682TIP3    H1 8052   3.513   5.342   2.410
 2682TIP3    H2 8053   3.433   5.224   2.358
 2683TIP3   OH2 8054   3.929   5.601   2.334
 2683TIP3    H1 8055   3.880   5.681   2.313
 2683TIP3    H2 8056   4.017   5.618   2.300
 2684TIP3   OH2 8057   2.856   4.955   3.898
 2684TIP3    H1 8058   2.872   4.937   3.991
 2684TIP3    H2 8059   2.892   5.042   3.884
 2685TIP3   OH2 8060   4.629   1.166   4.642
 2685TIP3    H1 8061   4.593   1.237   4.694
 2685TIP3    H2 8062   4.708   1.203   4.602
 2686TIP3   OH2 8063   4.364   0.011   3.361
 2686TIP3    H1 8064   4.459   0.005   3.365
 2686TIP3    H2 8065   4.347   0.101   3.332
 2687TIP3   OH2 8066   3.296   2.333   4.089
 2687TIP3    H1 8067   3.295   2.384   4.170
 2687TIP3    H2 8068   3.287   2.397   4.019
 2688TIP3   OH2 8069   2.757   4.577   3.834
 2688TIP3    H1 8070   2.822   4.647   3.843
 2688TIP3    H2 8071   2.761   4.531   3.918
 2689TIP3   OH2 8072   2.503   1.192   4.721
 2689TIP3    H1 8073   2.447   1.139   4.777
 2689TIP3    H2 8074   2.455   1.274   4.711
 2690TIP3   OH2 8075   4.726   5.593   0.710
 2690TIP3    H1 8076   4.818   5.568   0.702
 2690TIP3    H2 8077   4.698   5.613   0.621
 2691TIP3   OH2 8078   4.657   1.571   2.871
 2691TIP3    H1 8079   4.686   1.538   2.956
 2691TIP3    H2 8080   4.702   1.516   2.807
 2692TIP3   OH2 8081   4.469   0.093   4.484
 2692TIP3    H1 8082   4.514   0.174   4.506
 2692TIP3    H2 8083   4.417   0.072   4.562
 2693TIP3   OH2 8084   0.987   3.108   0.385
 2693TIP3    H1 8085   0.896   3.093   0.410
 2693TIP3    H2 8086   0.998   3.202   0.390
 2694TIP3   OH2 8087   0.756   2.356   5.163
 2694TIP3    H1 8088   0.824   2.307   5.116
 2694TIP3    H2 8089   0.714   2.290   5.219
 2695TIP3   OH2 8090   2.301   3.817   0.572
 2695TIP3    H1 8091   2.324   3.864   0.492
 2695TIP3    H2 8092   2.254   3.882   0.625
 2696TIP3   OH2 8093   0.444   4.799   5.218
 2696TIP3    H1 8094   0.397   4.779   5.137
 2696TIP3    H2 8095   0.419   4.889   5.238
 2697TIP3   OH2 8096   5.833   1.243   3.211
 2697TIP3    H1 8097   5.770   1.203   3.152
 2697TIP3    H2 8098   5.816   1.337   3.204
 2698TIP3   OH2 8099   0.076   0.316   5.036
 2698TIP3    H1 8100   0.150   0.350   5.086
 2698TIP3    H2 8101   0.040   0.392   4.992
 2699TIP3   OH2 8102   4.798   1.302   2.803
 2699TIP3    H1 8103   4.797   1.258   2.888
 2699TIP3    H2 8104   4.876   1.269   2.759
 2700TIP3   OH2 8105   4.607   0.748   4.280
 2700TIP3    H1 8106   4.544   0.814   4.253
 2700TIP3    H2 8107   4.668   0.794   4.336
 2701TIP3   OH2 8108   5.825   3.718   5.098
 2701TIP3    H1 8109   5.906   3.682   5.059
 2701TIP3    H2 8110   5.825   3.810   5.072
 2702TIP3   OH2 8111   5.148   3.664   2.991
 2702TIP3    H1 8112   5.175   3.613   3.067
 2702TIP3    H2 8113   5.128   3.599   2.924
 2703TIP3   OH2 8114   6.013   0.886   1.850
 2703TIP3    H1 8115   5.994   0.893   1.757
 2703TIP3    H2 8116   5.932   0.853   1.889
 2704TIP3   OH2 8117   4.762   3.758   2.803
 2704TIP3    H1 8118   4.761   3.816   2.879
 2704TIP3    H2 8119   4.683   3.783   2.754
 2705TIP3   OH2 8120   4.267   3.688   2.616
 2705TIP3    H1 8121   4.194   3.639   2.653
 2705TIP3    H2 8122   4.325   3.622   2.580
 2706TIP3   OH2 8123   1.152   1.900   0.322
 2706TIP3    H1 8124   1.189   1.814   0.301
 2706TIP3    H2 8125   1.228   1.956   0.337
 2707TIP3   OH2 8126   4.998   3.309   1.481
 2707TIP3    H1 8127   4.951   3.234   1.518
 2707TIP3    H2 8128   5.054   3.272   1.414
 2708TIP3   OH2 8129   1.405   3.410   1.032
 2708TIP3    H1 8130   1.496   3.403   1.061
 2708TIP3    H2 8131   1.402   3.495   0.987
 2709TIP3   OH2 8132   5.417   2.480   4.722
 2709TIP3    H1 8133   5.459   2.482   4.636
 2709TIP3    H2 8134   5.326   2.504   4.706
 2710TIP3   OH2 8135   4.474   1.892   3.309
 2710TIP3    H1 8136   4.412   1.821   3.296
 2710TIP3    H2 8137   4.550   1.868   3.257
 2711TIP3   OH2 8138   4.084   0.848   2.104
 2711TIP3    H1 8139   4.172   0.884   2.100
 2711TIP3    H2 8140   4.079   0.804   2.188
 2712TIP3   OH2 8141   0.635   0.025   4.907
 2712TIP3    H1 8142   0.677   0.108   4.885
 2712TIP3    H2 8143   0.599   0.039   4.995
 2713TIP3   OH2 8144   5.811   3.031   0.112
 2713TIP3    H1 8145   5.798   2.971   0.185
 2713TIP3    H2 8146   5.780   2.983   0.035
 2714TIP3   OH2 8147   2.006   4.209   5.178
 2714TIP3    H1 8148   1.991   4.273   5.109
 2714TIP3    H2 8149   2.081   4.158   5.148
 2715TIP3   OH2 8150   4.552   2.398   5.086
 2715TIP3    H1 8151   4.522   2.460   5.153
 2715TIP3    H2 8152   4.561   2.451   5.007
 2716TIP3   OH2 8153   2.597   0.073   3.445
 2716TIP3    H1 8154   2.658   0.001   3.463
 2716TIP3    H2 8155   2.654   0.147   3.421
 2717TIP3   OH2 8156   0.779   0.339   0.620
 2717TIP3    H1 8157   0.801   0.248   0.598
 2717TIP3    H2 8158   0.863   0.383   0.630
 2718TIP3   OH2 8159   2.415   2.627   1.640
 2718TIP3    H1 8160   2.341   2.615   1.580
 2718TIP3    H2 8161   2.428   2.540   1.679
 2719TIP3   OH2 8162   2.854   5.323   2.460
 2719TIP3    H1 8163   2.884   5.390   2.398
 2719TIP3    H2 8164   2.932   5.271   2.479
 2720TIP3   OH2 8165   4.618   2.854   4.829
 2720TIP3    H1 8166   4.632   2.900   4.746
 2720TIP3    H2 8167   4.533   2.887   4.861
 2721TIP3   OH2 8168   1.499   0.831   0.157
 2721TIP3    H1 8169   1.468   0.755   0.107
 2721TIP3    H2 8170   1.592   0.837   0.135
 2722TIP3   OH2 8171   3.541   3.852   4.252
 2722TIP3    H1 8172   3.580   3.938   4.267
 2722TIP3    H2 8173   3.447   3.868   4.253
 2723TIP3   OH2 8174   3.921   2.117   0.364
 2723TIP3    H1 8175   3.882   2.031   0.377
 2723TIP3    H2 8176   3.909   2.135   0.271
 2724TIP3   OH2 8177   5.684   0.192   0.128
 2724TIP3    H1 8178   5.668   0.284   0.151
 2724TIP3    H2 8179   5.725   0.196   0.042
 2725TIP3   OH2 8180   4.409   2.685   3.210
 2725TIP3    H1 8181   4.403   2.648   3.298
 2725TIP3    H2 8182   4.328   2.734   3.199
 2726TIP3   OH2 8183   0.166   1.252   2.477
 2726TIP3    H1 8184   0.192   1.243   2.385
 2726TIP3    H2 8185   0.235   1.206   2.526
 2727TIP3   OH2 8186   2.687   1.092   1.107
 2727TIP3    H1 8187   2.648   1.022   1.159
 2727TIP3    H2 8188   2.738   1.143   1.171
 2728TIP3   OH2 8189   1.091   3.635   0.389
 2728TIP3    H1 8190   0.999   3.641   0.413
 2728TIP3    H2 8191   1.098   3.684   0.306
 2729TIP3   OH2 8192   2.398   4.349   0.956
 2729TIP3    H1 8193   2.416   4.264   0.915
 2729TIP3    H2 8194   2.318   4.334   1.007
 2730TIP3   OH2 8195   0.669  -0.017   1.778
 2730TIP3    H1 8196   0.750   0.015   1.817
 2730TIP3    H2 8197   0.606   0.053   1.794
 2731TIP3   OH2 8198   2.975   1.763   3.756
 2731TIP3    H1 8199   3.009   1.843   3.717
 2731TIP3    H2 8200   2.974   1.699   3.685
 2732TIP3   OH2 8201   3.154   5.140   0.906
 2732TIP3    H1 8202   3.136   5.051   0.875
 2732TIP3    H2 8203   3.138   5.136   1.000
 2733TIP3   OH2 8204   2.210   5.286   2.305
 2733TIP3    H1 8205   2.280   5.307   2.244
 2733TIP3    H2 8206   2.162   5.214   2.263
 2734TIP3   OH2 8207   1.973   0.821   3.361
 2734TIP3    H1 8208   2.038   0.755   3.334
 2734TIP3    H2 8209   1.910   0.771   3.413
 2735TIP3   OH2 8210   4.951   4.217   2.969
 2735TIP3    H1 8211   5.019   4.196   2.905
 2735TIP3    H2 8212   4.883   4.261   2.918
 2736TIP3   OH2 8213   4.671   4.879   1.886
 2736TIP3    H1 8214   4.655   4.841   1.972
 2736TIP3    H2 8215   4.595   4.853   1.833
 2737TIP3   OH2 8216   5.266   1.756   3.052
 2737TIP3    H1 8217   5.323   1.775   2.978
 2737TIP3    H2 8218   5.208   1.687   3.020
 2738TIP3   OH2 8219   2.601   2.986   0.314
 2738TIP3    H1 8220   2.679   2.940   0.285
 2738TIP3    H2 8221   2.535   2.918   0.326
 2739TIP3   OH2 8222   2.930   0.017   3.453
 2739TIP3    H1 8223   2.926   0.086   3.386
 2739TIP3    H2 8224   2.859  -0.042   3.430
 2740TIP3   OH2 8225   0.138   3.229   4.044
 2740TIP3    H1 8226   0.198   3.179   3.989
 2740TIP3    H2 8227   0.142   3.318   4.009
 2741TIP3   OH2 8228   3.979   3.319   1.375
 2741TIP3    H1 8229   4.056   3.364   1.411
 2741TIP3    H2 8230   4.009   3.282   1.293
 2742TIP3   OH2 8231   3.546   5.891   2.599
 2742TIP3    H1 8232   3.525   5.894   2.505
 2742TIP3    H2 8233   3.474   5.937   2.641
 2743TIP3   OH2 8234   3.580   2.947   3.781
 2743TIP3    H1 8235   3.550   3.008   3.714
 2743TIP3    H2 8236   3.653   2.992   3.824
 2744TIP3   OH2 8237   1.849   2.684   5.073
 2744TIP3    H1 8238   1.916   2.751   5.061
 2744TIP3    H2 8239   1.798   2.714   5.148
 2745TIP3   OH2 8240   0.031   3.074   0.299
 2745TIP3    H1 8241   0.048   3.168   0.292
 2745TIP3    H2 8242   0.117   3.035   0.315
 2746TIP3   OH2 8243   3.761   4.354   4.549
 2746TIP3    H1 8244   3.712   4.273   4.562
 2746TIP3    H2 8245   3.741   4.408   4.625
 2747TIP3   OH2 8246   2.417   5.280   1.475
 2747TIP3    H1 8247   2.365   5.360   1.465
 2747TIP3    H2 8248   2.352   5.212   1.494
 2748TIP3   OH2 8249   0.126   3.092   4.288
 2748TIP3    H1 8250   0.038   3.055   4.296
 2748TIP3    H2 8251   0.119   3.155   4.215
 2749TIP3   OH2 8252   0.671   3.970   5.091
 2749TIP3    H1 8253   0.652   4.060   5.115
 2749TIP3    H2 8254   0.677   3.972   4.995
 2750TIP3   OH2 8255   4.092   2.302   0.519
 2750TIP3    H1 8256   4.037   2.253   0.458
 2750TIP3    H2 8257   4.174   2.254   0.521
 2751TIP3   OH2 8258   2.499   1.295   2.353
 2751TIP3    H1 8259   2.492   1.289   2.449
 2751TIP3    H2 8260   2.538   1.381   2.338
 2752TIP3   OH2 8261   0.912   5.413   3.375
 2752TIP3    H1 8262   0.968   5.463   3.315
 2752TIP3    H2 8263   0.902   5.328   3.332
 2753TIP3   OH2 8264   0.077   5.439   1.470
 2753TIP3    H1 8265   0.040   5.405   1.552
 2753TIP3    H2 8266   0.155   5.386   1.455
 2754TIP3   OH2 8267   5.064   3.394   3.497
 2754TIP3    H1 8268   5.106   3.480   3.493
 2754TIP3    H2 8269   4.989   3.400   3.438
 2755TIP3   OH2 8270   0.341   5.311   4.735
 2755TIP3    H1 8271   0.376   5.254   4.804
 2755TIP3    H2 8272   0.292   5.252   4.678
 2756TIP3   OH2 8273   3.230   5.031   2.926
 2756TIP3    H1 8274   3.312   4.983   2.912
 2756TIP3    H2 8275   3.257   5.120   2.949
 2757TIP3   OH2 8276   4.728   0.121   2.320
 2757TIP3    H1 8277   4.724   0.187   2.389
 2757TIP3    H2 8278   4.637   0.102   2.299
 2758TIP3   OH2 8279   2.482   5.771   2.154
 2758TIP3    H1 8280   2.437   5.691   2.127
 2758TIP3    H2 8281   2.415   5.822   2.199
 2759TIP3   OH2 8282   2.375   4.447   0.390
 2759TIP3    H1 8283   2.456   4.474   0.347
 2759TIP3    H2 8284   2.401   4.371   0.443
 2760TIP3   OH2 8285   4.786   2.352   3.911
 2760TIP3    H1 8286   4.769   2.262   3.941
 2760TIP3    H2 8287   4.842   2.341   3.834
 2761TIP3   OH2 8288   2.802   4.168   4.439
 2761TIP3    H1 8289   2.797   4.263   4.428
 2761TIP3    H2 8290   2.818   4.156   4.532
 2762TIP3   OH2 8291   2.660   5.764   0.961
 2762TIP3    H1 8292   2.702   5.848   0.946
 2762TIP3    H2 8293   2.569   5.778   0.935
 2763TIP3   OH2 8294   4.185   1.945   4.989
 2763TIP3    H1 8295   4.118   1.923   4.924
 2763TIP3    H2 8296   4.216   1.861   5.022
 2764TIP3   OH2 8297   3.497   4.351   3.426
 2764TIP3    H1 8298   3.541   4.434   3.444
 2764TIP3    H2 8299   3.553   4.307   3.361
 2765TIP3   OH2 8300   3.282   2.525   3.864
 2765TIP3    H1 8301   3.330   2.590   3.916
 2765TIP3    H2 8302   3.348   2.490   3.804
 2766TIP3   OH2 8303   4.943   5.441   4.299
 2766TIP3    H1 8304   4.969   5.486   4.380
 2766TIP3    H2 8305   4.965   5.349   4.314
 2767TIP3   OH2 8306   2.895   1.111   1.972
 2767TIP3    H1 8307   2.956   1.183   1.954
 2767TIP3    H2 8308   2.828   1.150   2.027
 2768TIP3   OH2 8309   1.284   1.418   3.261
 2768TIP3    H1 8310   1.231   1.338   3.265
 2768TIP3    H2 8311   1.315   1.421   3.170
 2769TIP3   OH2 8312   1.378   4.331   1.542
 2769TIP3    H1 8313   1.472   4.324   1.554
 2769TIP3    H2 8314   1.352   4.408   1.593
 2770TIP3   OH2 8315   0.368   4.946   3.249
 2770TIP3    H1 8316   0.394   4.994   3.171
 2770TIP3    H2 8317   0.415   4.989   3.321
 2771TIP3   OH2 8318   1.680   3.539   2.592
 2771TIP3    H1 8319   1.644   3.566   2.677
 2771TIP3    H2 8320   1.605   3.503   2.545
 2772TIP3   OH2 8321   0.836   4.055   2.621
 2772TIP3    H1 8322   0.896   3.982   2.610
 2772TIP3    H2 8323   0.750   4.014   2.630
 2773TIP3   OH2 8324   1.874   4.538   3.993
 2773TIP3    H1 8325   1.785   4.572   3.995
 2773TIP3    H2 8326   1.878   4.485   3.913
 2774TIP3   OH2 8327   1.414   2.008   0.781
 2774TIP3    H1 8328   1.483   1.969   0.835
 2774TIP3    H2 8329   1.394   2.091   0.823
 2775TIP3   OH2 8330   6.112   5.217   1.422
 2775TIP3    H1 8331   6.141   5.293   1.473
 2775TIP3    H2 8332   6.018   5.228   1.412
 2776TIP3   OH2 8333   3.360   4.400   3.845
 2776TIP3    H1 8334   3.267   4.402   3.870
 2776TIP3    H2 8335   3.397   4.478   3.885
 2777TIP3   OH2 8336   4.074   0.074   0.017
 2777TIP3    H1 8337   4.084   0.062  -0.078
 2777TIP3    H2 8338   4.155   0.117   0.044
 2778TIP3   OH2 8339   5.276   1.281   4.058
 2778TIP3    H1 8340   5.363   1.293   4.096
 2778TIP3    H2 8341   5.227   1.234   4.125
 2779TIP3   OH2 8342   0.139   1.662   3.821
 2779TIP3    H1 8343   0.158   1.754   3.838
 2779TIP3    H2 8344   0.157   1.618   3.904
 2780TIP3   OH2 8345   0.925   5.311   1.420
 2780TIP3    H1 8346   0.839   5.335   1.455
 2780TIP3    H2 8347   0.906   5.238   1.361
 2781TIP3   OH2 8348   5.471   3.082   1.379
 2781TIP3    H1 8349   5.475   3.147   1.309
 2781TIP3    H2 8350   5.544   3.022   1.359
 2782TIP3   OH2 8351   5.589   5.571   0.667
 2782TIP3    H1 8352   5.653   5.518   0.620
 2782TIP3    H2 8353   5.506   5.554   0.622
 2783TIP3   OH2 8354   1.685   0.400   3.393
 2783TIP3    H1 8355   1.730   0.321   3.423
 2783TIP3    H2 8356   1.675   0.387   3.298
 2784TIP3   OH2 8357   4.536   0.560   4.869
 2784TIP3    H1 8358   4.572   0.487   4.819
 2784TIP3    H2 8359   4.449   0.530   4.896
 2785TIP3   OH2 8360   5.057   0.002   3.098
 2785TIP3    H1 8361   5.112   0.002   3.177
 2785TIP3    H2 8362   4.968   0.016   3.131
 2786TIP3   OH2 8363   1.880   4.356   4.964
 2786TIP3    H1 8364   1.884   4.415   4.889
 2786TIP3    H2 8365   1.810   4.392   5.019
 2787TIP3   OH2 8366   3.212   0.205   2.225
 2787TIP3    H1 8367   3.143   0.139   2.216
 2787TIP3    H2 8368   3.246   0.217   2.137
 2788TIP3   OH2 8369   1.291   5.324   3.905
 2788TIP3    H1 8370   1.376   5.289   3.932
 2788TIP3    H2 8371   1.235   5.315   3.982
 2789TIP3   OH2 8372   0.161   5.058   0.629
 2789TIP3    H1 8373   0.196   4.991   0.688
 2789TIP3    H2 8374   0.106   5.010   0.568
 2790TIP3   OH2 8375   4.031   5.288   4.228
 2790TIP3    H1 8376   3.957   5.323   4.179
 2790TIP3    H2 8377   4.106   5.301   4.169
 2791TIP3   OH2 8378   4.581   2.227   1.500
 2791TIP3    H1 8379   4.606   2.313   1.467
 2791TIP3    H2 8380   4.663   2.177   1.500
 2792TIP3   OH2 8381   5.450   1.365   2.996
 2792TIP3    H1 8382   5.370   1.315   2.978
 2792TIP3    H2 8383   5.461   1.421   2.919
 2793TIP3   OH2 8384   5.326   4.533   4.278
 2793TIP3    H1 8385   5.369   4.592   4.340
 2793TIP3    H2 8386   5.397   4.502   4.221
 2794TIP3   OH2 8387   5.741   2.232   3.925
 2794TIP3    H1 8388   5.802   2.172   3.967
 2794TIP3    H2 8389   5.782   2.254   3.842
 2795TIP3   OH2 8390   5.600   1.797   0.256
 2795TIP3    H1 8391   5.572   1.885   0.230
 2795TIP3    H2 8392   5.532   1.739   0.221
 2796TIP3   OH2 8393   3.653   0.868   0.941
 2796TIP3    H1 8394   3.591   0.938   0.920
 2796TIP3    H2 8395   3.675   0.829   0.856
 2797TIP3   OH2 8396   2.965   3.156   0.412
 2797TIP3    H1 8397   2.971   3.144   0.507
 2797TIP3    H2 8398   3.034   3.099   0.377
 2798TIP3   OH2 8399   1.381   5.731   0.051
 2798TIP3    H1 8400   1.472   5.705   0.063
 2798TIP3    H2 8401   1.329   5.658   0.086
 2799TIP3   OH2 8402   5.299   0.171   4.104
 2799TIP3    H1 8403   5.216   0.209   4.076
 2799TIP3    H2 8404   5.296   0.176   4.200
 2800TIP3   OH2 8405   3.176   2.992   0.295
 2800TIP3    H1 8406   3.232   3.032   0.361
 2800TIP3    H2 8407   3.196   2.898   0.300
 2801TIP3   OH2 8408   2.694   1.566   0.243
 2801TIP3    H1 8409   2.689   1.656   0.274
 2801TIP3    H2 8410   2.730   1.573   0.155
 2802TIP3   OH2 8411   3.978   2.865   1.743
 2802TIP3    H1 8412   4.068   2.841   1.721
 2802TIP3    H2 8413   3.925   2.790   1.714
 2803TIP3   OH2 8414   2.552   2.646   5.090
 2803TIP3    H1 8415   2.553   2.728   5.139
 2803TIP3    H2 8416   2.461   2.618   5.091
 2804TIP3   OH2 8417   2.570   0.397   2.365
 2804TIP3    H1 8418   2.633   0.469   2.365
 2804TIP3    H2 8419   2.529   0.401   2.451
 2805TIP3   OH2 8420   6.166   0.383   0.517
 2805TIP3    H1 8421   6.078   0.345   0.509
 2805TIP3    H2 8422   6.217   0.340   0.448
 2806TIP3   OH2 8423   4.810   0.401   2.421
 2806TIP3    H1 8424   4.851   0.374   2.503
 2806TIP3    H2 8425   4.817   0.497   2.421
 2807TIP3   OH2 8426   4.533   3.313   3.206
 2807TIP3    H1 8427   4.584   3.350   3.134
 2807TIP3    H2 8428   4.526   3.383   3.270
 2808TIP3   OH2 8429   6.180   3.725   0.057
 2808TIP3    H1 8430   6.248   3.658   0.051
 2808TIP3    H2 8431   6.174   3.761  -0.031
 2809TIP3   OH2 8432   0.620   3.669   3.800
 2809TIP3    H1 8433   0.644   3.758   3.828
 2809TIP3    H2 8434   0.680   3.612   3.849
 2810TIP3   OH2 8435   5.783   2.317   2.564
 2810TIP3    H1 8436   5.792   2.323   2.469
 2810TIP3    H2 8437   5.733   2.395   2.588
 2811TIP3   OH2 8438   0.624   1.110   4.025
 2811TIP3    H1 8439   0.667   1.035   4.065
 2811TIP3    H2 8440   0.594   1.163   4.100
 2812TIP3   OH2 8441   2.243   0.092   0.590
 2812TIP3    H1 8442   2.324   0.137   0.615
 2812TIP3    H2 8443   2.262   0.056   0.503
 2813TIP3   OH2 8444   6.027   2.912   3.425
 2813TIP3    H1 8445   5.940   2.896   3.389
 2813TIP3    H2 8446   6.021   3.000   3.462
 2814TIP3   OH2 8447   4.782   5.713   1.849
 2814TIP3    H1 8448   4.815   5.790   1.802
 2814TIP3    H2 8449   4.736   5.750   1.925
 2815TIP3   OH2 8450   2.649   1.739   4.804
 2815TIP3    H1 8451   2.557   1.768   4.800
 2815TIP3    H2 8452   2.666   1.728   4.898
 2816TIP3   OH2 8453   2.047   2.539   4.950
 2816TIP3    H1 8454   2.031   2.625   4.988
 2816TIP3    H2 8455   2.077   2.486   5.024
 2817TIP3   OH2 8456   3.389   3.160   0.062
 2817TIP3    H1 8457   3.323   3.135   0.126
 2817TIP3    H2 8458   3.340   3.179  -0.018
 2818TIP3   OH2 8459   0.171   0.957   4.978
 2818TIP3    H1 8460   0.102   1.023   4.986
 2818TIP3    H2 8461   0.123   0.874   4.968
 2819TIP3   OH2 8462   5.986   0.517   4.981
 2819TIP3    H1 8463   6.038   0.513   5.061
 2819TIP3    H2 8464   5.912   0.458   4.997
 2820TIP3   OH2 8465   2.424   4.942   1.932
 2820TIP3    H1 8466   2.507   4.894   1.930
 2820TIP3    H2 8467   2.390   4.936   1.842
 2821TIP3   OH2 8468   5.151   0.561   4.484
 2821TIP3    H1 8469   5.078   0.593   4.538
 2821TIP3    H2 8470   5.205   0.511   4.545
 2822TIP3   OH2 8471   6.147   2.097   1.996
 2822TIP3    H1 8472   6.073   2.055   1.953
 2822TIP3    H2 8473   6.107   2.166   2.051
 2823TIP3   OH2 8474   4.517   0.051   3.040
 2823TIP3    H1 8475   4.554   0.066   2.953
 2823TIP3    H2 8476   4.514  -0.044   3.049
 2824TIP3   OH2 8477   3.688   2.824   4.541
 2824TIP3    H1 8478   3.640   2.906   4.529
 2824TIP3    H2 8479   3.642   2.779   4.612
 2825TIP3   OH2 8480   3.148   2.013   4.426
 2825TIP3    H1 8481   3.054   2.014   4.442
 2825TIP3    H2 8482   3.163   2.086   4.366
 2826TIP3   OH2 8483   6.239   1.523   1.198
 2826TIP3    H1 8484   6.278   1.609   1.182
 2826TIP3    H2 8485   6.252   1.474   1.117
 2827TIP3   OH2 8486   5.282   5.196   2.426
 2827TIP3    H1 8487   5.268   5.282   2.466
 2827TIP3    H2 8488   5.297   5.138   2.500
 2828TIP3   OH2 8489   3.157   3.877   2.600
 2828TIP3    H1 8490   3.232   3.820   2.615
 2828TIP3    H2 8491   3.088   3.844   2.658
 2829TIP3   OH2 8492   0.237   0.499   1.168
 2829TIP3    H1 8493   0.151   0.511   1.128
 2829TIP3    H2 8494   0.219   0.448   1.247
 2830TIP3   OH2 8495   1.782   2.381   2.319
 2830TIP3    H1 8496   1.721   2.330   2.265
 2830TIP3    H2 8497   1.858   2.395   2.263
 2831TIP3   OH2 8498   4.063   1.674   3.718
 2831TIP3    H1 8499   3.977   1.703   3.750
 2831TIP3    H2 8500   4.051   1.668   3.623
 2832TIP3   OH2 8501   0.912   5.438   3.943
 2832TIP3    H1 8502   1.004   5.450   3.968
 2832TIP3    H2 8503   0.915   5.418   3.850
 2833TIP3   OH2 8504   0.950   2.350   2.170
 2833TIP3    H1 8505   0.969   2.266   2.128
 2833TIP3    H2 8506   0.907   2.326   2.253
 2834TIP3   OH2 8507   2.347   5.153   3.252
 2834TIP3    H1 8508   2.366   5.074   3.302
 2834TIP3    H2 8509   2.432   5.177   3.214
 2835TIP3   OH2 8510   2.164   2.512   3.166
 2835TIP3    H1 8511   2.193   2.431   3.208
 2835TIP3    H2 8512   2.216   2.580   3.207
 2836TIP3   OH2 8513   3.670   4.306   1.850
 2836TIP3    H1 8514   3.735   4.353   1.798
 2836TIP3    H2 8515   3.605   4.275   1.787
 2837TIP3   OH2 8516   3.041   5.514   0.385
 2837TIP3    H1 8517   3.067   5.482   0.472
 2837TIP3    H2 8518   3.080   5.451   0.324
 2838TIP3   OH2 8519   1.464   5.480   5.053
 2838TIP3    H1 8520   1.470   5.523   4.967
 2838TIP3    H2 8521   1.547   5.433   5.062
 2839TIP3   OH2 8522   3.063   3.362   4.487
 2839TIP3    H1 8523   2.997   3.293   4.479
 2839TIP3    H2 8524   3.107   3.344   4.570
 2840TIP3   OH2 8525   5.668   2.725   2.682
 2840TIP3    H1 8526   5.663   2.708   2.588
 2840TIP3    H2 8527   5.665   2.639   2.722
 2841TIP3   OH2 8528   4.269   5.292   4.004
 2841TIP3    H1 8529   4.287   5.316   3.913
 2841TIP3    H2 8530   4.349   5.250   4.034
 2842TIP3   OH2 8531   5.463   5.747   1.953
 2842TIP3    H1 8532   5.542   5.801   1.962
 2842TIP3    H2 8533   5.392   5.806   1.980
 2843TIP3   OH2 8534   5.364   1.685   4.591
 2843TIP3    H1 8535   5.299   1.726   4.534
 2843TIP3    H2 8536   5.366   1.739   4.669
 2844TIP3   OH2 8537   2.602   2.306   0.956
 2844TIP3    H1 8538   2.610   2.392   0.998
 2844TIP3    H2 8539   2.514   2.276   0.979
 2845TIP3   OH2 8540   5.285   1.116   4.837
 2845TIP3    H1 8541   5.254   1.163   4.914
 2845TIP3    H2 8542   5.206   1.106   4.783
 2846TIP3   OH2 8543   2.970   4.648   2.436
 2846TIP3    H1 8544   2.982   4.730   2.388
 2846TIP3    H2 8545   2.982   4.672   2.528
 2847TIP3   OH2 8546   4.335   2.949   4.821
 2847TIP3    H1 8547   4.327   2.955   4.726
 2847TIP3    H2 8548   4.284   2.872   4.845
 2848TIP3   OH2 8549   0.593   3.285   0.975
 2848TIP3    H1 8550   0.656   3.327   1.035
 2848TIP3    H2 8551   0.637   3.205   0.947
 2849TIP3   OH2 8552   1.434   3.065   1.803
 2849TIP3    H1 8553   1.499   3.039   1.868
 2849TIP3    H2 8554   1.352   3.028   1.835
 2850TIP3   OH2 8555   2.838   2.071   2.710
 2850TIP3    H1 8556   2.799   2.091   2.625
 2850TIP3    H2 8557   2.804   1.985   2.733
 2851TIP3   OH2 8558   3.033   0.810   2.912
 2851TIP3    H1 8559   3.023   0.904   2.930
 2851TIP3    H2 8560   2.951   0.785   2.869
 2852TIP3   OH2 8561   3.935   3.802   1.788
 2852TIP3    H1 8562   3.851   3.757   1.781
 2852TIP3    H2 8563   3.948   3.815   1.883
 2853TIP3   OH2 8564   5.930   0.469   2.783
 2853TIP3    H1 8565   5.944   0.472   2.689
 2853TIP3    H2 8566   5.988   0.399   2.814
 2854TIP3   OH2 8567   1.848   0.241   1.705
 2854TIP3    H1 8568   1.797   0.301   1.760
 2854TIP3    H2 8569   1.919   0.296   1.671
 2855TIP3   OH2 8570   5.830   2.931   5.166
 2855TIP3    H1 8571   5.817   3.026   5.166
 2855TIP3    H2 8572   5.742   2.895   5.158
 2856TIP3   OH2 8573   0.254   2.684   0.186
 2856TIP3    H1 8574   0.161   2.660   0.183
 2856TIP3    H2 8575   0.291   2.628   0.254
 2857TIP3   OH2 8576   1.834   2.269   1.610
 2857TIP3    H1 8577   1.833   2.265   1.706
 2857TIP3    H2 8578   1.782   2.347   1.589
 2858TIP3   OH2 8579   3.772   3.532   3.492
 2858TIP3    H1 8580   3.688   3.574   3.512
 2858TIP3    H2 8581   3.787   3.472   3.564
 2859TIP3   OH2 8582   3.717   2.860   1.017
 2859TIP3    H1 8583   3.745   2.823   0.933
 2859TIP3    H2 8584   3.735   2.791   1.081
 2860TIP3   OH2 8585   0.863   4.819   2.807
 2860TIP3    H1 8586   0.866   4.723   2.805
 2860TIP3    H2 8587   0.952   4.846   2.784
 2861TIP3   OH2 8588   3.116   3.406   2.681
 2861TIP3    H1 8589   3.102   3.500   2.666
 2861TIP3    H2 8590   3.192   3.402   2.739
 2862TIP3   OH2 8591   5.479   4.961   1.332
 2862TIP3    H1 8592   5.560   4.972   1.383
 2862TIP3    H2 8593   5.414   5.012   1.381
 2863TIP3   OH2 8594   1.007   5.179   1.743
 2863TIP3    H1 8595   0.961   5.261   1.723
 2863TIP3    H2 8596   1.047   5.152   1.660
 2864TIP3   OH2 8597   1.765   5.629   4.875
 2864TIP3    H1 8598   1.767   5.626   4.779
 2864TIP3    H2 8599   1.826   5.559   4.902
 2865TIP3   OH2 8600   2.684   3.346   2.130
 2865TIP3    H1 8601   2.758   3.344   2.070
 2865TIP3    H2 8602   2.607   3.347   2.072
 2866TIP3   OH2 8603   5.870   1.720   4.419
 2866TIP3    H1 8604   5.787   1.728   4.466
 2866TIP3    H2 8605   5.932   1.692   4.486
 2867TIP3   OH2 8606   0.096   2.620   2.547
 2867TIP3    H1 8607   0.003   2.617   2.568
 2867TIP3    H2 8608   0.134   2.545   2.593
 2868TIP3   OH2 8609   3.563   4.169   0.675
 2868TIP3    H1 8610   3.515   4.216   0.607
 2868TIP3    H2 8611   3.599   4.237   0.731
 2869TIP3   OH2 8612   0.808   5.806   2.473
 2869TIP3    H1 8613   0.874   5.837   2.535
 2869TIP3    H2 8614   0.724   5.827   2.514
 2870TIP3   OH2 8615   0.191   4.275   2.250
 2870TIP3    H1 8616   0.187   4.282   2.346
 2870TIP3    H2 8617   0.283   4.290   2.229
 2871TIP3   OH2 8618   6.257   0.397   4.091
 2871TIP3    H1 8619   6.169   0.416   4.058
 2871TIP3    H2 8620   6.284   0.477   4.135
 2872TIP3   OH2 8621   3.716   2.608   1.105
 2872TIP3    H1 8622   3.680   2.555   1.034
 2872TIP3    H2 8623   3.783   2.552   1.144
 2873TIP3   OH2 8624   0.508   3.509   0.359
 2873TIP3    H1 8625   0.521   3.564   0.282
 2873TIP3    H2 8626   0.565   3.547   0.426
 2874TIP3   OH2 8627   4.424   0.323   0.279
 2874TIP3    H1 8628   4.391   0.309   0.368
 2874TIP3    H2 8629   4.512   0.360   0.291
 2875TIP3   OH2 8630   0.150   2.500   1.581
 2875TIP3    H1 8631   0.165   2.539   1.667
 2875TIP3    H2 8632   0.073   2.546   1.547
 2876TIP3   OH2 8633   1.705   5.322   5.073
 2876TIP3    H1 8634   1.683   5.240   5.028
 2876TIP3    H2 8635   1.723   5.296   5.163
 2877TIP3   OH2 8636   2.678   5.042   0.589
 2877TIP3    H1 8637   2.601   4.989   0.569
 2877TIP3    H2 8638   2.642   5.123   0.625
 2878TIP3   OH2 8639   0.532   2.409   3.069
 2878TIP3    H1 8640   0.520   2.473   2.999
 2878TIP3    H2 8641   0.512   2.324   3.028
 2879TIP3   OH2 8642   2.984   0.426   5.155
 2879TIP3    H1 8643   2.979   0.508   5.106
 2879TIP3    H2 8644   2.926   0.366   5.108
 2880TIP3   OH2 8645   4.214   0.708   1.663
 2880TIP3    H1 8646   4.284   0.765   1.696
 2880TIP3    H2 8647   4.184   0.659   1.740
 2881TIP3   OH2 8648   5.985   3.928   2.914
 2881TIP3    H1 8649   6.078   3.924   2.893
 2881TIP3    H2 8650   5.977   4.007   2.969
 2882TIP3   OH2 8651   4.615   3.127   0.040
 2882TIP3    H1 8652   4.570   3.118   0.124
 2882TIP3    H2 8653   4.627   3.038   0.009
 2883TIP3   OH2 8654   4.374   2.481   2.987
 2883TIP3    H1 8655   4.416   2.541   3.049
 2883TIP3    H2 8656   4.365   2.532   2.907
 2884TIP3   OH2 8657   3.327   0.635   5.110
 2884TIP3    H1 8658   3.359   0.722   5.133
 2884TIP3    H2 8659   3.294   0.599   5.192
 2885TIP3   OH2 8660   1.342   2.687   4.431
 2885TIP3    H1 8661   1.316   2.778   4.449
 2885TIP3    H2 8662   1.259   2.641   4.416
 2886TIP3   OH2 8663   3.998   2.652   2.296
 2886TIP3    H1 8664   4.030   2.562   2.287
 2886TIP3    H2 8665   4.050   2.688   2.368
 2887TIP3   OH2 8666   5.211   1.827   0.136
 2887TIP3    H1 8667   5.254   1.767   0.197
 2887TIP3    H2 8668   5.127   1.784   0.117
 2888TIP3   OH2 8669   2.885   2.558   1.603
 2888TIP3    H1 8670   2.802   2.577   1.558
 2888TIP3    H2 8671   2.859   2.507   1.680
 2889TIP3   OH2 8672   1.935   0.529   1.307
 2889TIP3    H1 8673   1.869   0.598   1.314
 2889TIP3    H2 8674   1.884   0.449   1.291
 2890TIP3   OH2 8675   6.018   5.743   4.555
 2890TIP3    H1 8676   6.102   5.764   4.513
 2890TIP3    H2 8677   6.001   5.815   4.615
 2891TIP3   OH2 8678   1.017   5.067   0.119
 2891TIP3    H1 8679   1.045   5.093   0.031
 2891TIP3    H2 8680   0.948   5.130   0.141
 2892TIP3   OH2 8681   3.070   5.272   3.042
 2892TIP3    H1 8682   3.150   5.251   3.090
 2892TIP3    H2 8683   3.002   5.218   3.082
 2893TIP3   OH2 8684   0.513   1.286   4.904
 2893TIP3    H1 8685   0.601   1.250   4.916
 2893TIP3    H2 8686   0.521   1.342   4.827
 2894TIP3   OH2 8687   1.992   5.491   3.946
 2894TIP3    H1 8688   1.948   5.414   3.910
 2894TIP3    H2 8689   2.015   5.466   4.035
 2895TIP3   OH2 8690   6.044   5.808   1.307
 2895TIP3    H1 8691   6.062   5.738   1.244
 2895TIP3    H2 8692   5.954   5.835   1.287
 2896TIP3   OH2 8693   3.921   3.884   0.521
 2896TIP3    H1 8694   3.845   3.832   0.549
 2896TIP3    H2 8695   3.885   3.944   0.456
 2897TIP3   OH2 8696   6.284   3.873   4.188
 2897TIP3    H1 8697   6.204   3.901   4.231
 2897TIP3    H2 8698   6.255   3.828   4.109
 2898TIP3   OH2 8699   3.669   4.588   4.186
 2898TIP3    H1 8700   3.755   4.606   4.147
 2898TIP3    H2 8701   3.617   4.666   4.166
 2899TIP3   OH2 8702   2.312   4.966   2.648
 2899TIP3    H1 8703   2.393   5.011   2.673
 2899TIP3    H2 8704   2.336   4.914   2.571
 2900TIP3   OH2 8705   1.339   5.079   4.346
 2900TIP3    H1 8706   1.358   5.153   4.404
 2900TIP3    H2 8707   1.307   5.010   4.404
 2901TIP3   OH2 8708   0.329   1.591   1.201
 2901TIP3    H1 8709   0.243   1.626   1.175
 2901TIP3    H2 8710   0.392   1.653   1.164
 2902TIP3   OH2 8711   5.472   3.998   4.609
 2902TIP3    H1 8712   5.532   4.052   4.660
 2902TIP3    H2 8713   5.467   4.041   4.524
 2903TIP3   OH2 8714   0.061   5.833   2.529
 2903TIP3    H1 8715   0.148   5.838   2.569
 2903TIP3    H2 8716   0.052   5.916   2.482
 2904TIP3   OH2 8717   2.901   1.882   2.107
 2904TIP3    H1 8718   2.966   1.814   2.123
 2904TIP3    H2 8719   2.831   1.864   2.170
 2905TIP3   OH2 8720   5.691   2.546   2.462
 2905TIP3    H1 8721   5.604   2.516   2.437
 2905TIP3    H2 8722   5.698   2.634   2.425
 2906TIP3   OH2 8723   5.514   1.035   0.421
 2906TIP3    H1 8724   5.515   1.091   0.499
 2906TIP3    H2 8725   5.571   0.961   0.445
 2907TIP3   OH2 8726   5.391   4.479   2.132
 2907TIP3    H1 8727   5.348   4.564   2.120
 2907TIP3    H2 8728   5.324   4.415   2.107
 2908TIP3   OH2 8729   1.841   5.673   4.633
 2908TIP3    H1 8730   1.833   5.646   4.541
 2908TIP3    H2 8731   1.931   5.650   4.657
 2909TIP3   OH2 8732   1.526   4.702   1.302
 2909TIP3    H1 8733   1.549   4.705   1.209
 2909TIP3    H2 8734   1.430   4.700   1.303
 2910TIP3   OH2 8735  -0.002   3.649   0.770
 2910TIP3    H1 8736  -0.049   3.657   0.688
 2910TIP3    H2 8737   0.078   3.700   0.758
 2911TIP3   OH2 8738   3.005   3.181   2.726
 2911TIP3    H1 8739   2.952   3.182   2.646
 2911TIP3    H2 8740   3.070   3.249   2.713
 2912TIP3   OH2 8741   4.584   2.517   0.928
 2912TIP3    H1 8742   4.546   2.494   1.013
 2912TIP3    H2 8743   4.533   2.593   0.899
 2913TIP3   OH2 8744   5.402   1.931   2.816
 2913TIP3    H1 8745   5.311   1.951   2.798
 2913TIP3    H2 8746   5.449   2.012   2.799
 2914TIP3   OH2 8747   2.097   2.302   4.202
 2914TIP3    H1 8748   2.186   2.335   4.213
 2914TIP3    H2 8749   2.091   2.229   4.263
 2915TIP3   OH2 8750   5.670   3.777   4.407
 2915TIP3    H1 8751   5.738   3.779   4.473
 2915TIP3    H2 8752   5.662   3.869   4.379
 2916TIP3   OH2 8753   0.462   3.806   5.142
 2916TIP3    H1 8754   0.492   3.722   5.109
 2916TIP3    H2 8755   0.540   3.862   5.143
 2917TIP3   OH2 8756   2.152   4.285   1.129
 2917TIP3    H1 8757   2.108   4.334   1.199
 2917TIP3    H2 8758   2.142   4.193   1.154
 2918TIP3   OH2 8759   5.188   4.046   0.873
 2918TIP3    H1 8760   5.191   4.067   0.780
 2918TIP3    H2 8761   5.206   4.129   0.917
 2919TIP3   OH2 8762   0.474   3.799   0.426
 2919TIP3    H1 8763   0.413   3.785   0.353
 2919TIP3    H2 8764   0.423   3.847   0.491
 2920TIP3   OH2 8765   3.684   5.577   5.162
 2920TIP3    H1 8766   3.680   5.602   5.254
 2920TIP3    H2 8767   3.758   5.516   5.157
 2921TIP3   OH2 8768   4.574   1.661   1.483
 2921TIP3    H1 8769   4.581   1.738   1.539
 2921TIP3    H2 8770   4.493   1.675   1.434
 2922TIP3   OH2 8771   5.951   1.122   3.442
 2922TIP3    H1 8772   5.953   1.034   3.405
 2922TIP3    H2 8773   5.911   1.176   3.374
 2923TIP3   OH2 8774   6.197   4.003   4.431
 2923TIP3    H1 8775   6.228   4.093   4.432
 2923TIP3    H2 8776   6.104   4.010   4.451
 2924TIP3   OH2 8777   3.548   3.589   2.900
 2924TIP3    H1 8778   3.541   3.684   2.909
 2924TIP3    H2 8779   3.585   3.576   2.813
 2925TIP3   OH2 8780   3.165   1.646   3.221
 2925TIP3    H1 8781   3.108   1.709   3.178
 2925TIP3    H2 8782   3.242   1.697   3.249
 2926TIP3   OH2 8783   2.881   5.520   4.779
 2926TIP3    H1 8784   2.912   5.610   4.773
 2926TIP3    H2 8785   2.947   5.475   4.832
 2927TIP3   OH2 8786   3.210   0.795   2.406
 2927TIP3    H1 8787   3.157   0.727   2.365
 2927TIP3    H2 8788   3.223   0.765   2.495
 2928TIP3   OH2 8789   3.150   1.381   3.849
 2928TIP3    H1 8790   3.204   1.331   3.910
 2928TIP3    H2 8791   3.187   1.470   3.852
 2929TIP3   OH2 8792   0.093   4.569   0.898
 2929TIP3    H1 8793   0.119   4.648   0.850
 2929TIP3    H2 8794  -0.001   4.581   0.914
 2930TIP3   OH2 8795   4.891   3.468   5.157
 2930TIP3    H1 8796   4.904   3.454   5.251
 2930TIP3    H2 8797   4.823   3.406   5.131
 2931TIP3   OH2 8798   1.167   5.865   3.578
 2931TIP3    H1 8799   1.167   5.929   3.507
 2931TIP3    H2 8800   1.081   5.825   3.574
 2932TIP3   OH2 8801   5.898   2.727   0.977
 2932TIP3    H1 8802   5.929   2.640   1.002
 2932TIP3    H2 8803   5.922   2.735   0.885
 2933TIP3   OH2 8804   2.278   4.271   4.185
 2933TIP3    H1 8805   2.336   4.277   4.261
 2933TIP3    H2 8806   2.192   4.251   4.222
 2934TIP3   OH2 8807   5.557   5.755   4.318
 2934TIP3    H1 8808   5.633   5.739   4.373
 2934TIP3    H2 8809   5.488   5.700   4.355
 2935TIP3   OH2 8810   5.570   4.588   4.077
 2935TIP3    H1 8811   5.644   4.527   4.074
 2935TIP3    H2 8812   5.559   4.617   3.987
 2936TIP3   OH2 8813   2.865   3.807   3.107
 2936TIP3    H1 8814   2.823   3.801   3.193
 2936TIP3    H2 8815   2.852   3.898   3.081
 2937TIP3   OH2 8816   1.185   4.875   2.951
 2937TIP3    H1 8817   1.277   4.851   2.948
 2937TIP3    H2 8818   1.185   4.969   2.969
 2938TIP3   OH2 8819   4.064   3.711   3.584
 2938TIP3    H1 8820   4.003   3.671   3.644
 2938TIP3    H2 8821   4.137   3.649   3.578
 2939TIP3   OH2 8822   5.074   0.029   0.545
 2939TIP3    H1 8823   5.080   0.116   0.507
 2939TIP3    H2 8824   5.126  -0.027   0.486
 2940TIP3   OH2 8825   3.933   4.287   0.715
 2940TIP3    H1 8826   3.973   4.273   0.629
 2940TIP3    H2 8827   3.864   4.351   0.700
 2941TIP3   OH2 8828   5.573   0.099   1.083
 2941TIP3    H1 8829   5.587   0.180   1.034
 2941TIP3    H2 8830   5.479   0.083   1.078
 2942TIP3   OH2 8831   4.186   3.993   0.212
 2942TIP3    H1 8832   4.159   3.905   0.237
 2942TIP3    H2 8833   4.182   4.043   0.294
 2943TIP3   OH2 8834   6.050   0.436   0.799
 2943TIP3    H1 8835   6.117   0.449   0.731
 2943TIP3    H2 8836   6.074   0.498   0.867
 2944TIP3   OH2 8837   4.934   2.907   2.461
 2944TIP3    H1 8838   4.952   2.912   2.555
 2944TIP3    H2 8839   5.020   2.893   2.421
 2945TIP3   OH2 8840   2.068   3.559   3.628
 2945TIP3    H1 8841   2.144   3.515   3.666
 2945TIP3    H2 8842   2.082   3.553   3.533
 2946TIP3   OH2 8843   5.386   2.371   3.378
 2946TIP3    H1 8844   5.481   2.381   3.387
 2946TIP3    H2 8845   5.365   2.295   3.432
 2947TIP3   OH2 8846   5.587   0.936   2.376
 2947TIP3    H1 8847   5.641   0.867   2.414
 2947TIP3    H2 8848   5.597   0.926   2.282
 2948TIP3   OH2 8849   5.818   1.409   2.865
 2948TIP3    H1 8850   5.865   1.451   2.936
 2948TIP3    H2 8851   5.779   1.331   2.904
 2949TIP3   OH2 8852   5.550   2.802   3.273
 2949TIP3    H1 8853   5.495   2.858   3.218
 2949TIP3    H2 8854   5.536   2.713   3.241
 2950TIP3   OH2 8855   3.276   3.420   0.447
 2950TIP3    H1 8856   3.320   3.437   0.531
 2950TIP3    H2 8857   3.188   3.457   0.459
 2951TIP3   OH2 8858   0.442   4.662   1.695
 2951TIP3    H1 8859   0.530   4.627   1.712
 2951TIP3    H2 8860   0.395   4.589   1.655
 2952TIP3   OH2 8861   4.225   5.921   4.381
 2952TIP3    H1 8862   4.214   6.014   4.361
 2952TIP3    H2 8863   4.158   5.902   4.446
 2953TIP3   OH2 8864   1.728   0.434   3.097
 2953TIP3    H1 8865   1.818   0.415   3.070
 2953TIP3    H2 8866   1.715   0.526   3.076
 2954TIP3   OH2 8867   4.885   0.055   1.707
 2954TIP3    H1 8868   4.952   0.121   1.688
 2954TIP3    H2 8869   4.860   0.021   1.621
 2955TIP3   OH2 8870  -0.008   3.756   3.581
 2955TIP3    H1 8871   0.041   3.743   3.500
 2955TIP3    H2 8872   0.044   3.818   3.631
 2956TIP3   OH2 8873   3.872   2.491   0.327
 2956TIP3    H1 8874   3.874   2.484   0.422
 2956TIP3    H2 8875   3.779   2.494   0.305
 2957TIP3   OH2 8876   0.792   5.877   1.679
 2957TIP3    H1 8877   0.773   5.956   1.629
 2957TIP3    H2 8878   0.867   5.838   1.634
 2958TIP3   OH2 8879   1.022   0.829   2.574
 2958TIP3    H1 8880   1.028   0.734   2.564
 2958TIP3    H2 8881   1.081   0.864   2.507
 2959TIP3   OH2 8882   1.052   4.818   3.574
 2959TIP3    H1 8883   1.022   4.908   3.588
 2959TIP3    H2 8884   0.972   4.766   3.572
 2960TIP3   OH2 8885   3.661   1.384   5.053
 2960TIP3    H1 8886   3.646   1.308   5.109
 2960TIP3    H2 8887   3.755   1.399   5.057
 2961TIP3   OH2 8888   4.923   1.204   1.816
 2961TIP3    H1 8889   4.866   1.243   1.883
 2961TIP3    H2 8890   4.876   1.125   1.788
 2962TIP3   OH2 8891   4.792   2.565   4.969
 2962TIP3    H1 8892   4.701   2.591   4.958
 2962TIP3    H2 8893   4.809   2.574   5.063
 2963TIP3   OH2 8894   4.779   4.166   4.139
 2963TIP3    H1 8895   4.874   4.181   4.138
 2963TIP3    H2 8896   4.750   4.203   4.222
 2964TIP3   OH2 8897   2.333   5.193   1.800
 2964TIP3    H1 8898   2.313   5.268   1.856
 2964TIP3    H2 8899   2.303   5.117   1.849
 2965TIP3   OH2 8900   3.712   4.833   3.790
 2965TIP3    H1 8901   3.744   4.813   3.702
 2965TIP3    H2 8902   3.787   4.871   3.835
 2966TIP3   OH2 8903   2.928   2.860   4.491
 2966TIP3    H1 8904   2.859   2.794   4.479
 2966TIP3    H2 8905   2.935   2.869   4.586
 2967TIP3   OH2 8906   4.079   0.108   4.834
 2967TIP3    H1 8907   4.056   0.064   4.916
 2967TIP3    H2 8908   4.035   0.056   4.766
 2968TIP3   OH2 8909   3.769   2.324   1.809
 2968TIP3    H1 8910   3.778   2.272   1.889
 2968TIP3    H2 8911   3.678   2.354   1.810
 2969TIP3   OH2 8912   0.375   1.250   3.313
 2969TIP3    H1 8913   0.409   1.334   3.345
 2969TIP3    H2 8914   0.421   1.236   3.230
 2970TIP3   OH2 8915   2.438   2.269   5.035
 2970TIP3    H1 8916   2.504   2.213   4.994
 2970TIP3    H2 8917   2.388   2.210   5.091
 2971TIP3   OH2 8918   0.959   5.190   0.439
 2971TIP3    H1 8919   1.004   5.130   0.499
 2971TIP3    H2 8920   0.898   5.134   0.391
 2972TIP3   OH2 8921   3.325   0.030   3.008
 2972TIP3    H1 8922   3.315  -0.023   3.088
 2972TIP3    H2 8923   3.242   0.018   2.962
 2973TIP3   OH2 8924   4.453   4.998   1.259
 2973TIP3    H1 8925   4.449   4.907   1.231
 2973TIP3    H2 8926   4.434   4.996   1.353
 2974TIP3   OH2 8927   1.095   0.702   4.130
 2974TIP3    H1 8928   1.087   0.754   4.209
 2974TIP3    H2 8929   1.103   0.612   4.161
 2975TIP3   OH2 8930   6.167   3.548   3.396
 2975TIP3    H1 8931   6.225   3.559   3.472
 2975TIP3    H2 8932   6.084   3.585   3.423
 2976TIP3   OH2 8933   3.123   3.735   0.917
 2976TIP3    H1 8934   3.187   3.664   0.929
 2976TIP3    H2 8935   3.039   3.693   0.933
 2977TIP3   OH2 8936   0.194   2.875   5.071
 2977TIP3    H1 8937   0.107   2.891   5.036
 2977TIP3    H2 8938   0.182   2.875   5.166
 2978TIP3   OH2 8939   3.086   4.470   3.030
 2978TIP3    H1 8940   2.991   4.477   3.020
 2978TIP3    H2 8941   3.121   4.528   2.962
 2979TIP3   OH2 8942   2.660   3.664   4.885
 2979TIP3    H1 8943   2.572   3.698   4.869
 2979TIP3    H2 8944   2.719   3.732   4.853
 2980TIP3   OH2 8945   2.430   0.619   4.908
 2980TIP3    H1 8946   2.387   0.618   4.994
 2980TIP3    H2 8947   2.494   0.689   4.914
 2981TIP3   OH2 8948   2.948   2.521   4.748
 2981TIP3    H1 8949   2.907   2.574   4.816
 2981TIP3    H2 8950   3.039   2.549   4.748
 2982TIP3   OH2 8951   5.747   5.565   1.952
 2982TIP3    H1 8952   5.803   5.638   1.924
 2982TIP3    H2 8953   5.788   5.535   2.033
 2983TIP3   OH2 8954   6.169   1.422   1.982
 2983TIP3    H1 8955   6.155   1.332   2.010
 2983TIP3    H2 8956   6.082   1.456   1.965
 2984TIP3   OH2 8957   4.849   5.752   4.265
 2984TIP3    H1 8958   4.779   5.705   4.222
 2984TIP3    H2 8959   4.912   5.684   4.291
 2985TIP3   OH2 8960   4.720   1.183   4.995
 2985TIP3    H1 8961   4.688   1.212   5.080
 2985TIP3    H2 8962   4.651   1.207   4.934
 2986TIP3   OH2 8963   1.143   3.101   1.377
 2986TIP3    H1 8964   1.127   3.165   1.446
 2986TIP3    H2 8965   1.085   3.028   1.399
 2987TIP3   OH2 8966   3.470   3.666   4.891
 2987TIP3    H1 8967   3.510   3.721   4.824
 2987TIP3    H2 8968   3.390   3.634   4.850
 2988TIP3   OH2 8969   1.074   1.643   1.871
 2988TIP3    H1 8970   1.083   1.591   1.951
 2988TIP3    H2 8971   1.147   1.706   1.876
 2989TIP3   OH2 8972   5.787   5.799   3.044
 2989TIP3    H1 8973   5.797   5.849   2.963
 2989TIP3    H2 8974   5.820   5.712   3.023
 2990TIP3   OH2 8975   5.871   5.482   3.212
 2990TIP3    H1 8976   5.793   5.442   3.173
 2990TIP3    H2 8977   5.839   5.521   3.293
 2991TIP3   OH2 8978   1.740   0.510   1.031
 2991TIP3    H1 8979   1.761   0.603   1.037
 2991TIP3    H2 8980   1.691   0.491   1.112
 2992TIP3   OH2 8981   4.032   0.022   4.323
 2992TIP3    H1 8982   4.053   0.059   4.237
 2992TIP3    H2 8983   4.116   0.021   4.369
 2993TIP3   OH2 8984   5.761   5.515   3.503
 2993TIP3    H1 8985   5.762   5.610   3.497
 2993TIP3    H2 8986   5.686   5.494   3.559
 2994TIP3   OH2 8987   2.816   4.142   0.602
 2994TIP3    H1 8988   2.905   4.143   0.637
 2994TIP3    H2 8989   2.763   4.102   0.672
 2995TIP3   OH2 8990   3.607   0.679   2.640
 2995TIP3    H1 8991   3.577   0.731   2.565
 2995TIP3    H2 8992   3.579   0.729   2.717
 2996TIP3   OH2 8993   1.401   3.829   0.054
 2996TIP3    H1 8994   1.390   3.746   0.101
 2996TIP3    H2 8995   1.317   3.874   0.066
 2997TIP3   OH2 8996   2.810   0.793   2.095
 2997TIP3    H1 8997   2.782   0.867   2.150
 2997TIP3    H2 8998   2.728   0.757   2.062
 2998TIP3   OH2 8999   3.356   3.388   5.083
 2998TIP3    H1 9000   3.286   3.442   5.047
 2998TIP3    H2 9001   3.343   3.303   5.041
 2999TIP3   OH2 9002   5.265   0.493   3.231
 2999TIP3    H1 9003   5.317   0.569   3.204
 2999TIP3    H2 9004   5.250   0.506   3.324
 3000TIP3   OH2 9005   3.568   1.437   1.302
 3000TIP3    H1 9006   3.627   1.363   1.316
 3000TIP3    H2 9007   3.496   1.422   1.364
 3001TIP3   OH2 9008   1.852   0.086   4.743
 3001TIP3    H1 9009   1.797   0.128   4.677
 3001TIP3    H2 9010   1.900   0.158   4.784
 3002TIP3   OH2 9011   1.413   4.566   3.802
 3002TIP3    H1 9012   1.366   4.555   3.884
 3002TIP3    H2 9013   1.345   4.566   3.735
 3003TIP3   OH2 9014   1.141   3.437   0.799
 3003TIP3    H1 9015   1.051   3.450   0.828
 3003TIP3    H2 9016   1.176   3.371   0.858
 3004TIP3   OH2 9017   4.183   0.120   3.829
 3004TIP3    H1 9018   4.107   0.062   3.833
 3004TIP3    H2 9019   4.242   0.078   3.766
 3005TIP3   OH2 9020   3.719   3.523   4.865
 3005TIP3    H1 9021   3.706   3.485   4.778
 3005TIP3    H2 9022   3.639   3.574   4.881
 3006TIP3   OH2 9023   4.061   5.138   4.686
 3006TIP3    H1 9024   4.104   5.223   4.693
 3006TIP3    H2 9025   4.094   5.089   4.761
 3007TIP3   OH2 9026   6.017   4.831   3.799
 3007TIP3    H1 9027   6.052   4.914   3.833
 3007TIP3    H2 9028   6.086   4.797   3.742
 3008TIP3   OH2 9029   0.046   2.270   4.975
 3008TIP3    H1 9030   0.007   2.329   4.910
 3008TIP3    H2 9031   0.130   2.244   4.937
 3009TIP3   OH2 9032   3.358   0.074   0.561
 3009TIP3    H1 9033   3.346  -0.001   0.502
 3009TIP3    H2 9034   3.397   0.141   0.506
 3010TIP3   OH2 9035   2.313   2.453   0.312
 3010TIP3    H1 9036   2.315   2.368   0.268
 3010TIP3    H2 9037   2.259   2.508   0.256
 3011TIP3   OH2 9038   2.980   1.969   0.577
 3011TIP3    H1 9039   3.044   1.898   0.581
 3011TIP3    H2 9040   3.019   2.040   0.628
 3012TIP3   OH2 9041   2.865   3.022   2.269
 3012TIP3    H1 9042   2.960   3.007   2.264
 3012TIP3    H2 9043   2.830   2.938   2.298
 3013TIP3   OH2 9044   1.771   5.602   0.984
 3013TIP3    H1 9045   1.848   5.548   1.004
 3013TIP3    H2 9046   1.701   5.539   0.969
 3014TIP3   OH2 9047   1.915   3.024   0.478
 3014TIP3    H1 9048   1.942   2.990   0.563
 3014TIP3    H2 9049   1.910   3.119   0.490
 3015TIP3   OH2 9050   1.784   2.632   3.234
 3015TIP3    H1 9051   1.809   2.673   3.152
 3015TIP3    H2 9052   1.688   2.640   3.236
 3016TIP3   OH2 9053   3.241   5.530   2.322
 3016TIP3    H1 9054   3.279   5.591   2.385
 3016TIP3    H2 9055   3.204   5.460   2.375
 3017TIP3   OH2 9056   2.741   0.182   4.570
 3017TIP3    H1 9057   2.711   0.148   4.485
 3017TIP3    H2 9058   2.701   0.269   4.576
 3018TIP3   OH2 9059   2.626   1.094   4.498
 3018TIP3    H1 9060   2.566   1.125   4.430
 3018TIP3    H2 9061   2.586   1.123   4.580
 3019TIP3   OH2 9062   3.450   3.141   1.330
 3019TIP3    H1 9063   3.544   3.157   1.328
 3019TIP3    H2 9064   3.441   3.046   1.331
 3020TIP3   OH2 9065   3.292   4.387   2.708
 3020TIP3    H1 9066   3.293   4.303   2.660
 3020TIP3    H2 9067   3.201   4.413   2.709
 3021TIP3   OH2 9068   6.260   3.674   1.017
 3021TIP3    H1 9069   6.325   3.716   1.074
 3021TIP3    H2 9070   6.302   3.672   0.931
 3022TIP3   OH2 9071   5.996   0.692   1.275
 3022TIP3    H1 9072   6.074   0.730   1.315
 3022TIP3    H2 9073   5.966   0.758   1.213
 3023TIP3   OH2 9074   5.856   4.831   3.356
 3023TIP3    H1 9075   5.919   4.762   3.337
 3023TIP3    H2 9076   5.771   4.788   3.351
 3024TIP3   OH2 9077   1.765   2.752   2.045
 3024TIP3    H1 9078   1.825   2.677   2.040
 3024TIP3    H2 9079   1.681   2.713   2.068
 3025TIP3   OH2 9080   1.180   2.449   2.417
 3025TIP3    H1 9081   1.088   2.467   2.440
 3025TIP3    H2 9082   1.231   2.496   2.483
 3026TIP3   OH2 9083   1.249   3.139   3.072
 3026TIP3    H1 9084   1.162   3.176   3.062
 3026TIP3    H2 9085   1.241   3.078   3.145
 3027TIP3   OH2 9086   2.019   0.804   1.231
 3027TIP3    H1 9087   2.025   0.709   1.230
 3027TIP3    H2 9088   1.932   0.823   1.266
 3028TIP3   OH2 9089   0.764   1.941   3.969
 3028TIP3    H1 9090   0.858   1.953   3.981
 3028TIP3    H2 9091   0.751   1.947   3.874
 3029TIP3   OH2 9092   4.990   0.880   0.286
 3029TIP3    H1 9093   5.071   0.925   0.309
 3029TIP3    H2 9094   5.011   0.787   0.295
 3030TIP3   OH2 9095   4.769   0.676   4.764
 3030TIP3    H1 9096   4.701   0.656   4.828
 3030TIP3    H2 9097   4.833   0.728   4.812
 3031TIP3   OH2 9098   5.249   1.628   0.993
 3031TIP3    H1 9099   5.215   1.673   0.916
 3031TIP3    H2 9100   5.252   1.696   1.061
 3032TIP3   OH2 9101   3.000   2.528   2.459
 3032TIP3    H1 9102   2.982   2.434   2.454
 3032TIP3    H2 9103   3.035   2.541   2.547
 3033TIP3   OH2 9104   4.096   2.623   4.520
 3033TIP3    H1 9105   4.174   2.571   4.540
 3033TIP3    H2 9106   4.037   2.561   4.478
 3034TIP3   OH2 9107   3.230   1.907   4.972
 3034TIP3    H1 9108   3.243   1.903   4.878
 3034TIP3    H2 9109   3.145   1.951   4.983
 3035TIP3   OH2 9110   3.891   1.304   0.616
 3035TIP3    H1 9111   3.879   1.380   0.559
 3035TIP3    H2 9112   3.903   1.343   0.703
 3036TIP3   OH2 9113   2.357   4.982   4.052
 3036TIP3    H1 9114   2.348   5.046   3.980
 3036TIP3    H2 9115   2.419   4.917   4.018
 3037TIP3   OH2 9116   1.973   5.025   1.641
 3037TIP3    H1 9117   1.940   5.104   1.683
 3037TIP3    H2 9118   2.055   5.052   1.600
 3038TIP3   OH2 9119   3.348   4.478   0.268
 3038TIP3    H1 9120   3.369   4.560   0.223
 3038TIP3    H2 9121   3.422   4.461   0.325
 3039TIP3   OH2 9122   1.817   4.570   0.652
 3039TIP3    H1 9123   1.722   4.561   0.643
 3039TIP3    H2 9124   1.830   4.661   0.678
 3040TIP3   OH2 9125   0.982   2.155   3.235
 3040TIP3    H1 9126   1.033   2.093   3.183
 3040TIP3    H2 9127   0.900   2.165   3.187
 3041TIP3   OH2 9128   0.272   2.194   4.823
 3041TIP3    H1 9129   0.339   2.240   4.874
 3041TIP3    H2 9130   0.320   2.158   4.749
 3042TIP3   OH2 9131   4.196   3.488   1.524
 3042TIP3    H1 9132   4.266   3.532   1.476
 3042TIP3    H2 9133   4.171   3.551   1.592
 3043TIP3   OH2 9134   0.577   5.269   4.512
 3043TIP3    H1 9135   0.605   5.242   4.599
 3043TIP3    H2 9136   0.496   5.319   4.528
 3044TIP3   OH2 9137   4.514   3.939   1.909
 3044TIP3    H1 9138   4.580   4.002   1.880
 3044TIP3    H2 9139   4.564   3.865   1.943
 3045TIP3   OH2 9140   3.090   4.417   0.468
 3045TIP3    H1 9141   3.028   4.350   0.439
 3045TIP3    H2 9142   3.045   4.500   0.454
 3046TIP3   OH2 9143   1.982   4.636   0.435
 3046TIP3    H1 9144   1.922   4.593   0.496
 3046TIP3    H2 9145   2.053   4.573   0.422
 3047TIP3   OH2 9146   6.302   5.585   0.932
 3047TIP3    H1 9147   6.329   5.677   0.939
 3047TIP3    H2 9148   6.208   5.589   0.914
 3048TIP3   OH2 9149   2.644   5.021   5.155
 3048TIP3    H1 9150   2.562   5.046   5.114
 3048TIP3    H2 9151   2.657   4.929   5.131
 3049TIP3   OH2 9152   5.345   0.260   2.515
 3049TIP3    H1 9153   5.297   0.243   2.434
 3049TIP3    H2 9154   5.367   0.353   2.511
 3050TIP3   OH2 9155   0.314   4.048   4.646
 3050TIP3    H1 9156   0.381   4.028   4.711
 3050TIP3    H2 9157   0.300   4.142   4.653
 3051TIP3   OH2 9158   0.499   0.368   1.549
 3051TIP3    H1 9159   0.420   0.420   1.532
 3051TIP3    H2 9160   0.562   0.400   1.485
 3052TIP3   OH2 9161   2.117   0.919   0.984
 3052TIP3    H1 9162   2.153   0.844   0.936
 3052TIP3    H2 9163   2.127   0.896   1.076
 3053TIP3   OH2 9164   4.310   1.749   1.693
 3053TIP3    H1 9165   4.331   1.658   1.671
 3053TIP3    H2 9166   4.284   1.789   1.611
 3054TIP3   OH2 9167   2.082   0.999   2.720
 3054TIP3    H1 9168   2.152   0.934   2.724
 3054TIP3    H2 9169   2.006   0.954   2.757
 3055TIP3   OH2 9170   3.519   3.326   4.826
 3055TIP3    H1 9171   3.537   3.385   4.899
 3055TIP3    H2 9172   3.606   3.302   4.793
 3056TIP3   OH2 9173   1.339   4.818   2.140
 3056TIP3    H1 9174   1.280   4.888   2.111
 3056TIP3    H2 9175   1.369   4.777   2.059
 3057TIP3   OH2 9176   2.928   0.551   0.412
 3057TIP3    H1 9177   2.950   0.522   0.323
 3057TIP3    H2 9178   2.968   0.638   0.418
 3058TIP3   OH2 9179   1.336   4.640   4.776
 3058TIP3    H1 9180   1.425   4.607   4.787
 3058TIP3    H2 9181   1.279   4.567   4.800
 3059TIP3   OH2 9182   1.499   3.124   2.352
 3059TIP3    H1 9183   1.416   3.129   2.304
 3059TIP3    H2 9184   1.476   3.147   2.442
 3060TIP3   OH2 9185   2.648   2.652   1.479
 3060TIP3    H1 9186   2.612   2.697   1.555
 3060TIP3    H2 9187   2.585   2.671   1.409
 3061TIP3   OH2 9188   3.949   2.331   4.155
 3061TIP3    H1 9189   3.999   2.350   4.076
 3061TIP3    H2 9190   4.014   2.300   4.218
 3062TIP3   OH2 9191   0.865   0.817   1.334
 3062TIP3    H1 9192   0.778   0.784   1.309
 3062TIP3    H2 9193   0.902   0.748   1.388
 3063TIP3   OH2 9194   1.043   1.132   2.513
 3063TIP3    H1 9195   1.010   1.053   2.470
 3063TIP3    H2 9196   1.132   1.108   2.540
 3064TIP3   OH2 9197   2.499   2.843   1.270
 3064TIP3    H1 9198   2.516   2.937   1.276
 3064TIP3    H2 9199   2.432   2.827   1.336
 3065TIP3   OH2 9200   4.470   0.550   0.683
 3065TIP3    H1 9201   4.459   0.458   0.706
 3065TIP3    H2 9202   4.563   0.558   0.660
 3066TIP3   OH2 9203   1.876   0.724   3.964
 3066TIP3    H1 9204   1.959   0.678   3.950
 3066TIP3    H2 9205   1.884   0.804   3.913
 3067TIP3   OH2 9206   0.455   5.133   3.466
 3067TIP3    H1 9207   0.474   5.157   3.556
 3067TIP3    H2 9208   0.410   5.209   3.429
 3068TIP3   OH2 9209   0.551   1.474   4.680
 3068TIP3    H1 9210   0.621   1.433   4.630
 3068TIP3    H2 9211   0.471   1.446   4.635
 3069TIP3   OH2 9212   6.165   0.948   0.877
 3069TIP3    H1 9213   6.237   0.895   0.844
 3069TIP3    H2 9214   6.191   0.972   0.966
 3070TIP3   OH2 9215   4.070   4.167   1.068
 3070TIP3    H1 9216   4.033   4.250   1.039
 3070TIP3    H2 9217   3.995   4.114   1.094
 3071TIP3   OH2 9218   1.497   0.606   1.945
 3071TIP3    H1 9219   1.430   0.537   1.940
 3071TIP3    H2 9220   1.448   0.688   1.946
 3072TIP3   OH2 9221   0.990   5.011   4.280
 3072TIP3    H1 9222   1.002   4.917   4.270
 3072TIP3    H2 9223   1.074   5.043   4.312
 3073TIP3   OH2 9224   0.273   3.449   0.176
 3073TIP3    H1 9225   0.346   3.489   0.225
 3073TIP3    H2 9226   0.314   3.379   0.125
 3074TIP3   OH2 9227   5.138   5.421   2.232
 3074TIP3    H1 9228   5.152   5.420   2.327
 3074TIP3    H2 9229   5.139   5.329   2.207
 3075TIP3   OH2 9230   1.185   1.044   4.165
 3075TIP3    H1 9231   1.183   0.974   4.100
 3075TIP3    H2 9232   1.096   1.080   4.164
 3076TIP3   OH2 9233   3.752   3.141   1.057
 3076TIP3    H1 9234   3.701   3.169   1.134
 3076TIP3    H2 9235   3.718   3.054   1.037
 3077TIP3   OH2 9236   2.561   1.116   0.845
 3077TIP3    H1 9237   2.567   1.111   0.940
 3077TIP3    H2 9238   2.641   1.161   0.817
 3078TIP3   OH2 9239   3.516   0.758   0.734
 3078TIP3    H1 9240   3.539   0.709   0.654
 3078TIP3    H2 9241   3.433   0.720   0.763
 3079TIP3   OH2 9242   0.330   3.468   5.206
 3079TIP3    H1 9243   0.262   3.485   5.141
 3079TIP3    H2 9244   0.329   3.373   5.217
 3080TIP3   OH2 9245   2.576   5.633   2.476
 3080TIP3    H1 9246   2.521   5.688   2.421
 3080TIP3    H2 9247   2.591   5.554   2.425
 3081TIP3   OH2 9248   3.408   4.995   0.142
 3081TIP3    H1 9249   3.446   5.063   0.198
 3081TIP3    H2 9250   3.321   4.980   0.178
 3082TIP3   OH2 9251   3.431   5.552   2.782
 3082TIP3    H1 9252   3.370   5.504   2.726
 3082TIP3    H2 9253   3.518   5.527   2.748
 3083TIP3   OH2 9254   1.239   4.186   4.992
 3083TIP3    H1 9255   1.310   4.218   4.936
 3083TIP3    H2 9256   1.272   4.103   5.028
 3084TIP3   OH2 9257   4.558   3.630   5.092
 3084TIP3    H1 9258   4.603   3.546   5.085
 3084TIP3    H2 9259   4.628   3.695   5.096
 3085TIP3   OH2 9260   0.815   1.923   3.694
 3085TIP3    H1 9261   0.739   1.908   3.638
 3085TIP3    H2 9262   0.887   1.878   3.649
 3086TIP3   OH2 9263   4.839   2.086   1.865
 3086TIP3    H1 9264   4.804   1.997   1.868
 3086TIP3    H2 9265   4.899   2.086   1.790
 3087TIP3   OH2 9266   5.218   1.435   4.876
 3087TIP3    H1 9267   5.261   1.428   4.791
 3087TIP3    H2 9268   5.140   1.380   4.868
 3088TIP3   OH2 9269   2.337   0.320   4.316
 3088TIP3    H1 9270   2.345   0.413   4.298
 3088TIP3    H2 9271   2.244   0.307   4.338
 3089TIP3   OH2 9272   1.381   2.322   3.479
 3089TIP3    H1 9273   1.309   2.338   3.539
 3089TIP3    H2 9274   1.460   2.342   3.529
 3090TIP3   OH2 9275   1.902   2.713   3.629
 3090TIP3    H1 9276   1.884   2.660   3.707
 3090TIP3    H2 9277   1.933   2.651   3.564
 3091TIP3   OH2 9278   5.505   1.932   5.011
 3091TIP3    H1 9279   5.463   1.846   5.014
 3091TIP3    H2 9280   5.565   1.932   5.085
 3092TIP3   OH2 9281   2.022   3.401   3.193
 3092TIP3    H1 9282   1.972   3.451   3.128
 3092TIP3    H2 9283   2.065   3.468   3.246
 3093TIP3   OH2 9284   4.935   0.434   1.481
 3093TIP3    H1 9285   4.899   0.388   1.557
 3093TIP3    H2 9286   4.934   0.368   1.411
 3094TIP3   OH2 9287   5.682   1.026   4.498
 3094TIP3    H1 9288   5.652   1.096   4.440
 3094TIP3    H2 9289   5.623   1.030   4.573
 3095TIP3   OH2 9290   4.796   1.832   2.632
 3095TIP3    H1 9291   4.791   1.918   2.590
 3095TIP3    H2 9292   4.739   1.776   2.580
 3096TIP3   OH2 9293   0.136   1.770   3.276
 3096TIP3    H1 9294   0.155   1.749   3.367
 3096TIP3    H2 9295   0.185   1.706   3.226
 3097TIP3   OH2 9296   2.756   4.383   1.114
 3097TIP3    H1 9297   2.774   4.463   1.065
 3097TIP3    H2 9298   2.839   4.335   1.113
 3098TIP3   OH2 9299   3.745   3.946   3.258
 3098TIP3    H1 9300   3.700   3.870   3.221
 3098TIP3    H2 9301   3.820   3.908   3.304
 3099TIP3   OH2 9302   5.315   3.664   4.684
 3099TIP3    H1 9303   5.252   3.722   4.642
 3099TIP3    H2 9304   5.373   3.724   4.732
 3100TIP3   OH2 9305   4.866   0.421   0.816
 3100TIP3    H1 9306   4.890   0.357   0.749
 3100TIP3    H2 9307   4.788   0.464   0.782
 3101TIP3   OH2 9308   0.628   1.784   2.453
 3101TIP3    H1 9309   0.580   1.866   2.466
 3101TIP3    H2 9310   0.588   1.723   2.515
 3102TIP3   OH2 9311   6.267   5.964   3.387
 3102TIP3    H1 9312   6.359   5.983   3.401
 3102TIP3    H2 9313   6.250   5.993   3.297
 3103TIP3   OH2 9314   2.031   0.984   3.575
 3103TIP3    H1 9315   2.005   0.945   3.491
 3103TIP3    H2 9316   1.962   0.958   3.636
 3104TIP3   OH2 9317   2.272   2.972   1.106
 3104TIP3    H1 9318   2.209   2.966   1.034
 3104TIP3    H2 9319   2.357   2.969   1.063
 3105TIP3   OH2 9320   1.967   1.877   3.886
 3105TIP3    H1 9321   2.028   1.946   3.859
 3105TIP3    H2 9322   1.961   1.886   3.981
 3106TIP3   OH2 9323   5.613   0.457   5.019
 3106TIP3    H1 9324   5.681   0.439   5.084
 3106TIP3    H2 9325   5.650   0.523   4.962
 3107TIP3   OH2 9326   3.984   0.660   0.078
 3107TIP3    H1 9327   4.055   0.666   0.142
 3107TIP3    H2 9328   3.905   0.658   0.131
 3108TIP3   OH2 9329   4.179   5.811   2.375
 3108TIP3    H1 9330   4.232   5.891   2.383
 3108TIP3    H2 9331   4.101   5.840   2.327
 3109TIP3   OH2 9332   5.512   0.122   2.252
 3109TIP3    H1 9333   5.429   0.147   2.294
 3109TIP3    H2 9334   5.489   0.049   2.194
 3110TIP3   OH2 9335   2.862   1.689   5.022
 3110TIP3    H1 9336   2.834   1.605   4.984
 3110TIP3    H2 9337   2.881   1.669   5.113
 3111TIP3   OH2 9338   1.400   5.399   2.344
 3111TIP3    H1 9339   1.322   5.343   2.337
 3111TIP3    H2 9340   1.366   5.488   2.333
 3112TIP3   OH2 9341   1.832   0.511   3.679
 3112TIP3    H1 9342   1.770   0.583   3.680
 3112TIP3    H2 9343   1.777   0.432   3.680
 3113TIP3   OH2 9344   0.819   0.272   4.246
 3113TIP3    H1 9345   0.820   0.270   4.342
 3113TIP3    H2 9346   0.731   0.243   4.223
 3114TIP3   OH2 9347   0.639   3.802   1.958
 3114TIP3    H1 9348   0.587   3.815   2.037
 3114TIP3    H2 9349   0.729   3.815   1.986
 3115TIP3   OH2 9350   5.427   2.843   2.833
 3115TIP3    H1 9351   5.514   2.814   2.863
 3115TIP3    H2 9352   5.377   2.854   2.914
 3116TIP3   OH2 9353   3.729   0.281   1.766
 3116TIP3    H1 9354   3.669   0.209   1.747
 3116TIP3    H2 9355   3.745   0.322   1.681
 3117TIP3   OH2 9356   6.293   2.381   0.807
 3117TIP3    H1 9357   6.260   2.329   0.880
 3117TIP3    H2 9358   6.386   2.360   0.802
 3118TIP3   OH2 9359   3.130   2.242   1.236
 3118TIP3    H1 9360   3.101   2.180   1.304
 3118TIP3    H2 9361   3.123   2.328   1.277
 3119TIP3   OH2 9362   0.034   2.998   2.994
 3119TIP3    H1 9363   0.067   2.970   3.080
 3119TIP3    H2 9364  -0.027   2.929   2.968
 3120TIP3   OH2 9365   4.046   3.654   0.155
 3120TIP3    H1 9366   4.121   3.604   0.122
 3120TIP3    H2 9367   4.034   3.725   0.092
 3121TIP3   OH2 9368   4.501   4.741   1.192
 3121TIP3    H1 9369   4.583   4.733   1.240
 3121TIP3    H2 9370   4.519   4.703   1.106
 3122TIP3   OH2 9371   4.652   1.377   1.308
 3122TIP3    H1 9372   4.649   1.447   1.373
 3122TIP3    H2 9373   4.717   1.316   1.343
 3123TIP3   OH2 9374   5.054   0.815   2.009
 3123TIP3    H1 9375   5.133   0.860   2.039
 3123TIP3    H2 9376   5.056   0.825   1.914
 3124TIP3   OH2 9377   5.843   1.774   3.749
 3124TIP3    H1 9378   5.840   1.761   3.655
 3124TIP3    H2 9379   5.768   1.725   3.783
 3125TIP3   OH2 9380   2.248   5.868   2.825
 3125TIP3    H1 9381   2.337   5.859   2.791
 3125TIP3    H2 9382   2.224   5.781   2.854
 3126TIP3   OH2 9383   2.620   1.442   4.489
 3126TIP3    H1 9384   2.576   1.380   4.431
 3126TIP3    H2 9385   2.550   1.479   4.542
 3127TIP3   OH2 9386   2.834   5.732   2.553
 3127TIP3    H1 9387   2.753   5.686   2.531
 3127TIP3    H2 9388   2.844   5.797   2.484
 3128TIP3   OH2 9389   1.905   5.581   4.374
 3128TIP3    H1 9390   1.832   5.558   4.317
 3128TIP3    H2 9391   1.928   5.500   4.419
 3129TIP3   OH2 9392   1.032   0.185   5.025
 3129TIP3    H1 9393   0.976   0.157   5.097
 3129TIP3    H2 9394   0.983   0.256   4.983
 3130TIP3   OH2 9395   5.137   3.127   3.414
 3130TIP3    H1 9396   5.095   3.211   3.431
 3130TIP3    H2 9397   5.211   3.149   3.357
 3131TIP3   OH2 9398   3.103   1.415   2.320
 3131TIP3    H1 9399   3.160   1.483   2.357
 3131TIP3    H2 9400   3.158   1.337   2.318
 3132TIP3   OH2 9401   4.644   3.533   4.331
 3132TIP3    H1 9402   4.624   3.440   4.344
 3132TIP3    H2 9403   4.568   3.567   4.282
 3133TIP3   OH2 9404   1.199   0.317   4.645
 3133TIP3    H1 9405   1.156   0.401   4.630
 3133TIP3    H2 9406   1.138   0.252   4.609
 3134TIP3   OH2 9407   1.860   5.261   4.488
 3134TIP3    H1 9408   1.830   5.227   4.403
 3134TIP3    H2 9409   1.860   5.185   4.545
 3135TIP3   OH2 9410   0.806   4.972   0.466
 3135TIP3    H1 9411   0.882   4.931   0.505
 3135TIP3    H2 9412   0.745   4.984   0.539
 3136TIP3   OH2 9413   4.820   2.380   2.901
 3136TIP3    H1 9414   4.824   2.335   2.986
 3136TIP3    H2 9415   4.791   2.468   2.922
 3137TIP3   OH2 9416   3.387   5.991   2.011
 3137TIP3    H1 9417   3.309   5.942   1.983
 3137TIP3    H2 9418   3.460   5.946   1.969
 3138TIP3   OH2 9419   5.445   3.422   1.332
 3138TIP3    H1 9420   5.538   3.444   1.338
 3138TIP3    H2 9421   5.400   3.506   1.334
 3139TIP3   OH2 9422   3.260   1.815   0.877
 3139TIP3    H1 9423   3.244   1.758   0.952
 3139TIP3    H2 9424   3.204   1.780   0.807
 3140TIP3   OH2 9425   2.404   4.460   4.837
 3140TIP3    H1 9426   2.410   4.550   4.807
 3140TIP3    H2 9427   2.312   4.447   4.858
 3141TIP3   OH2 9428   1.159   1.099   1.757
 3141TIP3    H1 9429   1.184   1.179   1.803
 3141TIP3    H2 9430   1.202   1.105   1.672
 3142TIP3   OH2 9431   5.874   4.539   2.315
 3142TIP3    H1 9432   5.923   4.541   2.397
 3142TIP3    H2 9433   5.881   4.628   2.281
 3143TIP3   OH2 9434   1.342   0.618   3.534
 3143TIP3    H1 9435   1.250   0.641   3.521
 3143TIP3    H2 9436   1.350   0.529   3.500
 3144TIP3   OH2 9437   5.470   3.567   4.482
 3144TIP3    H1 9438   5.544   3.628   4.478
 3144TIP3    H2 9439   5.424   3.591   4.563
 3145TIP3   OH2 9440   5.547   4.026   4.329
 3145TIP3    H1 9441   5.562   4.120   4.341
 3145TIP3    H2 9442   5.560   4.012   4.236
 3146TIP3   OH2 9443   6.233   4.009   0.883
 3146TIP3    H1 9444   6.246   4.096   0.920
 3146TIP3    H2 9445   6.142   3.987   0.904
 3147TIP3   OH2 9446   3.690   3.312   4.231
 3147TIP3    H1 9447   3.656   3.275   4.150
 3147TIP3    H2 9448   3.684   3.407   4.218
 3148TIP3   OH2 9449   3.036   3.008   5.050
 3148TIP3    H1 9450   3.038   3.058   4.969
 3148TIP3    H2 9451   3.128   2.985   5.067
 3149TIP3   OH2 9452   4.176   5.799   3.536
 3149TIP3    H1 9453   4.149   5.889   3.553
 3149TIP3    H2 9454   4.110   5.765   3.475
 3150TIP3   OH2 9455   1.418   5.043   0.995
 3150TIP3    H1 9456   1.424   5.062   0.902
 3150TIP3    H2 9457   1.326   5.060   1.017
 3151TIP3   OH2 9458   1.561   4.809   0.360
 3151TIP3    H1 9459   1.551   4.789   0.453
 3151TIP3    H2 9460   1.625   4.747   0.328
 3152TIP3   OH2 9461   0.867   4.257   3.039
 3152TIP3    H1 9462   0.939   4.271   2.977
 3152TIP3    H2 9463   0.883   4.320   3.109
 3153TIP3   OH2 9464   2.663   1.818   0.321
 3153TIP3    H1 9465   2.602   1.800   0.393
 3153TIP3    H2 9466   2.675   1.913   0.324
 3154TIP3   OH2 9467   3.786   4.103   4.717
 3154TIP3    H1 9468   3.835   4.155   4.781
 3154TIP3    H2 9469   3.846   4.033   4.692
 3155TIP3   OH2 9470   5.355   3.108   5.135
 3155TIP3    H1 9471   5.375   3.053   5.211
 3155TIP3    H2 9472   5.421   3.177   5.137
 3156TIP3   OH2 9473   0.471   2.581   1.251
 3156TIP3    H1 9474   0.540   2.627   1.299
 3156TIP3    H2 9475   0.393   2.592   1.305
 3157TIP3   OH2 9476   1.038   1.746   2.802
 3157TIP3    H1 9477   1.011   1.714   2.716
 3157TIP3    H2 9478   1.085   1.827   2.783
 3158TIP3   OH2 9479   5.596   5.280   2.899
 3158TIP3    H1 9480   5.615   5.187   2.911
 3158TIP3    H2 9481   5.502   5.283   2.878
 3159TIP3   OH2 9482   1.418   1.801   3.866
 3159TIP3    H1 9483   1.500   1.821   3.911
 3159TIP3    H2 9484   1.397   1.712   3.893
 3160TIP3   OH2 9485   1.085   5.263   4.103
 3160TIP3    H1 9486   0.996   5.232   4.087
 3160TIP3    H2 9487   1.074   5.340   4.159
 3161TIP3   OH2 9488   6.030   4.150   3.076
 3161TIP3    H1 9489   6.121   4.137   3.103
 3161TIP3    H2 9490   5.984   4.172   3.157
 3162TIP3   OH2 9491   5.405   4.196   0.252
 3162TIP3    H1 9492   5.430   4.116   0.298
 3162TIP3    H2 9493   5.486   4.246   0.246
 3163TIP3   OH2 9494   0.815   3.465   3.132
 3163TIP3    H1 9495   0.731   3.433   3.099
 3163TIP3    H2 9496   0.825   3.551   3.091
 3164TIP3   OH2 9497   2.280   2.567   5.094
 3164TIP3    H1 9498   2.238   2.483   5.110
 3164TIP3    H2 9499   2.212   2.632   5.110
 3165TIP3   OH2 9500   1.036   3.709   4.506
 3165TIP3    H1 9501   1.132   3.712   4.507
 3165TIP3    H2 9502   1.009   3.801   4.506
 3166TIP3   OH2 9503   0.003   4.770   1.122
 3166TIP3    H1 9504   0.092   4.735   1.131
 3166TIP3    H2 9505  -0.039   4.751   1.206
 3167TIP3   OH2 9506   3.308   4.669   1.390
 3167TIP3    H1 9507   3.321   4.762   1.409
 3167TIP3    H2 9508   3.372   4.624   1.446
 3168TIP3   OH2 9509   2.066   1.964   5.067
 3168TIP3    H1 9510   2.152   1.952   5.107
 3168TIP3    H2 9511   2.084   1.983   4.975
 3169TIP3   OH2 9512   5.383   0.413   0.458
 3169TIP3    H1 9513   5.316   0.457   0.511
 3169TIP3    H2 9514   5.411   0.480   0.395
 3170TIP3   OH2 9515   0.238   3.447   3.316
 3170TIP3    H1 9516   0.241   3.415   3.226
 3170TIP3    H2 9517   0.261   3.371   3.369
 3171TIP3   OH2 9518   4.724   1.617   1.923
 3171TIP3    H1 9519   4.634   1.615   1.954
 3171TIP3    H2 9520   4.766   1.686   1.974
 3172TIP3   OH2 9521   1.348   5.378   0.208
 3172TIP3    H1 9522   1.269   5.431   0.199
 3172TIP3    H2 9523   1.346   5.319   0.132
 3173TIP3   OH2 9524   5.107   0.849   4.573
 3173TIP3    H1 9525   5.183   0.792   4.560
 3173TIP3    H2 9526   5.096   0.853   4.668
 3174TIP3   OH2 9527   2.329   5.498   2.717
 3174TIP3    H1 9528   2.234   5.490   2.705
 3174TIP3    H2 9529   2.364   5.499   2.628
 3175TIP3   OH2 9530   4.848   1.817   1.534
 3175TIP3    H1 9531   4.819   1.727   1.523
 3175TIP3    H2 9532   4.926   1.824   1.479
 3176TIP3   OH2 9533   4.303   1.245   2.194
 3176TIP3    H1 9534   4.216   1.244   2.233
 3176TIP3    H2 9535   4.362   1.259   2.268
 3177TIP3   OH2 9536   1.882   3.687   1.587
 3177TIP3    H1 9537   1.965   3.696   1.633
 3177TIP3    H2 9538   1.849   3.777   1.580
 3178TIP3   OH2 9539   2.245   4.733   1.266
 3178TIP3    H1 9540   2.310   4.666   1.244
 3178TIP3    H2 9541   2.197   4.747   1.185
 3179TIP3   OH2 9542   3.310   0.511   4.061
 3179TIP3    H1 9543   3.314   0.576   4.132
 3179TIP3    H2 9544   3.355   0.553   3.988
 3180TIP3   OH2 9545   2.157   3.331   3.929
 3180TIP3    H1 9546   2.238   3.368   3.963
 3180TIP3    H2 9547   2.181   3.242   3.903
 3181TIP3   OH2 9548   1.418   3.159   2.596
 3181TIP3    H1 9549   1.453   3.078   2.633
 3181TIP3    H2 9550   1.457   3.229   2.649
 3182TIP3   OH2 9551   5.363   2.987   4.877
 3182TIP3    H1 9552   5.388   2.896   4.896
 3182TIP3    H2 9553   5.377   3.034   4.960
 3183TIP3   OH2 9554   3.365   2.290   0.746
 3183TIP3    H1 9555   3.296   2.224   0.737
 3183TIP3    H2 9556   3.447   2.241   0.734
 3184TIP3   OH2 9557   3.052   1.118   1.485
 3184TIP3    H1 9558   3.027   1.073   1.566
 3184TIP3    H2 9559   3.132   1.165   1.507
 3185TIP3   OH2 9560   5.737   3.002   2.155
 3185TIP3    H1 9561   5.772   2.935   2.097
 3185TIP3    H2 9562   5.665   3.042   2.106
 3186TIP3   OH2 9563   5.370   4.985   1.005
 3186TIP3    H1 9564   5.338   5.065   1.045
 3186TIP3    H2 9565   5.339   4.915   1.063
 3187TIP3   OH2 9566   5.636   5.675   1.398
 3187TIP3    H1 9567   5.687   5.747   1.361
 3187TIP3    H2 9568   5.645   5.686   1.493
 3188TIP3   OH2 9569   0.118   1.575   4.401
 3188TIP3    H1 9570   0.129   1.649   4.342
 3188TIP3    H2 9571   0.106   1.616   4.487
 3189TIP3   OH2 9572   0.273   1.435   4.625
 3189TIP3    H1 9573   0.243   1.460   4.538
 3189TIP3    H2 9574   0.199   1.456   4.683
 3190TIP3   OH2 9575   1.038   0.110   3.640
 3190TIP3    H1 9576   1.031   0.182   3.577
 3190TIP3    H2 9577   0.962   0.121   3.698
 3191TIP3   OH2 9578   5.170   2.580   4.732
 3191TIP3    H1 9579   5.212   2.657   4.771
 3191TIP3    H2 9580   5.077   2.601   4.730
 3192TIP3   OH2 9581   6.091   1.802   1.797
 3192TIP3    H1 9582   6.178   1.788   1.759
 3192TIP3    H2 9583   6.103   1.783   1.890
 3193TIP3   OH2 9584   4.769   0.626   2.054
 3193TIP3    H1 9585   4.832   0.560   2.025
 3193TIP3    H2 9586   4.817   0.708   2.052
 3194TIP3   OH2 9587   0.060   3.564   0.062
 3194TIP3    H1 9588   0.065   3.524  -0.024
 3194TIP3    H2 9589   0.144   3.544   0.103
 3195TIP3   OH2 9590   0.635   5.393   4.255
 3195TIP3    H1 9591   0.652   5.347   4.338
 3195TIP3    H2 9592   0.689   5.472   4.261
 3196TIP3   OH2 9593   4.360   1.203   4.211
 3196TIP3    H1 9594   4.371   1.214   4.116
 3196TIP3    H2 9595   4.394   1.283   4.249
 3197TIP3   OH2 9596   4.035   0.798   1.460
 3197TIP3    H1 9597   4.045   0.777   1.553
 3197TIP3    H2 9598   4.108   0.857   1.440
 3198TIP3   OH2 9599   4.508   3.471   4.794
 3198TIP3    H1 9600   4.489   3.459   4.887
 3198TIP3    H2 9601   4.440   3.531   4.763
 3199TIP3   OH2 9602   5.782   3.054   1.600
 3199TIP3    H1 9603   5.750   2.996   1.530
 3199TIP3    H2 9604   5.774   3.142   1.563
 3200TIP3   OH2 9605   5.828   5.068   2.723
 3200TIP3    H1 9606   5.757   5.104   2.669
 3200TIP3    H2 9607   5.849   4.985   2.681
 3201TIP3   OH2 9608   3.459   2.555   3.628
 3201TIP3    H1 9609   3.542   2.517   3.656
 3201TIP3    H2 9610   3.483   2.620   3.562
 3202TIP3   OH2 9611   5.552   1.259   4.789
 3202TIP3    H1 9612   5.597   1.342   4.807
 3202TIP3    H2 9613   5.465   1.285   4.760
 3203TIP3   OH2 9614   2.691   3.133   4.708
 3203TIP3    H1 9615   2.711   3.041   4.728
 3203TIP3    H2 9616   2.683   3.174   4.794
 3204TIP3   OH2 9617   0.045   0.676   0.454
 3204TIP3    H1 9618   0.054   0.607   0.389
 3204TIP3    H2 9619   0.108   0.743   0.427
 3205TIP3   OH2 9620   2.579   4.043   0.338
 3205TIP3    H1 9621   2.648   3.995   0.292
 3205TIP3    H2 9622   2.500   3.991   0.322
 3206TIP3   OH2 9623   4.959   4.737   3.621
 3206TIP3    H1 9624   4.932   4.786   3.699
 3206TIP3    H2 9625   4.896   4.665   3.616
 3207TIP3   OH2 9626   2.108   3.499   2.101
 3207TIP3    H1 9627   2.105   3.511   2.006
 3207TIP3    H2 9628   2.164   3.571   2.132
 3208TIP3   OH2 9629   2.413   5.236   0.887
 3208TIP3    H1 9630   2.377   5.246   0.975
 3208TIP3    H2 9631   2.377   5.310   0.838
 3209TIP3   OH2 9632   5.263   2.092   0.586
 3209TIP3    H1 9633   5.199   2.114   0.654
 3209TIP3    H2 9634   5.275   1.997   0.595
 3210TIP3   OH2 9635   1.421   2.156   4.630
 3210TIP3    H1 9636   1.344   2.213   4.621
 3210TIP3    H2 9637   1.461   2.183   4.713
 3211TIP3   OH2 9638   4.776   2.080   1.232
 3211TIP3    H1 9639   4.866   2.105   1.210
 3211TIP3    H2 9640   4.738   2.159   1.271
 3212TIP3   OH2 9641   3.537   2.373   0.500
 3212TIP3    H1 9642   3.456   2.335   0.535
 3212TIP3    H2 9643   3.537   2.348   0.408
 3213TIP3   OH2 9644   1.673   3.337   1.060
 3213TIP3    H1 9645   1.716   3.375   1.137
 3213TIP3    H2 9646   1.744   3.316   1.000
 3214TIP3   OH2 9647   1.203   1.261   4.756
 3214TIP3    H1 9648   1.295   1.284   4.745
 3214TIP3    H2 9649   1.194   1.241   4.849
 3215TIP3   OH2 9650   1.684   5.182   4.279
 3215TIP3    H1 9651   1.621   5.169   4.208
 3215TIP3    H2 9652   1.677   5.275   4.300
 3216TIP3   OH2 9653   1.732   1.929   1.630
 3216TIP3    H1 9654   1.801   1.949   1.694
 3216TIP3    H2 9655   1.759   1.846   1.592
 3217TIP3   OH2 9656   1.739   0.599   4.143
 3217TIP3    H1 9657   1.819   0.562   4.182
 3217TIP3    H2 9658   1.771   0.654   4.071
 3218TIP3   OH2 9659   0.824   5.653   4.640
 3218TIP3    H1 9660   0.830   5.559   4.652
 3218TIP3    H2 9661   0.790   5.686   4.724
 3219TIP3   OH2 9662   6.214   4.871   4.669
 3219TIP3    H1 9663   6.195   4.816   4.745
 3219TIP3    H2 9664   6.295   4.834   4.633
 3220TIP3   OH2 9665   0.503   3.449   4.815
 3220TIP3    H1 9666   0.573   3.391   4.787
 3220TIP3    H2 9667   0.427   3.420   4.764
 3221TIP3   OH2 9668   0.257   0.875   0.059
 3221TIP3    H1 9669   0.272   0.783   0.083
 3221TIP3    H2 9670   0.278   0.878  -0.034
 3222TIP3   OH2 9671   2.890   0.337   2.832
 3222TIP3    H1 9672   2.940   0.395   2.889
 3222TIP3    H2 9673   2.806   0.381   2.820
 3223TIP3   OH2 9674   2.822   0.979   3.244
 3223TIP3    H1 9675   2.756   1.022   3.190
 3223TIP3    H2 9676   2.900   1.034   3.234
 3224TIP3   OH2 9677   2.305   5.180   0.133
 3224TIP3    H1 9678   2.350   5.107   0.091
 3224TIP3    H2 9679   2.296   5.246   0.065
 3225TIP3   OH2 9680   0.327   4.455   1.592
 3225TIP3    H1 9681   0.274   4.383   1.627
 3225TIP3    H2 9682   0.406   4.411   1.558
 3226TIP3   OH2 9683   4.488   5.620   2.745
 3226TIP3    H1 9684   4.475   5.702   2.696
 3226TIP3    H2 9685   4.402   5.601   2.783
 3227TIP3   OH2 9686   6.360   1.475   1.784
 3227TIP3    H1 9687   6.390   1.564   1.765
 3227TIP3    H2 9688   6.287   1.486   1.844
 3228TIP3   OH2 9689   5.934   2.092   3.641
 3228TIP3    H1 9690   5.977   2.016   3.681
 3228TIP3    H2 9691   5.940   2.161   3.707
 3229TIP3   OH2 9692   6.060   3.448   0.878
 3229TIP3    H1 9693   6.026   3.516   0.820
 3229TIP3    H2 9694   6.141   3.484   0.913
 3230TIP3   OH2 9695   1.321   3.461   1.379
 3230TIP3    H1 9696   1.355   3.378   1.345
 3230TIP3    H2 9697   1.364   3.528   1.327
 3231TIP3   OH2 9698   2.484   1.573   3.649
 3231TIP3    H1 9699   2.545   1.502   3.629
 3231TIP3    H2 9700   2.412   1.561   3.587
 3232TIP3   OH2 9701   1.423   1.166   2.440
 3232TIP3    H1 9702   1.420   1.184   2.346
 3232TIP3    H2 9703   1.361   1.228   2.478
 3233TIP3   OH2 9704   5.456   4.679   1.596
 3233TIP3    H1 9705   5.411   4.753   1.557
 3233TIP3    H2 9706   5.416   4.670   1.683
 3234TIP3   OH2 9707   0.639   5.894   3.062
 3234TIP3    H1 9708   0.589   5.961   3.016
 3234TIP3    H2 9709   0.707   5.943   3.109
 3235TIP3   OH2 9710   2.209   1.912   4.406
 3235TIP3    H1 9711   2.284   1.925   4.464
 3235TIP3    H2 9712   2.247   1.910   4.318
 3236TIP3   OH2 9713   0.697   2.019   3.145
 3236TIP3    H1 9714   0.608   1.994   3.121
 3236TIP3    H2 9715   0.717   1.965   3.222
 3237TIP3   OH2 9716   3.790   1.750   3.729
 3237TIP3    H1 9717   3.764   1.842   3.732
 3237TIP3    H2 9718   3.743   1.714   3.654
 3238TIP3   OH2 9719   4.735   2.382   4.360
 3238TIP3    H1 9720   4.640   2.372   4.356
 3238TIP3    H2 9721   4.757   2.430   4.280
 3239TIP3   OH2 9722   1.655   2.709   4.451
 3239TIP3    H1 9723   1.567   2.713   4.488
 3239TIP3    H2 9724   1.663   2.790   4.401
 3240TIP3   OH2 9725   2.760   1.340   0.384
 3240TIP3    H1 9726   2.850   1.355   0.412
 3240TIP3    H2 9727   2.731   1.425   0.351
 3241TIP3   OH2 9728   0.309   2.161   2.372
 3241TIP3    H1 9729   0.242   2.101   2.341
 3241TIP3    H2 9730   0.295   2.241   2.320
 3242TIP3   OH2 9731   4.301   4.256   0.074
 3242TIP3    H1 9732   4.290   4.164   0.097
 3242TIP3    H2 9733   4.396   4.270   0.074
 3243TIP3   OH2 9734   3.605   0.004   1.050
 3243TIP3    H1 9735   3.546   0.020   0.976
 3243TIP3    H2 9736   3.690  -0.012   1.010
 3244TIP3   OH2 9737   6.065   3.743   1.739
 3244TIP3    H1 9738   6.067   3.658   1.783
 3244TIP3    H2 9739   6.067   3.807   1.811
 3245TIP3   OH2 9740   6.131   2.028   0.641
 3245TIP3    H1 9741   6.120   1.934   0.656
 3245TIP3    H2 9742   6.216   2.049   0.679
 3246TIP3   OH2 9743   3.393   1.795   2.975
 3246TIP3    H1 9744   3.415   1.887   2.987
 3246TIP3    H2 9745   3.332   1.794   2.901
 3247TIP3   OH2 9746   5.152   4.794   1.603
 3247TIP3    H1 9747   5.212   4.852   1.651
 3247TIP3    H2 9748   5.110   4.742   1.671
 3248TIP3   OH2 9749   0.578   2.690   0.425
 3248TIP3    H1 9750   0.583   2.705   0.331
 3248TIP3    H2 9751   0.559   2.597   0.434
 3249TIP3   OH2 9752   2.060   4.515   2.434
 3249TIP3    H1 9753   2.129   4.469   2.385
 3249TIP3    H2 9754   2.090   4.515   2.524
 3250TIP3   OH2 9755   6.055   0.470   4.451
 3250TIP3    H1 9756   6.078   0.454   4.542
 3250TIP3    H2 9757   6.090   0.395   4.403
 3251TIP3   OH2 9758   0.027   2.343   0.180
 3251TIP3    H1 9759  -0.004   2.413   0.238
 3251TIP3    H2 9760   0.121   2.357   0.175
 3252TIP3   OH2 9761   2.732   1.372   1.067
 3252TIP3    H1 9762   2.691   1.429   1.132
 3252TIP3    H2 9763   2.694   1.285   1.083
 3253TIP3   OH2 9764   2.811   1.825   0.094
 3253TIP3    H1 9765   2.763   1.824   0.177
 3253TIP3    H2 9766   2.779   1.903   0.049
 3254TIP3   OH2 9767   4.072   4.408   1.483
 3254TIP3    H1 9768   4.127   4.481   1.510
 3254TIP3    H2 9769   4.123   4.363   1.416
 3255TIP3   OH2 9770   5.052   0.644   1.358
 3255TIP3    H1 9771   5.039   0.563   1.406
 3255TIP3    H2 9772   5.030   0.622   1.267
 3256TIP3   OH2 9773   6.170   0.331   1.189
 3256TIP3    H1 9774   6.146   0.379   1.268
 3256TIP3    H2 9775   6.149   0.240   1.209
 3257TIP3   OH2 9776   2.741   0.310   3.662
 3257TIP3    H1 9777   2.717   0.233   3.714
 3257TIP3    H2 9778   2.735   0.280   3.571
 3258TIP3   OH2 9779   1.109   4.967   0.526
 3258TIP3    H1 9780   1.116   4.916   0.445
 3258TIP3    H2 9781   1.159   4.918   0.591
 3259TIP3   OH2 9782   4.491   4.316   2.453
 3259TIP3    H1 9783   4.572   4.322   2.402
 3259TIP3    H2 9784   4.499   4.234   2.501
 3260TIP3   OH2 9785   4.016   0.498   3.741
 3260TIP3    H1 9786   4.039   0.480   3.649
 3260TIP3    H2 9787   3.956   0.573   3.736
 3261TIP3   OH2 9788   5.903   0.167   4.525
 3261TIP3    H1 9789   5.925   0.246   4.476
 3261TIP3    H2 9790   5.945   0.096   4.476
 3262TIP3   OH2 9791   2.455   2.173   0.256
 3262TIP3    H1 9792   2.429   2.169   0.348
 3262TIP3    H2 9793   2.511   2.250   0.251
 3263TIP3   OH2 9794   0.704   5.032   2.709
 3263TIP3    H1 9795   0.766   4.959   2.718
 3263TIP3    H2 9796   0.727   5.072   2.625
 3264TIP3   OH2 9797   3.872   0.453   3.276
 3264TIP3    H1 9798   3.882   0.514   3.203
 3264TIP3    H2 9799   3.865   0.367   3.235
 3265TIP3   OH2 9800   1.865   2.578   4.571
 3265TIP3    H1 9801   1.777   2.597   4.538
 3265TIP3    H2 9802   1.911   2.662   4.564
 3266TIP3   OH2 9803   2.373   2.813   2.964
 3266TIP3    H1 9804   2.336   2.777   3.045
 3266TIP3    H2 9805   2.418   2.738   2.925
 3267TIP3   OH2 9806   6.363   1.061   4.096
 3267TIP3    H1 9807   6.344   1.108   4.015
 3267TIP3    H2 9808   6.409   0.981   4.067
 3268TIP3   OH2 9809   0.512   5.362   3.173
 3268TIP3    H1 9810   0.475   5.354   3.261
 3268TIP3    H2 9811   0.536   5.454   3.165
 3269TIP3   OH2 9812   2.001   0.511   1.959
 3269TIP3    H1 9813   1.995   0.562   2.039
 3269TIP3    H2 9814   1.922   0.458   1.958
 3270TIP3   OH2 9815   2.382   1.430   4.734
 3270TIP3    H1 9816   2.393   1.504   4.675
 3270TIP3    H2 9817   2.294   1.441   4.771
 3271TIP3   OH2 9818   5.185   0.328   1.880
 3271TIP3    H1 9819   5.183   0.418   1.848
 3271TIP3    H2 9820   5.267   0.322   1.929
 3272TIP3   OH2 9821   4.261   4.736   0.751
 3272TIP3    H1 9822   4.238   4.788   0.674
 3272TIP3    H2 9823   4.311   4.795   0.807
 3273TIP3   OH2 9824   3.205   4.755   3.349
 3273TIP3    H1 9825   3.231   4.699   3.423
 3273TIP3    H2 9826   3.117   4.724   3.325
 3274TIP3   OH2 9827   3.251   5.684   1.470
 3274TIP3    H1 9828   3.303   5.664   1.548
 3274TIP3    H2 9829   3.194   5.756   1.497
 3275TIP3   OH2 9830   0.481   2.384   2.405
 3275TIP3    H1 9831   0.426   2.333   2.344
 3275TIP3    H2 9832   0.457   2.475   2.387
 3276TIP3   OH2 9833   5.730   4.858   0.468
 3276TIP3    H1 9834   5.683   4.878   0.387
 3276TIP3    H2 9835   5.806   4.916   0.467
 3277TIP3   OH2 9836   3.550   2.715   0.868
 3277TIP3    H1 9837   3.587   2.627   0.861
 3277TIP3    H2 9838   3.515   2.719   0.957
 3278TIP3   OH2 9839   3.316   3.426   1.382
 3278TIP3    H1 9840   3.379   3.360   1.408
 3278TIP3    H2 9841   3.280   3.394   1.299
 3279TIP3   OH2 9842   1.153   4.689   2.536
 3279TIP3    H1 9843   1.191   4.640   2.608
 3279TIP3    H2 9844   1.199   4.658   2.458
 3280TIP3   OH2 9845   5.530   3.004   1.723
 3280TIP3    H1 9846   5.481   3.086   1.711
 3280TIP3    H2 9847   5.620   3.028   1.702
 3281TIP3   OH2 9848   1.656   3.958   5.115
 3281TIP3    H1 9849   1.675   4.022   5.183
 3281TIP3    H2 9850   1.651   3.874   5.162
 3282TIP3   OH2 9851   1.668   3.477   3.202
 3282TIP3    H1 9852   1.676   3.539   3.130
 3282TIP3    H2 9853   1.576   3.450   3.201
 3283TIP3   OH2 9854   1.547   2.267   0.619
 3283TIP3    H1 9855   1.573   2.246   0.529
 3283TIP3    H2 9856   1.524   2.182   0.657
 3284TIP3   OH2 9857   2.770   1.011   0.216
 3284TIP3    H1 9858   2.727   1.097   0.217
 3284TIP3    H2 9859   2.722   0.960   0.282
 3285TIP3   OH2 9860   1.923   1.065   0.874
 3285TIP3    H1 9861   1.910   1.116   0.954
 3285TIP3    H2 9862   1.988   0.999   0.897
 3286TIP3   OH2 9863   3.413   2.507   2.756
 3286TIP3    H1 9864   3.387   2.427   2.710
 3286TIP3    H2 9865   3.333   2.559   2.761
 3287TIP3   OH2 9866   2.748   5.236   2.192
 3287TIP3    H1 9867   2.713   5.149   2.171
 3287TIP3    H2 9868   2.748   5.239   2.287
 3288TIP3   OH2 9869   1.857   2.585   1.692
 3288TIP3    H1 9870   1.898   2.584   1.606
 3288TIP3    H2 9871   1.923   2.549   1.751
 3289TIP3   OH2 9872   4.296   5.600   2.045
 3289TIP3    H1 9873   4.304   5.529   2.109
 3289TIP3    H2 9874   4.351   5.573   1.972
 3290TIP3   OH2 9875   4.265   4.146   4.550
 3290TIP3    H1 9876   4.260   4.053   4.529
 3290TIP3    H2 9877   4.178   4.180   4.530
 3291TIP3   OH2 9878   3.759   0.756   1.327
 3291TIP3    H1 9879   3.851   0.756   1.353
 3291TIP3    H2 9880   3.748   0.673   1.280
 3292TIP3   OH2 9881   4.006   4.557   5.134
 3292TIP3    H1 9882   3.996   4.579   5.226
 3292TIP3    H2 9883   4.000   4.461   5.131
 3293TIP3   OH2 9884   3.413   3.958   4.610
 3293TIP3    H1 9885   3.465   3.880   4.628
 3293TIP3    H2 9886   3.323   3.932   4.629
 3294TIP3   OH2 9887   5.192   1.996   3.964
 3294TIP3    H1 9888   5.135   1.919   3.973
 3294TIP3    H2 9889   5.234   2.005   4.050
 3295TIP3   OH2 9890   2.634   5.850   5.050
 3295TIP3    H1 9891   2.717   5.816   5.083
 3295TIP3    H2 9892   2.629   5.939   5.084
 3296TIP3   OH2 9893   0.709   1.892   2.216
 3296TIP3    H1 9894   0.760   1.820   2.178
 3296TIP3    H2 9895   0.692   1.864   2.306
 3297TIP3   OH2 9896   4.516   1.995   1.193
 3297TIP3    H1 9897   4.491   1.906   1.218
 3297TIP3    H2 9898   4.608   2.002   1.218
 3298TIP3   OH2 9899   2.783   5.800   4.401
 3298TIP3    H1 9900   2.692   5.828   4.400
 3298TIP3    H2 9901   2.833   5.879   4.378
 3299TIP3   OH2 9902   2.358   4.167   5.225
 3299TIP3    H1 9903   2.390   4.194   5.139
 3299TIP3    H2 9904   2.363   4.072   5.225
 3300TIP3   OH2 9905   6.078   4.266   3.595
 3300TIP3    H1 9906   6.016   4.226   3.656
 3300TIP3    H2 9907   6.164   4.241   3.629
 3301TIP3   OH2 9908   0.123   3.395   2.824
 3301TIP3    H1 9909   0.059   3.465   2.814
 3301TIP3    H2 9910   0.163   3.387   2.737
 3302TIP3   OH2 9911   4.041   2.074   4.395
 3302TIP3    H1 9912   3.993   1.993   4.380
 3302TIP3    H2 9913   4.056   2.109   4.307
 3303TIP3   OH2 9914   6.362   0.747   4.603
 3303TIP3    H1 9915   6.336   0.833   4.634
 3303TIP3    H2 9916   6.297   0.725   4.536
 3304TIP3   OH2 9917   4.728   1.949   5.166
 3304TIP3    H1 9918   4.821   1.933   5.182
 3304TIP3    H2 9919   4.711   1.905   5.082
 3305TIP3   OH2 9920   3.735   3.642   2.425
 3305TIP3    H1 9921   3.737   3.570   2.361
 3305TIP3    H2 9922   3.774   3.716   2.379
 3306TIP3   OH2 9923   5.409   2.119   4.462
 3306TIP3    H1 9924   5.341   2.053   4.474
 3306TIP3    H2 9925   5.444   2.134   4.550
 3307TIP3   OH2 9926   1.538   3.114   1.135
 3307TIP3    H1 9927   1.533   3.142   1.226
 3307TIP3    H2 9928   1.577   3.189   1.089
 3308TIP3   OH2 9929   4.218   2.996   3.002
 3308TIP3    H1 9930   4.267   3.014   3.083
 3308TIP3    H2 9931   4.281   3.015   2.932
 3309TIP3   OH2 9932   0.908   2.066   1.342
 3309TIP3    H1 9933   0.822   2.072   1.299
 3309TIP3    H2 9934   0.889   2.078   1.435
 3310TIP3   OH2 9935   3.273   1.750   3.489
 3310TIP3    H1 9936   3.219   1.822   3.523
 3310TIP3    H2 9937   3.310   1.785   3.408
 3311TIP3   OH2 9938   0.421   2.631   5.100
 3311TIP3    H1 9939   0.341   2.682   5.092
 3311TIP3    H2 9940   0.485   2.692   5.137
 3312TIP3   OH2 9941   4.841   5.338   5.042
 3312TIP3    H1 9942   4.928   5.313   5.010
 3312TIP3    H2 9943   4.846   5.433   5.055
 3313TIP3   OH2 9944   3.398   5.345   4.690
 3313TIP3    H1 9945   3.485   5.332   4.651
 3313TIP3    H2 9946   3.405   5.429   4.736
 3314TIP3   OH2 9947   5.072   5.407   3.374
 3314TIP3    H1 9948   5.145   5.369   3.424
 3314TIP3    H2 9949   5.031   5.468   3.435
 3315TIP3   OH2 9950   2.392   3.442   4.015
 3315TIP3    H1 9951   2.469   3.420   3.963
 3315TIP3    H2 9952   2.420   3.432   4.106
 3316TIP3   OH2 9953   3.869   0.534   2.945
 3316TIP3    H1 9954   3.835   0.445   2.941
 3316TIP3    H2 9955   3.848   0.571   2.859
 3317TIP3   OH2 9956   5.583   2.579   3.601
 3317TIP3    H1 9957   5.669   2.605   3.568
 3317TIP3    H2 9958   5.594   2.575   3.696
 3318TIP3   OH2 9959   3.884   4.300   4.910
 3318TIP3    H1 9960   3.822   4.366   4.943
 3318TIP3    H2 9961   3.927   4.267   4.989
 3319TIP3   OH2 9962   0.852   1.738   4.282
 3319TIP3    H1 9963   0.836   1.644   4.288
 3319TIP3    H2 9964   0.879   1.752   4.192
 3320TIP3   OH2 9965   0.289   1.821   4.670
 3320TIP3    H1 9966   0.202   1.783   4.680
 3320TIP3    H2 9967   0.340   1.786   4.743
 3321TIP3   OH2 9968   6.192   1.923   4.696
 3321TIP3    H1 9969   6.271   1.961   4.658
 3321TIP3    H2 9970   6.225   1.861   4.762
 3322TIP3   OH2 9971   0.379   5.449   4.181
 3322TIP3    H1 9972   0.322   5.467   4.256
 3322TIP3    H2 9973   0.468   5.447   4.218
 3323TIP3   OH2 9974   2.091   4.459   0.691
 3323TIP3    H1 9975   2.018   4.518   0.709
 3323TIP3    H2 9976   2.086   4.393   0.761
 3324TIP3   OH2 9977   5.580   3.700   3.575
 3324TIP3    H1 9978   5.595   3.630   3.512
 3324TIP3    H2 9979   5.515   3.757   3.534
 3325TIP3   OH2 9980   5.797   0.687   3.748
 3325TIP3    H1 9981   5.825   0.615   3.690
 3325TIP3    H2 9982   5.829   0.766   3.704
 3326TIP3   OH2 9983   1.611   1.685   0.246
 3326TIP3    H1 9984   1.519   1.661   0.244
 3326TIP3    H2 9985   1.637   1.672   0.337
 3327TIP3   OH2 9986   4.308   2.163   5.020
 3327TIP3    H1 9987   4.254   2.097   4.977
 3327TIP3    H2 9988   4.366   2.113   5.077
 3328TIP3   OH2 9989   0.625   5.150   1.253
 3328TIP3    H1 9990   0.567   5.181   1.183
 3328TIP3    H2 9991   0.640   5.227   1.308
 3329TIP3   OH2 9992   3.085   1.040   2.506
 3329TIP3    H1 9993   3.096   0.946   2.522
 3329TIP3    H2 9994   2.994   1.058   2.532
 3330TIP3   OH2 9995   6.076   1.143   4.123
 3330TIP3    H1 9996   6.149   1.100   4.167
 3330TIP3    H2 9997   6.114   1.180   4.043
 3331TIP3   OH2 9998   4.297   2.168   1.212
 3331TIP3    H1 9999   4.218   2.114   1.220
 3331TIP3    H210000   4.369   2.105   1.218
 3332TIP3   OH210001   3.483   3.048   4.461
 3332TIP3    H110002   3.394   3.041   4.428
 3332TIP3    H210003   3.502   3.142   4.458
 3333TIP3   OH210004   5.293   2.232   2.692
 3333TIP3    H110005   5.381   2.194   2.687
 3333TIP3    H210006   5.264   2.210   2.780
 3334TIP3   OH210007   3.077   4.095   0.710
 3334TIP3    H110008   3.058   4.175   0.758
 3334TIP3    H210009   3.158   4.061   0.749
 3335TIP3   OH210010   5.328   3.286   4.580
 3335TIP3    H110011   5.419   3.312   4.595
 3335TIP3    H210012   5.277   3.340   4.640
 3336TIP3   OH210013   4.377   3.403   5.038
 3336TIP3    H110014   4.298   3.408   5.093
 3336TIP3    H210015   4.449   3.405   5.101
 3337TIP3   OH210016   5.785   3.972   0.719
 3337TIP3    H110017   5.733   3.908   0.670
 3337TIP3    H210018   5.875   3.955   0.692
 3338TIP3   OH210019   6.158   4.922   3.226
 3338TIP3    H110020   6.244   4.930   3.184
 3338TIP3    H210021   6.172   4.860   3.297
 3339TIP3   OH210022   2.109   2.592   0.180
 3339TIP3    H110023   2.065   2.650   0.118
 3339TIP3    H210024   2.038   2.556   0.234
 3340TIP3   OH210025   5.085   0.878   3.826
 3340TIP3    H110026   5.032   0.936   3.880
 3340TIP3    H210027   5.077   0.793   3.868
 3341TIP3   OH210028   4.060   5.512   2.633
 3341TIP3    H110029   4.057   5.586   2.694
 3341TIP3    H210030   4.049   5.553   2.547
 3342TIP3   OH210031   5.835   5.838   4.943
 3342TIP3    H110032   5.873   5.920   4.911
 3342TIP3    H210033   5.756   5.826   4.889
 3343TIP3   OH210034   4.008   4.208   2.455
 3343TIP3    H110035   4.027   4.134   2.398
 3343TIP3    H210036   4.006   4.170   2.543
 3344TIP3   OH210037   2.117   5.470   0.394
 3344TIP3    H110038   2.038   5.422   0.419
 3344TIP3    H210039   2.182   5.445   0.459
 3345TIP3   OH210040   5.759   4.860   3.742
 3345TIP3    H110041   5.851   4.841   3.723
 3345TIP3    H210042   5.750   4.845   3.836
 3346TIP3   OH210043   0.522   4.916   1.190
 3346TIP3    H110044   0.595   4.855   1.198
 3346TIP3    H210045   0.557   5.000   1.222
 3347TIP3   OH210046   4.306   1.004   1.968
 3347TIP3    H110047   4.399   1.023   1.954
 3347TIP3    H210048   4.273   1.082   2.012
 3348TIP3   OH210049   1.973   2.483   0.366
 3348TIP3    H110050   2.012   2.411   0.415
 3348TIP3    H210051   1.914   2.525   0.428
 3349TIP3   OH210052   3.368   2.476   1.577
 3349TIP3    H110053   3.455   2.466   1.540
 3349TIP3    H210054   3.357   2.401   1.636
 3350TIP3   OH210055   2.045   1.991   4.168
 3350TIP3    H110056   1.994   1.911   4.177
 3350TIP3    H210057   2.127   1.963   4.129
 3351TIP3   OH210058   5.889   1.988   0.220
 3351TIP3    H110059   5.930   1.902   0.226
 3351TIP3    H210060   5.895   2.024   0.309
 3352TIP3   OH210061   2.121   3.143   3.134
 3352TIP3    H110062   2.187   3.145   3.203
 3352TIP3    H210063   2.059   3.211   3.158
 3353TIP3   OH210064   4.220   3.954   2.544
 3353TIP3    H110065   4.232   3.862   2.568
 3353TIP3    H210066   4.256   3.961   2.456
 3354TIP3   OH210067   0.438   4.508   0.526
 3354TIP3    H110068   0.398   4.536   0.443
 3354TIP3    H210069   0.427   4.584   0.584
 3355TIP3   OH210070   6.324   3.979   1.685
 3355TIP3    H110071   6.238   3.957   1.721
 3355TIP3    H210072   6.380   3.991   1.761
 3356TIP3   OH210073   3.458   0.564   2.994
 3356TIP3    H110074   3.530   0.597   3.048
 3356TIP3    H210075   3.458   0.469   3.010
 3357TIP3   OH210076   5.332   0.565   1.015
 3357TIP3    H110077   5.247   0.528   1.041
 3357TIP3    H210078   5.381   0.490   0.982
 3358TIP3   OH210079   4.360   2.222   0.799
 3358TIP3    H110080   4.391   2.305   0.762
 3358TIP3    H210081   4.433   2.192   0.854
 3359TIP3   OH210082   5.381   2.669   2.566
 3359TIP3    H110083   5.311   2.619   2.607
 3359TIP3    H210084   5.440   2.691   2.638
 3360TIP3   OH210085   0.809   5.286   0.092
 3360TIP3    H110086   0.773   5.245   0.170
 3360TIP3    H210087   0.788   5.379   0.101
 3361TIP3   OH210088   0.076   0.121   3.368
 3361TIP3    H110089   0.061   0.117   3.462
 3361TIP3    H210090   0.065   0.213   3.346
 3362TIP3   OH210091   1.505   4.070   0.205
 3362TIP3    H110092   1.457   4.074   0.122
 3362TIP3    H210093   1.441   4.037   0.268
 3363TIP3   OH210094   0.615   5.911   2.658
 3363TIP3    H110095   0.668   5.944   2.730
 3363TIP3    H210096   0.529   5.896   2.696
 3364TIP3   OH210097   3.492   2.753   2.534
 3364TIP3    H110098   3.427   2.726   2.469
 3364TIP3    H210099   3.576   2.728   2.496
 3365TIP3   OH210100   6.213   4.265   0.954
 3365TIP3    H110101   6.194   4.355   0.929
 3365TIP3    H210102   6.137   4.238   1.004
 3366TIP3   OH210103   3.697   2.548   4.943
 3366TIP3    H110104   3.652   2.612   4.888
 3366TIP3    H210105   3.787   2.547   4.909
 3367TIP3   OH210106   0.836   0.950   4.515
 3367TIP3    H110107   0.749   0.989   4.518
 3367TIP3    H210108   0.881   0.985   4.591
 3368TIP3   OH210109   5.664   3.196   5.188
 3368TIP3    H110110   5.662   3.160   5.100
 3368TIP3    H210111   5.602   3.143   5.237
 3369TIP3   OH210112   5.398   0.607   3.792
 3369TIP3    H110113   5.305   0.591   3.805
 3369TIP3    H210114   5.437   0.597   3.879
 3370TIP3   OH210115   2.685   1.411   1.464
 3370TIP3    H110116   2.756   1.365   1.508
 3370TIP3    H210117   2.654   1.475   1.528
 3371TIP3   OH210118   4.732   5.740   4.521
 3371TIP3    H110119   4.767   5.822   4.556
 3371TIP3    H210120   4.704   5.761   4.432
 3372TIP3   OH210121   0.618   3.120   1.274
 3372TIP3    H110122   0.642   3.059   1.205
 3372TIP3    H210123   0.644   3.206   1.240
 3373TIP3   OH210124   4.422   5.457   0.547
 3373TIP3    H110125   4.468   5.437   0.628
 3373TIP3    H210126   4.487   5.442   0.478
 3374TIP3   OH210127   5.203   2.051   3.363
 3374TIP3    H110128   5.206   1.963   3.399
 3374TIP3    H210129   5.294   2.071   3.340
 3375TIP3   OH210130   2.778   2.432   1.860
 3375TIP3    H110131   2.753   2.342   1.877
 3375TIP3    H210132   2.700   2.483   1.885
 3376TIP3   OH210133   2.795   3.366   3.102
 3376TIP3    H110134   2.786   3.297   3.036
 3376TIP3    H210135   2.725   3.348   3.165
 3377TIP3   OH210136   0.580   2.765   2.003
 3377TIP3    H110137   0.616   2.741   2.088
 3377TIP3    H210138   0.568   2.682   1.957
 3378TIP3   OH210139   3.232   4.933   3.896
 3378TIP3    H110140   3.252   4.884   3.817
 3378TIP3    H210141   3.311   4.926   3.950
 3379TIP3   OH210142   0.254   0.731   4.245
 3379TIP3    H110143   0.197   0.668   4.289
 3379TIP3    H210144   0.219   0.737   4.156
 3380TIP3   OH210145   0.523   5.594   3.886
 3380TIP3    H110146   0.447   5.567   3.936
 3380TIP3    H210147   0.550   5.677   3.926
 3381TIP3   OH210148   4.080   4.757   2.267
 3381TIP3    H110149   4.126   4.788   2.188
 3381TIP3    H210150   3.988   4.775   2.249
 3382TIP3   OH210151   0.805   0.612   0.446
 3382TIP3    H110152   0.876   0.662   0.407
 3382TIP3    H210153   0.833   0.521   0.438
 3383TIP3   OH210154   5.534   3.857   0.438
 3383TIP3    H110155   5.472   3.784   0.438
 3383TIP3    H210156   5.601   3.830   0.375
 3384TIP3   OH210157   0.542   5.157   0.520
 3384TIP3    H110158   0.517   5.246   0.495
 3384TIP3    H210159   0.604   5.169   0.592
 3385TIP3   OH210160   2.638   1.702   1.986
 3385TIP3    H110161   2.553   1.660   1.991
 3385TIP3    H210162   2.618   1.794   1.964
 3386TIP3   OH210163   0.014   1.576   1.447
 3386TIP3    H110164  -0.017   1.552   1.360
 3386TIP3    H210165   0.103   1.540   1.452
 3387TIP3   OH210166   0.190   5.967   3.435
 3387TIP3    H110167   0.165   5.923   3.516
 3387TIP3    H210168   0.283   5.989   3.447
 3388TIP3   OH210169   5.952   1.276   4.355
 3388TIP3    H110170   5.888   1.347   4.352
 3388TIP3    H210171   5.973   1.259   4.263
 3389TIP3   OH210172   0.282   1.514   4.024
 3389TIP3    H110173   0.374   1.532   4.004
 3389TIP3    H210174   0.281   1.421   4.047
 3390TIP3   OH210175   1.662   0.322   3.781
 3390TIP3    H110176   1.699   0.236   3.764
 3390TIP3    H210177   1.567   0.308   3.778
 3391TIP3   OH210178   1.196   2.862   0.822
 3391TIP3    H110179   1.152   2.891   0.743
 3391TIP3    H210180   1.234   2.942   0.860
 3392TIP3   OH210181   4.504   1.028   0.499
 3392TIP3    H110182   4.507   0.993   0.410
 3392TIP3    H210183   4.558   0.969   0.550
 3393TIP3   OH210184   3.157   3.311   3.551
 3393TIP3    H110185   3.159   3.400   3.585
 3393TIP3    H210186   3.248   3.284   3.550
 3394TIP3   OH210187   1.168   4.433   5.115
 3394TIP3    H110188   1.116   4.477   5.047
 3394TIP3    H210189   1.197   4.352   5.073
 3395TIP3   OH210190   3.452   0.284   3.047
 3395TIP3    H110191   3.394   0.220   3.006
 3395TIP3    H210192   3.465   0.251   3.136
 3396TIP3   OH210193   4.441   2.545   2.704
 3396TIP3    H110194   4.397   2.625   2.675
 3396TIP3    H210195   4.501   2.523   2.632
 3397TIP3   OH210196   4.371   5.755   4.239
 3397TIP3    H110197   4.313   5.810   4.291
 3397TIP3    H210198   4.459   5.785   4.262
 3398TIP3   OH210199   3.377   3.830   3.093
 3398TIP3    H110200   3.416   3.767   3.154
 3398TIP3    H210201   3.452   3.869   3.048
 3399TIP3   OH210202   3.691   5.926   2.045
 3399TIP3    H110203   3.682   5.905   1.952
 3399TIP3    H210204   3.611   5.973   2.068
 3400TIP3   OH210205   2.983   4.672   3.237
 3400TIP3    H110206   2.989   4.577   3.237
 3400TIP3    H210207   2.898   4.691   3.277
 3401TIP3   OH210208   2.379   3.801   3.527
 3401TIP3    H110209   2.469   3.819   3.554
 3401TIP3    H210210   2.383   3.714   3.487
 3402TIP3   OH210211   3.545   3.502   1.542
 3402TIP3    H110212   3.518   3.493   1.451
 3402TIP3    H210213   3.540   3.414   1.578
 3403TIP3   OH210214   5.920   2.413   0.484
 3403TIP3    H110215   6.002   2.369   0.504
 3403TIP3    H210216   5.942   2.506   0.482
 3404TIP3   OH210217   1.931   2.503   3.427
 3404TIP3    H110218   1.937   2.408   3.431
 3404TIP3    H210219   1.885   2.521   3.345
 3405TIP3   OH210220   5.797   2.373   0.219
 3405TIP3    H110221   5.883   2.344   0.187
 3405TIP3    H210222   5.795   2.343   0.310
 3406TIP3   OH210223   1.644   4.811   2.559
 3406TIP3    H110224   1.631   4.745   2.627
 3406TIP3    H210225   1.634   4.764   2.476
 3407TIP3   OH210226   5.511   2.382   1.130
 3407TIP3    H110227   5.544   2.364   1.218
 3407TIP3    H210228   5.523   2.476   1.119
 3408TIP3   OH210229   1.014   0.476   0.609
 3408TIP3    H110230   1.064   0.537   0.663
 3408TIP3    H210231   1.058   0.479   0.524
 3409TIP3   OH210232   4.754   5.063   3.519
 3409TIP3    H110233   4.841   5.102   3.513
 3409TIP3    H210234   4.700   5.131   3.559
 3410TIP3   OH210235   1.727   2.162   0.072
 3410TIP3    H110236   1.760   2.089   0.019
 3410TIP3    H210237   1.805   2.199   0.113
 3411TIP3   OH210238   3.099   5.161   1.356
 3411TIP3    H110239   3.132   5.230   1.414
 3411TIP3    H210240   3.035   5.205   1.301
 3412TIP3   OH210241   0.098   5.604   3.393
 3412TIP3    H110242   0.038   5.653   3.450
 3412TIP3    H210243   0.151   5.552   3.454
 3413TIP3   OH210244   4.444   5.398   5.140
 3413TIP3    H110245   4.387   5.454   5.087
 3413TIP3    H210246   4.388   5.323   5.163
 3414TIP3   OH210247   4.052   0.393   4.922
 3414TIP3    H110248   3.989   0.322   4.909
 3414TIP3    H210249   4.003   0.472   4.901
 3415TIP3   OH210250   2.976   0.085   2.755
 3415TIP3    H110251   2.942   0.162   2.801
 3415TIP3    H210252   2.996   0.117   2.667
 3416TIP3   OH210253   5.632   4.194   3.517
 3416TIP3    H110254   5.603   4.162   3.432
 3416TIP3    H210255   5.556   4.182   3.574
 3417TIP3   OH210256   2.361   0.187   3.121
 3417TIP3    H110257   2.396   0.191   3.032
 3417TIP3    H210258   2.409   0.116   3.163
 3418TIP3   OH210259   5.857   2.776   4.404
 3418TIP3    H110260   5.842   2.869   4.389
 3418TIP3    H210261   5.864   2.738   4.316
 3419TIP3   OH210262   3.728   2.016   3.757
 3419TIP3    H110263   3.652   2.002   3.814
 3419TIP3    H210264   3.691   2.028   3.670
 3420TIP3   OH210265   4.000   4.755   3.856
 3420TIP3    H110266   3.976   4.847   3.848
 3420TIP3    H210267   4.063   4.740   3.786
 3421TIP3   OH210268   2.228   4.189   3.228
 3421TIP3    H110269   2.215   4.278   3.258
 3421TIP3    H210270   2.321   4.171   3.245
 3422TIP3   OH210271   2.590   3.013   1.919
 3422TIP3    H110272   2.528   2.966   1.974
 3422TIP3    H210273   2.553   3.006   1.831
 3423TIP3   OH210274   4.861   1.225   4.494
 3423TIP3    H110275   4.877   1.281   4.418
 3423TIP3    H210276   4.896   1.139   4.469
 3424TIP3   OH210277   3.876   0.668   2.685
 3424TIP3    H110278   3.788   0.684   2.652
 3424TIP3    H210279   3.918   0.754   2.685
 3425TIP3   OH210280   3.236   2.224   2.415
 3425TIP3    H110281   3.172   2.161   2.382
 3425TIP3    H210282   3.234   2.295   2.351
 3426TIP3   OH210283   0.043   1.328   4.791
 3426TIP3    H110284  -0.009   1.249   4.802
 3426TIP3    H210285  -0.018   1.392   4.753
 3427TIP3   OH210286   6.385   3.365   2.332
 3427TIP3    H110287   6.329   3.300   2.374
 3427TIP3    H210288   6.380   3.344   2.238
 3428TIP3   OH210289   2.559   3.894   2.849
 3428TIP3    H110290   2.594   3.820   2.800
 3428TIP3    H210291   2.500   3.855   2.913
 3429TIP3   OH210292   2.776   4.022   3.855
 3429TIP3    H110293   2.868   3.997   3.844
 3429TIP3    H210294   2.776   4.083   3.928
 3430TIP3   OH210295   4.571   4.628   0.922
 3430TIP3    H110296   4.602   4.699   0.865
 3430TIP3    H210297   4.630   4.555   0.905
 3431TIP3   OH210298   1.702   0.586   2.123
 3431TIP3    H110299   1.670   0.623   2.041
 3431TIP3    H210300   1.660   0.638   2.191
 3432TIP3   OH210301   5.269   5.491   0.862
 3432TIP3    H110302   5.351   5.523   0.898
 3432TIP3    H210303   5.203   5.514   0.928
 3433TIP3   OH210304   6.090   4.803   2.777
 3433TIP3    H110305   6.084   4.823   2.684
 3433TIP3    H210306   6.149   4.869   2.813
 3434TIP3   OH210307   5.129   0.144   3.348
 3434TIP3    H110308   5.123   0.131   3.443
 3434TIP3    H210309   5.060   0.207   3.327
 3435TIP3   OH210310   0.702   2.798   4.705
 3435TIP3    H110311   0.747   2.779   4.787
 3435TIP3    H210312   0.678   2.890   4.711
 3436TIP3   OH210313   4.719   0.555   0.570
 3436TIP3    H110314   4.798   0.607   0.590
 3436TIP3    H210315   4.685   0.593   0.490
 3437TIP3   OH210316   0.781   1.216   0.417
 3437TIP3    H110317   0.788   1.122   0.435
 3437TIP3    H210318   0.836   1.257   0.484
 3438TIP3   OH210319   6.000   0.969   1.196
 3438TIP3    H110320   5.960   1.011   1.119
 3438TIP3    H210321   6.094   0.984   1.186
 3439TIP3   OH210322   0.440   0.222   3.368
 3439TIP3    H110323   0.476   0.149   3.419
 3439TIP3    H210324   0.395   0.179   3.295
 3440TIP3   OH210325   6.095   3.827   3.176
 3440TIP3    H110326   6.145   3.852   3.099
 3440TIP3    H210327   6.053   3.744   3.151
 3441TIP3   OH210328   0.952   5.893   2.957
 3441TIP3    H110329   0.913   5.927   2.876
 3441TIP3    H210330   0.892   5.823   2.984
 3442TIP3   OH210331   2.135   4.852   2.826
 3442TIP3    H110332   2.052   4.869   2.782
 3442TIP3    H210333   2.200   4.902   2.775
 3443TIP3   OH210334   4.706   2.973   3.597
 3443TIP3    H110335   4.786   2.978   3.649
 3443TIP3    H210336   4.707   2.885   3.559
 3444TIP3   OH210337   0.837   3.218   4.921
 3444TIP3    H110338   0.819   3.309   4.898
 3444TIP3    H210339   0.902   3.189   4.857
 3445TIP3   OH210340   1.734   5.695   3.178
 3445TIP3    H110341   1.665   5.684   3.113
 3445TIP3    H210342   1.815   5.681   3.129
 3446TIP3   OH210343   4.875   2.109   2.865
 3446TIP3    H110344   4.846   2.077   2.951
 3446TIP3    H210345   4.819   2.184   2.847
 3447TIP3   OH210346   3.336   2.415   0.991
 3447TIP3    H110347   3.361   2.381   0.905
 3447TIP3    H210348   3.369   2.350   1.053
 3448TIP3   OH210349   2.789   4.432   4.307
 3448TIP3    H110350   2.727   4.502   4.326
 3448TIP3    H210351   2.846   4.468   4.240
 3449TIP3   OH210352   0.612   4.721   4.317
 3449TIP3    H110353   0.586   4.629   4.309
 3449TIP3    H210354   0.650   4.743   4.232
 3450TIP3   OH210355   5.459   3.935   0.863
 3450TIP3    H110356   5.372   3.974   0.870
 3450TIP3    H210357   5.443   3.841   0.854
 3451TIP3   OH210358   4.868   3.075   1.615
 3451TIP3    H110359   4.834   2.997   1.570
 3451TIP3    H210360   4.797   3.100   1.675
 3452TIP3   OH210361   2.126   3.192   0.738
 3452TIP3    H110362   2.199   3.211   0.797
 3452TIP3    H210363   2.135   3.099   0.718
 3453TIP3   OH210364   1.579   2.036   5.110
 3453TIP3    H110365   1.541   2.110   5.064
 3453TIP3    H210366   1.579   2.062   5.202
 3454TIP3   OH210367   4.266   0.417   1.994
 3454TIP3    H110368   4.331   0.393   1.928
 3454TIP3    H210369   4.318   0.433   2.073
 3455TIP3   OH210370   4.101   0.974   3.778
 3455TIP3    H110371   4.024   1.004   3.827
 3455TIP3    H210372   4.152   0.924   3.842
 3456TIP3   OH210373   5.389   3.621   0.461
 3456TIP3    H110374   5.464   3.566   0.483
 3456TIP3    H210375   5.326   3.560   0.423
 3457TIP3   OH210376   5.403   0.272   2.019
 3457TIP3    H110377   5.474   0.336   2.010
 3457TIP3    H210378   5.447   0.187   2.011
 3458TIP3   OH210379   1.871   4.080   0.687
 3458TIP3    H110380   1.820   4.160   0.673
 3458TIP3    H210381   1.813   4.009   0.659
 3459TIP3   OH210382   2.793   1.122   2.499
 3459TIP3    H110383   2.706   1.136   2.536
 3459TIP3    H210384   2.849   1.184   2.546
 3460TIP3   OH210385   2.911   0.009   0.510
 3460TIP3    H110386   2.821   0.010   0.541
 3460TIP3    H210387   2.965   0.011   0.589
 3461TIP3   OH210388   3.243   5.390   2.562
 3461TIP3    H110389   3.184   5.321   2.592
 3461TIP3    H210390   3.319   5.342   2.527
 3462TIP3   OH210391   2.986   0.828   0.365
 3462TIP3    H110392   2.992   0.912   0.319
 3462TIP3    H210393   2.933   0.847   0.443
 3463TIP3   OH210394   4.929   5.901   2.248
 3463TIP3    H110395   4.956   5.816   2.214
 3463TIP3    H210396   4.913   5.886   2.341
 3464TIP3   OH210397   5.756   2.319   1.244
 3464TIP3    H110398   5.753   2.226   1.267
 3464TIP3    H210399   5.771   2.363   1.328
 3465TIP3   OH210400   1.934   3.268   4.117
 3465TIP3    H110401   1.972   3.295   4.034
 3465TIP3    H210402   2.002   3.287   4.182
 3466TIP3   OH210403   4.748   3.932   4.021
 3466TIP3    H110404   4.736   3.954   3.928
 3466TIP3    H210405   4.774   4.015   4.062
 3467TIP3   OH210406   1.885   3.943   4.301
 3467TIP3    H110407   1.945   3.905   4.237
 3467TIP3    H210408   1.930   4.021   4.333
 3468TIP3   OH210409   3.046   0.457   1.680
 3468TIP3    H110410   2.956   0.472   1.652
 3468TIP3    H210411   3.043   0.374   1.727
 3469TIP3   OH210412   6.140   3.019   0.173
 3469TIP3    H110413   6.082   3.083   0.214
 3469TIP3    H210414   6.228   3.044   0.203
 3470TIP3   OH210415   4.911   1.860   1.026
 3470TIP3    H110416   4.839   1.823   1.078
 3470TIP3    H210417   4.945   1.932   1.079
 3471TIP3   OH210418   0.724   0.400   2.103
 3471TIP3    H110419   0.709   0.306   2.100
 3471TIP3    H210420   0.811   0.412   2.066
 3472TIP3   OH210421   3.350   0.975   1.836
 3472TIP3    H110422   3.307   1.030   1.902
 3472TIP3    H210423   3.397   0.909   1.887
 3473TIP3   OH210424   3.864   5.424   3.348
 3473TIP3    H110425   3.954   5.428   3.382
 3473TIP3    H210426   3.814   5.379   3.416
 3474TIP3   OH210427   4.934   5.818   3.338
 3474TIP3    H110428   5.029   5.825   3.329
 3474TIP3    H210429   4.902   5.808   3.249
 3475TIP3   OH210430   1.658   4.507   0.932
 3475TIP3    H110431   1.568   4.474   0.930
 3475TIP3    H210432   1.652   4.589   0.980
 3476TIP3   OH210433   0.317   1.589   3.177
 3476TIP3    H110434   0.360   1.545   3.104
 3476TIP3    H210435   0.361   1.553   3.255
 3477TIP3   OH210436   2.815   5.608   3.125
 3477TIP3    H110437   2.754   5.539   3.148
 3477TIP3    H210438   2.791   5.681   3.182
 3478TIP3   OH210439   4.250   5.540   4.165
 3478TIP3    H110440   4.291   5.626   4.173
 3478TIP3    H210441   4.222   5.535   4.074
 3479TIP3   OH210442   4.926   3.610   1.389
 3479TIP3    H110443   4.983   3.534   1.397
 3479TIP3    H210444   4.875   3.611   1.470
 3480TIP3   OH210445   5.111   3.151   2.495
 3480TIP3    H110446   5.091   3.084   2.561
 3480TIP3    H210447   5.150   3.102   2.422
 3481TIP3   OH210448   4.028   5.522   3.692
 3481TIP3    H110449   4.092   5.490   3.628
 3481TIP3    H210450   3.949   5.539   3.641
 3482TIP3   OH210451   5.374   0.417   5.170
 3482TIP3    H110452   5.335   0.333   5.144
 3482TIP3    H210453   5.438   0.436   5.102
 3483TIP3   OH210454   3.340   3.400   2.857
 3483TIP3    H110455   3.376   3.311   2.858
 3483TIP3    H210456   3.416   3.457   2.862
 3484TIP3   OH210457   4.155   2.748   0.801
 3484TIP3    H110458   4.183   2.662   0.769
 3484TIP3    H210459   4.134   2.734   0.893
 3485TIP3   OH210460   2.967   3.937   1.084
 3485TIP3    H110461   2.966   3.932   1.180
 3485TIP3    H210462   3.057   3.961   1.062
 3486TIP3   OH210463   5.332   3.226   4.183
 3486TIP3    H110464   5.242   3.193   4.172
 3486TIP3    H210465   5.370   3.169   4.250
 3487TIP3   OH210466   0.061   1.322   2.820
 3487TIP3    H110467   0.092   1.389   2.881
 3487TIP3    H210468   0.131   1.315   2.755
 3488TIP3   OH210469   1.304   3.130   0.951
 3488TIP3    H110470   1.347   3.215   0.965
 3488TIP3    H210471   1.360   3.067   0.997
 3489TIP3   OH210472   1.628   3.344   2.202
 3489TIP3    H110473   1.593   3.262   2.237
 3489TIP3    H210474   1.705   3.318   2.152
 3490TIP3   OH210475   5.380   4.868   4.922
 3490TIP3    H110476   5.334   4.800   4.971
 3490TIP3    H210477   5.460   4.884   4.972
 3491TIP3   OH210478   4.749   5.449   3.922
 3491TIP3    H110479   4.660   5.463   3.955
 3491TIP3    H210480   4.786   5.537   3.914
 3492TIP3   OH210481   4.255   0.146   2.805
 3492TIP3    H110482   4.305   0.077   2.849
 3492TIP3    H210483   4.243   0.114   2.716
 3493TIP3   OH210484   3.020   3.831   1.337
 3493TIP3    H110485   2.989   3.769   1.271
 3493TIP3    H210486   2.994   3.793   1.420
 3494TIP3   OH210487   4.277   3.977   1.620
 3494TIP3    H110488   4.214   4.044   1.647
 3494TIP3    H210489   4.363   4.016   1.637
 3495TIP3   OH210490   5.218   3.884   4.516
 3495TIP3    H110491   5.170   3.965   4.531
 3495TIP3    H210492   5.309   3.905   4.539
 3496TIP3   OH210493   0.775   5.786   1.120
 3496TIP3    H110494   0.690   5.745   1.128
 3496TIP3    H210495   0.832   5.735   1.177
 3497TIP3   OH210496   6.319   3.975   0.164
 3497TIP3    H110497   6.334   4.039   0.094
 3497TIP3    H210498   6.262   3.909   0.125
 3498TIP3   OH210499   3.063   5.686   2.712
 3498TIP3    H110500   3.068   5.616   2.777
 3498TIP3    H210501   2.969   5.697   2.696
 3499TIP3   OH210502   1.940   0.692   0.045
 3499TIP3    H110503   2.016   0.695  -0.013
 3499TIP3    H210504   1.888   0.620   0.011
 3500TIP3   OH210505   0.837   4.515   4.502
 3500TIP3    H110506   0.749   4.490   4.531
 3500TIP3    H210507   0.837   4.610   4.503
 3501TIP3   OH210508   5.338   5.188   4.218
 3501TIP3    H110509   5.394   5.204   4.142
 3501TIP3    H210510   5.277   5.261   4.219
 3502TIP3   OH210511   5.461   2.373   3.791
 3502TIP3    H110512   5.396   2.307   3.816
 3502TIP3    H210513   5.412   2.438   3.742
 3503TIP3   OH210514   0.057   2.773   0.452
 3503TIP3    H110515  -0.004   2.836   0.490
 3503TIP3    H210516   0.141   2.819   0.450
 3504TIP3   OH210517   2.912   2.218   0.185
 3504TIP3    H110518   2.856   2.234   0.109
 3504TIP3    H210519   2.945   2.304   0.210
 3505TIP3   OH210520   5.088   0.409   1.014
 3505TIP3    H110521   5.032   0.332   1.002
 3505TIP3    H210522   5.026   0.481   1.029
 3506TIP3   OH210523   4.294   1.898   4.071
 3506TIP3    H110524   4.215   1.951   4.078
 3506TIP3    H210525   4.288   1.856   3.986
 3507TIP3   OH210526   0.918   2.308   1.048
 3507TIP3    H110527   0.921   2.347   0.960
 3507TIP3    H210528   0.827   2.319   1.075
 3508TIP3   OH210529   0.252   4.302   4.760
 3508TIP3    H110530   0.290   4.358   4.692
 3508TIP3    H210531   0.327   4.257   4.799
 3509TIP3   OH210532   1.384   3.526   4.030
 3509TIP3    H110533   1.398   3.475   4.110
 3509TIP3    H210534   1.454   3.498   3.971
 3510TIP3   OH210535   5.199   1.812   3.499
 3510TIP3    H110536   5.192   1.767   3.583
 3510TIP3    H210537   5.202   1.741   3.435
 3511TIP3   OH210538   1.057   0.730   4.788
 3511TIP3    H110539   1.060   0.791   4.863
 3511TIP3    H210540   1.129   0.759   4.731
 3512TIP3   OH210541   4.973   5.609   3.519
 3512TIP3    H110542   4.965   5.687   3.464
 3512TIP3    H210543   5.026   5.637   3.593
 3513TIP3   OH210544   3.948   5.849   3.409
 3513TIP3    H110545   3.893   5.772   3.421
 3513TIP3    H210546   3.932   5.902   3.488
 3514TIP3   OH210547   2.434   2.840   2.076
 3514TIP3    H110548   2.340   2.850   2.089
 3514TIP3    H210549   2.471   2.846   2.164
 3515TIP3   OH210550   0.064   3.174   4.631
 3515TIP3    H110551  -0.015   3.140   4.673
 3515TIP3    H210552   0.133   3.113   4.655
 3516TIP3   OH210553   4.579   1.363   2.638
 3516TIP3    H110554   4.558   1.445   2.683
 3516TIP3    H210555   4.651   1.327   2.688
 3517TIP3   OH210556   1.024   1.600   1.310
 3517TIP3    H110557   1.070   1.516   1.298
 3517TIP3    H210558   1.027   1.615   1.405
 3518TIP3   OH210559   5.595   0.274   3.462
 3518TIP3    H110560   5.577   0.335   3.391
 3518TIP3    H210561   5.659   0.214   3.426
 3519TIP3   OH210562   4.952   4.129   0.249
 3519TIP3    H110563   4.872   4.098   0.291
 3519TIP3    H210564   4.934   4.122   0.155
 3520TIP3   OH210565   6.085   1.887   3.774
 3520TIP3    H110566   6.138   1.867   3.852
 3520TIP3    H210567   6.002   1.843   3.790
 3521TIP3   OH210568   2.296   4.154   0.020
 3521TIP3    H110569   2.231   4.142  -0.049
 3521TIP3    H210570   2.245   4.174   0.098
 3522TIP3   OH210571   0.080   5.397   4.002
 3522TIP3    H110572   0.160   5.362   4.042
 3522TIP3    H210573   0.042   5.322   3.956
 3523TIP3   OH210574   0.285   3.128   3.817
 3523TIP3    H110575   0.350   3.198   3.820
 3523TIP3    H210576   0.284   3.100   3.726
 3524TIP3   OH210577   2.687   4.231   4.059
 3524TIP3    H110578   2.621   4.185   4.111
 3524TIP3    H210579   2.673   4.323   4.079
 3525TIP3   OH210580   1.168   4.322   3.264
 3525TIP3    H110581   1.164   4.234   3.301
 3525TIP3    H210582   1.247   4.361   3.302
 3526TIP3   OH210583   2.888   1.371   1.655
 3526TIP3    H110584   2.824   1.429   1.696
 3526TIP3    H210585   2.905   1.303   1.720
 3527TIP3   OH210586   0.714   4.671   4.071
 3527TIP3    H110587   0.731   4.596   4.014
 3527TIP3    H210588   0.695   4.743   4.011
 3528TIP3   OH210589   4.599   0.641   0.263
 3528TIP3    H110590   4.583   0.595   0.180
 3528TIP3    H210591   4.611   0.732   0.237
 3529TIP3   OH210592   3.374   3.684   1.277
 3529TIP3    H110593   3.382   3.756   1.339
 3529TIP3    H210594   3.349   3.609   1.331
 3530TIP3   OH210595   1.466   1.369   0.648
 3530TIP3    H110596   1.544   1.312   0.648
 3530TIP3    H210597   1.416   1.339   0.724
 3531TIP3   OH210598   3.416   0.219   3.776
 3531TIP3    H110599   3.356   0.234   3.702
 3531TIP3    H210600   3.379   0.143   3.821
 3532TIP3   OH210601   3.997   5.269   0.972
 3532TIP3    H110602   3.950   5.314   0.901
 3532TIP3    H210603   4.075   5.323   0.987
 3533TIP3   OH210604   1.629   5.375   4.621
 3533TIP3    H110605   1.589   5.403   4.539
 3533TIP3    H210606   1.709   5.329   4.594
 3534TIP3   OH210607   3.005   4.352   2.694
 3534TIP3    H110608   2.916   4.357   2.729
 3534TIP3    H210609   2.998   4.291   2.621
 3535TIP3   OH210610   6.167   2.446   1.873
 3535TIP3    H110611   6.193   2.480   1.958
 3535TIP3    H210612   6.167   2.522   1.815
 3536TIP3   OH210613   3.382   2.184   3.519
 3536TIP3    H110614   3.326   2.125   3.468
 3536TIP3    H210615   3.471   2.154   3.502
 3537TIP3   OH210616   4.499   3.819   2.715
 3537TIP3    H110617   4.436   3.752   2.688
 3537TIP3    H210618   4.516   3.801   2.807
 3538TIP3   OH210619   3.145   5.275   0.270
 3538TIP3    H110620   3.061   5.232   0.252
 3538TIP3    H210621   3.174   5.236   0.353
 3539TIP3   OH210622   3.323   0.305   1.975
 3539TIP3    H110623   3.288   0.384   2.016
 3539TIP3    H210624   3.359   0.335   1.891
 3540TIP3   OH210625   1.540   4.206   0.896
 3540TIP3    H110626   1.557   4.216   0.990
 3540TIP3    H210627   1.618   4.242   0.854
 3541TIP3   OH210628   2.040   0.382   1.566
 3541TIP3    H110629   2.009   0.417   1.482
 3541TIP3    H210630   2.127   0.346   1.546
 3542TIP3   OH210631   3.594   0.196   3.280
 3542TIP3    H110632   3.675   0.213   3.232
 3542TIP3    H210633   3.580   0.276   3.331
 3543TIP3   OH210634   4.425   4.485   0.299
 3543TIP3    H110635   4.477   4.560   0.271
 3543TIP3    H210636   4.425   4.490   0.394
 3544TIP3   OH210637   2.943   5.703   3.898
 3544TIP3    H110638   2.863   5.652   3.890
 3544TIP3    H210639   2.914   5.794   3.898
 3545TIP3   OH210640   1.854   3.206   3.469
 3545TIP3    H110641   1.794   3.203   3.395
 3545TIP3    H210642   1.808   3.258   3.535
 3546TIP3   OH210643   2.408   5.549   4.464
 3546TIP3    H110644   2.441   5.579   4.548
 3546TIP3    H210645   2.335   5.607   4.444
 3547TIP3   OH210646   2.432   5.234   2.127
 3547TIP3    H110647   2.485   5.294   2.074
 3547TIP3    H210648   2.470   5.148   2.112
 3548TIP3   OH210649   3.572   4.822   2.528
 3548TIP3    H110650   3.526   4.749   2.570
 3548TIP3    H210651   3.657   4.786   2.505
 3549TIP3   OH210652   5.661   2.167   4.849
 3549TIP3    H110653   5.618   2.239   4.895
 3549TIP3    H210654   5.720   2.129   4.913
 3550TIP3   OH210655   5.708   3.017   2.559
 3550TIP3    H110656   5.664   2.958   2.621
 3550TIP3    H210657   5.726   3.096   2.610
 3551TIP3   OH210658   0.570   4.577   3.705
 3551TIP3    H110659   0.545   4.667   3.723
 3551TIP3    H210660   0.638   4.584   3.638
 3552TIP3   OH210661   6.150   4.949   0.692
 3552TIP3    H110662   6.130   4.864   0.731
 3552TIP3    H210663   6.212   4.989   0.752
 3553TIP3   OH210664   0.038   3.441   4.742
 3553TIP3    H110665   0.065   3.418   4.831
 3553TIP3    H210666   0.035   3.357   4.695
 3554TIP3   OH210667   2.779   1.370   3.443
 3554TIP3    H110668   2.773   1.353   3.537
 3554TIP3    H210669   2.708   1.317   3.406
 3555TIP3   OH210670   5.357   0.145   0.532
 3555TIP3    H110671   5.386   0.094   0.457
 3555TIP3    H210672   5.362   0.236   0.502
 3556TIP3   OH210673   2.672   0.833   0.001
 3556TIP3    H110674   2.691   0.916   0.045
 3556TIP3    H210675   2.691   0.766   0.067
 3557TIP3   OH210676   2.355   1.080   2.988
 3557TIP3    H110677   2.401   1.081   3.072
 3557TIP3    H210678   2.306   0.998   2.988
 3558TIP3   OH210679   5.839   1.038   2.138
 3558TIP3    H110680   5.826   1.119   2.187
 3558TIP3    H210681   5.765   1.035   2.078
 3559TIP3   OH210682   1.567   4.221   0.458
 3559TIP3    H110683   1.529   4.186   0.538
 3559TIP3    H210684   1.512   4.185   0.388
 3560TIP3   OH210685   5.574   0.355   3.194
 3560TIP3    H110686   5.531   0.271   3.205
 3560TIP3    H210687   5.634   0.342   3.120
 3561TIP3   OH210688   2.245   3.499   2.905
 3561TIP3    H110689   2.197   3.476   2.826
 3561TIP3    H210690   2.248   3.595   2.905
 3562TIP3   OH210691   0.200   1.400   3.785
 3562TIP3    H110692   0.173   1.489   3.760
 3562TIP3    H210693   0.177   1.393   3.878
 3563TIP3   OH210694   5.756   3.191   3.963
 3563TIP3    H110695   5.769   3.253   4.035
 3563TIP3    H210696   5.807   3.228   3.890
 3564TIP3   OH210697   5.942   5.853   3.484
 3564TIP3    H110698   5.975   5.807   3.561
 3564TIP3    H210699   6.019   5.868   3.430
 3565TIP3   OH210700   4.532   3.900   4.188
 3565TIP3    H110701   4.520   3.994   4.198
 3565TIP3    H210702   4.611   3.891   4.135
 3566TIP3   OH210703   3.610   0.376   3.623
 3566TIP3    H110704   3.675   0.307   3.635
 3566TIP3    H210705   3.529   0.339   3.659
 3567TIP3   OH210706   3.074   5.785   3.390
 3567TIP3    H110707   3.081   5.846   3.464
 3567TIP3    H210708   3.135   5.714   3.412
 3568TIP3   OH210709   2.736   0.812   3.896
 3568TIP3    H110710   2.762   0.750   3.828
 3568TIP3    H210711   2.670   0.766   3.947
 3569TIP3   OH210712   1.309   0.009   0.949
 3569TIP3    H110713   1.237   0.007   1.012
 3569TIP3    H210714   1.366   0.079   0.980
 3570TIP3   OH210715   4.590   1.888   3.763
 3570TIP3    H110716   4.603   1.807   3.714
 3570TIP3    H210717   4.499   1.912   3.746
 3571TIP3   OH210718   1.471   2.665   3.255
 3571TIP3    H110719   1.435   2.678   3.167
 3571TIP3    H210720   1.496   2.753   3.283
 3572TIP3   OH210721   5.930   5.049   4.300
 3572TIP3    H110722   6.016   5.058   4.341
 3572TIP3    H210723   5.895   5.138   4.298
 3573TIP3   OH210724   2.741   5.268   4.740
 3573TIP3    H110725   2.796   5.340   4.772
 3573TIP3    H210726   2.682   5.250   4.813
 3574TIP3   OH210727   0.129   0.082   3.695
 3574TIP3    H110728   0.093   0.120   3.775
 3574TIP3    H210729   0.205   0.136   3.674
 3575TIP3   OH210730   2.389   4.273   2.551
 3575TIP3    H110731   2.370   4.280   2.644
 3575TIP3    H210732   2.439   4.192   2.542
 3576TIP3   OH210733   4.327   5.149   4.440
 3576TIP3    H110734   4.345   5.233   4.398
 3576TIP3    H210735   4.380   5.151   4.520
 3577TIP3   OH210736   3.874   1.756   4.995
 3577TIP3    H110737   3.826   1.839   5.003
 3577TIP3    H210738   3.915   1.761   4.909
 3578TIP3   OH210739   1.837   5.701   3.445
 3578TIP3    H110740   1.764   5.759   3.425
 3578TIP3    H210741   1.852   5.652   3.364
 3579TIP3   OH210742   4.697   0.716   1.769
 3579TIP3    H110743   4.718   0.671   1.687
 3579TIP3    H210744   4.701   0.648   1.836
 3580TIP3   OH210745   1.487   3.539   4.332
 3580TIP3    H110746   1.482   3.447   4.307
 3580TIP3    H210747   1.577   3.550   4.365
 3581TIP3   OH210748   2.196   1.661   3.912
 3581TIP3    H110749   2.150   1.742   3.893
 3581TIP3    H210750   2.159   1.597   3.852
 3582TIP3   OH210751   0.415   5.744   4.583
 3582TIP3    H110752   0.417   5.650   4.601
 3582TIP3    H210753   0.329   5.759   4.544
 3583TIP3   OH210754   2.051   3.886   5.110
 3583TIP3    H110755   2.043   3.922   5.198
 3583TIP3    H210756   2.030   3.793   5.121
 3584TIP3   OH210757   2.152   2.533   4.432
 3584TIP3    H110758   2.131   2.442   4.452
 3584TIP3    H210759   2.077   2.565   4.383
 3585TIP3   OH210760   1.936   5.819   1.564
 3585TIP3    H110761   2.021   5.812   1.608
 3585TIP3    H210762   1.955   5.795   1.473
 3586TIP3   OH210763   5.650   2.443   3.369
 3586TIP3    H110764   5.707   2.415   3.297
 3586TIP3    H210765   5.652   2.539   3.365
 3587TIP3   OH210766   0.743   0.919   0.403
 3587TIP3    H110767   0.781   0.916   0.316
 3587TIP3    H210768   0.725   0.827   0.425
 3588TIP3   OH210769   2.887   1.843   4.617
 3588TIP3    H110770   2.977   1.810   4.623
 3588TIP3    H210771   2.832   1.769   4.642
 3589TIP3   OH210772   3.055   3.077   1.089
 3589TIP3    H110773   3.104   3.046   1.165
 3589TIP3    H210774   3.121   3.084   1.019
 3590TIP3   OH210775   1.197   4.930   4.535
 3590TIP3    H110776   1.196   4.928   4.631
 3590TIP3    H210777   1.219   4.841   4.509
 3591TIP3   OH210778   1.768   3.415   5.180
 3591TIP3    H110779   1.830   3.410   5.253
 3591TIP3    H210780   1.703   3.348   5.199
 3592TIP3   OH210781   2.311   1.437   3.356
 3592TIP3    H110782   2.240   1.496   3.382
 3592TIP3    H210783   2.369   1.492   3.303
 3593TIP3   OH210784   2.250   0.021   2.748
 3593TIP3    H110785   2.162   0.054   2.728
 3593TIP3    H210786   2.273   0.065   2.830
 3594TIP3   OH210787   3.409   4.736   2.250
 3594TIP3    H110788   3.415   4.737   2.346
 3594TIP3    H210789   3.318   4.711   2.232
 3595TIP3   OH210790   4.899   1.546   1.418
 3595TIP3    H110791   4.982   1.510   1.387
 3595TIP3    H210792   4.902   1.536   1.513
 3596TIP3   OH210793   3.765   2.799   3.453
 3596TIP3    H110794   3.810   2.866   3.504
 3596TIP3    H210795   3.767   2.831   3.363
 3597TIP3   OH210796   1.202   3.090   4.706
 3597TIP3    H110797   1.219   3.168   4.654
 3597TIP3    H210798   1.235   3.111   4.794
 3598TIP3   OH210799   2.009   4.264   4.278
 3598TIP3    H110800   1.997   4.220   4.363
 3598TIP3    H210801   1.920   4.279   4.247
 3599TIP3   OH210802   0.229   0.163   1.679
 3599TIP3    H110803   0.226   0.115   1.597
 3599TIP3    H210804   0.235   0.255   1.654
 3600TIP3   OH210805   2.953   3.702   3.390
 3600TIP3    H110806   2.924   3.720   3.480
 3600TIP3    H210807   2.968   3.608   3.388
 3601TIP3   OH210808   6.362   0.780   4.027
 3601TIP3    H110809   6.283   0.774   3.974
 3601TIP3    H210810   6.334   0.752   4.114
 3602TIP3   OH210811   2.173   5.816   4.864
 3602TIP3    H110812   2.169   5.863   4.948
 3602TIP3    H210813   2.141   5.728   4.885
 3603TIP3   OH210814   2.049   2.274   0.524
 3603TIP3    H110815   2.000   2.192   0.524
 3603TIP3    H210816   2.047   2.304   0.615
 3604TIP3   OH210817   2.305   0.444   3.742
 3604TIP3    H110818   2.375   0.505   3.720
 3604TIP3    H210819   2.322   0.368   3.687
 3605TIP3   OH210820   5.445   0.030   2.698
 3605TIP3    H110821   5.410   0.002   2.782
 3605TIP3    H210822   5.396   0.110   2.677
 3606TIP3   OH210823   0.656   3.062   2.002
 3606TIP3    H110824   0.694   3.136   1.955
 3606TIP3    H210825   0.714   3.048   2.077
 3607TIP3   OH210826   4.404   3.497   2.460
 3607TIP3    H110827   4.468   3.502   2.390
 3607TIP3    H210828   4.422   3.414   2.504
 3608TIP3   OH210829   2.401   5.488   0.760
 3608TIP3    H110830   2.416   5.536   0.842
 3608TIP3    H210831   2.360   5.552   0.702
 3609TIP3   OH210832   1.921   0.097   3.187
 3609TIP3    H110833   1.951   0.175   3.140
 3609TIP3    H210834   1.914   0.030   3.120
 3610TIP3   OH210835   3.357   2.871   2.245
 3610TIP3    H110836   3.450   2.851   2.257
 3610TIP3    H210837   3.314   2.785   2.243
 3611TIP3   OH210838   1.542   4.998   1.953
 3611TIP3    H110839   1.637   5.008   1.961
 3611TIP3    H210840   1.507   5.035   2.034
 3612TIP3   OH210841   1.294   3.151   4.981
 3612TIP3    H110842   1.385   3.130   4.961
 3612TIP3    H210843   1.293   3.245   4.996
 3613TIP3   OH210844   5.547   2.692   1.661
 3613TIP3    H110845   5.620   2.674   1.720
 3613TIP3    H210846   5.532   2.786   1.669
 3614TIP3   OH210847   3.585   4.319   3.039
 3614TIP3    H110848   3.620   4.280   3.120
 3614TIP3    H210849   3.491   4.324   3.053
 3615TIP3   OH210850   5.473   4.807   3.913
 3615TIP3    H110851   5.392   4.759   3.933
 3615TIP3    H210852   5.452   4.898   3.931
 3616TIP3   OH210853   0.996   4.255   1.082
 3616TIP3    H110854   1.038   4.190   1.138
 3616TIP3    H210855   0.939   4.204   1.024
 3617TIP3   OH210856   0.926   0.977   1.813
 3617TIP3    H110857   0.976   0.910   1.859
 3617TIP3    H210858   0.993   1.037   1.779
 3618TIP3   OH210859   1.861   0.929   4.491
 3618TIP3    H110860   1.879   1.018   4.520
 3618TIP3    H210861   1.912   0.873   4.550
 3619TIP3   OH210862   5.896   2.324   1.844
 3619TIP3    H110863   5.907   2.241   1.890
 3619TIP3    H210864   5.982   2.366   1.848
 3620TIP3   OH210865   5.366   2.538   4.223
 3620TIP3    H110866   5.415   2.619   4.239
 3620TIP3    H210867   5.425   2.485   4.169
 3621TIP3   OH210868   3.540   4.011   1.000
 3621TIP3    H110869   3.574   3.934   1.045
 3621TIP3    H210870   3.613   4.041   0.945
 3622TIP3   OH210871   5.794   3.560   3.205
 3622TIP3    H110872   5.850   3.582   3.131
 3622TIP3    H210873   5.848   3.502   3.259
 3623TIP3   OH210874   5.302   1.370   0.690
 3623TIP3    H110875   5.326   1.452   0.646
 3623TIP3    H210876   5.314   1.302   0.624
 3624TIP3   OH210877   3.322   4.714   3.702
 3624TIP3    H110878   3.301   4.625   3.730
 3624TIP3    H210879   3.380   4.702   3.626
 3625TIP3   OH210880   0.616   3.928   4.808
 3625TIP3    H110881   0.545   3.866   4.792
 3625TIP3    H210882   0.693   3.873   4.820
 3626TIP3   OH210883   6.282   0.310   3.699
 3626TIP3    H110884   6.350   0.354   3.648
 3626TIP3    H210885   6.221   0.380   3.722
 3627TIP3   OH210886   2.893   2.009   3.363
 3627TIP3    H110887   2.807   2.052   3.356
 3627TIP3    H210888   2.914   1.983   3.273
 3628TIP3   OH210889   2.574   2.493   2.384
 3628TIP3    H110890   2.544   2.577   2.420
 3628TIP3    H210891   2.622   2.517   2.305
 3629TIP3   OH210892   6.106   5.015   2.201
 3629TIP3    H110893   6.161   5.093   2.208
 3629TIP3    H210894   6.060   5.025   2.118
 3630TIP3   OH210895   4.032   0.846   0.529
 3630TIP3    H110896   4.095   0.776   0.547
 3630TIP3    H210897   3.947   0.804   0.534
 3631TIP3   OH210898   6.096   5.270   0.706
 3631TIP3    H110899   6.101   5.237   0.796
 3631TIP3    H210900   6.178   5.316   0.692
 3632TIP3   OH210901   6.001   0.671   1.667
 3632TIP3    H110902   5.980   0.589   1.711
 3632TIP3    H210903   6.094   0.666   1.648
 3633TIP3   OH210904   2.464   4.859   4.308
 3633TIP3    H110905   2.456   4.925   4.239
 3633TIP3    H210906   2.376   4.820   4.315
 3634TIP3   OH210907   4.223   2.814   1.669
 3634TIP3    H110908   4.248   2.729   1.632
 3634TIP3    H210909   4.264   2.816   1.755
 3635TIP3   OH210910   2.942   0.156   0.278
 3635TIP3    H110911   2.938   0.110   0.362
 3635TIP3    H210912   2.869   0.217   0.280
 3636TIP3   OH210913   1.635   5.057   1.519
 3636TIP3    H110914   1.603   5.005   1.593
 3636TIP3    H210915   1.629   5.148   1.548
 3637TIP3   OH210916   0.498   0.968   3.053
 3637TIP3    H110917   0.407   0.942   3.063
 3637TIP3    H210918   0.505   1.051   3.100
 3638TIP3   OH210919   2.419   0.887   4.224
 3638TIP3    H110920   2.494   0.945   4.240
 3638TIP3    H210921   2.397   0.902   4.132
 3639TIP3   OH210922   5.173   1.803   2.126
 3639TIP3    H110923   5.265   1.826   2.114
 3639TIP3    H210924   5.139   1.795   2.036
 3640TIP3   OH210925   3.396   0.111   5.016
 3640TIP3    H110926   3.411   0.088   5.108
 3640TIP3    H210927   3.412   0.205   5.012
 3641TIP3   OH210928   3.992   1.857   1.730
 3641TIP3    H110929   3.901   1.849   1.702
 3641TIP3    H210930   4.020   1.766   1.746
 3642TIP3   OH210931   3.903   3.725   4.908
 3642TIP3    H110932   3.837   3.656   4.913
 3642TIP3    H210933   3.987   3.678   4.903
 3643TIP3   OH210934   1.676   3.442   1.360
 3643TIP3    H110935   1.755   3.461   1.410
 3643TIP3    H210936   1.649   3.356   1.390
 3644TIP3   OH210937   4.784   5.110   2.153
 3644TIP3    H110938   4.777   5.087   2.246
 3644TIP3    H210939   4.746   5.035   2.107
 3645TIP3   OH210940   3.268   3.302   1.705
 3645TIP3    H110941   3.204   3.299   1.634
 3645TIP3    H210942   3.349   3.271   1.665
 3646TIP3   OH210943   4.383   2.826   2.701
 3646TIP3    H110944   4.472   2.845   2.671
 3646TIP3    H210945   4.351   2.911   2.733
 3647TIP3   OH210946   0.570   5.424   3.670
 3647TIP3    H110947   0.566   5.490   3.739
 3647TIP3    H210948   0.625   5.355   3.706
 3648TIP3   OH210949   2.174   5.743   3.907
 3648TIP3    H110950   2.225   5.742   3.988
 3648TIP3    H210951   2.240   5.733   3.838
 3649TIP3   OH210952   4.928   0.004   1.003
 3649TIP3    H110953   4.967   0.048   1.078
 3649TIP3    H210954   4.985   0.027   0.929
 3650TIP3   OH210955   3.746   1.066   0.645
 3650TIP3    H110956   3.819   1.126   0.631
 3650TIP3    H210957   3.787   0.979   0.650
 3651TIP3   OH210958   4.179   1.001   4.906
 3651TIP3    H110959   4.180   0.914   4.946
 3651TIP3    H210960   4.255   1.000   4.847
 3652TIP3   OH210961   0.162   4.771   4.815
 3652TIP3    H110962   0.134   4.695   4.763
 3652TIP3    H210963   0.237   4.738   4.865
 3653TIP3   OH210964   1.724   2.190   3.364
 3653TIP3    H110965   1.789   2.192   3.434
 3653TIP3    H210966   1.775   2.199   3.283
 3654TIP3   OH210967   0.861   2.512   4.283
 3654TIP3    H110968   0.801   2.456   4.234
 3654TIP3    H210969   0.806   2.584   4.315
 3655TIP3   OH210970   0.694   3.729   4.181
 3655TIP3    H110971   0.695   3.802   4.244
 3655TIP3    H210972   0.778   3.686   4.193
 3656TIP3   OH210973   0.271   3.824   3.178
 3656TIP3    H110974   0.222   3.877   3.114
 3656TIP3    H210975   0.355   3.807   3.134
 3657TIP3   OH210976   0.800   3.551   1.431
 3657TIP3    H110977   0.761   3.471   1.397
 3657TIP3    H210978   0.842   3.524   1.513
 3658TIP3   OH210979   5.459   0.355   0.857
 3658TIP3    H110980   5.376   0.308   0.854
 3658TIP3    H210981   5.519   0.302   0.806
 3659TIP3   OH210982   3.662   5.717   1.239
 3659TIP3    H110983   3.688   5.761   1.158
 3659TIP3    H210984   3.605   5.780   1.283
 3660TIP3   OH210985   2.092   0.415   0.582
 3660TIP3    H110986   2.004   0.384   0.562
 3660TIP3    H210987   2.079   0.499   0.627
 3661TIP3   OH210988   0.694   4.632   1.448
 3661TIP3    H110989   0.656   4.545   1.452
 3661TIP3    H210990   0.727   4.648   1.536
 3662TIP3   OH210991   1.990   1.791   0.454
 3662TIP3    H110992   1.957   1.799   0.543
 3662TIP3    H210993   2.083   1.770   0.465
 3663TIP3   OH210994   1.327   5.290   4.544
 3663TIP3    H110995   1.348   5.276   4.636
 3663TIP3    H210996   1.232   5.282   4.540
 3664TIP3   OH210997   3.958   0.155   0.565
 3664TIP3    H110998   3.873   0.200   0.572
 3664TIP3    H210999   3.996   0.187   0.483
 3665TIP3   OH211000   2.700   1.215   2.151
 3665TIP3    H111001   2.655   1.133   2.134
 3665TIP3    H211002   2.656   1.252   2.227
 3666TIP3   OH211003   0.172   3.683   4.641
 3666TIP3    H111004   0.111   3.609   4.637
 3666TIP3    H211005   0.143   3.742   4.571
 3667TIP3   OH211006   3.626   2.866   2.240
 3667TIP3    H111007   3.710   2.905   2.217
 3667TIP3    H211008   3.646   2.805   2.311
 3668TIP3   OH211009   3.019   1.892   3.139
 3668TIP3    H111010   3.076   1.960   3.104
 3668TIP3    H211011   2.963   1.868   3.066
 3669TIP3   OH211012   2.114   3.681   1.766
 3669TIP3    H111013   2.165   3.761   1.753
 3669TIP3    H211014   2.171   3.624   1.818
 3670TIP3   OH211015   1.146   0.869   5.005
 3670TIP3    H111016   1.192   0.836   5.082
 3670TIP3    H211017   1.173   0.961   4.998
 3671TIP3   OH211018   1.528   5.753   0.918
 3671TIP3    H111019   1.544   5.675   0.866
 3671TIP3    H211020   1.614   5.779   0.950
 3672TIP3   OH211021   5.166   3.420   2.534
 3672TIP3    H111022   5.212   3.425   2.617
 3672TIP3    H211023   5.182   3.331   2.502
 3673TIP3   OH211024   0.717   2.087   0.329
 3673TIP3    H111025   0.648   2.023   0.312
 3673TIP3    H211026   0.785   2.036   0.374
 3674TIP3   OH211027   5.341   0.977   4.384
 3674TIP3    H111028   5.373   0.922   4.456
 3674TIP3    H211029   5.413   0.979   4.322
 3675TIP3   OH211030   6.131   1.339   0.456
 3675TIP3    H111031   6.146   1.413   0.396
 3675TIP3    H211032   6.211   1.335   0.509
 3676TIP3   OH211033   0.164   5.934   1.969
 3676TIP3    H111034   0.159   5.985   1.888
 3676TIP3    H211035   0.160   6.000   2.039
 3677TIP3   OH211036   3.421   2.214   1.145
 3677TIP3    H111037   3.343   2.255   1.185
 3677TIP3    H211038   3.399   2.121   1.140
 3678TIP3   OH211039   1.620   4.617   4.033
 3678TIP3    H111040   1.607   4.576   4.118
 3678TIP3    H211041   1.565   4.566   3.973
 3679TIP3   OH211042   5.209   2.572   0.244
 3679TIP3    H111043   5.215   2.647   0.184
 3679TIP3    H211044   5.280   2.514   0.217
 3680TIP3   OH211045   1.298   5.986   0.120
 3680TIP3    H111046   1.322   5.895   0.102
 3680TIP3    H211047   1.244   5.981   0.198
 3681TIP3   OH211048   6.003   1.719   4.637
 3681TIP3    H111049   6.061   1.795   4.634
 3681TIP3    H211050   5.930   1.748   4.692
 3682TIP3   OH211051   1.639   1.897   4.009
 3682TIP3    H111052   1.723   1.869   4.047
 3682TIP3    H211053   1.664   1.961   3.942
 3683TIP3   OH211054   1.037   3.104   4.407
 3683TIP3    H111055   1.005   3.068   4.324
 3683TIP3    H211056   0.961   3.101   4.465
 3684TIP3   OH211057   1.281   0.880   2.453
 3684TIP3    H111058   1.312   0.960   2.411
 3684TIP3    H211059   1.361   0.836   2.483
 3685TIP3   OH211060   5.833   5.250   2.159
 3685TIP3    H111061   5.896   5.231   2.089
 3685TIP3    H211062   5.885   5.293   2.227
 3686TIP3   OH211063   4.525   2.606   4.881
 3686TIP3    H111064   4.576   2.673   4.835
 3686TIP3    H211065   4.452   2.587   4.822
 3687TIP3   OH211066   5.794   1.608   0.173
 3687TIP3    H111067   5.882   1.643   0.188
 3687TIP3    H211068   5.739   1.686   0.167
 3688TIP3   OH211069   4.438   4.826   4.965
 3688TIP3    H111070   4.519   4.798   5.009
 3688TIP3    H211071   4.373   4.830   5.035
 3689TIP3   OH211072   4.318   4.889   4.528
 3689TIP3    H111073   4.300   4.973   4.485
 3689TIP3    H211074   4.231   4.851   4.542
 3690TIP3   OH211075   3.201   1.523   1.962
 3690TIP3    H111076   3.172   1.549   1.875
 3690TIP3    H211077   3.278   1.577   1.979
 3691TIP3   OH211078   2.888   3.751  -0.006
 3691TIP3    H111079   2.912   3.810   0.065
 3691TIP3    H211080   2.943   3.673   0.009
 3692TIP3   OH211081   5.484   1.879   0.909
 3692TIP3    H111082   5.424   1.897   0.981
 3692TIP3    H211083   5.555   1.942   0.920
 3693TIP3   OH211084   5.596   1.538   4.823
 3693TIP3    H111085   5.518   1.589   4.844
 3693TIP3    H211086   5.657   1.555   4.895
 3694TIP3   OH211087   4.341   0.633   0.926
 3694TIP3    H111088   4.319   0.611   0.836
 3694TIP3    H211089   4.336   0.729   0.929
 3695TIP3   OH211090   2.170   0.996   2.429
 3695TIP3    H111091   2.112   0.934   2.384
 3695TIP3    H211092   2.130   1.008   2.515
 3696TIP3   OH211093   5.575   3.247   2.916
 3696TIP3    H111094   5.650   3.207   2.873
 3696TIP3    H211095   5.607   3.271   3.003
 3697TIP3   OH211096   3.480   4.774   4.298
 3697TIP3    H111097   3.462   4.857   4.342
 3697TIP3    H211098   3.530   4.724   4.362
 3698TIP3   OH211099   1.424   3.815   0.455
 3698TIP3    H111100   1.362   3.750   0.488
 3698TIP3    H211101   1.498   3.810   0.515
 3699TIP3   OH211102   3.574   2.027   3.166
 3699TIP3    H111103   3.649   2.081   3.193
 3699TIP3    H211104   3.502   2.089   3.158
 3700TIP3   OH211105   3.391   1.199   3.196
 3700TIP3    H111106   3.447   1.244   3.132
 3700TIP3    H211107   3.343   1.269   3.240
 3701TIP3   OH211108   1.080   4.906   2.688
 3701TIP3    H111109   1.156   4.927   2.743
 3701TIP3    H211110   1.113   4.843   2.624
 3702TIP3   OH211111   0.135   0.461   0.586
 3702TIP3    H111112   0.121   0.555   0.573
 3702TIP3    H211113   0.126   0.448   0.680
 3703TIP3   OH211114   5.057   1.753   0.794
 3703TIP3    H111115   4.992   1.695   0.754
 3703TIP3    H211116   5.010   1.795   0.866
 3704TIP3   OH211117   2.959   4.504   4.109
 3704TIP3    H111118   2.985   4.437   4.046
 3704TIP3    H211119   3.001   4.584   4.078
 3705TIP3   OH211120   6.050   2.208   2.961
 3705TIP3    H111121   5.971   2.262   2.965
 3705TIP3    H211122   6.027   2.136   2.903
 3706TIP3   OH211123   3.137   3.248   0.183
 3706TIP3    H111124   3.161   3.228   0.274
 3706TIP3    H211125   3.090   3.332   0.188
 3707TIP3   OH211126   3.858   1.609   1.544
 3707TIP3    H111127   3.930   1.549   1.565
 3707TIP3    H211128   3.847   1.601   1.449
 3708TIP3   OH211129   1.287   0.263   4.222
 3708TIP3    H111130   1.282   0.200   4.150
 3708TIP3    H211131   1.203   0.309   4.220
 3709TIP3   OH211132   4.469   0.283   1.814
 3709TIP3    H111133   4.533   0.264   1.883
 3709TIP3    H211134   4.521   0.322   1.743
 3710TIP3   OH211135   3.774   0.128   1.260
 3710TIP3    H111136   3.764   0.063   1.330
 3710TIP3    H211137   3.700   0.112   1.201
 3711TIP3   OH211138   5.472   4.807   2.146
 3711TIP3    H111139   5.495   4.813   2.239
 3711TIP3    H211140   5.379   4.786   2.145
 3712TIP3   OH211141   2.472   4.401   1.972
 3712TIP3    H111142   2.464   4.455   1.893
 3712TIP3    H211143   2.539   4.445   2.024
 3713TIP3   OH211144   2.899   5.265   3.479
 3713TIP3    H111145   2.874   5.173   3.490
 3713TIP3    H211146   2.958   5.265   3.403
 3714TIP3   OH211147   5.063   2.596   4.460
 3714TIP3    H111148   5.064   2.530   4.392
 3714TIP3    H211149   5.119   2.561   4.529
 3715TIP3   OH211150   2.427   1.309   1.181
 3715TIP3    H111151   2.352   1.339   1.232
 3715TIP3    H211152   2.397   1.231   1.136
 3716TIP3   OH211153   2.688   0.272   1.373
 3716TIP3    H111154   2.641   0.339   1.325
 3716TIP3    H211155   2.665   0.286   1.465
 3717TIP3   OH211156   3.379   1.883   0.132
 3717TIP3    H111157   3.422   1.870   0.047
 3717TIP3    H211158   3.287   1.864   0.115
 3718TIP3   OH211159   3.803   1.188   4.510
 3718TIP3    H111160   3.873   1.212   4.448
 3718TIP3    H211161   3.849   1.148   4.584
 3719TIP3   OH211162   2.182   1.355   0.327
 3719TIP3    H111163   2.272   1.385   0.322
 3719TIP3    H211164   2.167   1.340   0.420
 3720TIP3   OH211165   6.172   0.391   2.930
 3720TIP3    H111166   6.140   0.467   2.979
 3720TIP3    H211167   6.143   0.316   2.981
 3721TIP3   OH211168   1.677   3.197   3.236
 3721TIP3    H111169   1.677   3.281   3.189
 3721TIP3    H211170   1.600   3.200   3.292
 3722TIP3   OH211171   0.294   4.227   1.308
 3722TIP3    H111172   0.209   4.194   1.279
 3722TIP3    H211173   0.302   4.313   1.266
 3723TIP3   OH211174   5.476   3.309   4.964
 3723TIP3    H111175   5.435   3.340   5.045
 3723TIP3    H211176   5.411   3.328   4.896
 3724TIP3   OH211177   3.247   0.506   0.578
 3724TIP3    H111178   3.230   0.589   0.622
 3724TIP3    H211179   3.191   0.442   0.623
 3725TIP3   OH211180   0.564   1.607   0.484
 3725TIP3    H111181   0.530   1.688   0.445
 3725TIP3    H211182   0.651   1.597   0.446
 3726TIP3   OH211183   1.469   4.047   4.079
 3726TIP3    H111184   1.422   3.984   4.023
 3726TIP3    H211185   1.444   4.022   4.168
 3727TIP3   OH211186   2.493   1.989   2.098
 3727TIP3    H111187   2.399   1.971   2.088
 3727TIP3    H211188   2.530   1.973   2.011
 3728TIP3   OH211189   1.309   4.607   2.317
 3728TIP3    H111190   1.402   4.586   2.312
 3728TIP3    H211191   1.289   4.651   2.234
 3729TIP3   OH211192   3.414   5.568   4.835
 3729TIP3    H111193   3.463   5.649   4.848
 3729TIP3    H211194   3.324   5.596   4.821
 3730TIP3   OH211195   0.730   4.250   2.430
 3730TIP3    H111196   0.807   4.256   2.486
 3730TIP3    H211197   0.723   4.157   2.407
 3731TIP3   OH211198   0.430   2.064   4.637
 3731TIP3    H111199   0.382   1.988   4.667
 3731TIP3    H211200   0.505   2.028   4.589
 3732TIP3   OH211201   1.092   0.133   4.460
 3732TIP3    H111202   1.168   0.087   4.426
 3732TIP3    H211203   1.026   0.126   4.391
 3733TIP3   OH211204   3.096   1.711   2.131
 3733TIP3    H111205   3.162   1.692   2.198
 3733TIP3    H211206   3.092   1.631   2.078
 3734TIP3   OH211207   6.288   2.979   4.956
 3734TIP3    H111208   6.334   2.976   4.872
 3734TIP3    H211209   6.204   2.937   4.939
 3735TIP3   OH211210   0.368   4.407   3.710
 3735TIP3    H111211   0.312   4.439   3.639
 3735TIP3    H211212   0.443   4.467   3.710
 3736TIP3   OH211213   4.261   3.570   3.794
 3736TIP3    H111214   4.177   3.586   3.838
 3736TIP3    H211215   4.316   3.530   3.862
 3737TIP3   OH211216   3.518   4.679   1.728
 3737TIP3    H111217   3.500   4.773   1.723
 3737TIP3    H211218   3.602   4.668   1.684
 3738TIP3   OH211219   6.119   0.742   0.266
 3738TIP3    H111220   6.198   0.796   0.259
 3738TIP3    H211221   6.131   0.691   0.346
 3739TIP3   OH211222   1.455   1.387   4.666
 3739TIP3    H111223   1.396   1.400   4.592
 3739TIP3    H211224   1.540   1.370   4.627
 3740TIP3   OH211225   5.082   2.241   4.076
 3740TIP3    H111226   5.113   2.319   4.029
 3740TIP3    H211227   5.119   2.168   4.027
 3741TIP3   OH211228   4.538   3.879   4.501
 3741TIP3    H111229   4.544   3.785   4.521
 3741TIP3    H211230   4.531   3.883   4.406
 3742TIP3   OH211231   2.512   3.174   3.891
 3742TIP3    H111232   2.587   3.140   3.842
 3742TIP3    H211233   2.469   3.097   3.927
 3743TIP3   OH211234   0.427   0.497   0.827
 3743TIP3    H111235   0.464   0.553   0.759
 3743TIP3    H211236   0.463   0.532   0.909
 3744TIP3   OH211237   2.864   4.756   4.283
 3744TIP3    H111238   2.790   4.737   4.225
 3744TIP3    H211239   2.942   4.737   4.230
 3745TIP3   OH211240   6.345   4.233   4.720
 3745TIP3    H111241   6.354   4.139   4.734
 3745TIP3    H211242   6.435   4.267   4.727
 3746TIP3   OH211243   4.434   1.481   1.865
 3746TIP3    H111244   4.340   1.464   1.878
 3746TIP3    H211245   4.448   1.567   1.906
 3747TIP3   OH211246   1.339   2.110   0.346
 3747TIP3    H111247   1.275   2.144   0.409
 3747TIP3    H211248   1.333   2.169   0.271
 3748TIP3   OH211249   1.754   1.220   3.242
 3748TIP3    H111250   1.836   1.178   3.268
 3748TIP3    H211251   1.768   1.246   3.151
 3749TIP3   OH211252   5.617   1.326   4.493
 3749TIP3    H111253   5.553   1.360   4.555
 3749TIP3    H211254   5.699   1.368   4.518
 3750TIP3   OH211255   3.840   0.890   1.979
 3750TIP3    H111256   3.932   0.882   2.006
 3750TIP3    H211257   3.812   0.974   2.014
 3751TIP3   OH211258   2.506   4.162   3.279
 3751TIP3    H111259   2.511   4.239   3.222
 3751TIP3    H211260   2.578   4.173   3.341
 3752TIP3   OH211261   2.712   0.631   3.067
 3752TIP3    H111262   2.635   0.584   3.033
 3752TIP3    H211263   2.701   0.720   3.034
 3753TIP3   OH211264   0.597   1.703   1.352
 3753TIP3    H111265   0.614   1.755   1.431
 3753TIP3    H211266   0.529   1.752   1.306
 3754TIP3   OH211267   4.975   2.081   3.197
 3754TIP3    H111268   4.987   1.986   3.193
 3754TIP3    H211269   5.050   2.113   3.248
 3755TIP3   OH211270   5.813   4.856   0.811
 3755TIP3    H111271   5.729   4.812   0.797
 3755TIP3    H211272   5.790   4.946   0.831
 3756TIP3   OH211273   1.141   0.457   0.299
 3756TIP3    H111274   1.229   0.447   0.337
 3756TIP3    H211275   1.146   0.540   0.251
 3757TIP3   OH211276   0.680   5.269   3.908
 3757TIP3    H111277   0.738   5.204   3.949
 3757TIP3    H211278   0.694   5.349   3.959
 3758TIP3   OH211279   2.676   1.298   0.026
 3758TIP3    H111280   2.718   1.377  -0.008
 3758TIP3    H211281   2.743   1.256   0.080
 3759TIP3   OH211282   6.245   3.288   3.342
 3759TIP3    H111283   6.284   3.287   3.254
 3759TIP3    H211284   6.212   3.378   3.352
 3760TIP3   OH211285   2.885   1.679   1.077
 3760TIP3    H111286   2.940   1.699   1.153
 3760TIP3    H211287   2.810   1.631   1.114
 3761TIP3   OH211288   4.654   1.892   1.707
 3761TIP3    H111289   4.721   1.889   1.639
 3761TIP3    H211290   4.616   1.980   1.699
 3762TIP3   OH211291   1.513   0.160   1.775
 3762TIP3    H111292   1.421   0.168   1.798
 3762TIP3    H211293   1.546   0.250   1.780
 3763TIP3   OH211294   0.955   3.566   3.583
 3763TIP3    H111295   0.926   3.508   3.513
 3763TIP3    H211296   1.010   3.511   3.638
 3764TIP3   OH211297   3.111   2.529   2.698
 3764TIP3    H111298   3.104   2.477   2.778
 3764TIP3    H211299   3.163   2.605   2.723
 3765TIP3   OH211300   2.068   2.159   4.457
 3765TIP3    H111301   2.155   2.197   4.470
 3765TIP3    H211302   2.084   2.075   4.414
 3766TIP3   OH211303   3.059   3.063   0.676
 3766TIP3    H111304   3.029   2.991   0.732
 3766TIP3    H211305   3.154   3.051   0.670
 3767TIP3   OH211306   5.984   5.360   5.126
 3767TIP3    H111307   6.051   5.425   5.107
 3767TIP3    H211308   5.947   5.338   5.041
 3768TIP3   OH211309   2.360   0.156   0.205
 3768TIP3    H111310   2.364   0.228   0.143
 3768TIP3    H211311   2.306   0.190   0.277
 3769TIP3   OH211312   2.180   1.381   1.251
 3769TIP3    H111313   2.095   1.426   1.253
 3769TIP3    H211314   2.181   1.336   1.166
 3770TIP3   OH211315   0.439   1.871   3.145
 3770TIP3    H111316   0.416   1.798   3.087
 3770TIP3    H211317   0.452   1.829   3.230
 3771TIP3   OH211318   5.909   5.324   1.696
 3771TIP3    H111319   5.825   5.323   1.741
 3771TIP3    H211320   5.907   5.247   1.639
 3772TIP3   OH211321   6.068   3.906   0.637
 3772TIP3    H111322   6.130   3.871   0.701
 3772TIP3    H211323   6.121   3.963   0.581
 3773TIP3   OH211324   0.876   2.692   1.098
 3773TIP3    H111325   0.955   2.650   1.066
 3773TIP3    H211326   0.808   2.666   1.036
 3774TIP3   OH211327   2.649   4.399   2.199
 3774TIP3    H111328   2.721   4.407   2.262
 3774TIP3    H211329   2.597   4.478   2.212
 3775TIP3   OH211330   5.728   3.740   0.282
 3775TIP3    H111331   5.820   3.755   0.306
 3775TIP3    H211332   5.716   3.646   0.293
 3776TIP3   OH211333   2.275   4.341   2.324
 3776TIP3    H111334   2.346   4.398   2.296
 3776TIP3    H211335   2.309   4.295   2.400
 3777TIP3   OH211336   4.172   2.702   4.823
 3777TIP3    H111337   4.216   2.652   4.755
 3777TIP3    H211338   4.087   2.659   4.834
 3778TIP3   OH211339   2.806   4.143   2.252
 3778TIP3    H111340   2.747   4.093   2.308
 3778TIP3    H211341   2.792   4.107   2.165
 3779TIP3   OH211342   2.120   2.617   2.334
 3779TIP3    H111343   2.186   2.548   2.331
 3779TIP3    H211344   2.150   2.676   2.403
 3780TIP3   OH211345   5.394   5.871   2.695
 3780TIP3    H111346   5.411   5.965   2.703
 3780TIP3    H211347   5.480   5.831   2.694
 3781TIP3   OH211348   6.001   4.433   1.632
 3781TIP3    H111349   6.007   4.466   1.543
 3781TIP3    H211350   5.979   4.341   1.622
 3782TIP3   OH211351   5.132   2.082   0.993
 3782TIP3    H111352   5.106   2.153   1.051
 3782TIP3    H211353   5.109   2.114   0.905
 3783TIP3   OH211354   0.533   0.592   1.049
 3783TIP3    H111355   0.468   0.602   1.118
 3783TIP3    H211356   0.610   0.639   1.081
 3784TIP3   OH211357   3.479   2.785   4.341
 3784TIP3    H111358   3.392   2.763   4.373
 3784TIP3    H211359   3.498   2.871   4.380
 3785TIP3   OH211360   5.535   2.137   1.807
 3785TIP3    H111361   5.569   2.146   1.896
 3785TIP3    H211362   5.479   2.214   1.795
 3786TIP3   OH211363   4.864   2.151   1.507
 3786TIP3    H111364   4.907   2.073   1.474
 3786TIP3    H211365   4.935   2.212   1.525
 3787TIP3   OH211366   3.737   4.376   1.168
 3787TIP3    H111367   3.780   4.422   1.097
 3787TIP3    H211368   3.806   4.322   1.207
 3788TIP3   OH211369   4.446   4.271   2.884
 3788TIP3    H111370   4.369   4.287   2.831
 3788TIP3    H211371   4.462   4.177   2.876
 3789TIP3   OH211372   6.295   2.231   1.820
 3789TIP3    H111373   6.250   2.315   1.807
 3789TIP3    H211374   6.255   2.195   1.899
 3790TIP3   OH211375   0.152   3.713   2.495
 3790TIP3    H111376   0.184   3.789   2.447
 3790TIP3    H211377   0.059   3.707   2.472
 3791TIP3   OH211378   0.489   4.738   4.604
 3791TIP3    H111379   0.455   4.649   4.592
 3791TIP3    H211380   0.524   4.739   4.693
 3792TIP3   OH211381   5.418   4.379   4.662
 3792TIP3    H111382   5.381   4.464   4.639
 3792TIP3    H211383   5.502   4.377   4.615
 3793TIP3   OH211384   3.854   2.157   0.104
 3793TIP3    H111385   3.875   2.221   0.035
 3793TIP3    H211386   3.838   2.075   0.057
 3794TIP3   OH211387   4.847   2.301   4.598
 3794TIP3    H111388   4.935   2.266   4.584
 3794TIP3    H211389   4.808   2.304   4.511
 3795TIP3   OH211390   0.310   3.346   4.638
 3795TIP3    H111391   0.236   3.383   4.590
 3795TIP3    H211392   0.364   3.305   4.571
 3796TIP3   OH211393   5.724   1.624   3.490
 3796TIP3    H111394   5.662   1.553   3.508
 3796TIP3    H211395   5.670   1.702   3.478
 3797TIP3   OH211396   1.443   5.788   5.153
 3797TIP3    H111397   1.372   5.730   5.180
 3797TIP3    H211398   1.431   5.799   5.059
 3798TIP3   OH211399   0.283   0.841   0.386
 3798TIP3    H111400   0.342   0.849   0.311
 3798TIP3    H211401   0.318   0.902   0.451
 3799TIP3   OH211402   3.461   1.096   5.089
 3799TIP3    H111403   3.410   1.061   5.162
 3799TIP3    H211404   3.421   1.181   5.070
 3800TIP3   OH211405   5.714   0.747   0.125
 3800TIP3    H111406   5.768   0.805   0.179
 3800TIP3    H211407   5.624   0.774   0.145
 3801TIP3   OH211408   4.028   3.288   0.772
 3801TIP3    H111409   4.044   3.204   0.727
 3801TIP3    H211410   4.061   3.273   0.861
 3802TIP3   OH211411   4.507   5.369   4.673
 3802TIP3    H111412   4.529   5.442   4.730
 3802TIP3    H211413   4.411   5.364   4.675
 3803TIP3   OH211414   2.562   5.171   2.425
 3803TIP3    H111415   2.572   5.259   2.389
 3803TIP3    H211416   2.557   5.114   2.348
 3804TIP3   OH211417   2.603   5.197   1.653
 3804TIP3    H111418   2.533   5.228   1.596
 3804TIP3    H211419   2.559   5.178   1.736
 3805TIP3   OH211420   3.923   5.409   1.974
 3805TIP3    H111421   3.910   5.370   2.060
 3805TIP3    H211422   3.910   5.503   1.987
 3806TIP3   OH211423   2.312   1.395   0.054
 3806TIP3    H111424   2.371   1.422   0.124
 3806TIP3    H211425   2.227   1.431   0.080
 3807TIP3   OH211426   0.586   5.881   2.032
 3807TIP3    H111427   0.608   5.813   1.968
 3807TIP3    H211428   0.580   5.834   2.116
 3808TIP3   OH211429   2.730   1.660   3.439
 3808TIP3    H111430   2.764   1.571   3.440
 3808TIP3    H211431   2.805   1.714   3.464
 3809TIP3   OH211432   4.675   1.835   3.151
 3809TIP3    H111433   4.769   1.844   3.165
 3809TIP3    H211434   4.662   1.850   3.058
 3810TIP3   OH211435   4.527   2.085   3.554
 3810TIP3    H111436   4.464   2.065   3.484
 3810TIP3    H211437   4.605   2.117   3.507
 3811TIP3   OH211438   2.006   5.036   2.262
 3811TIP3    H111439   1.982   5.090   2.337
 3811TIP3    H211440   2.009   4.947   2.296
 3812TIP3   OH211441   0.372   4.652   4.970
 3812TIP3    H111442   0.449   4.648   4.913
 3812TIP3    H211443   0.343   4.561   4.979
 3813TIP3   OH211444   4.282   3.135   2.448
 3813TIP3    H111445   4.319   3.094   2.370
 3813TIP3    H211446   4.337   3.103   2.520
 3814TIP3   OH211447   2.233   3.022   0.211
 3814TIP3    H111448   2.170   2.982   0.271
 3814TIP3    H211449   2.276   3.090   0.262
 3815TIP3   OH211450   4.306   4.807   2.118
 3815TIP3    H111451   4.384   4.832   2.168
 3815TIP3    H211452   4.326   4.720   2.085
 3816TIP3   OH211453   4.978   3.978   1.103
 3816TIP3    H111454   5.028   4.027   1.168
 3816TIP3    H211455   4.921   3.920   1.155
 3817TIP3   OH211456   5.054   5.166   2.149
 3817TIP3    H111457   4.958   5.157   2.146
 3817TIP3    H211458   5.084   5.124   2.069
 3818TIP3   OH211459   4.240   2.288   3.510
 3818TIP3    H111460   4.151   2.301   3.544
 3818TIP3    H211461   4.296   2.330   3.575
 3819TIP3   OH211462   4.207   4.652   2.470
 3819TIP3    H111463   4.163   4.680   2.389
 3819TIP3    H211464   4.287   4.610   2.440
 3820TIP3   OH211465   4.263   3.228   0.316
 3820TIP3    H111466   4.170   3.208   0.321
 3820TIP3    H211467   4.301   3.154   0.269
 3821TIP3   OH211468   5.319   2.140   5.039
 3821TIP3    H111469   5.365   2.064   5.004
 3821TIP3    H211470   5.253   2.161   4.973
 3822TIP3   OH211471   2.268   4.607  -0.027
 3822TIP3    H111472   2.193   4.667  -0.031
 3822TIP3    H211473   2.316   4.632   0.051
 3823TIP3   OH211474   5.955   4.631   4.559
 3823TIP3    H111475   5.873   4.672   4.530
 3823TIP3    H211476   5.959   4.649   4.653
 3824TIP3   OH211477   5.908   4.619   2.839
 3824TIP3    H111478   5.961   4.692   2.806
 3824TIP3    H211479   5.908   4.631   2.934
 3825TIP3   OH211480   4.740   1.592   3.280
 3825TIP3    H111481   4.677   1.659   3.255
 3825TIP3    H211482   4.726   1.580   3.374
 3826TIP3   OH211483   3.732   0.091   2.440
 3826TIP3    H111484   3.805   0.040   2.474
 3826TIP3    H211485   3.697   0.138   2.516
 3827TIP3   OH211486   1.880   5.147   2.777
 3827TIP3    H111487   1.825   5.070   2.789
 3827TIP3    H211488   1.852   5.208   2.846
 3828TIP3   OH211489   2.946   0.477   4.609
 3828TIP3    H111490   2.966   0.567   4.584
 3828TIP3    H211491   2.943   0.430   4.526
 3829TIP3   OH211492   3.432   1.673   1.937
 3829TIP3    H111493   3.523   1.687   1.963
 3829TIP3    H211494   3.436   1.659   1.842
 3830TIP3   OH211495   0.225   0.984   3.086
 3830TIP3    H111496   0.185   1.012   3.003
 3830TIP3    H211497   0.169   1.021   3.154
 3831TIP3   OH211498   5.633   4.377   4.481
 3831TIP3    H111499   5.609   4.358   4.390
 3831TIP3    H211500   5.720   4.416   4.475
 3832TIP3   OH211501   4.643   5.435   1.199
 3832TIP3    H111502   4.618   5.470   1.114
 3832TIP3    H211503   4.640   5.340   1.188
 3833TIP3   OH211504   0.720   3.517   2.389
 3833TIP3    H111505   0.805   3.533   2.348
 3833TIP3    H211506   0.718   3.422   2.403
 3834TIP3   OH211507   2.462   3.711   1.976
 3834TIP3    H111508   2.537   3.732   2.032
 3834TIP3    H211509   2.402   3.785   1.987
 3835TIP3   OH211510   0.245   0.142   0.694
 3835TIP3    H111511   0.266   0.182   0.609
 3835TIP3    H211512   0.219   0.216   0.749
 3836TIP3   OH211513   5.790   1.789   1.484
 3836TIP3    H111514   5.829   1.746   1.408
 3836TIP3    H211515   5.702   1.750   1.491
 3837TIP3   OH211516   3.449   5.413   5.070
 3837TIP3    H111517   3.407   5.446   4.990
 3837TIP3    H211518   3.503   5.486   5.100
 3838TIP3   OH211519   5.944   4.825   3.078
 3838TIP3    H111520   6.025   4.827   3.129
 3838TIP3    H211521   5.875   4.840   3.142
 3839TIP3   OH211522   0.077   3.484   3.927
 3839TIP3    H111523  -0.003   3.516   3.967
 3839TIP3    H211524   0.061   3.487   3.833
 3840TIP3   OH211525   6.109   5.896   2.966
 3840TIP3    H111526   6.030   5.947   2.944
 3840TIP3    H211527   6.079   5.805   2.966
 3841TIP3   OH211528   3.314   2.497   4.287
 3841TIP3    H111529   3.336   2.488   4.380
 3841TIP3    H211530   3.227   2.537   4.288
 3842TIP3   OH211531   4.331   2.533   4.632
 3842TIP3    H111532   4.373   2.501   4.552
 3842TIP3    H211533   4.361   2.474   4.701
 3843TIP3   OH211534   5.269   0.694   4.288
 3843TIP3    H111535   5.302   0.777   4.322
 3843TIP3    H211536   5.206   0.664   4.354
 3844TIP3   OH211537   0.481   0.556   3.170
 3844TIP3    H111538   0.507   0.466   3.147
 3844TIP3    H211539   0.548   0.585   3.232
 3845TIP3   OH211540   0.205   0.138   1.180
 3845TIP3    H111541   0.110   0.146   1.189
 3845TIP3    H211542   0.218   0.056   1.132
 3846TIP3   OH211543   3.662   3.083   3.068
 3846TIP3    H111544   3.658   3.178   3.058
 3846TIP3    H211545   3.688   3.051   2.981
 3847TIP3   OH211546   4.245   4.634   1.613
 3847TIP3    H111547   4.165   4.683   1.635
 3847TIP3    H211548   4.267   4.663   1.525
 3848TIP3   OH211549   1.426   3.990   4.327
 3848TIP3    H111550   1.372   4.003   4.406
 3848TIP3    H211551   1.501   3.940   4.358
 3849TIP3   OH211552   2.249   3.708   2.254
 3849TIP3    H111553   2.219   3.691   2.344
 3849TIP3    H211554   2.318   3.773   2.264
 3850TIP3   OH211555   3.347   0.799   3.031
 3850TIP3    H111556   3.301   0.831   3.109
 3850TIP3    H211557   3.352   0.704   3.044
 3851TIP3   OH211558   5.186   4.006   0.313
 3851TIP3    H111559   5.109   4.058   0.290
 3851TIP3    H211560   5.217   3.970   0.230
 3852TIP3   OH211561   5.535   0.113   4.443
 3852TIP3    H111562   5.585   0.186   4.482
 3852TIP3    H211563   5.487   0.076   4.517
 3853TIP3   OH211564   5.301   3.898   0.073
 3853TIP3    H111565   5.256   3.874  -0.008
 3853TIP3    H211566   5.390   3.864   0.062
 3854TIP3   OH211567   3.339   5.959   4.654
 3854TIP3    H111568   3.291   5.877   4.651
 3854TIP3    H211569   3.366   5.969   4.745
 3855TIP3   OH211570   1.550   4.492   4.279
 3855TIP3    H111571   1.476   4.467   4.336
 3855TIP3    H211572   1.549   4.426   4.210
 3856TIP3   OH211573   3.314   0.909   3.536
 3856TIP3    H111574   3.311   1.001   3.562
 3856TIP3    H211575   3.311   0.912   3.440
 3857TIP3   OH211576   0.602   2.429   3.321
 3857TIP3    H111577   0.515   2.424   3.362
 3857TIP3    H211578   0.586   2.415   3.228
 3858TIP3   OH211579   0.671   4.387   0.565
 3858TIP3    H111580   0.600   4.435   0.523
 3858TIP3    H211581   0.662   4.298   0.532
 3859TIP3   OH211582   0.243   5.155   1.640
 3859TIP3    H111583   0.337   5.172   1.645
 3859TIP3    H211584   0.225   5.146   1.546
 3860TIP3   OH211585   5.482   5.581   4.105
 3860TIP3    H111586   5.408   5.540   4.148
 3860TIP3    H211587   5.487   5.668   4.145
 3861TIP3   OH211588   0.792   0.763   1.735
 3861TIP3    H111589   0.840   0.843   1.756
 3861TIP3    H211590   0.764   0.729   1.820
 3862TIP3   OH211591   6.069   0.893   2.182
 3862TIP3    H111592   6.085   0.874   2.274
 3862TIP3    H211593   5.987   0.942   2.181
 3863TIP3   OH211594   2.826   3.109   1.994
 3863TIP3    H111595   2.830   3.091   2.088
 3863TIP3    H211596   2.742   3.072   1.966
 3864TIP3   OH211597   0.066   0.077   1.900
 3864TIP3    H111598   0.094   0.164   1.927
 3864TIP3    H211599   0.087   0.073   1.807
 3865TIP3   OH211600   4.501   5.968   2.694
 3865TIP3    H111601   4.581   5.979   2.745
 3865TIP3    H211602   4.431   5.997   2.753
 3866TIP3   OH211603   2.365   1.486   2.745
 3866TIP3    H111604   2.364   1.574   2.708
 3866TIP3    H211605   2.344   1.500   2.838
 3867TIP3   OH211606   0.620   3.939   0.787
 3867TIP3    H111607   0.682   3.874   0.820
 3867TIP3    H211608   0.657   3.969   0.704
 3868TIP3   OH211609   3.317   3.778   2.160
 3868TIP3    H111610   3.277   3.725   2.229
 3868TIP3    H211611   3.330   3.864   2.200
 3869TIP3   OH211612   3.582   1.941   2.259
 3869TIP3    H111613   3.543   1.916   2.343
 3869TIP3    H211614   3.508   1.973   2.208
 3870TIP3   OH211615   4.920   0.723   2.618
 3870TIP3    H111616   4.889   0.732   2.527
 3870TIP3    H211617   4.839   0.719   2.670
 3871TIP3   OH211618   2.053   5.070   4.290
 3871TIP3    H111619   2.108   5.127   4.344
 3871TIP3    H211620   2.043   4.990   4.341
 3872TIP3   OH211621   4.328   2.137   1.543
 3872TIP3    H111622   4.300   2.148   1.452
 3872TIP3    H211623   4.420   2.163   1.543
 3873TIP3   OH211624   5.017   2.025   2.333
 3873TIP3    H111625   4.966   1.975   2.269
 3873TIP3    H211626   5.096   2.050   2.285
 3874TIP3   OH211627   1.052   3.944   1.086
 3874TIP3    H111628   0.963   3.971   1.063
 3874TIP3    H211629   1.040   3.881   1.157
 3875TIP3   OH211630   1.888   1.003   3.957
 3875TIP3    H111631   1.859   1.089   3.986
 3875TIP3    H211632   1.861   0.944   4.028
 3876TIP3   OH211633   5.783   3.534   3.991
 3876TIP3    H111634   5.772   3.564   4.081
 3876TIP3    H211635   5.847   3.463   3.998
 3877TIP3   OH211636   5.243   0.268   3.594
 3877TIP3    H111637   5.242   0.362   3.613
 3877TIP3    H211638   5.324   0.236   3.633
 3878TIP3   OH211639   0.600   5.825   3.421
 3878TIP3    H111640   0.518   5.793   3.383
 3878TIP3    H211641   0.632   5.751   3.474
 3879TIP3   OH211642   4.428   1.665   2.076
 3879TIP3    H111643   4.465   1.749   2.104
 3879TIP3    H211644   4.461   1.601   2.139
 3880TIP3   OH211645   3.423   1.586   1.688
 3880TIP3    H111646   3.369   1.523   1.641
 3880TIP3    H211647   3.513   1.554   1.675
 3881TIP3   OH211648   4.715   0.425   3.648
 3881TIP3    H111649   4.739   0.444   3.738
 3881TIP3    H211650   4.658   0.349   3.653
 3882TIP3   OH211651   5.125   3.811   1.452
 3882TIP3    H111652   5.060   3.757   1.408
 3882TIP3    H211653   5.073   3.876   1.501
 3883TIP3   OH211654   3.876   2.562   1.848
 3883TIP3    H111655   3.857   2.474   1.818
 3883TIP3    H211656   3.970   2.562   1.867
 3884TIP3   OH211657   5.959   4.346   4.297
 3884TIP3    H111658   5.955   4.345   4.392
 3884TIP3    H211659   6.051   4.328   4.277
 3885TIP3   OH211660   5.932   0.942   3.233
 3885TIP3    H111661   5.999   0.962   3.168
 3885TIP3    H211662   5.923   0.847   3.230
 3886TIP3   OH211663   0.750   3.237   2.219
 3886TIP3    H111664   0.716   3.190   2.295
 3886TIP3    H211665   0.842   3.251   2.239
 3887TIP3   OH211666   3.484   2.149   4.618
 3887TIP3    H111667   3.434   2.069   4.635
 3887TIP3    H211668   3.417   2.217   4.611
 3888TIP3   OH211669   1.300   5.758   1.445
 3888TIP3    H111670   1.343   5.729   1.364
 3888TIP3    H211671   1.300   5.854   1.438
 3889TIP3   OH211672   1.486   4.419   1.923
 3889TIP3    H111673   1.545   4.380   1.858
 3889TIP3    H211674   1.489   4.358   1.997
 3890TIP3   OH211675   1.209   0.271   1.168
 3890TIP3    H111676   1.136   0.231   1.215
 3890TIP3    H211677   1.190   0.364   1.168
 3891TIP3   OH211678   2.101   5.958   2.595
 3891TIP3    H111679   2.129   5.919   2.677
 3891TIP3    H211680   2.110   5.887   2.531
 3892TIP3   OH211681   4.198   5.373   1.255
 3892TIP3    H111682   4.161   5.451   1.296
 3892TIP3    H211683   4.170   5.300   1.311
 3893TIP3   OH211684   4.322   3.660   4.720
 3893TIP3    H111685   4.273   3.686   4.642
 3893TIP3    H211686   4.254   3.629   4.781
 3894TIP3   OH211687   0.242   2.941   3.998
 3894TIP3    H111688   0.244   3.011   3.933
 3894TIP3    H211689   0.334   2.920   4.014
 3895TIP3   OH211690   1.345   2.622   1.878
 3895TIP3    H111691   1.252   2.624   1.904
 3895TIP3    H211692   1.390   2.668   1.949
 3896TIP3   OH211693   5.792   0.309   0.791
 3896TIP3    H111694   5.887   0.299   0.804
 3896TIP3    H211695   5.756   0.223   0.813
 3897TIP3   OH211696   3.095   0.014   5.106
 3897TIP3    H111697   3.158   0.081   5.133
 3897TIP3    H211698   3.010   0.047   5.135
 3898TIP3   OH211699   3.700   3.250   0.743
 3898TIP3    H111700   3.764   3.228   0.810
 3898TIP3    H211701   3.709   3.344   0.730
 3899TIP3   OH211702   1.622   1.961   4.866
 3899TIP3    H111703   1.624   1.962   4.961
 3899TIP3    H211704   1.599   2.050   4.841
 3900TIP3   OH211705   0.264   0.293   2.213
 3900TIP3    H111706   0.189   0.243   2.244
 3900TIP3    H211707   0.339   0.235   2.226
 3901TIP3   OH211708   5.840   0.600   0.718
 3901TIP3    H111709   5.837   0.572   0.627
 3901TIP3    H211710   5.868   0.523   0.767
 3902TIP3   OH211711   1.669   5.307   2.907
 3902TIP3    H111712   1.653   5.241   2.975
 3902TIP3    H211713   1.585   5.315   2.862
 3903TIP3   OH211714   0.903   2.159   0.630
 3903TIP3    H111715   0.831   2.219   0.647
 3903TIP3    H211716   0.945   2.148   0.716
 3904TIP3   OH211717   3.185   2.364   3.487
 3904TIP3    H111718   3.216   2.453   3.502
 3904TIP3    H211719   3.256   2.308   3.521
 3905TIP3   OH211720   2.511   2.916   0.960
 3905TIP3    H111721   2.604   2.936   0.960
 3905TIP3    H211722   2.503   2.837   1.014
 3906TIP3   OH211723   4.351   3.114   3.220
 3906TIP3    H111724   4.403   3.045   3.261
 3906TIP3    H211725   4.411   3.188   3.213
 3907TIP3   OH211726   4.082   1.250   2.384
 3907TIP3    H111727   3.991   1.231   2.407
 3907TIP3    H211728   4.134   1.190   2.437
 3908TIP3   OH211729   5.978   2.450   4.979
 3908TIP3    H111730   6.016   2.416   4.899
 3908TIP3    H211731   6.040   2.516   5.009
 3909TIP3   OH211732   0.724   2.121   0.894
 3909TIP3    H111733   0.739   2.034   0.932
 3909TIP3    H211734   0.681   2.171   0.964
 3910TIP3   OH211735   5.610   1.428   0.656
 3910TIP3    H111736   5.554   1.441   0.579
 3910TIP3    H211737   5.698   1.418   0.620
 3911TIP3   OH211738   1.845   1.209   2.970
 3911TIP3    H111739   1.789   1.181   2.898
 3911TIP3    H211740   1.930   1.226   2.929
 3912TIP3   OH211741   3.857   0.013   0.856
 3912TIP3    H111742   3.911  -0.055   0.816
 3912TIP3    H211743   3.774   0.010   0.807
 3913TIP3   OH211744   0.203   3.374   2.577
 3913TIP3    H111745   0.144   3.425   2.522
 3913TIP3    H211746   0.278   3.354   2.520
 3914TIP3   OH211747   2.142   0.564   4.482
 3914TIP3    H111748   2.203   0.604   4.420
 3914TIP3    H211749   2.196   0.546   4.560
 3915TIP3   OH211750   0.665   4.611   2.046
 3915TIP3    H111751   0.620   4.546   2.101
 3915TIP3    H211752   0.756   4.608   2.075
 3916TIP3   OH211753   2.401   3.582   0.664
 3916TIP3    H111754   2.382   3.666   0.623
 3916TIP3    H211755   2.443   3.605   0.747
 3917TIP3   OH211756   0.499   3.694   1.724
 3917TIP3    H111757   0.523   3.743   1.802
 3917TIP3    H211758   0.546   3.738   1.653
 3918TIP3   OH211759   1.132   4.866   0.266
 3918TIP3    H111760   1.094   4.930   0.205
 3918TIP3    H211761   1.108   4.781   0.229
 3919TIP3   OH211762   2.422   1.926   2.823
 3919TIP3    H111763   2.390   2.014   2.843
 3919TIP3    H211764   2.348   1.869   2.841
 3920TIP3   OH211765   2.374   3.390   0.475
 3920TIP3    H111766   2.423   3.315   0.512
 3920TIP3    H211767   2.388   3.460   0.538
 3921TIP3   OH211768   4.057   2.569   3.349
 3921TIP3    H111769   4.081   2.660   3.331
 3921TIP3    H211770   4.088   2.521   3.272
 3922TIP3   OH211771   3.313   0.393   4.705
 3922TIP3    H111772   3.249   0.385   4.635
 3922TIP3    H211773   3.363   0.312   4.703
 3923TIP3   OH211774   4.284   1.379   4.987
 3923TIP3    H111775   4.264   1.443   5.056
 3923TIP3    H211776   4.244   1.416   4.908
 3924TIP3   OH211777   1.673   4.258   1.772
 3924TIP3    H111778   1.711   4.313   1.704
 3924TIP3    H211779   1.746   4.235   1.829
 3925TIP3   OH211780   1.742   5.118   0.736
 3925TIP3    H111781   1.831   5.137   0.706
 3925TIP3    H211782   1.745   5.132   0.830
 3926TIP3   OH211783   3.613   4.652   2.987
 3926TIP3    H111784   3.682   4.621   2.928
 3926TIP3    H211785   3.637   4.743   3.005
 3927TIP3   OH211786   0.451   2.632   2.332
 3927TIP3    H111787   0.390   2.701   2.307
 3927TIP3    H211788   0.513   2.675   2.391
 3928TIP3   OH211789   6.318   0.982   0.248
 3928TIP3    H111790   6.270   1.064   0.248
 3928TIP3    H211791   6.409   1.007   0.267
 3929TIP3   OH211792   4.845   2.940   1.038
 3929TIP3    H111793   4.897   2.983   1.106
 3929TIP3    H211794   4.906   2.926   0.966
 3930TIP3   OH211795   3.313   3.984   1.699
 3930TIP3    H111796   3.267   3.958   1.779
 3930TIP3    H211797   3.253   4.043   1.654
 3931TIP3   OH211798   1.115   3.708   4.050
 3931TIP3    H111799   1.202   3.736   4.024
 3931TIP3    H211800   1.065   3.703   3.969
 3932TIP3   OH211801   3.200   2.634   1.063
 3932TIP3    H111802   3.114   2.609   1.030
 3932TIP3    H211803   3.254   2.556   1.048
 3933TIP3   OH211804   5.977   2.920   3.889
 3933TIP3    H111805   5.930   2.924   3.806
 3933TIP3    H211806   6.069   2.925   3.865
 3934TIP3   OH211807   2.511   3.366   2.329
 3934TIP3    H111808   2.471   3.281   2.310
 3934TIP3    H211809   2.583   3.374   2.265
 3935TIP3   OH211810   3.324   3.722   0.073
 3935TIP3    H111811   3.291   3.710   0.163
 3935TIP3    H211812   3.408   3.766   0.084
 3936TIP3   OH211813   0.834   1.218   1.916
 3936TIP3    H111814   0.837   1.268   1.834
 3936TIP3    H211815   0.896   1.146   1.902
 3937TIP3   OH211816   2.071   2.770   4.191
 3937TIP3    H111817   2.134   2.739   4.126
 3937TIP3    H211818   2.025   2.691   4.219
 3938TIP3   OH211819   4.534   4.236   2.030
 3938TIP3    H111820   4.479   4.214   1.955
 3938TIP3    H211821   4.540   4.155   2.081
 3939TIP3   OH211822   2.241   4.852   0.878
 3939TIP3    H111823   2.202   4.848   0.790
 3939TIP3    H211824   2.169   4.829   0.937
 3940TIP3   OH211825   1.233   3.653   0.637
 3940TIP3    H111826   1.194   3.583   0.690
 3940TIP3    H211827   1.194   3.643   0.551
 3941TIP3   OH211828   0.600   3.742   1.068
 3941TIP3    H111829   0.687   3.710   1.092
 3941TIP3    H211830   0.599   3.832   1.099
 3942TIP3   OH211831   2.412   3.343   3.104
 3942TIP3    H111832   2.328   3.381   3.076
 3942TIP3    H211833   2.390   3.254   3.131
 3943TIP3   OH211834   3.147   2.938   1.309
 3943TIP3    H111835   3.069   2.921   1.362
 3943TIP3    H211836   3.182   2.851   1.288
 3944TIP3   OH211837   0.977   5.372   3.665
 3944TIP3    H111838   0.959   5.371   3.571
 3944TIP3    H211839   1.022   5.290   3.683
 3945TIP3   OH211840   4.243   4.814   3.627
 3945TIP3    H111841   4.240   4.825   3.532
 3945TIP3    H211842   4.334   4.793   3.646
 3946TIP3   OH211843   0.101   4.794   4.531
 3946TIP3    H111844   0.147   4.809   4.614
 3946TIP3    H211845   0.137   4.860   4.472
 3947TIP3   OH211846   1.819   3.641   4.143
 3947TIP3    H111847   1.751   3.708   4.138
 3947TIP3    H211848   1.787   3.571   4.086
 3948TIP3   OH211849   5.289   0.640   2.917
 3948TIP3    H111850   5.351   0.695   2.869
 3948TIP3    H211851   5.311   0.653   3.009
 3949TIP3   OH211852   1.529   5.948   2.183
 3949TIP3    H111853   1.540   5.926   2.275
 3949TIP3    H211854   1.520   6.043   2.181
 3950TIP3   OH211855   3.590   3.408   2.352
 3950TIP3    H111856   3.554   3.320   2.363
 3950TIP3    H211857   3.558   3.437   2.267
 3951TIP3   OH211858   3.589   1.333   4.758
 3951TIP3    H111859   3.537   1.342   4.678
 3951TIP3    H211860   3.621   1.243   4.755
 3952TIP3   OH211861   4.198   2.284   0.023
 3952TIP3    H111862   4.197   2.189   0.035
 3952TIP3    H211863   4.157   2.319   0.103
 3953TIP3   OH211864   4.442   5.778   1.884
 3953TIP3    H111865   4.516   5.776   1.945
 3953TIP3    H211866   4.425   5.871   1.870
 3954TIP3   OH211867   0.394   2.159   2.949
 3954TIP3    H111868   0.387   2.067   2.975
 3954TIP3    H211869   0.432   2.156   2.861
 3955TIP3   OH211870   5.656   2.364   1.654
 3955TIP3    H111871   5.724   2.332   1.714
 3955TIP3    H211872   5.580   2.380   1.709
 3956TIP3   OH211873   6.190   2.795   2.006
 3956TIP3    H111874   6.097   2.806   2.026
 3956TIP3    H211875   6.219   2.724   2.062
 3957TIP3   OH211876   2.376   4.935   1.413
 3957TIP3    H111877   2.315   4.880   1.363
 3957TIP3    H211878   2.463   4.903   1.390
 3958TIP3   OH211879   4.205   5.044   3.802
 3958TIP3    H111880   4.276   5.029   3.865
 3958TIP3    H211881   4.223   4.983   3.730
 3959TIP3   OH211882   3.493   0.396   0.523
 3959TIP3    H111883   3.485   0.368   0.432
 3959TIP3    H211884   3.405   0.425   0.547
 3960TIP3   OH211885   4.899   0.349   4.725
 3960TIP3    H111886   4.916   0.273   4.780
 3960TIP3    H211887   4.915   0.424   4.783
 3961TIP3   OH211888   5.523   4.906   0.631
 3961TIP3    H111889   5.491   4.827   0.674
 3961TIP3    H211890   5.610   4.882   0.599
 3962TIP3   OH211891   3.729   2.586   0.054
 3962TIP3    H111892   3.673   2.552   0.124
 3962TIP3    H211893   3.757   2.508   0.006
 3963TIP3   OH211894   3.807   2.118   3.287
 3963TIP3    H111895   3.835   2.203   3.255
 3963TIP3    H211896   3.889   2.071   3.306
 3964TIP3   OH211897   0.187   4.294   1.832
 3964TIP3    H111898   0.270   4.324   1.870
 3964TIP3    H211899   0.198   4.199   1.824
 3965TIP3   OH211900   3.817   5.447   0.212
 3965TIP3    H111901   3.883   5.380   0.229
 3965TIP3    H211902   3.865   5.517   0.167
 3966TIP3   OH211903   1.964   0.357   2.694
 3966TIP3    H111904   1.985   0.270   2.728
 3966TIP3    H211905   1.870   0.366   2.704
 3967TIP3   OH211906   5.863   0.937   5.140
 3967TIP3    H111907   5.901   0.852   5.164
 3967TIP3    H211908   5.778   0.939   5.183
 3968TIP3   OH211909   2.801   4.838   0.176
 3968TIP3    H111910   2.838   4.874   0.256
 3968TIP3    H211911   2.813   4.744   0.184
 3969TIP3   OH211912   0.542   2.406   2.676
 3969TIP3    H111913   0.605   2.335   2.667
 3969TIP3    H211914   0.501   2.413   2.590
 3970TIP3   OH211915   1.962   4.196   3.429
 3970TIP3    H111916   2.003   4.206   3.514
 3970TIP3    H211917   2.034   4.192   3.367
 3971TIP3   OH211918   2.322   4.805   2.384
 3971TIP3    H111919   2.352   4.825   2.295
 3971TIP3    H211920   2.227   4.800   2.376
 3972TIP3   OH211921   0.193   1.916   0.596
 3972TIP3    H111922   0.118   1.961   0.636
 3972TIP3    H211923   0.233   1.868   0.669
 3973TIP3   OH211924   1.912   2.262   3.133
 3973TIP3    H111925   1.907   2.337   3.073
 3973TIP3    H211926   1.992   2.277   3.183
 3974TIP3   OH211927   3.184   5.305   4.945
 3974TIP3    H111928   3.157   5.397   4.952
 3974TIP3    H211929   3.116   5.257   4.993
 3975TIP3   OH211930   0.864   4.921   1.054
 3975TIP3    H111931   0.883   5.000   1.003
 3975TIP3    H211932   0.770   4.907   1.042
 3976TIP3   OH211933   0.235   2.237   1.141
 3976TIP3    H111934   0.216   2.146   1.118
 3976TIP3    H211935   0.174   2.257   1.213
 3977TIP3   OH211936   5.076   1.114   1.429
 3977TIP3    H111937   5.129   1.172   1.374
 3977TIP3    H211938   5.111   1.125   1.517
 3978TIP3   OH211939   6.037   0.073   2.540
 3978TIP3    H111940   5.948   0.101   2.562
 3978TIP3    H211941   6.072   0.144   2.486
 3979TIP3   OH211942   5.629   3.777   3.191
 3979TIP3    H111943   5.698   3.840   3.210
 3979TIP3    H211944   5.660   3.695   3.229
 3980TIP3   OH211945   0.846   3.527   4.901
 3980TIP3    H111946   0.811   3.614   4.881
 3980TIP3    H211947   0.928   3.545   4.947
 3981TIP3   OH211948   6.315   1.028   2.514
 3981TIP3    H111949   6.370   1.106   2.513
 3981TIP3    H211950   6.232   1.057   2.474
 3982TIP3   OH211951   2.173   3.792   4.716
 3982TIP3    H111952   2.130   3.736   4.780
 3982TIP3    H211953   2.176   3.739   4.636
 3983TIP3   OH211954   5.174   5.425   2.533
 3983TIP3    H111955   5.208   5.515   2.528
 3983TIP3    H211956   5.144   5.415   2.623
 3984TIP3   OH211957   2.241   3.365   4.647
 3984TIP3    H111958   2.158   3.320   4.635
 3984TIP3    H211959   2.307   3.295   4.647
 3985TIP3   OH211960   4.320   4.700   4.011
 3985TIP3    H111961   4.253   4.734   4.070
 3985TIP3    H211962   4.288   4.613   3.985
 3986TIP3   OH211963   5.705   0.400   4.176
 3986TIP3    H111964   5.652   0.334   4.129
 3986TIP3    H211965   5.640   0.456   4.219
 3987TIP3   OH211966   2.730   4.789   3.290
 3987TIP3    H111967   2.747   4.808   3.198
 3987TIP3    H211968   2.646   4.743   3.290
 3988TIP3   OH211969   3.280   5.517   2.046
 3988TIP3    H111970   3.255   5.516   2.138
 3988TIP3    H211971   3.250   5.433   2.011
 3989TIP3   OH211972   3.685   1.143   3.221
 3989TIP3    H111973   3.666   1.204   3.149
 3989TIP3    H211974   3.646   1.184   3.298
 3990TIP3   OH211975   0.071   3.317   1.369
 3990TIP3    H111976   0.094   3.329   1.277
 3990TIP3    H211977   0.156   3.306   1.413
 3991TIP3   OH211978   3.666   3.675   3.244
 3991TIP3    H111979   3.679   3.591   3.199
 3991TIP3    H211980   3.578   3.669   3.281
 3992TIP3   OH211981   0.038   4.923   0.303
 3992TIP3    H111982   0.082   4.943   0.220
 3992TIP3    H211983  -0.036   4.867   0.277
 3993TIP3   OH211984   5.827   2.836   0.715
 3993TIP3    H111985   5.779   2.918   0.719
 3993TIP3    H211986   5.902   2.854   0.658
 3994TIP3   OH211987   4.494   5.038   3.667
 3994TIP3    H111988   4.535   4.959   3.634
 3994TIP3    H211989   4.451   5.077   3.591
 3995TIP3   OH211990   4.332   5.362   2.587
 3995TIP3    H111991   4.273   5.438   2.592
 3995TIP3    H211992   4.292   5.306   2.520
 3996TIP3   OH211993   1.450   0.350   0.075
 3996TIP3    H111994   1.358   0.359   0.052
 3996TIP3    H211995   1.479   0.271   0.028
 3997TIP3   OH211996   0.748   5.602   3.525
 3997TIP3    H111997   0.690   5.529   3.549
 3997TIP3    H211998   0.832   5.560   3.504
 3998TIP3   OH211999   5.728   0.758   1.915
 3998TIP3    H112000   5.685   0.701   1.851
 3998TIP3    H212001   5.659   0.786   1.974
 3999TIP3   OH212002   1.209   4.229   4.001
 3999TIP3    H112003   1.184   4.162   3.937
 3999TIP3    H212004   1.139   4.293   3.997
 4000TIP3   OH212005   4.460   4.230   0.375
 4000TIP3    H112006   4.438   4.317   0.341
 4000TIP3    H212007   4.433   4.169   0.306
 4001TIP3   OH212008   5.605   4.108   0.451
 4001TIP3    H112009   5.584   4.016   0.434
 4001TIP3    H212010   5.700   4.109   0.460
 4002TIP3   OH212011   4.494   2.482   4.261
 4002TIP3    H112012   4.516   2.459   4.171
 4002TIP3    H212013   4.495   2.578   4.263
 4003TIP3   OH212014   2.225   3.587   0.030
 4003TIP3    H112015   2.261   3.500   0.013
 4003TIP3    H212016   2.211   3.590   0.124
 4004TIP3   OH212017   3.072   0.355   4.167
 4004TIP3    H112018   3.167   0.363   4.160
 4004TIP3    H212019   3.046   0.307   4.087
 4005TIP3   OH212020   2.781   4.658   1.066
 4005TIP3    H112021   2.693   4.653   1.029
 4005TIP3    H212022   2.819   4.737   1.028
 4006TIP3   OH212023   1.684   3.619   2.208
 4006TIP3    H112024   1.647   3.532   2.190
 4006TIP3    H212025   1.763   3.600   2.260
 4007TIP3   OH212026   5.478   3.165   2.437
 4007TIP3    H112027   5.429   3.113   2.501
 4007TIP3    H212028   5.541   3.214   2.490
 4008TIP3   OH212029   3.447   0.167   4.161
 4008TIP3    H112030   3.512   0.202   4.100
 4008TIP3    H212031   3.371   0.148   4.107
 4009TIP3   OH212032   1.354   4.098   3.614
 4009TIP3    H112033   1.291   4.068   3.679
 4009TIP3    H212034   1.414   4.024   3.602
 4010TIP3   OH212035   2.059   4.714   1.460
 4010TIP3    H112036   1.981   4.761   1.430
 4010TIP3    H212037   2.114   4.707   1.381
 4011TIP3   OH212038   5.489   4.624   0.385
 4011TIP3    H112039   5.551   4.634   0.313
 4011TIP3    H212040   5.457   4.534   0.376
 4012TIP3   OH212041   5.405   5.213   2.165
 4012TIP3    H112042   5.350   5.175   2.233
 4012TIP3    H212043   5.360   5.294   2.141
 4013TIP3   OH212044   5.726   2.152   2.914
 4013TIP3    H112045   5.750   2.114   2.998
 4013TIP3    H212046   5.806   2.147   2.862
 4014TIP3   OH212047   5.162   4.468   3.278
 4014TIP3    H112048   5.070   4.464   3.303
 4014TIP3    H212049   5.178   4.388   3.229
 4015TIP3   OH212050   1.641   0.683   0.389
 4015TIP3    H112051   1.722   0.639   0.361
 4015TIP3    H212052   1.665   0.776   0.394
 4016TIP3   OH212053   3.929   4.966   0.594
 4016TIP3    H112054   3.980   5.007   0.664
 4016TIP3    H212055   3.865   5.033   0.569
 4017TIP3   OH212056   5.502   4.623   3.178
 4017TIP3    H112057   5.474   4.713   3.163
 4017TIP3    H212058   5.448   4.570   3.119
 4018TIP3   OH212059   5.361   1.596   0.208
 4018TIP3    H112060   5.378   1.559   0.121
 4018TIP3    H212061   5.383   1.525   0.269
 4019TIP3   OH212062   3.570   2.872   5.033
 4019TIP3    H112063   3.505   2.861   5.102
 4019TIP3    H212064   3.654   2.867   5.079
 4020TIP3   OH212065   3.687   4.888   4.824
 4020TIP3    H112066   3.751   4.820   4.846
 4020TIP3    H212067   3.672   4.934   4.907
 4021TIP3   OH212068   0.231   5.823   4.871
 4021TIP3    H112069   0.287   5.899   4.889
 4021TIP3    H212070   0.293   5.752   4.853
 4022TIP3   OH212071   0.306   3.422   4.294
 4022TIP3    H112072   0.213   3.417   4.316
 4022TIP3    H212073   0.315   3.505   4.247
 4023TIP3   OH212074   5.231   5.490   5.100
 4023TIP3    H112075   5.314   5.469   5.058
 4023TIP3    H212076   5.250   5.567   5.154
 4024TIP3   OH212077   4.973   4.719   4.261
 4024TIP3    H112078   5.028   4.644   4.241
 4024TIP3    H212079   4.898   4.683   4.308
 4025TIP3   OH212080   2.062   5.899   3.173
 4025TIP3    H112081   2.046   5.811   3.208
 4025TIP3    H212082   2.139   5.930   3.220
 4026TIP3   OH212083   5.744   5.733   4.500
 4026TIP3    H112084   5.685   5.691   4.562
 4026TIP3    H212085   5.832   5.713   4.533
 4027TIP3   OH212086   0.189   1.138   4.605
 4027TIP3    H112087   0.131   1.211   4.627
 4027TIP3    H212088   0.248   1.130   4.680
 4028TIP3   OH212089   5.605   1.415   4.034
 4028TIP3    H112090   5.596   1.342   3.973
 4028TIP3    H212091   5.614   1.374   4.120
 4029TIP3   OH212092   1.303   2.443   3.235
 4029TIP3    H112093   1.351   2.524   3.256
 4029TIP3    H212094   1.320   2.385   3.309
 4030TIP3   OH212095   2.687   3.589   3.966
 4030TIP3    H112096   2.616   3.601   4.028
 4030TIP3    H212097   2.650   3.532   3.898
 4031TIP3   OH212098   3.547   5.290   2.156
 4031TIP3    H112099   3.631   5.326   2.186
 4031TIP3    H212100   3.492   5.367   2.140
 4032TIP3   OH212101   1.437   4.791   2.987
 4032TIP3    H112102   1.499   4.788   3.060
 4032TIP3    H212103   1.479   4.740   2.918
 4033TIP3   OH212104   0.090   2.952   1.930
 4033TIP3    H112105   0.146   2.922   2.001
 4033TIP3    H212106   0.004   2.915   1.950
 4034TIP3   OH212107   5.386   3.717   1.207
 4034TIP3    H112108   5.455   3.782   1.204
 4034TIP3    H212109   5.340   3.735   1.290
 4035TIP3   OH212110   5.773   5.144   4.929
 4035TIP3    H112111   5.868   5.151   4.936
 4035TIP3    H212112   5.752   5.183   4.844
 4036TIP3   OH212113   2.591   5.609   1.405
 4036TIP3    H112114   2.664   5.658   1.366
 4036TIP3    H212115   2.615   5.517   1.394
 4037TIP3   OH212116   4.728   0.551   4.517
 4037TIP3    H112117   4.650   0.606   4.509
 4037TIP3    H212118   4.749   0.552   4.610
 4038TIP3   OH212119   6.338   1.792   0.478
 4038TIP3    H112120   6.405   1.824   0.539
 4038TIP3    H212121   6.266   1.762   0.535
 4039TIP3   OH212122   3.671   3.598   4.294
 4039TIP3    H112123   3.751   3.635   4.257
 4039TIP3    H212124   3.602   3.661   4.271
 4040TIP3   OH212125   3.615   5.118   2.624
 4040TIP3    H112126   3.586   5.027   2.632
 4040TIP3    H212127   3.540   5.163   2.584
 4041TIP3   OH212128   5.135   5.966   2.602
 4041TIP3    H112129   5.076   5.890   2.600
 4041TIP3    H212130   5.217   5.931   2.636
 4042TIP3   OH212131   2.373   4.567   3.664
 4042TIP3    H112132   2.278   4.556   3.669
 4042TIP3    H212133   2.408   4.487   3.704
 4043TIP3   OH212134   0.418   5.431   1.547
 4043TIP3    H112135   0.358   5.459   1.616
 4043TIP3    H212136   0.377   5.462   1.466
 4044TIP3   OH212137   0.755   0.782   0.940
 4044TIP3    H112138   0.808   0.812   0.866
 4044TIP3    H212139   0.796   0.700   0.968
 4045TIP3   OH212140   4.990   1.063   3.436
 4045TIP3    H112141   5.036   1.000   3.492
 4045TIP3    H212142   4.993   1.145   3.486
 4046TIP3   OH212143   5.555   4.019   1.929
 4046TIP3    H112144   5.568   4.093   1.988
 4046TIP3    H212145   5.592   4.048   1.845
 4047TIP3   OH212146   0.616   0.716   1.305
 4047TIP3    H112147   0.592   0.710   1.398
 4047TIP3    H212148   0.539   0.755   1.263
 4048TIP3   OH212149   2.778   2.054   4.778
 4048TIP3    H112150   2.841   2.109   4.732
 4048TIP3    H212151   2.779   1.971   4.730
 4049TIP3   OH212152   0.139   0.281   0.398
 4049TIP3    H112153   0.233   0.267   0.388
 4049TIP3    H212154   0.131   0.352   0.461
 4050TIP3   OH212155   1.084   3.978   2.357
 4050TIP3    H112156   1.027   3.929   2.416
 4050TIP3    H212157   1.093   4.064   2.397
 4051TIP3   OH212158   0.949   4.570   2.397
 4051TIP3    H112159   0.868   4.621   2.404
 4051TIP3    H212160   1.016   4.626   2.436
 4052TIP3   OH212161   4.273   2.059   3.805
 4052TIP3    H112162   4.186   2.092   3.825
 4052TIP3    H212163   4.258   1.971   3.769
 4053TIP3   OH212164   2.152   3.214   2.115
 4053TIP3    H112165   2.154   3.309   2.116
 4053TIP3    H212166   2.092   3.191   2.045
 4054TIP3   OH212167   4.004   1.835   4.136
 4054TIP3    H112168   3.945   1.791   4.074
 4054TIP3    H212169   3.962   1.826   4.221
 4055TIP3   OH212170   2.470   1.370   0.571
 4055TIP3    H112171   2.428   1.455   0.558
 4055TIP3    H212172   2.465   1.327   0.486
 4056TIP3   OH212173   4.926   3.062   3.729
 4056TIP3    H112174   4.936   3.030   3.819
 4056TIP3    H212175   4.988   3.135   3.723
 4057TIP3   OH212176   6.330   5.353   4.346
 4057TIP3    H112177   6.268   5.413   4.386
 4057TIP3    H212178   6.361   5.398   4.268
 4058TIP3   OH212179   0.498   5.048   2.394
 4058TIP3    H112180   0.441   5.080   2.324
 4058TIP3    H212181   0.572   5.009   2.348
 4059TIP3   OH212182   0.982   3.791   3.202
 4059TIP3    H112183   0.937   3.828   3.278
 4059TIP3    H212184   1.065   3.758   3.237
 4060TIP3   OH212185   0.535   2.903   3.818
 4060TIP3    H112186   0.530   2.891   3.913
 4060TIP3    H212187   0.628   2.914   3.800
 4061TIP3   OH212188   5.203   0.596   0.126
 4061TIP3    H112189   5.204   0.536   0.052
 4061TIP3    H212190   5.159   0.674   0.093
 4062TIP3   OH212191   4.392   1.501   2.787
 4062TIP3    H112192   4.460   1.557   2.824
 4062TIP3    H212193   4.334   1.484   2.861
 4063TIP3   OH212194   5.385   1.580   0.537
 4063TIP3    H112195   5.364   1.668   0.567
 4063TIP3    H212196   5.421   1.593   0.449
 4064TIP3   OH212197   1.914   5.261   0.446
 4064TIP3    H112198   1.838   5.212   0.415
 4064TIP3    H212199   1.972   5.194   0.484
 4065TIP3   OH212200   4.054   3.463   3.392
 4065TIP3    H112201   3.970   3.463   3.438
 4065TIP3    H212202   4.119   3.443   3.460
 4066TIP3   OH212203   1.203   2.959   3.858
 4066TIP3    H112204   1.232   3.037   3.812
 4066TIP3    H212205   1.223   2.887   3.798
 4067TIP3   OH212206   0.933   4.504   3.150
 4067TIP3    H112207   1.014   4.476   3.191
 4067TIP3    H212208   0.926   4.597   3.170
 4068TIP3   OH212209   0.495   2.919   2.730
 4068TIP3    H112210   0.544   2.890   2.653
 4068TIP3    H212211   0.552   2.896   2.804
 4069TIP3   OH212212   5.576   2.783   4.544
 4069TIP3    H112213   5.574   2.692   4.514
 4069TIP3    H212214   5.597   2.777   4.637
 4070TIP3   OH212215   2.989   3.151   3.220
 4070TIP3    H112216   2.915   3.190   3.173
 4070TIP3    H212217   3.062   3.153   3.158
 4071TIP3   OH212218   6.113   4.690   4.117
 4071TIP3    H112219   6.104   4.709   4.210
 4071TIP3    H212220   6.183   4.747   4.087
 4072TIP3   OH212221   6.206   0.148   0.852
 4072TIP3    H112222   6.228   0.107   0.935
 4072TIP3    H212223   6.222   0.242   0.866
 4073TIP3   OH212224   6.129   0.070   1.280
 4073TIP3    H112225   6.183   0.036   1.351
 4073TIP3    H212226   6.181   0.054   1.201
 4074TIP3   OH212227   3.436   2.061   5.064
 4074TIP3    H112228   3.398   2.133   5.114
 4074TIP3    H212229   3.365   1.997   5.057
 4075TIP3   OH212230   4.598   3.195   4.813
 4075TIP3    H112231   4.594   3.124   4.749
 4075TIP3    H212232   4.552   3.268   4.771
 4076TIP3   OH212233   5.155   4.813   2.728
 4076TIP3    H112234   5.137   4.727   2.766
 4076TIP3    H212235   5.239   4.801   2.682
 4077TIP3   OH212236   3.099   0.558   1.245
 4077TIP3    H112237   3.099   0.645   1.205
 4077TIP3    H212238   3.182   0.519   1.218
 4078TIP3   OH212239   1.665   4.134   3.415
 4078TIP3    H112240   1.670   4.089   3.500
 4078TIP3    H212241   1.751   4.120   3.376
 4079TIP3   OH212242   5.438   5.841   0.612
 4079TIP3    H112243   5.522   5.806   0.642
 4079TIP3    H212244   5.432   5.927   0.654
 4080TIP3   OH212245   5.926   5.357   2.382
 4080TIP3    H112246   6.007   5.396   2.415
 4080TIP3    H212247   5.893   5.305   2.455
 4081TIP3   OH212248   4.021   0.503   0.472
 4081TIP3    H112249   3.940   0.491   0.522
 4081TIP3    H212250   3.992   0.539   0.388
 4082TIP3   OH212251   5.644   4.792   2.739
 4082TIP3    H112252   5.707   4.801   2.668
 4082TIP3    H212253   5.673   4.715   2.787
 4083TIP3   OH212254   5.520   3.631   2.426
 4083TIP3    H112255   5.459   3.617   2.498
 4083TIP3    H212256   5.501   3.720   2.395
 4084TIP3   OH212257   0.419   0.832   1.180
 4084TIP3    H112258   0.360   0.874   1.244
 4084TIP3    H212259   0.394   0.871   1.096
 4085TIP3   OH212260   5.349   0.609   4.801
 4085TIP3    H112261   5.415   0.637   4.865
 4085TIP3    H212262   5.399   0.587   4.722
 4086TIP3   OH212263   0.616   4.437   3.926
 4086TIP3    H112264   0.622   4.479   3.840
 4086TIP3    H212265   0.575   4.353   3.909
 4087TIP3   OH212266   2.129   4.051   0.604
 4087TIP3    H112267   2.042   4.050   0.645
 4087TIP3    H212268   2.113   4.081   0.514
 4088TIP3   OH212269   3.001   3.690   4.625
 4088TIP3    H112270   2.987   3.672   4.532
 4088TIP3    H212271   2.950   3.623   4.670
 4089TIP3   OH212272   1.107   0.651   2.857
 4089TIP3    H112273   1.046   0.723   2.871
 4089TIP3    H212274   1.191   0.693   2.836
 4090TIP3   OH212275   1.501   0.857   3.681
 4090TIP3    H112276   1.538   0.778   3.721
 4090TIP3    H212277   1.513   0.844   3.587
 4091TIP3   OH212278   1.153   2.961   1.872
 4091TIP3    H112279   1.116   2.931   1.955
 4091TIP3    H212280   1.139   3.056   1.872
 4092TIP3   OH212281   4.984   3.578   1.964
 4092TIP3    H112282   5.020   3.540   1.883
 4092TIP3    H212283   5.019   3.522   2.034
 4093TIP3   OH212284   3.325   3.155   0.469
 4093TIP3    H112285   3.375   3.138   0.549
 4093TIP3    H212286   3.305   3.249   0.472
 4094TIP3   OH212287   2.539   1.027   2.594
 4094TIP3    H112288   2.468   1.000   2.536
 4094TIP3    H212289   2.509   1.109   2.632
 4095TIP3   OH212290   2.396   5.738   0.872
 4095TIP3    H112291   2.368   5.757   0.782
 4095TIP3    H212292   2.323   5.768   0.926
 4096TIP3   OH212293   5.059   0.920   5.176
 4096TIP3    H112294   5.122   0.866   5.128
 4096TIP3    H212295   5.055   0.880   5.263
 4097TIP3   OH212296   2.702   0.810   1.510
 4097TIP3    H112297   2.686   0.904   1.508
 4097TIP3    H212298   2.772   0.799   1.575
 4098TIP3   OH212299   4.065   2.495   3.060
 4098TIP3    H112300   4.085   2.577   3.016
 4098TIP3    H212301   4.095   2.427   3.000
 4099TIP3   OH212302   1.203   2.729   3.685
 4099TIP3    H112303   1.296   2.724   3.703
 4099TIP3    H212304   1.179   2.641   3.656
 4100TIP3   OH212305   0.707   0.449   2.743
 4100TIP3    H112306   0.736   0.496   2.821
 4100TIP3    H212307   0.713   0.513   2.672
 4101TIP3   OH212308   3.498   5.599   1.014
 4101TIP3    H112309   3.406   5.585   0.994
 4101TIP3    H212310   3.500   5.613   1.109
 4102TIP3   OH212311   1.985   3.347   1.495
 4102TIP3    H112312   1.942   3.324   1.578
 4102TIP3    H212313   1.988   3.265   1.446
 4103TIP3   OH212314   0.646   4.427   4.711
 4103TIP3    H112315   0.634   4.443   4.805
 4103TIP3    H212316   0.668   4.334   4.705
 4104TIP3   OH212317   4.922   5.392   1.019
 4104TIP3    H112318   4.942   5.328   0.951
 4104TIP3    H212319   4.829   5.411   1.007
 4105TIP3   OH212320   3.367   2.600   1.902
 4105TIP3    H112321   3.415   2.660   1.959
 4105TIP3    H212322   3.277   2.630   1.906
 4106TIP3   OH212323   5.493   1.191   3.339
 4106TIP3    H112324   5.553   1.128   3.380
 4106TIP3    H212325   5.466   1.149   3.257
 4107TIP3   OH212326   4.064   4.182   4.195
 4107TIP3    H112327   3.972   4.200   4.174
 4107TIP3    H212328   4.113   4.229   4.128
 4108TIP3   OH212329   6.172   5.186   0.974
 4108TIP3    H112330   6.236   5.124   0.940
 4108TIP3    H212331   6.212   5.219   1.055
 4109TIP3   OH212332   4.127   5.297   1.827
 4109TIP3    H112333   4.040   5.324   1.857
 4109TIP3    H212334   4.188   5.343   1.885
 4110TIP3   OH212335   1.275   4.076   4.539
 4110TIP3    H112336   1.277   4.167   4.569
 4110TIP3    H212337   1.183   4.057   4.525
 4111TIP3   OH212338   3.440   3.163   0.721
 4111TIP3    H112339   3.407   3.240   0.767
 4111TIP3    H212340   3.535   3.176   0.718
 4112TIP3   OH212341   3.174   4.855   0.870
 4112TIP3    H112342   3.205   4.782   0.817
 4112TIP3    H212343   3.226   4.851   0.950
 4113TIP3   OH212344   4.090   4.804   4.168
 4113TIP3    H112345   4.006   4.847   4.187
 4113TIP3    H212346   4.154   4.875   4.173
 4114TIP3   OH212347   3.547   2.246   2.071
 4114TIP3    H112348   3.529   2.275   2.160
 4114TIP3    H212349   3.635   2.209   2.075
 4115TIP3   OH212350   6.164   0.669   4.882
 4115TIP3    H112351   6.084   0.628   4.915
 4115TIP3    H212352   6.133   0.734   4.818
 4116TIP3   OH212353   5.218   2.692   5.141
 4116TIP3    H112354   5.178   2.622   5.089
 4116TIP3    H212355   5.156   2.709   5.211
 4117TIP3   OH212356   2.649   1.131   1.531
 4117TIP3    H112357   2.627   1.137   1.624
 4117TIP3    H212358   2.604   1.205   1.491
 4118TIP3   OH212359   1.823   5.015   1.958
 4118TIP3    H112360   1.816   5.106   1.932
 4118TIP3    H212361   1.900   5.012   2.015
 4119TIP3   OH212362   0.174   4.031   1.037
 4119TIP3    H112363   0.105   4.013   0.972
 4119TIP3    H212364   0.178   4.126   1.041
 4120TIP3   OH212365   0.896   3.659   2.958
 4120TIP3    H112366   0.831   3.693   2.897
 4120TIP3    H212367   0.896   3.722   3.030
 4121TIP3   OH212368   4.023   3.304   0.009
 4121TIP3    H112369   3.945   3.257   0.036
 4121TIP3    H212370   4.091   3.236   0.004
 4122TIP3   OH212371   0.247   4.169   3.556
 4122TIP3    H112372   0.284   4.167   3.644
 4122TIP3    H212373   0.153   4.158   3.568
 4123TIP3   OH212374   2.943   3.374   3.400
 4123TIP3    H112375   2.968   3.330   3.319
 4123TIP3    H212376   3.010   3.349   3.463
 4124TIP3   OH212377   0.931   4.616   2.056
 4124TIP3    H112378   0.986   4.545   2.087
 4124TIP3    H212379   0.991   4.674   2.008
 4125TIP3   OH212380   4.553   1.462   1.067
 4125TIP3    H112381   4.592   1.424   1.146
 4125TIP3    H212382   4.623   1.457   1.002
 4126TIP3   OH212383   3.948   0.241   0.284
 4126TIP3    H112384   4.032   0.275   0.251
 4126TIP3    H212385   3.882   0.295   0.240
 4127TIP3   OH212386   1.580   5.862   3.445
 4127TIP3    H112387   1.498   5.869   3.397
 4127TIP3    H212388   1.554   5.861   3.537
 4128TIP3   OH212389   2.780   2.584   4.319
 4128TIP3    H112390   2.722   2.515   4.285
 4128TIP3    H212391   2.766   2.581   4.414
 4129TIP3   OH212392   4.165   4.562   0.957
 4129TIP3    H112393   4.196   4.621   0.889
 4129TIP3    H212394   4.243   4.516   0.987
 4130TIP3   OH212395   6.230   2.765   3.000
 4130TIP3    H112396   6.300   2.727   3.053
 4130TIP3    H212397   6.155   2.707   3.014
 4131TIP3   OH212398   5.271   5.703   2.482
 4131TIP3    H112399   5.321   5.742   2.410
 4131TIP3    H212400   5.299   5.751   2.560
 4132TIP3   OH212401   0.666   1.502   0.151
 4132TIP3    H112402   0.727   1.528   0.082
 4132TIP3    H212403   0.710   1.530   0.232
 4133TIP3   OH212404   4.901   3.326   0.961
 4133TIP3    H112405   4.845   3.316   1.038
 4133TIP3    H212406   4.840   3.335   0.888
 4134TIP3   OH212407   4.254   3.343   2.265
 4134TIP3    H112408   4.248   3.272   2.201
 4134TIP3    H212409   4.296   3.303   2.341
 4135TIP3   OH212410   1.121   1.117   4.516
 4135TIP3    H112411   1.035   1.102   4.556
 4135TIP3    H212412   1.180   1.127   4.591
 4136TIP3   OH212413   3.894   2.455   4.425
 4136TIP3    H112414   3.803   2.483   4.425
 4136TIP3    H212415   3.912   2.430   4.335
 4137TIP3   OH212416   2.433   0.687   1.104
 4137TIP3    H112417   2.354   0.671   1.155
 4137TIP3    H212418   2.479   0.756   1.152
 4138TIP3   OH212419   4.789   2.303   2.650
 4138TIP3    H112420   4.819   2.322   2.738
 4138TIP3    H212421   4.829   2.371   2.595
 4139TIP3   OH212422   5.790   0.444   2.113
 4139TIP3    H112423   5.849   0.496   2.057
 4139TIP3    H212424   5.755   0.378   2.054
 4140TIP3   OH212425   2.698   0.885   2.332
 4140TIP3    H112426   2.744   0.949   2.386
 4140TIP3    H212427   2.607   0.914   2.332
 4141TIP3   OH212428   4.933   0.028   2.664
 4141TIP3    H112429   4.920   0.123   2.658
 4141TIP3    H212430   5.017   0.012   2.619
 4142TIP3   OH212431   5.404   1.524   2.008
 4142TIP3    H112432   5.478   1.535   1.948
 4142TIP3    H212433   5.326   1.535   1.952
 4143TIP3   OH212434   3.460   1.210   3.946
 4143TIP3    H112435   3.393   1.233   4.011
 4143TIP3    H212436   3.453   1.115   3.936
 4144TIP3   OH212437   2.235   1.883   0.518
 4144TIP3    H112438   2.303   1.950   0.520
 4144TIP3    H212439   2.172   1.911   0.585
 4145TIP3   OH212440   2.168   5.668   4.363
 4145TIP3    H112441   2.086   5.619   4.364
 4145TIP3    H212442   2.190   5.675   4.270
 4146TIP3   OH212443   6.171   3.663   2.214
 4146TIP3    H112444   6.234   3.618   2.157
 4146TIP3    H212445   6.093   3.673   2.159
 4147TIP3   OH212446   2.478   1.766  -0.027
 4147TIP3    H112447   2.393   1.755   0.014
 4147TIP3    H212448   2.529   1.818   0.036
 4148TIP3   OH212449   0.319   0.974   2.613
 4148TIP3    H112450   0.414   0.963   2.605
 4148TIP3    H212451   0.286   0.968   2.524
 4149TIP3   OH212452   1.169   1.289   3.921
 4149TIP3    H112453   1.081   1.251   3.917
 4149TIP3    H212454   1.154   1.382   3.938
 4150TIP3   OH212455   5.784   1.815   2.742
 4150TIP3    H112456   5.823   1.740   2.696
 4150TIP3    H212457   5.785   1.790   2.834
 4151TIP3   OH212458   3.369   1.836   4.339
 4151TIP3    H112459   3.299   1.860   4.399
 4151TIP3    H212460   3.421   1.915   4.329
 4152TIP3   OH212461   4.650   1.005   3.645
 4152TIP3    H112462   4.667   0.989   3.552
 4152TIP3    H212463   4.555   1.000   3.654
 4153TIP3   OH212464   5.466   5.928   1.623
 4153TIP3    H112465   5.531   5.859   1.608
 4153TIP3    H212466   5.475   5.950   1.716
 4154TIP3   OH212467   3.994   1.278   2.113
 4154TIP3    H112468   3.990   1.374   2.108
 4154TIP3    H212469   4.071   1.261   2.167
 4155TIP3   OH212470   5.341   1.330   0.185
 4155TIP3    H112471   5.384   1.245   0.198
 4155TIP3    H212472   5.371   1.359   0.098
 4156TIP3   OH212473   0.493   2.624   2.843
 4156TIP3    H112474   0.587   2.627   2.861
 4156TIP3    H212475   0.482   2.552   2.782
 4157TIP3   OH212476   2.073   1.533   3.208
 4157TIP3    H112477   2.085   1.451   3.256
 4157TIP3    H212478   1.998   1.517   3.151
 4158TIP3   OH212479   2.853   1.044   0.871
 4158TIP3    H112480   2.943   1.040   0.904
 4158TIP3    H212481   2.799   1.049   0.950
 4159TIP3   OH212482   3.309   4.354   3.139
 4159TIP3    H112483   3.249   4.411   3.091
 4159TIP3    H212484   3.360   4.413   3.194
 4160TIP3   OH212485   5.829   2.903   3.670
 4160TIP3    H112486   5.814   2.962   3.597
 4160TIP3    H212487   5.827   2.815   3.631
 4161TIP3   OH212488   2.064   2.461   3.969
 4161TIP3    H112489   2.000   2.532   3.964
 4161TIP3    H212490   2.149   2.504   3.962
 4162TIP3   OH212491   5.054   5.111   3.933
 4162TIP3    H112492   5.023   5.031   3.975
 4162TIP3    H212493   4.999   5.180   3.971
 4163TIP3   OH212494   1.035   2.398   0.285
 4163TIP3    H112495   1.087   2.454   0.228
 4163TIP3    H212496   0.971   2.458   0.325
 4164TIP3   OH212497   2.200   2.662   0.528
 4164TIP3    H112498   2.161   2.589   0.479
 4164TIP3    H212499   2.198   2.736   0.467
 4165TIP3   OH212500   3.657   5.957   0.598
 4165TIP3    H112501   3.734   5.967   0.654
 4165TIP3    H212502   3.689   5.968   0.509
 4166TIP3   OH212503   4.446   2.664   3.490
 4166TIP3    H112504   4.393   2.698   3.562
 4166TIP3    H212505   4.506   2.602   3.531
 4167TIP3   OH212506   4.004   0.560   4.482
 4167TIP3    H112507   3.940   0.490   4.468
 4167TIP3    H212508   4.066   0.523   4.545
 4168TIP3   OH212509   1.439   5.750   1.708
 4168TIP3    H112510   1.345   5.761   1.700
 4168TIP3    H212511   1.451   5.697   1.787
 4169TIP3   OH212512   4.210   1.299   1.819
 4169TIP3    H112513   4.215   1.213   1.777
 4169TIP3    H212514   4.189   1.280   1.910
 4170TIP3   OH212515   5.193   1.094   0.177
 4170TIP3    H112516   5.154   1.160   0.235
 4170TIP3    H212517   5.280   1.080   0.214
 4171TIP3   OH212518   4.674   0.128   0.943
 4171TIP3    H112519   4.678   0.115   0.848
 4171TIP3    H212520   4.762   0.106   0.974
 4172TIP3   OH212521   5.844   1.494   4.244
 4172TIP3    H112522   5.857   1.562   4.311
 4172TIP3    H212523   5.874   1.534   4.163
 4173TIP3   OH212524   5.094   3.435   2.852
 4173TIP3    H112525   5.047   3.365   2.808
 4173TIP3    H212526   5.185   3.408   2.849
 4174TIP3   OH212527   1.740   1.854   1.195
 4174TIP3    H112528   1.655   1.852   1.150
 4174TIP3    H212529   1.736   1.930   1.251
 4175TIP3   OH212530   0.159   1.941   4.926
 4175TIP3    H112531   0.079   1.891   4.908
 4175TIP3    H212532   0.163   2.006   4.856
 4176TIP3   OH212533   0.005   0.983   4.378
 4176TIP3    H112534  -0.006   1.019   4.290
 4176TIP3    H212535   0.079   1.032   4.415
 4177TIP3   OH212536   4.094   5.106   1.184
 4177TIP3    H112537   4.046   5.162   1.122
 4177TIP3    H212538   4.171   5.078   1.135
 4178TIP3   OH212539   2.936   4.096   5.074
 4178TIP3    H112540   2.946   4.161   5.143
 4178TIP3    H212541   2.841   4.082   5.068
 4179TIP3   OH212542   4.144   1.619   0.768
 4179TIP3    H112543   4.225   1.623   0.819
 4179TIP3    H212544   4.132   1.707   0.734
 4180TIP3   OH212545  -0.018   1.770   1.626
 4180TIP3    H112546   0.047   1.755   1.694
 4180TIP3    H212547  -0.010   1.694   1.568
 4181TIP3   OH212548   4.776   5.144   0.264
 4181TIP3    H112549   4.773   5.049   0.276
 4181TIP3    H212550   4.857   5.159   0.215
 4182TIP3   OH212551   3.854   1.527   0.466
 4182TIP3    H112552   3.788   1.546   0.400
 4182TIP3    H212553   3.895   1.612   0.485
 4183TIP3   OH212554   3.440   3.793   1.550
 4183TIP3    H112555   3.395   3.871   1.585
 4183TIP3    H212556   3.406   3.721   1.603
 4184TIP3   OH212557   3.601   5.111   1.887
 4184TIP3    H112558   3.597   5.092   1.793
 4184TIP3    H212559   3.563   5.034   1.929
 4185TIP3   OH212560   1.278   5.246   0.700
 4185TIP3    H112561   1.284   5.275   0.609
 4185TIP3    H212562   1.354   5.188   0.711
 4186TIP3   OH212563   2.069   4.036   1.176
 4186TIP3    H112564   2.002   4.011   1.240
 4186TIP3    H212565   2.031   4.009   1.091
 4187TIP3   OH212566   1.761   1.607   0.481
 4187TIP3    H112567   1.851   1.582   0.462
 4187TIP3    H212568   1.767   1.698   0.512
 4188TIP3   OH212569   1.239   1.537   0.053
 4188TIP3    H112570   1.210   1.567  -0.033
 4188TIP3    H212571   1.271   1.448   0.038
 4189TIP3   OH212572   2.394   2.005   4.580
 4189TIP3    H112573   2.461   2.005   4.649
 4189TIP3    H212574   2.343   2.085   4.596
 4190TIP3   OH212575   1.792   2.517   0.921
 4190TIP3    H112576   1.701   2.532   0.948
 4190TIP3    H212577   1.836   2.489   1.001
 4191TIP3   OH212578   0.522   4.991   0.898
 4191TIP3    H112579   0.549   5.060   0.837
 4191TIP3    H212580   0.522   5.034   0.983
 4192TIP3   OH212581   5.488   5.292   0.903
 4192TIP3    H112582   5.479   5.321   0.994
 4192TIP3    H212583   5.398   5.285   0.871
 4193TIP3   OH212584   3.700   2.552   3.784
 4193TIP3    H112585   3.764   2.622   3.801
 4193TIP3    H212586   3.676   2.520   3.871
 4194TIP3   OH212587   3.614   5.827   4.528
 4194TIP3    H112588   3.540   5.880   4.556
 4194TIP3    H212589   3.608   5.824   4.433
 4195TIP3   OH212590   0.414   0.615   1.774
 4195TIP3    H112591   0.331   0.664   1.779
 4195TIP3    H212592   0.408   0.551   1.844
 4196TIP3   OH212593   3.463   0.083   4.405
 4196TIP3    H112594   3.455  -0.012   4.403
 4196TIP3    H212595   3.469   0.109   4.313
 4197TIP3   OH212596   2.763   3.154   3.672
 4197TIP3    H112597   2.795   3.081   3.726
 4197TIP3    H212598   2.811   3.230   3.706
 4198TIP3   OH212599   1.296   3.264   0.277
 4198TIP3    H112600   1.293   3.200   0.347
 4198TIP3    H212601   1.313   3.213   0.198
 4199TIP3   OH212602   3.646   4.478   2.562
 4199TIP3    H112603   3.610   4.421   2.493
 4199TIP3    H212604   3.741   4.465   2.557
 4200TIP3   OH212605   1.731   5.925   4.935
 4200TIP3    H112606   1.742   5.838   4.896
 4200TIP3    H212607   1.667   5.968   4.879
 4201TIP3   OH212608   4.852   4.692   3.034
 4201TIP3    H112609   4.768   4.682   3.079
 4201TIP3    H212610   4.835   4.756   2.965
 4202TIP3   OH212611   5.000   0.210   3.726
 4202TIP3    H112612   5.066   0.206   3.657
 4202TIP3    H212613   5.006   0.300   3.759
 4203TIP3   OH212614   1.791   4.167   0.068
 4203TIP3    H112615   1.763   4.082   0.033
 4203TIP3    H212616   1.715   4.200   0.114
 4204TIP3   OH212617   2.666   1.563   1.250
 4204TIP3    H112618   2.576   1.593   1.257
 4204TIP3    H212619   2.673   1.490   1.312
 4205TIP3   OH212620   3.430   5.119   4.887
 4205TIP3    H112621   3.501   5.120   4.951
 4205TIP3    H212622   3.424   5.028   4.858
 4206TIP3   OH212623   2.819   4.299   1.946
 4206TIP3    H112624   2.804   4.321   2.038
 4206TIP3    H212625   2.881   4.366   1.916
 4207TIP3   OH212626   1.115   3.895   4.778
 4207TIP3    H112627   1.100   3.981   4.817
 4207TIP3    H212628   1.200   3.904   4.735
 4208TIP3   OH212629   4.285   0.546   1.474
 4208TIP3    H112630   4.254   0.479   1.535
 4208TIP3    H212631   4.251   0.628   1.510
 4209TIP3   OH212632   0.182   5.005   2.464
 4209TIP3    H112633   0.250   5.058   2.422
 4209TIP3    H212634   0.100   5.036   2.425
 4210TIP3   OH212635   4.038   0.150   3.363
 4210TIP3    H112636   4.114   0.173   3.309
 4210TIP3    H212637   3.987   0.089   3.309
 4211TIP3   OH212638   5.493   5.339   4.638
 4211TIP3    H112639   5.569   5.283   4.624
 4211TIP3    H212640   5.526   5.415   4.686
 4212TIP3   OH212641   4.156   2.528   1.847
 4212TIP3    H112642   4.213   2.561   1.778
 4212TIP3    H212643   4.137   2.438   1.821
 4213TIP3   OH212644   6.097   0.471   3.806
 4213TIP3    H112645   6.119   0.554   3.849
 4213TIP3    H212646   6.022   0.492   3.750
 4214TIP3   OH212647   0.660   1.198   3.783
 4214TIP3    H112648   0.638   1.169   3.871
 4214TIP3    H212649   0.586   1.171   3.729
 4215TIP3   OH212650   0.417   3.949   4.091
 4215TIP3    H112651   0.344   3.904   4.047
 4215TIP3    H212652   0.384   3.966   4.179
 4216TIP3   OH212653   5.311   4.991   3.107
 4216TIP3    H112654   5.228   4.945   3.105
 4216TIP3    H212655   5.345   4.983   3.018
 4217TIP3   OH212656   2.843   1.891   0.881
 4217TIP3    H112657   2.869   1.812   0.929
 4217TIP3    H212658   2.847   1.865   0.788
 4218TIP3   OH212659   1.194   1.353   1.312
 4218TIP3    H112660   1.133   1.283   1.290
 4218TIP3    H212661   1.207   1.345   1.407
 4219TIP3   OH212662   1.446   2.046   4.164
 4219TIP3    H112663   1.511   2.116   4.167
 4219TIP3    H212664   1.482   1.982   4.103
 4220TIP3   OH212665   5.003   5.105   3.240
 4220TIP3    H112666   5.030   5.131   3.328
 4220TIP3    H212667   5.026   5.012   3.235
 4221TIP3   OH212668   5.514   5.704   3.071
 4221TIP3    H112669   5.474   5.699   3.158
 4221TIP3    H212670   5.600   5.744   3.087
 4222TIP3   OH212671   1.563   4.200   4.696
 4222TIP3    H112672   1.563   4.204   4.791
 4222TIP3    H212673   1.654   4.221   4.671
 4223TIP3   OH212674   0.380   4.024   1.700
 4223TIP3    H112675   0.365   4.039   1.793
 4223TIP3    H212676   0.419   3.936   1.696
 4224TIP3   OH212677   3.362   4.488   4.848
 4224TIP3    H112678   3.342   4.579   4.870
 4224TIP3    H212679   3.345   4.482   4.754
 4225TIP3   OH212680   1.830   4.767   1.690
 4225TIP3    H112681   1.900   4.827   1.666
 4225TIP3    H212682   1.874   4.684   1.705
 4226TIP3   OH212683   6.114   4.411   4.846
 4226TIP3    H112684   6.194   4.379   4.804
 4226TIP3    H212685   6.075   4.334   4.887
 4227TIP3   OH212686   0.919   2.442   2.645
 4227TIP3    H112687   1.003   2.397   2.641
 4227TIP3    H212688   0.865   2.398   2.579
 4228TIP3   OH212689   5.979   4.503   2.561
 4228TIP3    H112690   6.008   4.412   2.551
 4228TIP3    H212691   5.937   4.505   2.647
 4229TIP3   OH212692   0.487   1.222   1.983
 4229TIP3    H112693   0.579   1.238   1.963
 4229TIP3    H212694   0.442   1.301   1.953
 4230TIP3   OH212695   3.006   3.901   0.197
 4230TIP3    H112696   2.945   3.972   0.174
 4230TIP3    H212697   2.991   3.886   0.290
 4231TIP3   OH212698   2.687   1.479   0.745
 4231TIP3    H112699   2.638   1.487   0.827
 4231TIP3    H212700   2.631   1.428   0.687
 4232TIP3   OH212701   4.372   3.248   1.683
 4232TIP3    H112702   4.318   3.320   1.652
 4232TIP3    H212703   4.320   3.170   1.665
 4233TIP3   OH212704   2.161   0.098   4.569
 4233TIP3    H112705   2.257   0.105   4.573
 4233TIP3    H212706   2.135   0.161   4.502
 4234TIP3   OH212707   3.482  -0.041   3.330
 4234TIP3    H112708   3.527   0.043   3.324
 4234TIP3    H212709   3.389  -0.020   3.321
 4235TIP3   OH212710   6.019   5.638   2.962
 4235TIP3    H112711   6.031   5.589   2.880
 4235TIP3    H212712   6.070   5.589   3.026
 4236TIP3   OH212713   5.808   3.561   1.886
 4236TIP3    H112714   5.723   3.518   1.877
 4236TIP3    H212715   5.788   3.645   1.927
 4237TIP3   OH212716   2.570   3.183   0.533
 4237TIP3    H112717   2.600   3.152   0.448
 4237TIP3    H212718   2.554   3.104   0.584
 4238TIP3   OH212719   3.444   4.498   1.083
 4238TIP3    H112720   3.515   4.438   1.062
 4238TIP3    H212721   3.397   4.511   1.001
 4239TIP3   OH212722   1.978   4.810   4.712
 4239TIP3    H112723   1.909   4.788   4.775
 4239TIP3    H212724   1.989   4.904   4.720
 4240TIP3   OH212725   1.502   0.103   2.662
 4240TIP3    H112726   1.413   0.117   2.695
 4240TIP3    H212727   1.544   0.189   2.668
 4241TIP3   OH212728   1.468   3.936   3.339
 4241TIP3    H112729   1.478   4.029   3.355
 4241TIP3    H212730   1.396   3.930   3.275
 4242TIP3   OH212731   4.347   1.563   2.518
 4242TIP3    H112732   4.340   1.474   2.485
 4242TIP3    H212733   4.332   1.555   2.612
 4243TIP3   OH212734   5.382   3.625   2.679
 4243TIP3    H112735   5.436   3.700   2.703
 4243TIP3    H212736   5.308   3.662   2.631
 4244TIP3   OH212737   3.049   0.834   4.708
 4244TIP3    H112738   3.130   0.796   4.741
 4244TIP3    H212739   3.033   0.909   4.765
 4245TIP3   OH212740   3.513   1.083   4.284
 4245TIP3    H112741   3.596   1.052   4.249
 4245TIP3    H212742   3.452   1.010   4.272
 4246TIP3   OH212743   0.968   5.777   3.887
 4246TIP3    H112744   0.916   5.814   3.815
 4246TIP3    H212745   1.030   5.718   3.845
 4247TIP3   OH212746   1.312   4.849   3.641
 4247TIP3    H112747   1.301   4.872   3.733
 4247TIP3    H212748   1.231   4.805   3.617
 4248TIP3   OH212749   0.886   0.510   1.076
 4248TIP3    H112750   0.832   0.453   1.021
 4248TIP3    H212751   0.964   0.527   1.024
 4249TIP3   OH212752   5.380   1.100   0.952
 4249TIP3    H112753   5.379   1.004   0.948
 4249TIP3    H212754   5.470   1.122   0.977
 4250TIP3   OH212755   1.148   4.491   2.754
 4250TIP3    H112756   1.135   4.399   2.778
 4250TIP3    H212757   1.074   4.537   2.793
 4251TIP3   OH212758   0.843   2.126   2.338
 4251TIP3    H112759   0.804   2.050   2.295
 4251TIP3    H212760   0.931   2.098   2.362
 4252TIP3   OH212761   2.526   3.662   0.368
 4252TIP3    H112762   2.434   3.677   0.350
 4252TIP3    H212763   2.572   3.727   0.315
 4253TIP3   OH212764   1.601   5.088   3.071
 4253TIP3    H112765   1.564   5.002   3.087
 4253TIP3    H212766   1.533   5.149   3.098
 4254TIP3   OH212767   1.488   0.353   4.530
 4254TIP3    H112768   1.428   0.279   4.526
 4254TIP3    H212769   1.451   0.410   4.598
 4255TIP3   OH212770   2.480   2.986   0.679
 4255TIP3    H112771   2.465   2.964   0.771
 4255TIP3    H212772   2.394   2.982   0.639
 4256TIP3   OH212773   0.187   5.349   2.050
 4256TIP3    H112774   0.113   5.311   2.002
 4256TIP3    H212775   0.165   5.442   2.058
 4257TIP3   OH212776   3.959   0.225   2.354
 4257TIP3    H112777   3.973   0.280   2.431
 4257TIP3    H212778   3.874   0.184   2.370
 4258TIP3   OH212779   2.671   4.224   3.501
 4258TIP3    H112780   2.682   4.271   3.583
 4258TIP3    H212781   2.705   4.136   3.518
 4259TIP3   OH212782   6.043   3.214   2.014
 4259TIP3    H112783   5.964   3.249   2.054
 4259TIP3    H212784   6.012   3.147   1.953
 4260TIP3   OH212785   6.015   2.339   3.467
 4260TIP3    H112786   5.999   2.312   3.557
 4260TIP3    H212787   6.076   2.273   3.433
 4261TIP3   OH212788   0.084   3.376   4.414
 4261TIP3    H112789  -0.001   3.416   4.395
 4261TIP3    H212790   0.063   3.289   4.449
 4262TIP3   OH212791   6.221   4.326   0.237
 4262TIP3    H112792   6.282   4.379   0.290
 4262TIP3    H212793   6.277   4.281   0.174
 4263TIP3   OH212794   4.597   2.513   2.486
 4263TIP3    H112795   4.615   2.438   2.428
 4263TIP3    H212796   4.683   2.537   2.521
 4264TIP3   OH212797   4.265   3.881   1.365
 4264TIP3    H112798   4.170   3.886   1.374
 4264TIP3    H212799   4.299   3.934   1.437
 4265TIP3   OH212800   5.015   4.094   3.688
 4265TIP3    H112801   4.943   4.034   3.672
 4265TIP3    H212802   4.973   4.175   3.717
 4266TIP3   OH212803   1.820   5.799   2.791
 4266TIP3    H112804   1.816   5.865   2.860
 4266TIP3    H212805   1.749   5.739   2.811
 4267TIP3   OH212806   5.268   4.606   3.863
 4267TIP3    H112807   5.326   4.533   3.841
 4267TIP3    H212808   5.206   4.570   3.926
 4268TIP3   OH212809   5.311   4.243   2.428
 4268TIP3    H112810   5.280   4.305   2.495
 4268TIP3    H212811   5.232   4.197   2.400
 4269TIP3   OH212812   0.045   1.941   3.834
 4269TIP3    H112813   0.081   2.024   3.867
 4269TIP3    H212814  -0.001   1.903   3.908
 4270TIP3   OH212815   1.828   4.114   1.995
 4270TIP3    H112816   1.735   4.103   2.011
 4270TIP3    H212817   1.869   4.038   2.036
 4271TIP3   OH212818   6.066   2.152   4.400
 4271TIP3    H112819   6.109   2.228   4.440
 4271TIP3    H212820   5.991   2.134   4.458
 4272TIP3   OH212821   2.771   2.835   1.224
 4272TIP3    H112822   2.834   2.842   1.297
 4272TIP3    H212823   2.688   2.815   1.267
 4273TIP3   OH212824   1.185   5.789   4.687
 4273TIP3    H112825   1.200   5.798   4.593
 4273TIP3    H212826   1.110   5.846   4.704
 4274TIP3   OH212827   1.745   4.914   3.329
 4274TIP3    H112828   1.735   4.956   3.414
 4274TIP3    H212829   1.785   4.981   3.274
 4275TIP3   OH212830   3.657   0.663   3.146
 4275TIP3    H112831   3.655   0.709   3.230
 4275TIP3    H212832   3.716   0.715   3.092
 4276TIP3   OH212833   5.407   1.008   2.594
 4276TIP3    H112834   5.420   1.103   2.590
 4276TIP3    H212835   5.480   0.972   2.544
 4277TIP3   OH212836   3.280   5.725   5.049
 4277TIP3    H112837   3.219   5.720   4.976
 4277TIP3    H212838   3.317   5.813   5.044
 4278TIP3   OH212839   1.317   3.578   3.095
 4278TIP3    H112840   1.297   3.616   3.010
 4278TIP3    H212841   1.377   3.506   3.076
 4279TIP3   OH212842   5.919   4.829   2.255
 4279TIP3    H112843   5.994   4.889   2.251
 4279TIP3    H212844   5.846   4.880   2.220
 4280TIP3   OH212845   1.413   0.064   4.387
 4280TIP3    H112846   1.397  -0.012   4.332
 4280TIP3    H212847   1.370   0.136   4.342
 4281TIP3   OH212848   1.862   3.681   3.039
 4281TIP3    H112849   1.811   3.750   3.082
 4281TIP3    H212850   1.941   3.725   3.008
 4282TIP3   OH212851   3.961   4.475   2.498
 4282TIP3    H112852   4.037   4.533   2.486
 4282TIP3    H212853   3.986   4.394   2.454
 4283TIP3   OH212854   3.967   5.816   4.830
 4283TIP3    H112855   3.883   5.780   4.801
 4283TIP3    H212856   3.950   5.849   4.918
 4284TIP3   OH212857   5.584   0.230   1.340
 4284TIP3    H112858   5.561   0.303   1.282
 4284TIP3    H212859   5.588   0.154   1.283
 4285TIP3   OH212860   0.409   3.858   2.129
 4285TIP3    H112861   0.344   3.790   2.110
 4285TIP3    H212862   0.413   3.862   2.225
 4286TIP3   OH212863   3.919   5.931   1.593
 4286TIP3    H112864   4.007   5.932   1.557
 4286TIP3    H212865   3.931   5.930   1.688
 4287TIP3   OH212866   0.841   3.772   4.757
 4287TIP3    H112867   0.930   3.806   4.766
 4287TIP3    H212868   0.850   3.697   4.699
 4288TIP3   OH212869   1.308   3.727   4.447
 4288TIP3    H112870   1.280   3.802   4.394
 4288TIP3    H212871   1.371   3.681   4.392
 4289TIP3   OH212872   2.540   5.688   1.697
 4289TIP3    H112873   2.571   5.662   1.610
 4289TIP3    H212874   2.511   5.779   1.685
 4290TIP3   OH212875   3.059   4.334   3.911
 4290TIP3    H112876   3.037   4.393   3.839
 4290TIP3    H212877   3.057   4.247   3.872
 4291TIP3   OH212878   3.300   1.207   3.621
 4291TIP3    H112879   3.318   1.301   3.620
 4291TIP3    H212880   3.204   1.201   3.623
 4292TIP3   OH212881   4.830   2.500   3.348
 4292TIP3    H112882   4.840   2.420   3.296
 4292TIP3    H212883   4.919   2.520   3.377
 4293TIP3   OH212884   5.758   4.585   3.287
 4293TIP3    H112885   5.775   4.499   3.248
 4293TIP3    H212886   5.669   4.607   3.258
 4294TIP3   OH212887   1.651   2.608   3.576
 4294TIP3    H112888   1.734   2.656   3.583
 4294TIP3    H212889   1.620   2.627   3.487
 4295TIP3   OH212890   0.699   2.847   2.924
 4295TIP3    H112891   0.743   2.847   3.009
 4295TIP3    H212892   0.748   2.783   2.872
 4296TIP3   OH212893   1.655   4.686   3.167
 4296TIP3    H112894   1.672   4.740   3.244
 4296TIP3    H212895   1.741   4.660   3.135
 4297TIP3   OH212896   3.579   0.565   4.729
 4297TIP3    H112897   3.580   0.648   4.777
 4297TIP3    H212898   3.575   0.590   4.637
 4298TIP3   OH212899   1.996   5.214   3.517
 4298TIP3    H112900   1.914   5.170   3.491
 4298TIP3    H212901   2.032   5.248   3.435
 4299TIP3   OH212902   1.510   4.834   3.892
 4299TIP3    H112903   1.456   4.766   3.851
 4299TIP3    H212904   1.560   4.787   3.959
 4300TIP3   OH212905   3.882   5.337   2.232
 4300TIP3    H112906   3.910   5.418   2.275
 4300TIP3    H212907   3.865   5.276   2.304
 4301TIP3   OH212908   5.413   5.754   4.583
 4301TIP3    H112909   5.357   5.743   4.506
 4301TIP3    H212910   5.358   5.802   4.645
 4302TIP3   OH212911   5.247   2.407   3.138
 4302TIP3    H112912   5.228   2.323   3.097
 4302TIP3    H212913   5.305   2.385   3.211
 4303TIP3   OH212914   1.550   3.626   0.646
 4303TIP3    H112915   1.570   3.572   0.569
 4303TIP3    H212916   1.455   3.630   0.648
 4304TIP3   OH212917   3.511   5.841   0.350
 4304TIP3    H112918   3.594   5.883   0.326
 4304TIP3    H212919   3.453   5.914   0.370
 4305TIP3   OH212920   1.033   0.084   0.974
 4305TIP3    H112921   0.966   0.015   0.973
 4305TIP3    H212922   1.015   0.134   1.054
 4306TIP3   OH212923   2.623   1.553   5.167
 4306TIP3    H112924   2.604   1.646   5.151
 4306TIP3    H212925   2.671   1.526   5.088
 4307TIP3   OH212926   2.275   1.175   2.229
 4307TIP3    H112927   2.220   1.127   2.290
 4307TIP3    H212928   2.345   1.212   2.284
 4308TIP3   OH212929   4.065   5.723   2.048
 4308TIP3    H112930   4.068   5.804   2.098
 4308TIP3    H212931   4.155   5.689   2.053
 4309TIP3   OH212932   5.762   2.799   2.945
 4309TIP3    H112933   5.856   2.800   2.931
 4309TIP3    H212934   5.724   2.798   2.857
 4310TIP3   OH212935   1.130   5.797   1.761
 4310TIP3    H112936   1.098   5.759   1.843
 4310TIP3    H212937   1.141   5.890   1.780
 4311TIP3   OH212938   5.841   3.317   0.050
 4311TIP3    H112939   5.838   3.345  -0.042
 4311TIP3    H212940   5.827   3.223   0.048
 4312TIP3   OH212941   2.211   2.348   1.007
 4312TIP3    H112942   2.217   2.395   0.924
 4312TIP3    H212943   2.299   2.354   1.044
 4313TIP3   OH212944   4.227   2.278   4.143
 4313TIP3    H112945   4.261   2.330   4.069
 4313TIP3    H212946   4.168   2.215   4.102
 4314TIP3   OH212947   2.853   0.516   1.351
 4314TIP3    H112948   2.789   0.557   1.292
 4314TIP3    H212949   2.936   0.519   1.303
 4315TIP3   OH212950   4.314   2.334   4.398
 4315TIP3    H112951   4.250   2.307   4.332
 4315TIP3    H212952   4.381   2.381   4.349
 4316TIP3   OH212953   0.802   5.286   3.117
 4316TIP3    H112954   0.828   5.252   3.031
 4316TIP3    H212955   0.723   5.337   3.101
 4317TIP3   OH212956   5.257   5.231   4.709
 4317TIP3    H112957   5.343   5.260   4.681
 4317TIP3    H212958   5.272   5.188   4.793
 4318TIP3   OH212959   5.997   1.321   4.856
 4318TIP3    H112960   5.947   1.295   4.779
 4318TIP3    H212961   5.992   1.245   4.914
 4319TIP3   OH212962   3.605   4.101   1.424
 4319TIP3    H112963   3.637   4.015   1.452
 4319TIP3    H212964   3.542   4.081   1.354
 4320TIP3   OH212965   3.826   4.522   3.813
 4320TIP3    H112966   3.836   4.493   3.904
 4320TIP3    H212967   3.879   4.602   3.808
 4321TIP3   OH212968   3.359   3.979   0.561
 4321TIP3    H112969   3.365   3.979   0.656
 4321TIP3    H212970   3.448   3.997   0.531
 4322TIP3   OH212971   6.164   2.650   5.037
 4322TIP3    H112972   6.242   2.661   5.091
 4322TIP3    H212973   6.194   2.665   4.948
 4323TIP3   OH212974   2.000   3.978   0.930
 4323TIP3    H112975   1.960   3.991   0.844
 4323TIP3    H212976   2.016   3.884   0.934
 4324TIP3   OH212977   5.184   0.855  -0.001
 4324TIP3    H112978   5.181   0.941   0.041
 4324TIP3    H212979   5.114   0.857  -0.066
 4325TIP3   OH212980   1.972   0.022   1.350
 4325TIP3    H112981   1.912  -0.043   1.315
 4325TIP3    H212982   1.920   0.070   1.415
 4326TIP3   OH212983   2.288   0.162   2.170
 4326TIP3    H112984   2.265   0.233   2.110
 4326TIP3    H212985   2.383   0.168   2.180
 4327TIP3   OH212986   3.091   1.125   0.394
 4327TIP3    H112987   3.146   1.161   0.324
 4327TIP3    H212988   3.013   1.181   0.394
 4328TIP3   OH212989   6.132   1.357   2.804
 4328TIP3    H112990   6.115   1.421   2.873
 4328TIP3    H212991   6.227   1.357   2.795
 4329TIP3   OH212992   3.115   5.087   2.260
 4329TIP3    H112993   3.110   5.121   2.349
 4329TIP3    H212994   3.107   5.165   2.204
 4330TIP3   OH212995   0.944   4.731   1.707
 4330TIP3    H112996   0.995   4.697   1.780
 4330TIP3    H212997   0.875   4.783   1.749
 4331TIP3   OH212998  -0.001   2.006   0.788
 4331TIP3    H112999  -0.037   1.960   0.863
 4331TIP3    H213000   0.037   2.086   0.824
 4332TIP3   OH213001   4.080   5.580   1.400
 4332TIP3    H113002   3.991   5.592   1.432
 4332TIP3    H213003   4.084   5.636   1.322
 4333TIP3   OH213004   0.696   5.114   0.272
 4333TIP3    H113005   0.632   5.153   0.331
 4333TIP3    H213006   0.738   5.046   0.324
 4334TIP3   OH213007   2.186   2.829   1.877
 4334TIP3    H113008   2.189   2.739   1.908
 4334TIP3    H213009   2.189   2.822   1.782
 4335TIP3   OH213010   5.005   2.377   0.221
 4335TIP3    H113011   5.072   2.443   0.238
 4335TIP3    H213012   5.023   2.306   0.283
 4336TIP3   OH213013   5.663   1.543   1.788
 4336TIP3    H113014   5.740   1.516   1.738
 4336TIP3    H213015   5.609   1.590   1.724
 4337TIP3   OH213016   5.243   2.199   4.760
 4337TIP3    H113017   5.280   2.285   4.741
 4337TIP3    H213018   5.179   2.185   4.691
 4338TIP3   OH213019   2.282   0.425   3.173
 4338TIP3    H113020   2.343   0.440   3.245
 4338TIP3    H213021   2.280   0.330   3.163
 4339TIP3   OH213022   0.696   4.290   4.187
 4339TIP3    H113023   0.693   4.297   4.091
 4339TIP3    H213024   0.774   4.340   4.212
 4340TIP3   OH213025   0.631   1.165   1.026
 4340TIP3    H113026   0.696   1.134   1.088
 4340TIP3    H213027   0.583   1.233   1.073
 4341TIP3   OH213028   2.655   0.122   2.936
 4341TIP3    H113029   2.572   0.169   2.921
 4341TIP3    H213030   2.722   0.180   2.901
 4342TIP3   OH213031   5.418   0.535   1.308
 4342TIP3    H113032   5.454   0.556   1.221
 4342TIP3    H213033   5.468   0.590   1.368
 4343TIP3   OH213034   2.249   3.114   3.719
 4343TIP3    H113035   2.326   3.074   3.678
 4343TIP3    H213036   2.212   3.171   3.652
 4344TIP3   OH213037   5.081   2.939   1.488
 4344TIP3    H113038   5.019   3.005   1.456
 4344TIP3    H213039   5.029   2.885   1.548
 4345TIP3   OH213040   1.977   2.592   2.106
 4345TIP3    H113041   2.024   2.618   2.185
 4345TIP3    H213042   2.046   2.565   2.045
 4346TIP3   OH213043   1.183   0.676   1.431
 4346TIP3    H113044   1.205   0.636   1.346
 4346TIP3    H213045   1.106   0.629   1.461
 4347TIP3   OH213046   0.948   2.382   1.311
 4347TIP3    H113047   0.973   2.292   1.289
 4347TIP3    H213048   0.853   2.380   1.317
 4348TIP3   OH213049   2.924   1.020   0.586
 4348TIP3    H113050   2.903   1.039   0.677
 4348TIP3    H213051   2.996   1.080   0.564
 4349TIP3   OH213052   4.325   0.435   4.988
 4349TIP3    H113053   4.384   0.360   4.995
 4349TIP3    H213054   4.239   0.397   4.972
 4350TIP3   OH213055   5.347   2.914   0.288
 4350TIP3    H113056   5.253   2.933   0.276
 4350TIP3    H213057   5.364   2.843   0.225
 4351TIP3   OH213058   3.132   5.199   4.410
 4351TIP3    H113059   3.041   5.171   4.401
 4351TIP3    H213060   3.180   5.119   4.431
 4352TIP3   OH213061   1.406   2.351   1.781
 4352TIP3    H113062   1.348   2.426   1.794
 4352TIP3    H213063   1.348   2.281   1.751
 4353TIP3   OH213064   5.080   4.788   4.789
 4353TIP3    H113065   5.002   4.773   4.843
 4353TIP3    H213066   5.098   4.882   4.798
 4354TIP3   OH213067   2.087   5.439   1.555
 4354TIP3    H113068   2.141   5.476   1.625
 4354TIP3    H213069   2.064   5.513   1.500
 4355TIP3   OH213070   3.779   3.213   4.772
 4355TIP3    H113071   3.830   3.211   4.691
 4355TIP3    H213072   3.814   3.141   4.825
 4356TIP3   OH213073   5.762   3.436   3.614
 4356TIP3    H113074   5.673   3.450   3.648
 4356TIP3    H213075   5.816   3.424   3.692
 4357TIP3   OH213076   1.713   3.878   0.617
 4357TIP3    H113077   1.749   3.795   0.650
 4357TIP3    H213078   1.708   3.866   0.523
 4358TIP3   OH213079   1.370   0.521   2.529
 4358TIP3    H113080   1.342   0.470   2.454
 4358TIP3    H213081   1.391   0.607   2.493
 4359TIP3   OH213082   4.725   0.866   3.408
 4359TIP3    H113083   4.775   0.816   3.343
 4359TIP3    H213084   4.723   0.809   3.485
 4360TIP3   OH213085   3.140   1.491   4.202
 4360TIP3    H113086   3.065   1.543   4.231
 4360TIP3    H213087   3.204   1.556   4.174
 4361TIP3   OH213088   3.932   4.257   3.285
 4361TIP3    H113089   3.876   4.325   3.247
 4361TIP3    H213090   4.003   4.246   3.222
 4362TIP3   OH213091   0.898  -0.002   4.632
 4362TIP3    H113092   0.932  -0.046   4.710
 4362TIP3    H213093   0.972   0.050   4.600
 4363TIP3   OH213094   5.646   0.291   0.524
 4363TIP3    H113095   5.569   0.336   0.488
 4363TIP3    H213096   5.628   0.284   0.618
 4364TIP3   OH213097   3.958   1.334   4.853
 4364TIP3    H113098   3.981   1.393   4.781
 4364TIP3    H213099   3.940   1.392   4.927
 4365TIP3   OH213100   4.817   4.366   2.731
 4365TIP3    H113101   4.807   4.274   2.704
 4365TIP3    H213102   4.729   4.391   2.759
 4366TIP3   OH213103   0.661   1.506   0.846
 4366TIP3    H113104   0.691   1.442   0.781
 4366TIP3    H213105   0.731   1.508   0.911
 4367TIP3   OH213106   4.539   4.746   4.474
 4367TIP3    H113107   4.455   4.789   4.491
 4367TIP3    H213108   4.522   4.654   4.493
 4368TIP3   OH213109   5.851   2.365   4.260
 4368TIP3    H113110   5.858   2.389   4.352
 4368TIP3    H213111   5.794   2.288   4.259
 4369TIP3   OH213112   6.024   4.185   5.018
 4369TIP3    H113113   5.946   4.231   5.050
 4369TIP3    H213114   6.086   4.189   5.090
 4370TIP3   OH213115   3.252   5.837   0.616
 4370TIP3    H113116   3.210   5.773   0.673
 4370TIP3    H213117   3.201   5.835   0.535
 4371TIP3   OH213118   0.327   2.769   0.509
 4371TIP3    H113119   0.421   2.750   0.500
 4371TIP3    H213120   0.295   2.700   0.567
 4372TIP3   OH213121   3.423   5.233   1.528
 4372TIP3    H113122   3.404   5.285   1.607
 4372TIP3    H213123   3.351   5.251   1.469
 4373TIP3   OH213124   1.342   0.778   3.162
 4373TIP3    H113125   1.306   0.696   3.197
 4373TIP3    H213126   1.429   0.754   3.131
 4374TIP3   OH213127   2.047   0.419   0.034
 4374TIP3    H113128   2.034   0.371   0.115
 4374TIP3    H213129   1.980   0.385  -0.026
 4375TIP3   OH213130   4.874   2.567   0.504
 4375TIP3    H113131   4.960   2.536   0.532
 4375TIP3    H213132   4.887   2.595   0.414
 4376TIP3   OH213133   5.724   0.384   3.864
 4376TIP3    H113134   5.764   0.408   3.948
 4376TIP3    H213135   5.631   0.376   3.883
 4377TIP3   OH213136   2.727   2.738   2.924
 4377TIP3    H113137   2.668   2.786   2.983
 4377TIP3    H213138   2.812   2.742   2.968
 4378TIP3   OH213139   0.390   4.204   0.076
 4378TIP3    H113140   0.350   4.180   0.159
 4378TIP3    H213141   0.480   4.230   0.098
 4379TIP3   OH213142   1.496   4.319   4.042
 4379TIP3    H113143   1.409   4.350   4.018
 4379TIP3    H213144   1.480   4.233   4.082
 4380TIP3   OH213145   1.211   1.598   4.534
 4380TIP3    H113146   1.227   1.507   4.509
 4380TIP3    H213147   1.296   1.641   4.522
 4381TIP3   OH213148   1.039   4.136   0.374
 4381TIP3    H113149   1.111   4.081   0.344
 4381TIP3    H213150   1.066   4.168   0.460
 4382TIP3   OH213151   0.368   5.888   2.761
 4382TIP3    H113152   0.283   5.931   2.763
 4382TIP3    H213153   0.363   5.823   2.831
 4383TIP3   OH213154   5.122   3.234   0.204
 4383TIP3    H113155   5.045   3.252   0.150
 4383TIP3    H213156   5.094   3.162   0.260
 4384TIP3   OH213157   0.961   3.567   2.298
 4384TIP3    H113158   0.995   3.567   2.209
 4384TIP3    H213159   1.035   3.596   2.352
 4385TIP3   OH213160   4.654   4.329   3.944
 4385TIP3    H113161   4.670   4.415   3.983
 4385TIP3    H213162   4.691   4.267   4.007
 4386TIP3   OH213163   1.373   0.817   0.404
 4386TIP3    H113164   1.430   0.814   0.327
 4386TIP3    H213165   1.403   0.745   0.460
 4387TIP3   OH213166   3.437   5.438   1.751
 4387TIP3    H113167   3.518   5.430   1.802
 4387TIP3    H213168   3.381   5.368   1.783
 4388TIP3   OH213169   0.976   2.866   1.532
 4388TIP3    H113170   1.052   2.879   1.588
 4388TIP3    H213171   0.995   2.785   1.485
 4389TIP3   OH213172   2.280   4.089   1.691
 4389TIP3    H113173   2.197   4.053   1.662
 4389TIP3    H213174   2.329   4.104   1.610
 4390TIP3   OH213175   4.565   4.755   3.128
 4390TIP3    H113176   4.604   4.831   3.172
 4390TIP3    H213177   4.509   4.715   3.194
 4391TIP3   OH213178   1.662   1.111   0.768
 4391TIP3    H113179   1.731   1.065   0.815
 4391TIP3    H213180   1.580   1.075   0.804
 4392TIP3   OH213181   5.438   4.072   2.875
 4392TIP3    H113182   5.386   4.145   2.842
 4392TIP3    H213183   5.375   4.013   2.915
 4393TIP3   OH213184   2.407   0.230   2.860
 4393TIP3    H113185   2.417   0.194   2.772
 4393TIP3    H213186   2.366   0.316   2.846
 4394TIP3   OH213187   3.235   3.445   3.120
 4394TIP3    H113188   3.143   3.469   3.108
 4394TIP3    H213189   3.267   3.429   3.032
 4395TIP3   OH213190   3.422   4.150   1.190
 4395TIP3    H113191   3.355   4.203   1.146
 4395TIP3    H213192   3.487   4.132   1.121
 4396TIP3   OH213193   1.198   3.493   2.458
 4396TIP3    H113194   1.223   3.580   2.489
 4396TIP3    H213195   1.176   3.445   2.537
 4397TIP3   OH213196   1.364   5.505   1.554
 4397TIP3    H113197   1.289   5.446   1.549
 4397TIP3    H213198   1.329   5.591   1.533
 4398TIP3   OH213199   4.032   3.156   2.588
 4398TIP3    H113200   4.109   3.164   2.531
 4398TIP3    H213201   3.983   3.083   2.550
 4399TIP3   OH213202   3.679   2.449   5.204
 4399TIP3    H113203   3.729   2.368   5.189
 4399TIP3    H213204   3.666   2.486   5.117
 4400TIP3   OH213205   0.080   1.629   4.694
 4400TIP3    H113206   0.137   1.611   4.769
 4400TIP3    H213207  -0.008   1.628   4.732
 4401TIP3   OH213208   1.888   4.732   3.714
 4401TIP3    H113209   1.863   4.802   3.774
 4401TIP3    H213210   1.815   4.670   3.719
 4402TIP3   OH213211   3.541   1.950   0.341
 4402TIP3    H113212   3.577   2.034   0.316
 4402TIP3    H213213   3.479   1.928   0.270
 4403TIP3   OH213214   2.084   1.635   0.989
 4403TIP3    H113215   2.047   1.564   0.936
 4403TIP3    H213216   2.171   1.604   1.013
 4404TIP3   OH213217   2.521   3.714   1.597
 4404TIP3    H113218   2.434   3.751   1.582
 4404TIP3    H213219   2.577   3.755   1.531
 4405TIP3   OH213220   0.276   4.277   3.050
 4405TIP3    H113221   0.225   4.322   3.118
 4405TIP3    H213222   0.358   4.254   3.094
 4406TIP3   OH213223   3.254   2.335   0.367
 4406TIP3    H113224   3.284   2.373   0.284
 4406TIP3    H213225   3.230   2.245   0.345
 4407TIP3   OH213226   3.757   5.126   1.017
 4407TIP3    H113227   3.844   5.165   1.008
 4407TIP3    H213228   3.763   5.042   0.972
 4408TIP3   OH213229   5.147   5.439  -0.013
 4408TIP3    H113230   5.138   5.516  -0.068
 4408TIP3    H213231   5.138   5.472   0.076
 4409TIP3   OH213232   1.068   3.004   0.156
 4409TIP3    H113233   1.029   3.056   0.226
 4409TIP3    H213234   1.031   2.917   0.167
 4410TIP3   OH213235   2.830   4.978   3.476
 4410TIP3    H113236   2.788   4.986   3.562
 4410TIP3    H213237   2.784   4.906   3.433
 4411TIP3   OH213238   3.597   3.784   4.689
 4411TIP3    H113239   3.679   3.832   4.677
 4411TIP3    H213240   3.601   3.713   4.625
 4412TIP3   OH213241   4.094   2.785   2.579
 4412TIP3    H113242   4.183   2.816   2.597
 4412TIP3    H213243   4.072   2.732   2.656
 4413TIP3   OH213244   5.672   3.280   4.631
 4413TIP3    H113245   5.674   3.286   4.726
 4413TIP3    H213246   5.623   3.200   4.613
 4414TIP3   OH213247   3.827   4.739   1.661
 4414TIP3    H113248   3.905   4.794   1.652
 4414TIP3    H213249   3.796   4.727   1.571
 4415TIP3   OH213250   0.836   4.787   4.772
 4415TIP3    H113251   0.878   4.736   4.841
 4415TIP3    H213252   0.866   4.877   4.786
 4416TIP3   OH213253   6.311   4.766   2.231
 4416TIP3    H113254   6.227   4.774   2.188
 4416TIP3    H213255   6.291   4.770   2.325
 4417TIP3   OH213256   3.086   0.687   4.482
 4417TIP3    H113257   3.098   0.750   4.554
 4417TIP3    H213258   3.175   0.665   4.454
 4418TIP3   OH213259   2.167   3.607   4.504
 4418TIP3    H113260   2.133   3.588   4.417
 4418TIP3    H213261   2.209   3.525   4.531
 4419TIP3   OH213262   3.533   4.235   0.336
 4419TIP3    H113263   3.578   4.312   0.301
 4419TIP3    H213264   3.515   4.181   0.260
 4420TIP3   OH213265   3.952   3.571   3.807
 4420TIP3    H113266   3.883   3.606   3.863
 4420TIP3    H213267   3.914   3.492   3.768
 4421TIP3   OH213268   5.262   5.837   4.817
 4421TIP3    H113269   5.228   5.750   4.798
 4421TIP3    H213270   5.251   5.847   4.911
 4422TIP3   OH213271   4.683   4.077   0.321
 4422TIP3    H113272   4.625   4.150   0.344
 4422TIP3    H213273   4.639   4.033   0.248
 4423TIP3   OH213274   2.673   5.269   5.013
 4423TIP3    H113275   2.655   5.178   5.037
 4423TIP3    H213276   2.662   5.317   5.096
 4424TIP3   OH213277   1.177   3.330   2.681
 4424TIP3    H113278   1.251   3.270   2.674
 4424TIP3    H213279   1.196   3.384   2.757
 4425TIP3   OH213280   4.181   5.959   1.081
 4425TIP3    H113281   4.269   5.971   1.045
 4425TIP3    H213282   4.174   5.864   1.096
 4426TIP3   OH213283   1.587   4.420   3.211
 4426TIP3    H113284   1.596   4.514   3.196
 4426TIP3    H213285   1.677   4.389   3.224
 4427TIP3   OH213286   2.487   2.078   0.761
 4427TIP3    H113287   2.581   2.093   0.752
 4427TIP3    H213288   2.470   2.088   0.854
 4428TIP3   OH213289   2.554   3.640   0.907
 4428TIP3    H113290   2.544   3.575   0.977
 4428TIP3    H213291   2.647   3.635   0.884
 4429TIP3   OH213292   5.310   3.482   0.119
 4429TIP3    H113293   5.359   3.409   0.157
 4429TIP3    H213294   5.237   3.441   0.074
 4430TIP3   OH213295   2.011   1.276   3.737
 4430TIP3    H113296   1.924   1.236   3.737
 4430TIP3    H213297   2.052   1.245   3.656
 4431TIP3   OH213298   0.917   4.472   0.605
 4431TIP3    H113299   0.899   4.559   0.640
 4431TIP3    H213300   0.833   4.426   0.611
 4432TIP3   OH213301   4.945   1.595   4.121
 4432TIP3    H113302   4.871   1.634   4.169
 4432TIP3    H213303   4.957   1.652   4.046
 4433TIP3   OH213304   4.444   1.673   4.540
 4433TIP3    H113305   4.528   1.629   4.522
 4433TIP3    H213306   4.391   1.655   4.462
 4434TIP3   OH213307   6.045   4.912   0.190
 4434TIP3    H113308   6.105   4.981   0.160
 4434TIP3    H213309   6.099   4.834   0.193
 4435TIP3   OH213310   1.152   2.666   0.475
 4435TIP3    H113311   1.198   2.591   0.513
 4435TIP3    H213312   1.153   2.649   0.380
 4436TIP3   OH213313   6.327   1.175   3.855
 4436TIP3    H113314   6.413   1.151   3.820
 4436TIP3    H213315   6.288   1.229   3.786
 4437TIP3   OH213316   5.632   5.711   5.097
 4437TIP3    H113317   5.697   5.655   5.141
 4437TIP3    H213318   5.676   5.796   5.089
 4438TIP3   OH213319   1.443   2.854   1.246
 4438TIP3    H113320   1.475   2.855   1.337
 4438TIP3    H213321   1.472   2.938   1.210
 4439TIP3   OH213322   6.215   5.116   4.805
 4439TIP3    H113323   6.300   5.120   4.848
 4439TIP3    H213324   6.210   5.028   4.770
 4440TIP3   OH213325   5.982   0.226   3.473
 4440TIP3    H113326   6.031   0.282   3.413
 4440TIP3    H213327   5.916   0.183   3.418
 4441TIP3   OH213328   0.504   5.678   4.962
 4441TIP3    H113329   0.560   5.610   5.000
 4441TIP3    H213330   0.445   5.630   4.903
 4442TIP3   OH213331   6.089   3.070   3.162
 4442TIP3    H113332   6.170   3.116   3.186
 4442TIP3    H213333   6.087   2.994   3.220
 4443TIP3   OH213334   4.011   3.612   2.729
 4443TIP3    H113335   3.956   3.534   2.736
 4443TIP3    H213336   3.955   3.683   2.760
 4444TIP3   OH213337   1.443   3.486   2.031
 4444TIP3    H113338   1.494   3.440   2.098
 4444TIP3    H213339   1.506   3.542   1.986
 4445TIP3   OH213340   3.947   3.194   4.224
 4445TIP3    H113341   3.935   3.135   4.298
 4445TIP3    H213342   3.879   3.260   4.235
 4446TIP3   OH213343   3.227   2.051   0.293
 4446TIP3    H113344   3.240   1.994   0.370
 4446TIP3    H213345   3.300   2.029   0.235
 4447TIP3   OH213346   2.139   1.879   0.000
 4447TIP3    H113347   2.184   1.926   0.070
 4447TIP3    H213348   2.051   1.862   0.035
 4448TIP3   OH213349   4.273   5.402   0.991
 4448TIP3    H113350   4.321   5.325   0.962
 4448TIP3    H213351   4.273   5.396   1.087
 4449TIP3   OH213352   2.891   1.806   2.899
 4449TIP3    H113353   2.899   1.727   2.846
 4449TIP3    H213354   2.799   1.807   2.927
 4450TIP3   OH213355   4.434   4.311   0.659
 4450TIP3    H113356   4.433   4.263   0.576
 4450TIP3    H213357   4.497   4.264   0.714
 4451TIP3   OH213358   0.715   5.734   0.481
 4451TIP3    H113359   0.751   5.821   0.463
 4451TIP3    H213360   0.789   5.675   0.473
 4452TIP3   OH213361   3.549   4.078   1.985
 4452TIP3    H113362   3.571   4.145   2.050
 4452TIP3    H213363   3.570   4.119   1.901
 4453TIP3   OH213364   0.471   4.846   1.960
 4453TIP3    H113365   0.387   4.863   2.003
 4453TIP3    H213366   0.471   4.752   1.942
 4454TIP3   OH213367   1.558   2.279   2.180
 4454TIP3    H113368   1.468   2.278   2.213
 4454TIP3    H213369   1.552   2.235   2.095
 4455TIP3   OH213370   4.882   2.906   3.339
 4455TIP3    H113371   4.826   2.975   3.304
 4455TIP3    H213372   4.848   2.826   3.299
 4456TIP3   OH213373   0.146   0.521   0.242
 4456TIP3    H113374   0.206   0.562   0.179
 4456TIP3    H213375   0.174   0.430   0.246
 4457TIP3   OH213376   4.099   2.881   2.164
 4457TIP3    H113377   4.091   2.788   2.181
 4457TIP3    H213378   4.012   2.916   2.178
 4458TIP3   OH213379   2.886   0.553   1.941
 4458TIP3    H113380   2.876   0.637   1.987
 4458TIP3    H213381   2.923   0.494   2.007
 4459TIP3   OH213382   2.125   5.704   2.472
 4459TIP3    H113383   2.092   5.696   2.383
 4459TIP3    H213384   2.091   5.626   2.517
 4460TIP3   OH213385   3.581   0.459   0.792
 4460TIP3    H113386   3.648   0.392   0.810
 4460TIP3    H213387   3.546   0.435   0.706
 4461TIP3   OH213388   6.018   5.235   4.081
 4461TIP3    H113389   6.065   5.312   4.112
 4461TIP3    H213390   5.930   5.266   4.062
 4462TIP3   OH213391   0.310   0.106   0.190
 4462TIP3    H113392   0.320   0.052   0.268
 4462TIP3    H213393   0.399   0.122   0.159
 4463TIP3   OH213394   5.474   4.971   3.615
 4463TIP3    H113395   5.396   5.023   3.596
 4463TIP3    H213396   5.547   5.029   3.593
 4464TIP3   OH213397   4.483   2.399   1.148
 4464TIP3    H113398   4.438   2.477   1.180
 4464TIP3    H213399   4.431   2.326   1.180
 4465TIP3   OH213400   6.170   3.705   3.985
 4465TIP3    H113401   6.134   3.635   4.040
 4465TIP3    H213402   6.095   3.736   3.934
 4466TIP3   OH213403   3.922   3.352   2.720
 4466TIP3    H113404   3.958   3.285   2.662
 4466TIP3    H213405   3.918   3.309   2.806
 4467TIP3   OH213406   4.272   3.070   2.728
 4467TIP3    H113407   4.329   3.146   2.713
 4467TIP3    H213408   4.185   3.099   2.701
 4468TIP3   OH213409   4.626   5.446   0.918
 4468TIP3    H113410   4.616   5.373   0.858
 4468TIP3    H213411   4.636   5.523   0.862
 4469TIP3   OH213412   2.638   0.213   0.964
 4469TIP3    H113413   2.643   0.122   0.992
 4469TIP3    H213414   2.701   0.219   0.891
 4470TIP3   OH213415   1.359   3.968   5.106
 4470TIP3    H113416   1.364   3.903   5.036
 4470TIP3    H213417   1.450   3.977   5.136
 4471TIP3   OH213418   4.752   1.004   1.759
 4471TIP3    H113419   4.727   0.914   1.781
 4471TIP3    H213420   4.736   1.011   1.665
 4472TIP3   OH213421   5.765   0.070   2.841
 4472TIP3    H113422   5.712   0.014   2.898
 4472TIP3    H213423   5.708   0.094   2.769
 4473TIP3   OH213424   3.464   5.680   1.644
 4473TIP3    H113425   3.476   5.678   1.549
 4473TIP3    H213426   3.469   5.588   1.671
 4474TIP3   OH213427   4.343   4.041   1.117
 4474TIP3    H113428   4.438   4.033   1.125
 4474TIP3    H213429   4.309   3.993   1.192
 4475TIP3   OH213430   0.348   3.636   1.191
 4475TIP3    H113431   0.426   3.675   1.151
 4475TIP3    H213432   0.358   3.653   1.284
 4476TIP3   OH213433   3.530   1.921   3.907
 4476TIP3    H113434   3.464   1.986   3.931
 4476TIP3    H213435   3.530   1.858   3.979
 4477TIP3   OH213436   6.185   5.470   3.457
 4477TIP3    H113437   6.184   5.559   3.491
 4477TIP3    H213438   6.198   5.479   3.363
 4478TIP3   OH213439   2.597   0.304   1.665
 4478TIP3    H113440   2.572   0.212   1.667
 4478TIP3    H213441   2.524   0.349   1.708
 4479TIP3   OH213442   3.578   4.917   0.370
 4479TIP3    H113443   3.594   4.986   0.435
 4479TIP3    H213444   3.488   4.891   0.385
 4480TIP3   OH213445   4.621   3.355   3.848
 4480TIP3    H113446   4.686   3.424   3.833
 4480TIP3    H213447   4.546   3.401   3.886
 4481TIP3   OH213448   3.113   0.168   3.713
 4481TIP3    H113449   3.148   0.232   3.651
 4481TIP3    H213450   3.103   0.088   3.662
 4482TIP3   OH213451   2.101   1.496   2.105
 4482TIP3    H113452   2.141   1.491   2.018
 4482TIP3    H213453   2.162   1.450   2.162
 4483TIP3   OH213454   1.788   0.355   2.255
 4483TIP3    H113455   1.756   0.425   2.198
 4483TIP3    H213456   1.873   0.387   2.287
 4484TIP3   OH213457   0.758   5.939   3.996
 4484TIP3    H113458   0.774   5.951   4.090
 4484TIP3    H213459   0.843   5.910   3.961
 4485TIP3   OH213460   2.855   2.369   3.873
 4485TIP3    H113461   2.771   2.362   3.918
 4485TIP3    H213462   2.916   2.400   3.941
 4486TIP3   OH213463   5.875   2.054   1.959
 4486TIP3    H113464   5.855   1.977   1.907
 4486TIP3    H213465   5.792   2.078   2.000
 4487TIP3   OH213466   2.658   1.795   4.265
 4487TIP3    H113467   2.565   1.816   4.262
 4487TIP3    H213468   2.700   1.874   4.298
 4488TIP3   OH213469   5.094   5.321   4.958
 4488TIP3    H113470   5.136   5.234   4.964
 4488TIP3    H213471   5.153   5.378   5.008
 4489TIP3   OH213472   3.422   1.950   1.077
 4489TIP3    H113473   3.372   1.908   1.147
 4489TIP3    H213474   3.377   1.924   0.997
 4490TIP3   OH213475   3.193   4.763   2.712
 4490TIP3    H113476   3.224   4.737   2.799
 4490TIP3    H213477   3.245   4.841   2.691
 4491TIP3   OH213478   4.755   4.112   4.994
 4491TIP3    H113479   4.660   4.097   4.988
 4491TIP3    H213480   4.765   4.169   5.070
 4492TIP3   OH213481   5.340   3.394   3.448
 4492TIP3    H113482   5.266   3.407   3.508
 4492TIP3    H213483   5.389   3.321   3.485
 4493TIP3   OH213484   3.587   4.501   2.275
 4493TIP3    H113485   3.548   4.489   2.188
 4493TIP3    H213486   3.597   4.596   2.283
 4494TIP3   OH213487   1.829   4.180   2.520
 4494TIP3    H113488   1.758   4.124   2.552
 4494TIP3    H213489   1.903   4.159   2.576
 4495TIP3   OH213490   0.457   2.434   0.759
 4495TIP3    H113491   0.388   2.383   0.718
 4495TIP3    H213492   0.428   2.447   0.849
 4496TIP3   OH213493   0.344   3.333   1.450
 4496TIP3    H113494   0.348   3.428   1.460
 4496TIP3    H213495   0.430   3.302   1.477
 4497TIP3   OH213496   5.661   2.827   4.819
 4497TIP3    H113497   5.590   2.811   4.882
 4497TIP3    H213498   5.735   2.779   4.855
 4498TIP3   OH213499   3.678   4.545   3.474
 4498TIP3    H113500   3.714   4.487   3.541
 4498TIP3    H213501   3.733   4.528   3.396
 4499TIP3   OH213502   1.760   1.935   4.465
 4499TIP3    H113503   1.797   1.872   4.402
 4499TIP3    H213504   1.666   1.923   4.457
 4500TIP3   OH213505   3.011   1.364   5.088
 4500TIP3    H113506   3.092   1.374   5.039
 4500TIP3    H213507   3.016   1.430   5.157
 4501TIP3   OH213508   0.339   5.338   2.782
 4501TIP3    H113509   0.320   5.323   2.690
 4501TIP3    H213510   0.417   5.285   2.799
 4502TIP3   OH213511   3.336   4.406   4.583
 4502TIP3    H113512   3.401   4.338   4.564
 4502TIP3    H213513   3.265   4.388   4.520
 4503TIP3   OH213514   4.748   1.678   0.269
 4503TIP3    H113515   4.726   1.722   0.187
 4503TIP3    H213516   4.689   1.718   0.334
 4504TIP3   OH213517   0.541   5.330   4.987
 4504TIP3    H113518   0.597   5.399   5.022
 4504TIP3    H213519   0.466   5.328   5.047
 4505TIP3   OH213520   1.086   5.488   4.290
 4505TIP3    H113521   1.048   5.571   4.261
 4505TIP3    H213522   1.180   5.507   4.299
 4506TIP3   OH213523   5.311   2.139   3.768
 4506TIP3    H113524   5.249   2.090   3.822
 4506TIP3    H213525   5.394   2.093   3.779
 4507TIP3   OH213526   3.295   3.085   3.165
 4507TIP3    H113527   3.329   3.110   3.079
 4507TIP3    H213528   3.314   3.161   3.220
 4508TIP3   OH213529   6.122   1.952   5.132
 4508TIP3    H113530   6.127   2.041   5.095
 4508TIP3    H213531   6.212   1.930   5.154
 4509TIP3   OH213532   3.021   3.496   0.222
 4509TIP3    H113533   3.061   3.531   0.302
 4509TIP3    H213534   3.086   3.511   0.154
 4510TIP3   OH213535   2.422   1.604   1.856
 4510TIP3    H113536   2.404   1.697   1.841
 4510TIP3    H213537   2.335   1.564   1.861
 4511TIP3   OH213538   1.992   2.517   2.952
 4511TIP3    H113539   2.044   2.566   2.888
 4511TIP3    H213540   2.048   2.512   3.029
 4512TIP3   OH213541   2.954   2.886   0.882
 4512TIP3    H113542   2.973   2.924   0.968
 4512TIP3    H213543   2.955   2.791   0.897
 4513TIP3   OH213544   4.232   0.001   4.105
 4513TIP3    H113545   4.231   0.012   4.010
 4513TIP3    H213546   4.306   0.053   4.135
 4514TIP3   OH213547   5.941   3.320   3.289
 4514TIP3    H113548   6.000   3.262   3.240
 4514TIP3    H213549   5.935   3.279   3.375
 4515TIP3   OH213550   4.712   0.459   2.802
 4515TIP3    H113551   4.630   0.430   2.762
 4515TIP3    H213552   4.708   0.428   2.892
 4516TIP3   OH213553   5.514   2.102   4.004
 4516TIP3    H113554   5.568   2.026   3.980
 4516TIP3    H213555   5.575   2.176   4.002
 4517TIP3   OH213556   0.265   5.177   1.048
 4517TIP3    H113557   0.227   5.232   0.980
 4517TIP3    H213558   0.213   5.097   1.048
 4518TIP3   OH213559   0.806   2.547   3.598
 4518TIP3    H113560   0.848   2.545   3.512
 4518TIP3    H213561   0.717   2.577   3.581
 4519TIP3   OH213562   3.281   5.651   1.192
 4519TIP3    H113563   3.246   5.725   1.142
 4519TIP3    H213564   3.303   5.688   1.277
 4520TIP3   OH213565   0.888   4.272   0.220
 4520TIP3    H113566   0.917   4.261   0.130
 4520TIP3    H213567   0.955   4.226   0.272
 4521TIP3   OH213568   4.664   5.350   0.102
 4521TIP3    H113569   4.696   5.267   0.136
 4521TIP3    H213570   4.637   5.332   0.013
 4522TIP3   OH213571   3.950   2.278   4.626
 4522TIP3    H113572   3.910   2.327   4.554
 4522TIP3    H213573   4.019   2.227   4.585
 4523TIP3   OH213574   5.453   2.077   3.256
 4523TIP3    H113575   5.452   1.986   3.227
 4523TIP3    H213576   5.482   2.073   3.347
 4524TIP3   OH213577   5.902   4.178   3.319
 4524TIP3    H113578   5.945   4.181   3.404
 4524TIP3    H213579   5.875   4.086   3.310
 4525TIP3   OH213580   1.407   2.301   3.905
 4525TIP3    H113581   1.324   2.290   3.951
 4525TIP3    H213582   1.424   2.395   3.908
 4526TIP3   OH213583   4.501   3.050   5.013
 4526TIP3    H113584   4.542   3.106   4.947
 4526TIP3    H213585   4.432   3.004   4.965
 4527TIP3   OH213586   3.222   1.658   3.863
 4527TIP3    H113587   3.145   1.706   3.834
 4527TIP3    H213588   3.244   1.696   3.948
 4528TIP3   OH213589   3.110   2.110   0.034
 4528TIP3    H113590   3.035   2.149   0.078
 4528TIP3    H213591   3.126   2.028   0.082
 4529TIP3   OH213592   5.916   0.392   1.733
 4529TIP3    H113593   5.991   0.357   1.781
 4529TIP3    H213594   5.899   0.328   1.664
 4530TIP3   OH213595   0.949   2.968   3.988
 4530TIP3    H113596   1.041   2.974   3.963
 4530TIP3    H213597   0.915   2.895   3.936
 4531TIP3   OH213598   0.522   2.033   2.471
 4531TIP3    H113599   0.590   2.100   2.471
 4531TIP3    H213600   0.448   2.074   2.426
 4532TIP3   OH213601   1.341   1.472   3.526
 4532TIP3    H113602   1.324   1.453   3.434
 4532TIP3    H213603   1.413   1.535   3.524
 4533TIP3   OH213604   5.727   2.378   0.694
 4533TIP3    H113605   5.759   2.406   0.608
 4533TIP3    H213606   5.710   2.460   0.741
 4534TIP3   OH213607   2.646   5.711   0.453
 4534TIP3    H113608   2.595   5.630   0.446
 4534TIP3    H213609   2.643   5.749   0.365
 4535TIP3   OH213610   5.814   1.802   0.705
 4535TIP3    H113611   5.777   1.746   0.772
 4535TIP3    H213612   5.766   1.780   0.625
 4536TIP3   OH213613   2.822   2.322   4.604
 4536TIP3    H113614   2.737   2.299   4.641
 4536TIP3    H213615   2.859   2.384   4.667
 4537TIP3   OH213616   3.973   5.162   4.995
 4537TIP3    H113617   4.064   5.131   4.996
 4537TIP3    H213618   3.945   5.152   4.904
 4538TIP3   OH213619   3.972   0.651   2.410
 4538TIP3    H113620   3.904   0.610   2.462
 4538TIP3    H213621   3.924   0.698   2.341
 4539TIP3   OH213622   1.336   2.048   3.751
 4539TIP3    H113623   1.380   2.113   3.806
 4539TIP3    H213624   1.373   1.964   3.779
 4540TIP3   OH213625   4.230   3.040   1.533
 4540TIP3    H113626   4.227   2.951   1.569
 4540TIP3    H213627   4.157   3.043   1.470
 4541TIP3   OH213628   6.009   5.737   1.636
 4541TIP3    H113629   5.968   5.682   1.570
 4541TIP3    H213630   6.079   5.782   1.590
 4542TIP3   OH213631   5.179   4.364   2.652
 4542TIP3    H113632   5.155   4.272   2.663
 4542TIP3    H213633   5.099   4.406   2.622
 4543TIP3   OH213634   2.103   5.891   5.184
 4543TIP3    H113635   2.024   5.928   5.224
 4543TIP3    H213636   2.079   5.801   5.162
 4544TIP3   OH213637   0.968   1.074   1.401
 4544TIP3    H113638   0.892   1.115   1.360
 4544TIP3    H213639   0.964   0.983   1.370
 4545TIP3   OH213640   3.157   0.517   3.834
 4545TIP3    H113641   3.178   0.454   3.902
 4545TIP3    H213642   3.120   0.592   3.881
 4546TIP3   OH213643   1.034   4.556   4.703
 4546TIP3    H113644   1.064   4.646   4.689
 4546TIP3    H213645   0.946   4.554   4.664
 4547TIP3   OH213646   2.612   1.835   5.176
 4547TIP3    H113647   2.641   1.894   5.106
 4547TIP3    H213648   2.638   1.878   5.257
 4548TIP3   OH213649   4.191   3.208   3.730
 4548TIP3    H113650   4.237   3.131   3.763
 4548TIP3    H213651   4.122   3.225   3.794
 4549TIP3   OH213652   3.776   4.859   1.137
 4549TIP3    H113653   3.785   4.837   1.045
 4549TIP3    H213654   3.730   4.784   1.175
 4550TIP3   OH213655   0.469   3.542   0.913
 4550TIP3    H113656   0.499   3.461   0.954
 4550TIP3    H213657   0.513   3.612   0.960
 4551TIP3   OH213658   2.651   3.845   2.410
 4551TIP3    H113659   2.733   3.849   2.460
 4551TIP3    H213660   2.608   3.766   2.441
 4552TIP3   OH213661   1.634   3.942   1.210
 4552TIP3    H113662   1.573   3.869   1.194
 4552TIP3    H213663   1.578   4.020   1.213
 4553TIP3   OH213664   4.828   5.419   2.293
 4553TIP3    H113665   4.908   5.431   2.241
 4553TIP3    H213666   4.785   5.505   2.292
 4554TIP3   OH213667   5.539   4.631   1.034
 4554TIP3    H113668   5.581   4.691   1.095
 4554TIP3    H213669   5.561   4.666   0.947
 4555TIP3   OH213670   5.544   3.555   3.814
 4555TIP3    H113671   5.589   3.552   3.898
 4555TIP3    H213672   5.583   3.629   3.768
 4556TIP3   OH213673   3.144   0.720   1.700
 4556TIP3    H113674   3.239   0.722   1.700
 4556TIP3    H213675   3.122   0.627   1.704
 4557TIP3   OH213676   4.534   5.198   4.096
 4557TIP3    H113677   4.593   5.214   4.169
 4557TIP3    H213678   4.566   5.116   4.057
 4558TIP3   OH213679   5.490   1.013   4.704
 4558TIP3    H113680   5.400   1.031   4.731
 4558TIP3    H213681   5.541   1.085   4.740
 4559TIP3   OH213682   4.294   2.394   3.757
 4559TIP3    H113683   4.348   2.473   3.755
 4559TIP3    H213684   4.335   2.339   3.824
 4560TIP3   OH213685   3.114   0.229   0.931
 4560TIP3    H113686   3.119   0.198   0.841
 4560TIP3    H213687   3.147   0.319   0.926
 4561TIP3   OH213688   5.151   3.635   2.333
 4561TIP3    H113689   5.212   3.562   2.328
 4561TIP3    H213690   5.088   3.609   2.400
 4562TIP3   OH213691   3.062   5.686   4.448
 4562TIP3    H113692   3.144   5.683   4.399
 4562TIP3    H213693   3.088   5.693   4.540
 4563TIP3   OH213694   3.185   1.039   2.073
 4563TIP3    H113695   3.196   1.058   2.167
 4563TIP3    H213696   3.098   1.001   2.066
 4564TIP3   OH213697   3.907   4.657   2.811
 4564TIP3    H113698   3.993   4.678   2.775
 4564TIP3    H213699   3.845   4.699   2.751
 4565TIP3   OH213700   0.365   5.882   0.880
 4565TIP3    H113701   0.295   5.915   0.937
 4565TIP3    H213702   0.319   5.836   0.810
 4566TIP3   OH213703   4.668   5.662   1.602
 4566TIP3    H113704   4.700   5.658   1.693
 4566TIP3    H213705   4.745   5.688   1.551
 4567TIP3   OH213706   6.021   4.550   1.341
 4567TIP3    H113707   5.954   4.561   1.274
 4567TIP3    H213708   6.078   4.626   1.331
 4568TIP3   OH213709   0.728   1.600   5.096
 4568TIP3    H113710   0.764   1.687   5.114
 4568TIP3    H213711   0.642   1.617   5.057
 4569TIP3   OH213712   4.251   5.671   0.206
 4569TIP3    H113713   4.186   5.600   0.206
 4569TIP3    H213714   4.335   5.626   0.219
 4570TIP3   OH213715   1.705   3.264   3.722
 4570TIP3    H113716   1.671   3.348   3.754
 4570TIP3    H213717   1.800   3.276   3.719
 4571TIP3   OH213718   5.060   0.902   2.871
 4571TIP3    H113719   5.119   0.977   2.861
 4571TIP3    H213720   5.029   0.908   2.961
 4572TIP3   OH213721   3.301   4.100   3.264
 4572TIP3    H113722   3.284   4.176   3.207
 4572TIP3    H213723   3.274   4.025   3.211
 4573TIP3   OH213724   3.387   1.362   1.520
 4573TIP3    H113725   3.388   1.284   1.576
 4573TIP3    H213726   3.295   1.385   1.511
 4574TIP3   OH213727   2.154   4.458   4.954
 4574TIP3    H113728   2.078   4.410   4.921
 4574TIP3    H213729   2.121   4.546   4.972
 4575TIP3   OH213730   3.703   4.097   5.032
 4575TIP3    H113731   3.789   4.078   4.995
 4575TIP3    H213732   3.657   4.013   5.030
 4576TIP3   OH213733   0.868   4.553   2.870
 4576TIP3    H113734   0.883   4.522   2.959
 4576TIP3    H213735   0.788   4.508   2.843
 4577TIP3   OH213736   1.456   5.721   1.209
 4577TIP3    H113737   1.470   5.794   1.148
 4577TIP3    H213738   1.404   5.659   1.159
 4578TIP3   OH213739   1.976   4.297   0.908
 4578TIP3    H113740   2.039   4.255   0.967
 4578TIP3    H213741   1.933   4.225   0.863
 4579TIP3   OH213742   5.212   3.885   3.775
 4579TIP3    H113743   5.204   3.842   3.860
 4579TIP3    H213744   5.147   3.956   3.778
 4580TIP3   OH213745   0.849   0.544   4.847
 4580TIP3    H113746   0.936   0.582   4.862
 4580TIP3    H213747   0.826   0.572   4.758
 4581TIP3   OH213748   5.275   2.231   1.386
 4581TIP3    H113749   5.261   2.314   1.431
 4581TIP3    H213750   5.361   2.239   1.346
 4582TIP3   OH213751   1.659   5.756   1.552
 4582TIP3    H113752   1.582   5.750   1.609
 4582TIP3    H213753   1.684   5.849   1.556
 4583TIP3   OH213754   4.567   5.898   4.366
 4583TIP3    H113755   4.534   5.958   4.433
 4583TIP3    H213756   4.576   5.952   4.288
 4584TIP3   OH213757   1.784   0.299   1.309
 4584TIP3    H113758   1.734   0.368   1.353
 4584TIP3    H213759   1.717   0.238   1.278
 4585TIP3   OH213760   5.480   0.320   3.971
 4585TIP3    H113761   5.427   0.249   4.007
 4585TIP3    H213762   5.430   0.400   3.990
 4586TIP3   OH213763   5.274   5.691   4.363
 4586TIP3    H113764   5.188   5.732   4.351
 4586TIP3    H213765   5.261   5.600   4.336
 4587TIP3   OH213766   2.884   1.267   2.774
 4587TIP3    H113767   2.862   1.324   2.848
 4587TIP3    H213768   2.934   1.195   2.812
 4588TIP3   OH213769   4.300   3.049   3.940
 4588TIP3    H113770   4.386   3.019   3.911
 4588TIP3    H213771   4.268   2.978   3.996
 4589TIP3   OH213772   1.344   5.763   2.111
 4589TIP3    H113773   1.389   5.698   2.056
 4589TIP3    H213774   1.400   5.840   2.107
 4590TIP3   OH213775   5.392   5.881   2.303
 4590TIP3    H113776   5.424   5.955   2.356
 4590TIP3    H213777   5.472   5.836   2.274
 4591TIP3   OH213778   3.798   2.411   1.283
 4591TIP3    H113779   3.759   2.411   1.371
 4591TIP3    H213780   3.788   2.320   1.253
 4592TIP3   OH213781   1.874   5.443   1.222
 4592TIP3    H113782   1.855   5.364   1.274
 4592TIP3    H213783   1.796   5.497   1.233
 4593TIP3   OH213784   2.434   2.406   1.155
 4593TIP3    H113785   2.455   2.336   1.217
 4593TIP3    H213786   2.371   2.461   1.202
 4594TIP3   OH213787   1.899   0.508   4.338
 4594TIP3    H113788   1.832   0.526   4.404
 4594TIP3    H213789   1.982   0.522   4.384
 4595TIP3   OH213790   2.922   4.810   0.902
 4595TIP3    H113791   3.009   4.847   0.887
 4595TIP3    H213792   2.862   4.879   0.873
 4596TIP3   OH213793   5.369   3.282   2.212
 4596TIP3    H113794   5.400   3.372   2.226
 4596TIP3    H213795   5.409   3.231   2.282
 4597TIP3   OH213796   6.014   0.630   2.032
 4597TIP3    H113797   6.039   0.697   2.096
 4597TIP3    H213798   5.936   0.665   1.990
 4598TIP3   OH213799   4.614   1.795   0.898
 4598TIP3    H113800   4.620   1.889   0.917
 4598TIP3    H213801   4.520   1.779   0.890
 4599TIP3   OH213802   1.282   5.458   3.516
 4599TIP3    H113803   1.337   5.495   3.447
 4599TIP3    H213804   1.341   5.402   3.567
 4600TIP3   OH213805   5.411   4.201   3.981
 4600TIP3    H113806   5.321   4.201   4.015
 4600TIP3    H213807   5.425   4.111   3.950
 4601TIP3   OH213808   4.258   5.563   5.002
 4601TIP3    H113809   4.164   5.547   5.013
 4601TIP3    H213810   4.263   5.634   4.939
 4602TIP3   OH213811   6.030   1.640   2.165
 4602TIP3    H113812   5.996   1.598   2.086
 4602TIP3    H213813   6.006   1.580   2.236
 4603TIP3   OH213814   2.785   0.485   1.643
 4603TIP3    H113815   2.718   0.419   1.664
 4603TIP3    H213816   2.808   0.467   1.552
 4604TIP3   OH213817   1.024   5.727   1.527
 4604TIP3    H113818   1.090   5.782   1.486
 4604TIP3    H213819   1.050   5.722   1.619
 4605TIP3   OH213820   0.523   1.748   2.902
 4605TIP3    H113821   0.533   1.653   2.894
 4605TIP3    H213822   0.609   1.784   2.880
 4606TIP3   OH213823   2.022   1.711   4.453
 4606TIP3    H113824   1.949   1.741   4.397
 4606TIP3    H213825   2.094   1.770   4.431
 4607TIP3   OH213826   1.654   3.877   4.424
 4607TIP3    H113827   1.730   3.877   4.367
 4607TIP3    H213828   1.687   3.843   4.508
 4608TIP3   OH213829   1.482   1.941   4.441
 4608TIP3    H113830   1.469   2.004   4.512
 4608TIP3    H213831   1.417   1.964   4.375
 4609TIP3   OH213832   3.631   1.138   0.127
 4609TIP3    H113833   3.643   1.047   0.154
 4609TIP3    H213834   3.579   1.134   0.048
 4610TIP3   OH213835   5.227   0.745   0.700
 4610TIP3    H113836   5.305   0.776   0.745
 4610TIP3    H213837   5.245   0.652   0.682
 4611TIP3   OH213838   3.016   1.070   4.889
 4611TIP3    H113839   3.078   1.142   4.885
 4611TIP3    H213840   2.932   1.108   4.862
 4612TIP3   OH213841   4.427   5.132   0.062
 4612TIP3    H113842   4.419   5.037   0.051
 4612TIP3    H213843   4.442   5.144   0.156
 4613TIP3   OH213844   4.133   0.657   4.252
 4613TIP3    H113845   4.138   0.564   4.230
 4613TIP3    H213846   4.099   0.659   4.341
 4614TIP3   OH213847   3.840   4.347   4.278
 4614TIP3    H113848   3.835   4.427   4.226
 4614TIP3    H213849   3.787   4.365   4.355
 4615TIP3   OH213850   0.316   1.824   4.414
 4615TIP3    H113851   0.404   1.797   4.387
 4615TIP3    H213852   0.318   1.817   4.510
 4616TIP3   OH213853   4.866   1.695   2.302
 4616TIP3    H113854   4.793   1.634   2.313
 4616TIP3    H213855   4.938   1.641   2.269
 4617TIP3   OH213856   6.277   3.696   0.525
 4617TIP3    H113857   6.248   3.652   0.445
 4617TIP3    H213858   6.347   3.754   0.496
 4618TIP3   OH213859   5.278   2.829   0.621
 4618TIP3    H113860   5.344   2.759   0.620
 4618TIP3    H213861   5.223   2.807   0.697
 4619TIP3   OH213862   0.636   2.262   1.104
 4619TIP3    H113863   0.559   2.316   1.083
 4619TIP3    H213864   0.667   2.297   1.188
 4620TIP3   OH213865   6.106   5.523   2.738
 4620TIP3    H113866   6.192   5.505   2.777
 4620TIP3    H213867   6.091   5.450   2.678
 4621TIP3   OH213868   0.502   3.058   4.526
 4621TIP3    H113869   0.509   3.141   4.479
 4621TIP3    H213870   0.565   3.065   4.598
 4622TIP3   OH213871   1.565   4.541   0.514
 4622TIP3    H113872   1.601   4.506   0.432
 4622TIP3    H213873   1.473   4.515   0.512
 4623TIP3   OH213874   4.237   2.633   2.089
 4623TIP3    H113875   4.237   2.565   2.156
 4623TIP3    H213876   4.192   2.594   2.014
 4624TIP3   OH213877   5.869   2.528   4.494
 4624TIP3    H113878   5.949   2.556   4.540
 4624TIP3    H213879   5.843   2.604   4.443
 4625TIP3   OH213880   5.318   4.316   2.872
 4625TIP3    H113881   5.341   4.394   2.922
 4625TIP3    H213882   5.294   4.348   2.785
 4626TIP3   OH213883   0.336   1.824   1.658
 4626TIP3    H113884   0.306   1.735   1.641
 4626TIP3    H213885   0.428   1.824   1.630
 4627TIP3   OH213886   3.397   0.672   3.790
 4627TIP3    H113887   3.308   0.650   3.764
 4627TIP3    H213888   3.441   0.694   3.708
 4628TIP3   OH213889   3.177   5.637   4.032
 4628TIP3    H113890   3.085   5.664   4.037
 4628TIP3    H213891   3.176   5.544   4.055
 4629TIP3   OH213892   5.867   2.344   3.227
 4629TIP3    H113893   5.852   2.250   3.236
 4629TIP3    H213894   5.922   2.367   3.302
 4630TIP3   OH213895   4.297   5.371   2.171
 4630TIP3    H113896   4.260   5.328   2.248
 4630TIP3    H213897   4.388   5.341   2.169
 4631TIP3   OH213898   3.418   3.996   2.288
 4631TIP3    H113899   3.470   4.067   2.249
 4631TIP3    H213900   3.354   4.040   2.342
 4632TIP3   OH213901   4.632   3.990   1.169
 4632TIP3    H113902   4.684   4.027   1.240
 4632TIP3    H213903   4.677   3.909   1.146
 4633TIP3   OH213904   3.708   3.323   0.291
 4633TIP3    H113905   3.725   3.316   0.197
 4633TIP3    H213906   3.686   3.415   0.305
 4634TIP3   OH213907   1.157   1.754   5.075
 4634TIP3    H113908   1.239   1.758   5.025
 4634TIP3    H213909   1.185   1.740   5.165
 4635TIP3   OH213910   4.115   4.586   4.373
 4635TIP3    H113911   4.130   4.674   4.341
 4635TIP3    H213912   4.039   4.594   4.431
 4636TIP3   OH213913   1.478   2.788   3.742
 4636TIP3    H113914   1.504   2.877   3.765
 4636TIP3    H213915   1.542   2.761   3.676
 4637TIP3   OH213916   5.428   0.912   3.578
 4637TIP3    H113917   5.470   0.826   3.590
 4637TIP3    H213918   5.478   0.954   3.509
 4638TIP3   OH213919   3.533   2.870   1.325
 4638TIP3    H113920   3.622   2.896   1.347
 4638TIP3    H213921   3.521   2.786   1.369
 4639TIP3   OH213922   1.774   5.932   0.353
 4639TIP3    H113923   1.802   5.985   0.427
 4639TIP3    H213924   1.704   5.983   0.312
 4640TIP3   OH213925   4.465   3.440   1.942
 4640TIP3    H113926   4.381   3.484   1.950
 4640TIP3    H213927   4.444   3.348   1.930
 4641TIP3   OH213928   2.251   4.552   3.983
 4641TIP3    H113929   2.201   4.471   3.991
 4641TIP3    H213930   2.184   4.621   3.981
 4642TIP3   OH213931   4.104   1.604   1.183
 4642TIP3    H113932   4.094   1.539   1.114
 4642TIP3    H213933   4.033   1.585   1.244
 4643TIP3   OH213934   2.853   3.687   0.973
 4643TIP3    H113935   2.888   3.768   1.010
 4643TIP3    H213936   2.889   3.617   1.026
 4644TIP3   OH213937   3.547   0.075   1.738
 4644TIP3    H113938   3.493   0.104   1.664
 4644TIP3    H213939   3.562  -0.018   1.721
 4645TIP3   OH213940   6.275   5.281   1.214
 4645TIP3    H113941   6.241   5.235   1.291
 4645TIP3    H213942   6.318   5.359   1.250
 4646TIP3   OH213943   4.989   1.483   1.005
 4646TIP3    H113944   5.076   1.523   1.009
 4646TIP3    H213945   4.998   1.412   0.942
 4647TIP3   OH213946   2.499  -0.021   0.055
 4647TIP3    H113947   2.447   0.001  -0.022
 4647TIP3    H213948   2.471   0.042   0.122
 4648TIP3   OH213949   0.275   5.885   3.187
 4648TIP3    H113950   0.240   5.918   3.270
 4648TIP3    H213951   0.200   5.884   3.128
 4649TIP3   OH213952   4.194   2.849   4.066
 4649TIP3    H113953   4.193   2.840   4.162
 4649TIP3    H213954   4.158   2.766   4.034
 4650TIP3   OH213955   5.126   2.881   3.572
 4650TIP3    H113956   5.201   2.876   3.632
 4650TIP3    H213957   5.054   2.912   3.626
 4651TIP3   OH213958   1.404   5.847   4.018
 4651TIP3    H113959   1.491   5.886   4.032
 4651TIP3    H213960   1.398   5.837   3.923
 4652TIP3   OH213961   1.801   3.735   0.067
 4652TIP3    H113962   1.859   3.810   0.057
 4652TIP3    H213963   1.858   3.659   0.056
 4653TIP3   OH213964   3.698   2.169   4.157
 4653TIP3    H113965   3.757   2.244   4.159
 4653TIP3    H213966   3.648   2.180   4.076
 4654TIP3   OH213967   3.358   0.136   1.549
 4654TIP3    H113968   3.345   0.231   1.549
 4654TIP3    H213969   3.377   0.115   1.458
 4655TIP3   OH213970   5.686   3.270   2.599
 4655TIP3    H113971   5.754   3.283   2.533
 4655TIP3    H213972   5.685   3.351   2.649
 4656TIP3   OH213973   0.840   5.099   1.957
 4656TIP3    H113974   0.796   5.025   1.916
 4656TIP3    H213975   0.897   5.135   1.889
 4657TIP3   OH213976   4.097   0.643   1.067
 4657TIP3    H113977   4.085   0.609   1.156
 4657TIP3    H213978   4.192   0.641   1.054
 4658TIP3   OH213979   5.960   3.809   4.451
 4658TIP3    H113980   5.930   3.893   4.487
 4658TIP3    H213981   5.974   3.754   4.528
 4659TIP3   OH213982   2.981   3.027   0.075
 4659TIP3    H113983   2.954   2.960   0.137
 4659TIP3    H213984   3.035   3.087   0.126
 4660TIP3   OH213985   1.434   5.395   2.752
 4660TIP3    H113986   1.362   5.456   2.736
 4660TIP3    H213987   1.413   5.318   2.700
 4661TIP3   OH213988   2.887   2.184   1.638
 4661TIP3    H113989   2.895   2.131   1.717
 4661TIP3    H213990   2.958   2.247   1.644
 4662TIP3   OH213991   0.743   2.269   3.491
 4662TIP3    H113992   0.750   2.350   3.542
 4662TIP3    H213993   0.709   2.297   3.406
 4663TIP3   OH213994   0.782   4.779   0.269
 4663TIP3    H113995   0.810   4.820   0.350
 4663TIP3    H213996   0.824   4.693   0.270
 4664TIP3   OH213997   6.050   2.868   0.533
 4664TIP3    H113998   6.034   2.825   0.449
 4664TIP3    H213999   6.131   2.917   0.519
 4665TIP3   OH214000   1.502   0.447   4.277
 4665TIP3    H114001   1.526   0.419   4.366
 4665TIP3    H214002   1.453   0.374   4.241
 4666TIP3   OH214003   4.293   0.851   3.952
 4666TIP3    H114004   4.387   0.857   3.969
 4666TIP3    H214005   4.264   0.778   4.006
 4667TIP3   OH214006   2.390   3.125   4.735
 4667TIP3    H114007   2.468   3.071   4.733
 4667TIP3    H214008   2.381   3.152   4.826
 4668TIP3   OH214009   1.270   2.057   5.060
 4668TIP3    H114010   1.314   2.141   5.072
 4668TIP3    H214011   1.264   2.020   5.148
 4669TIP3   OH214012   5.409   2.635   1.428
 4669TIP3    H114013   5.359   2.710   1.395
 4669TIP3    H214014   5.475   2.674   1.486
 4670TIP3   OH214015   4.446   1.594   0.374
 4670TIP3    H114016   4.492   1.562   0.451
 4670TIP3    H214017   4.363   1.629   0.407
 4671TIP3   OH214018   1.727   5.977   3.238
 4671TIP3    H114019   1.666   5.977   3.312
 4671TIP3    H214020   1.723   5.888   3.204
 4672TIP3   OH214021   0.886   3.868   2.029
 4672TIP3    H114022   0.875   3.853   2.123
 4672TIP3    H214023   0.979   3.886   2.018
 4673TIP3   OH214024   1.630   2.262   3.604
 4673TIP3    H114025   1.712   2.310   3.616
 4673TIP3    H214026   1.629   2.240   3.511
 4674TIP3   OH214027   3.228   0.047   1.843
 4674TIP3    H114028   3.281   0.126   1.836
 4674TIP3    H214029   3.140   0.074   1.819
 4675TIP3   OH214030   3.970   3.199   2.932
 4675TIP3    H114031   4.052   3.151   2.935
 4675TIP3    H214032   3.934   3.192   3.020
 4676TIP3   OH214033   5.062   5.896   4.342
 4676TIP3    H114034   5.053   5.917   4.435
 4676TIP3    H214035   4.973   5.878   4.312
 4677TIP3   OH214036   2.012   2.800   3.261
 4677TIP3    H114037   1.932   2.754   3.286
 4677TIP3    H214038   2.079   2.732   3.261
 4678TIP3   OH214039   5.816   2.088   4.510
 4678TIP3    H114040   5.762   2.042   4.446
 4678TIP3    H214041   5.763   2.162   4.538
 4679TIP3   OH214042   0.386   2.070   0.202
 4679TIP3    H114043   0.325   1.996   0.211
 4679TIP3    H214044   0.455   2.037   0.144
 4680TIP3   OH214045   4.760   2.628   4.580
 4680TIP3    H114046   4.825   2.630   4.649
 4680TIP3    H214047   4.794   2.565   4.517
 4681TIP3   OH214048   3.930   2.443   0.940
 4681TIP3    H114049   4.001   2.404   0.990
 4681TIP3    H214050   3.972   2.480   0.862
 4682TIP3   OH214051   0.883   5.028   3.738
 4682TIP3    H114052   0.908   5.044   3.647
 4682TIP3    H214053   0.938   5.088   3.789
 4683TIP3   OH214054   1.085   5.380   1.214
 4683TIP3    H114055   1.018   5.366   1.281
 4683TIP3    H214056   1.100   5.293   1.177
 4684TIP3   OH214057   2.921   1.409   2.105
 4684TIP3    H114058   3.004   1.397   2.151
 4684TIP3    H214059   2.867   1.335   2.132
 4685TIP3   OH214060   6.285   1.592   3.342
 4685TIP3    H114061   6.200   1.592   3.386
 4685TIP3    H214062   6.323   1.677   3.363
 4686TIP3   OH214063   3.120   3.769   2.349
 4686TIP3    H114064   3.115   3.845   2.290
 4686TIP3    H214065   3.122   3.807   2.437
 4687TIP3   OH214066   5.414   3.902   1.618
 4687TIP3    H114067   5.429   3.830   1.557
 4687TIP3    H214068   5.367   3.862   1.691
 4688TIP3   OH214069   0.704   4.961   3.462
 4688TIP3    H114070   0.755   4.975   3.383
 4688TIP3    H214071   0.647   5.038   3.468
 4689TIP3   OH214072   5.360   5.291   1.797
 4689TIP3    H114073   5.435   5.340   1.830
 4689TIP3    H214074   5.379   5.200   1.819
 4690TIP3   OH214075   2.639   3.814   0.148
 4690TIP3    H114076   2.577   3.864   0.095
 4690TIP3    H214077   2.705   3.785   0.086
 4691TIP3   OH214078   0.522   1.580   2.619
 4691TIP3    H114079   0.511   1.497   2.572
 4691TIP3    H214080   0.433   1.604   2.644
 4692TIP3   OH214081   1.141   4.316   4.631
 4692TIP3    H114082   1.198   4.353   4.564
 4692TIP3    H214083   1.087   4.389   4.661
 4693TIP3   OH214084   5.610   5.853   4.771
 4693TIP3    H114085   5.581   5.837   4.681
 4693TIP3    H214086   5.580   5.941   4.791
 4694TIP3   OH214087   0.851   0.502   5.131
 4694TIP3    H114088   0.772   0.456   5.160
 4694TIP3    H214089   0.835   0.520   5.038
 4695TIP3   OH214090   5.847   2.731   1.734
 4695TIP3    H114091   5.917   2.666   1.738
 4695TIP3    H214092   5.870   2.786   1.659
 4696TIP3   OH214093   1.426   5.772   2.580
 4696TIP3    H114094   1.368   5.715   2.529
 4696TIP3    H214095   1.366   5.832   2.625
 4697TIP3   OH214096   2.575   5.428   2.302
 4697TIP3    H114097   2.647   5.397   2.248
 4697TIP3    H214098   2.497   5.389   2.263
 4698TIP3   OH214099   1.587   2.471   2.500
 4698TIP3    H114100   1.643   2.434   2.431
 4698TIP3    H214101   1.540   2.396   2.536
 4699TIP3   OH214102   3.864   1.876   0.070
 4699TIP3    H114103   3.846   1.864   0.163
 4699TIP3    H214104   3.958   1.860   0.061
 4700TIP3   OH214105   0.068   3.983   2.410
 4700TIP3    H114106   0.113   4.054   2.365
 4700TIP3    H214107  -0.005   3.960   2.352
 4701TIP3   OH214108   4.401   1.629   1.231
 4701TIP3    H114109   4.308   1.607   1.231
 4701TIP3    H214110   4.444   1.553   1.190
 4702TIP3   OH214111   1.271   0.838   4.672
 4702TIP3    H114112   1.324   0.918   4.669
 4702TIP3    H214113   1.232   0.832   4.585
 4703TIP3   OH214114   5.859   5.120   0.776
 4703TIP3    H114115   5.927   5.159   0.721
 4703TIP3    H214116   5.782   5.115   0.719
 4704TIP3   OH214117   4.897   0.971   4.903
 4704TIP3    H114118   4.823   1.017   4.942
 4704TIP3    H214119   4.951   0.946   4.978
 4705TIP3   OH214120   2.746   3.404   4.578
 4705TIP3    H114121   2.727   3.329   4.634
 4705TIP3    H214122   2.806   3.458   4.630
 4706TIP3   OH214123   0.669   5.318   1.522
 4706TIP3    H114124   0.588   5.358   1.492
 4706TIP3    H214125   0.655   5.304   1.616
 4707TIP3   OH214126   2.862   3.136   4.460
 4707TIP3    H114127   2.798   3.143   4.531
 4707TIP3    H214128   2.897   3.047   4.468
 4708TIP3   OH214129   4.116   1.736   2.600
 4708TIP3    H114130   4.082   1.751   2.688
 4708TIP3    H214131   4.103   1.643   2.583
 4709TIP3   OH214132   5.325   5.569   0.602
 4709TIP3    H114133   5.295   5.542   0.689
 4709TIP3    H214134   5.351   5.660   0.613
 4710TIP3   OH214135   1.575   4.608   1.558
 4710TIP3    H114136   1.623   4.682   1.596
 4710TIP3    H214137   1.540   4.642   1.476
 4711TIP3   OH214138   5.574   1.129   5.055
 4711TIP3    H114139   5.666   1.154   5.057
 4711TIP3    H214140   5.546   1.147   4.965
 4712TIP3   OH214141   0.390   0.172   2.873
 4712TIP3    H114142   0.404   0.206   2.785
 4712TIP3    H214143   0.452   0.099   2.881
 4713TIP3   OH214144   5.762   0.916   2.859
 4713TIP3    H114145   5.730   0.888   2.944
 4713TIP3    H214146   5.761   0.836   2.806
 4714TIP3   OH214147   4.761   5.537   2.731
 4714TIP3    H114148   4.677   5.578   2.750
 4714TIP3    H214149   4.819   5.609   2.707
 4715TIP3   OH214150   2.996   2.431   2.941
 4715TIP3    H114151   2.912   2.416   2.899
 4715TIP3    H214152   2.995   2.524   2.964
 4716TIP3   OH214153   5.786   5.228   3.240
 4716TIP3    H114154   5.841   5.303   3.217
 4716TIP3    H214155   5.698   5.264   3.247
 4717TIP3   OH214156   1.627   5.737   1.949
 4717TIP3    H114157   1.642   5.809   2.011
 4717TIP3    H214158   1.713   5.721   1.910
 4718TIP3   OH214159   3.745   0.660   5.030
 4718TIP3    H114160   3.727   0.566   5.036
 4718TIP3    H214161   3.665   0.698   4.996
 4719TIP3   OH214162   1.020   1.350   2.870
 4719TIP3    H114163   1.030   1.268   2.918
 4719TIP3    H214164   0.928   1.353   2.844
 4720TIP3   OH214165   6.150   5.482   1.506
 4720TIP3    H114166   6.227   5.467   1.561
 4720TIP3    H214167   6.091   5.535   1.560
 4721TIP3   OH214168   6.177   3.553   4.639
 4721TIP3    H114169   6.251   3.526   4.693
 4721TIP3    H214170   6.209   3.546   4.549
 4722TIP3   OH214171   0.559   2.221   3.886
 4722TIP3    H114172   0.567   2.154   3.954
 4722TIP3    H214173   0.644   2.222   3.842
 4723TIP3   OH214174   6.059   1.004   3.744
 4723TIP3    H114175   6.139   0.995   3.692
 4723TIP3    H214176   6.030   1.094   3.729
 4724TIP3   OH214177   4.814   4.812   0.711
 4724TIP3    H114178   4.908   4.832   0.718
 4724TIP3    H214179   4.798   4.807   0.617
 4725TIP3   OH214180   1.202   4.776   4.118
 4725TIP3    H114181   1.130   4.774   4.180
 4725TIP3    H214182   1.281   4.781   4.173
 4726TIP3   OH214183   5.629   2.176   2.074
 4726TIP3    H114184   5.692   2.243   2.100
 4726TIP3    H214185   5.552   2.193   2.128
 4727TIP3   OH214186   3.922   4.985   1.368
 4727TIP3    H114187   3.860   4.937   1.313
 4727TIP3    H214188   3.993   5.009   1.308
 4728TIP3   OH214189   4.454   0.041   1.073
 4728TIP3    H114190   4.533   0.064   1.024
 4728TIP3    H214191   4.392   0.013   1.005
 4729TIP3   OH214192   4.888   3.859   2.553
 4729TIP3    H114193   4.831   3.825   2.484
 4729TIP3    H214194   4.875   3.799   2.627
 4730TIP3   OH214195   2.949   0.291   4.865
 4730TIP3    H114196   3.021   0.231   4.845
 4730TIP3    H214197   2.926   0.330   4.781
 4731TIP3   OH214198   2.750   2.172   2.441
 4731TIP3    H114199   2.794   2.240   2.390
 4731TIP3    H214200   2.756   2.093   2.387
 4732TIP3   OH214201   6.172   5.822   2.368
 4732TIP3    H114202   6.183   5.771   2.288
 4732TIP3    H214203   6.258   5.863   2.382
 4733TIP3   OH214204   4.867   1.840   2.075
 4733TIP3    H114205   4.886   1.776   2.143
 4733TIP3    H214206   4.930   1.821   2.006
 4734TIP3   OH214207   6.254   1.210   3.535
 4734TIP3    H114208   6.182   1.199   3.472
 4734TIP3    H214209   6.268   1.122   3.570
 4735TIP3   OH214210   1.899   1.302   5.137
 4735TIP3    H114211   1.884   1.292   5.043
 4735TIP3    H214212   1.989   1.272   5.150
 4736TIP3   OH214213   6.109   2.748   0.184
 4736TIP3    H114214   6.123   2.843   0.192
 4736TIP3    H214215   6.055   2.738   0.106
 4737TIP3   OH214216   1.576   2.428   3.058
 4737TIP3    H114217   1.511   2.411   3.126
 4737TIP3    H214218   1.660   2.424   3.103
 4738TIP3   OH214219   5.576   3.407   1.957
 4738TIP3    H114220   5.593   3.316   1.983
 4738TIP3    H214221   5.540   3.448   2.036
 4739TIP3   OH214222   6.016   2.875   2.854
 4739TIP3    H114223   6.088   2.834   2.903
 4739TIP3    H214224   6.059   2.943   2.801
 4740TIP3   OH214225   1.954   4.057   2.279
 4740TIP3    H114226   1.892   4.110   2.330
 4740TIP3    H214227   2.012   4.019   2.344
 4741TIP3   OH214228   4.581   4.742   0.226
 4741TIP3    H114229   4.640   4.697   0.165
 4741TIP3    H214230   4.639   4.790   0.284
 4742TIP3   OH214231   2.086   5.565   4.685
 4742TIP3    H114232   2.113   5.559   4.777
 4742TIP3    H214233   2.154   5.519   4.637
 4743TIP3   OH214234   4.335   0.419   3.600
 4743TIP3    H114235   4.389   0.420   3.521
 4743TIP3    H214236   4.246   0.432   3.568
 4744TIP3   OH214237   5.165   4.730   3.414
 4744TIP3    H114238   5.089   4.717   3.471
 4744TIP3    H214239   5.171   4.649   3.363
 4745TIP3   OH214240   4.901   2.634   0.997
 4745TIP3    H114241   4.844   2.642   0.920
 4745TIP3    H214242   4.988   2.656   0.964
 4746TIP3   OH214243   2.264   0.080   1.736
 4746TIP3    H114244   2.256   0.175   1.742
 4746TIP3    H214245   2.270   0.063   1.642
 4747TIP3   OH214246   4.146   1.893   2.824
 4747TIP3    H114247   4.081   1.963   2.813
 4747TIP3    H214248   4.230   1.936   2.813
 4748TIP3   OH214249   0.054   2.681   3.679
 4748TIP3    H114250   0.054   2.586   3.689
 4748TIP3    H214251  -0.004   2.698   3.605
 4749TIP3   OH214252   6.059   1.994   3.384
 4749TIP3    H114253   6.073   2.073   3.332
 4749TIP3    H214254   5.983   2.014   3.439
 4750TIP3   OH214255   2.187   3.279   3.421
 4750TIP3    H114256   2.128   3.203   3.424
 4750TIP3    H214257   2.146   3.339   3.359
 4751TIP3   OH214258   6.230   1.561   2.455
 4751TIP3    H114259   6.163   1.492   2.452
 4751TIP3    H214260   6.245   1.583   2.363
 4752TIP3   OH214261   1.517   2.934   0.565
 4752TIP3    H114262   1.516   2.839   0.555
 4752TIP3    H214263   1.431   2.962   0.536
 4753TIP3   OH214264   0.185   5.277   0.780
 4753TIP3    H114265   0.159   5.217   0.710
 4753TIP3    H214266   0.274   5.304   0.757
 4754TIP3   OH214267   1.867   1.776   5.090
 4754TIP3    H114268   1.957   1.808   5.083
 4754TIP3    H214269   1.830   1.826   5.163
 4755TIP3   OH214270   3.341   1.908   0.509
 4755TIP3    H114271   3.414   1.919   0.449
 4755TIP3    H214272   3.377   1.860   0.583
 4756TIP3   OH214273   3.744   2.836   0.486
 4756TIP3    H114274   3.736   2.903   0.418
 4756TIP3    H214275   3.669   2.849   0.543
 4757TIP3   OH214276   0.602   3.172   5.042
 4757TIP3    H114277   0.642   3.208   4.963
 4757TIP3    H214278   0.575   3.084   5.017
 4758TIP3   OH214279   4.989   5.130   4.649
 4758TIP3    H114280   5.082   5.153   4.656
 4758TIP3    H214281   4.982   5.083   4.566
 4759TIP3   OH214282   2.612   5.976   0.681
 4759TIP3    H114283   2.665   5.897   0.688
 4759TIP3    H214284   2.528   5.945   0.647
 4760TIP3   OH214285   2.219   3.560   0.299
 4760TIP3    H114286   2.284   3.502   0.337
 4760TIP3    H214287   2.175   3.599   0.375
 4761TIP3   OH214288   5.166   0.471   0.689
 4761TIP3    H114289   5.183   0.401   0.752
 4761TIP3    H214290   5.081   0.451   0.652
 4762TIP3   OH214291   0.414   5.391   0.676
 4762TIP3    H114292   0.502   5.424   0.692
 4762TIP3    H214293   0.397   5.409   0.584
 4763TIP3   OH214294   2.506   1.333   2.962
 4763TIP3    H114295   2.437   1.395   2.987
 4763TIP3    H214296   2.459   1.254   2.939
 4764TIP3   OH214297   5.116   5.537   0.246
 4764TIP3    H114298   5.147   5.464   0.301
 4764TIP3    H214299   5.179   5.607   0.262
 4765TIP3   OH214300   2.687   3.765   3.308
 4765TIP3    H114301   2.654   3.722   3.229
 4765TIP3    H214302   2.672   3.701   3.378
 4766TIP3   OH214303   0.639   3.851   4.454
 4766TIP3    H114304   0.548   3.826   4.441
 4766TIP3    H214305   0.672   3.790   4.519
 4767TIP3   OH214306   0.578   3.550   5.060
 4767TIP3    H114307   0.605   3.491   5.131
 4767TIP3    H214308   0.528   3.494   5.000
 4768TIP3   OH214309   4.165   4.517   3.359
 4768TIP3    H114310   4.144   4.525   3.266
 4768TIP3    H214311   4.157   4.424   3.378
 4769TIP3   OH214312   5.235   2.976   3.803
 4769TIP3    H114313   5.328   2.976   3.824
 4769TIP3    H214314   5.216   3.066   3.775
 4770TIP3   OH214315   1.133   5.591   3.188
 4770TIP3    H114316   1.133   5.524   3.119
 4770TIP3    H214317   1.175   5.548   3.263
 4771TIP3   OH214318   0.384   3.032   1.844
 4771TIP3    H114319   0.318   3.086   1.887
 4771TIP3    H214320   0.349   3.015   1.757
 4772TIP3   OH214321   3.899   4.992   3.878
 4772TIP3    H114322   3.976   5.043   3.853
 4772TIP3    H214323   3.839   5.056   3.916
 4773TIP3   OH214324   3.758   4.934   0.829
 4773TIP3    H114325   3.832   4.923   0.769
 4773TIP3    H214326   3.681   4.932   0.772
 4774TIP3   OH214327   1.637   1.719   4.659
 4774TIP3    H114328   1.597   1.784   4.717
 4774TIP3    H214329   1.712   1.686   4.709
 4775TIP3   OH214330   1.278   4.567   1.665
 4775TIP3    H114331   1.223   4.640   1.635
 4775TIP3    H214332   1.333   4.606   1.734
 4776TIP3   OH214333   0.924   5.388   4.760
 4776TIP3    H114334   0.947   5.360   4.671
 4776TIP3    H214335   1.008   5.410   4.800
 4777TIP3   OH214336   0.142   0.459   3.254
 4777TIP3    H114337   0.180   0.539   3.217
 4777TIP3    H214338   0.138   0.398   3.180
 4778TIP3   OH214339   3.599   4.132   4.290
 4778TIP3    H114340   3.552   4.193   4.233
 4778TIP3    H214341   3.535   4.107   4.357
 4779TIP3   OH214342   1.828   5.947   2.183
 4779TIP3    H114343   1.810   5.995   2.102
 4779TIP3    H214344   1.742   5.919   2.214
 4780TIP3   OH214345   5.207   3.249   1.312
 4780TIP3    H114346   5.295   3.288   1.314
 4780TIP3    H214347   5.218   3.163   1.352
 4781TIP3   OH214348   0.697   0.850   4.167
 4781TIP3    H114349   0.636   0.819   4.234
 4781TIP3    H214350   0.738   0.771   4.133
 4782TIP3   OH214351   5.219   6.008   1.821
 4782TIP3    H114352   5.206   5.917   1.796
 4782TIP3    H214353   5.203   6.010   1.916
 4783TIP3   OH214354   3.073   5.945   2.542
 4783TIP3    H114355   3.149   5.981   2.589
 4783TIP3    H214356   3.063   5.857   2.578
 4784TIP3   OH214357   0.432   5.414   3.424
 4784TIP3    H114358   0.467   5.417   3.513
 4784TIP3    H214359   0.428   5.505   3.397
 4785TIP3   OH214360   1.380   1.038   3.045
 4785TIP3    H114361   1.372   0.992   2.962
 4785TIP3    H214362   1.360   0.973   3.112
 4786TIP3   OH214363   0.201   2.303   1.903
 4786TIP3    H114364   0.242   2.237   1.847
 4786TIP3    H214365   0.113   2.268   1.921
 4787TIP3   OH214366   5.690   4.760   1.239
 4787TIP3    H114367   5.628   4.814   1.288
 4787TIP3    H214368   5.745   4.721   1.306
 4788TIP3   OH214369   3.526   3.297   2.656
 4788TIP3    H114370   3.482   3.258   2.581
 4788TIP3    H214371   3.507   3.391   2.649
 4789TIP3   OH214372   4.311   0.262   2.473
 4789TIP3    H114373   4.267   0.342   2.500
 4789TIP3    H214374   4.249   0.219   2.414
 4790TIP3   OH214375   6.279   1.136   5.020
 4790TIP3    H114376   6.231   1.212   5.053
 4790TIP3    H214377   6.211   1.073   4.997
 4791TIP3   OH214378   0.808   2.917   3.723
 4791TIP3    H114379   0.830   2.995   3.672
 4791TIP3    H214380   0.837   2.843   3.669
 4792TIP3   OH214381   4.627   2.900   2.622
 4792TIP3    H114382   4.674   2.817   2.622
 4792TIP3    H214383   4.691   2.963   2.656
 4793TIP3   OH214384   1.573   2.256   4.420
 4793TIP3    H114385   1.519   2.187   4.457
 4793TIP3    H214386   1.663   2.229   4.438
 4794TIP3   OH214387   5.638   2.601   0.841
 4794TIP3    H114388   5.672   2.681   0.801
 4794TIP3    H214389   5.648   2.615   0.935
 4795TIP3   OH214390   3.926   5.180   2.472
 4795TIP3    H114391   3.916   5.193   2.567
 4795TIP3    H214392   3.873   5.103   2.453
 4796TIP3   OH214393   2.941   3.363   1.738
 4796TIP3    H114394   2.985   3.378   1.654
 4796TIP3    H214395   2.960   3.272   1.759
 4797TIP3   OH214396   4.422   0.945   4.264
 4797TIP3    H114397   4.423   1.041   4.270
 4797TIP3    H214398   4.330   0.922   4.277
 4798TIP3   OH214399   3.207   0.013   0.276
 4798TIP3    H114400   3.197  -0.073   0.317
 4798TIP3    H214401   3.126   0.060   0.299
 4799TIP3   OH214402   6.217   3.123   3.760
 4799TIP3    H114403   6.297   3.157   3.719
 4799TIP3    H214404   6.226   3.028   3.755
 4800TIP3   OH214405   0.584   3.935   3.270
 4800TIP3    H114406   0.658   3.909   3.324
 4800TIP3    H214407   0.510   3.937   3.330
 4801TIP3   OH214408   2.432   0.512   3.375
 4801TIP3    H114409   2.517   0.555   3.364
 4801TIP3    H214410   2.439   0.467   3.460
 4802TIP3   OH214411   3.100   2.977   4.219
 4802TIP3    H114412   3.035   3.027   4.170
 4802TIP3    H214413   3.053   2.944   4.295
 4803TIP3   OH214414   0.175   2.233   0.869
 4803TIP3    H114415   0.199   2.258   0.958
 4803TIP3    H214416   0.257   2.203   0.829
 4804TIP3   OH214417   1.352   3.819   3.937
 4804TIP3    H114418   1.385   3.803   3.848
 4804TIP3    H214419   1.392   3.750   3.990
 4805TIP3   OH214420   3.859   5.728   0.142
 4805TIP3    H114421   3.773   5.709   0.179
 4805TIP3    H214422   3.894   5.797   0.198
 4806TIP3   OH214423   4.605   4.523   2.838
 4806TIP3    H114424   4.525   4.556   2.878
 4806TIP3    H214425   4.637   4.457   2.900
 4807TIP3   OH214426   3.655   3.103   3.522
 4807TIP3    H114427   3.628   3.090   3.431
 4807TIP3    H214428   3.746   3.074   3.524
 4808TIP3   OH214429   2.743   5.540   0.763
 4808TIP3    H114430   2.703   5.609   0.817
 4808TIP3    H214431   2.779   5.586   0.687
 4809TIP3   OH214432   0.874   1.282   0.708
 4809TIP3    H114433   0.947   1.254   0.763
 4809TIP3    H214434   0.913   1.346   0.648
 4810TIP3   OH214435   5.167   3.819   2.584
 4810TIP3    H114436   5.083   3.839   2.543
 4810TIP3    H214437   5.232   3.839   2.518
 4811TIP3   OH214438   3.782   2.783   1.993
 4811TIP3    H114439   3.835   2.860   1.973
 4811TIP3    H214440   3.827   2.711   1.948
 4812TIP3   OH214441   3.047   2.029   1.416
 4812TIP3    H114442   3.119   1.966   1.419
 4812TIP3    H214443   3.013   2.031   1.506
 4813TIP3   OH214444   1.342   4.042   2.612
 4813TIP3    H114445   1.304   4.053   2.700
 4813TIP3    H214446   1.322   3.951   2.589
 4814TIP3   OH214447   4.799   3.791   0.261
 4814TIP3    H114448   4.860   3.781   0.188
 4814TIP3    H214449   4.853   3.826   0.333
 4815TIP3   OH214450   0.620   5.506   1.238
 4815TIP3    H114451   0.599   5.576   1.176
 4815TIP3    H214452   0.677   5.548   1.303
 4816TIP3   OH214453   5.548   0.878   1.192
 4816TIP3    H114454   5.511   0.811   1.135
 4816TIP3    H214455   5.588   0.828   1.264
 4817TIP3   OH214456   1.638   5.584   3.971
 4817TIP3    H114457   1.657   5.511   3.911
 4817TIP3    H214458   1.719   5.635   3.972
 4818TIP3   OH214459   5.169   1.159   1.707
 4818TIP3    H114460   5.091   1.189   1.753
 4818TIP3    H214461   5.242   1.188   1.761
 4819TIP3   OH214462   3.595   1.522   0.625
 4819TIP3    H114463   3.505   1.499   0.647
 4819TIP3    H214464   3.648   1.478   0.691
 4820TIP3   OH214465   0.643   2.934   3.445
 4820TIP3    H114466   0.646   3.017   3.492
 4820TIP3    H214467   0.610   2.871   3.509
 4821TIP3   OH214468   2.354   3.888   0.264
 4821TIP3    H114469   2.272   3.937   0.270
 4821TIP3    H214470   2.373   3.885   0.170
 4822TIP3   OH214471   0.365   3.640   1.476
 4822TIP3    H114472   0.434   3.679   1.529
 4822TIP3    H214473   0.295   3.705   1.477
 4823TIP3   OH214474   1.865   0.949   4.829
 4823TIP3    H114475   1.818   0.894   4.893
 4823TIP3    H214476   1.910   0.887   4.772
 4824TIP3   OH214477   3.487   4.392   2.026
 4824TIP3    H114478   3.418   4.352   1.973
 4824TIP3    H214479   3.567   4.376   1.977
 4825TIP3   OH214480   6.007   4.839   1.191
 4825TIP3    H114481   6.094   4.873   1.211
 4825TIP3    H214482   5.958   4.917   1.163
 4826TIP3   OH214483   4.903   3.535   0.527
 4826TIP3    H114484   4.907   3.514   0.434
 4826TIP3    H214485   4.986   3.581   0.544
 4827TIP3   OH214486   3.804   0.357   4.722
 4827TIP3    H114487   3.745   0.428   4.697
 4827TIP3    H214488   3.852   0.336   4.642
 4828TIP3   OH214489   4.967   5.829   0.784
 4828TIP3    H114490   4.978   5.848   0.877
 4828TIP3    H214491   4.876   5.852   0.765
 4829TIP3   OH214492   2.675   5.438   3.441
 4829TIP3    H114493   2.716   5.355   3.467
 4829TIP3    H214494   2.675   5.436   3.345
 4830TIP3   OH214495   0.709   0.609   2.971
 4830TIP3    H114496   0.770   0.644   3.036
 4830TIP3    H214497   0.630   0.588   3.020
 4831TIP3   OH214498   2.925   4.770   2.762
 4831TIP3    H114499   3.017   4.763   2.737
 4831TIP3    H214500   2.886   4.826   2.695
 4832TIP3   OH214501   4.008   4.478   0.318
 4832TIP3    H114502   4.078   4.538   0.293
 4832TIP3    H214503   3.943   4.486   0.248
 4833TIP3   OH214504   5.870   4.141   3.724
 4833TIP3    H114505   5.858   4.124   3.817
 4833TIP3    H214506   5.807   4.083   3.681
 4834TIP3   OH214507   4.718   1.464   2.369
 4834TIP3    H114508   4.642   1.462   2.311
 4834TIP3    H214509   4.750   1.374   2.369
 4835TIP3   OH214510   3.818   0.394   1.542
 4835TIP3    H114511   3.880   0.419   1.473
 4835TIP3    H214512   3.734   0.430   1.513
 4836TIP3   OH214513   3.961   0.949   2.704
 4836TIP3    H114514   3.952   0.952   2.609
 4836TIP3    H214515   3.896   1.011   2.736
 4837TIP3   OH214516   0.972   3.943   1.732
 4837TIP3    H114517   0.997   3.856   1.765
 4837TIP3    H214518   0.889   3.962   1.776
 4838TIP3   OH214519   4.515   1.855   4.897
 4838TIP3    H114520   4.510   1.909   4.818
 4838TIP3    H214521   4.427   1.821   4.910
 4839TIP3   OH214522   0.589   2.923   2.383
 4839TIP3    H114523   0.598   3.002   2.437
 4839TIP3    H214524   0.500   2.927   2.348
 4840TIP3   OH214525   3.083   5.345   4.685
 4840TIP3    H114526   3.070   5.274   4.622
 4840TIP3    H214527   3.042   5.421   4.644
 4841TIP3   OH214528   4.241   4.545   0.096
 4841TIP3    H114529   4.305   4.527   0.165
 4841TIP3    H214530   4.225   4.459   0.056
 4842TIP3   OH214531   2.098   0.218   4.838
 4842TIP3    H114532   2.118   0.147   4.778
 4842TIP3    H214533   2.111   0.180   4.925
 4843TIP3   OH214534   2.059   4.471   4.481
 4843TIP3    H114535   2.019   4.455   4.396
 4843TIP3    H214536   2.134   4.411   4.484
 4844TIP3   OH214537   1.449   3.656   3.424
 4844TIP3    H114538   1.474   3.742   3.390
 4844TIP3    H214539   1.365   3.637   3.382
 4845TIP3   OH214540   5.029   3.312   4.948
 4845TIP3    H114541   4.972   3.238   4.929
 4845TIP3    H214542   5.038   3.312   5.043
 4846TIP3   OH214543   1.615   1.563   4.046
 4846TIP3    H114544   1.653   1.509   3.977
 4846TIP3    H214545   1.680   1.630   4.064
 4847TIP3   OH214546   0.057   5.501   0.705
 4847TIP3    H114547   0.107   5.421   0.720
 4847TIP3    H214548  -0.001   5.508   0.781
 4848TIP3   OH214549   5.326   5.373   3.184
 4848TIP3    H114550   5.417   5.369   3.214
 4848TIP3    H214551   5.274   5.347   3.260
 4849TIP3   OH214552   0.278   4.099   5.051
 4849TIP3    H114553   0.345   4.139   4.995
 4849TIP3    H214554   0.231   4.173   5.090
 4850TIP3   OH214555   4.315   0.513   3.145
 4850TIP3    H114556   4.280   0.587   3.095
 4850TIP3    H214557   4.260   0.439   3.119
 4851TIP3   OH214558   1.055   2.868   3.054
 4851TIP3    H114559   1.095   2.781   3.063
 4851TIP3    H214560   1.074   2.894   2.963
 4852TIP3   OH214561   4.876   3.253   2.380
 4852TIP3    H114562   4.818   3.179   2.363
 4852TIP3    H214563   4.949   3.215   2.429
 4853TIP3   OH214564   3.034   3.067   3.475
 4853TIP3    H114565   3.066   3.137   3.530
 4853TIP3    H214566   3.006   3.110   3.394
 4854TIP3   OH214567   0.508   0.785   4.346
 4854TIP3    H114568   0.428   0.769   4.296
 4854TIP3    H214569   0.480   0.836   4.422
 4855TIP3   OH214570   4.389   5.917   4.970
 4855TIP3    H114571   4.393   5.886   5.060
 4855TIP3    H214572   4.321   5.863   4.930
 4856TIP3   OH214573   5.684   5.230   2.554
 4856TIP3    H114574   5.652   5.208   2.466
 4856TIP3    H214575   5.624   5.298   2.586
 4857TIP3   OH214576   3.693   2.146   1.213
 4857TIP3    H114577   3.601   2.164   1.191
 4857TIP3    H214578   3.731   2.114   1.131
 4858TIP3   OH214579   2.226   1.957   2.024
 4858TIP3    H114580   2.225   1.893   1.952
 4858TIP3    H214581   2.148   1.937   2.075
 4859TIP3   OH214582   2.996   0.323   0.559
 4859TIP3    H114583   2.989   0.410   0.519
 4859TIP3    H214584   2.928   0.322   0.626
 4860TIP3   OH214585   5.774   5.881   2.487
 4860TIP3    H114586   5.859   5.852   2.522
 4860TIP3    H214587   5.760   5.967   2.527
 4861TIP3   OH214588   6.166   2.148   3.900
 4861TIP3    H114589   6.249   2.194   3.913
 4861TIP3    H214590   6.190   2.071   3.849
 4862TIP3   OH214591   5.825   4.330   1.011
 4862TIP3    H114592   5.862   4.418   1.020
 4862TIP3    H214593   5.816   4.316   0.917
 4863TIP3   OH214594   4.669   3.262   4.115
 4863TIP3    H114595   4.676   3.210   4.035
 4863TIP3    H214596   4.577   3.287   4.119
 4864TIP3   OH214597   0.326   0.597   0.009
 4864TIP3    H114598   0.327   0.551  -0.075
 4864TIP3    H214599   0.411   0.641   0.014
 4865TIP3   OH214600   3.044   3.951   3.858
 4865TIP3    H114601   3.103   3.998   3.798
 4865TIP3    H214602   3.103   3.907   3.919
 4866TIP3   OH214603   0.007   1.364   4.280
 4866TIP3    H114604   0.046   1.441   4.321
 4866TIP3    H214605  -0.052   1.329   4.346
 4867TIP3   OH214606   0.572   3.259   0.582
 4867TIP3    H114607   0.666   3.253   0.602
 4867TIP3    H214608   0.556   3.352   0.570
 4868TIP3   OH214609   2.284   3.846   1.166
 4868TIP3    H114610   2.214   3.905   1.191
 4868TIP3    H214611   2.349   3.855   1.236
 4869TIP3   OH214612   6.164   0.903   2.712
 4869TIP3    H114613   6.218   0.970   2.671
 4869TIP3    H214614   6.087   0.951   2.743
 4870TIP3   OH214615   3.709   0.364   4.978
 4870TIP3    H114616   3.616   0.355   4.957
 4870TIP3    H214617   3.754   0.337   4.898
 4871TIP3   OH214618   0.216   4.311   2.518
 4871TIP3    H114619   0.197   4.290   2.610
 4871TIP3    H214620   0.311   4.322   2.515
 4872TIP3   OH214621   4.045   2.401   2.195
 4872TIP3    H114622   4.059   2.322   2.144
 4872TIP3    H214623   4.130   2.419   2.235
 4873TIP3   OH214624   1.394   2.889   2.122
 4873TIP3    H114625   1.313   2.839   2.118
 4873TIP3    H214626   1.457   2.830   2.164
 4874TIP3   OH214627   6.250   4.807   1.785
 4874TIP3    H114628   6.231   4.845   1.699
 4874TIP3    H214629   6.187   4.735   1.794
 4875TIP3   OH214630   0.144   5.773   4.472
 4875TIP3    H114631   0.075   5.826   4.434
 4875TIP3    H214632   0.105   5.733   4.550
 4876TIP3   OH214633   1.652   1.649   3.210
 4876TIP3    H114634   1.592   1.695   3.152
 4876TIP3    H214635   1.720   1.614   3.151
 4877TIP3   OH214636   0.594   4.036   2.295
 4877TIP3    H114637   0.518   4.004   2.344
 4877TIP3    H214638   0.642   3.958   2.269
 4878TIP3   OH214639   0.895   3.380   3.379
 4878TIP3    H114640   0.881   3.413   3.290
 4878TIP3    H214641   0.984   3.346   3.378
 4879TIP3   OH214642   1.787   4.655   0.244
 4879TIP3    H114643   1.873   4.668   0.285
 4879TIP3    H214644   1.765   4.564   0.263
 4880TIP3   OH214645   5.563   1.876   1.832
 4880TIP3    H114646   5.652   1.852   1.807
 4880TIP3    H214647   5.560   1.971   1.824
 4881TIP3   OH214648   2.490   1.902   3.250
 4881TIP3    H114649   2.563   1.957   3.223
 4881TIP3    H214650   2.466   1.935   3.337
 4882TIP3   OH214651   1.550   2.546   2.091
 4882TIP3    H114652   1.591   2.459   2.094
 4882TIP3    H214653   1.577   2.588   2.173
 4883TIP3   OH214654   1.653   2.227   4.784
 4883TIP3    H114655   1.724   2.224   4.720
 4883TIP3    H214656   1.662   2.312   4.826
 4884TIP3   OH214657   2.677   2.087   3.167
 4884TIP3    H114658   2.624   2.152   3.120
 4884TIP3    H214659   2.750   2.069   3.108
 4885TIP3   OH214660   6.188   1.867   2.734
 4885TIP3    H114661   6.127   1.910   2.675
 4885TIP3    H214662   6.136   1.847   2.812
 4886TIP3   OH214663   5.241   2.082   2.138
 4886TIP3    H114664   5.305   2.148   2.165
 4886TIP3    H214665   5.294   2.013   2.098
 4887TIP3   OH214666   4.641   1.323   0.735
 4887TIP3    H114667   4.598   1.238   0.742
 4887TIP3    H214668   4.674   1.340   0.824
 4888TIP3   OH214669   4.007   3.762   3.098
 4888TIP3    H114670   3.947   3.753   3.172
 4888TIP3    H214671   4.023   3.673   3.069
 4889TIP3   OH214672   1.446   1.033   0.911
 4889TIP3    H114673   1.488   1.053   0.995
 4889TIP3    H214674   1.353   1.050   0.926
 4890TIP3   OH214675   5.555   4.282   4.196
 4890TIP3    H114676   5.496   4.245   4.129
 4890TIP3    H214677   5.620   4.331   4.146
 4891TIP3   OH214678   0.046   0.187   0.068
 4891TIP3    H114679   0.110   0.211   0.001
 4891TIP3    H214680   0.098   0.144   0.136
 4892TIP3   OH214681   1.255   3.155   2.176
 4892TIP3    H114682   1.311   3.083   2.148
 4892TIP3    H214683   1.194   3.168   2.104
 4893TIP3   OH214684   1.394   4.419   4.503
 4893TIP3    H114685   1.441   4.356   4.557
 4893TIP3    H214686   1.400   4.501   4.552
 4894TIP3   OH214687   5.282   2.604   3.733
 4894TIP3    H114688   5.288   2.661   3.809
 4894TIP3    H214689   5.321   2.654   3.662
 4895TIP3   OH214690   2.255   2.389   4.831
 4895TIP3    H114691   2.278   2.361   4.920
 4895TIP3    H214692   2.211   2.474   4.843
 4896TIP3   OH214693   4.835   5.065   4.927
 4896TIP3    H114694   4.843   4.978   4.967
 4896TIP3    H214695   4.768   5.110   4.979
 4897TIP3   OH214696   1.854   1.918   4.731
 4897TIP3    H114697   1.821   1.925   4.641
 4897TIP3    H214698   1.777   1.932   4.786
 4898TIP3   OH214699   0.308   3.046   2.567
 4898TIP3    H114700   0.373   3.042   2.637
 4898TIP3    H214701   0.226   3.017   2.608
 4899TIP3   OH214702   4.921   3.536   4.099
 4899TIP3    H114703   4.830   3.544   4.070
 4899TIP3    H214704   4.972   3.529   4.018
 4900TIP3   OH214705   0.060   0.048   2.910
 4900TIP3    H114706   0.039  -0.012   2.982
 4900TIP3    H214707  -0.014   0.040   2.850
 4901TIP3   OH214708   5.584   2.386   4.083
 4901TIP3    H114709   5.582   2.323   4.155
 4901TIP3    H214710   5.660   2.359   4.031
 4902TIP3   OH214711   3.105   4.602   1.597
 4902TIP3    H114712   3.104   4.675   1.535
 4902TIP3    H214713   3.198   4.577   1.603
 4903TIP3   OH214714   1.782   1.669   3.738
 4903TIP3    H114715   1.816   1.736   3.797
 4903TIP3    H214716   1.723   1.716   3.679
 4904TIP3   OH214717   5.138   4.347   3.643
 4904TIP3    H114718   5.065   4.312   3.591
 4904TIP3    H214719   5.103   4.355   3.731
 4905TIP3   OH214720   0.217   2.262   4.501
 4905TIP3    H114721   0.212   2.351   4.537
 4905TIP3    H214722   0.298   2.226   4.538
 4906TIP3   OH214723   1.623   0.438   0.537
 4906TIP3    H114724   1.591   0.446   0.627
 4906TIP3    H214725   1.641   0.528   0.510
 4907TIP3   OH214726   2.977   0.046   3.162
 4907TIP3    H114727   2.960   0.135   3.130
 4907TIP3    H214728   3.039   0.010   3.100
 4908TIP3   OH214729   5.209   3.892   2.858
 4908TIP3    H114730   5.183   3.837   2.784
 4908TIP3    H214731   5.218   3.830   2.931
 4909TIP3   OH214732   3.091   4.439   4.432
 4909TIP3    H114733   3.075   4.485   4.514
 4909TIP3    H214734   3.007   4.437   4.388
 4910TIP3   OH214735   3.563   0.618   1.017
 4910TIP3    H114736   3.578   0.573   0.934
 4910TIP3    H214737   3.623   0.693   1.015
 4911TIP3   OH214738   1.526   0.757   4.294
 4911TIP3    H114739   1.585   0.802   4.355
 4911TIP3    H214740   1.451   0.732   4.348
 4912TIP3   OH214741   2.517   5.469   4.217
 4912TIP3    H114742   2.489   5.506   4.301
 4912TIP3    H214743   2.448   5.405   4.195
 4913TIP3   OH214744   2.960   1.950   4.987
 4913TIP3    H114745   2.921   1.863   4.987
 4913TIP3    H214746   2.915   1.997   4.917
 4914TIP3   OH214747   1.409   0.450   4.926
 4914TIP3    H114748   1.323   0.482   4.954
 4914TIP3    H214749   1.424   0.492   4.841
 4915TIP3   OH214750   0.377   2.798   1.513
 4915TIP3    H114751   0.283   2.782   1.524
 4915TIP3    H214752   0.381   2.874   1.455
 4916TIP3   OH214753   1.114   1.082   2.120
 4916TIP3    H114754   1.203   1.048   2.127
 4916TIP3    H214755   1.108   1.114   2.030
 4917TIP3   OH214756   3.314   4.690   2.930
 4917TIP3    H114757   3.322   4.659   3.020
 4917TIP3    H214758   3.397   4.734   2.912
 4918TIP3   OH214759   3.226   0.133   1.162
 4918TIP3    H114760   3.159   0.166   1.221
 4918TIP3    H214761   3.192   0.151   1.074
 4919TIP3   OH214762   3.611   1.003   1.175
 4919TIP3    H114763   3.629   0.929   1.117
 4919TIP3    H214764   3.683   1.064   1.158
 4920TIP3   OH214765   6.163   2.853   2.419
 4920TIP3    H114766   6.074   2.885   2.403
 4920TIP3    H214767   6.159   2.815   2.507
 4921TIP3   OH214768   1.685   2.405   1.805
 4921TIP3    H114769   1.594   2.419   1.778
 4921TIP3    H214770   1.734   2.476   1.762
 4922TIP3   OH214771   6.302   5.351   1.694
 4922TIP3    H114772   6.350   5.270   1.710
 4922TIP3    H214773   6.245   5.360   1.770
 4923TIP3   OH214774   3.632   5.082   3.538
 4923TIP3    H114775   3.700   5.019   3.560
 4923TIP3    H214776   3.592   5.047   3.459
 4924TIP3   OH214777   1.208   5.794   1.064
 4924TIP3    H114778   1.185   5.813   1.155
 4924TIP3    H214779   1.132   5.747   1.030
 4925TIP3   OH214780   4.584   4.761   3.609
 4925TIP3    H114781   4.554   4.677   3.643
 4925TIP3    H214782   4.649   4.791   3.672
 4926TIP3   OH214783   4.853   0.231   1.290
 4926TIP3    H114784   4.798   0.266   1.219
 4926TIP3    H214785   4.943   0.250   1.262
 4927TIP3   OH214786   3.432   4.708   0.113
 4927TIP3    H114787   3.437   4.800   0.141
 4927TIP3    H214788   3.508   4.696   0.057
 4928TIP3   OH214789   0.586   4.118   0.409
 4928TIP3    H114790   0.581   4.181   0.337
 4928TIP3    H214791   0.500   4.075   0.408
 4929TIP3   OH214792   4.276   1.494   1.547
 4929TIP3    H114793   4.193   1.450   1.562
 4929TIP3    H214794   4.323   1.438   1.485
 4930TIP3   OH214795   2.698   2.572   1.054
 4930TIP3    H114796   2.647   2.539   1.127
 4930TIP3    H214797   2.746   2.647   1.090
 4931TIP3   OH214798   0.627   2.409   0.424
 4931TIP3    H114799   0.644   2.329   0.474
 4931TIP3    H214800   0.681   2.400   0.345
 4932TIP3   OH214801   4.702   4.034   3.736
 4932TIP3    H114802   4.723   3.956   3.684
 4932TIP3    H214803   4.607   4.030   3.747
 4933TIP3   OH214804   5.669   4.186   4.673
 4933TIP3    H114805   5.760   4.163   4.659
 4933TIP3    H214806   5.660   4.273   4.637
 4934TIP3   OH214807   5.078   1.205   2.513
 4934TIP3    H114808   5.072   1.297   2.488
 4934TIP3    H214809   5.081   1.207   2.609
 4935TIP3   OH214810   2.281   0.349   1.080
 4935TIP3    H114811   2.233   0.276   1.118
 4935TIP3    H214812   2.312   0.317   0.996
 4936TIP3   OH214813   2.029   3.920   0.095
 4936TIP3    H114814   2.087   3.885   0.026
 4936TIP3    H214815   2.073   4.001   0.123
 4937TIP3   OH214816   0.475   1.815   3.412
 4937TIP3    H114817   0.407   1.768   3.460
 4937TIP3    H214818   0.482   1.900   3.456
 4938TIP3   OH214819   5.902   5.927   2.165
 4938TIP3    H114820   5.954   5.968   2.096
 4938TIP3    H214821   5.951   5.944   2.245
 4939TIP3   OH214822   0.465   4.185   4.867
 4939TIP3    H114823   0.523   4.253   4.902
 4939TIP3    H214824   0.522   4.112   4.845
 4940TIP3   OH214825   2.900   1.632   1.929
 4940TIP3    H114826   2.911   1.567   1.998
 4940TIP3    H214827   2.807   1.656   1.934
 4941TIP3   OH214828   0.099   3.329   0.382
 4941TIP3    H114829   0.110   3.409   0.331
 4941TIP3    H214830   0.185   3.288   0.381
 4942TIP3   OH214831   5.492   3.653   4.193
 4942TIP3    H114832   5.512   3.666   4.286
 4942TIP3    H214833   5.442   3.571   4.191
 4943TIP3   OH214834   2.786   1.443   4.943
 4943TIP3    H114835   2.870   1.403   4.963
 4943TIP3    H214836   2.730   1.369   4.920
 4944TIP3   OH214837   0.200   3.378   0.808
 4944TIP3    H114838   0.113   3.380   0.767
 4944TIP3    H214839   0.237   3.464   0.791
 4945TIP3   OH214840   2.798   1.192   4.745
 4945TIP3    H114841   2.848   1.253   4.691
 4945TIP3    H214842   2.720   1.173   4.693
 4946TIP3   OH214843   4.630   5.873   4.827
 4946TIP3    H114844   4.721   5.900   4.841
 4946TIP3    H214845   4.581   5.917   4.896
 4947TIP3   OH214846   1.968   1.061   3.217
 4947TIP3    H114847   1.968   0.981   3.271
 4947TIP3    H214848   2.044   1.051   3.160
 4948TIP3   OH214849   0.103   1.797   2.880
 4948TIP3    H114850   0.109   1.869   2.943
 4948TIP3    H214851   0.025   1.816   2.829
 4949TIP3   OH214852   1.183   0.685   0.698
 4949TIP3    H114853   1.276   0.685   0.721
 4949TIP3    H214854   1.181   0.702   0.604
 4950TIP3   OH214855   2.339   0.937   3.954
 4950TIP3    H114856   2.304   1.025   3.941
 4950TIP3    H214857   2.372   0.911   3.868
 4951TIP3   OH214858   1.609   5.708   0.349
 4951TIP3    H114859   1.645   5.714   0.261
 4951TIP3    H214860   1.650   5.781   0.396
 4952TIP3   OH214861   5.138   0.770   2.335
 4952TIP3    H114862   5.070   0.836   2.323
 4952TIP3    H214863   5.105   0.692   2.290
 4953TIP3   OH214864   5.522   3.129   2.028
 4953TIP3    H114865   5.456   3.188   2.066
 4953TIP3    H214866   5.472   3.072   1.970
 4954TIP3   OH214867   3.694   5.343   1.578
 4954TIP3    H114868   3.700   5.390   1.660
 4954TIP3    H214869   3.607   5.304   1.579
 4955TIP3   OH214870   1.837   5.805   3.889
 4955TIP3    H114871   1.782   5.859   3.946
 4955TIP3    H214872   1.780   5.783   3.815
 4956TIP3   OH214873   1.748   1.446   4.294
 4956TIP3    H114874   1.746   1.542   4.286
 4956TIP3    H214875   1.767   1.415   4.205
 4957TIP3   OH214876   5.068   5.603   3.168
 4957TIP3    H114877   4.994   5.578   3.113
 4957TIP3    H214878   5.075   5.533   3.233
 4958TIP3   OH214879   3.868   4.107   0.059
 4958TIP3    H114880   3.921   4.035   0.026
 4958TIP3    H214881   3.916   4.186   0.035
 4959TIP3   OH214882   4.628   5.193   5.094
 4959TIP3    H114883   4.709   5.245   5.094
 4959TIP3    H214884   4.558   5.257   5.108
 4960TIP3   OH214885   1.714   2.890   3.555
 4960TIP3    H114886   1.708   2.956   3.624
 4960TIP3    H214887   1.803   2.857   3.562
 4961TIP3   OH214888   1.938   2.803   1.261
 4961TIP3    H114889   1.861   2.849   1.295
 4961TIP3    H214890   1.987   2.870   1.215
 4962TIP3   OH214891   1.655   4.577   3.672
 4962TIP3    H114892   1.692   4.490   3.658
 4962TIP3    H214893   1.573   4.561   3.718
 4963TIP3   OH214894   0.889   4.335   1.970
 4963TIP3    H114895   0.840   4.389   2.033
 4963TIP3    H214896   0.922   4.262   2.022
 4964TIP3   OH214897   1.497   2.620   4.814
 4964TIP3    H114898   1.573   2.567   4.788
 4964TIP3    H214899   1.530   2.710   4.815
 4965TIP3   OH214900   4.399   5.919   0.496
 4965TIP3    H114901   4.457   5.966   0.556
 4965TIP3    H214902   4.330   5.884   0.552
 4966TIP3   OH214903   3.466   5.355   3.538
 4966TIP3    H114904   3.446   5.374   3.447
 4966TIP3    H214905   3.544   5.299   3.535
 4967TIP3   OH214906   1.909   4.504   4.734
 4967TIP3    H114907   1.940   4.592   4.714
 4967TIP3    H214908   1.940   4.450   4.661
 4968TIP3   OH214909   0.310   3.072   2.903
 4968TIP3    H114910   0.360   3.020   2.839
 4968TIP3    H214911   0.220   3.043   2.892
 4969TIP3   OH214912   2.270   0.719   2.015
 4969TIP3    H114913   2.335   0.768   1.964
 4969TIP3    H214914   2.314   0.637   2.037
 4970TIP3   OH214915   5.157   2.222   3.563
 4970TIP3    H114916   5.180   2.155   3.498
 4970TIP3    H214917   5.229   2.220   3.625
 4971TIP3   OH214918   5.499   2.772   4.254
 4971TIP3    H114919   5.531   2.795   4.342
 4971TIP3    H214920   5.424   2.829   4.241
 4972TIP3   OH214921   2.037   3.991   3.181
 4972TIP3    H114922   2.094   4.066   3.196
 4972TIP3    H214923   2.027   3.987   3.086
 4973TIP3   OH214924   1.046   1.520   4.026
 4973TIP3    H114925   1.056   1.554   4.114
 4973TIP3    H214926   1.059   1.595   3.969
 4974TIP3   OH214927   0.631   4.438   4.973
 4974TIP3    H114928   0.722   4.463   4.991
 4974TIP3    H214929   0.580   4.488   5.037
 4975TIP3   OH214930   3.404   1.846   1.610
 4975TIP3    H114931   3.497   1.865   1.598
 4975TIP3    H214932   3.402   1.760   1.652
 4976TIP3   OH214933   5.620   5.670   1.672
 4976TIP3    H114934   5.551   5.650   1.735
 4976TIP3    H214935   5.699   5.630   1.708
 4977TIP3   OH214936   2.610   4.524   0.551
 4977TIP3    H114937   2.623   4.433   0.527
 4977TIP3    H214938   2.576   4.520   0.641
 4978TIP3   OH214939   4.713   3.123   3.350
 4978TIP3    H114940   4.633   3.175   3.355
 4978TIP3    H214941   4.741   3.112   3.441
 4979TIP3   OH214942   3.447   5.294   1.130
 4979TIP3    H114943   3.405   5.380   1.121
 4979TIP3    H214944   3.471   5.270   1.040
 4980TIP3   OH214945   4.594   2.838   3.927
 4980TIP3    H114946   4.674   2.824   3.877
 4980TIP3    H214947   4.565   2.926   3.902
 4981TIP3   OH214948   3.058   4.603   4.663
 4981TIP3    H114949   3.048   4.571   4.753
 4981TIP3    H214950   3.021   4.691   4.664
 4982TIP3   OH214951   3.990   1.032   3.532
 4982TIP3    H114952   3.942   1.109   3.564
 4982TIP3    H214953   4.042   1.003   3.607
 4983TIP3   OH214954   3.054   3.580   0.482
 4983TIP3    H114955   3.074   3.656   0.537
 4983TIP3    H214956   2.968   3.551   0.511
 4984TIP3   OH214957   5.954   1.037   4.481
 4984TIP3    H114958   5.975   1.122   4.443
 4984TIP3    H214959   5.858   1.036   4.486
 4985TIP3   OH214960   1.128   2.244   0.472
 4985TIP3    H114961   1.062   2.221   0.538
 4985TIP3    H214962   1.079   2.294   0.406
 4986TIP3   OH214963   5.613   0.504   1.795
 4986TIP3    H114964   5.550   0.556   1.844
 4986TIP3    H214965   5.560   0.452   1.734
 4987TIP3   OH214966   1.513   2.627   1.651
 4987TIP3    H114967   1.535   2.720   1.640
 4987TIP3    H214968   1.464   2.624   1.733
 4988TIP3   OH214969   4.123   2.847   3.253
 4988TIP3    H114970   4.139   2.890   3.337
 4988TIP3    H214971   4.116   2.919   3.191
 4989TIP3   OH214972   5.620   4.939   5.060
 4989TIP3    H114973   5.670   4.996   5.001
 4989TIP3    H214974   5.676   4.863   5.073
 4990TIP3   OH214975   0.709   3.052   0.386
 4990TIP3    H114976   0.677   3.051   0.477
 4990TIP3    H214977   0.632   3.029   0.334
 4991TIP3   OH214978   6.243   1.033   4.642
 4991TIP3    H114979   6.207   1.112   4.601
 4991TIP3    H214980   6.333   1.029   4.611
 4992TIP3   OH214981   0.799   3.817   1.371
 4992TIP3    H114982   0.795   3.726   1.402
 4992TIP3    H214983   0.879   3.852   1.411
 4993TIP3   OH214984   0.720   3.096   4.687
 4993TIP3    H114985   0.809   3.061   4.674
 4993TIP3    H214986   0.723   3.183   4.649
 4994TIP3   OH214987   0.682   5.479   0.739
 4994TIP3    H114988   0.700   5.512   0.651
 4994TIP3    H214989   0.734   5.535   0.796
 4995TIP3   OH214990   1.498   5.298   1.251
 4995TIP3    H114991   1.440   5.370   1.226
 4995TIP3    H214992   1.585   5.339   1.258
 4996TIP3   OH214993   5.873   3.008   4.128
 4996TIP3    H114994   5.942   2.972   4.073
 4996TIP3    H214995   5.818   3.060   4.069
 4997TIP3   OH214996   5.563   0.123   0.734
 4997TIP3    H114997   5.630   0.058   0.715
 4997TIP3    H214998   5.486   0.094   0.687
 4998TIP3   OH214999   2.997   0.241   0.010
 4998TIP3    H115000   3.003   0.206   0.099
 4998TIP3    H215001   3.058   0.187  -0.041
 4999TIP3   OH215002   3.648   4.440   0.209
 4999TIP3    H115003   3.619   4.522   0.250
 4999TIP3    H215004   3.718   4.468   0.149
 5000TIP3   OH215005   2.375   0.510   4.668
 5000TIP3    H115006   2.450   0.470   4.623
 5000TIP3    H215007   2.411   0.545   4.749
 5001TIP3   OH215008   4.496   5.550   0.174
 5001TIP3    H115009   4.498   5.555   0.079
 5001TIP3    H215010   4.542   5.469   0.195
 5002TIP3   OH215011   3.850   5.547   1.056
 5002TIP3    H115012   3.773   5.526   1.003
 5002TIP3    H215013   3.834   5.504   1.140
 5003TIP3   OH215014   2.971   1.556   3.550
 5003TIP3    H115015   2.930   1.474   3.578
 5003TIP3    H215016   3.065   1.535   3.548
 5004TIP3   OH215017   1.967   3.325   3.742
 5004TIP3    H115018   2.026   3.342   3.816
 5004TIP3    H215019   1.990   3.391   3.677
 5005TIP3   OH215020   5.877   4.173   0.023
 5005TIP3    H115021   5.860   4.088   0.062
 5005TIP3    H215022   5.917   4.153  -0.062
 5006TIP3   OH215023   0.611   2.675   0.940
 5006TIP3    H115024   0.587   2.591   0.903
 5006TIP3    H215025   0.633   2.730   0.865
 5007TIP3   OH215026   1.278   1.659   0.885
 5007TIP3    H115027   1.215   1.698   0.823
 5007TIP3    H215028   1.261   1.704   0.968
 5008TIP3   OH215029   3.261   2.311   4.616
 5008TIP3    H115030   3.211   2.305   4.697
 5008TIP3    H215031   3.201   2.350   4.553
 5009TIP3   OH215032   5.300   4.362   0.427
 5009TIP3    H115033   5.207   4.385   0.417
 5009TIP3    H215034   5.317   4.297   0.359
 5010TIP3   OH215035   5.661   4.696   4.548
 5010TIP3    H115036   5.637   4.739   4.466
 5010TIP3    H215037   5.630   4.756   4.616
 5011TIP3   OH215038   5.458   3.310   0.284
 5011TIP3    H115039   5.456   3.218   0.258
 5011TIP3    H215040   5.492   3.309   0.373
 5012TIP3   OH215041   3.407   3.475   3.762
 5012TIP3    H115042   3.366   3.408   3.707
 5012TIP3    H215043   3.438   3.541   3.701
 5013TIP3   OH215044   1.540   3.512   0.398
 5013TIP3    H115045   1.614   3.484   0.345
 5013TIP3    H215046   1.470   3.528   0.336
 5014TIP3   OH215047   2.707   3.718   5.143
 5014TIP3    H115048   2.724   3.811   5.157
 5014TIP3    H215049   2.702   3.708   5.048
 5015TIP3   OH215050   4.498   0.732   2.955
 5015TIP3    H115051   4.537   0.792   2.892
 5015TIP3    H215052   4.423   0.694   2.909
 5016TIP3   OH215053   5.592   0.602   0.862
 5016TIP3    H115054   5.632   0.614   0.775
 5016TIP3    H215055   5.537   0.524   0.852
 5017TIP3   OH215056   5.345   3.846   1.877
 5017TIP3    H115057   5.335   3.798   1.959
 5017TIP3    H215058   5.422   3.900   1.890
 5018TIP3   OH215059   6.006   4.690   0.729
 5018TIP3    H115060   5.939   4.759   0.733
 5018TIP3    H215061   6.036   4.691   0.638
 5019TIP3   OH215062   0.813   4.709   3.558
 5019TIP3    H115063   0.767   4.780   3.513
 5019TIP3    H215064   0.797   4.632   3.503
 5020TIP3   OH215065   4.517   4.489   1.582
 5020TIP3    H115066   4.505   4.582   1.565
 5020TIP3    H215067   4.446   4.466   1.641
 5021TIP3   OH215068   0.058   2.247   3.119
 5021TIP3    H115069   0.121   2.282   3.056
 5021TIP3    H215070   0.091   2.160   3.140
 5022TIP3   OH215071   1.529   1.762   5.119
 5022TIP3    H115072   1.599   1.735   5.060
 5022TIP3    H215073   1.528   1.857   5.113
 5023TIP3   OH215074   5.822   3.836   1.638
 5023TIP3    H115075   5.900   3.828   1.694
 5023TIP3    H215076   5.858   3.853   1.551
 5024TIP3   OH215077   2.763   2.076   0.395
 5024TIP3    H115078   2.817   2.118   0.328
 5024TIP3    H215079   2.826   2.033   0.453
 5025TIP3   OH215080   3.517   4.918   0.701
 5025TIP3    H115081   3.430   4.958   0.708
 5025TIP3    H215082   3.500   4.826   0.679
 5026TIP3   OH215083   0.161   0.389   0.849
 5026TIP3    H115084   0.121   0.421   0.930
 5026TIP3    H215085   0.241   0.441   0.839
 5027TIP3   OH215086   0.231   1.128   3.773
 5027TIP3    H115087   0.195   1.116   3.685
 5027TIP3    H215088   0.245   1.222   3.780
 5028TIP3   OH215089   1.661   3.835   3.994
 5028TIP3    H115090   1.598   3.905   4.012
 5028TIP3    H215091   1.746   3.875   4.012
 5029TIP3   OH215092   6.010   1.897   2.984
 5029TIP3    H115093   5.929   1.848   3.002
 5029TIP3    H215094   6.072   1.866   3.049
 5030TIP3   OH215095   5.477   1.079   0.164
 5030TIP3    H115096   5.512   1.068   0.253
 5030TIP3    H215097   5.541   1.038   0.107
 5031TIP3   OH215098   4.572   4.926   2.165
 5031TIP3    H115099   4.609   4.840   2.185
 5031TIP3    H215100   4.588   4.979   2.243
 5032TIP3   OH215101   5.898   5.104   3.448
 5032TIP3    H115102   5.894   5.147   3.362
 5032TIP3    H215103   5.863   5.016   3.431
 5033TIP3   OH215104   0.375   2.991   1.335
 5033TIP3    H115105   0.326   3.025   1.261
 5033TIP3    H215106   0.457   3.042   1.335
 5034TIP3   OH215107   5.400   4.614   1.869
 5034TIP3    H115108   5.377   4.541   1.927
 5034TIP3    H215109   5.351   4.689   1.903
 5035TIP3   OH215110   2.747   4.584   3.539
 5035TIP3    H115111   2.736   4.528   3.616
 5035TIP3    H215112   2.810   4.537   3.484
 5036TIP3   OH215113   6.270   5.020   1.558
 5036TIP3    H115114   6.358   4.992   1.581
 5036TIP3    H215115   6.282   5.100   1.507
 5037TIP3   OH215116   0.719   3.153   2.511
 5037TIP3    H115117   0.654   3.181   2.575
 5037TIP3    H215118   0.798   3.202   2.533
 5038TIP3   OH215119   4.461   5.175   2.021
 5038TIP3    H115120   4.485   5.218   2.103
 5038TIP3    H215121   4.487   5.084   2.033
 5039TIP3   OH215122   4.494   4.578   2.591
 5039TIP3    H115123   4.496   4.504   2.531
 5039TIP3    H215124   4.529   4.543   2.673
 5040TIP3   OH215125   5.096   2.206   4.527
 5040TIP3    H115126   5.106   2.117   4.493
 5040TIP3    H215127   5.133   2.262   4.458
 5041TIP3   OH215128   0.361   1.360   5.165
 5041TIP3    H115129   0.423   1.318   5.105
 5041TIP3    H215130   0.299   1.290   5.188
 5042TIP3   OH215131   1.939   3.962   2.902
 5042TIP3    H115132   1.854   3.918   2.900
 5042TIP3    H215133   1.945   4.005   2.816
 5043TIP3   OH215134   3.954   4.377   2.853
 5043TIP3    H115135   3.914   4.464   2.861
 5043TIP3    H215136   3.881   4.316   2.867
 5044TIP3   OH215137   3.751   5.817   3.844
 5044TIP3    H115138   3.734   5.903   3.884
 5044TIP3    H215139   3.765   5.837   3.751
 5045TIP3   OH215140   5.163   0.545   2.689
 5045TIP3    H115141   5.137   0.455   2.670
 5045TIP3    H215142   5.191   0.543   2.781
 5046TIP3   OH215143   4.381   0.634   2.713
 5046TIP3    H115144   4.437   0.645   2.636
 5046TIP3    H215145   4.388   0.541   2.735
 5047TIP3   OH215146   0.868   2.385   1.843
 5047TIP3    H115147   0.904   2.413   1.759
 5047TIP3    H215148   0.935   2.409   1.907
 5048TIP3   OH215149   0.878   5.582   3.020
 5048TIP3    H115150   0.947   5.519   3.040
 5048TIP3    H215151   0.904   5.622   2.937
 5049TIP3   OH215152   6.159   0.417   2.022
 5049TIP3    H115153   6.094   0.486   2.006
 5049TIP3    H215154   6.239   0.465   2.043
 5050TIP3   OH215155   2.727   0.986   1.801
 5050TIP3    H115156   2.784   1.039   1.857
 5050TIP3    H215157   2.774   0.904   1.788
 5051TIP3   OH215158   4.951   5.230   2.466
 5051TIP3    H115159   4.908   5.268   2.389
 5051TIP3    H215160   5.029   5.283   2.478
 5052TIP3   OH215161   4.172   5.660   0.783
 5052TIP3    H115162   4.082   5.678   0.755
 5052TIP3    H215163   4.218   5.743   0.771
 5053TIP3   OH215164   6.107   1.575   0.856
 5053TIP3    H115165   6.086   1.486   0.881
 5053TIP3    H215166   6.053   1.630   0.913
 5054TIP3   OH215167   5.656   4.676   0.159
 5054TIP3    H115168   5.585   4.682   0.096
 5054TIP3    H215169   5.688   4.766   0.168
 5055TIP3   OH215170   5.822   5.782   1.141
 5055TIP3    H115171   5.835   5.875   1.120
 5055TIP3    H215172   5.764   5.749   1.073
 5056TIP3   OH215173   3.038   0.272   1.360
 5056TIP3    H115174   2.984   0.209   1.408
 5056TIP3    H215175   2.976   0.335   1.324
 5057TIP3   OH215176   3.249   0.543   2.815
 5057TIP3    H115177   3.184   0.506   2.874
 5057TIP3    H215178   3.330   0.546   2.866
 5058TIP3   OH215179   0.065   1.975   2.291
 5058TIP3    H115180   0.119   1.931   2.356
 5058TIP3    H215181  -0.019   1.930   2.294
 5059TIP3   OH215182   5.520   2.062   0.202
 5059TIP3    H115183   5.510   2.120   0.277
 5059TIP3    H215184   5.540   2.120   0.128
 5060TIP3   OH215185   3.643   0.771   4.126
 5060TIP3    H115186   3.665   0.728   4.044
 5060TIP3    H215187   3.727   0.798   4.162
 5061TIP3   OH215188   1.477   5.532   4.786
 5061TIP3    H115189   1.515   5.619   4.774
 5061TIP3    H215190   1.520   5.477   4.720
 5062TIP3   OH215191   0.777   4.040   0.599
 5062TIP3    H115192   0.867   4.034   0.567
 5062TIP3    H215193   0.726   4.063   0.521
 5063TIP3   OH215194   4.553   1.571   0.625
 5063TIP3    H115195   4.590   1.493   0.666
 5063TIP3    H215196   4.489   1.604   0.689
 5064TIP3   OH215197   0.997   2.982   2.107
 5064TIP3    H115198   0.980   3.072   2.136
 5064TIP3    H215199   0.917   2.935   2.129
 5065TIP3   OH215200   3.410   4.603   3.196
 5065TIP3    H115201   3.381   4.681   3.243
 5065TIP3    H215202   3.485   4.632   3.144
 5066TIP3   OH215203   4.786   1.238   0.981
 5066TIP3    H115204   4.832   1.217   1.063
 5066TIP3    H215205   4.807   1.165   0.923
 5067TIP3   OH215206   1.111   1.117   2.997
 5067TIP3    H115207   1.192   1.115   3.049
 5067TIP3    H215208   1.053   1.055   3.041
 5068TIP3   OH215209   5.836   2.544   1.434
 5068TIP3    H115210   5.763   2.522   1.493
 5068TIP3    H215211   5.848   2.638   1.445
 5069TIP3   OH215212   5.032   3.357   3.148
 5069TIP3    H115213   5.122   3.388   3.138
 5069TIP3    H215214   5.019   3.298   3.075
 5070TIP3   OH215215   2.391   3.745   3.035
 5070TIP3    H115216   2.377   3.778   3.124
 5070TIP3    H215217   2.442   3.666   3.047
 5071TIP3   OH215218   4.157   3.708   4.277
 5071TIP3    H115219   4.063   3.693   4.265
 5071TIP3    H215220   4.163   3.798   4.309
 5072TIP3   OH215221   5.719   4.250   2.908
 5072TIP3    H115222   5.645   4.275   2.851
 5072TIP3    H215223   5.682   4.185   2.968
 5073TIP3   OH215224   3.078   1.827   0.138
 5073TIP3    H115225   3.098   1.859   0.226
 5073TIP3    H215226   2.985   1.847   0.126
 5074TIP3   OH215227   0.531   1.681   3.659
 5074TIP3    H115228   0.444   1.647   3.681
 5074TIP3    H215229   0.590   1.606   3.671
 5075TIP3   OH215230   4.851   5.287   3.708
 5075TIP3    H115231   4.830   5.377   3.683
 5075TIP3    H215232   4.836   5.285   3.803
 5076TIP3   OH215233   3.780   2.100   2.502
 5076TIP3    H115234   3.858   2.052   2.475
 5076TIP3    H215235   3.708   2.052   2.462
 5077TIP3   OH215236   6.292   2.601   4.380
 5077TIP3    H115237   6.372   2.612   4.431
 5077TIP3    H215238   6.308   2.649   4.299
 5078TIP3   OH215239   3.797   5.672   2.071
 5078TIP3    H115240   3.882   5.696   2.034
 5078TIP3    H215241   3.750   5.755   2.078
 5079TIP3   OH215242   0.580   5.661   1.592
 5079TIP3    H115243   0.540   5.577   1.568
 5079TIP3    H215244   0.516   5.726   1.566
 5080TIP3   OH215245   4.539   0.434   1.514
 5080TIP3    H115246   4.449   0.448   1.487
 5080TIP3    H215247   4.582   0.519   1.503
 5081TIP3   OH215248   2.551   4.434   3.211
 5081TIP3    H115249   2.542   4.485   3.131
 5081TIP3    H215250   2.515   4.490   3.280
 5082TIP3   OH215251   2.265   5.174   4.627
 5082TIP3    H115252   2.273   5.080   4.645
 5082TIP3    H215253   2.322   5.216   4.691
 5083TIP3   OH215254  -0.018   3.635   1.389
 5083TIP3    H115255   0.010   3.675   1.307
 5083TIP3    H215256  -0.019   3.541   1.371
 5084TIP3   OH215257   2.343   4.764   5.024
 5084TIP3    H115258   2.405   4.701   5.061
 5084TIP3    H215259   2.266   4.758   5.080
 5085TIP3   OH215260   4.055   1.479   2.858
 5085TIP3    H115261   3.998   1.412   2.896
 5085TIP3    H215262   4.143   1.443   2.868
 5086TIP3   OH215263   5.234   4.321   1.800
 5086TIP3    H115264   5.186   4.309   1.718
 5086TIP3    H215265   5.327   4.317   1.775
 5087TIP3   OH215266   2.207   0.544   0.279
 5087TIP3    H115267   2.157   0.468   0.309
 5087TIP3    H215268   2.159   0.574   0.201
 5088TIP3   OH215269   3.267   0.835   1.298
 5088TIP3    H115270   3.199   0.815   1.362
 5088TIP3    H215271   3.344   0.858   1.350
 5089TIP3   OH215272   4.732   3.601   0.008
 5089TIP3    H115273   4.793   3.675   0.010
 5089TIP3    H215274   4.651   3.636   0.044
 5090TIP3   OH215275   1.058   4.994   1.528
 5090TIP3    H115276   1.002   4.973   1.453
 5090TIP3    H215277   1.090   4.909   1.558
 5091TIP3   OH215278   3.758   1.715   2.695
 5091TIP3    H115279   3.833   1.666   2.729
 5091TIP3    H215280   3.727   1.664   2.620
 5092TIP3   OH215281   1.580   0.585   3.695
 5092TIP3    H115282   1.571   0.511   3.754
 5092TIP3    H215283   1.516   0.569   3.625
 5093TIP3   OH215284   3.496   4.349   4.157
 5093TIP3    H115285   3.422   4.383   4.206
 5093TIP3    H215286   3.551   4.425   4.140
 5094TIP3   OH215287   1.148   3.871   2.882
 5094TIP3    H115288   1.181   3.838   2.798
 5094TIP3    H215289   1.145   3.966   2.871
 5095TIP3   OH215290   1.695   2.018   3.745
 5095TIP3    H115291   1.662   2.102   3.712
 5095TIP3    H215292   1.670   1.955   3.677
 5096TIP3   OH215293   5.764   1.655   2.444
 5096TIP3    H115294   5.829   1.607   2.496
 5096TIP3    H215295   5.726   1.588   2.386
 5097TIP3   OH215296   2.524   1.141   1.785
 5097TIP3    H115297   2.602   1.087   1.791
 5097TIP3    H215298   2.474   1.121   1.865
 5098TIP3   OH215299   0.592   0.646   1.569
 5098TIP3    H115300   0.509   0.623   1.609
 5098TIP3    H215301   0.648   0.670   1.643
 5099TIP3   OH215302   0.360   0.432   1.970
 5099TIP3    H115303   0.443   0.444   2.016
 5099TIP3    H215304   0.296   0.417   2.040
 5100TIP3   OH215305   0.967   5.643   2.333
 5100TIP3    H115306   0.948   5.623   2.241
 5100TIP3    H215307   0.894   5.698   2.361
 5101TIP3   OH215308   4.643   4.640   4.813
 5101TIP3    H115309   4.646   4.592   4.896
 5101TIP3    H215310   4.550   4.660   4.801
 5102TIP3   OH215311   4.507   1.687   3.539
 5102TIP3    H115312   4.411   1.690   3.532
 5102TIP3    H215313   4.527   1.593   3.548
 5103TIP3   OH215314   6.247   5.217   2.057
 5103TIP3    H115315   6.295   5.176   1.985
 5103TIP3    H215316   6.207   5.294   2.018
 5104TIP3   OH215317   5.611   3.257   4.240
 5104TIP3    H115318   5.516   3.266   4.242
 5104TIP3    H215319   5.643   3.336   4.285
 5105TIP3   OH215320   2.632   4.800   4.990
 5105TIP3    H115321   2.580   4.726   5.021
 5105TIP3    H215322   2.604   4.813   4.899
 5106TIP3   OH215323   5.356   4.700   3.613
 5106TIP3    H115324   5.302   4.717   3.536
 5106TIP3    H215325   5.298   4.652   3.673
 5107TIP3   OH215326   5.140   5.778   4.054
 5107TIP3    H115327   5.224   5.768   4.011
 5107TIP3    H215328   5.155   5.843   4.123
 5108TIP3   OH215329   6.095   4.753   4.374
 5108TIP3    H115330   6.134   4.825   4.424
 5108TIP3    H215331   6.081   4.684   4.439
 5109TIP3   OH215332   3.534   4.396   1.410
 5109TIP3    H115333   3.537   4.301   1.418
 5109TIP3    H215334   3.607   4.417   1.351
 5110TIP3   OH215335   1.337   3.218   3.703
 5110TIP3    H115336   1.411   3.276   3.683
 5110TIP3    H215337   1.267   3.277   3.731
 5111TIP3   OH215338   5.264   0.152   0.799
 5111TIP3    H115339   5.326   0.096   0.846
 5111TIP3    H215340   5.276   0.131   0.707
 5112TIP3   OH215341   2.434   0.910   2.341
 5112TIP3    H115342   2.360   0.971   2.343
 5112TIP3    H215343   2.394   0.823   2.343
 5113TIP3   OH215344   0.798   2.960   0.994
 5113TIP3    H115345   0.729   2.914   1.043
 5113TIP3    H215346   0.876   2.949   1.048
 5114TIP3   OH215347   6.354   0.778   5.056
 5114TIP3    H115348   6.276   0.751   5.008
 5114TIP3    H215349   6.392   0.697   5.089
 5115TIP3   OH215350   2.924   1.171   3.987
 5115TIP3    H115351   2.847   1.122   3.958
 5115TIP3    H215352   2.894   1.262   3.991
 5116TIP3   OH215353   5.898   0.600   3.269
 5116TIP3    H115354   5.807   0.576   3.283
 5116TIP3    H215355   5.902   0.628   3.177
 5117TIP3   OH215356   3.388   1.444   4.925
 5117TIP3    H115357   3.314   1.408   4.875
 5117TIP3    H215358   3.365   1.427   5.016
 5118TIP3   OH215359   6.290   0.706   1.387
 5118TIP3    H115360   6.333   0.654   1.455
 5118TIP3    H215361   6.309   0.797   1.412
 5119TIP3   OH215362   4.661   1.844   2.871
 5119TIP3    H115363   4.627   1.755   2.874
 5119TIP3    H215364   4.724   1.843   2.798
 5120TIP3   OH215365   4.953   0.290   4.454
 5120TIP3    H115366   4.921   0.317   4.541
 5120TIP3    H215367   5.044   0.265   4.469
 5121TIP3   OH215368   6.120   5.204   3.126
 5121TIP3    H115369   6.132   5.134   3.190
 5121TIP3    H215370   6.074   5.162   3.053
 5122TIP3   OH215371   3.848   3.991   4.374
 5122TIP3    H115372   3.812   3.982   4.462
 5122TIP3    H215373   3.788   4.051   4.329
 5123TIP3   OH215374   3.327   5.215   3.129
 5123TIP3    H115375   3.365   5.283   3.185
 5123TIP3    H215376   3.305   5.144   3.190
 5124TIP3   OH215377   4.643   4.977   3.291
 5124TIP3    H115378   4.665   5.049   3.232
 5124TIP3    H215379   4.696   4.994   3.369
 5125TIP3   OH215380   4.250   1.030   0.605
 5125TIP3    H115381   4.341   1.016   0.579
 5125TIP3    H215382   4.199   0.991   0.533
 5126TIP3   OH215383   0.375   4.640   3.247
 5126TIP3    H115384   0.393   4.732   3.226
 5126TIP3    H215385   0.450   4.592   3.210
 5127TIP3   OH215386   2.279   4.894   4.780
 5127TIP3    H115387   2.231   4.962   4.827
 5127TIP3    H215388   2.292   4.824   4.844
 5128TIP3   OH215389   0.485   5.876   5.146
 5128TIP3    H115390   0.539   5.851   5.221
 5128TIP3    H215391   0.475   5.796   5.095
 5129TIP3   OH215392   0.610   5.378   0.381
 5129TIP3    H115393   0.697   5.408   0.405
 5129TIP3    H215394   0.599   5.409   0.291
 5130TIP3   OH215395   5.409   3.825   3.050
 5130TIP3    H115396   5.452   3.771   2.983
 5130TIP3    H215397   5.475   3.837   3.118
 5131TIP3   OH215398   3.384   3.616   3.292
 5131TIP3    H115399   3.312   3.577   3.244
 5131TIP3    H215400   3.360   3.606   3.384
 5132TIP3   OH215401   1.442   1.073   4.627
 5132TIP3    H115402   1.461   1.076   4.533
 5132TIP3    H215403   1.473   1.157   4.660
 5133TIP3   OH215404   1.496   1.249   2.161
 5133TIP3    H115405   1.559   1.184   2.132
 5133TIP3    H215406   1.540   1.333   2.149
 5134TIP3   OH215407   5.268   4.277   1.009
 5134TIP3    H115408   5.362   4.263   1.025
 5134TIP3    H215409   5.260   4.371   0.993
 5135TIP3   OH215410   1.264   1.470   1.554
 5135TIP3    H115411   1.294   1.529   1.486
 5135TIP3    H215412   1.316   1.493   1.631
 5136TIP3   OH215413   2.977   4.750   5.083
 5136TIP3    H115414   3.017   4.669   5.113
 5136TIP3    H215415   3.017   4.818   5.136
 5137TIP3   OH215416   3.224   2.715   0.278
 5137TIP3    H115417   3.170   2.652   0.326
 5137TIP3    H215418   3.312   2.702   0.312
 5138TIP3   OH215419   4.675   2.487   1.455
 5138TIP3    H115420   4.631   2.571   1.470
 5138TIP3    H215421   4.747   2.508   1.396
 5139TIP3   OH215422   3.472   0.784   2.363
 5139TIP3    H115423   3.484   0.721   2.292
 5139TIP3    H215424   3.380   0.809   2.357
 5140TIP3   OH215425   0.989   1.668   0.829
 5140TIP3    H115426   0.952   1.640   0.745
 5140TIP3    H215427   0.993   1.587   0.880
 5141TIP3   OH215428   3.326   3.951   0.822
 5141TIP3    H115429   3.265   3.908   0.881
 5141TIP3    H215430   3.408   3.955   0.872
 5142TIP3   OH215431   3.616   2.276   2.341
 5142TIP3    H115432   3.681   2.234   2.397
 5142TIP3    H215433   3.633   2.370   2.352
 5143TIP3   OH215434   2.886   5.795   5.144
 5143TIP3    H115435   2.929   5.769   5.225
 5143TIP3    H215436   2.949   5.852   5.100
 5144TIP3   OH215437   5.973   1.235   0.850
 5144TIP3    H115438   5.886   1.207   0.878
 5144TIP3    H215439   5.969   1.235   0.755
 5145TIP3   OH215440   3.361   2.184   1.652
 5145TIP3    H115441   3.421   2.216   1.720
 5145TIP3    H215442   3.400   2.101   1.623
 5146TIP3   OH215443   2.508   5.844   4.495
 5146TIP3    H115444   2.473   5.932   4.511
 5146TIP3    H215445   2.528   5.811   4.582
 5147TIP3   OH215446   0.753   4.837   1.900
 5147TIP3    H115447   0.661   4.864   1.908
 5147TIP3    H215448   0.760   4.762   1.959
 5148TIP3   OH215449   2.522   4.295   4.369
 5148TIP3    H115450   2.601   4.243   4.356
 5148TIP3    H215451   2.540   4.348   4.447
 5149TIP3   OH215452   2.100   4.196   0.212
 5149TIP3    H115453   2.077   4.261   0.146
 5149TIP3    H215454   2.101   4.246   0.295
 5150TIP3   OH215455   1.853   2.827   0.707
 5150TIP3    H115456   1.898   2.766   0.766
 5150TIP3    H215457   1.813   2.891   0.765
 5151TIP3   OH215458   5.750   3.825   1.990
 5151TIP3    H115459   5.726   3.840   2.081
 5151TIP3    H215460   5.672   3.850   1.941
 5152TIP3   OH215461   2.022   3.840   3.407
 5152TIP3    H115462   1.931   3.813   3.413
 5152TIP3    H215463   2.030   3.880   3.321
 5153TIP3   OH215464   5.079   1.581   3.628
 5153TIP3    H115465   5.032   1.589   3.711
 5153TIP3    H215466   5.159   1.534   3.651
 5154TIP3   OH215467   3.142   2.040   1.949
 5154TIP3    H115468   3.057   2.085   1.946
 5154TIP3    H215469   3.157   2.013   1.858
 5155TIP3   OH215470   3.457   4.188   3.677
 5155TIP3    H115471   3.501   4.260   3.722
 5155TIP3    H215472   3.454   4.215   3.586
 5156TIP3   OH215473   1.434   3.306   1.645
 5156TIP3    H115474   1.441   3.239   1.713
 5156TIP3    H215475   1.525   3.335   1.631
 5157TIP3   OH215476   4.482   1.118   0.817
 5157TIP3    H115477   4.505   1.096   0.907
 5157TIP3    H215478   4.472   1.034   0.773
 5158TIP3   OH215479   0.442   1.371   1.070
 5158TIP3    H115480   0.391   1.338   0.997
 5158TIP3    H215481   0.398   1.452   1.096
 5159TIP3   OH215482   0.692   4.508   3.433
 5159TIP3    H115483   0.613   4.503   3.379
 5159TIP3    H215484   0.719   4.417   3.447
 5160TIP3   OH215485   5.974   4.656   4.837
 5160TIP3    H115486   6.007   4.567   4.824
 5160TIP3    H215487   6.043   4.700   4.888
 5161TIP3   OH215488   0.610   2.296   2.079
 5161TIP3    H115489   0.634   2.387   2.096
 5161TIP3    H215490   0.686   2.259   2.033
 5162TIP3   OH215491   1.909   2.568   2.543
 5162TIP3    H115492   1.848   2.534   2.477
 5162TIP3    H215493   1.974   2.616   2.493
 5163TIP3   OH215494   6.158   5.194   3.541
 5163TIP3    H115495   6.089   5.158   3.486
 5163TIP3    H215496   6.161   5.287   3.518
 5164TIP3   OH215497   3.205   2.724   3.626
 5164TIP3    H115498   3.224   2.639   3.665
 5164TIP3    H215499   3.280   2.743   3.570
 5165TIP3   OH215500   6.109   4.491   5.136
 5165TIP3    H115501   6.154   4.573   5.158
 5165TIP3    H215502   6.152   4.460   5.056
 5166TIP3   OH215503   0.149   2.613   1.252
 5166TIP3    H115504   0.135   2.691   1.306
 5166TIP3    H215505   0.155   2.646   1.163
 5167TIP3   OH215506   3.561   3.711   3.599
 5167TIP3    H115507   3.585   3.732   3.690
 5167TIP3    H215508   3.492   3.773   3.577
 5168TIP3   OH215509   2.141   5.761   1.931
 5168TIP3    H115510   2.179   5.715   1.857
 5168TIP3    H215511   2.047   5.743   1.925
 5169TIP3   OH215512   3.995   4.999   2.848
 5169TIP3    H115513   4.012   4.919   2.797
 5169TIP3    H215514   4.055   5.064   2.811
 5170TIP3   OH215515   4.763   0.675   1.497
 5170TIP3    H115516   4.795   0.765   1.487
 5170TIP3    H215517   4.839   0.620   1.480
 5171TIP3   OH215518   3.117   0.117   2.506
 5171TIP3    H115519   3.210   0.122   2.482
 5171TIP3    H215520   3.071   0.152   2.430
 5172TIP3   OH215521   1.960  -0.040   4.190
 5172TIP3    H115522   2.016   0.018   4.140
 5172TIP3    H215523   1.872  -0.004   4.179
 5173TIP3   OH215524   2.230   3.513   1.401
 5173TIP3    H115525   2.323   3.502   1.419
 5173TIP3    H215526   2.186   3.444   1.450
 5174TIP3   OH215527   4.235   1.188   5.183
 5174TIP3    H115528   4.224   1.262   5.124
 5174TIP3    H215529   4.295   1.129   5.138
 5175TIP3   OH215530   2.782   5.952   1.412
 5175TIP3    H115531   2.800   5.911   1.328
 5175TIP3    H215532   2.765   6.044   1.391
 5176TIP3   OH215533   1.986   5.476   2.129
 5176TIP3    H115534   2.043   5.546   2.162
 5176TIP3    H215535   1.909   5.479   2.186
 5177TIP3   OH215536   3.075   5.784   0.415
 5177TIP3    H115537   3.053   5.691   0.418
 5177TIP3    H215538   3.065   5.808   0.323
 5178TIP3   OH215539   0.305   2.753   3.563
 5178TIP3    H115540   0.298   2.711   3.478
 5178TIP3    H215541   0.220   2.737   3.604
 5179TIP3   OH215542   1.719   2.965   5.037
 5179TIP3    H115543   1.639   2.921   5.066
 5179TIP3    H215544   1.710   2.971   4.942
 5180TIP3   OH215545   6.172   0.047   2.774
 5180TIP3    H115546   6.123   0.047   2.691
 5180TIP3    H215547   6.111   0.007   2.837
 5181TIP3   OH215548   0.975   4.177   4.873
 5181TIP3    H115549   1.064   4.193   4.904
 5181TIP3    H215550   0.977   4.201   4.781
 5182TIP3   OH215551   1.485   1.892   1.049
 5182TIP3    H115552   1.395   1.911   1.076
 5182TIP3    H215553   1.493   1.797   1.060
 5183TIP3   OH215554   1.513   5.538   0.658
 5183TIP3    H115555   1.423   5.538   0.624
 5183TIP3    H215556   1.553   5.615   0.617
 5184TIP3   OH215557   4.603   1.817   0.480
 5184TIP3    H115558   4.544   1.743   0.495
 5184TIP3    H215559   4.667   1.812   0.550
 5185TIP3   OH215560   0.314   5.132   2.222
 5185TIP3    H115561   0.286   5.213   2.179
 5185TIP3    H215562   0.248   5.067   2.198
 5186TIP3   OH215563   5.058   2.158   0.747
 5186TIP3    H115564   4.969   2.122   0.743
 5186TIP3    H215565   5.047   2.252   0.736
 5187TIP3   OH215566   6.143   2.811   4.199
 5187TIP3    H115567   6.084   2.735   4.207
 5187TIP3    H215568   6.226   2.773   4.170
 5188TIP3   OH215569   4.557   1.186   3.894
 5188TIP3    H115570   4.485   1.230   3.849
 5188TIP3    H215571   4.636   1.226   3.859
 5189TIP3   OH215572   3.823   4.740   2.482
 5189TIP3    H115573   3.842   4.787   2.401
 5189TIP3    H215574   3.863   4.654   2.470
 5190TIP3   OH215575   3.960   3.998   4.995
 5190TIP3    H115576   4.049   4.023   4.970
 5190TIP3    H215577   3.951   3.908   4.965
 5191TIP3   OH215578   5.838   2.004   1.094
 5191TIP3    H115579   5.843   2.022   1.188
 5191TIP3    H215580   5.771   2.064   1.061
 5192TIP3   OH215581   0.597   5.736   2.288
 5192TIP3    H115582   0.600   5.668   2.355
 5192TIP3    H215583   0.564   5.813   2.334
 5193TIP3   OH215584   1.794   1.179   3.557
 5193TIP3    H115585   1.829   1.093   3.580
 5193TIP3    H215586   1.700   1.172   3.575
 5194TIP3   OH215587   2.325   5.728   3.687
 5194TIP3    H115588   2.418   5.741   3.670
 5194TIP3    H215589   2.298   5.663   3.622
 5195TIP3   OH215590   3.078   3.527   3.831
 5195TIP3    H115591   3.131   3.458   3.871
 5195TIP3    H215592   2.989   3.492   3.832
 5196TIP3   OH215593   5.125   1.955   2.783
 5196TIP3    H115594   5.050   2.013   2.770
 5196TIP3    H215595   5.098   1.871   2.747
 5197TIP3   OH215596   0.508   0.876   0.209
 5197TIP3    H115597   0.479   0.953   0.160
 5197TIP3    H215598   0.570   0.911   0.273
 5198TIP3   OH215599   0.593   4.536   3.148
 5198TIP3    H115600   0.646   4.609   3.116
 5198TIP3    H215601   0.613   4.464   3.088
 5199TIP3   OH215602   3.028   5.244   2.766
 5199TIP3    H115603   3.071   5.223   2.849
 5199TIP3    H215604   2.951   5.296   2.791
 5200TIP3   OH215605   5.842   3.053   3.060
 5200TIP3    H115606   5.817   2.967   3.027
 5200TIP3    H215607   5.934   3.043   3.086
 5201TIP3   OH215608   3.980   1.825   3.253
 5201TIP3    H115609   4.032   1.896   3.216
 5201TIP3    H215610   3.903   1.820   3.197
 5202TIP3   OH215611   4.006   1.543   2.051
 5202TIP3    H115612   4.023   1.560   1.958
 5202TIP3    H215613   4.068   1.599   2.098
 5203TIP3   OH215614   3.599   5.376   4.537
 5203TIP3    H115615   3.676   5.327   4.565
 5203TIP3    H215616   3.633   5.444   4.479
 5204TIP3   OH215617   3.199   4.573   1.147
 5204TIP3    H115618   3.284   4.536   1.124
 5204TIP3    H215619   3.212   4.609   1.235
 5205TIP3   OH215620   3.126   3.510   1.558
 5205TIP3    H115621   3.190   3.471   1.499
 5205TIP3    H215622   3.178   3.549   1.628
 5206TIP3   OH215623   2.682   0.090   3.843
 5206TIP3    H115624   2.745   0.025   3.874
 5206TIP3    H215625   2.609   0.084   3.905
 5207TIP3   OH215626   4.827   4.749   1.714
 5207TIP3    H115627   4.766   4.797   1.771
 5207TIP3    H215628   4.905   4.736   1.768
 5208TIP3   OH215629   5.349   5.568   1.483
 5208TIP3    H115630   5.432   5.522   1.472
 5208TIP3    H215631   5.328   5.602   1.396
 5209TIP3   OH215632   5.270   0.802   1.476
 5209TIP3    H115633   5.355   0.758   1.486
 5209TIP3    H215634   5.226   0.752   1.407
 5210TIP3   OH215635   4.588   4.597   4.001
 5210TIP3    H115636   4.494   4.612   4.012
 5210TIP3    H215637   4.628   4.635   4.079
 5211TIP3   OH215638   1.243   3.436   1.821
 5211TIP3    H115639   1.271   3.501   1.757
 5211TIP3    H215640   1.312   3.437   1.888
 5212TIP3   OH215641   2.132   4.225   3.678
 5212TIP3    H115642   2.218   4.228   3.638
 5212TIP3    H215643   2.148   4.245   3.771
 5213TIP3   OH215644   2.421   1.632   1.302
 5213TIP3    H115645   2.363   1.569   1.344
 5213TIP3    H215646   2.361   1.694   1.260
 5214TIP3   OH215647   4.032   5.905   4.128
 5214TIP3    H115648   4.003   5.924   4.038
 5214TIP3    H215649   4.098   5.971   4.146
 5215TIP3   OH215650   2.022   1.436   4.527
 5215TIP3    H115651   2.083   1.418   4.456
 5215TIP3    H215652   1.975   1.515   4.498
 5216TIP3   OH215653   1.846   1.294   4.056
 5216TIP3    H115654   1.810   1.311   3.969
 5216TIP3    H215655   1.927   1.344   4.059
 5217TIP3   OH215656   5.130   5.290   1.628
 5217TIP3    H115657   5.205   5.329   1.673
 5217TIP3    H215658   5.054   5.334   1.665
 5218TIP3   OH215659   3.296   1.487   3.570
 5218TIP3    H115660   3.353   1.484   3.648
 5218TIP3    H215661   3.285   1.580   3.552
 5219TIP3   OH215662   4.643   1.025   3.192
 5219TIP3    H115663   4.569   0.965   3.181
 5219TIP3    H215664   4.694   0.987   3.263
 5220TIP3   OH215665   0.192   5.218   0.086
 5220TIP3    H115666   0.249   5.270   0.029
 5220TIP3    H215667   0.236   5.133   0.092
 5221TIP3   OH215668   4.186   0.926   0.837
 5221TIP3    H115669   4.163   0.838   0.809
 5221TIP3    H215670   4.211   0.971   0.757
 5222TIP3   OH215671   1.826   5.946   2.536
 5222TIP3    H115672   1.912   5.986   2.548
 5222TIP3    H215673   1.808   5.903   2.620
 5223TIP3   OH215674   3.496   3.341   3.276
 5223TIP3    H115675   3.442   3.419   3.263
 5223TIP3    H215676   3.555   3.341   3.200
 5224TIP3   OH215677   4.887   4.747   4.965
 5224TIP3    H115678   4.914   4.655   4.955
 5224TIP3    H215679   4.801   4.751   4.923
 5225TIP3   OH215680   0.114   5.075   3.504
 5225TIP3    H115681   0.021   5.086   3.485
 5225TIP3    H215682   0.159   5.124   3.436
 5226TIP3   OH215683   3.742   1.058   2.821
 5226TIP3    H115684   3.697   0.974   2.831
 5226TIP3    H215685   3.680   1.113   2.774
 5227TIP3   OH215686   4.294   3.662   0.668
 5227TIP3    H115687   4.303   3.679   0.574
 5227TIP3    H215688   4.217   3.605   0.675
 5228TIP3   OH215689   3.102   2.887   3.158
 5228TIP3    H115690   3.151   2.966   3.139
 5228TIP3    H215691   3.062   2.903   3.244
 5229TIP3   OH215692   5.712   4.841   2.005
 5229TIP3    H115693   5.626   4.844   2.046
 5229TIP3    H215694   5.742   4.751   2.019
 5230TIP3   OH215695   5.017   3.947   4.827
 5230TIP3    H115696   4.970   3.993   4.896
 5230TIP3    H215697   4.949   3.916   4.768
 5231TIP3   OH215698   0.120   2.906   0.838
 5231TIP3    H115699   0.038   2.858   0.843
 5231TIP3    H215700   0.094   2.998   0.846
 5232TIP3   OH215701   2.885   3.198   2.453
 5232TIP3    H115702   2.852   3.130   2.393
 5232TIP3    H215703   2.949   3.246   2.401
 5233TIP3   OH215704   0.207   4.500   2.921
 5233TIP3    H115705   0.214   4.407   2.946
 5233TIP3    H215706   0.297   4.526   2.902
 5234TIP3   OH215707   5.562   3.911   2.694
 5234TIP3    H115708   5.658   3.909   2.697
 5234TIP3    H215709   5.537   3.956   2.775
 5235TIP3   OH215710   3.204   3.224   4.191
 5235TIP3    H115711   3.173   3.264   4.272
 5235TIP3    H215712   3.207   3.130   4.211
 5236TIP3   OH215713   2.281   3.370   1.148
 5236TIP3    H115714   2.242   3.454   1.123
 5236TIP3    H215715   2.219   3.333   1.212
 5237TIP3   OH215716   0.855   4.515   0.341
 5237TIP3    H115717   0.827   4.501   0.432
 5237TIP3    H215718   0.848   4.428   0.300
 5238TIP3   OH215719   1.224   5.611   0.626
 5238TIP3    H115720   1.234   5.694   0.672
 5238TIP3    H215721   1.174   5.634   0.547
 5239TIP3   OH215722   4.618   1.456   1.660
 5239TIP3    H115723   4.577   1.523   1.605
 5239TIP3    H215724   4.574   1.465   1.745
 5240TIP3   OH215725   4.509   2.615   2.079
 5240TIP3    H115726   4.523   2.529   2.120
 5240TIP3    H215727   4.417   2.633   2.094
 5241TIP3   OH215728   5.262   3.256   1.813
 5241TIP3    H115729   5.282   3.186   1.875
 5241TIP3    H215730   5.324   3.243   1.742
 5242TIP3   OH215731   3.271   2.871   5.022
 5242TIP3    H115732   3.294   2.821   5.100
 5242TIP3    H215733   3.252   2.805   4.955
 5243TIP3   OH215734   0.421   1.554   0.252
 5243TIP3    H115735   0.497   1.534   0.197
 5243TIP3    H215736   0.457   1.606   0.324
 5244TIP3   OH215737   6.028   0.852   4.721
 5244TIP3    H115738   5.962   0.809   4.666
 5244TIP3    H215739   6.076   0.908   4.661
 5245TIP3   OH215740   0.580   0.824   0.741
 5245TIP3    H115741   0.577   0.749   0.682
 5245TIP3    H215742   0.634   0.794   0.815
 5246TIP3   OH215743   0.364   2.311   4.042
 5246TIP3    H115744   0.391   2.283   4.129
 5246TIP3    H215745   0.441   2.297   3.987
 5247TIP3   OH215746   1.741   4.719  -0.026
 5247TIP3    H115747   1.758   4.683   0.061
 5247TIP3    H215748   1.801   4.793  -0.033
 5248TIP3   OH215749   6.293   0.624   4.238
 5248TIP3    H115750   6.336   0.570   4.305
 5248TIP3    H215751   6.224   0.670   4.285
 5249TIP3   OH215752   0.496   5.048   1.733
 5249TIP3    H115753   0.495   5.012   1.644
 5249TIP3    H215754   0.460   4.978   1.787
 5250TIP3   OH215755   3.511   3.808   1.959
 5250TIP3    H115756   3.432   3.804   2.013
 5250TIP3    H215757   3.537   3.899   1.962
 5251TIP3   OH215758   5.356   5.212   1.141
 5251TIP3    H115759   5.433   5.244   1.188
 5251TIP3    H215760   5.282   5.234   1.199
 5252TIP3   OH215761   0.762   0.640   2.341
 5252TIP3    H115762   0.799   0.660   2.255
 5252TIP3    H215763   0.752   0.725   2.383
 5253TIP3   OH215764   4.469   3.895   3.396
 5253TIP3    H115765   4.541   3.957   3.382
 5253TIP3    H215766   4.511   3.809   3.397
 5254TIP3   OH215767   4.721   5.639   0.436
 5254TIP3    H115768   4.703   5.667   0.346
 5254TIP3    H215769   4.816   5.642   0.443
 5255TIP3   OH215770   1.315   1.861   4.853
 5255TIP3    H115771   1.410   1.871   4.853
 5255TIP3    H215772   1.283   1.937   4.902
 5256TIP3   OH215773   1.867   3.018   3.064
 5256TIP3    H115774   1.785   3.024   3.113
 5256TIP3    H215775   1.935   3.032   3.129
 5257TIP3   OH215776   2.078   3.995   1.544
 5257TIP3    H115777   1.992   3.979   1.582
 5257TIP3    H215778   2.060   4.038   1.461
 5258TIP3   OH215779   3.067   5.135   2.521
 5258TIP3    H115780   3.057   5.173   2.608
 5258TIP3    H215781   3.138   5.071   2.531
 5259TIP3   OH215782   1.758   3.536   3.459
 5259TIP3    H115783   1.726   3.618   3.422
 5259TIP3    H215784   1.761   3.476   3.384
 5260TIP3   OH215785   1.920   0.081   0.209
 5260TIP3    H115786   1.961   0.012   0.157
 5260TIP3    H215787   1.859   0.035   0.267
 5261TIP3   OH215788   5.805   2.067   5.048
 5261TIP3    H115789   5.829   1.996   5.107
 5261TIP3    H215790   5.728   2.108   5.089
 5262TIP3   OH215791   3.911   5.470   4.774
 5262TIP3    H115792   3.861   5.547   4.746
 5262TIP3    H215793   3.974   5.456   4.704
 5263TIP3   OH215794   6.184   3.429   1.200
 5263TIP3    H115795   6.171   3.523   1.184
 5263TIP3    H215796   6.108   3.402   1.251
 5264TIP3   OH215797   0.779   1.736   1.784
 5264TIP3    H115798   0.723   1.692   1.848
 5264TIP3    H215799   0.867   1.728   1.820
 5265TIP3   OH215800   6.317   1.381   5.171
 5265TIP3    H115801   6.402   1.424   5.160
 5265TIP3    H215802   6.254   1.444   5.138
 5266TIP3   OH215803   1.711   3.871   0.345
 5266TIP3    H115804   1.662   3.798   0.307
 5266TIP3    H215805   1.710   3.939   0.278
 5267TIP3   OH215806   1.669   3.058   0.354
 5267TIP3    H115807   1.618   3.040   0.432
 5267TIP3    H215808   1.760   3.042   0.380
 5268TIP3   OH215809   3.751   4.065   0.828
 5268TIP3    H115810   3.832   4.111   0.806
 5268TIP3    H215811   3.688   4.097   0.764
 5269TIP3   OH215812   2.091   0.600   3.798
 5269TIP3    H115813   2.026   0.577   3.733
 5269TIP3    H215814   2.172   0.558   3.768
 5270TIP3   OH215815   0.200   0.922   0.843
 5270TIP3    H115816   0.272   0.928   0.906
 5270TIP3    H215817   0.229   0.975   0.768
 5271TIP3   OH215818   1.962   0.630   2.999
 5271TIP3    H115819   1.985   0.557   2.941
 5271TIP3    H215820   2.014   0.617   3.077
 5272TIP3   OH215821   0.870   2.572   0.422
 5272TIP3    H115822   0.891   2.638   0.488
 5272TIP3    H215823   0.789   2.532   0.454
 5273TIP3   OH215824   5.175   1.669   4.377
 5273TIP3    H115825   5.196   1.577   4.393
 5273TIP3    H215826   5.203   1.685   4.287
 5274TIP3   OH215827   0.513   0.696   3.922
 5274TIP3    H115828   0.456   0.760   3.963
 5274TIP3    H215829   0.558   0.744   3.853
 5275TIP3   OH215830   3.617   0.068   0.707
 5275TIP3    H115831   3.656   0.083   0.621
 5275TIP3    H215832   3.523   0.058   0.690
 5276TIP3   OH215833   5.643   2.661   1.131
 5276TIP3    H115834   5.698   2.615   1.194
 5276TIP3    H215835   5.704   2.715   1.081
 5277TIP3   OH215836   5.350   3.021   2.635
 5277TIP3    H115837   5.255   3.007   2.638
 5277TIP3    H215838   5.385   2.966   2.704
 5278TIP3   OH215839   0.863   2.718   4.913
 5278TIP3    H115840   0.831   2.665   4.986
 5278TIP3    H215841   0.878   2.805   4.951
 5279TIP3   OH215842   0.132   2.101   1.413
 5279TIP3    H115843   0.072   2.060   1.476
 5279TIP3    H215844   0.086   2.179   1.383
 5280TIP3   OH215845   2.857   0.539   3.835
 5280TIP3    H115846   2.827   0.462   3.785
 5280TIP3    H215847   2.952   0.530   3.839
 5281TIP3   OH215848   4.490   1.271   4.856
 5281TIP3    H115849   4.448   1.336   4.912
 5281TIP3    H215850   4.446   1.188   4.877
 5282TIP3   OH215851   1.497   3.646   0.911
 5282TIP3    H115852   1.534   3.649   0.823
 5282TIP3    H215853   1.506   3.735   0.944
 5283TIP3   OH215854   2.585   1.999   0.081
 5283TIP3    H115855   2.543   2.017  -0.003
 5283TIP3    H215856   2.557   2.070   0.138
 5284TIP3   OH215857   2.671   0.282   0.237
 5284TIP3    H115858   2.645   0.357   0.289
 5284TIP3    H215859   2.631   0.207   0.280
 5285TIP3   OH215860   3.246   0.965   3.283
 5285TIP3    H115861   3.296   1.035   3.239
 5285TIP3    H215862   3.155   0.986   3.264
 5286TIP3   OH215863   2.562   0.759   4.512
 5286TIP3    H115864   2.637   0.760   4.454
 5286TIP3    H215865   2.598   0.773   4.599
 5287TIP3   OH215866   3.802   2.664   1.505
 5287TIP3    H115867   3.831   2.582   1.546
 5287TIP3    H215868   3.710   2.647   1.483
 5288TIP3   OH215869   4.675   5.649   2.331
 5288TIP3    H115870   4.584   5.654   2.359
 5288TIP3    H215871   4.725   5.682   2.405
 5289TIP3   OH215872   0.308   1.000   4.352
 5289TIP3    H115873   0.269   0.920   4.317
 5289TIP3    H215874   0.283   1.000   4.445
 5290TIP3   OH215875   1.610   3.525   3.835
 5290TIP3    H115876   1.686   3.580   3.814
 5290TIP3    H215877   1.617   3.510   3.929
 5291TIP3   OH215878   6.277   5.757   1.486
 5291TIP3    H115879   6.294   5.663   1.500
 5291TIP3    H215880   6.252   5.763   1.394
 5292TIP3   OH215881   3.938   0.109   5.107
 5292TIP3    H115882   3.929   0.061   5.189
 5292TIP3    H215883   3.901   0.051   5.041
 5293TIP3   OH215884   5.621   5.442   3.111
 5293TIP3    H115885   5.587   5.524   3.075
 5293TIP3    H215886   5.600   5.376   3.045
 5294TIP3   OH215887   3.267   3.020   4.657
 5294TIP3    H115888   3.253   2.936   4.700
 5294TIP3    H215889   3.361   3.025   4.644
 5295TIP3   OH215890   1.181   3.305   1.552
 5295TIP3    H115891   1.228   3.364   1.492
 5295TIP3    H215892   1.237   3.300   1.629
 5296TIP3   OH215893   4.025   5.665   4.272
 5296TIP3    H115894   4.045   5.734   4.209
 5296TIP3    H215895   4.099   5.604   4.266
 5297TIP3   OH215896   4.643   2.153   4.764
 5297TIP3    H115897   4.707   2.212   4.725
 5297TIP3    H215898   4.683   2.125   4.846
 5298TIP3   OH215899   1.617   1.288   4.454
 5298TIP3    H115900   1.595   1.242   4.373
 5298TIP3    H215901   1.680   1.355   4.427
 5299TIP3   OH215902   3.014   2.492   0.882
 5299TIP3    H115903   2.954   2.525   0.816
 5299TIP3    H215904   3.094   2.472   0.833
 5300TIP3   OH215905   6.173   3.655   5.000
 5300TIP3    H115906   6.171   3.650   5.095
 5300TIP3    H215907   6.137   3.571   4.971
 5301TIP3   OH215908   0.541   0.472   4.075
 5301TIP3    H115909   0.611   0.419   4.037
 5301TIP3    H215910   0.527   0.543   4.012
 5302TIP3   OH215911   0.622   1.284   3.470
 5302TIP3    H115912   0.619   1.336   3.551
 5302TIP3    H215913   0.689   1.327   3.417
 5303TIP3   OH215914   2.210   1.628   4.970
 5303TIP3    H115915   2.155   1.608   4.894
 5303TIP3    H215916   2.161   1.593   5.044
 5304TIP3   OH215917   5.860   4.609   2.037
 5304TIP3    H115918   5.920   4.538   2.058
 5304TIP3    H215919   5.900   4.654   1.962
 5305TIP3   OH215920   0.253   3.272   1.944
 5305TIP3    H115921   0.279   3.346   1.889
 5305TIP3    H215922   0.186   3.227   1.893
 5306TIP3   OH215923   0.450   3.711   4.724
 5306TIP3    H115924   0.367   3.716   4.678
 5306TIP3    H215925   0.452   3.622   4.761
 5307TIP3   OH215926   2.357   5.526   2.068
 5307TIP3    H115927   2.292   5.478   2.017
 5307TIP3    H215928   2.442   5.493   2.038
 5308TIP3   OH215929   0.569   2.567   3.913
 5308TIP3    H115930   0.609   2.517   3.985
 5308TIP3    H215931   0.518   2.636   3.957
 5309TIP3   OH215932   0.517   5.966   2.408
 5309TIP3    H115933   0.554   5.941   2.493
 5309TIP3    H215934   0.439   6.017   2.430
 5310TIP3   OH215935   4.568   5.231   0.750
 5310TIP3    H115936   4.494   5.225   0.690
 5310TIP3    H215937   4.637   5.179   0.708
 5311TIP3   OH215938   4.596   5.517   4.458
 5311TIP3    H115939   4.575   5.464   4.535
 5311TIP3    H215940   4.652   5.587   4.491
 5312TIP3   OH215941   5.715   5.831   0.787
 5312TIP3    H115942   5.805   5.831   0.819
 5312TIP3    H215943   5.673   5.903   0.835
 5313TIP3   OH215944   5.282   5.275   3.522
 5313TIP3    H115945   5.359   5.330   3.530
 5313TIP3    H215946   5.276   5.229   3.606
 5314TIP3   OH215947   5.296   4.543   3.019
 5314TIP3    H115948   5.273   4.546   3.112
 5314TIP3    H215949   5.224   4.588   2.975
 5315TIP3   OH215950   0.399   4.312   3.392
 5315TIP3    H115951   0.358   4.395   3.416
 5315TIP3    H215952   0.345   4.246   3.436
 5316TIP3   OH215953   1.280   5.147   2.658
 5316TIP3    H115954   1.225   5.190   2.593
 5316TIP3    H215955   1.355   5.114   2.609
 5317TIP3   OH215956   4.953   1.603   5.095
 5317TIP3    H115957   4.974   1.696   5.090
 5317TIP3    H215958   4.901   1.594   5.175
 5318TIP3   OH215959   5.808   2.042   1.350
 5318TIP3    H115960   5.888   2.081   1.385
 5318TIP3    H215961   5.797   1.960   1.398
 5319TIP3   OH215962   1.473   4.325   0.042
 5319TIP3    H115963   1.381   4.326   0.017
 5319TIP3    H215964   1.473   4.351   0.134
 5320TIP3   OH215965   0.355   2.412   3.438
 5320TIP3    H115966   0.367   2.435   3.530
 5320TIP3    H215967   0.331   2.320   3.440
 5321TIP3   OH215968   1.750   2.988   1.704
 5321TIP3    H115969   1.747   3.084   1.704
 5321TIP3    H215970   1.738   2.964   1.796
 5322TIP3   OH215971   2.522   1.028   2.043
 5322TIP3    H115972   2.527   0.937   2.014
 5322TIP3    H215973   2.433   1.056   2.021
 5323TIP3   OH215974   2.574   2.323   4.712
 5323TIP3    H115975   2.505   2.285   4.766
 5323TIP3    H215976   2.555   2.417   4.710
 5324TIP3   OH215977   4.509   1.029   1.089
 5324TIP3    H115978   4.546   0.969   1.153
 5324TIP3    H215979   4.557   1.111   1.102
 5325TIP3   OH215980   2.536   1.232   3.384
 5325TIP3    H115981   2.544   1.176   3.462
 5325TIP3    H215982   2.464   1.291   3.405
 5326TIP3   OH215983   1.382   5.842   0.409
 5326TIP3    H115984   1.454   5.785   0.381
 5326TIP3    H215985   1.314   5.782   0.440
 5327TIP3   OH215986   1.048   1.939   1.970
 5327TIP3    H115987   0.973   1.998   1.963
 5327TIP3    H215988   1.115   1.991   2.013
 5328TIP3   OH215989   2.171   0.972   5.124
 5328TIP3    H115990   2.130   0.991   5.208
 5328TIP3    H215991   2.157   0.879   5.111
 5329TIP3   OH215992   2.744   5.911   2.925
 5329TIP3    H115993   2.834   5.888   2.951
 5329TIP3    H215994   2.755   5.985   2.866
 5330TIP3   OH215995   0.271   4.768   1.091
 5330TIP3    H115996   0.287   4.775   0.997
 5330TIP3    H215997   0.345   4.813   1.132
 5331TIP3   OH215998   2.841   4.635   4.869
 5331TIP3    H115999   2.755   4.668   4.844
 5331TIP3    H216000   2.867   4.688   4.944
 5332TIP3   OH216001   1.635   0.503   1.384
 5332TIP3    H116002   1.594   0.589   1.384
 5332TIP3    H216003   1.563   0.443   1.361
 5333TIP3   OH216004   4.506   2.628   0.476
 5333TIP3    H116005   4.448   2.700   0.451
 5333TIP3    H216006   4.588   2.671   0.501
 5334TIP3   OH216007   1.983   1.320   3.381
 5334TIP3    H116008   2.059   1.279   3.423
 5334TIP3    H216009   1.908   1.268   3.412
 5335TIP3   OH216010   4.451   3.498   3.407
 5335TIP3    H116011   4.488   3.577   3.446
 5335TIP3    H216012   4.387   3.467   3.471
 5336TIP3   OH216013   0.096   2.751   1.740
 5336TIP3    H116014   0.153   2.687   1.782
 5336TIP3    H216015   0.119   2.834   1.781
 5337TIP3   OH216016   4.221   3.885   0.897
 5337TIP3    H116017   4.239   3.852   0.809
 5337TIP3    H216018   4.220   3.806   0.952
 5338TIP3   OH216019   6.316   4.496   1.655
 5338TIP3    H116020   6.349   4.520   1.742
 5338TIP3    H216021   6.379   4.535   1.594
 5339TIP3   OH216022   5.505   1.714   2.659
 5339TIP3    H116023   5.590   1.749   2.631
 5339TIP3    H216024   5.470   1.781   2.718
 5340TIP3   OH216025   3.309   3.632   1.743
 5340TIP3    H116026   3.295   3.703   1.805
 5340TIP3    H216027   3.308   3.553   1.796
 5341TIP3   OH216028   2.293   3.386   3.647
 5341TIP3    H116029   2.367   3.326   3.639
 5341TIP3    H216030   2.244   3.375   3.566
 5342TIP3   OH216031   5.455   2.783   5.012
 5342TIP3    H116032   5.388   2.715   5.023
 5342TIP3    H216033   5.505   2.780   5.094
 5343TIP3   OH216034   1.441   0.864   5.214
 5343TIP3    H116035   1.438   0.953   5.250
 5343TIP3    H216036   1.432   0.877   5.119
 5344TIP3   OH216037   5.409   2.245   2.282
 5344TIP3    H116038   5.390   2.170   2.338
 5344TIP3    H216039   5.377   2.321   2.330
 5345TIP3   OH216040   1.692   3.847   2.842
 5345TIP3    H116041   1.651   3.909   2.902
 5345TIP3    H216042   1.692   3.892   2.757
 5346TIP3   OH216043   3.811   0.318   0.836
 5346TIP3    H116044   3.870   0.250   0.803
 5346TIP3    H216045   3.811   0.306   0.931
 5347TIP3   OH216046   6.172   0.079   0.578
 5347TIP3    H116047   6.168   0.124   0.662
 5347TIP3    H216048   6.228   0.134   0.523
 5348TIP3   OH216049   2.517   3.241   3.565
 5348TIP3    H116050   2.560   3.252   3.480
 5348TIP3    H216051   2.579   3.191   3.617
 5349TIP3   OH216052   6.295   1.780   2.029
 5349TIP3    H116053   6.243   1.766   2.108
 5349TIP3    H216054   6.278   1.872   2.006
 5350TIP3   OH216055   5.218   4.167   5.114
 5350TIP3    H116056   5.265   4.250   5.113
 5350TIP3    H216057   5.219   4.137   5.023
 5351TIP3   OH216058   3.580   0.600   2.142
 5351TIP3    H116059   3.633   0.545   2.084
 5351TIP3    H216060   3.532   0.538   2.197
 5352TIP3   OH216061   4.651   1.574   4.944
 5352TIP3    H116062   4.602   1.650   4.913
 5352TIP3    H216063   4.631   1.569   5.037
 5353TIP3   OH216064   5.374   3.901   5.163
 5353TIP3    H116065   5.435   3.827   5.158
 5353TIP3    H216066   5.329   3.902   5.079
 5354TIP3   OH216067   0.791   1.401   4.905
 5354TIP3    H116068   0.784   1.444   4.991
 5354TIP3    H216069   0.855   1.454   4.858
 5355TIP3   OH216070   0.909   1.875   0.976
 5355TIP3    H116071   0.946   1.804   0.924
 5355TIP3    H216072   0.856   1.831   1.043
 5356TIP3   OH216073   2.086   1.928   1.507
 5356TIP3    H116074   2.100   1.904   1.415
 5356TIP3    H216075   2.074   2.023   1.505
 5357TIP3   OH216076   0.176   1.116   0.592
 5357TIP3    H116077   0.268   1.093   0.582
 5357TIP3    H216078   0.135   1.085   0.511
 5358TIP3   OH216079   0.796   3.069   1.607
 5358TIP3    H116080   0.850   3.148   1.595
 5358TIP3    H216081   0.853   2.997   1.578
 5359TIP3   OH216082   5.138   1.296   2.036
 5359TIP3    H116083   5.116   1.373   2.088
 5359TIP3    H216084   5.137   1.224   2.099
 5360TIP3   OH216085   4.190   0.098   2.292
 5360TIP3    H116086   4.165   0.009   2.266
 5360TIP3    H216087   4.108   0.146   2.296
 5361TIP3   OH216088   2.656   3.186   3.304
 5361TIP3    H116089   2.711   3.127   3.356
 5361TIP3    H216090   2.582   3.132   3.277
 5362TIP3   OH216091   6.158   4.521   0.885
 5362TIP3    H116092   6.130   4.565   0.965
 5362TIP3    H216093   6.096   4.550   0.818
 5363TIP3   OH216094   5.564   3.833   0.066
 5363TIP3    H116095   5.608   3.776   0.129
 5363TIP3    H216096   5.630   3.898   0.042
 5364TIP3   OH216097   2.183   2.878   2.177
 5364TIP3    H116098   2.123   2.952   2.167
 5364TIP3    H216099   2.167   2.847   2.267
 5365TIP3   OH216100   0.627   2.873   1.736
 5365TIP3    H116101   0.625   2.799   1.675
 5365TIP3    H216102   0.669   2.944   1.687
 5366TIP3   OH216103   2.870   5.132   4.523
 5366TIP3    H116104   2.853   5.039   4.514
 5366TIP3    H216105   2.818   5.160   4.598
 5367TIP3   OH216106   5.496   2.995   3.920
 5367TIP3    H116107   5.570   3.055   3.930
 5367TIP3    H216108   5.445   3.006   4.000
 5368TIP3   OH216109   4.165   2.300   2.878
 5368TIP3    H116110   4.146   2.346   2.796
 5368TIP3    H216111   4.239   2.348   2.916
 5369TIP3   OH216112   4.149   1.780   0.353
 5369TIP3    H116113   4.142   1.852   0.416
 5369TIP3    H216114   4.153   1.701   0.408
 5370TIP3   OH216115   2.516   4.637   3.041
 5370TIP3    H116116   2.425   4.643   3.009
 5370TIP3    H216117   2.556   4.719   3.011
 5371TIP3   OH216118   4.641   2.258   0.673
 5371TIP3    H116119   4.669   2.222   0.589
 5371TIP3    H216120   4.684   2.201   0.738
 5372TIP3   OH216121   1.050   2.065   3.873
 5372TIP3    H116122   1.089   2.021   3.948
 5372TIP3    H216123   1.124   2.105   3.828
 5373TIP3   OH216124   2.397   1.689   0.773
 5373TIP3    H116125   2.386   1.602   0.811
 5373TIP3    H216126   2.446   1.738   0.838
 5374TIP3   OH216127   2.752   0.330   3.113
 5374TIP3    H116128   2.722   0.402   3.058
 5374TIP3    H216129   2.838   0.306   3.078
 5375TIP3   OH216130   4.274   1.125   3.957
 5375TIP3    H116131   4.279   1.166   3.870
 5375TIP3    H216132   4.304   1.035   3.942
 5376TIP3   OH216133   1.230   5.720   2.391
 5376TIP3    H116134   1.135   5.711   2.384
 5376TIP3    H216135   1.259   5.737   2.302
 5377TIP3   OH216136   4.887   3.704   3.403
 5377TIP3    H116137   4.866   3.616   3.371
 5377TIP3    H216138   4.977   3.697   3.436
 5378TIP3   OH216139   4.829   1.564   3.779
 5378TIP3    H116140   4.755   1.548   3.838
 5378TIP3    H216141   4.814   1.505   3.705
 5379TIP3   OH216142   0.411   4.835   1.492
 5379TIP3    H116143   0.455   4.807   1.412
 5379TIP3    H216144   0.452   4.784   1.561
 5380TIP3   OH216145   1.246   5.807   4.406
 5380TIP3    H116146   1.152   5.789   4.413
 5380TIP3    H216147   1.275   5.752   4.333
 5381TIP3   OH216148   4.046   3.218   3.234
 5381TIP3    H116149   4.128   3.184   3.268
 5381TIP3    H216150   4.016   3.280   3.300
 5382TIP3   OH216151   2.861   1.975   4.380
 5382TIP3    H116152   2.864   1.938   4.468
 5382TIP3    H216153   2.807   2.053   4.388
 5383TIP3   OH216154   4.826   2.122   4.975
 5383TIP3    H116155   4.898   2.181   4.957
 5383TIP3    H216156   4.807   2.135   5.068
 5384TIP3   OH216157   5.919   2.709   2.235
 5384TIP3    H116158   5.846   2.760   2.270
 5384TIP3    H216159   5.908   2.715   2.140
 5385TIP3   OH216160   5.785   0.105   3.323
 5385TIP3    H116161   5.769   0.121   3.230
 5385TIP3    H216162   5.754   0.015   3.337
 5386TIP3   OH216163   0.383   0.036   2.264
 5386TIP3    H116164   0.311   0.015   2.324
 5386TIP3    H216165   0.459   0.050   2.322
 5387TIP3   OH216166   2.594   2.329   2.601
 5387TIP3    H116167   2.652   2.258   2.575
 5387TIP3    H216168   2.605   2.395   2.533
 5388TIP3   OH216169   3.348   1.732   2.570
 5388TIP3    H116170   3.290   1.748   2.645
 5388TIP3    H216171   3.381   1.819   2.547
 5389TIP3   OH216172   0.374   0.798   3.486
 5389TIP3    H116173   0.326   0.776   3.406
 5389TIP3    H216174   0.308   0.792   3.556
 5390TIP3   OH216175   1.982   4.435   1.412
 5390TIP3    H116176   2.056   4.374   1.417
 5390TIP3    H216177   2.018   4.519   1.442
 5391TIP3   OH216178   4.095   1.585   4.135
 5391TIP3    H116179   4.084   1.679   4.149
 5391TIP3    H216180   4.113   1.549   4.222
 5392TIP3   OH216181   3.489   3.329   4.510
 5392TIP3    H116182   3.413   3.334   4.568
 5392TIP3    H216183   3.458   3.366   4.427
 5393TIP3   OH216184   2.081   5.115   0.984
 5393TIP3    H116185   2.168   5.089   1.014
 5393TIP3    H216186   2.021   5.076   1.048
 5394TIP3   OH216187   0.864   2.140   2.974
 5394TIP3    H116188   0.930   2.086   2.930
 5394TIP3    H216189   0.820   2.080   3.034
 5395TIP3   OH216190   0.637   4.886   2.218
 5395TIP3    H116191   0.719   4.890   2.169
 5395TIP3    H216192   0.570   4.870   2.152
 5396TIP3   OH216193   2.838   5.785   0.653
 5396TIP3    H116194   2.897   5.850   0.616
 5396TIP3    H216195   2.782   5.759   0.580
 5397TIP3   OH216196   0.116   3.910   1.913
 5397TIP3    H116197   0.134   3.976   1.980
 5397TIP3    H216198   0.091   3.832   1.962
 5398TIP3   OH216199   1.737   4.384   1.532
 5398TIP3    H116200   1.691   4.467   1.542
 5398TIP3    H216201   1.813   4.405   1.477
 5399TIP3   OH216202   1.648   1.146   0.097
 5399TIP3    H116203   1.627   1.155   0.004
 5399TIP3    H216204   1.704   1.068   0.101
 5400TIP3   OH216205   2.946   3.766   1.861
 5400TIP3    H116206   2.881   3.696   1.867
 5400TIP3    H216207   2.905   3.831   1.804
 5401TIP3   OH216208   0.121   3.577   5.017
 5401TIP3    H116209   0.117   3.629   4.936
 5401TIP3    H216210   0.039   3.527   5.017
 5402TIP3   OH216211   0.813   1.576   0.366
 5402TIP3    H116212   0.836   1.497   0.417
 5402TIP3    H216213   0.892   1.596   0.316
 5403TIP3   OH216214   0.833   2.146   1.934
 5403TIP3    H116215   0.858   2.227   1.890
 5403TIP3    H216216   0.759   2.113   1.883
 5404TIP3   OH216217   1.208   1.827   1.117
 5404TIP3    H116218   1.166   1.767   1.179
 5404TIP3    H216219   1.146   1.899   1.107
 5405TIP3   OH216220   3.289   3.174   2.472
 5405TIP3    H116221   3.356   3.164   2.406
 5405TIP3    H216222   3.250   3.260   2.453
 5406TIP3   OH216223   3.247   5.427   0.974
 5406TIP3    H116224   3.220   5.376   0.897
 5406TIP3    H216225   3.166   5.471   1.002
 5407TIP3   OH216226   6.241   5.073   0.081
 5407TIP3    H116227   6.298   5.150   0.085
 5407TIP3    H216228   6.236   5.052  -0.012
 5408TIP3   OH216229   2.615   4.775   1.323
 5408TIP3    H116230   2.680   4.837   1.291
 5408TIP3    H216231   2.581   4.733   1.245
 5409TIP3   OH216232   3.837   0.238   3.116
 5409TIP3    H116233   3.866   0.149   3.137
 5409TIP3    H216234   3.821   0.237   3.022
 5410TIP3   OH216235   0.617   0.005   4.564
 5410TIP3    H116236   0.549   0.065   4.592
 5410TIP3    H216237   0.699   0.047   4.592
 5411TIP3   OH216238   4.298   3.709   5.089
 5411TIP3    H116239   4.317   3.784   5.146
 5411TIP3    H216240   4.378   3.657   5.090
 5412TIP3   OH216241   5.065   2.566   2.270
 5412TIP3    H116242   5.078   2.519   2.188
 5412TIP3    H216243   5.145   2.551   2.319
 5413TIP3   OH216244   4.873   5.966   4.077
 5413TIP3    H116245   4.967   5.960   4.056
 5413TIP3    H216246   4.840   5.877   4.064
 5414TIP3   OH216247   0.928   2.460   0.806
 5414TIP3    H116248   1.013   2.502   0.792
 5414TIP3    H216249   0.872   2.496   0.738
 5415TIP3   OH216250   5.304   4.906   4.141
 5415TIP3    H116251   5.261   4.878   4.222
 5415TIP3    H216252   5.295   5.001   4.141
 5416TIP3   OH216253   4.836   1.040   0.783
 5416TIP3    H116254   4.807   1.037   0.692
 5416TIP3    H216255   4.815   0.953   0.817
 5417TIP3   OH216256   3.572   1.326   3.021
 5417TIP3    H116257   3.556   1.420   3.030
 5417TIP3    H216258   3.547   1.306   2.931
 5418TIP3   OH216259   1.457   1.301   0.183
 5418TIP3    H116260   1.542   1.260   0.172
 5418TIP3    H216261   1.402   1.233   0.222
 5419TIP3   OH216262   0.291   4.562   3.486
 5419TIP3    H116263   0.339   4.588   3.407
 5419TIP3    H216264   0.270   4.645   3.530
 5420TIP3   OH216265   4.154   0.843   3.168
 5420TIP3    H116266   4.156   0.800   3.083
 5420TIP3    H216267   4.062   0.865   3.182
 5421TIP3   OH216268   1.735   0.270   4.550
 5421TIP3    H116269   1.747   0.348   4.606
 5421TIP3    H216270   1.644   0.276   4.521
 5422TIP3   OH216271   4.277   1.707   3.255
 5422TIP3    H116272   4.193   1.699   3.299
 5422TIP3    H216273   4.256   1.706   3.162
 5423TIP3   OH216274   0.186   4.256   2.780
 5423TIP3    H116275   0.094   4.232   2.792
 5423TIP3    H216276   0.230   4.220   2.857
 5424TIP3   OH216277   0.601   1.977   4.190
 5424TIP3    H116278   0.515   1.941   4.166
 5424TIP3    H216279   0.661   1.941   4.125
 5425TIP3   OH216280   2.232   0.323   1.928
 5425TIP3    H116281   2.302   0.374   1.887
 5425TIP3    H216282   2.167   0.387   1.954
 5426TIP3   OH216283   4.430   5.014   4.735
 5426TIP3    H116284   4.460   4.934   4.780
 5426TIP3    H216285   4.384   4.982   4.658
 5427TIP3   OH216286   2.068   3.010   3.442
 5427TIP3    H116287   2.041   2.949   3.374
 5427TIP3    H216288   1.990   3.063   3.459
 5428TIP3   OH216289   4.700   2.808   0.459
 5428TIP3    H116290   4.720   2.898   0.485
 5428TIP3    H216291   4.714   2.807   0.364
 5429TIP3   OH216292   1.424   1.509   4.220
 5429TIP3    H116293   1.496   1.546   4.168
 5429TIP3    H216294   1.449   1.527   4.311
 5430TIP3   OH216295   3.076   5.505   3.544
 5430TIP3    H116296   3.128   5.551   3.611
 5430TIP3    H216297   3.095   5.412   3.559
 5431TIP3   OH216298   3.935   3.373   1.084
 5431TIP3    H116299   3.857   3.342   1.038
 5431TIP3    H216300   4.005   3.317   1.053
 5432TIP3   OH216301   0.712   5.267   2.157
 5432TIP3    H116302   0.767   5.247   2.081
 5432TIP3    H216303   0.639   5.317   2.122
 5433TIP3   OH216304   2.562   5.863   3.931
 5433TIP3    H116305   2.585   5.900   3.846
 5433TIP3    H216306   2.582   5.932   3.994
 5434TIP3   OH216307   4.735   0.721   0.814
 5434TIP3    H116308   4.825   0.753   0.823
 5434TIP3    H216309   4.732   0.683   0.726
 5435TIP3   OH216310   4.991   0.495   3.486
 5435TIP3    H116311   5.079   0.507   3.452
 5435TIP3    H216312   4.995   0.532   3.575
 5436TIP3   OH216313   1.701   4.295   0.681
 5436TIP3    H116314   1.724   4.387   0.693
 5436TIP3    H216315   1.641   4.294   0.607
 5437TIP3   OH216316   1.571   4.448   2.358
 5437TIP3    H116317   1.619   4.527   2.330
 5437TIP3    H216318   1.625   4.412   2.429
 5438TIP3   OH216319   2.879   3.503   4.805
 5438TIP3    H116320   2.900   3.435   4.869
 5438TIP3    H216321   2.803   3.549   4.842
 5439TIP3   OH216322   6.266   4.156   3.248
 5439TIP3    H116323   6.255   4.097   3.323
 5439TIP3    H216324   6.332   4.219   3.276
 5440TIP3   OH216325   1.067   5.857   2.609
 5440TIP3    H116326   1.054   5.947   2.578
 5440TIP3    H216327   1.137   5.822   2.553
 5441TIP3   OH216328   1.885   3.115   1.211
 5441TIP3    H116329   1.846   3.081   1.130
 5441TIP3    H216330   1.811   3.125   1.271
 5442TIP3   OH216331   3.764   4.471   3.194
 5442TIP3    H116332   3.772   4.566   3.201
 5442TIP3    H216333   3.701   4.457   3.123
 5443TIP3   OH216334   5.912   0.289   0.454
 5443TIP3    H116335   5.822   0.288   0.485
 5443TIP3    H216336   5.926   0.201   0.418
 5444TIP3   OH216337   0.741   3.782   2.262
 5444TIP3    H116338   0.691   3.707   2.294
 5444TIP3    H216339   0.810   3.794   2.327
 5445TIP3   OH216340   3.967   2.158   3.788
 5445TIP3    H116341   3.992   2.173   3.697
 5445TIP3    H216342   3.891   2.099   3.782
 5446TIP3   OH216343   5.331   1.019   2.863
 5446TIP3    H116344   5.283   1.101   2.847
 5446TIP3    H216345   5.371   0.998   2.779
 5447TIP3   OH216346   2.131   3.055   4.827
 5447TIP3    H116347   2.207   3.059   4.769
 5447TIP3    H216348   2.126   2.964   4.854
 5448TIP3   OH216349   4.232   4.322   1.277
 5448TIP3    H116350   4.275   4.374   1.210
 5448TIP3    H216351   4.168   4.268   1.229
 5449TIP3   OH216352   4.327   1.037   4.640
 5449TIP3    H116353   4.419   1.009   4.638
 5449TIP3    H216354   4.286   0.987   4.569
 5450TIP3   OH216355   1.138   3.403   4.076
 5450TIP3    H116356   1.197   3.478   4.082
 5450TIP3    H216357   1.140   3.364   4.163
 5451TIP3   OH216358   0.778   5.922   0.874
 5451TIP3    H116359   0.868   5.920   0.841
 5451TIP3    H216360   0.783   5.879   0.959
 5452TIP3   OH216361   2.320   5.116   3.822
 5452TIP3    H116362   2.290   5.104   3.732
 5452TIP3    H216363   2.399   5.169   3.814
 5453TIP3   OH216364   2.555   5.463   0.425
 5453TIP3    H116365   2.632   5.406   0.421
 5453TIP3    H216366   2.497   5.421   0.489
 5454TIP3   OH216367   2.387   3.234   2.832
 5454TIP3    H116368   2.401   3.313   2.884
 5454TIP3    H216369   2.292   3.221   2.834
 5455TIP3   OH216370   3.650   4.400   0.776
 5455TIP3    H116371   3.557   4.425   0.776
 5455TIP3    H216372   3.687   4.447   0.702
 5456TIP3   OH216373   4.083   1.600   1.797
 5456TIP3    H116374   4.104   1.523   1.744
 5456TIP3    H216375   4.154   1.662   1.777
 5457TIP3   OH216376   0.869   2.689   0.666
 5457TIP3    H116377   0.937   2.752   0.690
 5457TIP3    H216378   0.787   2.737   0.678
 5458TIP3   OH216379   5.684   1.865   4.251
 5458TIP3    H116380   5.601   1.825   4.278
 5458TIP3    H216381   5.750   1.819   4.303
 5459TIP3   OH216382   5.040   4.343   0.372
 5459TIP3    H116383   5.000   4.264   0.336
 5459TIP3    H216384   4.982   4.414   0.343
 5460TIP3   OH216385   1.408   3.170   1.389
 5460TIP3    H116386   1.403   3.209   1.476
 5460TIP3    H216387   1.322   3.128   1.376
 5461TIP3   OH216388   0.284   3.380   3.050
 5461TIP3    H116389   0.258   3.291   3.026
 5461TIP3    H216390   0.236   3.436   2.990
 5462TIP3   OH216391   1.861   1.964   2.173
 5462TIP3    H116392   1.788   1.928   2.222
 5462TIP3    H216393   1.936   1.908   2.196
 5463TIP3   OH216394   6.032   1.559   1.378
 5463TIP3    H116395   5.972   1.625   1.343
 5463TIP3    H216396   6.105   1.558   1.317
 5464TIP3   OH216397   3.926   5.618   3.164
 5464TIP3    H116398   3.846   5.635   3.114
 5464TIP3    H216399   3.901   5.549   3.226
 5465TIP3   OH216400   6.171   4.378   4.068
 5465TIP3    H116401   6.261   4.391   4.098
 5465TIP3    H216402   6.137   4.467   4.055
 5466TIP3   OH216403   4.403   3.986   0.698
 5466TIP3    H116404   4.323   4.015   0.655
 5466TIP3    H216405   4.456   3.949   0.627
 5467TIP3   OH216406   0.271   1.117   1.748
 5467TIP3    H116407   0.336   1.047   1.745
 5467TIP3    H216408   0.223   1.102   1.829
 5468TIP3   OH216409   4.547   0.451   2.087
 5468TIP3    H116410   4.634   0.487   2.066
 5468TIP3    H216411   4.553   0.427   2.179
 5469TIP3   OH216412   0.829   4.750   0.665
 5469TIP3    H116413   0.763   4.734   0.732
 5469TIP3    H216414   0.898   4.797   0.711
 5470TIP3   OH216415   2.697   5.585   2.807
 5470TIP3    H116416   2.628   5.648   2.784
 5470TIP3    H216417   2.750   5.632   2.871
 5471TIP3   OH216418   0.247   3.715   2.762
 5471TIP3    H116419   0.194   3.691   2.686
 5471TIP3    H216420   0.227   3.647   2.827
 5472TIP3   OH216421   5.115   1.941   4.450
 5472TIP3    H116422   5.072   1.882   4.511
 5472TIP3    H216423   5.148   1.884   4.381
 5473TIP3   OH216424   1.334   2.418   0.526
 5473TIP3    H116425   1.404   2.362   0.559
 5473TIP3    H216426   1.268   2.357   0.492
 5474TIP3   OH216427   0.749   1.146   2.950
 5474TIP3    H116428   0.708   1.063   2.925
 5474TIP3    H216429   0.713   1.210   2.888
 5475TIP3   OH216430   2.414   1.139   0.185
 5475TIP3    H116431   2.463   1.134   0.267
 5475TIP3    H216432   2.446   1.219   0.143
 5476TIP3   OH216433   0.487   3.267   0.214
 5476TIP3    H116434   0.575   3.263   0.176
 5476TIP3    H216435   0.501   3.287   0.306
 5477TIP3   OH216436   5.702   0.475   0.100
 5477TIP3    H116437   5.686   0.565   0.071
 5477TIP3    H216438   5.780   0.480   0.154
 5478TIP3   OH216439   1.071   2.313   4.352
 5478TIP3    H116440   1.106   2.322   4.263
 5478TIP3    H216441   1.140   2.270   4.401
 5479TIP3   OH216442   3.736   0.443   2.462
 5479TIP3    H116443   3.656   0.451   2.514
 5479TIP3    H216444   3.704   0.425   2.373
 5480TIP3   OH216445   3.540   4.146   1.679
 5480TIP3    H116446   3.488   4.067   1.695
 5480TIP3    H216447   3.544   4.154   1.584
 5481TIP3   OH216448   1.198   5.519   4.827
 5481TIP3    H116449   1.166   5.595   4.779
 5481TIP3    H216450   1.292   5.515   4.806
 5482TIP3   OH216451   4.179   5.975   1.472
 5482TIP3    H116452   4.258   5.977   1.527
 5482TIP3    H216453   4.189   5.895   1.420
 5483TIP3   OH216454   6.211   5.488   3.780
 5483TIP3    H116455   6.283   5.425   3.775
 5483TIP3    H216456   6.150   5.460   3.711
 5484TIP3   OH216457   4.605   4.253   0.084
 5484TIP3    H116458   4.693   4.241   0.121
 5484TIP3    H216459   4.622   4.285  -0.005
 5485TIP3   OH216460   0.388   1.078   4.786
 5485TIP3    H116461   0.409   1.157   4.835
 5485TIP3    H216462   0.331   1.028   4.845
 5486TIP3   OH216463   2.675   3.705   2.677
 5486TIP3    H116464   2.617   3.648   2.626
 5486TIP3    H216465   2.761   3.663   2.670
 5487TIP3   OH216466   0.523   3.669   0.142
 5487TIP3    H116467   0.535   3.680   0.048
 5487TIP3    H216468   0.585   3.731   0.181
 5488TIP3   OH216469   6.282   3.127   0.815
 5488TIP3    H116470   6.291   3.209   0.768
 5488TIP3    H216471   6.289   3.151   0.907
 5489TIP3   OH216472   3.370   2.669   4.073
 5489TIP3    H116473   3.368   2.764   4.082
 5489TIP3    H216474   3.380   2.636   4.162
 5490TIP3   OH216475   5.763   2.104   3.424
 5490TIP3    H116476   5.814   2.069   3.496
 5490TIP3    H216477   5.731   2.188   3.457
 5491TIP3   OH216478   0.427   1.413   2.997
 5491TIP3    H116479   0.384   1.376   2.920
 5491TIP3    H216480   0.481   1.342   3.031
 5492TIP3   OH216481   0.602   1.900   4.897
 5492TIP3    H116482   0.575   1.820   4.854
 5492TIP3    H216483   0.689   1.918   4.863
 5493TIP3   OH216484   0.614   4.542   0.150
 5493TIP3    H116485   0.632   4.575   0.238
 5493TIP3    H216486   0.530   4.580   0.126
 5494TIP3   OH216487   2.263   0.773   1.576
 5494TIP3    H116488   2.296   0.827   1.648
 5494TIP3    H216489   2.200   0.713   1.618
 5495TIP3   OH216490   1.585   4.632   2.824
 5495TIP3    H116491   1.681   4.630   2.827
 5495TIP3    H216492   1.559   4.541   2.813
 5496TIP3   OH216493   1.609   4.795   4.536
 5496TIP3    H116494   1.665   4.842   4.474
 5496TIP3    H216495   1.554   4.862   4.575
 5497TIP3   OH216496   6.168   5.495   4.055
 5497TIP3    H116497   6.173   5.480   3.961
 5497TIP3    H216498   6.227   5.569   4.071
 5498TIP3   OH216499   5.663   1.425   1.342
 5498TIP3    H116500   5.672   1.424   1.246
 5498TIP3    H216501   5.727   1.360   1.372
 5499TIP3   OH216502   4.310   4.454   4.252
 5499TIP3    H116503   4.294   4.489   4.164
 5499TIP3    H216504   4.239   4.490   4.305
 5500TIP3   OH216505   3.549   5.905   1.817
 5500TIP3    H116506   3.547   5.826   1.762
 5500TIP3    H216507   3.545   5.978   1.754
 5501TIP3   OH216508   2.503   4.619   2.201
 5501TIP3    H116509   2.416   4.647   2.175
 5501TIP3    H216510   2.558   4.697   2.187
 5502TIP3   OH216511   2.602   3.577   3.107
 5502TIP3    H116512   2.667   3.569   3.037
 5502TIP3    H216513   2.561   3.490   3.111
 5503TIP3   OH216514   4.922   3.845   0.032
 5503TIP3    H116515   4.907   3.940   0.025
 5503TIP3    H216516   4.997   3.829  -0.026
 5504TIP3   OH216517   5.531   1.194   3.913
 5504TIP3    H116518   5.571   1.109   3.893
 5504TIP3    H216519   5.474   1.176   3.988
 5505TIP3   OH216520   1.944   2.833   4.565
 5505TIP3    H116521   2.021   2.818   4.620
 5505TIP3    H216522   1.978   2.878   4.488
 5506TIP3   OH216523   1.164   2.610   0.132
 5506TIP3    H116524   1.163   2.648   0.044
 5506TIP3    H216525   1.248   2.638   0.169
 5507TIP3   OH216526   3.717   3.118   2.786
 5507TIP3    H116527   3.654   3.187   2.764
 5507TIP3    H216528   3.797   3.165   2.809
 5508TIP3   OH216529   0.042   3.463   1.722
 5508TIP3    H116530   0.032   3.502   1.809
 5508TIP3    H216531   0.105   3.520   1.677
 5509TIP3   OH216532   3.170   1.641   0.690
 5509TIP3    H116533   3.093   1.609   0.736
 5509TIP3    H216534   3.226   1.565   0.681
 5510TIP3   OH216535   2.167   5.375   1.945
 5510TIP3    H116536   2.161   5.293   1.994
 5510TIP3    H216537   2.095   5.429   1.979
 5511TIP3   OH216538   5.291   5.764   0.358
 5511TIP3    H116539   5.244   5.845   0.381
 5511TIP3    H216540   5.352   5.750   0.431
 5512TIP3   OH216541   4.815   1.218  -0.025
 5512TIP3    H116542   4.907   1.242  -0.033
 5512TIP3    H216543   4.772   1.297   0.007
 5513TIP3   OH216544   3.912   3.758   3.355
 5513TIP3    H116545   3.956   3.719   3.431
 5513TIP3    H216546   3.829   3.710   3.348
 5514TIP3   OH216547   3.068   4.713   3.997
 5514TIP3    H116548   3.096   4.748   3.912
 5514TIP3    H216549   3.100   4.777   4.060
 5515TIP3   OH216550   0.435   3.638   4.160
 5515TIP3    H116551   0.422   3.647   4.065
 5515TIP3    H216552   0.523   3.673   4.175
 5516TIP3   OH216553   0.259   5.855   0.453
 5516TIP3    H116554   0.215   5.841   0.537
 5516TIP3    H216555   0.340   5.803   0.460
 5517TIP3   OH216556   2.870   0.789   0.755
 5517TIP3    H116557   2.865   0.850   0.828
 5517TIP3    H216558   2.902   0.842   0.682
 5518TIP3   OH216559   4.450   0.704   4.528
 5518TIP3    H116560   4.511   0.766   4.568
 5518TIP3    H216561   4.473   0.704   4.435
 5519TIP3   OH216562   6.333   4.951   0.908
 5519TIP3    H116563   6.425   4.974   0.893
 5519TIP3    H216564   6.333   4.897   0.987
 5520TIP3   OH216565   5.656   2.309   3.617
 5520TIP3    H116566   5.662   2.397   3.580
 5520TIP3    H216567   5.599   2.320   3.694
 5521TIP3   OH216568   6.212   4.233   2.671
 5521TIP3    H116569   6.126   4.232   2.714
 5521TIP3    H216570   6.198   4.185   2.589
 5522TIP3   OH216571   6.346   4.103   1.433
 5522TIP3    H116572   6.370   4.061   1.516
 5522TIP3    H216573   6.314   4.190   1.458
 5523TIP3   OH216574  -0.024   4.808   4.026
 5523TIP3    H116575   0.057   4.848   4.059
 5523TIP3    H216576   0.002   4.718   4.004
 5524TIP3   OH216577   3.008   3.544   2.099
 5524TIP3    H116578   2.934   3.539   2.038
 5524TIP3    H216579   3.016   3.637   2.119
 5525TIP3   OH216580   5.576   5.784   3.698
 5525TIP3    H116581   5.491   5.742   3.685
 5525TIP3    H216582   5.573   5.862   3.642
 5526TIP3   OH216583   1.777   4.750   4.900
 5526TIP3    H116584   1.718   4.825   4.896
 5526TIP3    H216585   1.727   4.678   4.862
 5527TIP3   OH216586   2.143   0.895   4.279
 5527TIP3    H116587   2.222   0.872   4.231
 5527TIP3    H216588   2.165   0.882   4.371
 5528TIP3   OH216589   0.157   5.372   2.374
 5528TIP3    H116590   0.203   5.453   2.351
 5528TIP3    H216591   0.113   5.392   2.456
 5529TIP3   OH216592   3.754   1.831   3.074
 5529TIP3    H116593   3.791   1.878   2.999
 5529TIP3    H216594   3.687   1.890   3.109
 5530TIP3   OH216595   1.228   5.225   3.394
 5530TIP3    H116596   1.226   5.308   3.441
 5530TIP3    H216597   1.308   5.182   3.424
 5531TIP3   OH216598   3.037   4.021   3.508
 5531TIP3    H116599   2.942   4.008   3.506
 5531TIP3    H216600   3.067   3.992   3.422
 5532TIP3   OH216601   0.155   0.040   2.430
 5532TIP3    H116602   0.106   0.118   2.454
 5532TIP3    H216603   0.196   0.012   2.512
 5533TIP3   OH216604   1.684   3.406   4.087
 5533TIP3    H116605   1.603   3.359   4.107
 5533TIP3    H216606   1.753   3.342   4.107
 5534TIP3   OH216607   4.260   2.872   1.941
 5534TIP3    H116608   4.200   2.929   1.989
 5534TIP3    H216609   4.249   2.786   1.981
 5535TIP3   OH216610   3.604   3.792   1.137
 5535TIP3    H116611   3.680   3.750   1.097
 5535TIP3    H216612   3.554   3.720   1.176
 5536TIP3   OH216613   4.026   3.138   1.806
 5536TIP3    H116614   4.002   3.048   1.784
 5536TIP3    H216615   3.994   3.190   1.732
 5537TIP3   OH216616   2.256   5.528   0.173
 5537TIP3    H116617   2.191   5.518   0.243
 5537TIP3    H216618   2.329   5.472   0.200
 5538TIP3   OH216619   2.279   2.233   2.836
 5538TIP3    H116620   2.193   2.202   2.865
 5538TIP3    H216621   2.264   2.324   2.810
 5539TIP3   OH216622   4.846   4.498   0.256
 5539TIP3    H116623   4.829   4.482   0.163
 5539TIP3    H216624   4.863   4.592   0.261
 5540TIP3   OH216625   4.716   4.932   0.960
 5540TIP3    H116626   4.755   4.892   0.882
 5540TIP3    H216627   4.750   4.879   1.033
 5541TIP3   OH216628   0.951   1.748   2.181
 5541TIP3    H116629   0.960   1.808   2.108
 5541TIP3    H216630   1.015   1.679   2.165
 5542TIP3   OH216631   3.072   3.953   2.155
 5542TIP3    H116632   2.980   3.971   2.136
 5542TIP3    H216633   3.119   4.029   2.119
 5543TIP3   OH216634   0.950   0.178   1.229
 5543TIP3    H116635   0.855   0.177   1.218
 5543TIP3    H216636   0.962   0.193   1.323
 5544TIP3   OH216637   2.715   5.354   1.413
 5544TIP3    H116638   2.648   5.322   1.353
 5544TIP3    H216639   2.729   5.282   1.474
 5545TIP3   OH216640   1.252   2.941   4.486
 5545TIP3    H116641   1.219   2.945   4.576
 5545TIP3    H216642   1.223   3.023   4.446
 5546TIP3   OH216643   3.917   5.868   5.121
 5546TIP3    H116644   3.836   5.889   5.167
 5546TIP3    H216645   3.978   5.937   5.147
 5547TIP3   OH216646   4.125   0.122   0.890
 5547TIP3    H116647   4.133   0.208   0.931
 5547TIP3    H216648   4.036   0.094   0.911
 5548TIP3   OH216649   2.575   1.797   0.942
 5548TIP3    H116650   2.581   1.801   1.038
 5548TIP3    H216651   2.656   1.838   0.912
 5549TIP3   OH216652   5.943   5.491   4.492
 5549TIP3    H116653   6.008   5.459   4.555
 5549TIP3    H216654   5.954   5.586   4.492
 5550TIP3   OH216655   1.352   2.763   0.259
 5550TIP3    H116656   1.408   2.822   0.209
 5550TIP3    H216657   1.331   2.812   0.339
 5551TIP3   OH216658   2.254   2.030   3.428
 5551TIP3    H116659   2.172   2.058   3.468
 5551TIP3    H216660   2.230   1.956   3.373
 5552TIP3   OH216661   5.531   2.403   4.974
 5552TIP3    H116662   5.514   2.448   4.891
 5552TIP3    H216663   5.447   2.403   5.019
 5553TIP3   OH216664   3.375   0.225   0.346
 5553TIP3    H116665   3.320   0.152   0.317
 5553TIP3    H216666   3.347   0.300   0.294
 5554TIP3   OH216667   0.805   1.574   4.546
 5554TIP3    H116668   0.854   1.561   4.628
 5554TIP3    H216669   0.827   1.662   4.518
 5555TIP3   OH216670   1.608   3.204   5.104
 5555TIP3    H116671   1.600   3.234   5.013
 5555TIP3    H216672   1.660   3.124   5.098
 5556TIP3   OH216673   5.847   5.519   1.506
 5556TIP3    H116674   5.854   5.440   1.559
 5556TIP3    H216675   5.794   5.493   1.430
 5557TIP3   OH216676   4.692   0.502   4.156
 5557TIP3    H116677   4.653   0.573   4.207
 5557TIP3    H216678   4.728   0.544   4.079
 5558TIP3   OH216679   2.947   4.653   0.457
 5558TIP3    H116680   2.913   4.741   0.445
 5558TIP3    H216681   2.868   4.598   0.468
 5559TIP3   OH216682   2.057   0.709   5.013
 5559TIP3    H116683   1.968   0.676   5.023
 5559TIP3    H216684   2.102   0.641   4.961
 5560TIP3   OH216685   4.101   5.111   0.727
 5560TIP3    H116686   4.064   5.161   0.799
 5560TIP3    H216687   4.141   5.178   0.670
 5561TIP3   OH216688   0.341   0.108   3.132
 5561TIP3    H116689   0.285   0.033   3.114
 5561TIP3    H216690   0.356   0.149   3.047
 5562TIP3   OH216691   5.438   4.586   2.597
 5562TIP3    H116692   5.494   4.636   2.656
 5562TIP3    H216693   5.461   4.495   2.613
 5563TIP3   OH216694   0.089   1.721   1.075
 5563TIP3    H116695   0.019   1.785   1.062
 5563TIP3    H216696   0.073   1.655   1.007
 5564TIP3   OH216697   3.742   3.866   2.218
 5564TIP3    H116698   3.785   3.949   2.199
 5564TIP3    H216699   3.649   3.882   2.202
 5565TIP3   OH216700   6.206  -0.013   2.135
 5565TIP3    H116701   6.134   0.043   2.105
 5565TIP3    H216702   6.281   0.014   2.082
 5566TIP3   OH216703   1.917   5.234   3.807
 5566TIP3    H116704   1.972   5.196   3.876
 5566TIP3    H216705   1.978   5.255   3.737
 5567TIP3   OH216706   0.404   5.128   3.070
 5567TIP3    H116707   0.449   5.130   2.985
 5567TIP3    H216708   0.439   5.204   3.116
 5568TIP3   OH216709   6.108   5.530   4.781
 5568TIP3    H116710   6.111   5.549   4.875
 5568TIP3    H216711   6.071   5.609   4.742
 5569TIP3   OH216712   0.165   2.267   2.880
 5569TIP3    H116713   0.244   2.223   2.909
 5569TIP3    H216714   0.095   2.203   2.894
 5570TIP3   OH216715   5.176   3.785   0.995
 5570TIP3    H116716   5.262   3.776   1.037
 5570TIP3    H216717   5.146   3.695   0.984
 5571TIP3   OH216718   1.730   0.066   1.924
 5571TIP3    H116719   1.662   0.123   1.889
 5571TIP3    H216720   1.812   0.105   1.894
 5572TIP3   OH216721   5.592   2.301   0.060
 5572TIP3    H116722   5.600   2.375  -0.001
 5572TIP3    H216723   5.661   2.315   0.124
 5573TIP3   OH216724   3.895   1.516   0.817
 5573TIP3    H116725   3.975   1.565   0.798
 5573TIP3    H216726   3.837   1.581   0.857
 5574TIP3   OH216727   0.964   3.826   2.566
 5574TIP3    H116728   1.054   3.797   2.584
 5574TIP3    H216729   0.910   3.750   2.587
 5575TIP3   OH216730   4.147   3.703   1.677
 5575TIP3    H116731   4.060   3.733   1.703
 5575TIP3    H216732   4.193   3.782   1.650
 5576TIP3   OH216733   1.161   2.759   2.074
 5576TIP3    H116734   1.109   2.687   2.038
 5576TIP3    H216735   1.099   2.808   2.127
 5577TIP3   OH216736   1.029   0.328   3.431
 5577TIP3    H116737   1.026   0.261   3.362
 5577TIP3    H216738   0.953   0.383   3.415
 5578TIP3   OH216739   0.925   1.009   4.760
 5578TIP3    H116740   1.002   1.039   4.807
 5578TIP3    H216741   0.878   0.955   4.823
 5579TIP3   OH216742   2.136   2.349   5.134
 5579TIP3    H116743   2.183   2.266   5.148
 5579TIP3    H216744   2.050   2.334   5.175
 5580TIP3   OH216745   6.168   3.063   4.279
 5580TIP3    H116746   6.127   2.979   4.260
 5580TIP3    H216747   6.170   3.109   4.195
 5581TIP3   OH216748   5.220   4.261   4.277
 5581TIP3    H116749   5.217   4.351   4.309
 5581TIP3    H216750   5.221   4.207   4.356
 5582TIP3   OH216751   1.070   1.927   3.105
 5582TIP3    H116752   1.001   1.861   3.101
 5582TIP3    H216753   1.151   1.877   3.117
 5583TIP3   OH216754   4.942   2.676   4.776
 5583TIP3    H116755   4.933   2.768   4.800
 5583TIP3    H216756   4.878   2.631   4.830
 5584TIP3   OH216757   2.119   0.605   1.725
 5584TIP3    H116758   2.061   0.620   1.800
 5584TIP3    H216759   2.073   0.541   1.672
 5585TIP3   OH216760   4.526   1.423   2.163
 5585TIP3    H116761   4.440   1.382   2.159
 5585TIP3    H216762   4.586   1.357   2.129
 5586TIP3   OH216763   1.841   4.143   4.013
 5586TIP3    H116764   1.858   4.131   3.919
 5586TIP3    H216765   1.875   4.063   4.053
 5587TIP3   OH216766   2.252   3.777   1.520
 5587TIP3    H116767   2.199   3.698   1.532
 5587TIP3    H216768   2.188   3.848   1.517
 5588TIP3   OH216769   2.173   0.432   2.853
 5588TIP3    H116770   2.206   0.515   2.819
 5588TIP3    H216771   2.125   0.393   2.780
 5589TIP3   OH216772   2.814   4.406   3.181
 5589TIP3    H116773   2.822   4.450   3.097
 5589TIP3    H216774   2.722   4.417   3.205
 5590TIP3   OH216775   4.364   1.325   0.326
 5590TIP3    H116776   4.426   1.392   0.354
 5590TIP3    H216777   4.297   1.324   0.395
 5591TIP3   OH216778   3.094   4.365   0.771
 5591TIP3    H116779   3.126   4.381   0.682
 5591TIP3    H216780   3.018   4.423   0.780
 5592TIP3   OH216781   0.005   3.263   3.036
 5592TIP3    H116782   0.005   3.168   3.022
 5592TIP3    H216783   0.050   3.299   2.960
 5593TIP3   OH216784   0.472   5.578   2.752
 5593TIP3    H116785   0.442   5.647   2.811
 5593TIP3    H216786   0.404   5.511   2.755
 5594TIP3   OH216787   3.785   0.589   0.279
 5594TIP3    H116788   3.732   0.527   0.229
 5594TIP3    H216789   3.733   0.607   0.358
 5595TIP3   OH216790   4.298   4.140   4.025
 5595TIP3    H116791   4.230   4.072   4.017
 5595TIP3    H216792   4.334   4.128   4.112
 5596TIP3   OH216793   3.320   2.060   4.016
 5596TIP3    H116794   3.232   2.061   3.980
 5596TIP3    H216795   3.319   2.130   4.083
 5597TIP3   OH216796   0.271   5.214   3.703
 5597TIP3    H116797   0.179   5.231   3.720
 5597TIP3    H216798   0.273   5.125   3.668
 5598TIP3   OH216799   3.151   3.708   5.007
 5598TIP3    H116800   3.140   3.801   4.990
 5598TIP3    H216801   3.151   3.667   4.921
 5599TIP3   OH216802   6.277   1.820   3.507
 5599TIP3    H116803   6.201   1.877   3.499
 5599TIP3    H216804   6.352   1.878   3.492
 5600TIP3   OH216805   4.133   5.635   3.914
 5600TIP3    H116806   4.081   5.589   3.847
 5600TIP3    H216807   4.167   5.712   3.869
 5601TIP3   OH216808   5.153   0.885   3.548
 5601TIP3    H116809   5.122   0.860   3.636
 5601TIP3    H216810   5.244   0.909   3.561
 5602TIP3   OH216811   2.146   4.798   3.757
 5602TIP3    H116812   2.166   4.771   3.846
 5602TIP3    H216813   2.053   4.779   3.745
 5603TIP3   OH216814   3.311   4.990   2.524
 5603TIP3    H116815   3.341   5.010   2.436
 5603TIP3    H216816   3.384   4.942   2.564
 5604TIP3   OH216817   5.561   0.870   2.095
 5604TIP3    H116818   5.587   0.955   2.059
 5604TIP3    H216819   5.466   0.869   2.087
 5605TIP3   OH216820   4.078   2.015   3.092
 5605TIP3    H116821   4.143   2.064   3.143
 5605TIP3    H216822   4.098   2.037   3.001
 5606TIP3   OH216823   4.047   5.611   1.756
 5606TIP3    H116824   4.060   5.674   1.826
 5606TIP3    H216825   4.132   5.566   1.748
 5607TIP3   OH216826   3.650   2.027   0.957
 5607TIP3    H116827   3.616   2.045   0.870
 5607TIP3    H216828   3.584   1.972   0.998
 5608TIP3   OH216829   2.916   3.685   1.576
 5608TIP3    H116830   2.992   3.631   1.552
 5608TIP3    H216831   2.851   3.621   1.606
 5609TIP3   OH216832   1.564   4.041   2.076
 5609TIP3    H116833   1.560   3.966   2.135
 5609TIP3    H216834   1.500   4.103   2.111
 5610TIP3   OH216835   3.730   2.022   5.005
 5610TIP3    H116836   3.635   2.016   5.013
 5610TIP3    H216837   3.745   2.065   4.921
 5611TIP3   OH216838   4.310   1.865   1.431
 5611TIP3    H116839   4.239   1.871   1.367
 5611TIP3    H216840   4.309   1.950   1.475
 5612TIP3   OH216841   1.540   3.625   1.224
 5612TIP3    H116842   1.586   3.564   1.282
 5612TIP3    H216843   1.569   3.602   1.136
 5613TIP3   OH216844   1.431   4.411   2.781
 5613TIP3    H116845   1.423   4.389   2.874
 5613TIP3    H216846   1.355   4.466   2.763
 5614TIP3   OH216847   3.485   3.628   5.186
 5614TIP3    H116848   3.479   3.533   5.191
 5614TIP3    H216849   3.507   3.647   5.095
 5615TIP3   OH216850   1.619   4.187   4.963
 5615TIP3    H116851   1.622   4.093   4.982
 5615TIP3    H216852   1.607   4.228   5.049
 5616TIP3   OH216853   5.339   2.526   2.338
 5616TIP3    H116854   5.387   2.545   2.257
 5616TIP3    H216855   5.370   2.592   2.400
 5617TIP3   OH216856   4.629   5.598   5.166
 5617TIP3    H116857   4.574   5.676   5.164
 5617TIP3    H216858   4.568   5.525   5.153
 5618TIP3   OH216859   6.161   1.365   1.586
 5618TIP3    H116860   6.244   1.376   1.633
 5618TIP3    H216861   6.151   1.446   1.536
 5619TIP3   OH216862   5.856   3.243   1.293
 5619TIP3    H116863   5.929   3.291   1.333
 5619TIP3    H216864   5.884   3.226   1.204
 5620TIP3   OH216865   3.233   5.860   2.286
 5620TIP3    H116866   3.259   5.792   2.349
 5620TIP3    H216867   3.195   5.929   2.340
 5621TIP3   OH216868   6.240   3.118   2.355
 5621TIP3    H116869   6.233   3.132   2.261
 5621TIP3    H216870   6.169   3.058   2.376
 5622TIP3   OH216871   1.858   2.258   5.151
 5622TIP3    H116872   1.879   2.237   5.060
 5622TIP3    H216873   1.771   2.297   5.147
 5623TIP3   OH216874   2.824   3.777   0.710
 5623TIP3    H116875   2.756   3.843   0.722
 5623TIP3    H216876   2.845   3.747   0.799
 5624TIP3   OH216877   5.535   5.356   1.550
 5624TIP3    H116878   5.620   5.317   1.571
 5624TIP3    H216879   5.472   5.304   1.599
 5625TIP3   OH216880   5.059   2.091   1.292
 5625TIP3    H116881   5.088   2.004   1.319
 5625TIP3    H216882   5.128   2.149   1.323
 5626TIP3   OH216883   5.648   0.813   0.499
 5626TIP3    H116884   5.604   0.728   0.498
 5626TIP3    H216885   5.734   0.795   0.460
 5627TIP3   OH216886   5.063   5.672   2.102
 5627TIP3    H116887   5.109   5.596   2.137
 5627TIP3    H216888   5.044   5.650   2.011
 5628TIP3   OH216889   2.687   0.440   0.517
 5628TIP3    H116890   2.760   0.489   0.478
 5628TIP3    H216891   2.666   0.488   0.597
 5629TIP3   OH216892   6.225   5.531   0.026
 5629TIP3    H116893   6.251   5.461   0.087
 5629TIP3    H216894   6.143   5.564   0.064
 5630TIP3   OH216895   5.732   3.460   2.365
 5630TIP3    H116896   5.812   3.499   2.400
 5630TIP3    H216897   5.662   3.517   2.397
 5631TIP3   OH216898   2.909   3.575   4.119
 5631TIP3    H116899   2.929   3.482   4.120
 5631TIP3    H216900   2.833   3.583   4.061
 5632TIP3   OH216901   0.845   3.714   0.534
 5632TIP3    H116902   0.882   3.760   0.609
 5632TIP3    H216903   0.769   3.668   0.569
 5633TIP3   OH216904   5.986   3.627   0.673
 5633TIP3    H116905   5.947   3.577   0.602
 5633TIP3    H216906   6.002   3.714   0.635
 5634TIP3   OH216907   2.747   5.015   0.868
 5634TIP3    H116908   2.678   5.048   0.811
 5634TIP3    H216909   2.767   5.087   0.927
 5635TIP3   OH216910   6.262   0.469   1.579
 5635TIP3    H116911   6.207   0.464   1.502
 5635TIP3    H216912   6.238   0.392   1.631
 5636TIP3   OH216913   1.342   3.524   0.163
 5636TIP3    H116914   1.265   3.521   0.106
 5636TIP3    H216915   1.340   3.442   0.211
 5637TIP3   OH216916   5.168   3.059   4.527
 5637TIP3    H116917   5.213   3.143   4.535
 5637TIP3    H216918   5.181   3.017   4.612
 5638TIP3   OH216919   2.063   5.595   5.014
 5638TIP3    H116920   2.008   5.522   4.986
 5638TIP3    H216921   2.138   5.553   5.055
 5639TIP3   OH216922   3.974   5.257   1.437
 5639TIP3    H116923   4.048   5.254   1.499
 5639TIP3    H216924   3.953   5.165   1.420
 5640TIP3   OH216925   5.029   5.110   0.425
 5640TIP3    H116926   4.953   5.163   0.450
 5640TIP3    H216927   4.998   5.019   0.431
 5641TIP3   OH216928   1.855   4.402   3.260
 5641TIP3    H116929   1.879   4.327   3.315
 5641TIP3    H216930   1.864   4.478   3.318
 5642TIP3   OH216931   4.293   1.114   3.251
 5642TIP3    H116932   4.337   1.034   3.225
 5642TIP3    H216933   4.200   1.095   3.241
 5643TIP3   OH216934   0.529   0.242   0.023
 5643TIP3    H116935   0.538   0.333   0.051
 5643TIP3    H216936   0.442   0.238  -0.018
 5644TIP3   OH216937   0.407   3.213   2.170
 5644TIP3    H116938   0.351   3.209   2.093
 5644TIP3    H216939   0.493   3.238   2.136
 5645TIP3   OH216940   0.381   4.082   1.967
 5645TIP3    H116941   0.400   3.995   2.002
 5645TIP3    H216942   0.467   4.121   1.951
 5646TIP3   OH216943   4.070   0.476   3.483
 5646TIP3    H116944   3.990   0.482   3.431
 5646TIP3    H216945   4.119   0.555   3.460
 5647TIP3   OH216946   1.279   2.453   4.599
 5647TIP3    H116947   1.197   2.501   4.589
 5647TIP3    H216948   1.340   2.495   4.539
 5648TIP3   OH216949   4.685   0.033   2.059
 5648TIP3    H116950   4.708   0.055   2.149
 5648TIP3    H216951   4.668  -0.062   2.061
 5649TIP3   OH216952   5.218   5.889   2.069
 5649TIP3    H116953   5.274   5.885   2.147
 5649TIP3    H216954   5.143   5.833   2.090
 5650TIP3   OH216955   1.395   4.306   3.439
 5650TIP3    H116956   1.383   4.223   3.484
 5650TIP3    H216957   1.487   4.306   3.412
 5651TIP3   OH216958   2.106   5.436   2.537
 5651TIP3    H116959   2.122   5.382   2.459
 5651TIP3    H216960   2.016   5.414   2.562
 5652TIP3   OH216961   3.798   1.699   3.994
 5652TIP3    H116962   3.791   1.721   3.901
 5652TIP3    H216963   3.799   1.603   3.996
 5653TIP3   OH216964   2.594   0.872   2.989
 5653TIP3    H116965   2.606   0.912   3.075
 5653TIP3    H216966   2.516   0.915   2.954
 5654TIP3   OH216967   3.095   1.274   1.878
 5654TIP3    H116968   3.156   1.216   1.924
 5654TIP3    H216969   3.133   1.361   1.886
 5655TIP3   OH216970   0.929   3.630   4.271
 5655TIP3    H116971   1.000   3.653   4.212
 5655TIP3    H216972   0.961   3.653   4.358
 5656TIP3   OH216973   4.669   0.185   1.472
 5656TIP3    H116974   4.732   0.227   1.414
 5656TIP3    H216975   4.615   0.257   1.506
 5657TIP3   OH216976   5.612   3.866   1.337
 5657TIP3    H116977   5.606   3.794   1.399
 5657TIP3    H216978   5.704   3.867   1.309
 5658TIP3   OH216979   4.002   4.243   4.490
 5658TIP3    H116980   4.003   4.213   4.399
 5658TIP3    H216981   3.918   4.286   4.500
 5659TIP3   OH216982   3.949   0.365   2.600
 5659TIP3    H116983   4.014   0.434   2.588
 5659TIP3    H216984   3.868   0.402   2.566
 5660TIP3   OH216985   1.291   3.056   0.500
 5660TIP3    H116986   1.312   3.125   0.564
 5660TIP3    H216987   1.199   3.035   0.516
 5661TIP3   OH216988   4.080   4.365   4.720
 5661TIP3    H116989   4.001   4.351   4.771
 5661TIP3    H216990   4.063   4.323   4.636
 5662TIP3   OH216991   3.681   1.391  -0.018
 5662TIP3    H116992   3.742   1.454   0.018
 5662TIP3    H216993   3.674   1.322   0.048
 5663TIP3   OH216994   5.988   1.918   0.883
 5663TIP3    H116995   5.929   1.875   0.820
 5663TIP3    H216996   5.935   1.929   0.962
 5664TIP3   OH216997   0.150   2.386   2.633
 5664TIP3    H116998   0.155   2.339   2.716
 5664TIP3    H216999   0.196   2.329   2.571
 5665TIP3   OH217000   4.904   0.840   4.168
 5665TIP3    H117001   4.970   0.810   4.105
 5665TIP3    H217002   4.825   0.791   4.146
 5666TIP3   OH217003   3.391   2.229   3.143
 5666TIP3    H117004   3.364   2.300   3.202
 5666TIP3    H217005   3.462   2.266   3.092
 5667TIP3   OH217006   4.224   3.612   2.210
 5667TIP3    H117007   4.244   3.593   2.119
 5667TIP3    H217008   4.244   3.531   2.257
 5668TIP3   OH217009   0.709   0.358   0.874
 5668TIP3    H117010   0.625   0.400   0.862
 5668TIP3    H217011   0.751   0.362   0.788
 5669TIP3   OH217012   6.011   5.268   2.650
 5669TIP3    H117013   6.047   5.211   2.582
 5669TIP3    H217014   5.958   5.210   2.704
 5670TIP3   OH217015   3.441   2.513   4.544
 5670TIP3    H117016   3.401   2.582   4.597
 5670TIP3    H217017   3.412   2.432   4.585
 5671TIP3   OH217018   5.715   1.208   2.659
 5671TIP3    H117019   5.683   1.184   2.746
 5671TIP3    H217020   5.784   1.271   2.675
 5672TIP3   OH217021   0.974   1.684   1.563
 5672TIP3    H117022   0.918   1.722   1.630
 5672TIP3    H217023   0.999   1.598   1.597
 5673TIP3   OH217024   0.847   2.213   3.777
 5673TIP3    H117025   0.913   2.169   3.831
 5673TIP3    H217026   0.832   2.154   3.703
 5674TIP3   OH217027   2.227   2.552   1.251
 5674TIP3    H117028   2.220   2.537   1.345
 5674TIP3    H217029   2.172   2.483   1.212
 5675TIP3   OH217030   2.501   4.245   0.547
 5675TIP3    H117031   2.565   4.175   0.533
 5675TIP3    H217032   2.446   4.212   0.618
 5676TIP3   OH217033   0.763   3.500   0.838
 5676TIP3    H117034   0.691   3.560   0.817
 5676TIP3    H217035   0.770   3.444   0.761
 5677TIP3   OH217036   1.663   3.518   1.661
 5677TIP3    H117037   1.736   3.569   1.626
 5677TIP3    H217038   1.647   3.555   1.748
 5678TIP3   OH217039   2.696   0.620   2.435
 5678TIP3    H117040   2.726   0.693   2.381
 5678TIP3    H217041   2.629   0.658   2.492
 5679TIP3   OH217042   0.275   3.546   3.606
 5679TIP3    H117043   0.256   3.640   3.607
 5679TIP3    H217044   0.360   3.539   3.562
 5680TIP3   OH217045   1.003   4.957   2.352
 5680TIP3    H117046   1.033   4.991   2.267
 5680TIP3    H217047   1.084   4.935   2.398
 5681TIP3   OH217048   4.006   2.669   3.967
 5681TIP3    H117049   3.937   2.652   4.031
 5681TIP3    H217050   4.032   2.582   3.937
 5682TIP3   OH217051   0.588   3.956   2.707
 5682TIP3    H117052   0.500   3.959   2.670
 5682TIP3    H217053   0.583   4.013   2.784
 5683TIP3   OH217054   0.322   3.926   0.634
 5683TIP3    H117055   0.361   4.009   0.661
 5683TIP3    H217056   0.229   3.935   0.654
 5684TIP3   OH217057   3.243   1.598   4.485
 5684TIP3    H117058   3.307   1.581   4.416
 5684TIP3    H217059   3.159   1.596   4.441
 5685TIP3   OH217060   5.949   0.541   4.197
 5685TIP3    H117061   5.874   0.486   4.176
 5685TIP3    H217062   5.975   0.514   4.285
 5686TIP3   OH217063   4.971   5.722   1.414
 5686TIP3    H117064   5.064   5.711   1.434
 5686TIP3    H217065   4.947   5.642   1.366
 5687TIP3   OH217066   2.695   4.738   2.019
 5687TIP3    H117067   2.677   4.678   1.947
 5687TIP3    H217068   2.790   4.739   2.027
 5688TIP3   OH217069   4.592   3.252   4.402
 5688TIP3    H117070   4.630   3.231   4.317
 5688TIP3    H217071   4.506   3.210   4.400
 5689TIP3   OH217072   5.183   3.427   0.414
 5689TIP3    H117073   5.185   3.349   0.360
 5689TIP3    H217074   5.117   3.483   0.374
 5690TIP3   OH217075   0.608   0.502   0.122
 5690TIP3    H117076   0.697   0.472   0.104
 5690TIP3    H217077   0.606   0.593   0.092
 5691TIP3   OH217078   0.500   1.767   1.057
 5691TIP3    H117079   0.452   1.795   0.979
 5691TIP3    H217080   0.571   1.712   1.022
 5692TIP3   OH217081   4.664   3.633   4.580
 5692TIP3    H117082   4.689   3.582   4.503
 5692TIP3    H217083   4.638   3.568   4.645
 5693TIP3   OH217084   2.652   1.526   2.326
 5693TIP3    H117085   2.702   1.552   2.248
 5693TIP3    H217086   2.618   1.608   2.362
 5694TIP3   OH217087   3.614   1.492   3.374
 5694TIP3    H117088   3.594   1.403   3.403
 5694TIP3    H217089   3.705   1.505   3.399
 5695TIP3   OH217090   5.987   0.707  -0.003
 5695TIP3    H117091   5.918   0.644   0.018
 5695TIP3    H217092   6.001   0.754   0.080
 5696TIP3   OH217093   3.930   0.808   4.499
 5696TIP3    H117094   3.952   0.815   4.592
 5696TIP3    H217095   3.950   0.717   4.476
 5697TIP3   OH217096   2.123   5.345   4.482
 5697TIP3    H117097   2.174   5.284   4.535
 5697TIP3    H217098   2.033   5.315   4.492
 5698TIP3   OH217099   1.604   0.696   3.111
 5698TIP3    H117100   1.633   0.671   3.199
 5698TIP3    H217101   1.655   0.774   3.090
 5699TIP3   OH217102   2.793   1.602   2.733
 5699TIP3    H117103   2.760   1.547   2.804
 5699TIP3    H217104   2.790   1.545   2.655
 5700TIP3   OH217105   1.336   1.784   1.887
 5700TIP3    H117106   1.381   1.853   1.837
 5700TIP3    H217107   1.363   1.799   1.977
 5701TIP3   OH217108   0.544   0.626   0.579
 5701TIP3    H117109   0.636   0.617   0.554
 5701TIP3    H217110   0.495   0.601   0.501
 5702TIP3   OH217111   2.262   4.705   4.264
 5702TIP3    H117112   2.236   4.614   4.276
 5702TIP3    H217113   2.192   4.743   4.210
 5703TIP3   OH217114   3.862   4.138   3.516
 5703TIP3    H117115   3.777   4.100   3.492
 5703TIP3    H217116   3.898   4.169   3.433
 5704TIP3   OH217117   1.310   5.201   1.757
 5704TIP3    H117118   1.399   5.232   1.740
 5704TIP3    H217119   1.256   5.246   1.692
 5705TIP3   OH217120   5.550   1.466   2.732
 5705TIP3    H117121   5.644   1.461   2.747
 5705TIP3    H217122   5.534   1.557   2.707
 5706TIP3   OH217123   4.353   0.422   4.330
 5706TIP3    H117124   4.279   0.382   4.283
 5706TIP3    H217125   4.325   0.423   4.422
 5707TIP3   OH217126   5.456   2.928   2.281
 5707TIP3    H117127   5.470   2.936   2.186
 5707TIP3    H217128   5.478   3.014   2.316
 5708TIP3   OH217129   4.772   4.469   1.693
 5708TIP3    H117130   4.681   4.483   1.663
 5708TIP3    H217131   4.810   4.557   1.694
 5709TIP3   OH217132   0.249   5.524   4.414
 5709TIP3    H117133   0.233   5.617   4.397
 5709TIP3    H217134   0.207   5.507   4.498
 5710TIP3   OH217135   1.451   4.768   4.266
 5710TIP3    H117136   1.494   4.683   4.254
 5710TIP3    H217137   1.502   4.810   4.336
 5711TIP3   OH217138   0.309   4.062   0.372
 5711TIP3    H117139   0.244   4.127   0.400
 5711TIP3    H217140   0.260   3.980   0.365
 5712TIP3   OH217141   0.810   4.785   4.486
 5712TIP3    H117142   0.797   4.813   4.577
 5712TIP3    H217143   0.722   4.766   4.454
 5713TIP3   OH217144   0.225   0.443   2.744
 5713TIP3    H117145   0.291   0.393   2.696
 5713TIP3    H217146   0.247   0.535   2.727
 5714TIP3   OH217147   2.461   4.717   2.606
 5714TIP3    H117148   2.406   4.722   2.528
 5714TIP3    H217149   2.505   4.632   2.599
 5715TIP3   OH217150   0.626   3.101   4.167
 5715TIP3    H117151   0.543   3.118   4.212
 5715TIP3    H217152   0.647   3.184   4.124
 5716TIP3   OH217153   2.239   2.389   2.220
 5716TIP3    H117154   2.162   2.337   2.245
 5716TIP3    H217155   2.272   2.346   2.141
 5717TIP3   OH217156   4.376   4.747   2.905
 5717TIP3    H117157   4.404   4.828   2.862
 5717TIP3    H217158   4.429   4.743   2.985
 5718TIP3   OH217159   1.010   2.920   1.151
 5718TIP3    H117160   1.099   2.916   1.186
 5718TIP3    H217161   0.975   2.832   1.166
 5719TIP3   OH217162   4.093   2.551   3.624
 5719TIP3    H117163   4.085   2.541   3.529
 5719TIP3    H217164   4.146   2.476   3.651
 5720TIP3   OH217165   4.325   1.523   4.001
 5720TIP3    H117166   4.238   1.551   4.031
 5720TIP3    H217167   4.385   1.558   4.066
 5721TIP3   OH217168   1.264   4.957   2.430
 5721TIP3    H117169   1.272   4.891   2.361
 5721TIP3    H217170   1.348   5.003   2.429
 5722TIP3   OH217171   4.123   3.579   4.886
 5722TIP3    H117172   4.090   3.492   4.906
 5722TIP3    H217173   4.186   3.598   4.955
 5723TIP3   OH217174   4.673   2.994   4.604
 5723TIP3    H117175   4.766   2.994   4.584
 5723TIP3    H217176   4.633   2.947   4.531
 5724TIP3   OH217177   5.016   4.375   2.308
 5724TIP3    H117178   5.060   4.433   2.247
 5724TIP3    H217179   4.998   4.295   2.258
 5725TIP3   OH217180   3.750   2.494   2.663
 5725TIP3    H117181   3.829   2.442   2.678
 5725TIP3    H217182   3.679   2.429   2.658
 5726TIP3   OH217183   2.040   5.753   0.476
 5726TIP3    H117184   2.030   5.737   0.383
 5726TIP3    H217185   1.998   5.679   0.519
 5727TIP3   OH217186   2.111   2.481   1.785
 5727TIP3    H117187   2.169   2.507   1.856
 5727TIP3    H217188   2.084   2.392   1.807
 5728TIP3   OH217189   2.280   1.536   1.533
 5728TIP3    H117190   2.205   1.549   1.591
 5728TIP3    H217191   2.342   1.484   1.584
 5729TIP3   OH217192   5.026   2.466   1.788
 5729TIP3    H117193   4.944   2.513   1.803
 5729TIP3    H217194   5.063   2.506   1.709
 5730TIP3   OH217195   0.735   4.417   1.193
 5730TIP3    H117196   0.671   4.364   1.147
 5730TIP3    H217197   0.729   4.387   1.284
 5731TIP3   OH217198   4.123   1.887   1.196
 5731TIP3    H117199   4.052   1.932   1.151
 5731TIP3    H217200   4.106   1.794   1.182
 5732TIP3   OH217201   2.331   1.106   4.939
 5732TIP3    H117202   2.373   1.181   4.980
 5732TIP3    H217203   2.250   1.094   4.987
 5733TIP3   OH217204   5.531   1.428   3.482
 5733TIP3    H117205   5.558   1.339   3.459
 5733TIP3    H217206   5.497   1.464   3.400
 5734TIP3   OH217207   6.231   0.451   0.135
 5734TIP3    H117208   6.259   0.360   0.142
 5734TIP3    H217209   6.297   0.499   0.186
 5735TIP3   OH217210   0.516   0.076   2.514
 5735TIP3    H117211   0.589   0.093   2.573
 5735TIP3    H217212   0.445   0.131   2.548
 5736TIP3   OH217213   1.087   3.646   1.294
 5736TIP3    H117214   1.096   3.696   1.375
 5736TIP3    H217215   1.148   3.573   1.303
 5737TIP3   OH217216   0.024   4.616   5.070
 5737TIP3    H117217   0.090   4.548   5.058
 5737TIP3    H217218   0.048   4.659   5.153
 5738TIP3   OH217219   5.467   4.158   4.875
 5738TIP3    H117220   5.413   4.229   4.839
 5738TIP3    H217221   5.551   4.167   4.830
 5739TIP3   OH217222   2.094   0.111   5.145
 5739TIP3    H117223   2.171   0.055   5.153
 5739TIP3    H217224   2.020   0.053   5.162
 5740TIP3   OH217225   1.137   3.958   4.172
 5740TIP3    H117226   1.108   3.883   4.119
 5740TIP3    H217227   1.185   4.014   4.111
 5741TIP3   OH217228   5.629   4.286   1.469
 5741TIP3    H117229   5.559   4.248   1.416
 5741TIP3    H217230   5.699   4.220   1.468
 5742TIP3   OH217231   0.911   3.327   1.593
 5742TIP3    H117232   0.919   3.414   1.633
 5742TIP3    H217233   0.999   3.307   1.561
 5743TIP3   OH217234   4.904   3.313   4.275
 5743TIP3    H117235   4.821   3.301   4.227
 5743TIP3    H217236   4.946   3.387   4.231
 5744TIP3   OH217237   5.952   5.679   0.497
 5744TIP3    H117238   5.868   5.636   0.515
 5744TIP3    H217239   5.996   5.618   0.437
 5745TIP3   OH217240   0.841   1.343   3.259
 5745TIP3    H117241   0.826   1.354   3.165
 5745TIP3    H217242   0.922   1.291   3.264
 5746TIP3   OH217243   5.474   3.525   2.942
 5746TIP3    H117244   5.451   3.561   2.856
 5746TIP3    H217245   5.497   3.434   2.923
 5747TIP3   OH217246   2.851   1.947   1.241
 5747TIP3    H117247   2.922   1.968   1.301
 5747TIP3    H217248   2.889   1.956   1.154
 5748TIP3   OH217249   2.625   5.155   3.125
 5748TIP3    H117250   2.685   5.093   3.167
 5748TIP3    H217251   2.625   5.129   3.033
 5749TIP3   OH217252   4.752   1.344   1.989
 5749TIP3    H117253   4.831   1.352   2.042
 5749TIP3    H217254   4.740   1.430   1.950
 5750TIP3   OH217255   5.665   5.149   3.582
 5750TIP3    H117256   5.720   5.140   3.660
 5750TIP3    H217257   5.726   5.141   3.509
 5751TIP3   OH217258   0.113   0.301   3.030
 5751TIP3    H117259   0.086   0.220   2.987
 5751TIP3    H217260   0.173   0.342   2.968
 5752TIP3   OH217261   5.115   4.191   3.200
 5752TIP3    H117262   5.059   4.171   3.125
 5752TIP3    H217263   5.062   4.164   3.276
 5753TIP3   OH217264   5.079   4.926   1.380
 5753TIP3    H117265   5.117   4.869   1.313
 5753TIP3    H217266   5.094   4.879   1.462
 5754TIP3   OH217267   1.799   0.105   2.551
 5754TIP3    H117268   1.821   0.123   2.460
 5754TIP3    H217269   1.704   0.115   2.556
 5755TIP3   OH217270   5.887   3.516   1.077
 5755TIP3    H117271   5.904   3.609   1.085
 5755TIP3    H217272   5.958   3.483   1.021
 5756TIP3   OH217273   2.529   1.669   3.909
 5756TIP3    H117274   2.622   1.689   3.918
 5756TIP3    H217275   2.521   1.630   3.822
 5757TIP3   OH217276   3.775   5.621   3.562
 5757TIP3    H117277   3.683   5.633   3.587
 5757TIP3    H217278   3.772   5.573   3.480
 5758TIP3   OH217279   5.791   0.056   3.988
 5758TIP3    H117280   5.864   0.117   3.999
 5758TIP3    H217281   5.741   0.064   4.069
 5759TIP3   OH217282   5.649   5.429   3.916
 5759TIP3    H117283   5.743   5.416   3.931
 5759TIP3    H217284   5.625   5.499   3.976
 5760TIP3   OH217285   2.566   0.761   2.662
 5760TIP3    H117286   2.479   0.750   2.700
 5760TIP3    H217287   2.581   0.855   2.662
 5761TIP3   OH217288   1.730   3.806   3.402
 5761TIP3    H117289   1.677   3.847   3.471
 5761TIP3    H217290   1.702   3.850   3.321
 5762TIP3   OH217291   5.246   0.947   0.432
 5762TIP3    H117292   5.333   0.985   0.441
 5762TIP3    H217293   5.201   0.971   0.513
 5763TIP3   OH217294   2.875   4.114   1.393
 5763TIP3    H117295   2.957   4.065   1.397
 5763TIP3    H217296   2.900   4.200   1.359
 5764TIP3   OH217297   0.727   1.499   3.637
 5764TIP3    H117298   0.785   1.528   3.708
 5764TIP3    H217299   0.767   1.536   3.558
 5765TIP3   OH217300   4.182   1.685   3.002
 5765TIP3    H117301   4.130   1.617   2.959
 5765TIP3    H217302   4.172   1.762   2.946
 5766TIP3   OH217303   5.362   5.521   2.932
 5766TIP3    H117304   5.329   5.465   3.002
 5766TIP3    H217305   5.400   5.595   2.977
 5767TIP3   OH217306   5.358   3.717   3.336
 5767TIP3    H117307   5.451   3.727   3.314
 5767TIP3    H217308   5.314   3.781   3.280
 5768TIP3   OH217309   1.250   5.571   2.726
 5768TIP3    H117310   1.159   5.561   2.700
 5768TIP3    H217311   1.247   5.624   2.806
 5769TIP3   OH217312   4.245   2.256   1.783
 5769TIP3    H117313   4.280   2.228   1.698
 5769TIP3    H217314   4.322   2.282   1.834
 5770TIP3   OH217315   6.119   2.335   4.189
 5770TIP3    H117316   6.166   2.268   4.239
 5770TIP3    H217317   6.027   2.312   4.198
 5771TIP3   OH217318   4.625   4.795   4.200
 5771TIP3    H117319   4.588   4.883   4.203
 5771TIP3    H217320   4.596   4.755   4.282
 5772TIP3   OH217321   1.244   0.151   2.725
 5772TIP3    H117322   1.201   0.200   2.795
 5772TIP3    H217323   1.212   0.190   2.644
 5773TIP3   OH217324   2.552   5.610   4.992
 5773TIP3    H117325   2.615   5.552   5.036
 5773TIP3    H217326   2.575   5.698   5.024
 5774TIP3   OH217327   4.758   0.123   5.116
 5774TIP3    H117328   4.798   0.202   5.153
 5774TIP3    H217329   4.664   0.141   5.118
 5775TIP3   OH217330   0.239   1.852   2.482
 5775TIP3    H117331   0.161   1.797   2.487
 5775TIP3    H217332   0.238   1.903   2.563
 5776TIP3   OH217333   0.159   2.472   0.513
 5776TIP3    H117334   0.186   2.523   0.590
 5776TIP3    H217335   0.082   2.518   0.481
 5777TIP3   OH217336   1.861   4.610   3.018
 5777TIP3    H117337   1.933   4.641   3.073
 5777TIP3    H217338   1.881   4.645   2.931
 5778TIP3   OH217339   3.319   4.981   1.391
 5778TIP3    H117340   3.261   5.051   1.361
 5778TIP3    H217341   3.402   4.998   1.347
 5779TIP3   OH217342   5.390   0.549   2.443
 5779TIP3    H117343   5.304   0.588   2.429
 5779TIP3    H217344   5.444   0.582   2.370
 5780TIP3   OH217345   0.661   3.714   2.836
 5780TIP3    H117346   0.605   3.782   2.800
 5780TIP3    H217347   0.614   3.683   2.914
 5781TIP3   OH217348   3.040   2.719   3.399
 5781TIP3    H117349   3.093   2.755   3.471
 5781TIP3    H217350   3.104   2.675   3.342
 5782TIP3   OH217351   4.879   2.918   4.888
 5782TIP3    H117352   4.785   2.904   4.873
 5782TIP3    H217353   4.891   3.012   4.876
 5783TIP3   OH217354   3.892   0.785   4.023
 5783TIP3    H117355   3.958   0.836   4.070
 5783TIP3    H217356   3.868   0.839   3.948
 5784TIP3   OH217357   1.203   2.138   2.097
 5784TIP3    H117358   1.232   2.123   2.187
 5784TIP3    H217359   1.232   2.227   2.077
 5785TIP3   OH217360   3.688   5.530   2.657
 5785TIP3    H117361   3.686   5.484   2.572
 5785TIP3    H217362   3.729   5.614   2.637
 5786TIP3   OH217363   6.088   0.694   0.568
 5786TIP3    H117364   6.132   0.619   0.528
 5786TIP3    H217365   6.018   0.655   0.621
 5787TIP3   OH217366   2.633   2.292   1.615
 5787TIP3    H117367   2.699   2.346   1.572
 5787TIP3    H217368   2.678   2.209   1.631
 5788TIP3   OH217369   5.535   3.068   0.098
 5788TIP3    H117370   5.502   2.989   0.141
 5788TIP3    H217371   5.626   3.074   0.125
 5789TIP3   OH217372   6.055   1.149   1.981
 5789TIP3    H117373   6.068   1.072   1.925
 5789TIP3    H217374   6.006   1.116   2.056
 5790TIP3   OH217375   0.142   5.514   1.111
 5790TIP3    H117376   0.132   5.598   1.156
 5790TIP3    H217377   0.079   5.518   1.039
 5791TIP3   OH217378   0.712   4.167   4.670
 5791TIP3    H117379   0.682   4.079   4.692
 5791TIP3    H217380   0.752   4.158   4.583
 5792TIP3   OH217381   3.980   0.288   2.091
 5792TIP3    H117382   3.962   0.254   2.178
 5792TIP3    H217383   4.072   0.315   2.094
 5793TIP3   OH217384   5.085   0.066   1.936
 5793TIP3    H117385   5.120   0.150   1.909
 5793TIP3    H217386   5.027   0.039   1.865
 5794TIP3   OH217387   5.957   4.488   0.497
 5794TIP3    H117388   5.864   4.507   0.509
 5794TIP3    H217389   5.998   4.573   0.481
 5795TIP3   OH217390   2.737   2.654   4.600
 5795TIP3    H117391   2.791   2.584   4.636
 5795TIP3    H217392   2.656   2.650   4.652
 5796TIP3   OH217393   2.396   0.251   3.564
 5796TIP3    H117394   2.482   0.262   3.604
 5796TIP3    H217395   2.411   0.187   3.494
 5797TIP3   OH217396   3.831   2.371   3.208
 5797TIP3    H117397   3.780   2.433   3.260
 5797TIP3    H217398   3.902   2.423   3.170
 5798TIP3   OH217399   5.265   5.141   3.770
 5798TIP3    H117400   5.192   5.125   3.831
 5798TIP3    H217401   5.342   5.150   3.826
 5799TIP3   OH217402   5.119   5.816   5.078
 5799TIP3    H117403   5.093   5.898   5.121
 5799TIP3    H217404   5.196   5.787   5.126
 5800TIP3   OH217405   0.126   5.846   5.142
 5800TIP3    H117406   0.068   5.772   5.159
 5800TIP3    H217407   0.155   5.833   5.051
 5801TIP3   OH217408   4.115   3.969   4.337
 5801TIP3    H117409   4.025   3.986   4.362
 5801TIP3    H217410   4.140   4.046   4.285
 5802TIP3   OH217411   2.038   0.309   0.281
 5802TIP3    H117412   2.015   0.222   0.248
 5802TIP3    H217413   2.005   0.309   0.371
 5803TIP3   OH217414   2.539   2.617   1.947
 5803TIP3    H117415   2.491   2.699   1.950
 5803TIP3    H217416   2.587   2.615   2.030
 5804TIP3   OH217417   4.739   4.107   1.374
 5804TIP3    H117418   4.799   4.169   1.332
 5804TIP3    H217419   4.663   4.160   1.397
 5805TIP3   OH217420   2.626   5.413   3.171
 5805TIP3    H117421   2.570   5.430   3.095
 5805TIP3    H217422   2.634   5.318   3.174
 5806TIP3   OH217423   3.799   4.650   1.412
 5806TIP3    H117424   3.875   4.619   1.363
 5806TIP3    H217425   3.725   4.630   1.354
 5807TIP3   OH217426   0.732   0.276   4.846
 5807TIP3    H117427   0.650   0.324   4.837
 5807TIP3    H217428   0.799   0.343   4.852
 5808TIP3   OH217429   5.366   5.603   3.597
 5808TIP3    H117430   5.402   5.520   3.627
 5808TIP3    H217431   5.284   5.612   3.645
 5809TIP3   OH217432   5.652   1.656   0.863
 5809TIP3    H117433   5.582   1.720   0.854
 5809TIP3    H217434   5.615   1.574   0.829
 5810TIP3   OH217435   5.362   0.130   1.639
 5810TIP3    H117436   5.367   0.095   1.550
 5810TIP3    H217437   5.346   0.053   1.694
 5811TIP3   OH217438   0.555   5.897   4.346
 5811TIP3    H117439   0.546   5.837   4.421
 5811TIP3    H217440   0.494   5.968   4.366
 5812TIP3   OH217441   4.451   3.217   0.716
 5812TIP3    H117442   4.366   3.175   0.708
 5812TIP3    H217443   4.505   3.154   0.764
 5813TIP3   OH217444   5.255   3.757   4.021
 5813TIP3    H117445   5.281   3.809   4.098
 5813TIP3    H217446   5.285   3.668   4.041
 5814TIP3   OH217447   1.618   0.837   4.564
 5814TIP3    H117448   1.557   0.899   4.604
 5814TIP3    H217449   1.700   0.887   4.555
 5815TIP3   OH217450   3.523   2.808   1.984
 5815TIP3    H117451   3.509   2.859   2.064
 5815TIP3    H217452   3.616   2.787   1.984
 5816TIP3   OH217453   2.098   2.801   5.127
 5816TIP3    H117454   2.088   2.787   5.222
 5816TIP3    H217455   2.158   2.875   5.120
 5817TIP3   OH217456   4.309   2.843   3.660
 5817TIP3    H117457   4.366   2.916   3.684
 5817TIP3    H217458   4.293   2.797   3.743
 5818TIP3   OH217459   0.409   0.271   1.090
 5818TIP3    H117460   0.378   0.362   1.092
 5818TIP3    H217461   0.335   0.220   1.123
 5819TIP3   OH217462   3.842   0.031   1.556
 5819TIP3    H117463   3.816   0.117   1.588
 5819TIP3    H217464   3.932   0.020   1.586
 5820TIP3   OH217465   2.995   2.214   3.690
 5820TIP3    H117466   2.961   2.271   3.759
 5820TIP3    H217467   3.013   2.272   3.617
 5821TIP3   OH217468   4.902   5.614   5.002
 5821TIP3    H117469   4.984   5.618   5.050
 5821TIP3    H217470   4.836   5.644   5.064
 5822TIP3   OH217471   6.143   5.469   3.188
 5822TIP3    H117472   6.049   5.457   3.180
 5822TIP3    H217473   6.181   5.384   3.166
 5823TIP3   OH217474   6.213   3.519   4.327
 5823TIP3    H117475   6.171   3.433   4.331
 5823TIP3    H217476   6.149   3.575   4.284
 5824TIP3   OH217477   1.832   3.680   0.736
 5824TIP3    H117478   1.745   3.641   0.738
 5824TIP3    H217479   1.855   3.691   0.828
 5825TIP3   OH217480   6.235   4.711   0.203
 5825TIP3    H117481   6.311   4.695   0.146
 5825TIP3    H217482   6.170   4.648   0.173
 5826TIP3   OH217483   2.781   3.096   1.090
 5826TIP3    H117484   2.763   3.019   1.144
 5826TIP3    H217485   2.875   3.113   1.103
 5827TIP3   OH217486   5.338   2.040   2.452
 5827TIP3    H117487   5.312   1.949   2.437
 5827TIP3    H217488   5.262   2.079   2.496
 5828TIP3   OH217489   4.528   1.340   4.395
 5828TIP3    H117490   4.578   1.261   4.414
 5828TIP3    H217491   4.567   1.407   4.452
 5829TIP3   OH217492   2.830   0.686   2.728
 5829TIP3    H117493   2.818   0.595   2.755
 5829TIP3    H217494   2.742   0.717   2.708
 5830TIP3   OH217495   5.065   3.377   2.179
 5830TIP3    H117496   5.130   3.309   2.198
 5830TIP3    H217497   4.992   3.356   2.237
 5831TIP3   OH217498   1.470   3.452   2.449
 5831TIP3    H117499   1.497   3.440   2.359
 5831TIP3    H217500   1.374   3.447   2.447
 5832TIP3   OH217501   3.189   5.667   3.728
 5832TIP3    H117502   3.172   5.758   3.703
 5832TIP3    H217503   3.149   5.659   3.815
 5833TIP3   OH217504   4.177   2.045   0.876
 5833TIP3    H117505   4.229   2.123   0.857
 5833TIP3    H217506   4.095   2.080   0.913
 5834TIP3   OH217507   2.393   1.625   4.536
 5834TIP3    H117508   2.360   1.712   4.558
 5834TIP3    H217509   2.369   1.612   4.444
 5835TIP3   OH217510   6.213   1.844   1.019
 5835TIP3    H117511   6.125   1.817   0.992
 5835TIP3    H217512   6.200   1.882   1.106
 5836TIP3   OH217513   0.755   4.796   2.489
 5836TIP3    H117514   0.695   4.832   2.424
 5836TIP3    H217515   0.842   4.809   2.451
 5837TIP3   OH217516   1.359   1.495   2.326
 5837TIP3    H117517   1.330   1.432   2.392
 5837TIP3    H217518   1.449   1.468   2.305
 5838TIP3   OH217519   1.182   1.671   4.225
 5838TIP3    H117520   1.252   1.622   4.181
 5838TIP3    H217521   1.194   1.651   4.318
 5839TIP3   OH217522   2.991   0.637   0.149
 5839TIP3    H117523   2.908   0.646   0.102
 5839TIP3    H217524   3.002   0.720   0.195
 5840TIP3   OH217525   1.155   5.559   0.173
 5840TIP3    H117526   1.112   5.592   0.251
 5840TIP3    H217527   1.129   5.618   0.103
 5841TIP3   OH217528   5.753   4.487   4.731
 5841TIP3    H117529   5.757   4.570   4.684
 5841TIP3    H217530   5.660   4.470   4.742
 5842TIP3   OH217531   3.149   5.761   3.110
 5842TIP3    H117532   3.119   5.673   3.088
 5842TIP3    H217533   3.115   5.776   3.198
 5843TIP3   OH217534   5.318   5.060   4.491
 5843TIP3    H117535   5.295   5.136   4.543
 5843TIP3    H217536   5.324   5.093   4.401
 5844TIP3   OH217537   2.486   5.349   3.739
 5844TIP3    H117538   2.560   5.368   3.796
 5844TIP3    H217539   2.504   5.398   3.658
 5845TIP3   OH217540   0.869   5.454   0.410
 5845TIP3    H117541   0.898   5.365   0.433
 5845TIP3    H217542   0.949   5.506   0.410
 5846TIP3   OH217543   3.119   1.410   1.475
 5846TIP3    H117544   3.097   1.400   1.383
 5846TIP3    H217545   3.072   1.340   1.520
 5847TIP3   OH217546   5.964   5.922   0.924
 5847TIP3    H117547   5.957   6.018   0.918
 5847TIP3    H217548   6.033   5.900   0.862
 5848TIP3   OH217549   4.969   3.209   1.944
 5848TIP3    H117550   4.913   3.286   1.928
 5848TIP3    H217551   5.044   3.223   1.886
 5849TIP3   OH217552   3.050   2.035   3.942
 5849TIP3    H117553   3.012   2.075   3.863
 5849TIP3    H217554   2.977   2.025   4.002
 5850TIP3   OH217555   4.160   0.414   0.258
 5850TIP3    H117556   4.253   0.394   0.250
 5850TIP3    H217557   4.144   0.415   0.352
 5851TIP3   OH217558   0.848   5.401   1.797
 5851TIP3    H117559   0.834   5.484   1.752
 5851TIP3    H217560   0.765   5.353   1.787
 5852TIP3   OH217561   1.261   1.357   2.571
 5852TIP3    H117562   1.238   1.281   2.623
 5852TIP3    H217563   1.264   1.429   2.634
 5853TIP3   OH217564   0.538   4.870   3.692
 5853TIP3    H117565   0.595   4.868   3.615
 5853TIP3    H217566   0.526   4.963   3.711
 5854TIP3   OH217567   1.650   3.274   4.544
 5854TIP3    H117568   1.698   3.194   4.523
 5854TIP3    H217569   1.699   3.344   4.502
 5855TIP3   OH217570   5.165   2.862   3.216
 5855TIP3    H117571   5.143   2.777   3.178
 5855TIP3    H217572   5.220   2.904   3.150
 5856TIP3   OH217573   4.195   1.538   0.497
 5856TIP3    H117574   4.157   1.581   0.575
 5856TIP3    H217575   4.162   1.448   0.501
 5857TIP3   OH217576   2.706   4.319   3.761
 5857TIP3    H117577   2.708   4.267   3.842
 5857TIP3    H217578   2.724   4.409   3.791
 5858TIP3   OH217579   4.840   5.367   4.744
 5858TIP3    H117580   4.895   5.439   4.713
 5858TIP3    H217581   4.781   5.408   4.807
 5859TIP3   OH217582   2.355   1.131   4.378
 5859TIP3    H117583   2.347   1.046   4.422
 5859TIP3    H217584   2.287   1.185   4.419
 5860TIP3   OH217585   5.088   3.399   3.926
 5860TIP3    H117586   5.139   3.460   3.872
 5860TIP3    H217587   5.066   3.327   3.867
 5861TIP3   OH217588   3.815   2.227   5.161
 5861TIP3    H117589   3.792   2.154   5.103
 5861TIP3    H217590   3.910   2.235   5.153
 5862TIP3   OH217591   5.367   1.078   1.363
 5862TIP3    H117592   5.309   1.049   1.434
 5862TIP3    H217593   5.402   0.997   1.326
 5863TIP3   OH217594   2.240   2.950   0.628
 5863TIP3    H117595   2.198   2.898   0.696
 5863TIP3    H217596   2.204   2.917   0.546
 5864TIP3   OH217597   6.287   3.175   2.093
 5864TIP3    H117598   6.331   3.104   2.047
 5864TIP3    H217599   6.200   3.179   2.055
 5865TIP3   OH217600   6.287   2.664   0.731
 5865TIP3    H117601   6.323   2.690   0.647
 5865TIP3    H217602   6.294   2.569   0.732
 5866TIP3   OH217603   5.744   2.603   4.959
 5866TIP3    H117604   5.674   2.544   4.932
 5866TIP3    H217605   5.824   2.551   4.956
 5867TIP3   OH217606   2.384   0.606   4.310
 5867TIP3    H117607   2.394   0.694   4.273
 5867TIP3    H217608   2.466   0.590   4.356
 5868TIP3   OH217609   4.769   3.178   3.070
 5868TIP3    H117610   4.756   3.177   3.165
 5868TIP3    H217611   4.806   3.091   3.051
 5869TIP3   OH217612   1.115   1.204   0.848
 5869TIP3    H117613   1.141   1.145   0.777
 5869TIP3    H217614   1.186   1.268   0.853
 5870TIP3   OH217615   0.279   3.030   4.712
 5870TIP3    H117616   0.310   2.956   4.764
 5870TIP3    H217617   0.337   3.033   4.636
 5871TIP3   OH217618   1.560   0.201   4.051
 5871TIP3    H117619   1.492   0.137   4.032
 5871TIP3    H217620   1.597   0.223   3.966
 5872TIP3   OH217621   4.449   2.448   0.666
 5872TIP3    H117622   4.471   2.511   0.597
 5872TIP3    H217623   4.533   2.409   0.690
 5873TIP3   OH217624   3.289   5.125   4.185
 5873TIP3    H117625   3.368   5.096   4.232
 5873TIP3    H217626   3.245   5.183   4.246
 5874TIP3   OH217627   6.186   3.673   2.499
 5874TIP3    H117628   6.192   3.637   2.411
 5874TIP3    H217629   6.151   3.761   2.487
 5875TIP3   OH217630   1.652   1.616   1.544
 5875TIP3    H117631   1.627   1.616   1.637
 5875TIP3    H217632   1.747   1.628   1.544
 5876TIP3   OH217633   4.804   3.322   4.563
 5876TIP3    H117634   4.850   3.346   4.482
 5876TIP3    H217635   4.712   3.316   4.537
 5877TIP3   OH217636   5.467   4.937   2.884
 5877TIP3    H117637   5.520   4.872   2.839
 5877TIP3    H217638   5.529   4.983   2.941
 5878TIP3   OH217639   0.741   4.359   1.458
 5878TIP3    H117640   0.770   4.355   1.550
 5878TIP3    H217641   0.665   4.301   1.455
 5879TIP3   OH217642   3.142   1.602   4.950
 5879TIP3    H117643   3.206   1.628   5.016
 5879TIP3    H217644   3.068   1.661   4.965
 5880TIP3   OH217645   1.478   1.352   5.096
 5880TIP3    H117646   1.514   1.420   5.039
 5880TIP3    H217647   1.393   1.387   5.123
 5881TIP3   OH217648   1.720   4.892   1.321
 5881TIP3    H117649   1.695   4.967   1.375
 5881TIP3    H217650   1.645   4.833   1.328
 5882TIP3   OH217651   5.159   5.474   1.910
 5882TIP3    H117652   5.195   5.532   1.843
 5882TIP3    H217653   5.225   5.405   1.920
 5883TIP3   OH217654   1.513   3.402   3.508
 5883TIP3    H117655   1.482   3.486   3.473
 5883TIP3    H217656   1.598   3.422   3.547
 5884TIP3   OH217657   5.779   2.982   0.994
 5884TIP3    H117658   5.847   2.915   0.992
 5884TIP3    H217659   5.827   3.065   0.996
 5885TIP3   OH217660   3.417   5.692   4.242
 5885TIP3    H117661   3.506   5.727   4.237
 5885TIP3    H217662   3.412   5.651   4.328
 5886TIP3   OH217663   3.133   2.993   2.319
 5886TIP3    H117664   3.173   3.059   2.376
 5886TIP3    H217665   3.207   2.942   2.287
 5887TIP3   OH217666   4.323   2.958   1.034
 5887TIP3    H117667   4.318   2.866   1.007
 5887TIP3    H217668   4.380   2.957   1.111
 5888TIP3   OH217669   1.785   3.919   3.162
 5888TIP3    H117670   1.769   4.000   3.114
 5888TIP3    H217671   1.878   3.922   3.185
 5889TIP3   OH217672   1.549   5.783   4.675
 5889TIP3    H117673   1.618   5.844   4.704
 5889TIP3    H217674   1.473   5.806   4.727
 5890TIP3   OH217675   4.842   5.954   1.332
 5890TIP3    H117676   4.877   6.030   1.379
 5890TIP3    H217677   4.889   5.879   1.369
 5891TIP3   OH217678   4.352   5.228   3.484
 5891TIP3    H117679   4.399   5.257   3.406
 5891TIP3    H217680   4.268   5.195   3.450
 5892TIP3   OH217681   1.323   1.826   1.561
 5892TIP3    H117682   1.236   1.805   1.594
 5892TIP3    H217683   1.338   1.763   1.491
 5893TIP3   OH217684   4.168   5.513   4.536
 5893TIP3    H117685   4.150   5.481   4.447
 5893TIP3    H217686   4.200   5.602   4.524
 5894TIP3   OH217687   3.425   3.145   1.932
 5894TIP3    H117688   3.418   3.053   1.907
 5894TIP3    H217689   3.335   3.173   1.947
 5895TIP3   OH217690   4.756   4.410   2.293
 5895TIP3    H117691   4.850   4.425   2.304
 5895TIP3    H217692   4.741   4.421   2.199
 5896TIP3   OH217693   1.747   5.694   5.138
 5896TIP3    H117694   1.779   5.689   5.048
 5896TIP3    H217695   1.655   5.719   5.129
 5897TIP3   OH217696   2.154   2.881   1.605
 5897TIP3    H117697   2.064   2.908   1.586
 5897TIP3    H217698   2.188   2.849   1.521
 5898TIP3   OH217699   4.137   4.313   1.967
 5898TIP3    H117700   4.143   4.218   1.974
 5898TIP3    H217701   4.174   4.345   2.049
 5899TIP3   OH217702   6.100   3.039   1.576
 5899TIP3    H117703   6.020   3.072   1.536
 5899TIP3    H217704   6.155   3.116   1.587
 5900TIP3   OH217705   1.127   2.600   3.091
 5900TIP3    H117706   1.182   2.546   3.148
 5900TIP3    H217707   1.087   2.538   3.030
 5901TIP3   OH217708   0.434   1.522   0.703
 5901TIP3    H117709   0.500   1.519   0.773
 5901TIP3    H217710   0.483   1.553   0.626
 5902TIP3   OH217711   3.865   1.037   3.908
 5902TIP3    H117712   3.862   1.125   3.945
 5902TIP3    H217713   3.784   1.029   3.858
 5903TIP3   OH217714   5.153   2.483   3.964
 5903TIP3    H117715   5.180   2.502   3.874
 5903TIP3    H217716   5.143   2.569   4.004
 5904TIP3   OH217717   4.015   5.632   5.196
 5904TIP3    H117718   3.968   5.709   5.165
 5904TIP3    H217719   3.965   5.558   5.163
 5905TIP3   OH217720   3.709   5.365   3.066
 5905TIP3    H117721   3.789   5.340   3.111
 5905TIP3    H217722   3.718   5.328   2.978
 5906TIP3   OH217723   5.288   3.913   4.252
 5906TIP3    H117724   5.355   3.967   4.295
 5906TIP3    H217725   5.242   3.870   4.324
 5907TIP3   OH217726   3.140   3.905   2.957
 5907TIP3    H117727   3.153   4.000   2.963
 5907TIP3    H217728   3.216   3.867   3.001
 5908TIP3   OH217729   2.752   1.336   3.719
 5908TIP3    H117730   2.748   1.356   3.813
 5908TIP3    H217731   2.691   1.262   3.708
 5909TIP3   OH217732   0.728   1.097   5.028
 5909TIP3    H117733   0.741   1.094   5.123
 5909TIP3    H217734   0.797   1.155   4.996
 5910TIP3   OH217735   0.697   3.585   4.567
 5910TIP3    H117736   0.631   3.602   4.635
 5910TIP3    H217737   0.685   3.493   4.545
 5911TIP3   OH217738   1.733   1.415   3.837
 5911TIP3    H117739   1.642   1.409   3.805
 5911TIP3    H217740   1.774   1.478   3.778
 5912TIP3   OH217741   4.802   2.846   1.497
 5912TIP3    H117742   4.717   2.803   1.507
 5912TIP3    H217743   4.832   2.820   1.410
 5913TIP3   OH217744   1.182   4.469   0.405
 5913TIP3    H117745   1.174   4.538   0.340
 5913TIP3    H217746   1.110   4.484   0.466
 5914TIP3   OH217747   2.632   3.998   0.764
 5914TIP3    H117748   2.538   3.978   0.760
 5914TIP3    H217749   2.645   4.032   0.852
 5915TIP3   OH217750   4.216   0.893   2.841
 5915TIP3    H117751   4.146   0.901   2.776
 5915TIP3    H217752   4.244   0.983   2.858
 5916TIP3   OH217753   4.979   2.332   4.867
 5916TIP3    H117754   4.954   2.351   4.776
 5916TIP3    H217755   4.922   2.388   4.920
 5917TIP3   OH217756   0.135   4.419   3.231
 5917TIP3    H117757   0.080   4.411   3.309
 5917TIP3    H217758   0.202   4.484   3.256
 5918TIP3   OH217759   1.220   1.533   2.771
 5918TIP3    H117760   1.155   1.597   2.742
 5918TIP3    H217761   1.170   1.467   2.819
 5919TIP3   OH217762   4.547   1.115   1.921
 5919TIP3    H117763   4.598   1.065   1.857
 5919TIP3    H217764   4.584   1.203   1.919
 5920TIP3   OH217765   3.039   1.212   3.645
 5920TIP3    H117766   3.017   1.278   3.710
 5920TIP3    H217767   2.964   1.152   3.646
 5921TIP3   OH217768   2.855   0.990   3.723
 5921TIP3    H117769   2.927   0.938   3.687
 5921TIP3    H217770   2.808   0.930   3.781
 5922TIP3   OH217771   3.847   3.567   0.328
 5922TIP3    H117772   3.888   3.583   0.243
 5922TIP3    H217773   3.759   3.604   0.319
 5923TIP3   OH217774   0.333   2.303   1.606
 5923TIP3    H117775   0.296   2.220   1.636
 5923TIP3    H217776   0.257   2.355   1.581
 5924TIP3   OH217777   1.719   4.233   4.264
 5924TIP3    H117778   1.724   4.208   4.171
 5924TIP3    H217779   1.654   4.173   4.301
 5925TIP3   OH217780   4.928   4.516   0.712
 5925TIP3    H117781   4.848   4.510   0.660
 5925TIP3    H217782   4.942   4.610   0.724
 5926TIP3   OH217783   6.335   1.493   2.195
 5926TIP3    H117784   6.259   1.472   2.140
 5926TIP3    H217785   6.389   1.414   2.192
 5927TIP3   OH217786   5.630   5.263   5.168
 5927TIP3    H117787   5.647   5.196   5.103
 5927TIP3    H217788   5.618   5.344   5.118
 5928TIP3   OH217789   4.974   5.686   0.529
 5928TIP3    H117790   4.982   5.744   0.605
 5928TIP3    H217791   5.031   5.727   0.463
 5929TIP3   OH217792   0.088   2.892   2.639
 5929TIP3    H117793   0.127   2.871   2.724
 5929TIP3    H217794   0.100   2.813   2.586
 5930TIP3   OH217795   5.434   5.703   0.972
 5930TIP3    H117796   5.427   5.781   0.918
 5930TIP3    H217797   5.528   5.686   0.978
 5931TIP3   OH217798   1.695   3.154   1.423
 5931TIP3    H117799   1.740   3.179   1.504
 5931TIP3    H217800   1.643   3.077   1.447
 5932TIP3   OH217801   3.043   1.333   0.961
 5932TIP3    H117802   3.049   1.288   0.877
 5932TIP3    H217803   3.021   1.424   0.938
 5933TIP3   OH217804   0.790   5.648   1.417
 5933TIP3    H117805   0.737   5.652   1.497
 5933TIP3    H217806   0.881   5.649   1.449
 5934TIP3   OH217807   3.991   1.919   2.441
 5934TIP3    H117808   4.067   1.969   2.412
 5934TIP3    H217809   4.023   1.865   2.513
 5935TIP3   OH217810   3.164   3.165   2.089
 5935TIP3    H117811   3.129   3.252   2.109
 5935TIP3    H217812   3.131   3.110   2.161
 5936TIP3   OH217813   3.766   4.827   1.952
 5936TIP3    H117814   3.676   4.858   1.966
 5936TIP3    H217815   3.761   4.774   1.872
 5937TIP3   OH217816   1.974   4.917   0.305
 5937TIP3    H117817   1.881   4.894   0.312
 5937TIP3    H217818   1.975   4.998   0.254
 5938TIP3   OH217819   4.928   2.243   3.694
 5938TIP3    H117820   4.907   2.155   3.726
 5938TIP3    H217821   5.002   2.230   3.635
 5939TIP3   OH217822   5.698   5.736   0.243
 5939TIP3    H117823   5.652   5.807   0.198
 5939TIP3    H217824   5.629   5.689   0.290
 5940TIP3   OH217825   5.384   0.801   4.575
 5940TIP3    H117826   5.408   0.864   4.643
 5940TIP3    H217827   5.432   0.722   4.598
 5941TIP3   OH217828   6.073   3.569   3.068
 5941TIP3    H117829   6.168   3.555   3.072
 5941TIP3    H217830   6.043   3.511   2.998
 5942TIP3   OH217831   5.379   0.694   0.450
 5942TIP3    H117832   5.302   0.748   0.467
 5942TIP3    H217833   5.409   0.720   0.363
 5943TIP3   OH217834   3.879   5.358   0.750
 5943TIP3    H117835   3.818   5.432   0.743
 5943TIP3    H217836   3.959   5.388   0.707
 5944TIP3   OH217837   1.284   3.871   3.147
 5944TIP3    H117838   1.247   3.896   3.062
 5944TIP3    H217839   1.284   3.775   3.145
 5945TIP3   OH217840   2.696   0.637   0.196
 5945TIP3    H117841   2.728   0.663   0.283
 5945TIP3    H217842   2.618   0.585   0.214
 5946TIP3   OH217843   5.845   0.290   1.475
 5946TIP3    H117844   5.878   0.207   1.441
 5946TIP3    H217845   5.763   0.305   1.427
 5947TIP3   OH217846   3.963   3.945   2.654
 5947TIP3    H117847   3.975   3.994   2.736
 5947TIP3    H217848   4.049   3.946   2.613
 5948TIP3   OH217849   2.375   0.463   2.134
 5948TIP3    H117850   2.422   0.494   2.210
 5948TIP3    H217851   2.443   0.433   2.073
 5949TIP3   OH217852   5.020   2.803   2.120
 5949TIP3    H117853   4.925   2.804   2.109
 5949TIP3    H217854   5.036   2.738   2.189
 5950TIP3   OH217855   4.813   5.288   1.607
 5950TIP3    H117856   4.839   5.229   1.536
 5950TIP3    H217857   4.807   5.374   1.565
 5951TIP3   OH217858   4.014   0.507   1.371
 5951TIP3    H117859   4.108   0.493   1.384
 5951TIP3    H217860   3.993   0.579   1.431
 5952TIP3   OH217861   4.205   3.581   1.246
 5952TIP3    H117862   4.171   3.582   1.157
 5952TIP3    H217863   4.225   3.672   1.266
 5953TIP3   OH217864   1.362   0.481   2.813
 5953TIP3    H117865   1.273   0.515   2.826
 5953TIP3    H217866   1.375   0.485   2.718
 5954TIP3   OH217867   1.074   0.544   4.600
 5954TIP3    H117868   0.999   0.556   4.541
 5954TIP3    H217869   1.053   0.597   4.677
 5955TIP3   OH217870   5.262   5.703   1.226
 5955TIP3    H117871   5.183   5.655   1.202
 5955TIP3    H217872   5.313   5.706   1.145
 5956TIP3   OH217873   3.406   3.690   0.653
 5956TIP3    H117874   3.366   3.612   0.690
 5956TIP3    H217875   3.338   3.757   0.660
 5957TIP3   OH217876   3.171   1.273   4.791
 5957TIP3    H117877   3.096   1.327   4.768
 5957TIP3    H217878   3.232   1.285   4.718
 5958TIP3   OH217879   2.681   0.223   4.845
 5958TIP3    H117880   2.708   0.201   4.756
 5958TIP3    H217881   2.762   0.251   4.888
 5959TIP3   OH217882   0.768   5.612   2.112
 5959TIP3    H117883   0.739   5.642   2.026
 5959TIP3    H217884   0.717   5.664   2.174
 5960TIP3   OH217885   0.388   1.921   1.362
 5960TIP3    H117886   0.307   1.973   1.358
 5960TIP3    H217887   0.408   1.914   1.455
 5961TIP3   OH217888   3.150   2.081   0.788
 5961TIP3    H117889   3.186   1.997   0.816
 5961TIP3    H217890   3.084   2.102   0.854
 5962TIP3   OH217891   0.409   1.959   2.716
 5962TIP3    H117892   0.452   1.962   2.630
 5962TIP3    H217893   0.456   1.890   2.763
 5963TIP3   OH217894   5.767   3.478   2.752
 5963TIP3    H117895   5.752   3.564   2.792
 5963TIP3    H217896   5.809   3.426   2.821
 5964TIP3   OH217897   3.274   5.906   4.065
 5964TIP3    H117898   3.304   5.988   4.104
 5964TIP3    H217899   3.186   5.925   4.033
 5965TIP3   OH217900   3.538   2.974   3.284
 5965TIP3    H117901   3.587   3.009   3.210
 5965TIP3    H217902   3.446   2.991   3.263
 5966TIP3   OH217903   4.843   0.868   2.152
 5966TIP3    H117904   4.917   0.825   2.108
 5966TIP3    H217905   4.884   0.920   2.221
 5967TIP3   OH217906   0.931   5.347   5.115
 5967TIP3    H117907   0.958   5.273   5.061
 5967TIP3    H217908   1.006   5.362   5.173
 5968TIP3   OH217909   6.072   0.022   3.874
 5968TIP3    H117910   6.144  -0.039   3.857
 5968TIP3    H217911   6.037   0.044   3.787
 5969TIP3   OH217912   0.201   1.276   4.128
 5969TIP3    H117913   0.139   1.328   4.179
 5969TIP3    H217914   0.170   1.185   4.138
 5970TIP3   OH217915   5.208   5.821   3.226
 5970TIP3    H117916   5.291   5.803   3.270
 5970TIP3    H217917   5.174   5.735   3.201
 5971TIP3   OH217918   0.514   2.256   4.287
 5971TIP3    H117919   0.530   2.288   4.376
 5971TIP3    H217920   0.560   2.172   4.284
 5972TIP3   OH217921   1.863   4.943   3.883
 5972TIP3    H117922   1.775   4.980   3.885
 5972TIP3    H217923   1.917   5.007   3.930
 5973TIP3   OH217924   0.438   0.862   4.594
 5973TIP3    H117925   0.503   0.810   4.642
 5973TIP3    H217926   0.414   0.932   4.656
 5974TIP3   OH217927   4.056   0.513   1.831
 5974TIP3    H117928   4.097   0.454   1.767
 5974TIP3    H217929   4.102   0.495   1.913
 5975TIP3   OH217930   2.211   2.594   3.744
 5975TIP3    H117931   2.193   2.507   3.709
 5975TIP3    H217932   2.207   2.652   3.668
 5976TIP3   OH217933   3.595   1.291   1.938
 5976TIP3    H117934   3.513   1.258   1.899
 5976TIP3    H217935   3.626   1.356   1.875
 5977TIP3   OH217936   0.596   0.980   2.655
 5977TIP3    H117937   0.618   0.920   2.726
 5977TIP3    H217938   0.654   0.955   2.583
 5978TIP3   OH217939   5.974   3.174   4.923
 5978TIP3    H117940   5.969   3.079   4.914
 5978TIP3    H217941   5.892   3.207   4.884
 5979TIP3   OH217942   1.384   0.981   2.175
 5979TIP3    H117943   1.464   1.024   2.145
 5979TIP3    H217944   1.413   0.896   2.207
 5980TIP3   OH217945   0.588   4.159   2.924
 5980TIP3    H117946   0.681   4.165   2.943
 5980TIP3    H217947   0.545   4.190   3.004
 5981TIP3   OH217948   6.000   5.045   2.936
 5981TIP3    H117949   5.952   5.046   2.853
 5981TIP3    H217950   5.974   4.963   2.977
 5982TIP3   OH217951   4.033   2.061   1.568
 5982TIP3    H117952   4.098   2.112   1.616
 5982TIP3    H217953   4.022   1.981   1.618
 5983TIP3   OH217954   5.566   2.152   2.698
 5983TIP3    H117955   5.623   2.156   2.774
 5983TIP3    H217956   5.613   2.097   2.635
 5984TIP3   OH217957   4.889   4.001   4.467
 5984TIP3    H117958   4.916   3.932   4.406
 5984TIP3    H217959   4.818   3.962   4.517
 5985TIP3   OH217960   4.323   0.415   1.196
 5985TIP3    H117961   4.294   0.449   1.281
 5985TIP3    H217962   4.386   0.346   1.218
 5986TIP3   OH217963   0.441   0.996   0.928
 5986TIP3    H117964   0.483   0.925   0.879
 5986TIP3    H217965   0.509   1.027   0.988
 5987TIP3   OH217966   2.013   3.822   2.120
 5987TIP3    H117967   2.102   3.811   2.153
 5987TIP3    H217968   1.981   3.902   2.162
 5988TIP3   OH217969   3.500   1.178   0.620
 5988TIP3    H117970   3.461   1.117   0.557
 5988TIP3    H217971   3.590   1.149   0.629
 5989TIP3   OH217972   1.580   0.425   0.819
 5989TIP3    H117973   1.651   0.460   0.874
 5989TIP3    H217974   1.558   0.341   0.859
 5990TIP3   OH217975   2.584   4.335   4.641
 5990TIP3    H117976   2.663   4.387   4.622
 5990TIP3    H217977   2.548   4.374   4.721
 5991TIP3   OH217978   5.785   4.386   4.079
 5991TIP3    H117979   5.836   4.447   4.026
 5991TIP3    H217980   5.831   4.383   4.163
 5992TIP3   OH217981   0.556   3.833   1.512
 5992TIP3    H117982   0.492   3.869   1.450
 5992TIP3    H217983   0.637   3.827   1.461
 5993TIP3   OH217984   3.405   3.981   5.045
 5993TIP3    H117985   3.387   4.064   4.999
 5993TIP3    H217986   3.389   3.914   4.979
 5994TIP3   OH217987   3.238   1.065   4.489
 5994TIP3    H117988   3.143   1.063   4.482
 5994TIP3    H217989   3.258   1.151   4.527
 5995TIP3   OH217990   1.186   1.078   0.613
 5995TIP3    H117991   1.203   1.007   0.552
 5995TIP3    H217992   1.140   1.144   0.561
 5996TIP3   OH217993   2.177   2.260   3.289
 5996TIP3    H117994   2.117   2.263   3.363
 5996TIP3    H217995   2.231   2.182   3.303
 5997TIP3   OH217996   2.434   2.152   4.222
 5997TIP3    H117997   2.387   2.073   4.195
 5997TIP3    H217998   2.442   2.144   4.317
 5998TIP3   OH217999   1.084   4.224   0.629
 5998TIP3    H118000   1.124   4.210   0.715
 5998TIP3    H218001   1.038   4.308   0.638
 5999TIP3   OH218002   2.437   5.918   0.479
 5999TIP3    H118003   2.496   5.900   0.405
 5999TIP3    H218004   2.409   6.009   0.465
 6000TIP3   OH218005   0.267   3.852   0.181
 6000TIP3    H118006   0.292   3.929   0.130
 6000TIP3    H218007   0.244   3.786   0.116
 6001TIP3   OH218008   1.716   1.004   0.533
 6001TIP3    H118009   1.765   1.060   0.473
 6001TIP3    H218010   1.690   1.062   0.605
 6002TIP3   OH218011   4.391   1.849   2.511
 6002TIP3    H118012   4.328   1.778   2.522
 6002TIP3    H218013   4.401   1.886   2.598
 6003TIP3   OH218014   5.637   0.757   4.407
 6003TIP3    H118015   5.663   0.841   4.446
 6003TIP3    H218016   5.622   0.777   4.315
 6004TIP3   OH218017   2.167   3.599   1.121
 6004TIP3    H118018   2.224   3.676   1.120
 6004TIP3    H218019   2.140   3.591   1.213
 6005TIP3   OH218020   6.193   5.838   4.870
 6005TIP3    H118021   6.185   5.912   4.811
 6005TIP3    H218022   6.139   5.862   4.946
 6006TIP3   OH218023   2.263   4.278   4.496
 6006TIP3    H118024   2.358   4.264   4.492
 6006TIP3    H218025   2.231   4.210   4.556
 6007TIP3   OH218026   4.169   1.743   2.113
 6007TIP3    H118027   4.183   1.761   2.206
 6007TIP3    H218028   4.249   1.698   2.085
 6008TIP3   OH218029   5.786   2.904   0.361
 6008TIP3    H118030   5.713   2.905   0.422
 6008TIP3    H218031   5.818   2.814   0.364
 6009TIP3   OH218032   3.808   2.940   1.457
 6009TIP3    H118033   3.808   2.845   1.464
 6009TIP3    H218034   3.808   2.971   1.548
 6010TIP3   OH218035   3.152   1.370   3.033
 6010TIP3    H118036   3.124   1.457   3.061
 6010TIP3    H218037   3.222   1.387   2.969
 6011TIP3   OH218038   2.636   3.272   0.925
 6011TIP3    H118039   2.685   3.201   0.966
 6011TIP3    H218040   2.687   3.294   0.847
 6012TIP3   OH218041   2.211   3.793   3.755
 6012TIP3    H118042   2.161   3.820   3.678
 6012TIP3    H218043   2.292   3.757   3.718
 6013TIP3   OH218044   1.247   4.678   1.306
 6013TIP3    H118045   1.190   4.639   1.373
 6013TIP3    H218046   1.207   4.762   1.286
 6014TIP3   OH218047   3.282   0.309   4.383
 6014TIP3    H118048   3.324   0.223   4.382
 6014TIP3    H218049   3.195   0.294   4.345
 6015TIP3   OH218050   4.570   5.484   3.645
 6015TIP3    H118051   4.564   5.561   3.588
 6015TIP3    H218052   4.630   5.425   3.599
 6016TIP3   OH218053   5.784   0.239   3.065
 6016TIP3    H118054   5.879   0.255   3.065
 6016TIP3    H218055   5.770   0.182   2.990
 6017TIP3   OH218056   5.882   1.511   1.959
 6017TIP3    H118057   5.844   1.434   2.001
 6017TIP3    H218058   5.806   1.560   1.926
 6018TIP3   OH218059   3.649   3.541   4.560
 6018TIP3    H118060   3.672   3.554   4.468
 6018TIP3    H218061   3.602   3.458   4.562
 6019TIP3   OH218062   4.653   3.134   0.470
 6019TIP3    H118063   4.580   3.196   0.475
 6019TIP3    H218064   4.706   3.166   0.397
 6020TIP3   OH218065   4.410   3.665   4.205
 6020TIP3    H118066   4.317   3.664   4.227
 6020TIP3    H218067   4.433   3.757   4.200
 6021TIP3   OH218068   3.555   4.953   3.309
 6021TIP3    H118069   3.612   4.994   3.244
 6021TIP3    H218070   3.467   4.983   3.286
 6022TIP3   OH218071   0.374   0.939   3.933
 6022TIP3    H118072   0.323   1.004   3.884
 6022TIP3    H218073   0.452   0.987   3.963
 6023TIP3   OH218074   1.596   4.869   1.724
 6023TIP3    H118075   1.593   4.909   1.811
 6023TIP3    H218076   1.688   4.845   1.712
 6024TIP3   OH218077   5.662   5.045   3.039
 6024TIP3    H118078   5.758   5.043   3.044
 6024TIP3    H218079   5.636   5.114   3.099
 6025TIP3   OH218080   4.400   4.285   3.808
 6025TIP3    H118081   4.350   4.226   3.863
 6025TIP3    H218082   4.480   4.302   3.857
 6026TIP3   OH218083   0.305   1.565   1.492
 6026TIP3    H118084   0.326   1.558   1.399
 6026TIP3    H218085   0.322   1.478   1.527
 6027TIP3   OH218086   5.491   1.285   4.246
 6027TIP3    H118087   5.501   1.190   4.251
 6027TIP3    H218088   5.533   1.317   4.325
 6028TIP3   OH218089   2.389   3.892   3.267
 6028TIP3    H118090   2.436   3.969   3.300
 6028TIP3    H218091   2.340   3.859   3.343
 6029TIP3   OH218092   5.443   1.530   3.231
 6029TIP3    H118093   5.455   1.457   3.171
 6029TIP3    H218094   5.349   1.534   3.246
 6030TIP3   OH218095   6.176   2.665   2.647
 6030TIP3    H118096   6.220   2.704   2.723
 6030TIP3    H218097   6.133   2.587   2.683
 6031TIP3   OH218098   0.379   3.901   3.466
 6031TIP3    H118099   0.299   3.848   3.471
 6031TIP3    H218100   0.358   3.980   3.517
 6032TIP3   OH218101   4.782   2.349   2.271
 6032TIP3    H118102   4.831   2.378   2.348
 6032TIP3    H218103   4.846   2.299   2.220
 6033TIP3   OH218104   6.099   2.030   2.537
 6033TIP3    H118105   6.154   2.109   2.532
 6033TIP3    H218106   6.092   2.000   2.447
 6034TIP3   OH218107   4.811   4.797   2.570
 6034TIP3    H118108   4.763   4.796   2.653
 6034TIP3    H218109   4.902   4.779   2.594
 6035TIP3   OH218110   5.452   1.869   2.084
 6035TIP3    H118111   5.527   1.852   2.142
 6035TIP3    H218112   5.482   1.842   1.997
 6036TIP3   OH218113   3.586   3.072   0.357
 6036TIP3    H118114   3.501   3.109   0.380
 6036TIP3    H218115   3.636   3.147   0.323
 6037TIP3   OH218116   1.611   2.211   2.860
 6037TIP3    H118117   1.597   2.289   2.913
 6037TIP3    H218118   1.698   2.224   2.821
 6038TIP3   OH218119   2.791   2.608   0.770
 6038TIP3    H118120   2.744   2.569   0.843
 6038TIP3    H218121   2.727   2.664   0.727
 6039TIP3   OH218122   3.153   4.176   2.949
 6039TIP3    H118123   3.164   4.233   3.025
 6039TIP3    H218124   3.201   4.220   2.879
 6040TIP3   OH218125   5.133   3.231   0.762
 6040TIP3    H118126   5.064   3.296   0.773
 6040TIP3    H218127   5.164   3.213   0.851
 6041TIP3   OH218128   6.316   1.494   4.015
 6041TIP3    H118129   6.329   1.430   4.085
 6041TIP3    H218130   6.228   1.477   3.983
 6042TIP3   OH218131   2.730   2.954   4.984
 6042TIP3    H118132   2.823   2.976   4.995
 6042TIP3    H218133   2.694   2.959   5.073
 6043TIP3   OH218134   1.350   4.305   3.018
 6043TIP3    H118135   1.425   4.338   3.067
 6043TIP3    H218136   1.278   4.304   3.081
 6044TIP3   OH218137   5.939   3.679   4.738
 6044TIP3    H118138   6.016   3.623   4.730
 6044TIP3    H218139   5.959   3.736   4.813
 6045TIP3   OH218140   6.192   2.836   1.374
 6045TIP3    H118141   6.162   2.919   1.413
 6045TIP3    H218142   6.234   2.861   1.292
 6046TIP3   OH218143   4.990   0.076   4.241
 6046TIP3    H118144   5.017   0.159   4.280
 6046TIP3    H218145   4.898   0.090   4.217
 6047TIP3   OH218146   1.139   5.173   3.754
 6047TIP3    H118147   1.167   5.083   3.771
 6047TIP3    H218148   1.216   5.226   3.774
 6048TIP3   OH218149   5.593   2.457   2.743
 6048TIP3    H118150   5.515   2.461   2.798
 6048TIP3    H218151   5.604   2.364   2.722
 6049TIP3   OH218152   6.016   2.296   2.412
 6049TIP3    H118153   5.972   2.308   2.496
 6049TIP3    H218154   6.045   2.384   2.387
 6050TIP3   OH218155   2.770   3.967   3.474
 6050TIP3    H118156   2.726   3.945   3.556
 6050TIP3    H218157   2.755   3.892   3.417
 6051TIP3   OH218158   3.996   3.873   1.445
 6051TIP3    H118159   3.946   3.921   1.511
 6051TIP3    H218160   3.955   3.786   1.442
 6052TIP3   OH218161   3.372   3.500   4.291
 6052TIP3    H118162   3.365   3.576   4.348
 6052TIP3    H218163   3.387   3.536   4.204
 6053TIP3   OH218164   1.462   4.986   4.682
 6053TIP3    H118165   1.369   4.975   4.701
 6053TIP3    H218166   1.494   5.043   4.753
 6054TIP3   OH218167   2.166   3.027   3.953
 6054TIP3    H118168   2.231   3.061   3.891
 6054TIP3    H218169   2.103   2.981   3.898
 6055TIP3   OH218170   4.472   0.939   2.620
 6055TIP3    H118171   4.538   0.971   2.682
 6055TIP3    H218172   4.399   0.912   2.675
 6056TIP3   OH218173   4.398   5.394   4.332
 6056TIP3    H118174   4.367   5.419   4.245
 6056TIP3    H218175   4.471   5.453   4.350
 6057TIP3   OH218176   4.293   0.221   0.058
 6057TIP3    H118177   4.361   0.179   0.005
 6057TIP3    H218178   4.340   0.255   0.134
 6058TIP3   OH218179   2.274   1.205   1.972
 6058TIP3    H118180   2.248   1.294   1.947
 6058TIP3    H218181   2.269   1.206   2.068
 6059TIP3   OH218182   5.216   4.511   0.846
 6059TIP3    H118183   5.275   4.499   0.772
 6059TIP3    H218184   5.133   4.473   0.816
 6060TIP3   OH218185   0.486   0.396   4.867
 6060TIP3    H118186   0.416   0.331   4.872
 6060TIP3    H218187   0.499   0.424   4.958
 6061TIP3   OH218188   1.528   3.823   2.232
 6061TIP3    H118189   1.588   3.757   2.197
 6061TIP3    H218190   1.533   3.813   2.327
 6062TIP3   OH218191   4.475   5.317   3.260
 6062TIP3    H118192   4.553   5.282   3.215
 6062TIP3    H218193   4.491   5.411   3.265
 6063TIP3   OH218194   3.535   3.253   1.603
 6063TIP3    H118195   3.583   3.284   1.680
 6063TIP3    H218196   3.593   3.190   1.562
 6064TIP3   OH218197   1.452   1.486   0.396
 6064TIP3    H118198   1.450   1.404   0.347
 6064TIP3    H218199   1.466   1.460   0.487
 6065TIP3   OH218200   0.521   0.586   2.188
 6065TIP3    H118201   0.572   0.508   2.164
 6065TIP3    H218202   0.575   0.629   2.255
 6066TIP3   OH218203   2.904   1.506   3.205
 6066TIP3    H118204   2.921   1.426   3.256
 6066TIP3    H218205   2.912   1.577   3.269
 6067TIP3   OH218206   5.960   5.582   0.158
 6067TIP3    H118207   5.895   5.524   0.119
 6067TIP3    H218208   5.910   5.635   0.221
 6068TIP3   OH218209   1.367   2.569   3.906
 6068TIP3    H118210   1.450   2.574   3.858
 6068TIP3    H218211   1.354   2.658   3.940
 6069TIP3   OH218212   2.321   3.134   2.305
 6069TIP3    H118213   2.279   3.132   2.391
 6069TIP3    H218214   2.254   3.169   2.246
 6070TIP3   OH218215   2.999   4.747   1.225
 6070TIP3    H118216   2.929   4.683   1.239
 6070TIP3    H218217   3.045   4.715   1.147
 6071TIP3   OH218218   0.455   1.512   4.235
 6071TIP3    H118219   0.454   1.569   4.312
 6071TIP3    H218220   0.367   1.521   4.198
 6072TIP3   OH218221   2.020   1.480   2.806
 6072TIP3    H118222   2.052   1.396   2.838
 6072TIP3    H218223   2.090   1.511   2.748
 6073TIP3   OH218224   3.499   0.940   1.433
 6073TIP3    H118225   3.565   0.894   1.486
 6073TIP3    H218226   3.535   0.939   1.344
 6074TIP3   OH218227   0.687   3.496   1.835
 6074TIP3    H118228   0.627   3.512   1.762
 6074TIP3    H218229   0.630   3.491   1.912
 6075TIP3   OH218230   2.263   3.720   4.199
 6075TIP3    H118231   2.316   3.774   4.259
 6075TIP3    H218232   2.327   3.667   4.152
 6076TIP3   OH218233   6.161   0.060   3.600
 6076TIP3    H118234   6.208   0.137   3.631
 6076TIP3    H218235   6.091   0.096   3.545
 6077TIP3   OH218236   2.670   4.292   0.217
 6077TIP3    H118237   2.618   4.345   0.156
 6077TIP3    H218238   2.611   4.221   0.242
 6078TIP3   OH218239   3.133   2.413   3.174
 6078TIP3    H118240   3.101   2.386   3.087
 6078TIP3    H218241   3.132   2.333   3.226
 6079TIP3   OH218242   2.388   4.827   1.688
 6079TIP3    H118243   2.316   4.766   1.675
 6079TIP3    H218244   2.400   4.869   1.603
 6080TIP3   OH218245   5.104   1.320   0.310
 6080TIP3    H118246   5.196   1.318   0.283
 6080TIP3    H218247   5.095   1.402   0.357
 6081TIP3   OH218248   0.169   2.623   4.839
 6081TIP3    H118249   0.082   2.603   4.805
 6081TIP3    H218250   0.158   2.622   4.934
 6082TIP3   OH218251   3.841   1.496   2.309
 6082TIP3    H118252   3.812   1.560   2.244
 6082TIP3    H218253   3.924   1.531   2.342
 6083TIP3   OH218254   0.482   1.075   3.587
 6083TIP3    H118255   0.397   1.068   3.545
 6083TIP3    H218256   0.529   1.140   3.535
 6084TIP3   OH218257   4.934   4.767   2.332
 6084TIP3    H118258   4.891   4.727   2.257
 6084TIP3    H218259   4.868   4.765   2.402
 6085TIP3   OH218260   3.685   3.730   0.642
 6085TIP3    H118261   3.591   3.719   0.658
 6085TIP3    H218262   3.717   3.642   0.623
 6086TIP3   OH218263   4.441   4.259   1.430
 6086TIP3    H118264   4.491   4.340   1.440
 6086TIP3    H218265   4.380   4.278   1.358
 6087TIP3   OH218266   2.724   2.378   2.830
 6087TIP3    H118267   2.668   2.359   2.754
 6087TIP3    H218268   2.662   2.400   2.900
 6088TIP3   OH218269   4.238   4.215   0.828
 6088TIP3    H118270   4.313   4.264   0.795
 6088TIP3    H218271   4.165   4.243   0.772
 6089TIP3   OH218272   2.733   0.668   4.735
 6089TIP3    H118273   2.772   0.649   4.650
 6089TIP3    H218274   2.805   0.705   4.786
 6090TIP3   OH218275   4.226   4.453   3.959
 6090TIP3    H118276   4.142   4.407   3.962
 6090TIP3    H218277   4.287   4.389   3.923
 6091TIP3   OH218278   1.270   0.025   3.291
 6091TIP3    H118279   1.215   0.056   3.219
 6091TIP3    H218280   1.357   0.061   3.272
 6092TIP3   OH218281   4.546   5.316   2.259
 6092TIP3    H118282   4.636   5.348   2.264
 6092TIP3    H218283   4.531   5.272   2.343
 6093TIP3   OH218284   5.885   0.473   2.485
 6093TIP3    H118285   5.959   0.467   2.425
 6093TIP3    H218286   5.815   0.424   2.441
 6094TIP3   OH218287   1.188   5.181   2.919
 6094TIP3    H118288   1.233   5.164   2.836
 6094TIP3    H218289   1.096   5.186   2.895
 6095TIP3   OH218290   5.529   2.286   3.096
 6095TIP3    H118291   5.565   2.232   3.026
 6095TIP3    H218292   5.492   2.222   3.158
 6096TIP3   OH218293   1.142   4.030   3.774
 6096TIP3    H118294   1.139   3.946   3.728
 6096TIP3    H218295   1.082   4.086   3.725
 6097TIP3   OH218296   2.002   4.097   4.504
 6097TIP3    H118297   1.920   4.104   4.553
 6097TIP3    H218298   2.068   4.083   4.571
 6098TIP3   OH218299   3.779   1.258   1.339
 6098TIP3    H118300   3.873   1.243   1.349
 6098TIP3    H218301   3.740   1.213   1.414
 6099TIP3   OH218302   3.232   0.457   0.289
 6099TIP3    H118303   3.258   0.543   0.258
 6099TIP3    H218304   3.218   0.468   0.383
 6100TIP3   OH218305   0.607   2.472   4.173
 6100TIP3    H118306   0.558   2.391   4.190
 6100TIP3    H218307   0.547   2.542   4.196
 6101TIP3   OH218308   2.418   3.543   3.422
 6101TIP3    H118309   2.455   3.480   3.483
 6101TIP3    H218310   2.468   3.530   3.341
 6102TIP3   OH218311   3.482   5.906   1.378
 6102TIP3    H118312   3.552   5.969   1.394
 6102TIP3    H218313   3.402   5.958   1.387
 6103TIP3   OH218314   1.678   5.737   2.406
 6103TIP3    H118315   1.588   5.760   2.431
 6103TIP3    H218316   1.729   5.814   2.428
 6104TIP3   OH218317   1.626   5.602   2.659
 6104TIP3    H118318   1.578   5.673   2.616
 6104TIP3    H218319   1.561   5.534   2.675
 6105TIP3   OH218320   2.082   4.866   1.918
 6105TIP3    H118321   2.032   4.801   1.968
 6105TIP3    H218322   2.094   4.826   1.832
 6106TIP3   OH218323   5.019   1.880   5.158
 6106TIP3    H118324   5.047   1.969   5.177
 6106TIP3    H218325   5.031   1.832   5.240
 6107TIP3   OH218326   3.355   5.403   0.165
 6107TIP3    H118327   3.317   5.424   0.080
 6107TIP3    H218328   3.287   5.355   0.211
 6108TIP3   OH218329   3.387   0.937   3.900
 6108TIP3    H118330   3.382   0.842   3.915
 6108TIP3    H218331   3.295   0.964   3.892
 6109TIP3   OH218332   1.538   5.307   1.614
 6109TIP3    H118333   1.492   5.372   1.561
 6109TIP3    H218334   1.606   5.356   1.660
 6110TIP3   OH218335   1.325   2.861   2.448
 6110TIP3    H118336   1.392   2.894   2.387
 6110TIP3    H218337   1.375   2.825   2.521
 6111TIP3   OH218338   0.850   3.365   4.255
 6111TIP3    H118339   0.914   3.336   4.190
 6111TIP3    H218340   0.873   3.457   4.271
 6112TIP3   OH218341   2.557   0.190   0.603
 6112TIP3    H118342   2.610   0.119   0.639
 6112TIP3    H218343   2.620   0.256   0.577
 6113TIP3   OH218344   1.094   0.053   0.170
 6113TIP3    H118345   1.106   0.090   0.258
 6113TIP3    H218346   0.999   0.041   0.163
 6114TIP3   OH218347   2.692   1.934   2.301
 6114TIP3    H118348   2.630   1.966   2.235
 6114TIP3    H218349   2.646   1.862   2.344
 6115TIP3   OH218350   1.412   4.150   0.649
 6115TIP3    H118351   1.335   4.098   0.674
 6115TIP3    H218352   1.455   4.172   0.732
 6116TIP3   OH218353   5.127   1.106   0.645
 6116TIP3    H118354   5.105   1.196   0.622
 6116TIP3    H218355   5.065   1.083   0.714
 6117TIP3   OH218356   1.911   5.120   4.732
 6117TIP3    H118357   1.982   5.125   4.795
 6117TIP3    H218358   1.846   5.062   4.772
 6118TIP3   OH218359   4.356   5.860   3.191
 6118TIP3    H118360   4.328   5.941   3.235
 6118TIP3    H218361   4.277   5.829   3.146
 6119TIP3   OH218362   1.654   5.504   1.759
 6119TIP3    H118363   1.688   5.575   1.704
 6119TIP3    H218364   1.603   5.548   1.826
 6120TIP3   OH218365   5.775   3.743   2.885
 6120TIP3    H118366   5.740   3.769   2.970
 6120TIP3    H218367   5.844   3.806   2.866
 6121TIP3   OH218368   0.541   3.333   4.466
 6121TIP3    H118369   0.632   3.320   4.440
 6121TIP3    H218370   0.491   3.318   4.386
 6122TIP3   OH218371   5.767   1.323   2.169
 6122TIP3    H118372   5.703   1.394   2.178
 6122TIP3    H218373   5.743   1.261   2.237
 6123TIP3   OH218374   5.364   4.541   1.207
 6123TIP3    H118375   5.403   4.456   1.227
 6123TIP3    H218376   5.423   4.580   1.142
 6124TIP3   OH218377   6.153   5.033   3.948
 6124TIP3    H118378   6.209   4.976   4.001
 6124TIP3    H218379   6.108   5.089   4.011
 6125TIP3   OH218380   2.246   2.704   3.996
 6125TIP3    H118381   2.248   2.800   3.988
 6125TIP3    H218382   2.226   2.673   3.908
 6126TIP3   OH218383   4.377   3.230   4.146
 6126TIP3    H118384   4.336   3.218   4.232
 6126TIP3    H218385   4.329   3.169   4.089
 6127TIP3   OH218386   2.566   2.887   4.503
 6127TIP3    H118387   2.568   2.911   4.595
 6127TIP3    H218388   2.541   2.794   4.503
 6128TIP3   OH218389   0.378   4.795   3.929
 6128TIP3    H118390   0.406   4.849   3.855
 6128TIP3    H218391   0.304   4.842   3.967
 6129TIP3   OH218392   3.688   4.899   4.550
 6129TIP3    H118393   3.676   4.811   4.513
 6129TIP3    H218394   3.694   4.885   4.644
 6130TIP3   OH218395   2.554   3.306   2.646
 6130TIP3    H118396   2.569   3.298   2.552
 6130TIP3    H218397   2.462   3.281   2.657
 6131TIP3   OH218398   0.463   4.284   2.231
 6131TIP3    H118399   0.479   4.316   2.320
 6131TIP3    H218400   0.517   4.205   2.225
 6132TIP3   OH218401   4.069   3.129   4.717
 6132TIP3    H118402   4.145   3.118   4.775
 6132TIP3    H218403   4.054   3.042   4.681
 6133TIP3   OH218404   2.449   0.552   0.855
 6133TIP3    H118405   2.504   0.612   0.805
 6133TIP3    H218406   2.447   0.590   0.943
 6134TIP3   OH218407   0.406   2.425   1.047
 6134TIP3    H118408   0.421   2.492   1.114
 6134TIP3    H218409   0.341   2.367   1.086
 6135TIP3   OH218410   2.905   1.525   2.497
 6135TIP3    H118411   2.837   1.525   2.430
 6135TIP3    H218412   2.979   1.482   2.456
 6136TIP3   OH218413   3.610   2.192   0.241
 6136TIP3    H118414   3.696   2.194   0.199
 6136TIP3    H218415   3.549   2.216   0.172
 6137TIP3   OH218416   1.693   1.020   1.130
 6137TIP3    H118417   1.601   1.038   1.151
 6137TIP3    H218418   1.719   0.954   1.194
 6138TIP3   OH218419   0.176   3.784   5.177
 6138TIP3    H118420   0.108   3.800   5.243
 6138TIP3    H218421   0.155   3.699   5.140
 6139TIP3   OH218422   5.291   4.806   0.477
 6139TIP3    H118423   5.351   4.859   0.529
 6139TIP3    H218424   5.345   4.734   0.444
 6140TIP3   OH218425   3.807   1.784   2.249
 6140TIP3    H118426   3.720   1.822   2.257
 6140TIP3    H218427   3.862   1.837   2.307
 6141TIP3   OH218428   1.858   3.359   2.509
 6141TIP3    H118429   1.889   3.399   2.428
 6141TIP3    H218430   1.778   3.407   2.531
 6142TIP3   OH218431   2.771   5.313   0.372
 6142TIP3    H118432   2.800   5.261   0.447
 6142TIP3    H218433   2.710   5.255   0.326
 6143TIP3   OH218434   0.836   4.064   0.951
 6143TIP3    H118435   0.776   4.073   1.025
 6143TIP3    H218436   0.781   4.079   0.874
 6144TIP3   OH218437   4.037   1.603   3.398
 6144TIP3    H118438   3.992   1.524   3.368
 6144TIP3    H218439   3.997   1.674   3.347
 6145TIP3   OH218440   2.587   0.673   1.699
 6145TIP3    H118441   2.607   0.733   1.626
 6145TIP3    H218442   2.630   0.591   1.674
 6146TIP3   OH218443   6.095   5.369   1.895
 6146TIP3    H118444   6.088   5.457   1.932
 6146TIP3    H218445   6.025   5.366   1.829
 6147TIP3   OH218446   1.894   4.617   3.424
 6147TIP3    H118447   1.815   4.666   3.447
 6147TIP3    H218448   1.965   4.665   3.466
 6148TIP3   OH218449   5.933   0.222   2.259
 6148TIP3    H118450   5.838   0.228   2.266
 6148TIP3    H218451   5.962   0.314   2.258
 6149TIP3   OH218452   4.785   4.270   4.767
 6149TIP3    H118453   4.777   4.205   4.837
 6149TIP3    H218454   4.725   4.239   4.699
 6150TIP3   OH218455   4.172   0.941   4.387
 6150TIP3    H118456   4.104   0.960   4.452
 6150TIP3    H218457   4.132   0.876   4.329
 6151TIP3   OH218458   5.458   4.005   3.392
 6151TIP3    H118459   5.410   4.072   3.441
 6151TIP3    H218460   5.390   3.960   3.341
 6152TIP3   OH218461   2.025   5.144   0.709
 6152TIP3    H118462   2.075   5.073   0.669
 6152TIP3    H218463   2.049   5.140   0.802
 6153TIP3   OH218464   1.344   2.945   2.800
 6153TIP3    H118465   1.330   3.002   2.876
 6153TIP3    H218466   1.257   2.925   2.768
 6154TIP3   OH218467   4.990   0.937   3.152
 6154TIP3    H118468   4.969   0.856   3.198
 6154TIP3    H218469   4.993   1.003   3.222
 6155TIP3   OH218470   3.750   0.376   0.473
 6155TIP3    H118471   3.660   0.347   0.489
 6155TIP3    H218472   3.768   0.350   0.382
 6156TIP3   OH218473   6.021   4.186   1.132
 6156TIP3    H118474   6.008   4.132   1.210
 6156TIP3    H218475   5.938   4.231   1.120
 6157TIP3   OH218476   2.839   2.053   1.892
 6157TIP3    H118477   2.773   2.094   1.947
 6157TIP3    H218478   2.881   1.988   1.948
 6158TIP3   OH218479   3.874   4.812   3.533
 6158TIP3    H118480   3.948   4.755   3.555
 6158TIP3    H218481   3.911   4.900   3.528
 6159TIP3   OH218482   5.667   4.535   1.837
 6159TIP3    H118483   5.730   4.556   1.906
 6159TIP3    H218484   5.596   4.598   1.849
 6160TIP3   OH218485   3.683   3.696   1.773
 6160TIP3    H118486   3.636   3.736   1.846
 6160TIP3    H218487   3.622   3.631   1.739
 6161TIP3   OH218488   4.902   3.796   3.142
 6161TIP3    H118489   4.935   3.795   3.232
 6161TIP3    H218490   4.966   3.744   3.092
 6162TIP3   OH218491   3.552   2.763   4.787
 6162TIP3    H118492   3.571   2.805   4.871
 6162TIP3    H218493   3.466   2.724   4.799
 6163TIP3   OH218494   2.473   4.572   1.150
 6163TIP3    H118495   2.481   4.629   1.073
 6163TIP3    H218496   2.460   4.485   1.113
 6164TIP3   OH218497   0.554   3.673   3.532
 6164TIP3    H118498   0.586   3.674   3.622
 6164TIP3    H218499   0.505   3.755   3.523
 6165TIP3   OH218500   5.863   0.638   3.002
 6165TIP3    H118501   5.941   0.695   3.003
 6165TIP3    H218502   5.877   0.580   2.927
 6166TIP3   OH218503   0.188   3.222   4.918
 6166TIP3    H118504   0.186   3.127   4.905
 6166TIP3    H218505   0.233   3.256   4.841
 6167TIP3   OH218506   1.338   5.770   3.759
 6167TIP3    H118507   1.293   5.807   3.684
 6167TIP3    H218508   1.290   5.690   3.780
 6168TIP3   OH218509   3.325   5.143   0.710
 6168TIP3    H118510   3.398   5.200   0.735
 6168TIP3    H218511   3.264   5.150   0.783
 6169TIP3   OH218512   4.807   3.191   0.241
 6169TIP3    H118513   4.783   3.164   0.153
 6169TIP3    H218514   4.831   3.283   0.233
 6170TIP3   OH218515   4.458   4.172   3.226
 6170TIP3    H118516   4.480   4.169   3.319
 6170TIP3    H218517   4.428   4.083   3.206
 6171TIP3   OH218518   2.001   0.058   1.894
 6171TIP3    H118519   2.046   0.126   1.844
 6171TIP3    H218520   2.041  -0.024   1.865
 6172TIP3   OH218521   1.860   5.769   0.783
 6172TIP3    H118522   1.859   5.694   0.724
 6172TIP3    H218523   1.853   5.730   0.871
 6173TIP3   OH218524   0.679   0.313   3.583
 6173TIP3    H118525   0.686   0.377   3.513
 6173TIP3    H218526   0.667   0.229   3.538
 6174TIP3   OH218527   4.696   2.555   3.577
 6174TIP3    H118528   4.777   2.576   3.624
 6174TIP3    H218529   4.726   2.513   3.497
 6175TIP3   OH218530   0.529   4.840   2.802
 6175TIP3    H118531   0.587   4.912   2.775
 6175TIP3    H218532   0.532   4.778   2.729
 6176TIP3   OH218533   2.193   1.221   3.508
 6176TIP3    H118534   2.238   1.137   3.504
 6176TIP3    H218535   2.258   1.285   3.479
 6177TIP3   OH218536   4.903   3.495   0.254
 6177TIP3    H118537   4.815   3.491   0.217
 6177TIP3    H218538   4.954   3.545   0.190
 6178TIP3   OH218539   0.362   5.493   0.927
 6178TIP3    H118540   0.383   5.459   0.840
 6178TIP3    H218541   0.266   5.502   0.926
 6179TIP3   OH218542   5.697   2.808   2.391
 6179TIP3    H118543   5.616   2.830   2.347
 6179TIP3    H218544   5.724   2.888   2.436
 6180TIP3   OH218545   0.310   0.513   3.761
 6180TIP3    H118546   0.373   0.564   3.812
 6180TIP3    H218547   0.227   0.523   3.808
 6181TIP3   OH218548   3.392   3.124   2.902
 6181TIP3    H118549   3.348   3.101   2.820
 6181TIP3    H218550   3.465   3.063   2.908
 6182TIP3   OH218551   0.782   3.381   1.147
 6182TIP3    H118552   0.849   3.321   1.112
 6182TIP3    H218553   0.810   3.468   1.117
 6183TIP3   OH218554   2.835   5.578   0.224
 6183TIP3    H118555   2.922   5.596   0.259
 6183TIP3    H218556   2.801   5.508   0.279
 6184TIP3   OH218557   3.522   2.062   0.707
 6184TIP3    H118558   3.519   1.977   0.664
 6184TIP3    H218559   3.599   2.105   0.670
 6185TIP3   OH218560   3.595   2.350   1.475
 6185TIP3    H118561   3.567   2.258   1.469
 6185TIP3    H218562   3.674   2.347   1.529
 6186TIP3   OH218563   0.961   0.922   2.298
 6186TIP3    H118564   1.021   0.978   2.249
 6186TIP3    H218565   0.959   0.840   2.248
 6187TIP3   OH218566   1.947   5.158   0.162
 6187TIP3    H118567   1.960   5.156   0.067
 6187TIP3    H218568   1.856   5.187   0.173
 6188TIP3   OH218569   3.451   0.478   3.353
 6188TIP3    H118570   3.495   0.513   3.431
 6188TIP3    H218571   3.390   0.547   3.327
 6189TIP3   OH218572   5.823   4.942   4.085
 6189TIP3    H118573   5.846   4.980   4.170
 6189TIP3    H218574   5.849   4.850   4.092
 6190TIP3   OH218575   3.702   1.968   2.770
 6190TIP3    H118576   3.779   2.001   2.724
 6190TIP3    H218577   3.705   1.873   2.756
 6191TIP3   OH218578   1.049   1.313   2.299
 6191TIP3    H118579   1.075   1.235   2.249
 6191TIP3    H218580   1.047   1.283   2.390
 6192TIP3   OH218581   4.423   4.654   3.347
 6192TIP3    H118582   4.469   4.581   3.388
 6192TIP3    H218583   4.334   4.621   3.332
 6193TIP3   OH218584   6.174   3.558   0.320
 6193TIP3    H118585   6.237   3.491   0.296
 6193TIP3    H218586   6.147   3.596   0.237
 6194TIP3   OH218587   0.578   1.221   3.142
 6194TIP3    H118588   0.650   1.191   3.087
 6194TIP3    H218589   0.614   1.226   3.230
 6195TIP3   OH218590   1.777   5.467   2.305
 6195TIP3    H118591   1.761   5.541   2.363
 6195TIP3    H218592   1.694   5.456   2.258
 6196TIP3   OH218593   2.765   1.444   2.944
 6196TIP3    H118594   2.808   1.500   3.010
 6196TIP3    H218595   2.678   1.428   2.980
 6197TIP3   OH218596   4.825   2.762   3.754
 6197TIP3    H118597   4.882   2.686   3.763
 6197TIP3    H218598   4.875   2.834   3.794
 6198TIP3   OH218599   4.879   2.678   2.698
 6198TIP3    H118600   4.910   2.765   2.723
 6198TIP3    H218601   4.852   2.637   2.780
 6199TIP3   OH218602   2.790   3.891   4.807
 6199TIP3    H118603   2.770   3.862   4.718
 6199TIP3    H218604   2.785   3.987   4.802
 6200TIP3   OH218605   2.434   2.418   0.542
 6200TIP3    H118606   2.394   2.423   0.456
 6200TIP3    H218607   2.526   2.400   0.525
 6201TIP3   OH218608   5.580   1.618   1.503
 6201TIP3    H118609   5.617   1.552   1.444
 6201TIP3    H218610   5.490   1.589   1.519
 6202TIP3   OH218611   4.624   3.834   0.871
 6202TIP3    H118612   4.644   3.763   0.809
 6202TIP3    H218613   4.535   3.861   0.848
 6203TIP3   OH218614   5.153   2.547   1.547
 6203TIP3    H118615   5.230   2.583   1.503
 6203TIP3    H218616   5.102   2.507   1.476
 6204TIP3   OH218617   3.900   4.010   3.012
 6204TIP3    H118618   3.942   3.930   3.043
 6204TIP3    H218619   3.835   4.030   3.080
 6205TIP3   OH218620   3.072   0.771   3.933
 6205TIP3    H118621   3.081   0.792   4.026
 6205TIP3    H218622   3.045   0.852   3.891
 6206TIP3   OH218623   2.868   3.057   4.156
 6206TIP3    H118624   2.819   3.139   4.150
 6206TIP3    H218625   2.806   2.995   4.195
 6207TIP3   OH218626   0.387   4.827   2.493
 6207TIP3    H118627   0.300   4.862   2.474
 6207TIP3    H218628   0.447   4.896   2.465
 6208TIP3   OH218629   5.533   4.777   4.270
 6208TIP3    H118630   5.480   4.835   4.217
 6208TIP3    H218631   5.558   4.706   4.211
 6209TIP3   OH218632   0.222   5.409   3.035
 6209TIP3    H118633   0.209   5.502   3.052
 6209TIP3    H218634   0.279   5.407   2.957
 6210TIP3   OH218635   4.338   3.871   2.242
 6210TIP3    H118636   4.331   3.775   2.240
 6210TIP3    H218637   4.418   3.888   2.292
 6211TIP3   OH218638   1.407   1.064   1.189
 6211TIP3    H118639   1.391   1.024   1.274
 6211TIP3    H218640   1.328   1.045   1.139
 6212TIP3   OH218641   6.349   5.413   4.767
 6212TIP3    H118642   6.334   5.505   4.747
 6212TIP3    H218643   6.262   5.377   4.787
 6213TIP3   OH218644   1.874   3.909   4.895
 6213TIP3    H118645   1.943   3.850   4.926
 6213TIP3    H218646   1.811   3.912   4.967
 6214TIP3   OH218647   1.288   4.542   3.559
 6214TIP3    H118648   1.319   4.454   3.537
 6214TIP3    H218649   1.342   4.600   3.507
 6215TIP3   OH218650   6.325   0.629   2.143
 6215TIP3    H118651   6.322   0.684   2.221
 6215TIP3    H218652   6.419   0.614   2.128
 6216TIP3   OH218653   0.906   0.735   3.916
 6216TIP3    H118654   0.878   0.824   3.896
 6216TIP3    H218655   0.970   0.745   3.987
 6217TIP3   OH218656   1.695   5.110   0.393
 6217TIP3    H118657   1.616   5.060   0.415
 6217TIP3    H218658   1.689   5.124   0.299
 6218TIP3   OH218659   6.314   3.338   0.654
 6218TIP3    H118660   6.352   3.296   0.576
 6218TIP3    H218661   6.275   3.419   0.621
 6219TIP3   OH218662   1.968   3.525   0.005
 6219TIP3    H118663   1.981   3.437   0.040
 6219TIP3    H218664   2.053   3.568   0.016
 6220TIP3   OH218665   5.537   5.124   1.917
 6220TIP3    H118666   5.498   5.128   2.004
 6220TIP3    H218667   5.547   5.030   1.900
 6221TIP3   OH218668   6.318   2.653   1.021
 6221TIP3    H118669   6.277   2.687   0.941
 6221TIP3    H218670   6.247   2.610   1.069
 6222TIP3   OH218671   2.078   0.269   4.357
 6222TIP3    H118672   2.070   0.277   4.262
 6222TIP3    H218673   1.994   0.298   4.391
 6223TIP3   OH218674   2.235   3.955   2.675
 6223TIP3    H118675   2.221   3.950   2.770
 6223TIP3    H218676   2.328   3.976   2.665
 6224TIP3   OH218677   4.421   1.989   0.603
 6224TIP3    H118678   4.458   1.916   0.554
 6224TIP3    H218679   4.475   1.996   0.682
 6225TIP3   OH218680   0.949   0.261   1.496
 6225TIP3    H118681   0.872   0.307   1.463
 6225TIP3    H218682   0.913   0.181   1.536
 6226TIP3   OH218683   5.379   1.223   1.854
 6226TIP3    H118684   5.456   1.167   1.858
 6226TIP3    H218685   5.372   1.260   1.942
 6227TIP3   OH218686   3.662   5.041   5.030
 6227TIP3    H118687   3.690   5.132   5.035
 6227TIP3    H218688   3.674   5.007   5.119
 6228TIP3   OH218689   0.016   5.492   2.626
 6228TIP3    H118690   0.032   5.554   2.697
 6228TIP3    H218691  -0.014   5.412   2.671
 6229TIP3   OH218692   4.519   2.040   0.027
 6229TIP3    H118693   4.512   2.051   0.122
 6229TIP3    H218694   4.507   2.128  -0.008
 6230TIP3   OH218695   0.341   2.837   3.124
 6230TIP3    H118696   0.422   2.793   3.097
 6230TIP3    H218697   0.356   2.929   3.101
 6231TIP3   OH218698   2.942   4.791   1.743
 6231TIP3    H118699   2.960   4.701   1.717
 6231TIP3    H218700   2.953   4.842   1.662
 6232TIP3   OH218701   2.685   4.092   1.028
 6232TIP3    H118702   2.757   4.069   1.087
 6232TIP3    H218703   2.676   4.187   1.035
 6233TIP3   OH218704   0.113   2.592   2.282
 6233TIP3    H118705   0.100   2.611   2.375
 6233TIP3    H218706   0.196   2.545   2.279
 6234TIP3   OH218707   5.978   2.316   3.786
 6234TIP3    H118708   6.041   2.263   3.833
 6234TIP3    H218709   6.007   2.406   3.799
 6235TIP3   OH218710   3.606   0.349   3.973
 6235TIP3    H118711   3.621   0.439   3.946
 6235TIP3    H218712   3.538   0.317   3.913
 6236TIP3   OH218713   3.877   5.562   0.480
 6236TIP3    H118714   3.882   5.635   0.419
 6236TIP3    H218715   3.873   5.603   0.567
 6237TIP3   OH218716   5.728   4.971   1.445
 6237TIP3    H118717   5.775   4.905   1.498
 6237TIP3    H218718   5.793   5.040   1.431
 6238TIP3   OH218719   3.467   4.877   4.047
 6238TIP3    H118720   3.445   4.861   4.139
 6238TIP3    H218721   3.526   4.953   4.050
 6239TIP3   OH218722   3.632   5.854   1.013
 6239TIP3    H118723   3.581   5.928   1.044
 6239TIP3    H218724   3.575   5.809   0.951
 6240TIP3   OH218725   5.354   5.926   4.218
 6240TIP3    H118726   5.442   5.928   4.180
 6240TIP3    H218727   5.357   5.852   4.279
 6241TIP3   OH218728   4.224   1.157   2.849
 6241TIP3    H118729   4.275   1.230   2.883
 6241TIP3    H218730   4.133   1.177   2.873
 6242TIP3   OH218731   6.033   0.265   3.995
 6242TIP3    H118732   6.078   0.183   3.974
 6242TIP3    H218733   6.069   0.329   3.933
 6243TIP3   OH218734   1.858   1.844  -0.017
 6243TIP3    H118735   1.873   1.750  -0.018
 6243TIP3    H218736   1.765   1.854  -0.037
 6244TIP3   OH218737   0.382   5.687   3.400
 6244TIP3    H118738   0.325   5.680   3.477
 6244TIP3    H218739   0.337   5.749   3.343
 6245TIP3   OH218740   2.057   5.634   3.232
 6245TIP3    H118741   2.100   5.582   3.164
 6245TIP3    H218742   2.114   5.626   3.308
 6246TIP3   OH218743   0.877   4.105   3.286
 6246TIP3    H118744   0.882   4.124   3.192
 6246TIP3    H218745   0.968   4.091   3.313
 6247TIP3   OH218746   4.904   3.118   1.271
 6247TIP3    H118747   4.917   3.206   1.236
 6247TIP3    H218748   4.828   3.125   1.328
 6248TIP3   OH218749   4.464   3.952   0.203
 6248TIP3    H118750   4.383   3.956   0.153
 6248TIP3    H218751   4.488   3.859   0.202
 6249TIP3   OH218752   0.578   2.724   3.616
 6249TIP3    H118753   0.483   2.720   3.602
 6249TIP3    H218754   0.588   2.772   3.698
 6250TIP3   OH218755   5.016   0.593   0.352
 6250TIP3    H118756   5.102   0.564   0.320
 6250TIP3    H218757   5.031   0.614   0.444
 6251TIP3   OH218758   4.216   1.093   2.558
 6251TIP3    H118759   4.235   1.073   2.650
 6251TIP3    H218760   4.199   1.007   2.518
 6252TIP3   OH218761   4.779   2.669   2.024
 6252TIP3    H118762   4.689   2.669   2.055
 6252TIP3    H218763   4.822   2.598   2.071
 6253TIP3   OH218764   3.443   0.043   1.316
 6253TIP3    H118765   3.386   0.068   1.243
 6253TIP3    H218766   3.515  -0.004   1.276
 6254TIP3   OH218767   4.684   0.009   3.672
 6254TIP3    H118768   4.619   0.076   3.691
 6254TIP3    H218769   4.660  -0.024   3.585
 6255TIP3   OH218770   5.621   2.162   4.299
 6255TIP3    H118771   5.532   2.156   4.335
 6255TIP3    H218772   5.617   2.109   4.219
 6256TIP3   OH218773   2.791   3.284   1.428
 6256TIP3    H118774   2.754   3.352   1.485
 6256TIP3    H218775   2.880   3.270   1.462
 6257TIP3   OH218776   0.452   0.156   1.856
 6257TIP3    H118777   0.419   0.239   1.892
 6257TIP3    H218778   0.387   0.132   1.790
 6258TIP3   OH218779   2.669   2.086   5.041
 6258TIP3    H118780   2.738   2.131   5.091
 6258TIP3    H218781   2.698   2.093   4.950
 6259TIP3   OH218782   0.688   2.530   4.680
 6259TIP3    H118783   0.698   2.625   4.687
 6259TIP3    H218784   0.676   2.500   4.770
 6260TIP3   OH218785   1.095   0.605   0.947
 6260TIP3    H118786   1.083   0.633   0.857
 6260TIP3    H218787   1.184   0.569   0.950
 6261TIP3   OH218788   5.777   3.583   4.265
 6261TIP3    H118789   5.742   3.652   4.321
 6261TIP3    H218790   5.772   3.504   4.318
 6262TIP3   OH218791   5.614   0.427   1.094
 6262TIP3    H118792   5.653   0.496   1.147
 6262TIP3    H218793   5.637   0.450   1.004
 6263TIP3   OH218794   5.537   1.238   1.510
 6263TIP3    H118795   5.565   1.308   1.451
 6263TIP3    H218796   5.458   1.202   1.470
 6264TIP3   OH218797   4.247   4.595   4.730
 6264TIP3    H118798   4.193   4.517   4.716
 6264TIP3    H218799   4.209   4.637   4.806
 6265TIP3   OH218800   4.466   2.228   2.902
 6265TIP3    H118801   4.472   2.187   2.988
 6265TIP3    H218802   4.452   2.321   2.921
 6266TIP3   OH218803   0.625   4.700   0.862
 6266TIP3    H118804   0.590   4.613   0.847
 6266TIP3    H218805   0.608   4.718   0.954
 6267TIP3   OH218806   0.689   4.677   1.172
 6267TIP3    H118807   0.702   4.586   1.147
 6267TIP3    H218808   0.706   4.679   1.267
 6268TIP3   OH218809   2.659   0.484   4.190
 6268TIP3    H118810   2.749   0.516   4.187
 6268TIP3    H218811   2.621   0.510   4.106
 6269TIP3   OH218812   5.241   0.174   5.128
 6269TIP3    H118813   5.283   0.112   5.188
 6269TIP3    H218814   5.221   0.122   5.050
 6270TIP3   OH218815   0.310   3.213   0.566
 6270TIP3    H118816   0.275   3.257   0.643
 6270TIP3    H218817   0.405   3.223   0.573
 6271TIP3   OH218818   6.066   3.318   0.203
 6271TIP3    H118819   6.025   3.251   0.257
 6271TIP3    H218820   6.020   3.313   0.119
 6272TIP3   OH218821   0.525   2.729   0.162
 6272TIP3    H118822   0.555   2.819   0.153
 6272TIP3    H218823   0.430   2.736   0.171
 6273TIP3   OH218824   6.315   0.240   4.492
 6273TIP3    H118825   6.403   0.277   4.497
 6273TIP3    H218826   6.272   0.271   4.572
 6274TIP3   OH218827   0.652   2.019   4.462
 6274TIP3    H118828   0.742   1.997   4.485
 6274TIP3    H218829   0.644   1.994   4.370
 6275TIP3   OH218830   5.458   5.483   2.015
 6275TIP3    H118831   5.448   5.575   1.989
 6275TIP3    H218832   5.528   5.483   2.079
 6276TIP3   OH218833   5.940   2.636   3.861
 6276TIP3    H118834   5.846   2.626   3.848
 6276TIP3    H218835   5.955   2.730   3.855
 6277TIP3   OH218836   0.542   5.772   4.102
 6277TIP3    H118837   0.615   5.826   4.072
 6277TIP3    H218838   0.528   5.799   4.193
 6278TIP3   OH218839   4.861   5.138   1.353
 6278TIP3    H118840   4.800   5.099   1.290
 6278TIP3    H218841   4.925   5.069   1.370
 6279TIP3   OH218842   6.007   3.155   3.530
 6279TIP3    H118843   6.091   3.201   3.521
 6279TIP3    H218844   5.979   3.174   3.620
 6280TIP3   OH218845   4.791   6.030   3.497
 6280TIP3    H118846   4.772   5.992   3.583
 6280TIP3    H218847   4.852   5.968   3.457
 6281TIP3   OH218848   4.805   5.972   0.443
 6281TIP3    H118849   4.761   5.918   0.507
 6281TIP3    H218850   4.741   6.040   0.420
 6282TIP3   OH218851   4.213   2.198   2.103
 6282TIP3    H118852   4.162   2.128   2.063
 6282TIP3    H218853   4.292   2.204   2.048
 6283TIP3   OH218854   1.338   5.082   0.289
 6283TIP3    H118855   1.378   5.133   0.359
 6283TIP3    H218856   1.253   5.057   0.324
 6284TIP3   OH218857   3.639   1.801   4.454
 6284TIP3    H118858   3.588   1.876   4.424
 6284TIP3    H218859   3.578   1.728   4.451
 6285TIP3   OH218860   4.165   3.742   0.388
 6285TIP3    H118861   4.156   3.685   0.312
 6285TIP3    H218862   4.076   3.772   0.406
 6286TIP3   OH218863   6.197   4.337   1.444
 6286TIP3    H118864   6.142   4.402   1.401
 6286TIP3    H218865   6.212   4.373   1.532
 6287TIP3   OH218866   2.933   0.588   4.906
 6287TIP3    H118867   3.018   0.546   4.891
 6287TIP3    H218868   2.869   0.523   4.875
 6288TIP3   OH218869   5.908   1.757   1.237
 6288TIP3    H118870   5.857   1.763   1.156
 6288TIP3    H218871   5.974   1.826   1.229
 6289TIP3   OH218872   1.278   2.432   2.148
 6289TIP3    H118873   1.266   2.460   2.239
 6289TIP3    H218874   1.348   2.489   2.115
 6290TIP3   OH218875   2.078   3.446   0.886
 6290TIP3    H118876   2.167   3.415   0.866
 6290TIP3    H218877   2.087   3.494   0.968
 6291TIP3   OH218878   0.380   1.306   1.602
 6291TIP3    H118879   0.358   1.241   1.669
 6291TIP3    H218880   0.468   1.335   1.625
 6292TIP3   OH218881   0.895   0.704   0.063
 6292TIP3    H118882   0.888   0.610   0.080
 6292TIP3    H218883   0.931   0.709  -0.026
 6293TIP3   OH218884   2.395   4.238   3.587
 6293TIP3    H118885   2.467   4.261   3.528
 6293TIP3    H218886   2.438   4.196   3.662
 6294TIP3   OH218887   3.074   5.320   2.115
 6294TIP3    H118888   3.032   5.318   2.029
 6294TIP3    H218889   3.025   5.388   2.163
 6295TIP3   OH218890   0.512   0.304   0.643
 6295TIP3    H118891   0.488   0.349   0.724
 6295TIP3    H218892   0.605   0.322   0.631
 6296TIP3   OH218893   3.143   3.949   4.584
 6296TIP3    H118894   3.121   3.877   4.643
 6296TIP3    H218895   3.087   3.935   4.507
 6297TIP3   OH218896   4.027   1.519   4.651
 6297TIP3    H118897   4.121   1.527   4.640
 6297TIP3    H218898   3.998   1.606   4.678
 6298TIP3   OH218899   1.558   3.939   0.846
 6298TIP3    H118900   1.543   4.033   0.862
 6298TIP3    H218901   1.592   3.935   0.757
 6299TIP3   OH218902   2.077   5.083   4.944
 6299TIP3    H118903   2.041   5.024   5.010
 6299TIP3    H218904   2.120   5.153   4.995
 6300TIP3   OH218905   5.862   3.941   4.960
 6300TIP3    H118906   5.928   4.011   4.966
 6300TIP3    H218907   5.779   3.988   4.950
 6301TIP3   OH218908   5.703   5.173   4.603
 6301TIP3    H118909   5.790   5.176   4.563
 6301TIP3    H218910   5.666   5.089   4.575
 6302TIP3   OH218911   5.552   2.971   0.482
 6302TIP3    H118912   5.492   2.943   0.412
 6302TIP3    H218913   5.499   2.968   0.561
 6303TIP3   OH218914   4.912   1.512   3.075
 6303TIP3    H118915   4.843   1.543   3.134
 6303TIP3    H218916   4.931   1.423   3.104
 6304TIP3   OH218917   3.848   2.376   1.549
 6304TIP3    H118918   3.844   2.343   1.638
 6304TIP3    H218919   3.919   2.327   1.508
 6305TIP3   OH218920   2.765   0.259   3.391
 6305TIP3    H118921   2.745   0.282   3.300
 6305TIP3    H218922   2.860   0.265   3.397
 6306TIP3   OH218923   2.767   5.659   1.193
 6306TIP3    H118924   2.712   5.708   1.131
 6306TIP3    H218925   2.853   5.658   1.152
 6307TIP3   OH218926   3.648   1.153   0.883
 6307TIP3    H118927   3.660   1.115   0.796
 6307TIP3    H218928   3.731   1.135   0.928
 6308TIP3   OH218929   1.427   1.051   4.350
 6308TIP3    H118930   1.475   1.116   4.298
 6308TIP3    H218931   1.341   1.046   4.308
 6309TIP3   OH218932   5.557   2.817   1.939
 6309TIP3    H118933   5.484   2.762   1.966
 6309TIP3    H218934   5.523   2.868   1.866
 6310TIP3   OH218935   5.349   1.683   4.910
 6310TIP3    H118936   5.296   1.603   4.905
 6310TIP3    H218937   5.292   1.751   4.874
 6311TIP3   OH218938   6.006   5.281   4.859
 6311TIP3    H118939   6.070   5.215   4.830
 6311TIP3    H218940   6.024   5.357   4.804
 6312TIP3   OH218941   2.102   4.498   3.645
 6312TIP3    H118942   2.043   4.556   3.694
 6312TIP3    H218943   2.089   4.412   3.685
 6313TIP3   OH218944   5.584   3.748   4.756
 6313TIP3    H118945   5.647   3.693   4.710
 6313TIP3    H218946   5.578   3.827   4.703
 6314TIP3   OH218947   4.799   0.957   0.514
 6314TIP3    H118948   4.847   1.039   0.507
 6314TIP3    H218949   4.802   0.920   0.425
 6315TIP3   OH218950   3.376   5.083   2.254
 6315TIP3    H118951   3.408   5.143   2.186
 6315TIP3    H218952   3.300   5.041   2.215
 6316TIP3   OH218953   0.726   4.881   3.885
 6316TIP3    H118954   0.640   4.882   3.842
 6316TIP3    H218955   0.779   4.941   3.833
 6317TIP3   OH218956   0.290   5.776   3.650
 6317TIP3    H118957   0.254   5.700   3.696
 6317TIP3    H218958   0.360   5.808   3.706
 6318TIP3   OH218959   1.358   5.169  -0.001
 6318TIP3    H118960   1.366   5.118   0.080
 6318TIP3    H218961   1.264   5.174  -0.018
 6319TIP3   OH218962   4.772   0.106   3.215
 6319TIP3    H118963   4.732   0.144   3.137
 6319TIP3    H218964   4.764   0.173   3.283
 6320TIP3   OH218965   5.810   3.285   2.145
 6320TIP3    H118966   5.795   3.349   2.214
 6320TIP3    H218967   5.750   3.213   2.166
 6321TIP3   OH218968   5.103   0.712   4.819
 6321TIP3    H118969   5.106   0.764   4.899
 6321TIP3    H218970   5.191   0.676   4.811
 6322TIP3   OH218971   3.864   5.863   2.347
 6322TIP3    H118972   3.865   5.946   2.298
 6322TIP3    H218973   3.856   5.890   2.438
 6323TIP3   OH218974   5.749   0.717   2.445
 6323TIP3    H118975   5.810   0.646   2.426
 6323TIP3    H218976   5.733   0.711   2.539
 6324TIP3   OH218977   4.831   5.594   0.178
 6324TIP3    H118978   4.773   5.526   0.142
 6324TIP3    H218979   4.916   5.551   0.188
 6325TIP3   OH218980   3.889   5.945   4.374
 6325TIP3    H118981   3.941   5.944   4.293
 6325TIP3    H218982   3.945   5.902   4.438
 6326TIP3   OH218983   0.557   2.095   1.850
 6326TIP3    H118984   0.475   2.114   1.804
 6326TIP3    H218985   0.532   2.084   1.942
 6327TIP3   OH218986   2.272   2.240   1.987
 6327TIP3    H118987   2.312   2.252   1.901
 6327TIP3    H218988   2.230   2.154   1.982
 6328TIP3   OH218989   1.839   3.978   1.704
 6328TIP3    H118990   1.744   3.975   1.696
 6328TIP3    H218991   1.856   3.994   1.797
 6329TIP3   OH218992   5.030   0.109   2.206
 6329TIP3    H118993   5.019   0.051   2.130
 6329TIP3    H218994   4.942   0.144   2.223
 6330TIP3   OH218995   3.855   0.244   2.824
 6330TIP3    H118996   3.772   0.204   2.800
 6330TIP3    H218997   3.889   0.280   2.742
 6331TIP3   OH218998   4.056   4.138   2.849
 6331TIP3    H118999   4.017   4.226   2.849
 6331TIP3    H219000   4.011   4.092   2.920
 6332TIP3   OH219001   3.446   3.295   3.545
 6332TIP3    H119002   3.451   3.293   3.449
 6332TIP3    H219003   3.520   3.242   3.574
 6333TIP3   OH219004   6.116   4.493   2.021
 6333TIP3    H119005   6.184   4.549   1.984
 6333TIP3    H219006   6.156   4.454   2.099
 6334TIP3   OH219007   3.387   5.335   4.383
 6334TIP3    H119008   3.453   5.396   4.418
 6334TIP3    H219009   3.358   5.286   4.460
 6335TIP3   OH219010   0.045   2.929   3.297
 6335TIP3    H119011   0.127   2.963   3.331
 6335TIP3    H219012   0.014   2.867   3.363
 6336TIP3   OH219013   5.489   3.206   3.586
 6336TIP3    H119014   5.463   3.114   3.590
 6336TIP3    H219015   5.578   3.205   3.551
 6337TIP3   OH219016   0.900   3.326   2.575
 6337TIP3    H119017   0.888   3.409   2.620
 6337TIP3    H219018   0.992   3.303   2.588
 6338TIP3   OH219019   5.065   2.926   0.369
 6338TIP3    H119020   5.028   2.993   0.426
 6338TIP3    H219021   5.141   2.893   0.417
 6339TIP3   OH219022   6.305   0.785   2.385
 6339TIP3    H119023   6.361   0.728   2.438
 6339TIP3    H219024   6.304   0.868   2.433
 6340TIP3   OH219025   5.883   4.807   2.562
 6340TIP3    H119026   5.862   4.848   2.479
 6340TIP3    H219027   5.905   4.716   2.540
 6341TIP3   OH219028   2.043   5.136   2.543
 6341TIP3    H119029   2.133   5.123   2.512
 6341TIP3    H219030   2.052   5.156   2.636
 6342TIP3   OH219031   1.929   3.738   2.497
 6342TIP3    H119032   1.928   3.832   2.515
 6342TIP3    H219033   1.866   3.701   2.558
 6343TIP3   OH219034   5.643   0.750   3.966
 6343TIP3    H119035   5.706   0.729   3.897
 6343TIP3    H219036   5.598   0.828   3.934
 6344TIP3   OH219037   4.159   4.282   3.507
 6344TIP3    H119038   4.135   4.191   3.487
 6344TIP3    H219039   4.092   4.312   3.568
 6345TIP3   OH219040   3.621   1.444   0.315
 6345TIP3    H119041   3.531   1.455   0.283
 6345TIP3    H219042   3.614   1.457   0.410
 6346TIP3   OH219043   5.642   5.778   2.277
 6346TIP3    H119044   5.658   5.685   2.295
 6346TIP3    H219045   5.688   5.825   2.346
 6347TIP3   OH219046   2.528   4.602   1.794
 6347TIP3    H119047   2.465   4.674   1.795
 6347TIP3    H219048   2.533   4.575   1.702
 6348TIP3   OH219049   4.756   3.427   4.901
 6348TIP3    H119050   4.715   3.349   4.864
 6348TIP3    H219051   4.709   3.500   4.863
 6349TIP3   OH219052   2.079   0.610   3.243
 6349TIP3    H119053   2.072   0.556   3.322
 6349TIP3    H219054   2.155   0.574   3.197
 6350TIP3   OH219055   2.421   0.457   2.620
 6350TIP3    H119056   2.407   0.534   2.675
 6350TIP3    H219057   2.340   0.448   2.570
 6351TIP3   OH219058   3.044   0.649   2.257
 6351TIP3    H119059   2.972   0.711   2.242
 6351TIP3    H219060   3.001   0.567   2.278
 6352TIP3   OH219061   4.072   4.842   4.872
 6352TIP3    H119062   4.146   4.899   4.850
 6352TIP3    H219063   4.063   4.851   4.967
 6353TIP3   OH219064   6.263   2.342   4.507
 6353TIP3    H119065   6.340   2.301   4.468
 6353TIP3    H219066   6.255   2.426   4.461
 6354TIP3   OH219067   5.834   4.769   1.627
 6354TIP3    H119068   5.783   4.709   1.573
 6354TIP3    H219069   5.884   4.713   1.685
 6355TIP3   OH219070   6.034   3.843   2.010
 6355TIP3    H119071   6.049   3.928   1.968
 6355TIP3    H219072   5.938   3.836   2.015
 6356TIP3   OH219073   5.944   5.951   0.351
 6356TIP3    H119074   5.880   6.022   0.346
 6356TIP3    H219075   5.897   5.879   0.393
 6357TIP3   OH219076   1.696   2.352   1.291
 6357TIP3    H119077   1.611   2.389   1.312
 6357TIP3    H219078   1.691   2.260   1.318
 6358TIP3   OH219079   2.208   4.766   0.239
 6358TIP3    H119080   2.122   4.787   0.275
 6358TIP3    H219081   2.263   4.751   0.316
 6359TIP3   OH219082   6.336   1.107   3.240
 6359TIP3    H119083   6.340   1.199   3.213
 6359TIP3    H219084   6.303   1.061   3.163
 6360TIP3   OH219085   6.313   5.791   1.778
 6360TIP3    H119086   6.405   5.813   1.764
 6360TIP3    H219087   6.269   5.825   1.700
 6361TIP3   OH219088   4.799   4.686   2.111
 6361TIP3    H119089   4.760   4.609   2.070
 6361TIP3    H219090   4.877   4.705   2.058
 6362TIP3   OH219091   3.498   0.421   2.315
 6362TIP3    H119092   3.504   0.329   2.293
 6362TIP3    H219093   3.433   0.424   2.386
 6363TIP3   OH219094   5.911   5.078   1.079
 6363TIP3    H119095   5.833   5.044   1.035
 6363TIP3    H219096   5.966   5.112   1.009
 6364TIP3   OH219097   2.903   5.046   4.170
 6364TIP3    H119098   2.929   5.134   4.143
 6364TIP3    H219099   2.822   5.058   4.219
 6365TIP3   OH219100   6.231   1.154   2.261
 6365TIP3    H119101   6.209   1.061   2.271
 6365TIP3    H219102   6.247   1.164   2.167
 6366TIP3   OH219103   6.198   1.282   4.534
 6366TIP3    H119104   6.128   1.292   4.470
 6366TIP3    H219105   6.186   1.355   4.595
 6367TIP3   OH219106   2.998   2.223   0.990
 6367TIP3    H119107   3.003   2.315   0.962
 6367TIP3    H219108   3.026   2.224   1.082
 6368TIP3   OH219109   4.558   3.210   2.267
 6368TIP3    H119110   4.623   3.140   2.267
 6368TIP3    H219111   4.487   3.176   2.211
 6369TIP3   OH219112   4.937   5.409   0.523
 6369TIP3    H119113   4.949   5.503   0.530
 6369TIP3    H219114   4.996   5.373   0.589
 6370TIP3   OH219115   1.957   4.355   1.983
 6370TIP3    H119116   2.049   4.348   2.010
 6370TIP3    H219117   1.918   4.272   2.010
 6371TIP3   OH219118   2.766   1.729   0.596
 6371TIP3    H119119   2.723   1.647   0.618
 6371TIP3    H219120   2.694   1.790   0.579
 6372TIP3   OH219121   5.059   2.933   0.870
 6372TIP3    H119122   5.126   2.922   0.937
 6372TIP3    H219123   5.093   3.003   0.814
 6373TIP3   OH219124   3.267   2.551   0.713
 6373TIP3    H119125   3.296   2.465   0.743
 6373TIP3    H219126   3.309   2.613   0.774
 6374TIP3   OH219127   3.312   3.454   2.425
 6374TIP3    H119128   3.341   3.518   2.489
 6374TIP3    H219129   3.375   3.461   2.353
 6375TIP3   OH219130   3.954   0.838   3.359
 6375TIP3    H119131   4.008   0.761   3.375
 6375TIP3    H219132   3.983   0.902   3.424
 6376TIP3   OH219133   5.301   5.129   4.966
 6376TIP3    H119134   5.349   5.049   4.943
 6376TIP3    H219135   5.312   5.137   5.061
 6377TIP3   OH219136   6.331   5.857   0.743
 6377TIP3    H119137   6.328   5.952   0.732
 6377TIP3    H219138   6.239   5.830   0.752
 6378TIP3   OH219139   0.829   0.337   4.517
 6378TIP3    H119140   0.752   0.329   4.573
 6378TIP3    H219141   0.857   0.428   4.528
 6379TIP3   OH219142   2.224   4.058   4.652
 6379TIP3    H119143   2.207   3.968   4.680
 6379TIP3    H219144   2.318   4.060   4.633
 6380TIP3   OH219145   1.376   1.541   3.914
 6380TIP3    H119146   1.419   1.527   3.998
 6380TIP3    H219147   1.395   1.462   3.863
 6381TIP3   OH219148   5.937   1.587   2.656
 6381TIP3    H119149   5.901   1.544   2.733
 6381TIP3    H219150   6.002   1.526   2.622
 6382TIP3   OH219151   4.370   0.549   4.006
 6382TIP3    H119152   4.442   0.526   4.065
 6382TIP3    H219153   4.295   0.501   4.039
 6383TIP3   OH219154   2.941   4.410   3.433
 6383TIP3    H119155   2.908   4.332   3.477
 6383TIP3    H219156   2.919   4.398   3.341
 6384TIP3   OH219157   1.761   0.662   3.425
 6384TIP3    H119158   1.746   0.568   3.411
 6384TIP3    H219159   1.673   0.698   3.437
 6385TIP3   OH219160   0.154   3.673   2.072
 6385TIP3    H119161   0.211   3.631   2.136
 6385TIP3    H219162   0.069   3.632   2.084
 6386TIP3   OH219163   4.495   4.976   2.779
 6386TIP3    H119164   4.506   4.990   2.685
 6386TIP3    H219165   4.435   5.045   2.806
 6387TIP3   OH219166   4.334   3.939   3.168
 6387TIP3    H119167   4.263   3.927   3.106
 6387TIP3    H219168   4.322   3.870   3.233
 6388TIP3   OH219169   4.230   3.370   2.771
 6388TIP3    H119170   4.141   3.379   2.736
 6388TIP3    H219171   4.269   3.456   2.759
 6389TIP3   OH219172   2.666   4.087   5.179
 6389TIP3    H119173   2.620   4.086   5.095
 6389TIP3    H219174   2.613   4.145   5.234
 6390TIP3   OH219175   1.236   2.578   0.819
 6390TIP3    H119176   1.189   2.543   0.895
 6390TIP3    H219177   1.231   2.673   0.830
 6391TIP3   OH219178   3.514   5.065   4.334
 6391TIP3    H119179   3.506   5.160   4.338
 6391TIP3    H219180   3.579   5.044   4.401
 6392TIP3   OH219181   2.488   2.296   3.039
 6392TIP3    H119182   2.412   2.267   2.988
 6392TIP3    H219183   2.454   2.368   3.093
 6393TIP3   OH219184   3.442   2.051   2.853
 6393TIP3    H119185   3.426   2.123   2.791
 6393TIP3    H219186   3.531   2.022   2.833
 6394TIP3   OH219187   4.751   3.407   1.899
 6394TIP3    H119188   4.663   3.445   1.898
 6394TIP3    H219189   4.802   3.466   1.954
 6395TIP3   OH219190   4.398   1.537   0.854
 6395TIP3    H119191   4.373   1.449   0.824
 6395TIP3    H219192   4.441   1.523   0.938
 6396TIP3   OH219193   5.763   0.577   1.557
 6396TIP3    H119194   5.733   0.508   1.617
 6396TIP3    H219195   5.837   0.617   1.602
 6397TIP3   OH219196   5.981   3.417   5.071
 6397TIP3    H119197   5.982   3.335   5.021
 6397TIP3    H219198   6.072   3.429   5.099
 6398TIP3   OH219199   2.770   3.350   0.703
 6398TIP3    H119200   2.775   3.441   0.672
 6398TIP3    H219201   2.735   3.301   0.628
 6399TIP3   OH219202   2.981   4.737   2.011
 6399TIP3    H119203   3.012   4.647   2.007
 6399TIP3    H219204   2.968   4.762   1.919
 6400TIP3   OH219205   0.094   4.113   4.191
 6400TIP3    H119206   0.158   4.087   4.258
 6400TIP3    H219207   0.021   4.052   4.203
 6401TIP3   OH219208   2.927   5.095   3.211
 6401TIP3    H119209   2.956   5.030   3.148
 6401TIP3    H219210   2.893   5.044   3.284
 6402TIP3   OH219211   3.228   4.334   1.837
 6402TIP3    H119212   3.241   4.397   1.765
 6402TIP3    H219213   3.193   4.256   1.794
 6403TIP3   OH219214   0.896   1.490   1.010
 6403TIP3    H119215   0.883   1.558   1.076
 6403TIP3    H219216   0.927   1.414   1.060
 6404TIP3   OH219217   0.517   4.169   3.175
 6404TIP3    H119218   0.514   4.080   3.211
 6404TIP3    H219219   0.514   4.226   3.252
 6405TIP3   OH219220   6.278   5.010   2.806
 6405TIP3    H119221   6.334   5.051   2.871
 6405TIP3    H219222   6.286   5.066   2.728
 6406TIP3   OH219223   2.379   3.162   1.449
 6406TIP3    H119224   2.296   3.160   1.401
 6406TIP3    H219225   2.443   3.128   1.387
 6407TIP3   OH219226   3.984   3.343   4.947
 6407TIP3    H119227   3.926   3.321   4.874
 6407TIP3    H219228   4.058   3.283   4.937
 6408TIP3   OH219229   2.394   2.236   1.735
 6408TIP3    H119230   2.375   2.164   1.675
 6408TIP3    H219231   2.475   2.274   1.701
 6409TIP3   OH219232   3.238   1.642   1.111
 6409TIP3    H119233   3.214   1.651   1.203
 6409TIP3    H219234   3.270   1.553   1.103
 6410TIP3   OH219235   2.317   2.148   0.506
 6410TIP3    H119236   2.387   2.187   0.557
 6410TIP3    H219237   2.238   2.194   0.534
 6411TIP3   OH219238   1.240   0.173   1.835
 6411TIP3    H119239   1.148   0.165   1.863
 6411TIP3    H219240   1.235   0.187   1.740
 6412TIP3   OH219241   1.876   2.648   3.927
 6412TIP3    H119242   1.806   2.635   3.991
 6412TIP3    H219243   1.882   2.743   3.917
 6413TIP3   OH219244   0.078   2.561   5.102
 6413TIP3    H119245   0.097   2.472   5.074
 6413TIP3    H219246   0.095   2.561   5.196
 6414TIP3   OH219247   2.214   4.108   4.976
 6414TIP3    H119248   2.183   4.026   5.016
 6414TIP3    H219249   2.158   4.120   4.899
 6415TIP3   OH219250   1.757   3.471   4.408
 6415TIP3    H119251   1.814   3.519   4.469
 6415TIP3    H219252   1.806   3.470   4.326
 6416TIP3   OH219253   4.023   2.797   0.457
 6416TIP3    H119254   3.938   2.820   0.496
 6416TIP3    H219255   4.001   2.736   0.387
 6417TIP3   OH219256   5.954   4.327   4.587
 6417TIP3    H119257   6.012   4.398   4.560
 6417TIP3    H219258   5.902   4.365   4.659
 6418TIP3   OH219259   5.925   5.656   2.192
 6418TIP3    H119260   5.893   5.743   2.171
 6418TIP3    H219261   5.869   5.625   2.263
 6419TIP3   OH219262   2.288   0.270   1.488
 6419TIP3    H119263   2.276   0.184   1.447
 6419TIP3    H219264   2.347   0.316   1.429
 6420TIP3   OH219265   3.545   0.208   2.140
 6420TIP3    H119266   3.608   0.272   2.106
 6420TIP3    H219267   3.474   0.208   2.076
 6421TIP3   OH219268   5.104   2.543   3.436
 6421TIP3    H119269   5.146   2.458   3.446
 6421TIP3    H219270   5.174   2.607   3.451
 6422TIP3   OH219271   3.801   4.131   4.099
 6422TIP3    H119272   3.777   4.203   4.156
 6422TIP3    H219273   3.727   4.123   4.038
 6423TIP3   OH219274   5.565   0.594   3.579
 6423TIP3    H119275   5.507   0.612   3.653
 6423TIP3    H219276   5.651   0.582   3.620
 6424TIP3   OH219277   0.346   0.487   2.429
 6424TIP3    H119278   0.395   0.524   2.355
 6424TIP3    H219279   0.259   0.470   2.394
 6425TIP3   OH219280   5.672   3.233   3.180
 6425TIP3    H119281   5.737   3.295   3.212
 6425TIP3    H219282   5.722   3.171   3.127
 6426TIP3   OH219283   1.054   2.259   3.464
 6426TIP3    H119284   0.975   2.290   3.508
 6426TIP3    H219285   1.023   2.211   3.388
 6427TIP3   OH219286   3.882   0.961   2.426
 6427TIP3    H119287   3.852   1.051   2.418
 6427TIP3    H219288   3.827   0.912   2.365
 6428TIP3   OH219289   4.378   1.311   2.470
 6428TIP3    H119290   4.451   1.334   2.527
 6428TIP3    H219291   4.351   1.224   2.499
 6429TIP3   OH219292   3.195   0.730   0.729
 6429TIP3    H119293   3.200   0.800   0.664
 6429TIP3    H219294   3.180   0.775   0.812
 6430TIP3   OH219295   1.195   1.140   5.029
 6430TIP3    H119296   1.131   1.128   5.099
 6430TIP3    H219297   1.268   1.185   5.071
 6431TIP3   OH219298   5.975   2.457   2.715
 6431TIP3    H119299   5.948   2.492   2.800
 6431TIP3    H219300   5.901   2.404   2.686
 6432TIP3   OH219301   2.334   3.497   4.855
 6432TIP3    H119302   2.345   3.411   4.896
 6432TIP3    H219303   2.290   3.478   4.772
 6433TIP3   OH219304   6.048   0.446   1.396
 6433TIP3    H119305   5.968   0.408   1.431
 6433TIP3    H219306   6.020   0.527   1.354
 6434TIP3   OH219307   3.534   2.892   0.657
 6434TIP3    H119308   3.487   2.966   0.693
 6434TIP3    H219309   3.534   2.827   0.727
 6435TIP3   OH219310   2.081   6.012   0.571
 6435TIP3    H119311   1.991   6.018   0.602
 6435TIP3    H219312   2.083   5.932   0.518
 6436TIP3   OH219313   0.221   4.604   4.278
 6436TIP3    H119314   0.283   4.568   4.215
 6436TIP3    H219315   0.251   4.693   4.294
 6437TIP3   OH219316   2.268   1.004   1.747
 6437TIP3    H119317   2.244   1.062   1.820
 6437TIP3    H219318   2.348   1.043   1.712
 6438TIP3   OH219319   5.843   5.802   1.840
 6438TIP3    H119320   5.913   5.777   1.780
 6438TIP3    H219321   5.859   5.895   1.857
 6439TIP3   OH219322   4.061   5.254   2.749
 6439TIP3    H119323   3.972   5.245   2.783
 6439TIP3    H219324   4.059   5.336   2.699
 6440TIP3   OH219325   2.604   1.131   0.395
 6440TIP3    H119326   2.644   1.218   0.383
 6440TIP3    H219327   2.651   1.094   0.470
 6441TIP3   OH219328   4.339   1.357   3.788
 6441TIP3    H119329   4.336   1.416   3.712
 6441TIP3    H219330   4.319   1.414   3.862
 6442TIP3   OH219331   0.135   4.287   0.907
 6442TIP3    H119332   0.042   4.267   0.916
 6442TIP3    H219333   0.140   4.382   0.907
 6443TIP3   OH219334   2.813   3.111   2.972
 6443TIP3    H119335   2.858   3.145   2.894
 6443TIP3    H219336   2.739   3.062   2.938
 6444TIP3   OH219337   2.936   5.496   2.276
 6444TIP3    H119338   2.876   5.536   2.213
 6444TIP3    H219339   2.995   5.567   2.301
 6445TIP3   OH219340   1.512   1.080   3.279
 6445TIP3    H119341   1.593   1.129   3.264
 6445TIP3    H219342   1.457   1.101   3.203
 6446TIP3   OH219343   2.358   5.555   1.255
 6446TIP3    H119344   2.415   5.479   1.258
 6446TIP3    H219345   2.381   5.606   1.333
 6447TIP3   OH219346   6.312   4.381   3.425
 6447TIP3    H119347   6.237   4.326   3.402
 6447TIP3    H219348   6.279   4.438   3.494
 6448TIP3   OH219349   2.006   5.409   1.003
 6448TIP3    H119350   2.041   5.322   0.982
 6448TIP3    H219351   1.979   5.404   1.094
 6449TIP3   OH219352   5.215   4.039   2.204
 6449TIP3    H119353   5.213   3.979   2.129
 6449TIP3    H219354   5.226   4.126   2.165
 6450TIP3   OH219355   3.373   0.058   2.407
 6450TIP3    H119356   3.465   0.085   2.406
 6450TIP3    H219357   3.341   0.079   2.319
 6451TIP3   OH219358   3.833   2.965   3.921
 6451TIP3    H119359   3.907   3.018   3.950
 6451TIP3    H219360   3.872   2.900   3.862
 6452TIP3   OH219361   2.014   1.146   4.256
 6452TIP3    H119362   1.920   1.158   4.249
 6452TIP3    H219363   2.027   1.051   4.253
 6453TIP3   OH219364   5.723   3.908   3.660
 6453TIP3    H119365   5.708   3.959   3.581
 6453TIP3    H219366   5.672   3.828   3.646
 6454TIP3   OH219367   3.480   4.906   2.794
 6454TIP3    H119368   3.567   4.918   2.833
 6454TIP3    H219369   3.486   4.822   2.748
 6455TIP3   OH219370   5.286   4.109   1.482
 6455TIP3    H119371   5.359   4.107   1.420
 6455TIP3    H219372   5.309   4.043   1.548
 6456TIP3   OH219373   3.501   5.482   3.880
 6456TIP3    H119374   3.433   5.417   3.865
 6456TIP3    H219375   3.582   5.430   3.887
 6457TIP3   OH219376   0.042   0.763   2.686
 6457TIP3    H119377  -0.043   0.807   2.695
 6457TIP3    H219378   0.106   0.834   2.686
 6458TIP3   OH219379   0.503   4.452   0.945
 6458TIP3    H119380   0.457   4.433   1.027
 6458TIP3    H219381   0.524   4.367   0.909
 6459TIP3   OH219382   4.520   2.348   2.202
 6459TIP3    H119383   4.611   2.326   2.219
 6459TIP3    H219384   4.488   2.279   2.144
 6460TIP3   OH219385   2.914   0.035   1.247
 6460TIP3    H119386   2.935   0.119   1.206
 6460TIP3    H219387   2.921  -0.028   1.176
 6461TIP3   OH219388   2.908   3.288   4.991
 6461TIP3    H119389   2.815   3.309   5.002
 6461TIP3    H219390   2.927   3.226   5.062
 6462TIP3   OH219391   0.956   2.054   2.701
 6462TIP3    H119392   1.042   2.032   2.738
 6462TIP3    H219393   0.972   2.071   2.609
 6463TIP3   OH219394   3.304   5.719   2.527
 6463TIP3    H119395   3.247   5.692   2.599
 6463TIP3    H219396   3.384   5.749   2.571
 6464TIP3   OH219397   5.123   4.597   0.058
 6464TIP3    H119398   5.212   4.632   0.056
 6464TIP3    H219399   5.100   4.597   0.151
 6465TIP3   OH219400   6.184   5.115   4.465
 6465TIP3    H119401   6.216   5.079   4.547
 6465TIP3    H219402   6.248   5.183   4.442
 6466TIP3   OH219403   3.340   3.077   0.979
 6466TIP3    H119404   3.377   3.005   1.031
 6466TIP3    H219405   3.381   3.068   0.893
 6467TIP3   OH219406   3.885   0.198   3.980
 6467TIP3    H119407   3.939   0.272   3.950
 6467TIP3    H219408   3.801   0.238   4.001
 6468TIP3   OH219409   6.047   2.266   0.132
 6468TIP3    H119410   6.079   2.178   0.154
 6468TIP3    H219411   6.126   2.318   0.120
 6469TIP3   OH219412   2.797   1.600   4.630
 6469TIP3    H119413   2.724   1.634   4.681
 6469TIP3    H219414   2.759   1.532   4.575
 6470TIP3   OH219415   0.852   5.048   3.244
 6470TIP3    H119416   0.859   5.113   3.174
 6470TIP3    H219417   0.872   4.965   3.202
 6471TIP3   OH219418   3.262   4.999   3.588
 6471TIP3    H119419   3.313   4.928   3.549
 6471TIP3    H219420   3.184   4.956   3.623
 6472TIP3   OH219421   2.138   5.109   1.294
 6472TIP3    H119422   2.044   5.125   1.296
 6472TIP3    H219423   2.165   5.117   1.386
 6473TIP3   OH219424   4.999   4.555   2.549
 6473TIP3    H119425   4.976   4.504   2.471
 6473TIP3    H219426   4.929   4.535   2.612
 6474TIP3   OH219427   1.245   0.132   4.855
 6474TIP3    H119428   1.226   0.206   4.798
 6474TIP3    H219429   1.178   0.136   4.924
 6475TIP3   OH219430   5.471   4.850   4.685
 6475TIP3    H119431   5.435   4.829   4.771
 6475TIP3    H219432   5.456   4.944   4.675
 6476TIP3   OH219433   5.449   0.406   1.602
 6476TIP3    H119434   5.409   0.320   1.618
 6476TIP3    H219435   5.415   0.433   1.516
 6477TIP3   OH219436   2.326   1.546   3.060
 6477TIP3    H119437   2.390   1.584   3.120
 6477TIP3    H219438   2.253   1.521   3.115
 6478TIP3   OH219439   2.864   3.539   1.206
 6478TIP3    H119440   2.805   3.593   1.259
 6478TIP3    H219441   2.853   3.451   1.240
 6479TIP3   OH219442   2.825   5.076   1.812
 6479TIP3    H119443   2.778   5.111   1.737
 6479TIP3    H219444   2.843   4.984   1.790
 6480TIP3   OH219445   4.184   1.452   4.349
 6480TIP3    H119446   4.226   1.417   4.428
 6480TIP3    H219447   4.134   1.378   4.314
 6481TIP3   OH219448   6.086   4.117   4.035
 6481TIP3    H119449   5.991   4.107   4.028
 6481TIP3    H219450   6.100   4.210   4.050
 6482TIP3   OH219451   0.438   2.925   4.989
 6482TIP3    H119452   0.445   2.881   4.904
 6482TIP3    H219453   0.346   2.915   5.013
 6483TIP3   OH219454   1.734   5.742   0.113
 6483TIP3    H119455   1.814   5.726   0.064
 6483TIP3    H219456   1.697   5.821   0.074
 6484TIP3   OH219457   3.019   1.543   0.181
 6484TIP3    H119458   3.049   1.603   0.249
 6484TIP3    H219459   2.956   1.595   0.130
 6485TIP3   OH219460   5.125   5.332   0.697
 6485TIP3    H119461   5.139   5.244   0.733
 6485TIP3    H219462   5.158   5.391   0.765
 6486TIP3   OH219463   0.868   3.662   1.126
 6486TIP3    H119464   0.959   3.637   1.140
 6486TIP3    H219465   0.841   3.702   1.209
 6487TIP3   OH219466   3.930   3.449   1.904
 6487TIP3    H119467   3.838   3.467   1.924
 6487TIP3    H219468   3.929   3.418   1.813
 6488TIP3   OH219469   6.269   4.780   2.518
 6488TIP3    H119470   6.355   4.799   2.557
 6488TIP3    H219471   6.261   4.685   2.524
 6489TIP3   OH219472   3.016   2.712   2.958
 6489TIP3    H119473   3.030   2.765   3.037
 6489TIP3    H219474   3.096   2.724   2.907
 6490TIP3   OH219475   2.575   4.472   2.532
 6490TIP3    H119476   2.510   4.401   2.529
 6490TIP3    H219477   2.649   4.438   2.482
 6491TIP3   OH219478   1.089   4.347   1.552
 6491TIP3    H119479   1.179   4.320   1.572
 6491TIP3    H219480   1.098   4.437   1.519
 6492TIP3   OH219481   1.320   3.408   5.075
 6492TIP3    H119482   1.347   3.402   5.167
 6492TIP3    H219483   1.386   3.462   5.033
 6493TIP3   OH219484   1.679   4.932   2.201
 6493TIP3    H119485   1.741   4.962   2.135
 6493TIP3    H219486   1.618   5.004   2.212
 6494TIP3   OH219487   4.890   4.484   3.261
 6494TIP3    H119488   4.810   4.512   3.306
 6494TIP3    H219489   4.874   4.506   3.169
 6495TIP3   OH219490   3.330   3.116   4.949
 6495TIP3    H119491   3.402   3.122   4.887
 6495TIP3    H219492   3.328   3.024   4.975
 6496TIP3   OH219493   4.233   2.029   2.348
 6496TIP3    H119494   4.259   2.082   2.273
 6496TIP3    H219495   4.309   1.974   2.367
 6497TIP3   OH219496   0.929   0.579   1.525
 6497TIP3    H119497   0.880   0.631   1.588
 6497TIP3    H219498   0.870   0.509   1.500
 6498TIP3   OH219499   2.837   4.358   0.426
 6498TIP3    H119500   2.806   4.277   0.465
 6498TIP3    H219501   2.788   4.366   0.344
 6499TIP3   OH219502   2.253   0.019   1.001
 6499TIP3    H119503   2.176   0.042   1.052
 6499TIP3    H219504   2.258   0.086   0.933
 6500TIP3   OH219505   5.810   4.744   5.075
 6500TIP3    H119506   5.857   4.700   5.004
 6500TIP3    H219507   5.878   4.781   5.130
 6501TIP3   OH219508   3.588   5.838   3.374
 6501TIP3    H119509   3.577   5.767   3.312
 6501TIP3    H219510   3.538   5.811   3.451
 6502TIP3   OH219511   4.291   2.451   2.288
 6502TIP3    H119512   4.378   2.417   2.265
 6502TIP3    H219513   4.281   2.433   2.381
 6503TIP3   OH219514   2.153   3.138   1.311
 6503TIP3    H119515   2.195   3.081   1.247
 6503TIP3    H219516   2.061   3.137   1.288
 6504TIP3   OH219517   1.074   3.857   1.489
 6504TIP3    H119518   1.035   3.906   1.562
 6504TIP3    H219519   1.143   3.914   1.455
 6505TIP3   OH219520   4.071   1.267   1.303
 6505TIP3    H119521   4.138   1.202   1.281
 6505TIP3    H219522   4.068   1.324   1.226
 6506TIP3   OH219523   3.215   5.773   1.973
 6506TIP3    H119524   3.243   5.684   1.997
 6506TIP3    H219525   3.157   5.761   1.898
 6507TIP3   OH219526   0.025   3.802   4.430
 6507TIP3    H119527   0.009   3.817   4.337
 6507TIP3    H219528  -0.060   3.816   4.472
 6508TIP3   OH219529   2.522   2.041   3.889
 6508TIP3    H119530   2.575   2.097   3.946
 6508TIP3    H219531   2.461   1.997   3.949
 6509TIP3   OH219532   2.470   1.357   5.021
 6509TIP3    H119533   2.448   1.385   4.933
 6509TIP3    H219534   2.499   1.438   5.065
 6510TIP3   OH219535   5.150   0.893   1.704
 6510TIP3    H119536   5.180   0.876   1.614
 6510TIP3    H219537   5.145   0.988   1.710
 6511TIP3   OH219538   4.158   1.274   0.527
 6511TIP3    H119539   4.068   1.241   0.528
 6511TIP3    H219540   4.212   1.197   0.545
 6512TIP3   OH219541   2.431   3.934   2.257
 6512TIP3    H119542   2.516   3.903   2.288
 6512TIP3    H219543   2.450   4.020   2.220
 6513TIP3   OH219544   0.245   0.639   4.733
 6513TIP3    H119545   0.330   0.639   4.689
 6513TIP3    H219546   0.195   0.709   4.690
 6514TIP3   OH219547   1.260   2.233   2.953
 6514TIP3    H119548   1.237   2.147   2.988
 6514TIP3    H219549   1.306   2.277   3.025
 6515TIP3   OH219550   3.674   5.034   2.326
 6515TIP3    H119551   3.626   5.115   2.307
 6515TIP3    H219552   3.620   4.990   2.392
 6516TIP3   OH219553   0.848   4.222   5.162
 6516TIP3    H119554   0.897   4.167   5.223
 6516TIP3    H219555   0.879   4.195   5.075
 6517TIP3   OH219556   1.854   4.018   1.361
 6517TIP3    H119557   1.776   4.018   1.306
 6517TIP3    H219558   1.822   4.046   1.447
 6518TIP3   OH219559   4.797   3.829   2.022
 6518TIP3    H119560   4.832   3.800   2.106
 6518TIP3    H219561   4.856   3.792   1.956
 6519TIP3   OH219562   5.904   1.416   1.622
 6519TIP3    H119563   5.924   1.482   1.555
 6519TIP3    H219564   5.984   1.364   1.630
 6520TIP3   OH219565   3.831   4.844   2.217
 6520TIP3    H119566   3.801   4.826   2.127
 6520TIP3    H219567   3.778   4.919   2.245
 6521TIP3   OH219568   2.257   0.651   4.017
 6521TIP3    H119569   2.283   0.743   4.011
 6521TIP3    H219570   2.193   0.639   3.947
 6522TIP3   OH219571   2.925   0.250   3.914
 6522TIP3    H119572   2.854   0.186   3.907
 6522TIP3    H219573   2.980   0.233   3.837
 6523TIP3   OH219574   3.920   1.486   5.080
 6523TIP3    H119575   3.948   1.485   5.172
 6523TIP3    H219576   3.924   1.578   5.054
 6524TIP3   OH219577   2.975   1.389   4.687
 6524TIP3    H119578   2.908   1.458   4.685
 6524TIP3    H219579   2.989   1.366   4.596
 6525TIP3   OH219580   2.677   3.837   3.700
 6525TIP3    H119581   2.719   3.902   3.756
 6525TIP3    H219582   2.723   3.756   3.718
 6526TIP3   OH219583   3.513   0.855   2.812
 6526TIP3    H119584   3.459   0.899   2.746
 6526TIP3    H219585   3.453   0.835   2.884
 6527TIP3   OH219586   5.462   1.455   0.914
 6527TIP3    H119587   5.386   1.477   0.968
 6527TIP3    H219588   5.426   1.438   0.827
 6528TIP3   OH219589   2.839   1.660   1.456
 6528TIP3    H119590   2.823   1.601   1.529
 6528TIP3    H219591   2.778   1.632   1.388
 6529TIP3   OH219592   5.025   2.916   1.808
 6529TIP3    H119593   4.984   2.883   1.888
 6529TIP3    H219594   4.965   2.984   1.777
 6530TIP3   OH219595   2.558   5.160   0.279
 6530TIP3    H119596   2.514   5.098   0.338
 6530TIP3    H219597   2.486   5.202   0.232
 6531TIP3   OH219598   3.380   1.826   3.248
 6531TIP3    H119599   3.454   1.885   3.261
 6531TIP3    H219600   3.391   1.791   3.159
 6532TIP3   OH219601   2.935   5.422   5.052
 6532TIP3    H119602   2.935   5.429   5.147
 6532TIP3    H219603   2.848   5.388   5.030
 6533TIP3   OH219604   4.462   0.056   2.260
 6533TIP3    H119605   4.457   0.059   2.164
 6533TIP3    H219606   4.381   0.098   2.289
 6534TIP3   OH219607   0.413   1.805   4.053
 6534TIP3    H119608   0.396   1.851   3.970
 6534TIP3    H219609   0.461   1.726   4.027
 6535TIP3   OH219610   4.372   0.692   0.452
 6535TIP3    H119611   4.385   0.640   0.531
 6535TIP3    H219612   4.448   0.673   0.397
 6536TIP3   OH219613   4.568   2.155   0.961
 6536TIP3    H119614   4.567   2.246   0.990
 6536TIP3    H219615   4.560   2.103   1.041
 6537TIP3   OH219616   0.086   2.015   3.573
 6537TIP3    H119617   0.061   1.968   3.653
 6537TIP3    H219618   0.029   2.091   3.571
 6538TIP3   OH219619   3.099   2.940   1.652
 6538TIP3    H119620   3.162   2.868   1.656
 6538TIP3    H219621   3.092   2.971   1.743
 6539TIP3   OH219622   6.171   0.051   3.266
 6539TIP3    H119623   6.120   0.004   3.333
 6539TIP3    H219624   6.254   0.072   3.310
 6540TIP3   OH219625   4.743   3.099   1.856
 6540TIP3    H119626   4.661   3.104   1.906
 6540TIP3    H219627   4.809   3.137   1.915
 6541TIP3   OH219628   4.782   2.051   2.481
 6541TIP3    H119629   4.801   2.127   2.536
 6541TIP3    H219630   4.866   2.028   2.441
 6542TIP3   OH219631   2.561   0.530   3.651
 6542TIP3    H119632   2.596   0.607   3.606
 6542TIP3    H219633   2.637   0.476   3.669
 6543TIP3   OH219634   3.983   1.118   4.699
 6543TIP3    H119635   3.960   1.199   4.745
 6543TIP3    H219636   4.074   1.101   4.725
 6544TIP3   OH219637   1.320   5.616   4.223
 6544TIP3    H119638   1.391   5.619   4.288
 6544TIP3    H219639   1.365   5.615   4.139
 6545TIP3   OH219640   1.335   0.011   4.065
 6545TIP3    H119641   1.405  -0.046   4.033
 6545TIP3    H219642   1.287   0.037   3.986
 6546TIP3   OH219643   5.279   3.432   4.836
 6546TIP3    H119644   5.203   3.419   4.893
 6546TIP3    H219645   5.270   3.521   4.802
 6547TIP3   OH219646   4.728   5.807   3.106
 6547TIP3    H119647   4.635   5.815   3.127
 6547TIP3    H219648   4.767   5.889   3.136
 6548TIP3   OH219649   2.115   1.485   0.631
 6548TIP3    H119650   2.093   1.406   0.680
 6548TIP3    H219651   2.126   1.553   0.698
 6549TIP3   OH219652   1.351   0.892   1.400
 6549TIP3    H119653   1.288   0.819   1.402
 6549TIP3    H219654   1.432   0.854   1.434
 6550TIP3   OH219655   0.688   3.388   3.637
 6550TIP3    H119656   0.766   3.434   3.606
 6550TIP3    H219657   0.640   3.368   3.557
 6551TIP3   OH219658   0.695   2.717   1.360
 6551TIP3    H119659   0.695   2.792   1.300
 6551TIP3    H219660   0.788   2.697   1.372
 6552TIP3   OH219661   4.199   0.520   2.537
 6552TIP3    H119662   4.148   0.567   2.472
 6552TIP3    H219663   4.240   0.588   2.591
 6553TIP3   OH219664   4.720   2.104   0.453
 6553TIP3    H119665   4.752   2.126   0.366
 6553TIP3    H219666   4.696   2.011   0.447
 6554TIP3   OH219667   2.072   1.180   0.154
 6554TIP3    H119668   2.101   1.091   0.176
 6554TIP3    H219669   2.140   1.237   0.189
 6555TIP3   OH219670   0.120   5.604   2.005
 6555TIP3    H119671   0.031   5.637   1.992
 6555TIP3    H219672   0.173   5.683   2.016
 6556TIP3   OH219673   5.079   1.524   0.506
 6556TIP3    H119674   5.128   1.581   0.565
 6556TIP3    H219675   4.989   1.530   0.536
 6557TIP3   OH219676   2.928   0.738   3.226
 6557TIP3    H119677   2.879   0.693   3.157
 6557TIP3    H219678   2.881   0.821   3.237
 6558TIP3   OH219679   0.093   4.974   4.966
 6558TIP3    H119680   0.095   4.892   4.917
 6558TIP3    H219681   0.178   5.014   4.947
 6559TIP3   OH219682   4.559   1.988   2.324
 6559TIP3    H119683   4.634   2.036   2.361
 6559TIP3    H219684   4.518   1.946   2.399
 6560TIP3   OH219685   5.595   4.305   2.625
 6560TIP3    H119686   5.657   4.232   2.633
 6560TIP3    H219687   5.557   4.295   2.538
 6561TIP3   OH219688   1.683   3.078   0.761
 6561TIP3    H119689   1.637   3.018   0.701
 6561TIP3    H219690   1.668   3.165   0.724
 6562TIP3   OH219691   2.098   2.235   2.398
 6562TIP3    H119692   2.037   2.198   2.462
 6562TIP3    H219693   2.169   2.272   2.451
 6563TIP3   OH219694   3.918   3.906   3.958
 6563TIP3    H119695   3.877   3.990   3.979
 6563TIP3    H219696   3.968   3.923   3.878
 6564TIP3   OH219697   2.567   5.105   2.700
 6564TIP3    H119698   2.562   5.091   2.605
 6564TIP3    H219699   2.604   5.193   2.710
 6565TIP3   OH219700   3.895   3.349   1.641
 6565TIP3    H119701   3.801   3.362   1.652
 6565TIP3    H219702   3.907   3.338   1.547
 6566TIP3   OH219703   0.016   4.546   4.445
 6566TIP3    H119704   0.100   4.539   4.398
 6566TIP3    H219705   0.022   4.630   4.490
 6567TIP3   OH219706   2.497   0.082   4.036
 6567TIP3    H119707   2.483   0.083   4.131
 6567TIP3    H219708   2.432   0.143   4.002
 6568TIP3   OH219709   5.046   5.927   0.329
 6568TIP3    H119710   5.033   5.979   0.250
 6568TIP3    H219711   4.958   5.915   0.365
 6569TIP3   OH219712   4.570   2.340  -0.011
 6569TIP3    H119713   4.493   2.367  -0.063
 6569TIP3    H219714   4.563   2.391   0.069
 6570TIP3   OH219715   5.998   2.620   3.041
 6570TIP3    H119716   5.940   2.548   3.015
 6570TIP3    H219717   6.019   2.601   3.132
 6571TIP3   OH219718   5.226   4.687   2.455
 6571TIP3    H119719   5.172   4.621   2.499
 6571TIP3    H219720   5.316   4.661   2.474
 6572TIP3   OH219721   1.231   1.767   2.316
 6572TIP3    H119722   1.244   1.673   2.306
 6572TIP3    H219723   1.305   1.807   2.271
 6573TIP3   OH219724   2.200   5.437   3.673
 6573TIP3    H119725   2.245   5.407   3.751
 6573TIP3    H219726   2.250   5.400   3.600
 6574TIP3   OH219727   3.380   1.922   2.066
 6574TIP3    H119728   3.394   1.836   2.027
 6574TIP3    H219729   3.290   1.946   2.042
 6575TIP3   OH219730   3.315   1.341   4.569
 6575TIP3    H119731   3.395   1.339   4.517
 6575TIP3    H219732   3.263   1.412   4.531
 6576TIP3   OH219733   5.025   4.494   4.928
 6576TIP3    H119734   5.028   4.510   4.833
 6576TIP3    H219735   5.047   4.402   4.937
 6577TIP3   OH219736   1.311   1.393   0.877
 6577TIP3    H119737   1.269   1.478   0.883
 6577TIP3    H219738   1.345   1.376   0.965
 6578TIP3   OH219739   3.085   4.989   0.126
 6578TIP3    H119740   3.092   4.910   0.179
 6578TIP3    H219741   3.042   4.960   0.045
 6579TIP3   OH219742   3.024   0.839   1.409
 6579TIP3    H119743   2.942   0.796   1.434
 6579TIP3    H219744   3.024   0.922   1.455
 6580TIP3   OH219745   0.954   1.447   2.539
 6580TIP3    H119746   1.046   1.421   2.536
 6580TIP3    H219747   0.954   1.538   2.508
 6581TIP3   OH219748   1.572   3.224   4.832
 6581TIP3    H119749   1.662   3.255   4.841
 6581TIP3    H219750   1.563   3.200   4.740
 6582TIP3   OH219751   1.695   2.608   4.109
 6582TIP3    H119752   1.612   2.576   4.074
 6582TIP3    H219753   1.671   2.686   4.159
 6583TIP3   OH219754   1.098   1.179   3.293
 6583TIP3    H119755   1.083   1.196   3.387
 6583TIP3    H219756   1.123   1.087   3.289
 6584TIP3   OH219757   0.112   2.189   3.984
 6584TIP3    H119758   0.166   2.254   3.939
 6584TIP3    H219759   0.111   2.218   4.075
 6585TIP3   OH219760   0.437   0.316   2.630
 6585TIP3    H119761   0.515   0.364   2.658
 6585TIP3    H219762   0.408   0.362   2.551
 6586TIP3   OH219763   1.342   2.279   0.881
 6586TIP3    H119764   1.318   2.271   0.973
 6586TIP3    H219765   1.322   2.370   0.859
 6587TIP3   OH219766   2.342   2.125   2.598
 6587TIP3    H119767   2.437   2.132   2.609
 6587TIP3    H219768   2.307   2.153   2.682
 6588TIP3   OH219769   0.971   4.534   1.089
 6588TIP3    H119770   1.012   4.447   1.084
 6588TIP3    H219771   0.892   4.520   1.141
 6589TIP3   OH219772   0.648   5.521   0.122
 6589TIP3    H119773   0.726   5.559   0.162
 6589TIP3    H219774   0.604   5.594   0.080
 6590TIP3   OH219775   0.669   2.399   1.325
 6590TIP3    H119776   0.644   2.382   1.416
 6590TIP3    H219777   0.604   2.463   1.294
 6591TIP3   OH219778   2.381   0.236   0.861
 6591TIP3    H119779   2.397   0.324   0.828
 6591TIP3    H219780   2.468   0.202   0.882
 6592TIP3   OH219781   0.859   0.778   2.089
 6592TIP3    H119782   0.783   0.813   2.044
 6592TIP3    H219783   0.924   0.764   2.019
 6593TIP3   OH219784   4.955   5.610   4.547
 6593TIP3    H119785   4.875   5.659   4.525
 6593TIP3    H219786   4.985   5.647   4.629
 6594TIP3   OH219787   3.817   3.788   0.983
 6594TIP3    H119788   3.764   3.808   0.906
 6594TIP3    H219789   3.853   3.872   1.010
 6595TIP3   OH219790   3.365   1.105   1.169
 6595TIP3    H119791   3.459   1.095   1.187
 6595TIP3    H219792   3.323   1.042   1.228
 6596TIP3   OH219793   2.886   4.547   0.786
 6596TIP3    H119794   2.883   4.612   0.856
 6596TIP3    H219795   2.820   4.577   0.723
 6597TIP3   OH219796   0.908   2.382   4.577
 6597TIP3    H119797   0.910   2.360   4.484
 6597TIP3    H219798   0.831   2.437   4.588
 6598TIP3   OH219799   2.165   3.963   2.424
 6598TIP3    H119800   2.164   3.964   2.520
 6598TIP3    H219801   2.254   3.989   2.401
 6599TIP3   OH219802   4.525   4.533   3.738
 6599TIP3    H119803   4.442   4.485   3.729
 6599TIP3    H219804   4.536   4.543   3.833
 6600TIP3   OH219805   4.037   3.548   0.685
 6600TIP3    H119806   4.030   3.467   0.736
 6600TIP3    H219807   3.949   3.564   0.651
 6601TIP3   OH219808   0.978   5.781   4.452
 6601TIP3    H119809   0.952   5.872   4.439
 6601TIP3    H219810   0.925   5.750   4.525
 6602TIP3   OH219811   4.694   0.689   3.609
 6602TIP3    H119812   4.631   0.704   3.679
 6602TIP3    H219813   4.714   0.595   3.614
 6603TIP3   OH219814   6.317   3.490   2.021
 6603TIP3    H119815   6.237   3.491   1.968
 6603TIP3    H219816   6.343   3.398   2.023
 6604TIP3   OH219817   5.890   5.475   4.049
 6604TIP3    H119818   5.875   5.549   4.108
 6604TIP3    H219819   5.985   5.471   4.038
 6605TIP3   OH219820   1.454   0.479   2.248
 6605TIP3    H119821   1.394   0.453   2.178
 6605TIP3    H219822   1.459   0.575   2.241
 6606TIP3   OH219823   5.944   1.680   3.260
 6606TIP3    H119824   5.909   1.767   3.279
 6606TIP3    H219825   5.995   1.658   3.338
 6607TIP3   OH219826   1.545   0.235   0.339
 6607TIP3    H119827   1.601   0.312   0.349
 6607TIP3    H219828   1.479   0.261   0.275
 6608TIP3   OH219829   0.795   2.861   2.224
 6608TIP3    H119830   0.718   2.896   2.269
 6608TIP3    H219831   0.827   2.792   2.281
 6609TIP3   OH219832   3.926   4.568   4.102
 6609TIP3    H119833   3.953   4.637   4.041
 6609TIP3    H219834   3.994   4.568   4.169
 6610TIP3   OH219835   5.719   5.384   0.536
 6610TIP3    H119836   5.801   5.360   0.491
 6610TIP3    H219837   5.684   5.301   0.568
 6611TIP3   OH219838   4.264   4.322   2.695
 6611TIP3    H119839   4.172   4.334   2.717
 6611TIP3    H219840   4.282   4.390   2.630
 6612TIP3   OH219841   5.302   0.943   2.159
 6612TIP3    H119842   5.300   1.032   2.194
 6612TIP3    H219843   5.282   0.887   2.234
 6613TIP3   OH219844   3.439   0.377   4.961
 6613TIP3    H119845   3.409   0.394   4.871
 6613TIP3    H219846   3.405   0.451   5.011
 6614TIP3   OH219847   2.533   4.557   1.520
 6614TIP3    H119848   2.532   4.643   1.479
 6614TIP3    H219849   2.596   4.506   1.469
 6615TIP3   OH219850   0.383   5.284   2.515
 6615TIP3    H119851   0.432   5.212   2.475
 6615TIP3    H219852   0.315   5.305   2.451
 6616TIP3   OH219853   3.633   1.642   4.872
 6616TIP3    H119854   3.696   1.675   4.936
 6616TIP3    H219855   3.609   1.719   4.821
 6617TIP3   OH219856   1.825   4.221   3.066
 6617TIP3    H119857   1.850   4.273   3.141
 6617TIP3    H219858   1.902   4.220   3.009
 6618TIP3   OH219859   1.209   0.927   3.353
 6618TIP3    H119860   1.199   0.862   3.423
 6618TIP3    H219861   1.271   0.887   3.292
 6619TIP3   OH219862   2.880   2.107   2.983
 6619TIP3    H119863   2.872   2.130   2.890
 6619TIP3    H219864   2.968   2.068   2.991
 6620TIP3   OH219865   0.244   5.521   1.716
 6620TIP3    H119866   0.281   5.511   1.804
 6620TIP3    H219867   0.151   5.538   1.731
 6621TIP3   OH219868   2.297   0.700   2.436
 6621TIP3    H119869   2.267   0.729   2.522
 6621TIP3    H219870   2.278   0.606   2.435
 6622TIP3   OH219871   1.880   4.601   4.277
 6622TIP3    H119872   1.904   4.585   4.185
 6622TIP3    H219873   1.798   4.650   4.271
 6623TIP3   OH219874   3.837   1.245   3.638
 6623TIP3    H119875   3.747   1.255   3.669
 6623TIP3    H219876   3.889   1.302   3.695
 6624TIP3   OH219877   4.074   4.752   0.249
 6624TIP3    H119878   4.034   4.818   0.191
 6624TIP3    H219879   4.139   4.709   0.195
 6625TIP3   OH219880   5.570   3.526   3.363
 6625TIP3    H119881   5.584   3.533   3.268
 6625TIP3    H219882   5.489   3.476   3.371
 6626TIP3   OH219883   3.508   5.217   0.305
 6626TIP3    H119884   3.562   5.271   0.362
 6626TIP3    H219885   3.453   5.279   0.258
 6627TIP3   OH219886   2.227   1.252   1.473
 6627TIP3    H119887   2.210   1.303   1.394
 6627TIP3    H219888   2.269   1.314   1.533
 6628TIP3   OH219889   0.521   5.124   3.759
 6628TIP3    H119890   0.432   5.154   3.775
 6628TIP3    H219891   0.577   5.186   3.806
 6629TIP3   OH219892   4.851   4.525   4.686
 6629TIP3    H119893   4.772   4.563   4.725
 6629TIP3    H219894   4.843   4.431   4.702
 6630TIP3   OH219895   1.044   0.098   0.468
 6630TIP3    H119896   1.105   0.064   0.533
 6630TIP3    H219897   0.958   0.087   0.509
 6631TIP3   OH219898   2.091   5.882   1.181
 6631TIP3    H119899   2.111   5.803   1.132
 6631TIP3    H219900   2.169   5.936   1.172
 6632TIP3   OH219901  -0.004   4.555   4.722
 6632TIP3    H119902   0.023   4.479   4.774
 6632TIP3    H219903   0.008   4.527   4.631
 6633TIP3   OH219904   1.221   2.840   1.642
 6633TIP3    H119905   1.239   2.746   1.639
 6633TIP3    H219906   1.222   2.862   1.735
 6634TIP3   OH219907   4.242   5.361   4.743
 6634TIP3    H119908   4.229   5.427   4.674
 6634TIP3    H219909   4.240   5.412   4.824
 6635TIP3   OH219910   5.368   2.482   2.901
 6635TIP3    H119911   5.331   2.467   2.988
 6635TIP3    H219912   5.293   2.509   2.847
 6636TIP3   OH219913   1.244   4.682   4.418
 6636TIP3    H119914   1.306   4.712   4.352
 6636TIP3    H219915   1.168   4.651   4.368
 6637TIP3   OH219916   2.448   4.963   0.430
 6637TIP3    H119917   2.502   4.903   0.379
 6637TIP3    H219918   2.392   4.906   0.482
 6638TIP3   OH219919   1.987   4.807   4.435
 6638TIP3    H119920   1.948   4.773   4.516
 6638TIP3    H219921   1.979   4.735   4.373
 6639TIP3   OH219922   5.705   1.232   1.722
 6639TIP3    H119923   5.635   1.241   1.657
 6639TIP3    H219924   5.766   1.302   1.702
 6640TIP3   OH219925   5.958   3.018   2.366
 6640TIP3    H119926   5.923   3.067   2.292
 6640TIP3    H219927   5.881   2.992   2.417
 6641TIP3   OH219928   0.999   4.429   3.596
 6641TIP3    H119929   0.967   4.391   3.515
 6641TIP3    H219930   1.092   4.448   3.579
 6642TIP3   OH219931   2.848   1.138   1.311
 6642TIP3    H119932   2.778   1.140   1.377
 6642TIP3    H219933   2.928   1.128   1.362
 6643TIP3   OH219934   0.251   1.706   3.564
 6643TIP3    H119935   0.232   1.737   3.652
 6643TIP3    H219936   0.204   1.623   3.556
 6644TIP3   OH219937   2.502   1.623   3.273
 6644TIP3    H119938   2.482   1.716   3.268
 6644TIP3    H219939   2.583   1.619   3.324
 6645TIP3   OH219940   0.428   0.587   0.335
 6645TIP3    H119941   0.468   0.579   0.249
 6645TIP3    H219942   0.368   0.661   0.327
   6.35544   5.99196   5.18920   0.00000   0.00000  -2.11849   0.00000  -2.11849  -2.99598
