Title
19927
    1ASP      N    1   3.082   1.873   5.018 -0.0751 -0.1091  0.3250
    1ASP    HT1    2   3.113   1.952   5.078  0.3615  0.2669 -0.3757
    1ASP    HT2    3   2.978   1.869   5.012  0.0134 -0.4359 -1.3952
    1ASP    HT3    4   3.118   1.887   4.921 -1.3358  0.7509 -0.0453
    1ASP     CA    5   3.123   1.731   5.067 -0.2189 -0.3196  0.3923
    1ASP     HA    6   3.076   1.718   5.163  1.6191  1.1522  1.5602
    1ASP     CB    7   3.084   1.622   4.959 -0.3031 -0.2457 -0.1375
    1ASP    HB1    8   3.128   1.524   4.990 -1.0021 -0.3234  0.6253
    1ASP    HB2    9   3.114   1.651   4.856  0.3026 -0.5346 -0.0490
    1ASP     CG   10   2.936   1.602   4.961  0.6828 -0.1166 -0.1281
    1ASP    OD1   11   2.889   1.508   4.895 -0.0250  0.5533  0.5088
    1ASP    OD2   12   2.864   1.688   5.019  0.5408  0.4820  0.0771
    1ASP      C   13   3.270   1.740   5.100  0.0749 -0.2433 -0.4477
    1ASP      O   14   3.312   1.736   5.216 -0.4443  0.1996 -0.1934
    2ALA      N   15   3.353   1.758   5.000 -0.0004  0.0367  0.7064
    2ALA     HN   16   3.321   1.766   4.906  1.0470 -2.6774  0.0253
    2ALA     CA   17   3.493   1.766   5.022 -0.3528  0.0489  0.0476
    2ALA     HA   18   3.525   1.675   5.069  0.7817 -0.1348 -1.0218
    2ALA     CB   19   3.569   1.787   4.886  0.7411 -0.1096 -0.1535
    2ALA    HB1   20   3.546   1.887   4.842  0.1922 -0.5014 -0.7787
    2ALA    HB2   21   3.549   1.708   4.811 -3.3532  0.8103 -0.2471
    2ALA    HB3   22   3.679   1.774   4.901  0.8839 -0.6745 -1.5281
    2ALA      C   23   3.536   1.880   5.115 -0.0497 -0.9402 -0.0640
    2ALA      O   24   3.470   1.982   5.116 -0.8836  0.4540 -0.2518
    3ASP      N   25   3.649   1.871   5.190 -0.0829  0.0329  0.3738
    3ASP     HN   26   3.698   1.785   5.184 -0.3274 -0.0245 -1.2938
    3ASP     CA   27   3.722   1.993   5.242  0.1062 -0.0702  0.2716
    3ASP     HA   28   3.659   2.042   5.315  1.3914  1.7405  0.2273
    3ASP     CB   29   3.855   1.945   5.309 -0.2158 -0.1151 -0.4619
    3ASP    HB1   30   3.926   2.028   5.330  0.7296 -1.1956  0.7402
    3ASP    HB2   31   3.908   1.882   5.235 -0.3382  0.5477 -1.1356
    3ASP     CG   32   3.839   1.878   5.443 -0.1252 -0.5464  0.1263
    3ASP    OD1   33   3.939   1.812   5.484  0.1679  0.0468  0.4293
    3ASP    OD2   34   3.733   1.883   5.509  0.6182 -0.8298  0.1053
    3ASP      C   35   3.749   2.111   5.154 -0.2587 -0.0688  0.3688
    3ASP      O   36   3.762   2.107   5.032 -0.2242  0.7263 -0.4711
    4GLY      N   37   3.751   2.227   5.219  0.0378 -0.1388  0.7489
    4GLY     HN   38   3.746   2.235   5.319 -1.0232  3.1904  0.5488
    4GLY     CA   39   3.768   2.359   5.163 -0.8330 -0.4414  0.7143
    4GLY    HA1   40   3.719   2.435   5.222 -2.2603  0.8029 -1.8918
    4GLY    HA2   41   3.707   2.361   5.074  1.2516 -2.5448 -0.8918
    4GLY      C   42   3.918   2.392   5.123  0.6971 -0.1074  0.0862
    4GLY      O   43   3.996   2.302   5.154  0.3055  0.6879 -0.2122
    5PRO      N   44   3.950   2.508   5.064 -0.1983 -0.0306  0.1415
    5PRO     CD   45   3.856   2.617   5.064  0.3728  0.7111 -0.0105
    5PRO    HD1   46   3.846   2.646   5.171  1.1215 -1.8777  0.8383
    5PRO    HD2   47   3.753   2.590   5.032  0.7362 -0.3937 -0.2864
    5PRO     CA   48   4.082   2.549   5.020 -0.0068 -0.5418 -0.4534
    5PRO     HA   49   4.115   2.502   4.929  0.3357  0.6723 -0.9774
    5PRO     CB   50   4.069   2.709   5.018  0.7944 -0.3878 -0.2359
    5PRO    HB1   51   4.144   2.753   4.950 -1.0680  1.9529 -0.8886
    5PRO    HB2   52   4.070   2.744   5.124 -1.3339 -0.6009 -0.0869
    5PRO     CG   53   3.921   2.724   4.974 -0.4690 -0.6333 -0.1586
    5PRO    HG1   54   3.886   2.827   4.995 -0.6846 -0.9450  1.1018
    5PRO    HG2   55   3.901   2.694   4.868 -0.3874 -0.7658 -0.1371
    5PRO      C   56   4.199   2.519   5.112  0.5748 -0.5006 -0.3283
    5PRO      O   57   4.194   2.545   5.236 -0.0530  0.2437 -0.5460
    6GLY      N   58   4.310   2.471   5.060  0.3896 -0.2755 -0.0938
    6GLY     HN   59   4.309   2.464   4.961 -0.4596  2.4111 -0.3569
    6GLY     CA   60   4.433   2.457   5.141  0.0385  0.4018 -0.2579
    6GLY    HA1   61   4.505   2.392   5.094 -1.5453 -3.7858  2.5222
    6GLY    HA2   62   4.407   2.409   5.235 -0.8669  1.7424  0.2153
    6GLY      C   63   4.491   2.591   5.171 -0.0734 -0.4166 -0.4959
    6GLY      O   64   4.447   2.690   5.112  0.2832  0.2351  0.1312
    7ASP      N   65   4.595   2.599   5.261 -0.1870  0.4903  0.7966
    7ASP     HN   66   4.614   2.512   5.307  0.0670 -0.6867 -1.4119
    7ASP     CA   67   4.681   2.715   5.278 -0.5793 -0.1353  0.0157
    7ASP     HA   68   4.620   2.797   5.313 -2.8898 -0.8640 -2.0041
    7ASP     CB   69   4.796   2.689   5.372 -0.4836  0.8196 -0.1678
    7ASP    HB1   70   4.870   2.771   5.389  0.6649 -0.8213  4.2985
    7ASP    HB2   71   4.851   2.599   5.336  0.7076  2.1892 -1.9743
    7ASP     CG   72   4.741   2.663   5.506 -0.8442  0.1179  0.1958
    7ASP    OD1   73   4.778   2.556   5.567 -0.2741 -0.5793 -0.5625
    7ASP    OD2   74   4.672   2.752   5.561  0.2041  0.0724  0.0200
    7ASP      C   75   4.736   2.764   5.141  0.2878  0.3659  0.3847
    7ASP      O   76   4.750   2.672   5.058 -0.3052  0.0516  0.0318
    8PRO      N   77   4.765   2.891   5.116  0.2235 -0.0641 -0.4454
    8PRO     CD   78   4.714   3.004   5.206  0.1260 -0.2664 -0.0559
    8PRO    HD1   79   4.786   3.033   5.285 -2.9396  2.3174  2.0677
    8PRO    HD2   80   4.617   2.983   5.257 -0.7121  1.7750 -0.7154
    8PRO     CA   81   4.800   2.945   4.988  0.3121 -0.2643  0.3040
    8PRO     HA   82   4.732   2.916   4.909  1.0635  1.3764 -1.0149
    8PRO     CB   83   4.791   3.097   4.994  0.1704 -0.2614 -0.2756
    8PRO    HB1   84   4.749   3.136   4.899  0.6829  1.0928  0.0350
    8PRO    HB2   85   4.895   3.136   5.005 -0.3925  1.0591  0.6282
    8PRO     CG   86   4.707   3.134   5.116 -0.1203  0.0230  0.1790
    8PRO    HG1   87   4.741   3.225   5.170  0.7185  0.1587 -0.5515
    8PRO    HG2   88   4.600   3.140   5.089  0.2752 -1.7904 -2.0788
    8PRO      C   89   4.940   2.897   4.949 -0.2358  0.0136  0.1154
    8PRO      O   90   5.006   2.855   5.042 -0.6982  0.2792 -0.0387
    9ASP      N   91   4.970   2.901   4.818  0.1173 -0.2999  0.0738
    9ASP     HN   92   4.904   2.940   4.754 -1.2191  1.7513  2.5417
    9ASP     CA   93   5.096   2.849   4.769  0.4443 -0.0241  0.0589
    9ASP     HA   94   5.140   2.777   4.836  1.3151 -0.7437 -1.2395
    9ASP     CB   95   5.071   2.793   4.617  0.2762  0.1357 -0.1619
    9ASP    HB1   96   5.168   2.778   4.564  0.6119 -1.2714  0.7715
    9ASP    HB2   97   5.000   2.858   4.562  1.4915  0.7968 -1.0058
    9ASP     CG   98   5.024   2.657   4.636  0.0294  0.4849  0.7795
    9ASP    OD1   99   5.008   2.610   4.754  0.1861 -0.0816  0.0339
    9ASP    OD2  100   4.982   2.594   4.529 -0.3618  0.0743 -0.2736
    9ASP      C  101   5.186   2.966   4.756  0.3089 -0.2434 -0.4698
    9ASP      O  102   5.145   3.071   4.707 -0.0308 -0.2882 -0.6698
   10ALA      N  103   5.314   2.953   4.780 -0.3180 -0.1290 -0.3753
   10ALA     HN  104   5.348   2.866   4.817  0.9008 -0.0737 -1.2950
   10ALA     CA  105   5.411   3.057   4.786 -0.7260 -0.3372  0.0344
   10ALA     HA  106   5.367   3.149   4.819 -0.8460 -1.2194  2.5647
   10ALA     CB  107   5.524   3.014   4.886  0.0889 -0.1018  0.1588
   10ALA    HB1  108   5.495   2.991   4.990  2.9709 -0.4620  0.9832
   10ALA    HB2  109   5.601   3.093   4.901  2.2996 -2.0778 -0.0363
   10ALA    HB3  110   5.573   2.923   4.842  0.5942  0.7465 -1.1025
   10ALA      C  111   5.474   3.083   4.647  0.6709  0.7610  0.3630
   10ALA      O  112   5.469   2.999   4.553 -0.0344 -0.3637  0.0409
   11GLY      N  113   5.535   3.197   4.629  0.6342  0.0199 -0.0171
   11GLY     HN  114   5.520   3.263   4.702 -0.3702 -1.1517  0.8974
   11GLY     CA  115   5.611   3.231   4.510 -0.6617  0.0595  0.9027
   11GLY    HA1  116   5.626   3.337   4.497 -0.3193  0.0126  0.9000
   11GLY    HA2  117   5.571   3.178   4.425 -0.4416 -1.5224  1.7453
   11GLY      C  118   5.761   3.181   4.531 -0.0983 -0.0069  0.0411
   11GLY    OT1  119   5.830   3.235   4.625  0.1102  0.4277 -0.8955
   11GLY    OT2  120   5.805   3.092   4.457 -0.6267  0.2001 -0.0529
   12SOD    SOD  121   1.230   0.819   3.951  0.2361 -0.2262  0.1534
   13SOD    SOD  122   5.308   0.517   2.285 -0.5007 -0.0736  0.1258
   14SOD    SOD  123   0.907   1.809   4.574 -0.4384 -0.0165  0.0218
   15SOD    SOD  124   3.487   5.353   5.073 -0.4449  0.3315  0.6006
   16SOD    SOD  125   4.928   3.903   0.469 -0.4989  0.2648  0.2251
   17SOD    SOD  126   5.441   3.412   3.327 -0.1177  0.2242 -0.1992
   18SOD    SOD  127   0.448   2.624   3.523 -0.0552 -0.1050  0.2042
   19SOD    SOD  128   1.388   4.711   4.511 -0.0378  0.2884  0.4106
   20SOD    SOD  129   2.881   3.968   0.360 -0.0123 -0.0758 -0.0129
   21SOD    SOD  130   5.135   3.799   4.166  0.1363 -0.2059 -0.2914
   22SOD    SOD  131   2.812   0.484   0.311  0.2655  0.1337 -0.1340
   23SOD    SOD  132   1.610   5.356   0.414  0.2113  0.0921 -0.0594
   24SOD    SOD  133   2.226   0.396   3.017  0.2065  0.0279  0.0833
   25SOD    SOD  134   4.109   0.250   1.873 -0.3185  0.5299 -0.1126
   26SOD    SOD  135   1.662   1.425   2.750  0.2667 -0.2585 -0.6454
   27SOD    SOD  136   5.161   2.159   4.869  0.3335 -0.0550 -0.1413
   28SOD    SOD  137   2.157   3.128   4.885  0.7671  0.8744 -0.2982
   29SOD    SOD  138   5.533   3.658   2.043 -0.2575 -0.4832 -0.4390
   30SOD    SOD  139   4.067   3.772   3.819 -0.1003 -0.2143  0.2573
   31SOD    SOD  140   1.239   3.922   4.317  0.1878  0.2653  0.0780
   32SOD    SOD  141   5.438   4.843   1.498 -0.0230 -0.6138  0.2235
   33SOD    SOD  142   4.434   5.090   3.539  0.1209 -0.2273  0.1392
   34CLA    CLA  143   5.548   3.054   1.158  0.0569  0.0876 -0.1588
   35CLA    CLA  144   0.188   0.059   4.290  0.0685 -0.1404  0.2748
   36CLA    CLA  145   0.592   4.329   2.656  0.2494  0.2307 -0.1796
   37CLA    CLA  146   4.640   0.255   0.379 -0.1710 -0.0258 -0.1110
   38CLA    CLA  147   4.990   0.113   4.495 -0.1022 -0.0967  0.3084
   39CLA    CLA  148   3.197   3.456   5.022  0.0066  0.4671  0.1274
   40CLA    CLA  149   4.916   3.720   1.244  0.0222 -0.1038  0.0588
   41CLA    CLA  150   0.049   3.163   3.642 -0.2517  0.0245  0.0113
   42CLA    CLA  151   5.459   2.741   3.521  0.0522  0.1563  0.1522
   43CLA    CLA  152   1.397   0.255   3.537  0.4708  0.0680  0.3113
   44CLA    CLA  153   1.399   5.069   1.972 -0.0988  0.3858 -0.1624
   45CLA    CLA  154   1.307   3.557   4.585 -0.0366  0.0287  0.0137
   46CLA    CLA  155   3.513   4.138   0.054 -0.3199 -0.3420 -0.0443
   47CLA    CLA  156   2.004   0.346   0.706 -0.2816 -0.2064 -0.2449
   48CLA    CLA  157   0.964   3.157   3.911 -0.2541  0.2765 -0.0106
   49CLA    CLA  158   3.877   1.348   5.103  0.2477 -0.0221  0.3342
   50CLA    CLA  159   4.139   4.632   1.586  0.0461 -0.2894  0.2814
   51CLA    CLA  160   4.352   5.266   4.723  0.4863 -0.0268 -0.1275
   52TIP3   OH2  161   5.879   1.269   4.321  0.1085 -0.4690 -0.5449
   52TIP3    H1  162   5.802   1.303   4.367 -0.7859 -1.1315 -1.4848
   52TIP3    H2  163   5.899   1.186   4.366  0.2558 -0.3153 -0.3246
   53TIP3   OH2  164   5.586   1.792   3.970  0.0011  0.0109  0.1201
   53TIP3    H1  165   5.515   1.752   4.020  2.1070 -1.0033  2.5042
   53TIP3    H2  166   5.642   1.833   4.036  2.1199 -0.0553 -1.5233
   54TIP3   OH2  167   5.550   0.771   2.125 -0.0062 -0.3307  0.3558
   54TIP3    H1  168   5.562   0.821   2.044  2.1484 -1.3343 -0.0348
   54TIP3    H2  169   5.457   0.776   2.143  0.0417  4.0835  0.5655
   55TIP3   OH2  170   4.071   2.393   3.335  0.5317 -0.4744  0.4539
   55TIP3    H1  171   4.060   2.388   3.430  0.9540  0.0790  0.5357
   55TIP3    H2  172   4.165   2.402   3.322  0.3283  1.5540  0.0931
   56TIP3   OH2  173   0.576   5.197   1.214 -0.2735 -0.4536  0.5015
   56TIP3    H1  174   0.666   5.226   1.199 -0.3031  0.7677  2.4144
   56TIP3    H2  175   0.581   5.141   1.291 -1.3300  0.7536  1.4850
   57TIP3   OH2  176   5.113   5.336   1.585  0.6277 -0.7241 -0.0646
   57TIP3    H1  177   5.061   5.330   1.665 -0.9451  1.7971 -0.7585
   57TIP3    H2  178   5.054   5.304   1.516  2.1004 -3.2533 -0.2683
   58TIP3   OH2  179   0.547   3.896   0.130 -0.2119 -0.2217  0.2642
   58TIP3    H1  180   0.542   3.886   0.035  0.5021 -0.7895  0.2799
   58TIP3    H2  181   0.611   3.965   0.144  0.7328 -1.0914  0.3556
   59TIP3   OH2  182   0.459   5.909   4.700 -0.4665  0.3220  0.3547
   59TIP3    H1  183   0.551   5.913   4.673 -0.3856 -1.6145  0.2435
   59TIP3    H2  184   0.437   6.000   4.723  0.8898  1.1791 -1.4688
   60TIP3   OH2  185   1.652   1.600   2.615 -0.2870 -0.3863  0.3918
   60TIP3    H1  186   1.640   1.694   2.627  0.6138 -0.1828 -0.2434
   60TIP3    H2  187   1.648   1.587   2.520  1.5620 -0.6938  0.3206
   61TIP3   OH2  188   0.923   0.728   1.232 -0.2193 -0.3869 -0.2454
   61TIP3    H1  189   0.942   0.755   1.142 -0.3836  2.4090  0.4518
   61TIP3    H2  190   0.841   0.680   1.227 -0.6198  0.3904 -1.5313
   62TIP3   OH2  191   1.124   4.538   0.615 -0.1324 -0.3496  0.2566
   62TIP3    H1  192   1.073   4.567   0.539  0.2164 -0.9457 -0.2205
   62TIP3    H2  193   1.068   4.476   0.660 -0.2004 -0.2713  0.2795
   63TIP3   OH2  194   3.392   0.409   4.805  0.0178 -0.0184 -0.4679
   63TIP3    H1  195   3.384   0.329   4.754 -0.4259 -0.7013  0.6588
   63TIP3    H2  196   3.319   0.463   4.776  0.0501 -0.1923 -0.8899
   64TIP3   OH2  197   3.552   5.588   1.366 -0.4250 -0.4110 -0.7150
   64TIP3    H1  198   3.506   5.561   1.446 -1.0485  0.4390 -0.7775
   64TIP3    H2  199   3.644   5.570   1.385 -0.5545 -0.1853  0.2129
   65TIP3   OH2  200   1.509   5.352   1.685  0.8838  0.1431 -0.2725
   65TIP3    H1  201   1.434   5.315   1.732  2.0196 -1.4825  0.3325
   65TIP3    H2  202   1.486   5.343   1.593  0.0668  0.2455 -0.0863
   66TIP3   OH2  203   4.994   0.781   0.636 -0.2123  0.0876 -0.1560
   66TIP3    H1  204   5.016   0.787   0.543 -1.6271 -0.5611 -0.5650
   66TIP3    H2  205   4.939   0.857   0.652 -0.7111 -0.2851 -0.0833
   67TIP3   OH2  206   0.163   4.454   5.155 -0.1078  0.1361 -0.2579
   67TIP3    H1  207   0.191   4.404   5.078  0.4610 -0.8553  0.5625
   67TIP3    H2  208   0.222   4.529   5.158 -0.2059  0.2356 -0.8572
   68TIP3   OH2  209   0.907   0.168   1.180 -0.2035 -0.0497 -0.0125
   68TIP3    H1  210   0.973   0.099   1.182  1.6383  1.6222  0.1192
   68TIP3    H2  211   0.909   0.206   1.268 -1.4727 -0.0634  0.0397
   69TIP3   OH2  212   0.062   2.693   1.301  0.6857  0.2075  0.3083
   69TIP3    H1  213   0.116   2.761   1.260  1.5698 -0.7963 -0.2339
   69TIP3    H2  214   0.113   2.613   1.291  0.5767 -0.2250  2.6819
   70TIP3   OH2  215   4.513   0.686   0.665 -0.6664 -0.2874 -1.2240
   70TIP3    H1  216   4.501   0.601   0.623 -0.6969 -0.5276 -0.7358
   70TIP3    H2  217   4.432   0.701   0.713 -0.9412  0.3439 -1.8667
   71TIP3   OH2  218   5.736   1.514   0.082  0.1390 -0.1571  0.1003
   71TIP3    H1  219   5.804   1.448   0.070  0.3622  0.0944 -0.0267
   71TIP3    H2  220   5.761   1.586   0.024 -0.9203 -0.5842 -0.9434
   72TIP3   OH2  221   4.334   0.879   1.559  0.5053  0.2995 -0.6033
   72TIP3    H1  222   4.349   0.784   1.567 -0.7593  0.2105  1.0441
   72TIP3    H2  223   4.249   0.886   1.516 -1.2451  0.5643  2.6403
   73TIP3   OH2  224   3.866   2.225   4.022  0.9594  0.1800  0.1431
   73TIP3    H1  225   3.928   2.284   3.978 -0.3072  1.7434  0.3960
   73TIP3    H2  226   3.868   2.251   4.114 -0.3427  0.5025  0.0932
   74TIP3   OH2  227   3.580   3.902   4.909 -0.0892 -0.0133 -0.0027
   74TIP3    H1  228   3.576   3.836   4.840 -0.4585 -0.1902  0.1836
   74TIP3    H2  229   3.510   3.877   4.970 -0.2719  0.5829  0.0370
   75TIP3   OH2  230   1.990   2.920   4.533  0.4201  0.5272  0.0450
   75TIP3    H1  231   2.058   2.913   4.466 -1.2250  0.7515 -1.7492
   75TIP3    H2  232   1.918   2.967   4.489 -1.1396 -0.2442  1.6431
   76TIP3   OH2  233   5.558   3.190   3.270  0.2144  0.5039  0.0783
   76TIP3    H1  234   5.556   3.096   3.251  1.5869  0.6850 -1.0174
   76TIP3    H2  235   5.646   3.207   3.303  0.1711  1.5136 -0.2824
   77TIP3   OH2  236   6.248   5.375   0.798 -0.5971 -0.6663  0.1915
   77TIP3    H1  237   6.316   5.434   0.766  1.7207 -2.7014  1.0599
   77TIP3    H2  238   6.216   5.331   0.719  0.1346 -0.7116 -0.0867
   78TIP3   OH2  239   2.936   4.803   3.837  0.4125  0.6233 -0.0506
   78TIP3    H1  240   2.854   4.764   3.868  0.5845  0.6222  0.4032
   78TIP3    H2  241   2.912   4.892   3.811  0.3683  0.8027  0.5847
   79TIP3   OH2  242   1.651   5.984   2.222  0.3822 -0.0078 -0.1156
   79TIP3    H1  243   1.589   5.956   2.289 -1.5433 -0.5908 -2.0277
   79TIP3    H2  244   1.674   5.904   2.175  1.0002  0.4966 -0.6944
   80TIP3   OH2  245   5.718   4.132   3.356  0.9922  0.3658 -0.2872
   80TIP3    H1  246   5.650   4.079   3.399  0.7520  1.2693  0.4872
   80TIP3    H2  247   5.689   4.138   3.265  1.4799 -1.5385 -0.5954
   81TIP3   OH2  248   5.917   2.550   3.776 -0.3511  1.0950  0.7440
   81TIP3    H1  249   6.010   2.537   3.798 -0.1230  1.3015 -0.0526
   81TIP3    H2  250   5.918   2.569   3.682 -0.9108  3.8527  1.2107
   82TIP3   OH2  251   2.965   1.451   4.319 -0.2175 -0.4228  0.4500
   82TIP3    H1  252   2.902   1.509   4.276  2.0585  1.7232 -0.1983
   82TIP3    H2  253   3.004   1.400   4.248 -0.1817 -0.6741  0.6494
   83TIP3   OH2  254   1.999   1.273   5.084  0.2186 -0.5762  0.3713
   83TIP3    H1  255   1.976   1.205   5.021  1.5062 -1.5887  0.9548
   83TIP3    H2  256   1.940   1.258   5.158 -1.6461  0.9278 -0.7209
   84TIP3   OH2  257   2.413   1.890   3.176 -0.1376 -0.6199  0.5189
   84TIP3    H1  258   2.470   1.907   3.251  1.8781 -0.9203 -0.8549
   84TIP3    H2  259   2.472   1.856   3.109 -1.9288 -0.6960 -1.0968
   85TIP3   OH2  260   1.942   5.840   0.752 -0.8016 -0.4349  0.3404
   85TIP3    H1  261   1.956   5.750   0.723 -1.3895 -0.5203  0.2942
   85TIP3    H2  262   2.014   5.859   0.812  0.5490 -0.2046 -1.2936
   86TIP3   OH2  263   0.305   2.741   0.451  0.6525 -0.2078 -0.6306
   86TIP3    H1  264   0.296   2.811   0.386  0.9944  0.4587  0.0148
   86TIP3    H2  265   0.226   2.747   0.504  1.2772  0.5883  0.2529
   87TIP3   OH2  266   1.704   4.108   3.503 -0.5233  0.3317 -0.2918
   87TIP3    H1  267   1.649   4.178   3.467 -0.9838  0.9049  1.4255
   87TIP3    H2  268   1.793   4.141   3.496 -0.7028  0.9272  0.0809
   88TIP3   OH2  269   3.436   2.223   0.942  0.1389 -0.2071 -0.2310
   88TIP3    H1  270   3.429   2.190   1.032  1.2391 -2.2078 -0.8133
   88TIP3    H2  271   3.521   2.265   0.938  0.5295 -1.0036 -0.5701
   89TIP3   OH2  272   4.477   4.790   3.230 -0.8389  0.3092  0.4215
   89TIP3    H1  273   4.484   4.724   3.161 -1.9513  0.5752  0.0461
   89TIP3    H2  274   4.418   4.856   3.195  1.4959  2.3939  0.0992
   90TIP3   OH2  275   0.383   2.931   2.088  0.3041  0.2477 -0.4656
   90TIP3    H1  276   0.321   2.860   2.076  1.1194 -0.2584 -1.8389
   90TIP3    H2  277   0.436   2.904   2.164 -1.2057  0.7713  0.8358
   91TIP3   OH2  278   0.935   4.366   0.731  0.0400  0.3107 -0.1326
   91TIP3    H1  279   0.848   4.384   0.766 -0.7484 -0.0857 -1.7464
   91TIP3    H2  280   0.943   4.270   0.735  1.1824  0.4359  1.6643
   92TIP3   OH2  281   1.338   2.561   3.126  0.2720 -0.2008 -0.3851
   92TIP3    H1  282   1.307   2.632   3.070  0.3143  0.8227  0.8565
   92TIP3    H2  283   1.434   2.564   3.117  0.2407 -0.6719 -0.9848
   93TIP3   OH2  284   1.935   3.533   3.653 -0.2624  0.2067 -0.5419
   93TIP3    H1  285   1.928   3.480   3.574 -0.0982  1.7769 -1.6775
   93TIP3    H2  286   1.845   3.543   3.684 -0.1462 -2.2047  0.7851
   94TIP3   OH2  287   0.729   4.443   0.197 -0.8435 -0.6774 -0.0652
   94TIP3    H1  288   0.707   4.455   0.104  0.0965 -0.4834 -0.2685
   94TIP3    H2  289   0.644   4.449   0.242 -1.3181 -0.8455 -0.9145
   95TIP3   OH2  290   3.370   4.702   3.796 -0.1341 -0.3303 -0.0346
   95TIP3    H1  291   3.312   4.689   3.721  0.3242 -2.3472 -0.0990
   95TIP3    H2  292   3.443   4.752   3.761 -0.8014  0.3876 -0.4521
   96TIP3   OH2  293   1.098   0.048   3.087  0.1940  0.2490  0.3005
   96TIP3    H1  294   1.088   0.006   3.172  0.3451  0.7496  0.5674
   96TIP3    H2  295   1.079  -0.022   3.023 -1.6624  0.2900  0.7435
   97TIP3   OH2  296   0.103   3.152   0.094  0.3392  0.0745  0.4379
   97TIP3    H1  297   0.041   3.210   0.049  0.5950 -1.9505 -2.8900
   97TIP3    H2  298   0.188   3.173   0.055  0.9530 -0.4525  1.4442
   98TIP3   OH2  299   2.480   3.327   3.001  0.4045  0.2425 -0.0057
   98TIP3    H1  300   2.484   3.420   3.023 -0.6093  0.0691  0.9974
   98TIP3    H2  301   2.464   3.282   3.084 -2.7672 -0.5073 -0.8673
   99TIP3   OH2  302   5.158   4.767   1.052 -0.1939 -0.4971 -0.3504
   99TIP3    H1  303   5.227   4.738   0.993 -1.9161 -0.9905 -2.2571
   99TIP3    H2  304   5.146   4.860   1.031  0.8353 -0.0287  1.0203
  100TIP3   OH2  305   2.890   5.879   2.069 -0.2916 -0.2840 -1.1367
  100TIP3    H1  306   2.915   5.791   2.044  2.0876  0.2314 -0.7710
  100TIP3    H2  307   2.869   5.922   1.986  0.3632 -0.6654 -1.5079
  101TIP3   OH2  308   3.517   4.580   4.501 -0.9900  0.3578  0.2337
  101TIP3    H1  309   3.478   4.552   4.418 -1.7257  0.7229  0.4468
  101TIP3    H2  310   3.557   4.501   4.536 -3.7321 -0.7256  1.2261
  102TIP3   OH2  311   5.712   5.739   4.761 -0.0895 -0.7240  0.4050
  102TIP3    H1  312   5.623   5.776   4.760  0.5374  0.9314  1.7620
  102TIP3    H2  313   5.731   5.726   4.854  1.6165  0.3693  0.2474
  103TIP3   OH2  314   2.838   1.185   4.608  0.1660  0.4198  0.2105
  103TIP3    H1  315   2.831   1.277   4.582  3.4691  0.5600 -0.6342
  103TIP3    H2  316   2.781   1.138   4.547 -1.1519  1.7986  0.3106
  104TIP3   OH2  317   3.993   5.318   1.957 -0.0334  0.1051  0.1999
  104TIP3    H1  318   4.075   5.365   1.974  0.2450 -0.4876  0.5476
  104TIP3    H2  319   3.950   5.369   1.889  1.1130 -0.1160 -0.7411
  105TIP3   OH2  320   3.992   2.633   1.209 -0.5732  0.4214 -0.6845
  105TIP3    H1  321   3.917   2.573   1.208 -0.7931  0.7045 -1.4382
  105TIP3    H2  322   3.963   2.706   1.264 -0.3903 -0.0366  0.0415
  106TIP3   OH2  323   1.350   3.526   0.101 -0.2046  0.2202  0.5417
  106TIP3    H1  324   1.321   3.616   0.085 -0.8353 -0.4259 -3.0288
  106TIP3    H2  325   1.445   3.530   0.096 -0.2424  0.6582  0.0156
  107TIP3   OH2  326   3.200   1.300   3.894  0.0859  0.3369 -0.3943
  107TIP3    H1  327   3.114   1.275   3.859  0.2678 -2.3334  0.8424
  107TIP3    H2  328   3.260   1.234   3.858  1.8958  2.6782 -1.9938
  108TIP3   OH2  329   4.498   3.751   0.954  0.6920  0.1804  0.5088
  108TIP3    H1  330   4.550   3.791   0.884 -0.2460  0.9579  0.2399
  108TIP3    H2  331   4.563   3.725   1.020  1.4376  0.9674  0.1073
  109TIP3   OH2  332   3.331   1.156   0.447  0.0572  0.0646  0.3259
  109TIP3    H1  333   3.293   1.189   0.528 -1.3835 -1.7576  0.4687
  109TIP3    H2  334   3.352   1.065   0.465  0.9733 -0.0067 -0.9513
  110TIP3   OH2  335   4.449   1.178   0.420  0.1779  0.6596 -0.4726
  110TIP3    H1  336   4.395   1.176   0.340 -0.1710  0.0143 -0.2250
  110TIP3    H2  337   4.387   1.201   0.489  0.5464  1.5709 -0.4258
  111TIP3   OH2  338   4.238   4.277   2.558  0.2026 -0.0596  0.3346
  111TIP3    H1  339   4.282   4.300   2.477 -0.9411  0.8124 -0.0669
  111TIP3    H2  340   4.290   4.205   2.595  1.1268  0.0083 -0.8076
  112TIP3   OH2  341   2.044   4.461   2.326  0.0179  0.5716  0.6955
  112TIP3    H1  342   1.998   4.417   2.398 -0.7484 -0.2030 -0.2276
  112TIP3    H2  343   1.989   4.443   2.249  0.3385  2.1380  0.0694
  113TIP3   OH2  344   2.378   3.248   1.603  0.3790 -0.5286  0.1718
  113TIP3    H1  345   2.356   3.198   1.681  0.9477 -0.5173  0.3467
  113TIP3    H2  346   2.473   3.240   1.596  0.3670 -0.2627 -0.3368
  114TIP3   OH2  347   6.108   5.808   2.772  0.2959  0.0649 -0.6738
  114TIP3    H1  348   6.105   5.902   2.755  0.7074  0.0794 -0.6840
  114TIP3    H2  349   6.040   5.770   2.717 -0.2040  0.4147 -0.2955
  115TIP3   OH2  350   5.324   0.653   1.785 -0.0143 -0.3263 -0.3569
  115TIP3    H1  351   5.398   0.648   1.724  0.1429 -1.4497 -0.1031
  115TIP3    H2  352   5.249   0.677   1.731  0.3337 -0.2152 -0.7986
  116TIP3   OH2  353   0.892   3.902   4.626  0.1183  0.3800  0.3066
  116TIP3    H1  354   0.874   3.810   4.648 -0.1454 -0.0221 -1.4616
  116TIP3    H2  355   0.813   3.932   4.582  0.2481  1.4401  0.7840
  117TIP3   OH2  356   1.543   2.474   0.993  0.3249 -0.3749 -0.1808
  117TIP3    H1  357   1.559   2.534   0.920 -0.3672 -0.4213 -0.3769
  117TIP3    H2  358   1.449   2.457   0.991  0.1463  0.2826  1.2478
  118TIP3   OH2  359   2.966   2.344   1.826 -0.5876 -0.2744  0.9616
  118TIP3    H1  360   3.007   2.376   1.745 -1.9765  0.8370  0.6496
  118TIP3    H2  361   3.038   2.306   1.876  1.0505  2.3963  0.8595
  119TIP3   OH2  362   4.750   1.258   4.550 -0.2252  0.0401  0.0861
  119TIP3    H1  363   4.790   1.262   4.463  0.7806 -0.3199  0.5136
  119TIP3    H2  364   4.822   1.232   4.608 -0.5335  1.5955  1.2356
  120TIP3   OH2  365   3.186   0.580   4.788 -0.1326 -0.1948 -0.2131
  120TIP3    H1  366   3.142   0.547   4.710 -1.4232  1.0616 -0.0731
  120TIP3    H2  367   3.160   0.519   4.858 -1.9503  0.6399 -0.0848
  121TIP3   OH2  368   6.012   3.023   3.018  0.4074 -0.2632  0.1219
  121TIP3    H1  369   6.094   3.047   2.975  1.1129  0.1038  1.6178
  121TIP3    H2  370   5.983   2.944   2.972  1.3169 -0.0994 -0.7707
  122TIP3   OH2  371   3.672   0.107   1.985 -0.1915  0.1180 -0.0358
  122TIP3    H1  372   3.580   0.134   1.988 -0.0505  0.5669  1.4492
  122TIP3    H2  373   3.688   0.067   2.071  0.9606 -0.0699 -0.3180
  123TIP3   OH2  374   3.460   0.762   1.298  0.5165 -0.3492 -0.5147
  123TIP3    H1  375   3.502   0.818   1.364 -0.3897 -0.0503 -0.1797
  123TIP3    H2  376   3.367   0.780   1.307  0.4574  1.1225 -3.1433
  124TIP3   OH2  377   0.605   4.510   4.196  0.1835 -0.4952  0.0875
  124TIP3    H1  378   0.544   4.455   4.146 -0.0092  0.4386 -0.7226
  124TIP3    H2  379   0.581   4.600   4.173  2.5167 -0.0876 -1.1195
  125TIP3   OH2  380   2.693   4.450   3.130 -0.1958  0.4284  0.3589
  125TIP3    H1  381   2.639   4.456   3.209 -0.9608  1.6943 -0.2245
  125TIP3    H2  382   2.664   4.370   3.087 -0.6914  0.4173  0.7072
  126TIP3   OH2  383   0.083   1.039   4.222  0.1617  0.1046  0.1129
  126TIP3    H1  384   0.072   0.980   4.148 -3.3247 -0.0866  0.6296
  126TIP3    H2  385   0.162   1.088   4.201 -0.0448 -0.7036 -3.2004
  127TIP3   OH2  386   0.153   2.874   1.107  0.2676  0.0513 -0.2076
  127TIP3    H1  387   0.166   2.871   1.012  0.8649  2.0309 -0.2291
  127TIP3    H2  388   0.233   2.913   1.141  0.1403 -0.8083  1.1619
  128TIP3   OH2  389   3.429   0.154   4.676 -0.5004 -0.0572 -0.2538
  128TIP3    H1  390   3.505   0.100   4.654 -0.5072  0.3680 -1.3612
  128TIP3    H2  391   3.364   0.092   4.710  0.6087 -0.3271  1.4884
  129TIP3   OH2  392   5.056   0.882   2.068 -0.0580  0.4285 -0.2684
  129TIP3    H1  393   5.076   0.950   2.133  0.3444  0.0177  0.0492
  129TIP3    H2  394   5.093   0.914   1.986  1.4605 -0.0581  0.1902
  130TIP3   OH2  395   5.488   0.730   4.174 -0.3017  0.3074 -0.2325
  130TIP3    H1  396   5.492   0.776   4.090  1.8950  0.5915 -0.0435
  130TIP3    H2  397   5.576   0.692   4.184 -0.4628  0.3938  1.9934
  131TIP3   OH2  398   3.789   4.215   1.948 -0.0833  0.4171 -0.0478
  131TIP3    H1  399   3.852   4.248   2.011  0.5584  0.2691 -0.6004
  131TIP3    H2  400   3.705   4.249   1.978  0.1903  0.2195  0.9643
  132TIP3   OH2  401   0.996   1.992   4.058 -0.1692  0.5273  0.7446
  132TIP3    H1  402   0.991   2.086   4.039 -1.5297  0.6819  1.7449
  132TIP3    H2  403   1.048   1.956   3.985  1.7120  2.2502  1.1278
  133TIP3   OH2  404   5.608   1.188   5.091 -1.2687 -0.8637 -0.0382
  133TIP3    H1  405   5.539   1.244   5.127  1.0941  0.1347  3.3393
  133TIP3    H2  406   5.666   1.248   5.044 -1.6982 -1.4389 -1.3563
  134TIP3   OH2  407   3.900   2.195   0.058 -0.2808 -0.2773 -0.3163
  134TIP3    H1  408   3.971   2.173  -0.002 -1.1716 -0.4276 -1.3597
  134TIP3    H2  409   3.936   2.263   0.115  1.0335 -1.1329 -0.0851
  135TIP3   OH2  410   5.697   4.858   5.103  0.7545 -0.2227 -0.1544
  135TIP3    H1  411   5.781   4.817   5.124  0.5087 -0.2202  0.8939
  135TIP3    H2  412   5.636   4.785   5.097  0.6133 -0.1365  0.2133
  136TIP3   OH2  413   3.769   5.577   0.892  0.6358  0.4401  0.1310
  136TIP3    H1  414   3.752   5.485   0.871  1.1174  0.1485  0.9526
  136TIP3    H2  415   3.701   5.600   0.955 -1.5309  1.6591 -2.4473
  137TIP3   OH2  416   5.585   1.009   2.943  0.5354  0.5993  0.2584
  137TIP3    H1  417   5.584   0.930   2.997  0.2936  1.6540  1.8796
  137TIP3    H2  418   5.677   1.022   2.920  0.7947  0.6665  1.2821
  138TIP3   OH2  419   5.018   3.285   4.842 -0.0667  0.6723 -0.3175
  138TIP3    H1  420   4.958   3.296   4.769  1.2732  0.0707 -1.5753
  138TIP3    H2  421   5.088   3.229   4.807  1.5959  1.9431  0.8355
  139TIP3   OH2  422   0.460   3.888   2.863  0.2866 -0.1188  0.2312
  139TIP3    H1  423   0.534   3.906   2.805 -0.1427 -0.7885 -0.5462
  139TIP3    H2  424   0.418   3.973   2.876  0.2158 -0.0041 -0.6864
  140TIP3   OH2  425   1.735   5.256   2.788  0.0147 -0.1508 -0.2521
  140TIP3    H1  426   1.719   5.338   2.742 -0.5712 -0.5240 -0.7358
  140TIP3    H2  427   1.830   5.252   2.800 -0.0664  1.3197  1.1467
  141TIP3   OH2  428   3.864   0.273   4.986  1.1571 -0.0198 -0.1675
  141TIP3    H1  429   3.871   0.194   5.040  0.1816 -0.2920 -0.4111
  141TIP3    H2  430   3.770   0.291   4.984  1.2692  0.4960 -1.0437
  142TIP3   OH2  431   2.155   4.916   4.266  0.1001 -0.2210  0.0650
  142TIP3    H1  432   2.099   4.895   4.341 -0.0968  0.2030  0.0396
  142TIP3    H2  433   2.181   5.007   4.280 -0.1159 -0.0676 -0.4904
  143TIP3   OH2  434   5.188   1.916   0.998 -0.6080 -0.0204  0.0395
  143TIP3    H1  435   5.220   1.985   1.056 -0.2373  1.2419 -1.6015
  143TIP3    H2  436   5.266   1.884   0.953 -1.1770  1.0071 -1.8036
  144TIP3   OH2  437   0.912   5.713   0.860  0.1580  0.3612 -0.0730
  144TIP3    H1  438   0.825   5.717   0.820  0.5278 -0.1737 -0.9873
  144TIP3    H2  439   0.938   5.804   0.872 -0.1699  0.5310 -0.6250
  145TIP3   OH2  440   5.247   1.997   5.026 -0.0490  0.0899  0.5321
  145TIP3    H1  441   5.213   2.051   5.097 -0.0906 -0.4388  0.9188
  145TIP3    H2  442   5.200   1.913   5.034 -2.2468  0.9254 -1.8764
  146TIP3   OH2  443   3.274   2.658   4.811  0.5935 -0.0878 -0.0574
  146TIP3    H1  444   3.250   2.657   4.718  1.0725  0.1271 -0.1828
  146TIP3    H2  445   3.297   2.749   4.829  1.7727 -0.3745 -0.0581
  147TIP3   OH2  446   0.012   2.064   4.335  0.0076 -0.5482  0.3783
  147TIP3    H1  447   0.023   1.982   4.383  2.1841 -1.1732 -1.0592
  147TIP3    H2  448   0.062   2.052   4.254 -1.0152  1.5851 -0.6750
  148TIP3   OH2  449   4.659   0.534   1.687  0.7272  0.0632 -0.7757
  148TIP3    H1  450   4.598   0.526   1.761  2.5233  2.6531  1.1417
  148TIP3    H2  451   4.696   0.446   1.678 -1.1736 -0.8599 -0.1181
  149TIP3   OH2  452   1.678   0.042  -0.002  0.3976  0.3487 -0.0299
  149TIP3    H1  453   1.748  -0.005   0.044  0.1034  0.8090  0.9177
  149TIP3    H2  454   1.652   0.111   0.059 -1.7528 -0.5930  0.1971
  150TIP3   OH2  455   2.265   0.345   1.111  0.3311 -0.5145 -0.4864
  150TIP3    H1  456   2.249   0.287   1.036 -1.0967  1.1685 -1.5571
  150TIP3    H2  457   2.251   0.289   1.187 -2.8400 -1.2288 -1.4392
  151TIP3   OH2  458   2.319   0.841   3.382 -0.2405  0.0522 -0.4318
  151TIP3    H1  459   2.239   0.892   3.394  0.7059  1.5661 -0.3370
  151TIP3    H2  460   2.334   0.842   3.287  0.4575  1.0579 -0.3226
  152TIP3   OH2  461   4.204   1.382   5.007 -0.0854  0.3943  0.4014
  152TIP3    H1  462   4.113   1.397   5.032 -0.5032 -1.4416  0.1182
  152TIP3    H2  463   4.217   1.437   4.929 -1.0949  0.3347  0.1787
  153TIP3   OH2  464   5.603   1.700   4.991  0.4231  0.7469 -0.2111
  153TIP3    H1  465   5.586   1.703   4.897 -1.6309 -0.1570  0.0735
  153TIP3    H2  466   5.687   1.654   4.999  0.3127  0.2673 -1.5746
  154TIP3   OH2  467   0.547   3.060   1.429 -0.0915  0.2835 -0.1457
  154TIP3    H1  468   0.637   3.085   1.408  0.1713 -0.0018  0.6028
  154TIP3    H2  469   0.535   3.090   1.519 -0.3904 -0.6326  0.1306
  155TIP3   OH2  470   1.735   3.740   5.110  0.1614 -0.2651  0.3609
  155TIP3    H1  471   1.761   3.746   5.018  0.0749 -1.9981  0.1934
  155TIP3    H2  472   1.639   3.742   5.108  0.1644  0.1960  0.4717
  156TIP3   OH2  473   6.146   0.653   2.221 -0.2323  0.6793  0.1350
  156TIP3    H1  474   6.209   0.665   2.150  1.1137 -1.0266  0.9786
  156TIP3    H2  475   6.155   0.732   2.275  3.3538 -0.6515  1.8101
  157TIP3   OH2  476   4.744   0.685   4.661 -0.3655 -0.5024 -0.4611
  157TIP3    H1  477   4.824   0.703   4.711  0.0584  1.3009 -1.6844
  157TIP3    H2  478   4.771   0.622   4.594  0.4683  1.1637 -1.7775
  158TIP3   OH2  479   1.575   0.748   3.288 -0.0569  0.0965 -0.5664
  158TIP3    H1  480   1.516   0.690   3.240 -0.7430  1.3038 -1.2148
  158TIP3    H2  481   1.530   0.765   3.370  1.8455 -3.3226  1.4321
  159TIP3   OH2  482   1.670   1.634   3.090  0.1027  0.2218  0.0718
  159TIP3    H1  483   1.604   1.638   3.160 -0.6073 -0.9349 -0.5096
  159TIP3    H2  484   1.750   1.668   3.131 -0.9367  2.1517  0.6553
  160TIP3   OH2  485   1.101   1.896   2.575  0.1960 -0.2955 -0.5530
  160TIP3    H1  486   1.144   1.810   2.577  1.4770  0.3226 -0.5711
  160TIP3    H2  487   1.156   1.949   2.518  0.1880  0.9267  0.5416
  161TIP3   OH2  488   4.143   1.650   4.628 -0.0784 -0.1349  0.3799
  161TIP3    H1  489   4.064   1.605   4.598 -0.0642  0.6436 -0.9417
  161TIP3    H2  490   4.184   1.681   4.547  2.1575 -1.4190  0.9389
  162TIP3   OH2  491   5.237   1.336   1.959 -0.4969 -0.1196  0.5743
  162TIP3    H1  492   5.155   1.342   1.910 -0.0806  1.6039  0.0247
  162TIP3    H2  493   5.246   1.422   2.000  0.0899 -0.9183  2.2125
  163TIP3   OH2  494   3.308   4.587   2.431 -0.4710  0.2228 -0.2931
  163TIP3    H1  495   3.311   4.566   2.338 -0.9999 -3.5368  0.3662
  163TIP3    H2  496   3.217   4.615   2.447 -0.8028 -0.6120 -0.6793
  164TIP3   OH2  497   4.592   5.394   1.592  0.4568 -0.3996  0.0889
  164TIP3    H1  498   4.662   5.404   1.527  0.4367  0.3093  0.1684
  164TIP3    H2  499   4.637   5.367   1.672  0.9152  1.8281  0.6663
  165TIP3   OH2  500   2.706   1.423   2.685 -0.0261  0.0192 -0.3925
  165TIP3    H1  501   2.726   1.418   2.592 -0.1403  0.8842 -0.4672
  165TIP3    H2  502   2.789   1.402   2.728  0.3681  0.9009 -0.6968
  166TIP3   OH2  503   1.667   0.337   0.558 -0.1281  0.4311  0.0948
  166TIP3    H1  504   1.730   0.273   0.589 -0.4607 -0.6547 -1.3760
  166TIP3    H2  505   1.718   0.418   0.547  0.8669 -0.2409 -0.4011
  167TIP3   OH2  506   2.948   3.450   2.472 -0.1253  0.1866  0.0897
  167TIP3    H1  507   3.017   3.402   2.425 -1.6003 -2.3043  0.2877
  167TIP3    H2  508   2.956   3.540   2.441  0.9268 -0.7444 -2.6161
  168TIP3   OH2  509   0.869   0.181   4.244 -0.1252 -0.4263 -0.5820
  168TIP3    H1  510   0.864   0.256   4.304  1.2555 -0.4244 -0.4506
  168TIP3    H2  511   0.778   0.152   4.235 -0.3980 -0.3071  1.3566
  169TIP3   OH2  512   5.955   2.042   1.632  0.0215 -0.0323 -0.6919
  169TIP3    H1  513   5.944   2.114   1.570 -0.6849 -0.3787 -0.9837
  169TIP3    H2  514   5.932   2.079   1.717 -0.6861  0.0001 -0.8921
  170TIP3   OH2  515   5.989   3.932   0.386  0.6630  0.1210 -0.6028
  170TIP3    H1  516   6.020   3.963   0.300 -1.5230 -0.5963 -1.7250
  170TIP3    H2  517   5.935   4.004   0.419  0.0492 -0.2999 -0.6736
  171TIP3   OH2  518   0.331   3.881   2.570 -0.5166  0.0265 -0.0959
  171TIP3    H1  519   0.379   3.894   2.652 -0.8499 -0.1079  0.1259
  171TIP3    H2  520   0.361   3.952   2.513 -0.3961  0.2162  0.1994
  172TIP3   OH2  521   2.940   0.103   1.455  0.2863  0.0198 -0.0766
  172TIP3    H1  522   3.003   0.092   1.526  0.3368  0.7763  0.0049
  172TIP3    H2  523   2.956   0.029   1.397 -0.8173 -1.5098  1.4762
  173TIP3   OH2  524   0.064   2.415   0.562  0.2985 -0.1135  0.1143
  173TIP3    H1  525  -0.023   2.376   0.561  0.4964 -0.5473 -0.6201
  173TIP3    H2  526   0.117   2.354   0.612 -0.4775  1.6844  3.4713
  174TIP3   OH2  527   0.593   0.924   3.823  0.4447  0.2369  0.1314
  174TIP3    H1  528   0.551   1.007   3.845 -1.3553 -0.3928 -0.7256
  174TIP3    H2  529   0.646   0.944   3.745  2.2402  1.1436  1.4964
  175TIP3   OH2  530   2.696   0.449   0.932  0.2833  0.4496  0.6274
  175TIP3    H1  531   2.677   0.367   0.886 -2.0425  1.1273  0.2373
  175TIP3    H2  532   2.612   0.474   0.972  0.3566  3.5965 -0.8839
  176TIP3   OH2  533   1.025   2.817   2.156 -0.3148  0.5070  0.4536
  176TIP3    H1  534   0.965   2.760   2.107  1.6369  0.6455 -2.3176
  176TIP3    H2  535   1.089   2.846   2.091  2.7076  0.4887  3.1877
  177TIP3   OH2  536   3.850   3.426   3.580  0.3544 -0.2403  0.2145
  177TIP3    H1  537   3.880   3.373   3.507 -0.1381 -2.1999  1.3639
  177TIP3    H2  538   3.780   3.480   3.543  0.0162 -1.2892 -0.7324
  178TIP3   OH2  539   4.209   3.212   2.725  0.1642 -0.1652  0.6319
  178TIP3    H1  540   4.239   3.143   2.667 -0.6804  0.6447 -0.8066
  178TIP3    H2  541   4.250   3.291   2.692 -1.7810  0.6189 -0.0679
  179TIP3   OH2  542   3.853   4.738   1.647 -0.3087  0.0102  0.0852
  179TIP3    H1  543   3.888   4.763   1.732 -0.6757  1.9694 -0.2907
  179TIP3    H2  544   3.919   4.680   1.609  0.6038  0.4180  1.0231
  180TIP3   OH2  545   4.228   1.443   1.862  0.0472 -0.3008  0.2929
  180TIP3    H1  546   4.154   1.383   1.853  0.6537 -1.1550  0.9147
  180TIP3    H2  547   4.302   1.397   1.823  0.8666 -0.6269  2.1289
  181TIP3   OH2  548   2.468   1.207   2.424 -0.7811  0.0431  0.2252
  181TIP3    H1  549   2.414   1.153   2.367  0.1452 -0.2675 -0.3769
  181TIP3    H2  550   2.556   1.197   2.390  0.1755 -1.8507  2.9937
  182TIP3   OH2  551   1.188   2.574   2.237  0.3509  0.4122  0.3379
  182TIP3    H1  552   1.257   2.640   2.238  0.1340  0.6637 -0.6103
  182TIP3    H2  553   1.126   2.605   2.172  0.2511 -0.7284 -0.1423
  183TIP3   OH2  554   3.661   5.661   2.420 -0.4712 -0.1627  0.0881
  183TIP3    H1  555   3.658   5.613   2.503 -0.4888 -0.2260  0.0512
  183TIP3    H2  556   3.569   5.671   2.396 -0.5163  0.8319  0.6313
  184TIP3   OH2  557   3.139   1.187   0.651  0.1937 -0.8320  0.3023
  184TIP3    H1  558   3.150   1.163   0.743 -0.2411 -2.4350 -0.0294
  184TIP3    H2  559   3.053   1.228   0.647  0.4615 -0.2279  0.7067
  185TIP3   OH2  560   2.966   4.329   0.063  0.1895 -0.0270 -0.2358
  185TIP3    H1  561   2.995   4.417   0.088  0.4562 -0.1418 -0.1268
  185TIP3    H2  562   3.044   4.290   0.023  0.4037 -0.5909  0.7006
  186TIP3   OH2  563   4.483   3.161   2.393  0.2117 -0.6162  0.1480
  186TIP3    H1  564   4.398   3.193   2.425  0.0843 -0.7436 -0.0599
  186TIP3    H2  565   4.461   3.082   2.344  0.5122 -0.9542  0.5546
  187TIP3   OH2  566   3.568   5.874   0.851 -0.2327 -0.1207  0.4160
  187TIP3    H1  567   3.486   5.827   0.860 -1.2303  1.5064  0.2536
  187TIP3    H2  568   3.591   5.866   0.758  0.0917 -1.0307  0.5686
  188TIP3   OH2  569   4.089   3.563   1.936 -0.3001 -0.1345 -0.0089
  188TIP3    H1  570   4.149   3.589   1.866 -0.3934 -0.2647 -0.1357
  188TIP3    H2  571   4.090   3.638   1.996  1.7902 -1.0138  1.1844
  189TIP3   OH2  572   4.946   5.381   0.244  0.2247 -0.7311  0.5861
  189TIP3    H1  573   4.989   5.370   0.159 -1.2530  0.9995 -0.4356
  189TIP3    H2  574   4.871   5.321   0.240 -1.9214  1.8590 -0.8690
  190TIP3   OH2  575   2.548   2.997   2.917 -0.1022 -0.1007 -0.9299
  190TIP3    H1  576   2.561   3.069   2.855  0.8702  0.1148 -0.4869
  190TIP3    H2  577   2.472   3.024   2.968  0.5789  0.8842 -0.4090
  191TIP3   OH2  578   6.250   1.710   4.171  0.2827  0.3368  0.2788
  191TIP3    H1  579   6.295   1.754   4.243 -1.4604  1.9609  0.4517
  191TIP3    H2  580   6.210   1.633   4.211  0.1153  0.7161  0.8555
  192TIP3   OH2  581   3.988   2.089   4.305  0.2038 -0.3394 -0.1404
  192TIP3    H1  582   3.952   2.177   4.294  2.3456  0.3989 -1.9429
  192TIP3    H2  583   4.026   2.089   4.393  0.1759  0.5421 -0.1231
  193TIP3   OH2  584   0.848   0.253   0.605  0.2145 -0.6341  0.1825
  193TIP3    H1  585   0.918   0.252   0.670  0.9851 -0.5568 -0.6242
  193TIP3    H2  586   0.876   0.319   0.540 -1.1550  0.2500  0.4322
  194TIP3   OH2  587   1.781   2.514   0.237  0.4898  0.1948  0.4154
  194TIP3    H1  588   1.749   2.514   0.147  0.6430 -1.3609  0.3213
  194TIP3    H2  589   1.849   2.446   0.238  0.6951  0.3851  1.6341
  195TIP3   OH2  590   0.614   1.970   0.916 -0.2707 -0.3047 -0.3627
  195TIP3    H1  591   0.632   2.064   0.920 -0.3316 -0.1886 -2.1511
  195TIP3    H2  592   0.610   1.950   0.823 -0.0278 -2.1446 -0.0157
  196TIP3   OH2  593   4.758   0.363   4.802 -0.2601  0.1607 -0.1443
  196TIP3    H1  594   4.850   0.390   4.802 -0.5016  1.0267 -0.2264
  196TIP3    H2  595   4.713   0.434   4.848 -0.5643 -1.4222  2.2322
  197TIP3   OH2  596   3.769   2.049   4.516 -0.0382 -0.1180 -0.2177
  197TIP3    H1  597   3.725   2.008   4.442 -1.5003  0.5319  0.2421
  197TIP3    H2  598   3.808   1.976   4.564 -0.6626 -0.7375 -0.6299
  198TIP3   OH2  599   4.793   3.576   3.420  0.6135  0.1227  0.1676
  198TIP3    H1  600   4.855   3.638   3.382  1.9516 -2.3042 -1.9118
  198TIP3    H2  601   4.717   3.579   3.362  0.8649 -0.4381 -0.2070
  199TIP3   OH2  602   1.526   2.651   3.522 -0.0152  0.4921  0.0387
  199TIP3    H1  603   1.439   2.652   3.483  0.8396 -0.0674 -2.0409
  199TIP3    H2  604   1.540   2.740   3.552 -1.2416  0.6211  0.2739
  200TIP3   OH2  605   1.649   5.081   2.583  0.1398 -0.0387  0.1888
  200TIP3    H1  606   1.603   5.111   2.505  1.7105 -1.9278 -1.5662
  200TIP3    H2  607   1.659   5.159   2.637 -1.2670  1.2546 -1.3391
  201TIP3   OH2  608   0.320   0.024   0.108  0.0753  0.0109  0.6791
  201TIP3    H1  609   0.334   0.012   0.014  0.4026 -0.7545  0.8162
  201TIP3    H2  610   0.391   0.082   0.135  0.7638 -0.8143  0.6816
  202TIP3   OH2  611   0.472   1.163   2.303 -0.3843 -0.0390 -0.1427
  202TIP3    H1  612   0.503   1.107   2.374 -0.8779  1.6426  1.4868
  202TIP3    H2  613   0.523   1.243   2.311 -1.6095  0.8288 -0.6161
  203TIP3   OH2  614   2.372   3.551   5.177  0.4176 -0.0137  0.2506
  203TIP3    H1  615   2.434   3.596   5.119 -0.6226  0.8446 -0.2479
  203TIP3    H2  616   2.287   3.591   5.156 -0.2043 -0.6951  1.3708
  204TIP3   OH2  617   3.174   1.074   0.931 -0.4471 -0.6918 -0.0934
  204TIP3    H1  618   3.128   0.990   0.934  0.5703 -1.2721 -0.4850
  204TIP3    H2  619   3.260   1.056   0.967 -0.2331  0.1974 -0.1374
  205TIP3   OH2  620   4.239   4.647   1.148 -0.5644  0.1875 -0.0306
  205TIP3    H1  621   4.195   4.574   1.105 -1.4150  0.2809  0.6563
  205TIP3    H2  622   4.311   4.608   1.196 -1.0410 -0.2124  0.3684
  206TIP3   OH2  623   5.000   3.446   3.131  0.0302  0.1165  0.1751
  206TIP3    H1  624   4.927   3.508   3.124 -0.7257 -0.7574  0.2718
  206TIP3    H2  625   4.972   3.383   3.197  1.6145  0.7487  1.5326
  207TIP3   OH2  626   0.512   1.081   4.730 -0.3208 -0.1786 -0.1466
  207TIP3    H1  627   0.566   1.035   4.666 -0.5624  0.3873 -0.7636
  207TIP3    H2  628   0.425   1.081   4.691 -0.6724 -0.6692  0.6257
  208TIP3   OH2  629   4.890   0.279   2.313  0.0718 -0.2584 -0.1985
  208TIP3    H1  630   4.806   0.290   2.357  0.4737 -0.3533  0.6232
  208TIP3    H2  631   4.900   0.185   2.303  0.1464 -0.2541 -0.1644
  209TIP3   OH2  632   1.123   3.519   1.217  0.7344  0.5594  0.4745
  209TIP3    H1  633   1.123   3.609   1.183  1.8872 -0.0035 -1.0606
  209TIP3    H2  634   1.159   3.466   1.147  1.5203 -0.9129  1.9197
  210TIP3   OH2  635   2.129   5.189   1.101 -0.3903 -0.0080  0.1864
  210TIP3    H1  636   2.087   5.152   1.179  1.3444 -1.4502  0.5001
  210TIP3    H2  637   2.193   5.252   1.136 -0.9820  0.8263 -0.1964
  211TIP3   OH2  638   2.253   1.158   4.006  0.0154  0.2120  0.0046
  211TIP3    H1  639   2.345   1.168   4.029 -0.1301 -1.0856  1.2886
  211TIP3    H2  640   2.207   1.153   4.090 -0.9663 -1.1551 -0.5636
  212TIP3   OH2  641   1.798   1.167   2.250 -0.2876  0.1021  0.1533
  212TIP3    H1  642   1.847   1.238   2.291  1.2228 -1.0623  0.4392
  212TIP3    H2  643   1.833   1.161   2.161 -0.2805 -0.3921  0.1852
  213TIP3   OH2  644   5.072   2.891   0.124  0.5637  0.1560 -0.3201
  213TIP3    H1  645   5.132   2.918   0.195  0.8310 -0.4741 -0.2934
  213TIP3    H2  646   5.008   2.961   0.118 -0.1826 -0.3224  1.3797
  214TIP3   OH2  647   3.781   5.275   4.350  0.4893  0.0057  0.0415
  214TIP3    H1  648   3.752   5.225   4.426 -0.1106 -1.4327 -1.0803
  214TIP3    H2  649   3.708   5.333   4.329  0.7291  0.5378  0.6541
  215TIP3   OH2  650   5.933   5.273   2.256  0.0597  0.0602  0.4822
  215TIP3    H1  651   5.934   5.285   2.351 -3.3760  0.8469  0.5306
  215TIP3    H2  652   5.993   5.200   2.241  0.4892 -0.2765  3.2634
  216TIP3   OH2  653   4.238   2.052   3.460 -0.0382  0.2776 -0.0888
  216TIP3    H1  654   4.150   2.071   3.492 -0.8004  0.1855 -1.9694
  216TIP3    H2  655   4.239   2.091   3.372  0.5427 -2.7355 -1.5379
  217TIP3   OH2  656   0.616   3.818   2.363 -0.6549 -0.4620  0.0839
  217TIP3    H1  657   0.575   3.904   2.372 -0.5744 -0.3272 -0.7775
  217TIP3    H2  658   0.654   3.819   2.275  0.5176 -0.8762  0.5722
  218TIP3   OH2  659   1.045   4.760   1.693  0.1909 -0.0297 -0.0985
  218TIP3    H1  660   1.051   4.666   1.713  1.7856 -0.1816 -1.0733
  218TIP3    H2  661   1.008   4.799   1.772  1.3412 -1.2506  1.0967
  219TIP3   OH2  662   1.121   4.469   1.223 -0.2450  0.3284  0.2449
  219TIP3    H1  663   1.174   4.391   1.243  1.5210  0.8486 -1.9847
  219TIP3    H2  664   1.055   4.438   1.161 -2.6063 -0.2766  2.8774
  220TIP3   OH2  665   3.407   0.457   2.166 -0.5394  0.1264 -0.6512
  220TIP3    H1  666   3.474   0.434   2.231 -0.8607  0.9268 -0.0230
  220TIP3    H2  667   3.422   0.396   2.094  1.2103  0.6231 -0.7610
  221TIP3   OH2  668   4.309   2.279   2.636 -0.3258 -0.1264 -0.4963
  221TIP3    H1  669   4.276   2.343   2.573  1.9693  1.2873 -0.3798
  221TIP3    H2  670   4.305   2.323   2.720  1.7391  0.1083 -0.4809
  222TIP3   OH2  671   4.892   5.447   2.234 -0.3169  0.0329 -0.1829
  222TIP3    H1  672   4.976   5.439   2.188 -0.2046 -0.5721  0.1284
  222TIP3    H2  673   4.870   5.540   2.226 -0.5928 -0.1568 -1.9895
  223TIP3   OH2  674   0.294   4.457   0.277 -0.3066  0.5277 -0.3718
  223TIP3    H1  675   0.338   4.381   0.239  0.0095  1.3801 -1.8066
  223TIP3    H2  676   0.328   4.531   0.227 -1.1935  1.5354  0.4650
  224TIP3   OH2  677   4.217   2.121   1.244 -0.0021 -0.0384  0.1381
  224TIP3    H1  678   4.141   2.157   1.197 -0.4462 -0.5147  0.4747
  224TIP3    H2  679   4.292   2.166   1.207 -0.4217  0.1793 -0.4638
  225TIP3   OH2  680   4.794   3.893   0.293  0.7947 -0.0555  0.1993
  225TIP3    H1  681   4.750   3.809   0.280  0.3340 -0.2353  2.3808
  225TIP3    H2  682   4.751   3.953   0.232 -0.7672 -0.8043  0.5142
  226TIP3   OH2  683   0.820   1.595   3.843  0.2924 -0.1605 -0.3551
  226TIP3    H1  684   0.773   1.591   3.926 -1.5246 -2.4323 -1.3508
  226TIP3    H2  685   0.751   1.602   3.777  1.3835 -2.0775 -1.8241
  227TIP3   OH2  686   6.233   5.574   2.683  0.2700 -0.0376 -0.2330
  227TIP3    H1  687   6.179   5.645   2.720 -0.8685 -1.7802  1.6407
  227TIP3    H2  688   6.170   5.504   2.665  1.7416 -1.7553  1.0183
  228TIP3   OH2  689   6.145   5.910   4.657  0.1677  0.0713  0.1922
  228TIP3    H1  690   6.113   5.951   4.576 -0.3064  1.1844  0.9239
  228TIP3    H2  691   6.073   5.921   4.719  0.5536 -0.7271  0.7959
  229TIP3   OH2  692   0.689   1.416   3.209  0.2213 -0.0846 -0.4131
  229TIP3    H1  693   0.648   1.348   3.263  1.1623 -0.6559 -0.3787
  229TIP3    H2  694   0.734   1.367   3.140  1.2440  0.4634 -0.1598
  230TIP3   OH2  695   3.506   5.633   4.009 -0.2576 -0.9492  0.0226
  230TIP3    H1  696   3.510   5.607   4.101 -4.1824  1.9574  1.3034
  230TIP3    H2  697   3.542   5.721   4.007 -2.6709  0.1250 -0.4950
  231TIP3   OH2  698   2.064   1.036   0.613  0.0089 -0.2778 -1.0212
  231TIP3    H1  699   2.030   0.970   0.552 -1.0563 -1.5377  0.8350
  231TIP3    H2  700   2.120   0.986   0.673  0.1559  0.7271 -0.3000
  232TIP3   OH2  701   0.146   0.107   1.425 -0.1510  0.1589  0.5760
  232TIP3    H1  702   0.156   0.200   1.403  1.4475 -0.0394  0.3864
  232TIP3    H2  703   0.164   0.061   1.343 -0.3970 -0.3509  0.8018
  233TIP3   OH2  704   2.262   0.959   3.805 -0.3246  0.4922  0.2747
  233TIP3    H1  705   2.284   1.001   3.888  4.8270 -1.5202  0.2959
  233TIP3    H2  706   2.283   0.867   3.818  0.0158 -0.0067 -2.9971
  234TIP3   OH2  707   2.550   5.067   2.606 -0.3914  0.3967 -0.0409
  234TIP3    H1  708   2.550   5.135   2.673  2.3087  1.5290 -1.0249
  234TIP3    H2  709   2.550   4.985   2.654  2.0274  1.1764  1.4795
  235TIP3   OH2  710   3.859   3.903   1.222 -0.1106  0.0156 -0.6762
  235TIP3    H1  711   3.835   3.847   1.296 -0.8357  0.3599 -0.6431
  235TIP3    H2  712   3.780   3.953   1.203  0.1318  0.0849 -1.5541
  236TIP3   OH2  713   2.878   2.021   4.897  0.4230 -0.2101 -0.1113
  236TIP3    H1  714   2.832   2.036   4.980  0.8638 -1.9339  0.4876
  236TIP3    H2  715   2.818   1.967   4.846 -0.0005  1.1346 -1.1100
  237TIP3   OH2  716   2.358   2.455   4.448  0.1725 -0.4123 -0.3372
  237TIP3    H1  717   2.373   2.364   4.474 -0.1671 -0.5089 -0.4780
  237TIP3    H2  718   2.271   2.475   4.482  0.5314  0.0878  0.3179
  238TIP3   OH2  719   2.908   3.105   0.277  0.1471  0.6612  0.1241
  238TIP3    H1  720   2.918   3.192   0.239 -1.8076 -0.1099 -2.4571
  238TIP3    H2  721   2.814   3.089   0.277  0.4754 -1.6129  0.1241
  239TIP3   OH2  722   2.539   1.866   0.160  0.2162 -0.5548  0.3866
  239TIP3    H1  723   2.477   1.919   0.110  0.0215 -2.2069 -1.2481
  239TIP3    H2  724   2.624   1.884   0.120  0.2134 -1.0833  0.1230
  240TIP3   OH2  725   5.905   4.903   3.562 -0.5068 -0.0972 -0.3068
  240TIP3    H1  726   5.866   4.945   3.486 -2.0507  1.5600  1.2842
  240TIP3    H2  727   5.857   4.821   3.572 -1.4899  0.4689 -0.1941
  241TIP3   OH2  728   6.098   3.227   0.422  0.1071 -0.2111 -0.6667
  241TIP3    H1  729   6.139   3.169   0.359  0.0343 -1.4744  0.3947
  241TIP3    H2  730   6.106   3.180   0.506  1.5088  2.0216  0.5481
  242TIP3   OH2  731   2.411   0.749   2.780  0.2817  0.2457 -0.3737
  242TIP3    H1  732   2.356   0.827   2.771 -0.0394  0.0931  0.2291
  242TIP3    H2  733   2.495   0.783   2.811  0.1565  0.3547 -0.1544
  243TIP3   OH2  734   5.648   1.799   3.126 -0.3005  0.6300 -0.2656
  243TIP3    H1  735   5.613   1.886   3.108 -0.9726  0.6069  0.8257
  243TIP3    H2  736   5.667   1.800   3.220  0.8881  0.0119 -0.4791
  244TIP3   OH2  737   0.623   1.211   3.419  0.3482  0.0085 -0.3094
  244TIP3    H1  738   0.573   1.129   3.413  1.4670 -0.6212 -1.6632
  244TIP3    H2  739   0.636   1.224   3.513 -0.6239 -0.8746 -0.0308
  245TIP3   OH2  740   0.371   2.156   1.147 -0.3744  0.4082  0.2851
  245TIP3    H1  741   0.286   2.116   1.132 -0.5203  1.2831 -1.3310
  245TIP3    H2  742   0.401   2.184   1.061  2.3768 -1.4602  0.4937
  246TIP3   OH2  743   2.889   1.435   2.471  0.2182  0.8746  0.3833
  246TIP3    H1  744   2.943   1.434   2.392  0.2459 -0.3959  0.4020
  246TIP3    H2  745   2.952   1.445   2.542  0.2685  1.1516  0.3019
  247TIP3   OH2  746   3.719   4.530   2.292  0.1823  0.2068  0.6959
  247TIP3    H1  747   3.714   4.554   2.200  0.1655 -1.7318  0.1489
  247TIP3    H2  748   3.678   4.603   2.338 -1.0111  0.6290 -0.9428
  248TIP3   OH2  749   3.364   5.795   1.385  0.2049 -1.0185 -0.9384
  248TIP3    H1  750   3.453   5.760   1.383  0.9389  0.7283  0.0318
  248TIP3    H2  751   3.323   5.752   1.460 -0.3600 -3.0691 -2.3320
  249TIP3   OH2  752   2.690   2.141   0.335  0.2537 -0.1624 -0.0386
  249TIP3    H1  753   2.635   2.158   0.259  0.8216 -0.0436 -0.4236
  249TIP3    H2  754   2.765   2.092   0.301  0.5920  0.0308  0.4112
  250TIP3   OH2  755   0.684   1.483   0.320  0.0056  0.0765 -0.1018
  250TIP3    H1  756   0.730   1.446   0.245 -0.1400  1.3267 -0.8361
  250TIP3    H2  757   0.687   1.577   0.306 -3.4426  0.2326 -0.6373
  251TIP3   OH2  758   0.983   3.809   2.348 -0.0576  0.2777  0.2583
  251TIP3    H1  759   0.968   3.900   2.372  2.6506  0.4537  1.6457
  251TIP3    H2  760   0.942   3.758   2.417 -0.7581  0.4439 -0.0237
  252TIP3   OH2  761   1.605   1.718   3.632 -0.2784  0.1266 -0.3675
  252TIP3    H1  762   1.534   1.658   3.612  0.0339 -0.5120  0.3936
  252TIP3    H2  763   1.685   1.667   3.617  0.0264  0.7430 -0.9235
  253TIP3   OH2  764   0.524   5.065   0.362 -0.1175 -0.2023 -0.1346
  253TIP3    H1  765   0.498   4.975   0.381 -1.2135  0.3276  1.0716
  253TIP3    H2  766   0.601   5.080   0.416 -0.9198  0.0790  0.9633
  254TIP3   OH2  767   1.893   0.040   0.375 -0.6543 -0.5052 -0.1582
  254TIP3    H1  768   1.970  -0.005   0.409 -0.7729 -1.2715 -0.8619
  254TIP3    H2  769   1.878   0.001   0.289 -1.5099  0.0110 -0.2635
  255TIP3   OH2  770   4.007   5.854   1.127 -0.3586  0.1503 -0.0573
  255TIP3    H1  771   3.935   5.885   1.073 -0.2237  0.6702  0.0607
  255TIP3    H2  772   4.059   5.798   1.068  0.5169  1.7487 -0.8683
  256TIP3   OH2  773   4.300   5.222   0.095 -0.7459 -0.2600 -0.3109
  256TIP3    H1  774   4.304   5.309   0.055 -0.9480 -1.0697 -2.2317
  256TIP3    H2  775   4.259   5.236   0.180  0.1033  1.6395 -0.1682
  257TIP3   OH2  776   5.319   0.216   1.609  0.2760 -0.0506 -0.4015
  257TIP3    H1  777   5.254   0.151   1.637  0.4328 -0.3445 -0.7202
  257TIP3    H2  778   5.403   0.175   1.628  0.3750  0.5968  0.6244
  258TIP3   OH2  779   4.920   1.137   4.706 -0.1859 -0.2905 -0.6282
  258TIP3    H1  780   4.886   1.071   4.645 -0.6918 -1.0071  0.4079
  258TIP3    H2  781   4.894   1.106   4.793  1.2194  0.3011  0.0344
  259TIP3   OH2  782   1.051   2.788   3.780 -0.4629 -0.2473 -0.0935
  259TIP3    H1  783   0.980   2.763   3.839 -1.6645  1.3911 -0.7761
  259TIP3    H2  784   1.068   2.880   3.799  0.0795 -0.0554 -1.3482
  260TIP3   OH2  785   1.101   0.736   4.534  0.0680  0.0503  0.4955
  260TIP3    H1  786   1.124   0.803   4.598 -1.0865  1.4551 -0.4806
  260TIP3    H2  787   1.026   0.772   4.487  0.3363 -1.2887 -1.0824
  261TIP3   OH2  788   2.863   0.305   3.497 -0.3073  0.6703 -0.7889
  261TIP3    H1  789   2.793   0.254   3.538  0.2021 -0.9937 -1.8935
  261TIP3    H2  790   2.834   0.319   3.407  1.0029 -0.6121 -1.4638
  262TIP3   OH2  791   4.496   3.548   4.143  0.3909  0.2873 -0.1230
  262TIP3    H1  792   4.471   3.462   4.177 -0.4585  0.5896  0.0463
  262TIP3    H2  793   4.541   3.529   4.060 -0.4259 -0.2890 -0.4474
  263TIP3   OH2  794   0.962   5.118   1.584  0.3254 -0.0420  0.4081
  263TIP3    H1  795   1.005   5.203   1.584  0.4482 -0.0887  1.7160
  263TIP3    H2  796   0.960   5.092   1.676 -0.5603 -1.0253  0.1277
  264TIP3   OH2  797   3.845   4.636   2.680 -0.1458 -0.1494 -0.0256
  264TIP3    H1  798   3.752   4.620   2.665 -0.4233  1.6254 -0.4386
  264TIP3    H2  799   3.852   4.732   2.686  1.6115 -0.2697  0.2649
  265TIP3   OH2  800   0.602   3.066   1.718  0.3546  0.4746 -0.0910
  265TIP3    H1  801   0.574   2.985   1.761 -1.3966  0.4039 -1.2279
  265TIP3    H2  802   0.697   3.057   1.710  0.4290 -0.6120  1.4502
  266TIP3   OH2  803   0.616   0.933   4.539 -0.0194  0.1909  0.1255
  266TIP3    H1  804   0.569   0.927   4.456 -0.4542  0.3207  0.3574
  266TIP3    H2  805   0.689   0.871   4.531 -1.1664 -1.2359  0.3804
  267TIP3   OH2  806   0.623   5.940   1.819 -0.2944  0.7503 -0.0508
  267TIP3    H1  807   0.599   5.969   1.731  0.6251 -0.9785 -0.9297
  267TIP3    H2  808   0.690   5.873   1.805 -0.4461  0.1000  1.9511
  268TIP3   OH2  809   2.673   1.280   0.974 -0.2519 -0.1814  0.0525
  268TIP3    H1  810   2.704   1.304   1.061 -2.0323 -2.6857  1.4988
  268TIP3    H2  811   2.586   1.244   0.988 -1.0141  0.2544 -2.9364
  269TIP3   OH2  812   1.757   5.402   1.628  0.1511 -0.7216 -0.2814
  269TIP3    H1  813   1.745   5.459   1.552 -0.0202 -0.5512 -0.1283
  269TIP3    H2  814   1.676   5.411   1.678  0.9176  0.5071  0.8162
  270TIP3   OH2  815   2.924   1.472   2.170  0.0929  0.0389  0.0197
  270TIP3    H1  816   3.012   1.457   2.135  0.4249  0.3019  0.7173
  270TIP3    H2  817   2.879   1.388   2.161  0.8030 -0.4282  0.7385
  271TIP3   OH2  818   4.378   4.354   0.747 -0.4661 -0.8425  0.0369
  271TIP3    H1  819   4.361   4.334   0.839 -1.0054  0.3005  0.2121
  271TIP3    H2  820   4.421   4.276   0.712 -0.6683 -1.4651  1.1419
  272TIP3   OH2  821   2.726   0.271   3.182 -0.7046  0.4790 -0.7568
  272TIP3    H1  822   2.667   0.337   3.217  0.3254  0.7390  0.5746
  272TIP3    H2  823   2.687   0.188   3.210  0.6198  0.6944  2.0568
  273TIP3   OH2  824   5.457   3.290   2.615  0.1739  0.1333 -0.3274
  273TIP3    H1  825   5.515   3.340   2.557 -0.0624 -0.8199 -1.4131
  273TIP3    H2  826   5.514   3.224   2.655 -0.0102 -0.3086 -0.7965
  274TIP3   OH2  827   0.937   5.396   3.925  0.7959 -0.1369  0.3579
  274TIP3    H1  828   0.917   5.330   3.859 -2.5037  1.3258 -0.2843
  274TIP3    H2  829   1.009   5.446   3.887 -0.2482 -0.0588 -1.6344
  275TIP3   OH2  830   2.247   3.570   4.221  0.4044 -0.1817 -0.1129
  275TIP3    H1  831   2.296   3.549   4.302 -0.5300 -0.5310  0.3782
  275TIP3    H2  832   2.303   3.632   4.175  0.6030  0.6712  1.2009
  276TIP3   OH2  833   0.752   5.354   2.401  0.9288 -0.0514  0.2493
  276TIP3    H1  834   0.802   5.332   2.322 -0.4231 -0.7030 -0.4769
  276TIP3    H2  835   0.722   5.270   2.434  1.3108  0.2417  1.3650
  277TIP3   OH2  836   1.408   2.445   2.720 -0.1720  0.1671  0.8052
  277TIP3    H1  837   1.399   2.429   2.626 -0.8493 -0.3652  0.9501
  277TIP3    H2  838   1.434   2.360   2.756 -1.2853  0.0119  1.2708
  278TIP3   OH2  839   2.900   0.814   4.388  0.2805 -0.0023  0.2459
  278TIP3    H1  840   2.936   0.727   4.404 -1.5078 -0.6331  1.1526
  278TIP3    H2  841   2.946   0.872   4.449 -0.8302 -0.9513  2.0685
  279TIP3   OH2  842   1.873   0.552   0.527  0.0673 -0.8095 -0.1519
  279TIP3    H1  843   1.925   0.481   0.564 -0.0376 -0.8141 -0.0136
  279TIP3    H2  844   1.886   0.625   0.587 -1.4460 -1.3053  0.8482
  280TIP3   OH2  845   4.553   3.096   3.782 -0.1394 -0.4398  0.0206
  280TIP3    H1  846   4.464   3.076   3.813  0.2385 -3.7021 -0.7444
  280TIP3    H2  847   4.610   3.062   3.850  0.6243  1.2126  0.2694
  281TIP3   OH2  848   3.640   1.570   4.424 -0.4443 -0.3159  0.0463
  281TIP3    H1  849   3.568   1.627   4.396 -0.6803 -1.3525 -1.6193
  281TIP3    H2  850   3.599   1.483   4.431  0.5913 -0.8955 -0.8180
  282TIP3   OH2  851   0.213   4.238   0.640  0.6297  0.1441  0.2670
  282TIP3    H1  852   0.147   4.174   0.667  1.9935 -2.1522 -1.3966
  282TIP3    H2  853   0.182   4.321   0.674 -2.1564 -1.1178  1.0896
  283TIP3   OH2  854   1.463   3.846   3.674  0.2707  0.5858 -0.3086
  283TIP3    H1  855   1.387   3.889   3.713  0.2469  0.3232 -0.0570
  283TIP3    H2  856   1.432   3.814   3.590 -0.0846 -0.0702  0.0588
  284TIP3   OH2  857   2.097   2.020   0.937 -0.1746  0.2926  0.2321
  284TIP3    H1  858   2.079   1.927   0.950  1.5124  0.0404  1.0894
  284TIP3    H2  859   2.020   2.065   0.971 -0.6824 -0.7671  0.5065
  285TIP3   OH2  860   0.318   5.544   4.025 -0.0774  0.0351  0.4008
  285TIP3    H1  861   0.356   5.472   3.974  0.1268  0.7875 -0.5454
  285TIP3    H2  862   0.348   5.623   3.980 -1.1407  0.6918  0.8166
  286TIP3   OH2  863   6.135   1.920   0.739  0.3162 -0.0084 -1.0432
  286TIP3    H1  864   6.065   1.882   0.792  0.9008 -0.6835 -0.7301
  286TIP3    H2  865   6.091   1.957   0.663 -0.5489  1.0906 -0.0325
  287TIP3   OH2  866   4.941   0.174   0.966 -0.2620  0.2238 -0.6785
  287TIP3    H1  867   4.970   0.109   1.030 -1.7996 -0.7215 -0.9015
  287TIP3    H2  868   4.973   0.257   1.001 -0.1794 -0.3909  0.7824
  288TIP3   OH2  869   0.269   3.696   4.550  0.0345  0.3494  0.0942
  288TIP3    H1  870   0.177   3.707   4.575 -0.6658 -1.2018 -1.5800
  288TIP3    H2  871   0.318   3.733   4.623 -1.9064  0.0893  1.6238
  289TIP3   OH2  872   4.252   2.108   0.879 -0.1762 -0.7027 -0.1895
  289TIP3    H1  873   4.179   2.142   0.931 -0.6977 -1.9706 -0.0532
  289TIP3    H2  874   4.309   2.184   0.865 -0.8129  0.0037  0.9004
  290TIP3   OH2  875   0.878  -0.026   0.696  0.6430 -0.0381 -0.0869
  290TIP3    H1  876   0.815   0.044   0.713 -1.1976 -1.5992  0.0005
  290TIP3    H2  877   0.929   0.004   0.621 -0.3076  1.2495 -0.2389
  291TIP3   OH2  878   3.859   4.347   2.720 -0.2766  0.1196 -0.2101
  291TIP3    H1  879   3.845   4.441   2.704 -1.4930 -0.1075 -0.5747
  291TIP3    H2  880   3.850   4.307   2.633  0.9046 -0.2749 -0.1689
  292TIP3   OH2  881   0.706   5.062   0.832 -0.7088  0.4107 -0.7114
  292TIP3    H1  882   0.713   5.014   0.750  3.0933  1.0804 -0.9599
  292TIP3    H2  883   0.688   4.994   0.898 -0.0842 -0.6981 -1.6432
  293TIP3   OH2  884   3.667   3.626   4.330  0.1907 -0.2026  0.0933
  293TIP3    H1  885   3.583   3.669   4.319  0.6736  0.3302 -1.8449
  293TIP3    H2  886   3.729   3.697   4.344  0.4239 -0.5596  0.9609
  294TIP3   OH2  887   5.456   0.178   0.024  0.7522 -0.1528  0.4945
  294TIP3    H1  888   5.361   0.188   0.016  0.7369 -0.3605  0.3849
  294TIP3    H2  889   5.475   0.099  -0.028  1.2453  1.0331 -1.1995
  295TIP3   OH2  890   5.650   0.567   0.361 -0.2673 -0.0090 -0.1102
  295TIP3    H1  891   5.585   0.506   0.396  1.8589 -2.1235  0.4782
  295TIP3    H2  892   5.732   0.517   0.361  0.4117  0.2632 -6.6452
  296TIP3   OH2  893   1.347   1.514   0.498 -0.1228  0.1572 -0.0305
  296TIP3    H1  894   1.405   1.453   0.545 -1.0217 -0.3125  0.5029
  296TIP3    H2  895   1.313   1.463   0.425  0.2581  0.4837 -0.4383
  297TIP3   OH2  896   4.243   1.184   0.879  0.2137  0.7347  0.6568
  297TIP3    H1  897   4.331   1.217   0.863  1.7731 -2.0237  2.6121
  297TIP3    H2  898   4.239   1.102   0.831 -0.0992 -0.6558  2.8833
  298TIP3   OH2  899   0.509   4.277   2.269 -0.3963  0.2737 -0.2373
  298TIP3    H1  900   0.596   4.283   2.307 -1.3617 -1.6077  2.6540
  298TIP3    H2  901   0.476   4.367   2.269  0.4099  0.6139  1.6598
  299TIP3   OH2  902   4.618   2.003   4.487 -0.3596  0.2441 -0.1025
  299TIP3    H1  903   4.702   1.994   4.442  0.1878  1.7440  0.5468
  299TIP3    H2  904   4.586   2.090   4.460 -0.7512  0.5186  1.1907
  300TIP3   OH2  905   3.356   1.600   4.551 -0.1751 -0.4791 -0.1126
  300TIP3    H1  906   3.380   1.688   4.521 -0.7184 -0.1660  0.3309
  300TIP3    H2  907   3.398   1.540   4.490 -0.4669  0.1131 -0.9022
  301TIP3   OH2  908   2.722   4.566   1.228  0.2798  0.2711 -0.5014
  301TIP3    H1  909   2.684   4.649   1.200 -1.3051 -0.5162 -0.8270
  301TIP3    H2  910   2.649   4.503   1.222  1.6787 -1.3744 -1.3087
  302TIP3   OH2  911   6.192   4.998   3.412 -0.1850 -0.3380 -0.0332
  302TIP3    H1  912   6.117   4.996   3.471 -0.5527 -0.7814 -0.5046
  302TIP3    H2  913   6.228   5.086   3.422 -3.3085  1.4980 -2.8852
  303TIP3   OH2  914   6.266   1.226   1.435 -0.0015  0.0936  0.3080
  303TIP3    H1  915   6.326   1.288   1.477 -1.6275  0.8336  1.7088
  303TIP3    H2  916   6.288   1.141   1.474  1.3789 -0.0082 -0.6423
  304TIP3   OH2  917   5.419   0.102   4.709 -1.3251  0.4127 -0.2744
  304TIP3    H1  918   5.377   0.083   4.793 -3.2155 -0.0129 -1.2575
  304TIP3    H2  919   5.417   0.197   4.701 -0.2180  0.5301  0.5714
  305TIP3   OH2  920   4.948   5.656   3.113  1.0435 -0.7407 -0.1141
  305TIP3    H1  921   4.869   5.620   3.072  0.0722  0.4180  0.6306
  305TIP3    H2  922   4.994   5.700   3.042  0.1251  0.0032 -0.2828
  306TIP3   OH2  923   0.578   0.221   1.992  0.3183 -0.3738  0.5815
  306TIP3    H1  924   0.579   0.183   1.904  0.5397 -0.3731  0.5826
  306TIP3    H2  925   0.651   0.178   2.037  2.1242  1.7619 -0.1478
  307TIP3   OH2  926   5.643   3.404   2.463  0.1811  0.0723  0.2624
  307TIP3    H1  927   5.671   3.351   2.388 -1.6703  0.6198 -0.8777
  307TIP3    H2  928   5.725   3.434   2.502  1.3186 -3.4371  0.8896
  308TIP3   OH2  929   0.776   4.458   1.998 -0.5056 -0.1521  0.3173
  308TIP3    H1  930   0.700   4.516   1.989  0.3644  0.7579 -2.2617
  308TIP3    H2  931   0.776   4.407   1.917  0.2017 -1.9951  1.4329
  309TIP3   OH2  932   6.235   4.095   4.148  0.2477 -0.1635 -0.2456
  309TIP3    H1  933   6.174   4.143   4.204 -0.4475 -0.1336 -1.0086
  309TIP3    H2  934   6.260   4.158   4.081  2.9976  0.6188  1.3326
  310TIP3   OH2  935   0.619   1.822   3.375 -0.1219  0.2751 -0.2977
  310TIP3    H1  936   0.653   1.864   3.296 -0.8006 -3.5620 -2.9160
  310TIP3    H2  937   0.681   1.752   3.393  0.3049  1.3514  3.0550
  311TIP3   OH2  938   0.705   2.622   2.176  0.1691 -0.4433  0.3114
  311TIP3    H1  939   0.688   2.529   2.164 -0.8801  0.0133 -2.5526
  311TIP3    H2  940   0.757   2.647   2.100 -1.3004  1.6877 -0.0869
  312TIP3   OH2  941   3.306   5.777   0.927 -0.1929  0.7598  0.7492
  312TIP3    H1  942   3.233   5.839   0.927 -0.8074  0.0536  0.8762
  312TIP3    H2  943   3.276   5.706   0.870  0.2800  0.3333  1.0282
  313TIP3   OH2  944   1.461   1.386   0.258  0.3343 -0.1803  0.3361
  313TIP3    H1  945   1.429   1.297   0.240  3.2518 -1.6479  1.6886
  313TIP3    H2  946   1.421   1.440   0.189 -3.2036 -2.0566  0.6698
  314TIP3   OH2  947   4.145   0.611   1.298  0.0878 -0.2899  0.1511
  314TIP3    H1  948   4.095   0.565   1.230  0.6091 -0.3825 -0.1776
  314TIP3    H2  949   4.146   0.550   1.372 -1.7407  0.4140  0.7951
  315TIP3   OH2  950   2.977   4.201   2.333 -0.4157 -0.5192  0.2851
  315TIP3    H1  951   3.017   4.259   2.397  0.7918  0.1973 -1.0546
  315TIP3    H2  952   3.019   4.116   2.347 -0.2527 -0.3966  0.5248
  316TIP3   OH2  953   5.179   3.141   4.437  0.1645 -0.4239 -0.2762
  316TIP3    H1  954   5.217   3.213   4.489  0.5086 -0.8822  0.1108
  316TIP3    H2  955   5.183   3.065   4.495 -0.9939 -0.5730 -0.3616
  317TIP3   OH2  956   0.149   5.835   2.865  0.0306  0.3493 -0.0789
  317TIP3    H1  957   0.179   5.896   2.797 -0.9652 -0.0747 -0.9095
  317TIP3    H2  958   0.113   5.761   2.818 -1.4891  0.4240  0.8764
  318TIP3   OH2  959   0.891   4.753   0.872 -0.4457  0.1719 -0.3928
  318TIP3    H1  960   0.847   4.792   0.948 -0.5068 -1.4411  0.4368
  318TIP3    H2  961   0.819   4.723   0.816 -0.3984  0.9506 -0.8771
  319TIP3   OH2  962   1.544   3.433   4.803  0.1943 -0.1315 -0.1299
  319TIP3    H1  963   1.604   3.508   4.812  1.7564 -1.3821  0.2628
  319TIP3    H2  964   1.500   3.448   4.719  0.5272  1.1944 -0.0934
  320TIP3   OH2  965   1.826   2.616   3.812 -0.2658  0.0350 -0.3193
  320TIP3    H1  966   1.744   2.586   3.773  1.2445 -0.3406 -3.5775
  320TIP3    H2  967   1.858   2.540   3.862 -1.0886 -0.4066 -0.4487
  321TIP3   OH2  968   1.150   4.902   2.048 -0.2003 -0.1509  0.4555
  321TIP3    H1  969   1.228   4.959   2.047  0.3867 -0.9486  0.0425
  321TIP3    H2  970   1.185   4.813   2.045 -1.1560 -0.5665 -3.6283
  322TIP3   OH2  971   3.044   3.845   2.848 -0.4972 -0.4972  0.1085
  322TIP3    H1  972   3.018   3.802   2.930 -0.4493  1.2909  1.1191
  322TIP3    H2  973   2.962   3.853   2.799 -1.4942  2.3393  1.9488
  323TIP3   OH2  974   1.091   2.183   3.006  0.1726  0.3380  0.4144
  323TIP3    H1  975   1.046   2.135   3.075 -0.8100  1.8076  0.8314
  323TIP3    H2  976   1.040   2.164   2.927 -0.7156  1.3447  0.7341
  324TIP3   OH2  977   5.403   1.596   0.505 -0.0522  0.5888  0.0957
  324TIP3    H1  978   5.470   1.534   0.533 -0.5465 -0.4996 -1.0348
  324TIP3    H2  979   5.349   1.610   0.583  1.9698  2.2389  1.3214
  325TIP3   OH2  980   0.999   1.510   1.501 -0.6011 -0.1136 -0.0007
  325TIP3    H1  981   0.971   1.584   1.447  2.2559  0.0097 -1.5012
  325TIP3    H2  982   1.063   1.547   1.561  1.0723 -1.3372 -0.9466
  326TIP3   OH2  983   2.499   4.693   2.537  0.3461 -0.5955  0.2854
  326TIP3    H1  984   2.506   4.598   2.533 -0.2069 -0.6097 -0.5832
  326TIP3    H2  985   2.537   4.716   2.621  1.6968 -1.4739 -0.0466
  327TIP3   OH2  986   6.099   3.076   3.532  0.1111  0.7010 -0.3032
  327TIP3    H1  987   6.183   3.111   3.560 -0.7693  2.7916 -0.1291
  327TIP3    H2  988   6.083   3.117   3.446 -0.3430 -0.3500 -0.7455
  328TIP3   OH2  989   0.538   3.727   1.138  0.2038 -0.3192 -0.0875
  328TIP3    H1  990   0.514   3.725   1.231 -0.5330  0.9029 -0.2305
  328TIP3    H2  991   0.550   3.820   1.119 -1.9648 -0.3117 -1.7719
  329TIP3   OH2  992   0.882   1.612   0.098  0.1446 -0.3545 -0.8422
  329TIP3    H1  993   0.860   1.530   0.054 -0.4233 -0.7430  0.1153
  329TIP3    H2  994   0.922   1.667   0.030  1.4392 -1.7799 -1.2731
  330TIP3   OH2  995   4.524   0.101   1.342 -0.4883 -0.5260 -0.2546
  330TIP3    H1  996   4.618   0.114   1.350 -0.6621  0.9932 -0.4531
  330TIP3    H2  997   4.499   0.146   1.262 -1.8620  2.0607  1.4804
  331TIP3   OH2  998   3.425   3.385   2.016 -0.1709 -0.4471  0.4432
  331TIP3    H1  999   3.378   3.303   2.032  1.4298 -1.9449 -1.8156
  331TIP3    H2 1000   3.509   3.357   1.979  0.8414  2.2154  0.5203
  332TIP3   OH2 1001   4.839   0.692   1.476  0.1093 -0.1324 -0.2298
  332TIP3    H1 1002   4.768   0.756   1.466  0.6229  0.5014  0.1018
  332TIP3    H2 1003   4.794   0.608   1.485 -0.6017  0.2518 -0.0856
  333TIP3   OH2 1004   5.776   2.043   3.934 -0.4709  0.1501  0.3776
  333TIP3    H1 1005   5.682   2.047   3.912 -0.0958  2.0421 -1.2110
  333TIP3    H2 1006   5.784   2.095   4.014 -0.7475  0.1940  0.3787
  334TIP3   OH2 1007   1.277   0.530   3.516  0.6255  0.3035 -0.0242
  334TIP3    H1 1008   1.349   0.472   3.539  1.0714  0.9572  0.2581
  334TIP3    H2 1009   1.283   0.538   3.421 -0.2647 -1.1659 -0.2229
  335TIP3   OH2 1010   6.021   1.121   4.643 -0.2223 -0.4199 -0.5496
  335TIP3    H1 1011   5.949   1.175   4.677 -0.8057  0.9923 -3.6821
  335TIP3    H2 1012   5.983   1.073   4.570  2.0936  1.0974 -2.9564
  336TIP3   OH2 1013   6.186   0.668   4.791 -0.0715 -0.0264 -0.1363
  336TIP3    H1 1014   6.097   0.672   4.756  0.1409 -1.5028 -0.9396
  336TIP3    H2 1015   6.239   0.711   4.724  0.0385 -0.8278 -0.5834
  337TIP3   OH2 1016   1.209   5.547   2.725 -0.0860 -0.8249  0.3465
  337TIP3    H1 1017   1.185   5.632   2.763  1.8757 -0.5354  1.0196
  337TIP3    H2 1018   1.125   5.501   2.715 -1.0775  0.7598  0.9757
  338TIP3   OH2 1019   0.300   0.294   4.503  0.3157  0.0209 -0.1975
  338TIP3    H1 1020   0.229   0.285   4.568  1.1244 -1.1535  0.5567
  338TIP3    H2 1021   0.288   0.220   4.444 -0.4258  1.0950 -1.4687
  339TIP3   OH2 1022   5.972   5.933   4.105 -0.0331 -0.1083  0.2402
  339TIP3    H1 1023   5.924   5.858   4.140  0.8648 -0.1345  1.4974
  339TIP3    H2 1024   5.910   5.976   4.047 -0.1211 -2.6517 -1.7468
  340TIP3   OH2 1025   2.269   1.939   2.392 -0.8680 -0.2100  0.2154
  340TIP3    H1 1026   2.262   1.846   2.373  1.7497 -0.3021 -0.8505
  340TIP3    H2 1027   2.340   1.969   2.334  0.2629  1.8226  2.4805
  341TIP3   OH2 1028   2.420   4.459   4.002  0.4822  0.0650 -0.4684
  341TIP3    H1 1029   2.332   4.490   3.979  0.2464 -0.1031  0.1665
  341TIP3    H2 1030   2.437   4.387   3.941  0.4105  0.4588 -0.9577
  342TIP3   OH2 1031   0.360   5.140   5.059  0.3593 -0.6225  0.3197
  342TIP3    H1 1032   0.443   5.175   5.029 -0.0470 -0.8680 -1.2046
  342TIP3    H2 1033   0.324   5.208   5.116  0.5951  0.4677 -0.7890
  343TIP3   OH2 1034   3.658   0.489   2.647  0.0196 -0.1645  0.2560
  343TIP3    H1 1035   3.594   0.443   2.702  0.3602  1.9006  2.5592
  343TIP3    H2 1036   3.740   0.444   2.663 -0.2225 -0.7188 -0.0331
  344TIP3   OH2 1037   3.710   5.318   4.651 -0.1787 -0.2540  0.3665
  344TIP3    H1 1038   3.798   5.288   4.673 -0.5472  0.0921  2.5738
  344TIP3    H2 1039   3.720   5.413   4.640 -0.1923 -0.2785  0.1454
  345TIP3   OH2 1040   2.234   0.915   4.633 -0.1051  0.1572 -0.3087
  345TIP3    H1 1041   2.155   0.968   4.621 -1.0256 -1.5162 -2.2452
  345TIP3    H2 1042   2.298   0.955   4.574 -0.4325 -0.1637 -0.8921
  346TIP3   OH2 1043   4.700   1.881   0.678  0.4139  0.1312 -0.6924
  346TIP3    H1 1044   4.779   1.874   0.731  1.0517  0.1374 -1.6294
  346TIP3    H2 1045   4.666   1.969   0.697  1.3418  0.6242 -1.2484
  347TIP3   OH2 1046   3.958   0.621   3.135 -0.2914 -0.2311 -0.1123
  347TIP3    H1 1047   3.951   0.545   3.193 -0.2251 -1.0822 -1.1825
  347TIP3    H2 1048   3.950   0.696   3.193 -2.9786 -1.0192  0.6833
  348TIP3   OH2 1049   5.438   3.991   2.522  0.4718 -1.0501 -0.3181
  348TIP3    H1 1050   5.495   4.066   2.540  0.9889 -1.6350  0.6125
  348TIP3    H2 1051   5.469   3.923   2.583  0.0941 -2.0514 -1.2207
  349TIP3   OH2 1052   1.946   4.426   1.005  0.1332  0.1371 -0.7354
  349TIP3    H1 1053   1.960   4.351   0.948  0.0467 -0.5109  0.0729
  349TIP3    H2 1054   1.949   4.390   1.094  5.5798  1.8278  0.1184
  350TIP3   OH2 1055   0.792   2.338   1.220  0.1503  0.2955  0.0145
  350TIP3    H1 1056   0.823   2.400   1.285 -1.5314  1.3765 -0.1379
  350TIP3    H2 1057   0.750   2.269   1.270  0.6664  0.0691  0.1366
  351TIP3   OH2 1058   4.061   1.056   2.997 -0.3784  0.2314 -0.0213
  351TIP3    H1 1059   4.024   1.022   2.915  0.0420  0.4348 -0.2985
  351TIP3    H2 1060   4.122   1.124   2.969  0.8226 -0.6524  0.3811
  352TIP3   OH2 1061   5.743   3.605   1.611  0.3418 -0.1814 -0.0677
  352TIP3    H1 1062   5.822   3.616   1.663  0.4864 -1.5331  0.0388
  352TIP3    H2 1063   5.684   3.674   1.641  2.3210  2.4783 -1.8724
  353TIP3   OH2 1064   0.705   1.895   5.012  0.1085 -0.1826 -0.6129
  353TIP3    H1 1065   0.760   1.923   5.085  0.3115 -0.6787 -0.5706
  353TIP3    H2 1066   0.622   1.942   5.024  0.6762  0.9389 -0.9398
  354TIP3   OH2 1067   2.354   0.111   4.574 -0.2471 -0.6966  0.1694
  354TIP3    H1 1068   2.327   0.195   4.537 -0.2306 -0.6468  0.2695
  354TIP3    H2 1069   2.286   0.090   4.637 -0.2625 -0.7696  0.1279
  355TIP3   OH2 1070   5.408   4.490   0.748 -0.0172 -0.4885 -0.2215
  355TIP3    H1 1071   5.414   4.557   0.817  1.1029 -0.3732 -0.3991
  355TIP3    H2 1072   5.315   4.469   0.742 -0.0745 -1.0019  1.7956
  356TIP3   OH2 1073   2.809   3.764   2.104  0.1739 -0.2305  0.5794
  356TIP3    H1 1074   2.889   3.711   2.103 -0.1640 -0.7577 -1.2925
  356TIP3    H2 1075   2.817   3.823   2.029 -0.7527  0.3971  0.9520
  357TIP3   OH2 1076   4.621   2.653   1.455  0.3453 -0.0481 -0.8881
  357TIP3    H1 1077   4.569   2.731   1.477  1.9776  0.5251  1.2801
  357TIP3    H2 1078   4.560   2.580   1.463 -0.4386  0.7150  0.3997
  358TIP3   OH2 1079   3.155   4.511   0.298 -0.1024 -0.0810 -0.0244
  358TIP3    H1 1080   3.240   4.476   0.326 -2.0175 -2.9218  2.9321
  358TIP3    H2 1081   3.145   4.592   0.348  0.6597  0.0461 -0.0556
  359TIP3   OH2 1082   2.689   2.132   5.106  0.0907 -0.3910  0.3713
  359TIP3    H1 1083   2.715   2.152   5.196  1.5187 -0.0082 -0.1090
  359TIP3    H2 1084   2.609   2.184   5.093  1.2825  1.5726  0.6020
  360TIP3   OH2 1085   5.654   0.628   1.349 -0.2589  0.5213  0.3560
  360TIP3    H1 1086   5.654   0.674   1.265  1.3870  0.1284  0.0959
  360TIP3    H2 1087   5.620   0.541   1.328 -0.6375  0.6880  0.2676
  361TIP3   OH2 1088   4.873   4.059   3.561 -0.0264 -0.4461 -0.2357
  361TIP3    H1 1089   4.825   3.993   3.611 -1.3570 -0.5618 -1.5845
  361TIP3    H2 1090   4.826   4.141   3.577  0.3290 -0.2347 -0.2609
  362TIP3   OH2 1091   0.217   1.748   1.986  0.3583  0.3922  0.1090
  362TIP3    H1 1092   0.185   1.834   1.961  0.9667  0.4902 -0.3554
  362TIP3    H2 1093   0.138   1.700   2.012 -0.1105  0.7644 -0.5997
  363TIP3   OH2 1094   1.714   4.950   0.509 -0.7947  0.1091  0.1932
  363TIP3    H1 1095   1.622   4.949   0.535 -0.8667 -0.9386 -0.0322
  363TIP3    H2 1096   1.763   4.947   0.591 -0.9792 -0.0787  0.2972
  364TIP3   OH2 1097   4.339   5.193   1.234 -0.0734  0.0956  0.0595
  364TIP3    H1 1098   4.411   5.130   1.232 -0.4829 -0.3758 -0.0530
  364TIP3    H2 1099   4.380   5.277   1.213  0.1379 -0.4714 -2.1073
  365TIP3   OH2 1100   5.234   3.715   1.249 -0.2546 -0.3479  0.3233
  365TIP3    H1 1101   5.243   3.626   1.216 -1.0739 -0.2277 -0.2654
  365TIP3    H2 1102   5.142   3.737   1.233 -0.1013  0.5432  0.6127
  366TIP3   OH2 1103   3.865   3.879   3.790 -0.5827  0.2798  0.1876
  366TIP3    H1 1104   3.782   3.834   3.805 -0.4683  0.5990  1.9880
  366TIP3    H2 1105   3.865   3.951   3.854  0.6944  0.8074 -0.3762
  367TIP3   OH2 1106   6.215   0.894   0.023 -0.3944 -0.0979 -0.1906
  367TIP3    H1 1107   6.186   0.884   0.113  0.2770  2.7892  0.4611
  367TIP3    H2 1108   6.137   0.878  -0.030 -1.7064  1.4754  1.1620
  368TIP3   OH2 1109   1.440   0.274   2.679 -0.6723  0.4672  0.1416
  368TIP3    H1 1110   1.374   0.342   2.690 -0.2318  1.1454 -1.1312
  368TIP3    H2 1111   1.513   0.303   2.734 -1.7169 -0.7356  2.2380
  369TIP3   OH2 1112   5.439   5.046   3.559 -0.0671 -0.0493 -0.1175
  369TIP3    H1 1113   5.501   5.030   3.488 -0.4069 -0.3439 -0.3540
  369TIP3    H2 1114   5.389   4.965   3.566  0.0567 -0.0764  0.5604
  370TIP3   OH2 1115   1.761   2.391   2.085  0.0139 -0.2742 -0.0010
  370TIP3    H1 1116   1.748   2.467   2.028 -0.6113 -0.8880 -0.6983
  370TIP3    H2 1117   1.855   2.386   2.098  0.2480 -0.5558 -1.6149
  371TIP3   OH2 1118   5.168   4.909   0.286 -0.0657 -0.1238 -0.6195
  371TIP3    H1 1119   5.250   4.868   0.313  0.0761  0.3365 -0.3353
  371TIP3    H2 1120   5.173   4.914   0.191  0.5320  0.5069 -0.5603
  372TIP3   OH2 1121   0.878   4.070   2.430  0.3053 -0.2852 -0.5550
  372TIP3    H1 1122   0.831   4.105   2.354 -1.4445 -0.6747  0.2892
  372TIP3    H2 1123   0.913   4.148   2.474 -0.6818  0.1507 -0.5096
  373TIP3   OH2 1124   1.058   4.836   2.782 -0.3257 -0.4723  0.1571
  373TIP3    H1 1125   1.072   4.930   2.797 -0.0712 -0.6134  0.8037
  373TIP3    H2 1126   1.141   4.804   2.748  0.1318 -0.7901  1.5265
  374TIP3   OH2 1127   6.202   3.367   2.118 -0.3096 -0.6075 -0.0394
  374TIP3    H1 1128   6.199   3.311   2.041  2.1597  0.9692 -1.4459
  374TIP3    H2 1129   6.137   3.435   2.101 -1.9696 -1.9296  0.7921
  375TIP3   OH2 1130   2.151   2.627   0.124 -0.3407  0.1352  0.0200
  375TIP3    H1 1131   2.082   2.561   0.137 -0.2858  0.2785  1.0639
  375TIP3    H2 1132   2.213   2.585   0.064  0.1028 -1.0872  1.2922
  376TIP3   OH2 1133   1.996   0.653   3.632  0.0376  0.0039 -0.3341
  376TIP3    H1 1134   1.961   0.720   3.692 -0.2848  0.0636 -0.5901
  376TIP3    H2 1135   1.948   0.666   3.551 -0.8031 -1.2485 -0.0536
  377TIP3   OH2 1136   2.620   2.530   1.333  0.1596 -0.4413 -0.3594
  377TIP3    H1 1137   2.713   2.531   1.356 -0.3001 -0.0831  1.6903
  377TIP3    H2 1138   2.599   2.622   1.317  0.1744 -0.5334 -0.9106
  378TIP3   OH2 1139   1.866   5.707   3.251 -0.6439  0.8088 -0.0678
  378TIP3    H1 1140   1.945   5.730   3.300  0.0935  1.1656 -1.3751
  378TIP3    H2 1141   1.794   5.746   3.301 -0.1652 -0.6604  1.8728
  379TIP3   OH2 1142   2.606   2.136   2.919  0.0363 -0.6054  0.0637
  379TIP3    H1 1143   2.665   2.211   2.923 -0.7664  0.0062  1.3775
  379TIP3    H2 1144   2.599   2.115   2.826  3.0287 -1.3256 -0.1026
  380TIP3   OH2 1145   4.277   3.597   0.203  0.2082 -0.6475  0.6614
  380TIP3    H1 1146   4.190   3.573   0.236  0.0294  0.7675  1.3171
  380TIP3    H2 1147   4.311   3.658   0.269  1.0508  0.0053 -0.3484
  381TIP3   OH2 1148   5.935   5.305   0.639 -0.3017 -0.2418  0.2367
  381TIP3    H1 1149   6.021   5.280   0.605 -0.9783 -0.2343 -1.5965
  381TIP3    H2 1150   5.887   5.222   0.645 -1.0721  0.0451 -1.4990
  382TIP3   OH2 1151   0.805   0.672   4.178  0.2413  0.0233 -0.5970
  382TIP3    H1 1152   0.741   0.660   4.107  0.1169  0.3715 -0.5438
  382TIP3    H2 1153   0.822   0.583   4.209  1.0758 -0.2353 -1.7488
  383TIP3   OH2 1154   3.169   2.546   3.402  0.3309  0.1279 -0.6337
  383TIP3    H1 1155   3.117   2.474   3.366  2.0551 -0.4983 -2.0117
  383TIP3    H2 1156   3.259   2.516   3.394  0.9615  1.4516  1.0787
  384TIP3   OH2 1157   6.105   5.693   3.875 -0.3045 -0.4770  0.0629
  384TIP3    H1 1158   6.175   5.643   3.832  0.5215  0.8971 -0.2560
  384TIP3    H2 1159   6.145   5.723   3.957 -0.6985 -0.1327  0.1302
  385TIP3   OH2 1160   5.500   2.322   1.394  0.2203  0.2275  0.1554
  385TIP3    H1 1161   5.468   2.258   1.331 -1.8981  1.5882 -0.2696
  385TIP3    H2 1162   5.580   2.356   1.356  0.0648 -0.4289 -0.7845
  386TIP3   OH2 1163   0.560   1.444   2.463 -0.2396  0.3485  0.5349
  386TIP3    H1 1164   0.586   1.473   2.376 -2.7841  3.2667  0.5834
  386TIP3    H2 1165   0.604   1.360   2.474  0.2916 -0.0968 -3.4781
  387TIP3   OH2 1166   4.439   1.530   2.402 -0.3879 -0.0630  0.2689
  387TIP3    H1 1167   4.353   1.548   2.440 -0.6809 -0.6141 -0.1217
  387TIP3    H2 1168   4.421   1.511   2.310  0.2979  1.1578 -0.1456
  388TIP3   OH2 1169   3.239   5.858   4.272  0.2205  0.0545 -0.5018
  388TIP3    H1 1170   3.302   5.922   4.307 -0.7942  2.2698 -2.4468
  388TIP3    H2 1171   3.174   5.849   4.341 -0.4255  2.4022 -0.7110
  389TIP3   OH2 1172  -0.006   0.814   4.994  0.6700  0.1367 -0.1384
  389TIP3    H1 1173  -0.046   0.778   4.914  0.6116  1.3460 -0.6782
  389TIP3    H2 1174   0.087   0.798   4.984  0.6039 -0.2064 -0.1973
  390TIP3   OH2 1175   6.029   2.259   4.790 -0.1145 -0.5284  0.1319
  390TIP3    H1 1176   6.120   2.289   4.783 -0.1169 -0.4274  0.5317
  390TIP3    H2 1177   5.994   2.270   4.701  0.2739 -0.6056 -0.0339
  391TIP3   OH2 1178   0.607   4.655   0.614 -0.4138 -0.1572 -0.6862
  391TIP3    H1 1179   0.527   4.620   0.574 -1.3543  1.0350  0.0992
  391TIP3    H2 1180   0.649   4.704   0.543 -1.5465  1.0883 -0.5300
  392TIP3   OH2 1181   5.742   5.351   3.841 -0.3859  0.3600 -0.2685
  392TIP3    H1 1182   5.692   5.377   3.764  2.5097  4.2884 -1.1552
  392TIP3    H2 1183   5.677   5.338   3.909 -2.7985  0.8608 -2.3188
  393TIP3   OH2 1184   1.078   3.067   2.454  0.0108 -0.7044  0.1803
  393TIP3    H1 1185   1.110   3.151   2.487  1.1437 -0.7228 -0.8276
  393TIP3    H2 1186   1.147   3.035   2.397 -0.0290 -2.7308  1.1752
  394TIP3   OH2 1187   4.376   5.539   3.136 -0.3012 -0.1270  0.3646
  394TIP3    H1 1188   4.409   5.607   3.077  2.4106 -0.8877  0.8261
  394TIP3    H2 1189   4.307   5.581   3.187  2.4397  2.9434  1.8870
  395TIP3   OH2 1190   6.009   0.542   2.578 -0.1448 -0.3519  0.6278
  395TIP3    H1 1191   5.947   0.483   2.537  0.3299 -0.6733  0.3630
  395TIP3    H2 1192   6.017   0.615   2.516  1.5396 -1.4270 -0.5326
  396TIP3   OH2 1193   0.956   3.613   0.542  0.1285 -0.4820 -0.3861
  396TIP3    H1 1194   0.881   3.673   0.542 -0.0512 -0.7045 -0.2094
  396TIP3    H2 1195   0.934   3.549   0.474  1.4360  1.0230 -2.3375
  397TIP3   OH2 1196   3.599   1.750   3.586 -0.0515  0.3618 -0.2170
  397TIP3    H1 1197   3.654   1.788   3.518 -1.0604 -0.4320 -1.5125
  397TIP3    H2 1198   3.654   1.753   3.665  2.4123 -1.6659 -1.7123
  398TIP3   OH2 1199   0.385   0.727   3.450 -0.5280 -0.0392  0.5070
  398TIP3    H1 1200   0.453   0.720   3.383  0.1608 -0.0199  1.1858
  398TIP3    H2 1201   0.403   0.655   3.510 -0.3370  0.6934  1.3630
  399TIP3   OH2 1202   4.478   0.951   0.186  0.3405 -0.2638 -0.1197
  399TIP3    H1 1203   4.526   0.999   0.254 -0.7769  1.3296 -0.3956
  399TIP3    H2 1204   4.433   0.881   0.234 -1.1547  1.3734  1.0018
  400TIP3   OH2 1205   6.326   4.144   3.839 -0.4815 -0.3167 -0.1659
  400TIP3    H1 1206   6.316   4.230   3.881  0.2191 -0.7845  0.9956
  400TIP3    H2 1207   6.246   4.134   3.788 -1.4760  0.1947  1.2222
  401TIP3   OH2 1208   2.709   1.823   1.770  0.3683  0.4131 -0.0558
  401TIP3    H1 1209   2.737   1.752   1.827  0.0358 -0.3940 -0.8836
  401TIP3    H2 1210   2.614   1.827   1.780  0.5530  1.9637  1.3777
  402TIP3   OH2 1211   2.089   1.912   3.727  0.2512 -0.5066 -1.0418
  402TIP3    H1 1212   2.030   1.874   3.662  0.4767 -0.5663 -1.2126
  402TIP3    H2 1213   2.031   1.937   3.800  0.2086 -1.9821 -0.5391
  403TIP3   OH2 1214   0.468   4.680   3.028  0.3244 -0.1645 -0.0440
  403TIP3    H1 1215   0.437   4.650   3.114  0.0331 -1.1606 -0.4902
  403TIP3    H2 1216   0.499   4.601   2.985 -0.5792  0.1325 -1.2913
  404TIP3   OH2 1217   5.733   5.240   1.440  0.4820  0.0607 -0.5617
  404TIP3    H1 1218   5.764   5.298   1.510  0.1062  1.4445 -1.4987
  404TIP3    H2 1219   5.805   5.178   1.428  0.6623 -0.0517  0.8648
  405TIP3   OH2 1220   3.115   5.725   4.721  0.0813 -0.1413 -0.2920
  405TIP3    H1 1221   3.151   5.781   4.790 -0.8039  0.4142 -0.2737
  405TIP3    H2 1222   3.150   5.638   4.741  1.0443  0.2891 -0.0171
  406TIP3   OH2 1223   3.188   4.817   0.038 -0.2203 -0.4042 -0.3737
  406TIP3    H1 1224   3.218   4.811   0.128  0.9415  0.1711 -0.6977
  406TIP3    H2 1225   3.110   4.872   0.042 -0.1182 -0.3007  0.2749
  407TIP3   OH2 1226   1.576   0.394   3.331 -0.3989 -0.0405  0.0392
  407TIP3    H1 1227   1.506   0.414   3.268 -0.5959  1.5237  0.7058
  407TIP3    H2 1228   1.534   0.338   3.396 -0.5118 -0.6805 -0.5727
  408TIP3   OH2 1229   5.895   5.559   0.555 -0.0315  0.6979 -0.0557
  408TIP3    H1 1230   5.937   5.480   0.590  0.8386  1.6022  0.9838
  408TIP3    H2 1231   5.883   5.616   0.630 -0.4210  1.6743 -0.8317
  409TIP3   OH2 1232   4.046   0.392   0.871 -0.1252  0.5173 -0.4350
  409TIP3    H1 1233   4.000   0.313   0.898  0.9436  0.5944  1.8941
  409TIP3    H2 1234   4.002   0.421   0.791 -1.0148 -1.9901 -0.9170
  410TIP3   OH2 1235   2.854   5.720   4.839  0.2553  0.2535 -0.5979
  410TIP3    H1 1236   2.796   5.745   4.768 -0.5272 -0.8902 -0.3847
  410TIP3    H2 1237   2.941   5.748   4.810 -0.1112  0.2131 -1.7879
  411TIP3   OH2 1238   4.309   1.188   3.389  0.1199 -0.7191  0.2163
  411TIP3    H1 1239   4.339   1.159   3.303 -0.4328 -0.6516 -0.0035
  411TIP3    H2 1240   4.308   1.109   3.443 -2.3580 -1.3535 -0.6521
  412TIP3   OH2 1241   1.297   4.960   4.927 -0.4608  0.4687  0.2275
  412TIP3    H1 1242   1.235   5.023   4.888  2.4303  1.6074 -3.0543
  412TIP3    H2 1243   1.348   5.011   4.989 -2.5929 -0.4678  2.9248
  413TIP3   OH2 1244   0.440   2.550   3.299 -0.4415 -0.0736  0.4494
  413TIP3    H1 1245   0.406   2.469   3.262 -3.0538  0.9755  0.3496
  413TIP3    H2 1246   0.483   2.594   3.225  1.1276 -1.3388  0.5392
  414TIP3   OH2 1247   2.655   0.952   2.355 -0.0317 -0.3832  0.5516
  414TIP3    H1 1248   2.687   1.036   2.387  1.0949 -1.3864  2.1488
  414TIP3    H2 1249   2.731   0.894   2.357 -0.0873 -0.8494 -3.0422
  415TIP3   OH2 1250   0.355   3.824   4.781 -0.0019  0.2305  0.4449
  415TIP3    H1 1251   0.347   3.918   4.765 -0.5973 -0.2270 -2.4362
  415TIP3    H2 1252   0.330   3.813   4.873  0.5230  2.9004  0.9785
  416TIP3   OH2 1253   2.650   2.435   4.891  0.3560 -0.3721  0.1231
  416TIP3    H1 1254   2.739   2.423   4.924  0.5867  0.4761 -0.1630
  416TIP3    H2 1255   2.594   2.414   4.966  0.8874  1.9996  1.3066
  417TIP3   OH2 1256   2.372   4.620   0.523 -0.0704  0.0009  0.0596
  417TIP3    H1 1257   2.459   4.632   0.485 -0.5848  1.1620 -0.8208
  417TIP3    H2 1258   2.388   4.605   0.616  1.1918 -2.2129 -0.4409
  418TIP3   OH2 1259   5.222   3.325   2.924  0.2282 -0.0634 -0.1695
  418TIP3    H1 1260   5.309   3.287   2.914  0.0255 -0.3000 -1.1344
  418TIP3    H2 1261   5.188   3.287   3.005  0.8044 -0.3950 -0.0779
  419TIP3   OH2 1262   1.680   1.927   3.466  0.7473  0.8561  0.0357
  419TIP3    H1 1263   1.722   1.994   3.520  3.7815 -1.0389  0.2570
  419TIP3    H2 1264   1.651   1.860   3.528 -1.0232  1.2520 -0.2996
  420TIP3   OH2 1265   3.535   0.642   1.068  0.5755  0.2870  0.1220
  420TIP3    H1 1266   3.471   0.660   1.000  1.3517 -0.9754 -0.9862
  420TIP3    H2 1267   3.505   0.693   1.143 -0.4052  1.5703 -1.0911
  421TIP3   OH2 1268   2.491   0.476   1.473  0.3928  0.4813  0.5644
  421TIP3    H1 1269   2.428   0.489   1.545  0.3860  0.7143  0.5177
  421TIP3    H2 1270   2.498   0.381   1.464  0.0853  0.4540  0.6058
  422TIP3   OH2 1271   2.008   5.857   2.113 -0.3165  0.0350  0.1594
  422TIP3    H1 1272   2.073   5.870   2.043  0.4080  1.8761  1.0843
  422TIP3    H2 1273   1.924   5.857   2.069  0.2347 -1.0847 -0.9355
  423TIP3   OH2 1274   1.765   4.221   1.209  0.6488 -0.1922  0.0826
  423TIP3    H1 1275   1.701   4.158   1.176  0.5119 -0.3635  0.6753
  423TIP3    H2 1276   1.713   4.299   1.229  0.3349 -0.8869  2.1585
  424TIP3   OH2 1277   4.970   0.980   2.686 -0.3317  0.2357  0.3783
  424TIP3    H1 1278   4.910   1.032   2.739 -0.4977  0.4346  0.0024
  424TIP3    H2 1279   4.913   0.922   2.635 -0.4478  2.2319 -1.9551
  425TIP3   OH2 1280   1.382   5.275   3.383  0.3801  0.1795  0.2059
  425TIP3    H1 1281   1.297   5.311   3.406  1.2634  1.7692  1.1594
  425TIP3    H2 1282   1.428   5.267   3.467  2.0757  1.8548 -0.4856
  426TIP3   OH2 1283   1.667   2.061   3.700  0.0190 -0.0245  0.7783
  426TIP3    H1 1284   1.646   1.993   3.763  0.7089 -1.7284 -0.7486
  426TIP3    H2 1285   1.731   2.116   3.745 -1.0848  0.1027  2.2949
  427TIP3   OH2 1286   3.933   2.724   4.242 -0.1189  0.3559  0.3992
  427TIP3    H1 1287   3.997   2.789   4.270 -0.3330  0.1963  1.2723
  427TIP3    H2 1288   3.872   2.716   4.315 -0.6423 -0.1322 -0.0751
  428TIP3   OH2 1289   5.115   2.941   3.894  0.1242 -0.1582  0.2732
  428TIP3    H1 1290   5.117   2.846   3.903 -1.0323 -0.0870  1.6569
  428TIP3    H2 1291   5.202   2.964   3.861  0.1436 -1.7484 -0.9234
  429TIP3   OH2 1292   2.955   4.476   3.187 -0.0092 -0.2077 -0.6696
  429TIP3    H1 1293   2.995   4.407   3.134 -1.0639 -1.0116 -0.4500
  429TIP3    H2 1294   2.863   4.476   3.161 -0.0063  1.1792 -0.7215
  430TIP3   OH2 1295   5.320   5.502   3.000 -0.2711  0.3943 -0.3535
  430TIP3    H1 1296   5.315   5.591   3.033  0.0908  0.2581  0.0775
  430TIP3    H2 1297   5.233   5.465   3.019  0.3011 -0.0685  1.5874
  431TIP3   OH2 1298   3.432   4.487   0.304  0.3953 -0.5894  0.2635
  431TIP3    H1 1299   3.479   4.415   0.345  2.7190  0.5594 -0.2292
  431TIP3    H2 1300   3.469   4.566   0.343 -0.4098  0.3976 -0.8952
  432TIP3   OH2 1301   2.340   4.124   4.883 -0.1538 -0.0283  0.3512
  432TIP3    H1 1302   2.405   4.061   4.855 -0.8133 -0.1085 -1.0950
  432TIP3    H2 1303   2.296   4.083   4.957  0.8579 -0.3269  0.7882
  433TIP3   OH2 1304   0.270   1.797   1.608  0.1340 -0.4035  0.3896
  433TIP3    H1 1305   0.182   1.765   1.592  0.0753  0.3036 -0.8674
  433TIP3    H2 1306   0.327   1.737   1.560  0.1511  0.3750 -0.5913
  434TIP3   OH2 1307   1.783   0.807   3.126  0.6667  0.0318 -0.1070
  434TIP3    H1 1308   1.830   0.725   3.140  0.1842 -0.0687  0.9424
  434TIP3    H2 1309   1.704   0.800   3.178  0.5793  1.1345 -0.0592
  435TIP3   OH2 1310   1.741   0.282   3.093  0.0936  0.7711 -0.2128
  435TIP3    H1 1311   1.745   0.316   3.182  1.3241  0.8768 -0.2892
  435TIP3    H2 1312   1.738   0.187   3.104 -3.4317  0.7694  0.0023
  436TIP3   OH2 1313   4.143   5.604   2.344  0.1896 -0.1950  0.1333
  436TIP3    H1 1314   4.082   5.645   2.405 -0.0978 -0.3071 -0.0760
  436TIP3    H2 1315   4.230   5.629   2.376  0.0438 -0.4270  0.7007
  437TIP3   OH2 1316   2.038   1.429   3.207 -0.2306  0.0443  0.1345
  437TIP3    H1 1317   2.015   1.464   3.121 -1.1616  0.6542  0.6012
  437TIP3    H2 1318   2.090   1.498   3.248 -0.9715  0.3647  0.5690
  438TIP3   OH2 1319   1.566   1.499   0.822 -0.2672 -0.5589 -0.2065
  438TIP3    H1 1320   1.547   1.450   0.902 -1.0849 -1.1123 -0.7238
  438TIP3    H2 1321   1.560   1.434   0.752 -1.7840  0.3341 -0.9607
  439TIP3   OH2 1322   2.407   2.469   2.816  0.1678 -0.4686 -0.6046
  439TIP3    H1 1323   2.373   2.386   2.783  0.1154 -0.2900 -1.0030
  439TIP3    H2 1324   2.435   2.517   2.738 -0.8619  0.3635 -0.4974
  440TIP3   OH2 1325   4.784   1.386   2.395 -0.3534 -0.1101  0.3255
  440TIP3    H1 1326   4.765   1.314   2.454 -1.7267 -1.6419 -1.8369
  440TIP3    H2 1327   4.722   1.375   2.323  1.7086  1.1737 -1.8027
  441TIP3   OH2 1328   3.979   4.051   4.830 -0.1403  0.2968 -0.3911
  441TIP3    H1 1329   3.988   4.015   4.741 -0.4660 -0.2943 -0.1882
  441TIP3    H2 1330   4.062   4.096   4.846  0.5399 -0.9332 -0.3886
  442TIP3   OH2 1331   2.133   5.506   1.484 -0.2171 -0.0693  0.1616
  442TIP3    H1 1332   2.070   5.454   1.435  0.1596  0.2036 -0.6394
  442TIP3    H2 1333   2.108   5.496   1.576 -0.3790 -1.3497 -0.0117
  443TIP3   OH2 1334   1.438   2.808   4.366 -0.2832  0.3545  0.1241
  443TIP3    H1 1335   1.454   2.785   4.274 -3.9432  0.9660 -0.8489
  443TIP3    H2 1336   1.441   2.903   4.367 -0.3998  0.3517  0.6176
  444TIP3   OH2 1337   0.943   1.647   4.089  0.0922  0.2075  0.2362
  444TIP3    H1 1338   0.979   1.732   4.114 -0.0223  1.0848 -2.3257
  444TIP3    H2 1339   0.958   1.641   3.995 -1.4777 -1.8587  0.0497
  445TIP3   OH2 1340   3.361   1.702   1.946 -0.1642 -0.3106 -0.0168
  445TIP3    H1 1341   3.422   1.686   2.018 -1.0349 -0.3661  0.7249
  445TIP3    H2 1342   3.414   1.688   1.867  0.5443 -1.3216  0.5982
  446TIP3   OH2 1343   1.943   2.739   1.157 -0.7229  0.0947 -0.8166
  446TIP3    H1 1344   1.926   2.816   1.211 -0.2895 -1.3507  1.5528
  446TIP3    H2 1345   2.002   2.770   1.089 -1.8048  2.1609 -0.8928
  447TIP3   OH2 1346   2.837   5.668   5.158  0.1299 -0.4143 -0.2127
  447TIP3    H1 1347   2.807   5.587   5.116 -0.0232  0.8814 -2.7757
  447TIP3    H2 1348   2.834   5.648   5.252  0.9778 -3.6604 -0.7422
  448TIP3   OH2 1349   1.137   0.259   0.392 -0.2427  0.5583 -0.1697
  448TIP3    H1 1350   1.069   0.193   0.403 -0.4811  0.8952  0.4136
  448TIP3    H2 1351   1.174   0.241   0.306 -0.6470 -0.0181 -0.2280
  449TIP3   OH2 1352   0.028   3.809   0.974 -0.0901 -0.3002 -0.0978
  449TIP3    H1 1353  -0.058   3.819   1.013 -0.4788 -1.3041 -0.6285
  449TIP3    H2 1354   0.087   3.796   1.048 -0.4354  0.1253  0.2576
  450TIP3   OH2 1355   5.806   1.572   1.882  0.1294 -0.2426 -0.2275
  450TIP3    H1 1356   5.800   1.479   1.904  0.2091 -0.2150 -0.0853
  450TIP3    H2 1357   5.899   1.594   1.894  0.1579 -0.2051 -0.5120
  451TIP3   OH2 1358   3.200   0.848   1.376 -0.1698  0.1156  0.3995
  451TIP3    H1 1359   3.190   0.888   1.463  1.2013  0.6391  0.3282
  451TIP3    H2 1360   3.197   0.921   1.315  1.4666  0.0554  0.2041
  452TIP3   OH2 1361   4.858   0.753   4.943 -0.2858 -0.2124 -0.0812
  452TIP3    H1 1362   4.773   0.731   4.981 -0.4141  0.3268 -0.0463
  452TIP3    H2 1363   4.921   0.738   5.013 -0.2780 -1.1829 -0.2902
  453TIP3   OH2 1364   2.408   1.689   1.799  0.3925 -0.0994  0.5947
  453TIP3    H1 1365   2.402   1.780   1.772 -0.8777 -0.6343 -1.1128
  453TIP3    H2 1366   2.425   1.693   1.893 -0.5173  1.8883  0.7306
  454TIP3   OH2 1367   2.315   0.935   0.159 -0.0061 -0.2508  0.3657
  454TIP3    H1 1368   2.333   0.870   0.227  0.4859 -1.3171 -0.7610
  454TIP3    H2 1369   2.273   1.007   0.206  2.3944  0.0792  2.2339
  455TIP3   OH2 1370   2.992   2.989   2.835 -0.3296 -0.4616 -0.2593
  455TIP3    H1 1371   2.917   2.942   2.871  0.6284 -1.6014  0.3119
  455TIP3    H2 1372   3.067   2.956   2.884  0.7742 -0.5996 -1.9689
  456TIP3   OH2 1373   0.407   2.214   3.244  0.1219 -0.3023 -0.1192
  456TIP3    H1 1374   0.458   2.196   3.323  0.2486  1.1061  0.1412
  456TIP3    H2 1375   0.361   2.132   3.226 -1.0299 -0.2413  2.2294
  457TIP3   OH2 1376   4.570   5.180   0.823  0.0561 -0.0761 -0.3096
  457TIP3    H1 1377   4.600   5.095   0.855  1.2704  0.0740 -0.9591
  457TIP3    H2 1378   4.504   5.159   0.757  1.4684 -0.6365 -1.6310
  458TIP3   OH2 1379   5.344   0.987   0.820  0.0962 -0.1979  0.1291
  458TIP3    H1 1380   5.285   1.061   0.813  1.6525  1.1225  0.2456
  458TIP3    H2 1381   5.333   0.954   0.909 -2.1904 -1.5629 -0.5884
  459TIP3   OH2 1382   2.526   0.220   2.763  0.1487 -0.0272 -0.0558
  459TIP3    H1 1383   2.599   0.210   2.702 -1.0105  0.0739 -1.5259
  459TIP3    H2 1384   2.500   0.131   2.784  1.2489 -0.0828  1.2293
  460TIP3   OH2 1385   5.342   3.318   1.552 -0.5704  0.3830 -0.1421
  460TIP3    H1 1386   5.407   3.253   1.525 -1.0047  0.2032 -0.7789
  460TIP3    H2 1387   5.293   3.275   1.622  0.3629  0.7334  0.7361
  461TIP3   OH2 1388   0.351   3.990   3.170  0.3524  0.3024 -0.5455
  461TIP3    H1 1389   0.436   3.970   3.131  0.3385  0.9742 -0.9330
  461TIP3    H2 1390   0.340   3.924   3.239  1.2309  0.2812 -0.4174
  462TIP3   OH2 1391   0.483   3.250   2.341  0.4340  0.4406  0.1778
  462TIP3    H1 1392   0.482   3.168   2.389  0.3836 -0.2377 -0.9417
  462TIP3    H2 1393   0.394   3.284   2.349 -0.6040 -1.3900 -2.2261
  463TIP3   OH2 1394   5.083   4.927   3.869 -0.2059 -0.2176  0.5046
  463TIP3    H1 1395   5.039   4.951   3.950 -1.6769  1.1192 -0.6223
  463TIP3    H2 1396   5.158   4.987   3.863 -1.2227  1.0243 -0.0537
  464TIP3   OH2 1397   2.084   4.698   1.390  0.0352  0.2848 -0.1195
  464TIP3    H1 1398   2.152   4.753   1.349  0.2933  0.2236  0.2198
  464TIP3    H2 1399   2.038   4.757   1.449 -1.9384  1.0006 -2.2451
  465TIP3   OH2 1400   6.183   3.210   1.037 -0.1849 -0.1220 -0.1209
  465TIP3    H1 1401   6.164   3.208   1.130 -0.4758 -2.2458 -0.1568
  465TIP3    H2 1402   6.110   3.259   0.998  0.9810  2.5615  0.8970
  466TIP3   OH2 1403   3.821   1.765   1.799 -0.0736 -0.7049  0.3370
  466TIP3    H1 1404   3.833   1.813   1.881  0.2857 -1.3586  0.6754
  466TIP3    H2 1405   3.858   1.822   1.732  0.1668 -0.4240  0.7073
  467TIP3   OH2 1406   5.281   0.947   1.598 -0.2919 -0.2450  0.0408
  467TIP3    H1 1407   5.346   0.888   1.560  0.2722  0.7935 -0.6551
  467TIP3    H2 1408   5.199   0.925   1.554  0.2598  0.6215 -1.4888
  468TIP3   OH2 1409   5.651   2.202   0.501 -0.6388  0.2832  0.2010
  468TIP3    H1 1410   5.647   2.262   0.575 -1.9352  2.5944 -1.6237
  468TIP3    H2 1411   5.700   2.250   0.434 -1.5082 -0.7830 -1.2473
  469TIP3   OH2 1412   2.253   0.255   2.818 -0.0725  0.0783 -0.2501
  469TIP3    H1 1413   2.323   0.276   2.756  0.0571  0.7394  0.1065
  469TIP3    H2 1414   2.209   0.180   2.780  1.1967 -0.7193 -0.2061
  470TIP3   OH2 1415   4.815   3.397   3.629  0.4016 -0.6860  1.3301
  470TIP3    H1 1416   4.806   3.455   3.553  0.5802 -0.0980  1.7475
  470TIP3    H2 1417   4.797   3.310   3.595  0.8592 -0.4805  0.5247
  471TIP3   OH2 1418   3.015   0.069   0.029 -0.0560 -0.0295  0.3369
  471TIP3    H1 1419   2.964   0.002  -0.017  0.6485 -0.2176 -0.1824
  471TIP3    H2 1420   2.966   0.085   0.109 -2.4247  1.7610 -1.3329
  472TIP3   OH2 1421   3.170   2.990   4.759  0.0786  0.2318  0.2639
  472TIP3    H1 1422   3.257   3.006   4.724 -0.1010 -0.0599 -0.3368
  472TIP3    H2 1423   3.114   3.053   4.714 -0.1489 -0.1227  0.0410
  473TIP3   OH2 1424   1.730   3.503   3.844 -0.1656 -0.0508  0.0563
  473TIP3    H1 1425   1.721   3.410   3.824 -0.5341 -0.1907  0.8319
  473TIP3    H2 1426   1.640   3.533   3.860  0.0383  0.2011  0.7919
  474TIP3   OH2 1427   2.749   1.470   3.919 -0.3582 -0.2160  0.0405
  474TIP3    H1 1428   2.781   1.558   3.900  0.1583 -0.4420 -0.1569
  474TIP3    H2 1429   2.678   1.456   3.856  0.3346 -0.3816 -0.7206
  475TIP3   OH2 1430   3.622   1.305   2.465  0.1051 -0.3998  0.2309
  475TIP3    H1 1431   3.617   1.288   2.559  1.5102 -0.6177  0.2828
  475TIP3    H2 1432   3.702   1.357   2.454 -0.2136 -0.1055 -0.8123
  476TIP3   OH2 1433   2.205   0.635   2.138 -0.2592  0.3965  0.2795
  476TIP3    H1 1434   2.280   0.632   2.197  0.8169  0.4103 -1.0440
  476TIP3    H2 1435   2.175   0.544   2.134 -1.0342  0.5635  1.6647
  477TIP3   OH2 1436   4.847   0.317   3.566 -0.1820  0.7162 -0.2220
  477TIP3    H1 1437   4.864   0.287   3.655 -0.0758  1.3927 -0.0034
  477TIP3    H2 1438   4.925   0.368   3.543 -0.6010  1.3028 -0.3559
  478TIP3   OH2 1439   3.176   3.866   1.741  0.3412  0.1826  0.4796
  478TIP3    H1 1440   3.209   3.839   1.655  0.4631 -0.0624  0.6037
  478TIP3    H2 1441   3.121   3.793   1.769  0.3544  0.2357  0.6425
  479TIP3   OH2 1442   6.199   3.532   4.459 -0.1627  0.0525 -0.2421
  479TIP3    H1 1443   6.152   3.513   4.377  0.6243  2.0941 -1.2333
  479TIP3    H2 1444   6.172   3.462   4.518 -2.5906 -0.1991 -1.5089
  480TIP3   OH2 1445   5.390   0.509   4.804 -0.0264  0.5936 -0.3438
  480TIP3    H1 1446   5.398   0.602   4.783  1.4793  0.4493 -0.5641
  480TIP3    H2 1447   5.382   0.507   4.899 -0.5387  0.9644 -0.3761
  481TIP3   OH2 1448   0.215   2.485   4.619  0.4013 -0.0560  0.2280
  481TIP3    H1 1449   0.172   2.569   4.604  0.6259  0.1524  0.7169
  481TIP3    H2 1450   0.279   2.503   4.688  0.1871 -0.7097  0.6052
  482TIP3   OH2 1451   4.994   3.047   2.649 -0.5859  0.2202 -0.2179
  482TIP3    H1 1452   5.024   2.959   2.626 -1.3073  0.1073 -0.7566
  482TIP3    H2 1453   5.060   3.105   2.612 -0.0097 -0.0942  0.2920
  483TIP3   OH2 1454   4.864   1.818   4.212  0.0411  0.1526 -0.0804
  483TIP3    H1 1455   4.916   1.880   4.161  2.0547  0.0171  1.6468
  483TIP3    H2 1456   4.903   1.733   4.193  0.8850  0.1100  1.6452
  484TIP3   OH2 1457   3.050   5.816   4.462  0.3150  0.2640 -0.0678
  484TIP3    H1 1458   3.106   5.800   4.538 -0.5475 -1.3236  0.2768
  484TIP3    H2 1459   2.989   5.883   4.491  0.3773  0.1055  0.4398
  485TIP3   OH2 1460   1.877   4.265   5.089  0.3460  0.2833  0.1209
  485TIP3    H1 1461   1.936   4.269   5.164  0.2492  2.7378  0.1670
  485TIP3    H2 1462   1.790   4.281   5.127  0.2778  1.3760 -0.4536
  486TIP3   OH2 1463   1.603   3.591   4.144 -0.4621  0.1658  0.0209
  486TIP3    H1 1464   1.657   3.517   4.172 -0.4669 -0.0151 -0.4431
  486TIP3    H2 1465   1.526   3.552   4.104 -1.1232  0.4254  1.0074
  487TIP3   OH2 1466   4.624   5.895   0.768 -0.5866  0.0149  0.0967
  487TIP3    H1 1467   4.669   5.980   0.771 -0.9509  0.1898  0.9947
  487TIP3    H2 1468   4.668   5.843   0.835 -0.0125 -0.6967 -0.8187
  488TIP3   OH2 1469   1.542   2.362   3.334 -0.2233  0.7238 -0.1378
  488TIP3    H1 1470   1.626   2.368   3.380 -0.2485 -1.1330  0.2108
  488TIP3    H2 1471   1.485   2.312   3.393 -1.8704  2.5993 -0.0209
  489TIP3   OH2 1472   3.975   5.205   2.728  0.1489 -0.4074  0.4050
  489TIP3    H1 1473   4.036   5.235   2.661 -0.2951 -0.0036  0.1740
  489TIP3    H2 1474   3.904   5.269   2.726 -0.7827 -1.4227 -0.0574
  490TIP3   OH2 1475   2.248   0.614   2.501 -0.0792  0.6908  0.3862
  490TIP3    H1 1476   2.301   0.579   2.573 -1.4061 -0.7382  0.7156
  490TIP3    H2 1477   2.176   0.552   2.492 -0.2434  1.1261 -1.8455
  491TIP3   OH2 1478   4.043   0.343   3.781 -0.2779 -0.3055 -0.5532
  491TIP3    H1 1479   4.039   0.363   3.687  0.9527  0.0084 -0.5650
  491TIP3    H2 1480   4.135   0.358   3.804 -0.4666 -0.8413  0.6044
  492TIP3   OH2 1481   2.755   0.590   2.720 -0.4400 -0.3318 -0.0080
  492TIP3    H1 1482   2.757   0.494   2.729 -0.9525 -0.3584 -0.1059
  492TIP3    H2 1483   2.762   0.622   2.810 -0.7995 -0.4805  0.0765
  493TIP3   OH2 1484   0.036   2.683   4.528  0.1823 -0.3238  0.6351
  493TIP3    H1 1485  -0.056   2.692   4.553  0.1677  1.3965  0.0767
  493TIP3    H2 1486   0.034   2.629   4.449 -0.2639 -1.0176  1.1115
  494TIP3   OH2 1487   0.515   0.341   1.344 -0.5847  1.0020  0.0143
  494TIP3    H1 1488   0.534   0.266   1.402  0.1337 -0.7107 -2.2984
  494TIP3    H2 1489   0.552   0.416   1.389  1.2329 -0.4724  1.1209
  495TIP3   OH2 1490   1.449   4.337   3.059 -0.4276  0.2724 -0.0889
  495TIP3    H1 1491   1.419   4.246   3.063 -2.0022  0.8026  1.5542
  495TIP3    H2 1492   1.397   4.382   3.126  2.1959  1.8719  1.0085
  496TIP3   OH2 1493   2.947   2.286   5.205  0.0935 -0.1313 -0.4001
  496TIP3    H1 1494   3.009   2.358   5.193 -1.7721  1.4900 -0.8286
  496TIP3    H2 1495   2.923   2.260   5.116 -2.6645  1.9087 -0.3824
  497TIP3   OH2 1496   1.161   0.916  -0.004  0.0894  0.2978 -0.7252
  497TIP3    H1 1497   1.166   0.841  -0.064  0.0984 -0.5333  0.2906
  497TIP3    H2 1498   1.170   0.877   0.083  0.0966  1.4912 -0.1845
  498TIP3   OH2 1499   1.414   1.284   1.971 -0.2718  0.3502 -0.4298
  498TIP3    H1 1500   1.417   1.226   1.895 -1.1987 -0.3389  0.0388
  498TIP3    H2 1501   1.445   1.230   2.044 -1.2825  0.3803  0.0412
  499TIP3   OH2 1502   4.725   4.286   3.564  0.1549  0.9602 -0.3613
  499TIP3    H1 1503   4.754   4.377   3.567 -2.0152  1.7569 -1.6156
  499TIP3    H2 1504   4.653   4.286   3.501  0.2298 -1.6765 -0.5406
  500TIP3   OH2 1505   0.394   4.183   1.575 -0.1418  0.8897 -0.2176
  500TIP3    H1 1506   0.358   4.112   1.629  0.2074 -1.5461 -2.9628
  500TIP3    H2 1507   0.488   4.181   1.591 -0.3534  2.7210  1.7852
  501TIP3   OH2 1508   4.375   3.419   0.878 -0.3725 -0.4033 -0.1735
  501TIP3    H1 1509   4.401   3.483   0.812  0.3733 -0.4940  0.0201
  501TIP3    H2 1510   4.375   3.468   0.960 -0.1327 -0.5672 -0.0746
  502TIP3   OH2 1511   3.374   3.478   1.769 -0.2547  0.0144  0.6979
  502TIP3    H1 1512   3.358   3.386   1.745  1.6167  0.0364 -0.9058
  502TIP3    H2 1513   3.395   3.476   1.862  2.3534 -1.6149  0.1681
  503TIP3   OH2 1514   3.804   0.104   3.502 -0.2791 -0.1801 -0.3589
  503TIP3    H1 1515   3.863   0.056   3.444 -0.3367 -0.1308 -0.4569
  503TIP3    H2 1516   3.854   0.113   3.584 -0.7741 -1.5821  0.1228
  504TIP3   OH2 1517   5.535   4.000   0.136 -0.0066  0.6490 -0.2582
  504TIP3    H1 1518   5.583   3.920   0.158 -0.1868  1.2753  2.9127
  504TIP3    H2 1519   5.597   4.052   0.086  1.1401 -0.3213  0.1011
  505TIP3   OH2 1520   2.907   3.634   0.562 -0.5968  0.8475  0.0600
  505TIP3    H1 1521   2.884   3.544   0.585 -1.6243  0.4122 -2.3666
  505TIP3    H2 1522   3.001   3.632   0.546 -0.6897  0.0892 -0.4077
  506TIP3   OH2 1523   6.244   4.668   3.691 -0.2571  0.6211  0.1606
  506TIP3    H1 1524   6.320   4.657   3.634 -1.2480 -0.7967 -0.9891
  506TIP3    H2 1525   6.262   4.612   3.766 -0.7663 -0.9213 -0.8185
  507TIP3   OH2 1526   0.120   5.823   3.622 -0.4990  0.0933  0.0261
  507TIP3    H1 1527   0.130   5.779   3.538  0.8896  1.0036 -0.3093
  507TIP3    H2 1528   0.200   5.874   3.632 -0.7985  0.2674  1.7500
  508TIP3   OH2 1529   5.759   3.289   0.415 -0.1438  0.0378  0.1612
  508TIP3    H1 1530   5.697   3.352   0.452 -0.7163 -0.5314  0.1804
  508TIP3    H2 1531   5.845   3.328   0.430 -0.5494  1.6868 -1.4062
  509TIP3   OH2 1532   4.846   2.038   2.559  0.6086  0.0095  0.2734
  509TIP3    H1 1533   4.920   1.978   2.570  0.3435 -0.2110  0.9208
  509TIP3    H2 1534   4.819   2.026   2.468  1.3413  0.0675  0.0371
  510TIP3   OH2 1535   0.663   0.213   3.407 -0.3685 -0.0927 -0.1644
  510TIP3    H1 1536   0.575   0.174   3.412 -2.3662  3.9368  0.2996
  510TIP3    H2 1537   0.685   0.210   3.315 -1.9715  0.6001 -0.6111
  511TIP3   OH2 1538   5.726   2.450   0.764  0.0540  0.3558 -0.3442
  511TIP3    H1 1539   5.688   2.461   0.852  3.5494 -2.7070  1.8552
  511TIP3    H2 1540   5.771   2.533   0.748 -0.6623  0.9853  0.7538
  512TIP3   OH2 1541   0.277   5.661   3.123  0.0589 -0.7153 -0.0884
  512TIP3    H1 1542   0.279   5.577   3.167 -0.0123 -0.5808  0.1748
  512TIP3    H2 1543   0.184   5.683   3.116  0.1098 -0.1475  0.8361
  513TIP3   OH2 1544   4.897   1.608   2.017  0.0956 -0.3049 -0.0483
  513TIP3    H1 1545   4.952   1.636   2.092 -0.0908  1.1066 -0.3995
  513TIP3    H2 1546   4.807   1.618   2.049  0.0209 -1.5308  0.1516
  514TIP3   OH2 1547   1.315   0.505   2.437  0.3523  0.2290  0.1202
  514TIP3    H1 1548   1.406   0.529   2.420  0.2765 -0.3001 -1.1486
  514TIP3    H2 1549   1.263   0.561   2.379  0.1336 -2.1925 -2.2561
  515TIP3   OH2 1550   2.003   4.586   3.030 -0.1194  0.2069 -0.1217
  515TIP3    H1 1551   1.953   4.599   2.948  2.0294  2.8250 -1.1882
  515TIP3    H2 1552   1.935   4.576   3.097 -2.0831  1.6219 -1.7368
  516TIP3   OH2 1553   4.919   1.306   5.000  0.0664  0.0535  0.8149
  516TIP3    H1 1554   4.935   1.220   5.037  1.5444 -0.4521 -0.8862
  516TIP3    H2 1555   4.879   1.290   4.915 -0.6226  1.0945  0.9119
  517TIP3   OH2 1556   3.083   3.401   3.381 -0.6478 -0.6744  0.3502
  517TIP3    H1 1557   3.012   3.373   3.323 -0.5578 -2.0011  0.8481
  517TIP3    H2 1558   3.116   3.320   3.420  0.3058  0.0439  1.0955
  518TIP3   OH2 1559   3.620   5.311   0.856  0.1074 -0.2933 -0.3604
  518TIP3    H1 1560   3.650   5.226   0.890 -1.6376 -0.5384  0.7265
  518TIP3    H2 1561   3.557   5.288   0.788 -0.2535  0.1291 -0.1702
  519TIP3   OH2 1562   2.384   1.195   0.951 -0.3429 -0.1043  0.2791
  519TIP3    H1 1563   2.372   1.165   1.041  2.0775  0.9640  1.0635
  519TIP3    H2 1564   2.328   1.272   0.943  0.4107  0.5873  1.3630
  520TIP3   OH2 1565   1.301   1.747   3.378  0.0144  0.3653 -0.2672
  520TIP3    H1 1566   1.299   1.656   3.348 -0.5579 -0.6686  2.5141
  520TIP3    H2 1567   1.212   1.779   3.363 -0.2937 -0.1684  0.3415
  521TIP3   OH2 1568   5.961   0.215   2.384 -0.4611  0.4711  0.0834
  521TIP3    H1 1569   5.902   0.140   2.379 -0.7245  0.7495 -1.7118
  521TIP3    H2 1570   5.904   0.288   2.410 -0.1320  0.0315  2.2305
  522TIP3   OH2 1571   5.234   5.403   4.377  0.2211 -0.2211  0.1662
  522TIP3    H1 1572   5.258   5.486   4.418  3.0042 -2.0277  2.6026
  522TIP3    H2 1573   5.163   5.369   4.431  1.0464 -0.6955  0.9759
  523TIP3   OH2 1574   0.610   4.789   4.016 -1.2659 -0.0000  0.1760
  523TIP3    H1 1575   0.521   4.754   4.017 -1.5890  0.7918  0.7202
  523TIP3    H2 1576   0.604   4.869   3.964 -0.8833  0.0713  0.2360
  524TIP3   OH2 1577   4.539   2.123   2.771 -0.6038 -0.3184 -0.0794
  524TIP3    H1 1578   4.533   2.042   2.720 -3.2820  1.0322 -2.1527
  524TIP3    H2 1579   4.558   2.191   2.706 -0.2443  0.9740  1.3252
  525TIP3   OH2 1580   1.417   4.976   0.343 -0.2969 -0.3339 -0.0964
  525TIP3    H1 1581   1.476   5.046   0.317  0.3147 -0.3874  1.0803
  525TIP3    H2 1582   1.449   4.948   0.429 -1.6611 -0.7843  0.2954
  526TIP3   OH2 1583   3.611   2.960   4.580 -0.5469  0.2979  0.6423
  526TIP3    H1 1584   3.701   2.983   4.603 -0.5566 -0.6757  1.7405
  526TIP3    H2 1585   3.558   3.001   4.648 -0.8534  0.1039  0.5216
  527TIP3   OH2 1586   4.722   0.417   2.954 -0.3178  0.1480  0.2540
  527TIP3    H1 1587   4.629   0.403   2.938 -0.1820 -0.4619 -0.0299
  527TIP3    H2 1588   4.763   0.332   2.937  0.3639  0.5536 -0.1790
  528TIP3   OH2 1589   0.019   0.981   1.496  0.7877 -0.0344 -0.6207
  528TIP3    H1 1590   0.022   0.925   1.418  2.6236  0.4363 -0.9439
  528TIP3    H2 1591   0.108   0.976   1.532 -0.4225 -1.6243  2.4986
  529TIP3   OH2 1592   2.477   4.727   3.692  0.2552  0.2974  0.1596
  529TIP3    H1 1593   2.393   4.774   3.694  0.3212  0.3948  1.8754
  529TIP3    H2 1594   2.452   4.635   3.677 -0.1305  0.3762  0.3016
  530TIP3   OH2 1595   4.093   3.880   1.783  0.3634  0.2634 -0.3579
  530TIP3    H1 1596   4.081   3.824   1.706  0.5332  0.4089 -0.4910
  530TIP3    H2 1597   4.005   3.898   1.814  0.2987 -2.4432  1.4089
  531TIP3   OH2 1598   1.130   1.017   1.315 -0.3280 -0.1943 -0.4742
  531TIP3    H1 1599   1.145   1.009   1.221 -0.7503 -0.0175 -0.5582
  531TIP3    H2 1600   1.185   0.948   1.354 -1.2965 -1.2608 -0.9525
  532TIP3   OH2 1601   2.768   0.152   2.628 -0.2136  0.3126  0.7051
  532TIP3    H1 1602   2.726   0.208   2.563 -0.7108  1.3033  1.8484
  532TIP3    H2 1603   2.855   0.134   2.591 -0.2870  1.2905  0.0106
  533TIP3   OH2 1604   3.720   4.290   3.356  0.1523 -0.5946  0.5451
  533TIP3    H1 1605   3.697   4.202   3.384  0.6428 -1.0003 -0.3185
  533TIP3    H2 1606   3.752   4.280   3.267  1.2096  0.3187  0.8046
  534TIP3   OH2 1607   5.774   5.152   2.886  0.0362 -0.5179  0.0516
  534TIP3    H1 1608   5.822   5.222   2.842  1.3596 -1.7294 -0.4718
  534TIP3    H2 1609   5.688   5.153   2.844 -1.8104  3.7985  3.1334
  535TIP3   OH2 1610   0.672   1.342   4.206 -0.2429 -0.0886 -0.1099
  535TIP3    H1 1611   0.656   1.303   4.292  0.8467  0.3848  0.3286
  535TIP3    H2 1612   0.758   1.384   4.215 -0.7317  1.1394 -1.0148
  536TIP3   OH2 1613   0.866   4.376   3.559 -0.1848  0.1175  0.2995
  536TIP3    H1 1614   0.856   4.294   3.511 -2.2072  0.4242  0.1137
  536TIP3    H2 1615   0.888   4.440   3.492 -0.1440  0.0206  0.2189
  537TIP3   OH2 1616   0.644   3.817   4.464 -0.3965 -0.2533 -0.8327
  537TIP3    H1 1617   0.581   3.832   4.394  0.1646  0.2534 -1.2386
  537TIP3    H2 1618   0.599   3.759   4.525 -1.9861  1.6270 -0.1205
  538TIP3   OH2 1619   5.838   2.995   3.599 -0.0846  0.0934 -0.3897
  538TIP3    H1 1620   5.932   2.978   3.604 -0.0716  0.4347  1.0269
  538TIP3    H2 1621   5.800   2.945   3.672 -0.8739  0.7044 -0.3565
  539TIP3   OH2 1622   5.516   0.174   0.297 -0.0735  0.0859 -0.0675
  539TIP3    H1 1623   5.476   0.200   0.214  0.6456 -0.5699 -0.6329
  539TIP3    H2 1624   5.496   0.246   0.357 -0.3962  0.6823 -0.8734
  540TIP3   OH2 1625   1.742   0.914   0.600 -0.4085  0.5871 -0.3645
  540TIP3    H1 1626   1.816   0.862   0.630 -2.4430 -1.7780  0.8990
  540TIP3    H2 1627   1.743   0.992   0.656 -0.2175 -0.5485  1.2798
  541TIP3   OH2 1628   1.666   0.230   1.901  0.0868  0.0926  0.3219
  541TIP3    H1 1629   1.586   0.247   1.852 -0.5846 -0.3751  1.2298
  541TIP3    H2 1630   1.638   0.223   1.992  0.9871 -1.1388  0.5456
  542TIP3   OH2 1631   1.433   3.445   1.508 -0.6891  0.3628 -0.0967
  542TIP3    H1 1632   1.411   3.380   1.442  1.1668  0.2690 -0.6868
  542TIP3    H2 1633   1.370   3.515   1.496 -0.2716  0.4487 -2.1408
  543TIP3   OH2 1634   1.683   3.995   2.888 -0.5658 -0.4723  0.5955
  543TIP3    H1 1635   1.616   3.927   2.891  1.3865 -2.5034 -0.0233
  543TIP3    H2 1636   1.690   4.026   2.978 -1.7546 -0.7600  0.8134
  544TIP3   OH2 1637   5.778   5.048   0.520  0.2934 -0.2444  0.6214
  544TIP3    H1 1638   5.780   4.990   0.597  2.6749 -0.0169  0.7870
  544TIP3    H2 1639   5.799   4.991   0.446 -0.5816 -0.1804  0.3081
  545TIP3   OH2 1640   0.878   2.317   2.872  0.3984  0.0057  0.1349
  545TIP3    H1 1641   0.796   2.272   2.849  0.0537 -0.1274  1.5576
  545TIP3    H2 1642   0.868   2.341   2.964  2.2989 -0.7957  0.6106
  546TIP3   OH2 1643   1.709   2.214   0.523 -0.9114  0.4033  0.1289
  546TIP3    H1 1644   1.777   2.208   0.590 -0.2586  0.9451 -0.4700
  546TIP3    H2 1645   1.671   2.127   0.520  0.0889 -0.0504  0.1463
  547TIP3   OH2 1646   2.694   0.890   0.794  0.7222 -0.4250 -0.1103
  547TIP3    H1 1647   2.745   0.810   0.777 -0.4557 -1.1018 -0.5643
  547TIP3    H2 1648   2.662   0.879   0.884  0.8423 -0.2992 -0.0518
  548TIP3   OH2 1649   0.333   2.319   4.445 -0.2384 -0.1512  0.5164
  548TIP3    H1 1650   0.353   2.228   4.468 -0.7476 -0.4370 -0.1317
  548TIP3    H2 1651   0.304   2.358   4.527 -0.6615 -0.7636  0.6687
  549TIP3   OH2 1652   5.449   1.246   2.307  0.4277 -0.1648  0.5018
  549TIP3    H1 1653   5.433   1.161   2.347 -1.0834 -0.0023  0.3249
  549TIP3    H2 1654   5.361   1.279   2.286  1.0567  0.7932 -0.7676
  550TIP3   OH2 1655   3.988   5.836   4.647 -0.0143 -0.1148  0.3847
  550TIP3    H1 1656   3.982   5.745   4.675 -0.3177  0.3344  1.8849
  550TIP3    H2 1657   3.943   5.839   4.563 -0.1026 -1.3251  0.3796
  551TIP3   OH2 1658   5.686   0.792   1.113  0.5889  0.1820  0.4155
  551TIP3    H1 1659   5.772   0.788   1.070  0.2258  0.1500 -0.3200
  551TIP3    H2 1660   5.667   0.886   1.119  1.8550  0.3387  3.0058
  552TIP3   OH2 1661   1.344   2.397   1.552 -0.7243  0.1198  0.0650
  552TIP3    H1 1662   1.276   2.403   1.619  0.0403 -0.1723  0.8839
  552TIP3    H2 1663   1.298   2.365   1.474 -1.3497 -1.0322  0.8809
  553TIP3   OH2 1664   4.058   1.164   1.120  0.8650 -0.1897  0.1507
  553TIP3    H1 1665   4.106   1.096   1.165  1.9145 -0.2035 -0.9382
  553TIP3    H2 1666   4.110   1.184   1.042  1.0046  2.3779  0.7843
  554TIP3   OH2 1667   3.097   1.434   2.673 -0.0235 -0.7978  0.0621
  554TIP3    H1 1668   3.105   1.525   2.700 -1.0711 -0.5054 -0.5267
  554TIP3    H2 1669   3.066   1.388   2.752  0.9290 -0.7382  0.4802
  555TIP3   OH2 1670   0.082   2.654   4.057  0.0769  0.4342  0.3889
  555TIP3    H1 1671   0.043   2.643   4.144 -1.7000  1.3906 -0.2384
  555TIP3    H2 1672   0.097   2.565   4.026 -0.8701  0.0424  1.0120
  556TIP3   OH2 1673   0.865   5.571   0.100 -0.2437  0.6416  0.0214
  556TIP3    H1 1674   0.950   5.609   0.122  0.3904 -0.2969 -0.7294
  556TIP3    H2 1675   0.874   5.545   0.008 -1.2542  0.2821  0.0173
  557TIP3   OH2 1676   0.456   3.996   3.986 -0.0180  0.4459  0.1769
  557TIP3    H1 1677   0.533   4.027   3.938  0.2360 -1.4373 -0.7077
  557TIP3    H2 1678   0.384   4.048   3.951  0.2375 -0.5512 -1.9891
  558TIP3   OH2 1679   4.004   4.937   2.287  0.3517 -0.1292  0.0704
  558TIP3    H1 1680   4.066   5.004   2.258 -0.0031 -0.5419 -1.7297
  558TIP3    H2 1681   4.011   4.939   2.383  2.9501 -0.0041 -0.0519
  559TIP3   OH2 1682   5.499   4.627   3.526  0.1286  0.2992  0.1633
  559TIP3    H1 1683   5.442   4.690   3.571 -0.6907  0.9360 -1.6702
  559TIP3    H2 1684   5.455   4.543   3.536 -1.4983  0.8684 -1.6848
  560TIP3   OH2 1685   5.764   1.731   1.445  0.2832 -0.2901  0.2165
  560TIP3    H1 1686   5.781   1.762   1.534  2.4796  1.3868 -0.6846
  560TIP3    H2 1687   5.808   1.646   1.441  1.9519  0.5246  0.2169
  561TIP3   OH2 1688   4.427   2.319   1.186  0.3998  0.1789  0.2953
  561TIP3    H1 1689   4.361   2.379   1.221 -1.4098 -1.0908 -0.8218
  561TIP3    H2 1690   4.438   2.346   1.095 -0.2591 -1.0137 -0.1537
  562TIP3   OH2 1691   0.565   5.307   0.894  0.2746  0.2104  0.0019
  562TIP3    H1 1692   0.531   5.340   0.810  0.8719 -0.7413 -0.6330
  562TIP3    H2 1693   0.613   5.227   0.871  1.2722  0.4558  1.1308
  563TIP3   OH2 1694   2.360   1.307   2.949 -0.0153 -0.1619  0.0320
  563TIP3    H1 1695   2.443   1.304   2.996  0.2319 -1.7597 -0.4397
  563TIP3    H2 1696   2.382   1.287   2.858 -0.8364  0.0363 -0.2279
  564TIP3   OH2 1697   2.777   0.472   1.959 -0.1036  0.5603  0.5892
  564TIP3    H1 1698   2.693   0.506   1.992  0.7508 -0.2763  4.0789
  564TIP3    H2 1699   2.784   0.385   2.000  1.8944  0.0875 -0.6611
  565TIP3   OH2 1700   3.301   5.782   2.886  0.1362 -0.4580 -0.2315
  565TIP3    H1 1701   3.256   5.708   2.845 -1.1029 -0.2201  0.6295
  565TIP3    H2 1702   3.314   5.755   2.977 -2.6492  1.2667  0.8038
  566TIP3   OH2 1703   3.295   3.211   1.676 -0.2118  0.1315 -0.1825
  566TIP3    H1 1704   3.310   3.151   1.603 -0.8547 -0.4490  0.1516
  566TIP3    H2 1705   3.234   3.165   1.733  0.4782  0.4608  0.8620
  567TIP3   OH2 1706   3.402   3.734   4.628  0.0948  0.1690  0.0500
  567TIP3    H1 1707   3.494   3.722   4.603  0.2880  0.4441  0.6192
  567TIP3    H2 1708   3.369   3.646   4.644  0.3613  0.0964  0.1999
  568TIP3   OH2 1709   4.038   4.894   0.493 -0.2663  0.0550  0.6500
  568TIP3    H1 1710   3.960   4.949   0.504 -1.0845  0.2886 -4.0106
  568TIP3    H2 1711   4.109   4.942   0.535 -1.7884  2.3005  0.7976
  569TIP3   OH2 1712   1.390   5.612   1.524  0.4682  0.5135  0.4860
  569TIP3    H1 1713   1.421   5.639   1.437 -1.1093 -0.9271 -0.5795
  569TIP3    H2 1714   1.384   5.517   1.519 -0.6276  0.4747  1.8457
  570TIP3   OH2 1715   5.972   3.501   2.078  0.3892  0.5208 -0.4202
  570TIP3    H1 1716   5.906   3.449   2.032  1.2424 -1.9066  0.9167
  570TIP3    H2 1717   5.964   3.474   2.170  2.9224  0.4308 -0.1416
  571TIP3   OH2 1718   5.272   4.794   2.666  0.6134 -0.3133 -0.3569
  571TIP3    H1 1719   5.332   4.753   2.728  1.5846  1.5307 -0.0201
  571TIP3    H2 1720   5.246   4.876   2.708 -0.2206  0.0668 -1.5689
  572TIP3   OH2 1721   4.884   3.126   4.412  0.2669  0.2046 -0.4164
  572TIP3    H1 1722   4.877   3.130   4.316 -1.0243 -1.1898 -0.4112
  572TIP3    H2 1723   4.978   3.126   4.429  0.5165  1.0817 -1.6389
  573TIP3   OH2 1724   3.586   1.463   0.193 -0.5608  0.7159  0.1396
  573TIP3    H1 1725   3.548   1.497   0.113 -0.7258  0.7688  0.2403
  573TIP3    H2 1726   3.648   1.396   0.164 -1.9864 -0.6016  0.0373
  574TIP3   OH2 1727   5.663   4.485   5.075 -0.0765  0.4182 -0.1054
  574TIP3    H1 1728   5.723   4.411   5.086  0.9820  1.1762 -0.5846
  574TIP3    H2 1729   5.692   4.527   4.994 -2.4546 -0.2786 -1.4178
  575TIP3   OH2 1730   0.308   2.490   3.649 -0.0687 -0.0960  0.0986
  575TIP3    H1 1731   0.256   2.541   3.712 -0.8430 -2.0314  1.1054
  575TIP3    H2 1732   0.309   2.402   3.685  1.9500 -0.6454 -1.1488
  576TIP3   OH2 1733   5.720   0.678   2.310  0.4058  0.0678 -0.2419
  576TIP3    H1 1734   5.660   0.717   2.247 -1.0239 -0.3781  0.8001
  576TIP3    H2 1735   5.756   0.752   2.359 -1.3749  0.2035  0.9248
  577TIP3   OH2 1736   0.638   1.642   1.490 -0.4112 -0.4237 -0.0591
  577TIP3    H1 1737   0.618   1.553   1.459 -0.0371 -0.7089  0.5002
  577TIP3    H2 1738   0.559   1.692   1.470 -0.3216 -0.6808 -1.1316
  578TIP3   OH2 1739   0.251   0.342   0.597 -0.1402  0.0019  0.2271
  578TIP3    H1 1740   0.340   0.346   0.630  0.6886 -2.4334 -1.4504
  578TIP3    H2 1741   0.244   0.415   0.536  0.0538  1.2765  1.6688
  579TIP3   OH2 1742   2.053   5.549   2.470 -0.0100 -0.1730 -1.0257
  579TIP3    H1 1743   2.019   5.549   2.559 -0.2832  0.4843 -1.1240
  579TIP3    H2 1744   1.975   5.558   2.415  0.1041 -1.0810 -1.3586
  580TIP3   OH2 1745   5.567   2.728   1.182 -0.6695 -0.0736  0.1803
  580TIP3    H1 1746   5.587   2.822   1.182 -1.7635  0.1669  0.3560
  580TIP3    H2 1747   5.491   2.720   1.239 -0.1839 -1.1681  0.6977
  581TIP3   OH2 1748   3.250   0.562   5.160 -0.5950  0.1628 -0.4296
  581TIP3    H1 1749   3.217   0.526   5.077  0.0464  0.2355 -0.7239
  581TIP3    H2 1750   3.342   0.536   5.161 -1.1680 -2.1421  1.5110
  582TIP3   OH2 1751   5.560   3.502   0.431  0.7435  0.0907 -0.3058
  582TIP3    H1 1752   5.528   3.555   0.358  0.3030 -0.4084 -0.4834
  582TIP3    H2 1753   5.565   3.562   0.505  0.8216  0.5119 -0.6464
  583TIP3   OH2 1754   4.463   2.052   5.068  0.1484 -0.3958 -0.1529
  583TIP3    H1 1755   4.420   2.128   5.029  0.1462  1.0006  2.3699
  583TIP3    H2 1756   4.419   1.977   5.028 -1.7472  0.9398 -0.7280
  584TIP3   OH2 1757   3.523   3.668   1.634  0.1665 -0.7334  0.1080
  584TIP3    H1 1758   3.437   3.635   1.658  0.3204 -1.8317 -0.7652
  584TIP3    H2 1759   3.577   3.589   1.623  0.4041 -0.2945 -2.5949
  585TIP3   OH2 1760   0.347   3.714   0.242  0.1258  0.3380  0.6025
  585TIP3    H1 1761   0.404   3.784   0.210  2.1320 -1.4097  0.1167
  585TIP3    H2 1762   0.317   3.670   0.162 -1.2551  0.7052  0.8946
  586TIP3   OH2 1763   2.743   1.849   0.682  0.0556 -0.3454  0.2892
  586TIP3    H1 1764   2.691   1.902   0.743  0.8764 -0.7649  1.3886
  586TIP3    H2 1765   2.682   1.783   0.649 -0.4160 -0.0670  0.5946
  587TIP3   OH2 1766   0.695   3.150   5.069  0.1959  0.1039  0.4725
  587TIP3    H1 1767   0.638   3.107   5.133 -1.4361  0.7784 -0.4560
  587TIP3    H2 1768   0.661   3.239   5.064  0.6624  0.2173 -0.9125
  588TIP3   OH2 1769   4.262   4.280   3.452  0.2747  0.0141  1.1022
  588TIP3    H1 1770   4.296   4.350   3.396 -0.4029 -1.1518 -0.8864
  588TIP3    H2 1771   4.172   4.307   3.473  0.1822 -0.0225  0.7562
  589TIP3   OH2 1772   3.814   2.880   1.879 -0.7934  0.2251  0.5404
  589TIP3    H1 1773   3.786   2.965   1.911  0.0382 -0.9652  5.1322
  589TIP3    H2 1774   3.757   2.817   1.922  0.5113 -1.6852 -0.3380
  590TIP3   OH2 1775   4.814   4.559   3.968  0.7387  0.4702 -0.1153
  590TIP3    H1 1776   4.865   4.605   3.901 -0.6904  1.9370 -0.2544
  590TIP3    H2 1777   4.723   4.583   3.950  0.2141 -0.0582  1.6357
  591TIP3   OH2 1778   3.693   3.910   0.426 -0.3397 -0.2675  0.2093
  591TIP3    H1 1779   3.782   3.876   0.429  0.1658  1.0188  0.4140
  591TIP3    H2 1780   3.671   3.913   0.333  0.7581  1.6581 -0.0287
  592TIP3   OH2 1781   3.063   2.352   4.619  0.0174 -0.5396 -0.3943
  592TIP3    H1 1782   3.052   2.446   4.615  0.4922 -0.4769 -0.3381
  592TIP3    H2 1783   2.987   2.320   4.668  0.8836  0.0289  1.4320
  593TIP3   OH2 1784   4.870   4.489   1.365  1.0127  0.3465 -0.0062
  593TIP3    H1 1785   4.868   4.418   1.429  1.6065  1.4447  1.2876
  593TIP3    H2 1786   4.779   4.518   1.358  0.5448 -1.3187 -1.5099
  594TIP3   OH2 1787   3.930   1.773   3.180 -0.2108  0.2873  0.7152
  594TIP3    H1 1788   3.924   1.844   3.116  0.1340 -0.1441  0.2033
  594TIP3    H2 1789   3.888   1.809   3.259  1.4566  1.6924  1.0378
  595TIP3   OH2 1790   2.981   4.268   1.758  0.0473  0.2870  0.6852
  595TIP3    H1 1791   3.018   4.349   1.793  0.2747  0.2072  0.6319
  595TIP3    H2 1792   2.969   4.212   1.834  1.3404 -0.2088  0.5612
  596TIP3   OH2 1793   3.872   4.510   0.202 -0.0070 -0.2539 -0.2587
  596TIP3    H1 1794   3.871   4.578   0.269  0.1251 -0.0043 -0.5070
  596TIP3    H2 1795   3.799   4.533   0.144  1.6603  1.2597 -1.8897
  597TIP3   OH2 1796   3.626   2.287   0.591 -0.4766 -0.1550  0.4299
  597TIP3    H1 1797   3.561   2.218   0.607 -0.7060  0.2063  1.1063
  597TIP3    H2 1798   3.696   2.243   0.543 -1.2497 -0.5390 -0.3782
  598TIP3   OH2 1799   0.400   3.278   3.347 -0.1474 -0.1501  0.1827
  598TIP3    H1 1800   0.417   3.330   3.425  0.6678  0.1620 -0.1969
  598TIP3    H2 1801   0.421   3.336   3.274 -3.4677  0.5558 -0.4030
  599TIP3   OH2 1802   3.868   1.296   1.259 -0.1841 -0.2025  0.2718
  599TIP3    H1 1803   3.960   1.278   1.241 -0.6532 -2.1316 -0.3768
  599TIP3    H2 1804   3.846   1.370   1.202  1.0061  0.4439  0.6267
  600TIP3   OH2 1805   3.657   3.247   2.236  0.6288  0.0675  0.1290
  600TIP3    H1 1806   3.734   3.269   2.183 -0.1896  0.9869 -0.6989
  600TIP3    H2 1807   3.627   3.330   2.272 -1.2135  0.0668 -1.2720
  601TIP3   OH2 1808   3.589   4.726   1.823 -0.2536  0.4066  0.0158
  601TIP3    H1 1809   3.662   4.723   1.761 -0.6982 -1.2332 -0.4627
  601TIP3    H2 1810   3.516   4.762   1.774 -0.0722  1.0183  0.1844
  602TIP3   OH2 1811   2.240   0.225   3.430  0.6767 -0.1561  0.1971
  602TIP3    H1 1812   2.151   0.191   3.417  0.5119  0.3742 -0.0765
  602TIP3    H2 1813   2.238   0.266   3.516 -0.4338  3.1770 -1.2696
  603TIP3   OH2 1814   1.911   3.920   2.380 -0.0810 -0.3598 -0.4759
  603TIP3    H1 1815   1.843   3.915   2.448  0.4670  0.0049  0.1171
  603TIP3    H2 1816   1.879   3.985   2.318  0.9491  1.9281  1.2554
  604TIP3   OH2 1817   3.519   3.402   3.363  0.0665 -0.2744 -0.0903
  604TIP3    H1 1818   3.549   3.315   3.338 -1.5698 -0.8016 -0.3684
  604TIP3    H2 1819   3.514   3.399   3.459  0.8815 -0.1739 -0.0421
  605TIP3   OH2 1820   2.958   2.476   4.141  0.3940 -0.4094  0.0978
  605TIP3    H1 1821   2.964   2.428   4.059 -0.4050  0.2116 -0.3412
  605TIP3    H2 1822   2.988   2.564   4.119 -1.8098  0.3509 -0.0705
  606TIP3   OH2 1823   3.114   0.754   3.741 -0.0648  0.2465  0.2953
  606TIP3    H1 1824   3.102   0.805   3.660  0.7497 -0.5830 -0.3623
  606TIP3    H2 1825   3.200   0.780   3.773  1.2104 -2.0011 -1.0493
  607TIP3   OH2 1826   0.905   1.480   4.277 -0.7351  0.2220  0.0235
  607TIP3    H1 1827   0.896   1.519   4.364 -0.7017  1.3052 -0.4369
  607TIP3    H2 1828   0.938   1.552   4.222  1.1594 -0.9389 -0.4628
  608TIP3   OH2 1829   1.321   1.636   4.293  0.4267 -0.2970 -0.0349
  608TIP3    H1 1830   1.291   1.549   4.320 -0.8591 -0.0401 -0.5436
  608TIP3    H2 1831   1.373   1.668   4.367  0.6686 -1.3761  0.2748
  609TIP3   OH2 1832   0.144   1.843   1.300  0.0248  0.0873 -0.1664
  609TIP3    H1 1833   0.051   1.821   1.302  0.1672 -0.6310 -0.7790
  609TIP3    H2 1834   0.154   1.895   1.220  0.0503  0.6754  0.2142
  610TIP3   OH2 1835   1.884   4.113   2.108  0.1092 -0.2353  0.2097
  610TIP3    H1 1836   1.881   4.195   2.059 -2.4095 -1.4652 -1.9704
  610TIP3    H2 1837   1.841   4.133   2.191 -0.5593  0.6827 -0.3326
  611TIP3   OH2 1838   1.752   3.746   4.359 -0.0932 -0.6964  0.1107
  611TIP3    H1 1839   1.729   3.833   4.325  1.2228  0.1196  1.1940
  611TIP3    H2 1840   1.837   3.727   4.318  0.5998 -0.5446  1.4352
  612TIP3   OH2 1841   4.457   5.225   4.061 -0.1262 -0.2816  0.4633
  612TIP3    H1 1842   4.509   5.168   4.117  1.5887 -0.3740 -1.1211
  612TIP3    H2 1843   4.512   5.302   4.045 -1.3618  0.6528  0.4733
  613TIP3   OH2 1844   0.253   5.165   3.951  0.1565  0.5547  0.2486
  613TIP3    H1 1845   0.196   5.183   3.876  0.1853  1.1676  0.3656
  613TIP3    H2 1846   0.200   5.111   4.010 -0.4145  1.3557  0.4867
  614TIP3   OH2 1847   0.449   0.975   1.688 -0.8236  0.4005 -0.1366
  614TIP3    H1 1848   0.515   0.914   1.654 -1.8814 -0.0798 -1.4754
  614TIP3    H2 1849   0.493   1.060   1.690 -0.1099  0.0650 -0.8598
  615TIP3   OH2 1850   2.708   2.543   3.203 -0.2611  0.3805 -0.5237
  615TIP3    H1 1851   2.625   2.514   3.242 -0.7618 -0.5121 -2.1358
  615TIP3    H2 1852   2.743   2.607   3.265 -1.4926 -0.2137  0.8488
  616TIP3   OH2 1853   3.245   3.519   2.273 -0.4853  0.2962  0.0110
  616TIP3    H1 1854   3.206   3.432   2.267 -1.4000  0.7797 -1.6851
  616TIP3    H2 1855   3.336   3.508   2.247 -0.9683  0.0570 -1.6510
  617TIP3   OH2 1856   3.610   3.217   0.863 -0.1408  0.8976 -0.3635
  617TIP3    H1 1857   3.648   3.292   0.908  1.2625  0.4707 -0.8021
  617TIP3    H2 1858   3.562   3.255   0.790  0.8657  1.3582 -0.7974
  618TIP3   OH2 1859   3.699   4.565   0.902 -0.2938  0.4536  0.1640
  618TIP3    H1 1860   3.630   4.547   0.965  0.1774  0.8186  0.7976
  618TIP3    H2 1861   3.711   4.483   0.853 -2.1041  0.7700 -0.8927
  619TIP3   OH2 1862   4.433   5.137   1.826  0.1363 -0.0616 -0.6092
  619TIP3    H1 1863   4.430   5.068   1.892  0.8510 -0.4384 -0.9576
  619TIP3    H2 1864   4.475   5.096   1.750 -0.3575  0.4624 -1.1820
  620TIP3   OH2 1865   2.498   4.424   1.087 -0.0559 -0.3321 -0.4740
  620TIP3    H1 1866   2.518   4.331   1.099  0.2578 -0.1669  0.3635
  620TIP3    H2 1867   2.441   4.446   1.161  0.9709  0.4456  0.1114
  621TIP3   OH2 1868   0.634   0.398   1.753  0.5270 -0.1457 -0.1899
  621TIP3    H1 1869   0.594   0.460   1.692  2.6236  1.3607 -0.1323
  621TIP3    H2 1870   0.561   0.369   1.808 -0.7580  1.3019 -1.0300
  622TIP3   OH2 1871   5.783   1.269   4.743  0.4454 -0.4132  0.4919
  622TIP3    H1 1872   5.836   1.334   4.696  1.2536 -0.1783  1.6795
  622TIP3    H2 1873   5.798   1.288   4.836 -2.4330  0.2120  0.9272
  623TIP3   OH2 1874   5.319   1.140   1.151 -0.0128  0.3623  0.0829
  623TIP3    H1 1875   5.237   1.157   1.106 -0.9409  0.2530  1.6695
  623TIP3    H2 1876   5.359   1.227   1.162 -0.7934  0.6335  0.8809
  624TIP3   OH2 1877   4.591   2.367   3.427 -0.3838 -0.1948  0.0492
  624TIP3    H1 1878   4.598   2.276   3.398  0.7367 -0.1386  0.0939
  624TIP3    H2 1879   4.660   2.413   3.378  0.8144  0.1152  1.9397
  625TIP3   OH2 1880   3.350   2.778   1.633 -0.9685 -0.1777  0.5881
  625TIP3    H1 1881   3.341   2.711   1.565 -0.1841  1.2506 -0.9946
  625TIP3    H2 1882   3.288   2.752   1.700  0.4545 -3.4062  0.8394
  626TIP3   OH2 1883   2.357   0.892   2.442  0.5930  0.4332 -0.0023
  626TIP3    H1 1884   2.447   0.874   2.414 -0.6230 -1.0255 -3.6490
  626TIP3    H2 1885   2.329   0.814   2.489  0.9809  0.5666  0.4501
  627TIP3   OH2 1886   2.097   5.733   1.734 -0.0530  0.1999  0.2472
  627TIP3    H1 1887   2.042   5.683   1.794  1.2808  0.4833  1.7645
  627TIP3    H2 1888   2.156   5.783   1.790  0.2586  1.6448 -1.2852
  628TIP3   OH2 1889   2.087   1.877   4.629  0.3445 -0.2757  0.4214
  628TIP3    H1 1890   2.117   1.788   4.651  2.1220 -0.0326 -0.7764
  628TIP3    H2 1891   2.010   1.863   4.573 -1.2404 -0.9549  2.6437
  629TIP3   OH2 1892   3.605   3.162   4.354  0.2666 -0.8244  0.5173
  629TIP3    H1 1893   3.601   3.082   4.406  0.0231 -1.3664 -0.3245
  629TIP3    H2 1894   3.642   3.135   4.270  0.6774  0.0456  0.4030
  630TIP3   OH2 1895   4.076   2.783   3.581 -0.4819 -0.1096  0.5824
  630TIP3    H1 1896   4.051   2.690   3.580  0.0581 -0.2755 -1.1038
  630TIP3    H2 1897   4.039   2.819   3.500  1.2085  0.5902  0.0782
  631TIP3   OH2 1898   2.338   0.697   3.921  0.1250 -0.4101  0.2855
  631TIP3    H1 1899   2.407   0.749   3.962 -0.6037  0.3755  0.5586
  631TIP3    H2 1900   2.261   0.711   3.977 -0.5760 -0.2673 -0.6821
  632TIP3   OH2 1901   1.817   2.065   1.083 -0.3688 -0.3170  0.6175
  632TIP3    H1 1902   1.835   2.144   1.133  2.4619  1.4171 -2.6380
  632TIP3    H2 1903   1.762   2.094   1.011 -0.5114 -1.6466  0.1594
  633TIP3   OH2 1904   2.772  -0.016   2.863 -0.4154 -0.4539 -0.0971
  633TIP3    H1 1905   2.781   0.064   2.811 -0.4559  0.1783  0.8383
  633TIP3    H2 1906   2.812   0.006   2.947  1.9653 -2.2861 -0.6661
  634TIP3   OH2 1907   2.505   2.963   5.025  0.6901  0.0240 -0.2298
  634TIP3    H1 1908   2.555   2.884   5.005  0.3893 -0.1615 -0.2436
  634TIP3    H2 1909   2.416   2.944   4.996  0.9321  0.9441 -1.7349
  635TIP3   OH2 1910   2.717   1.590   3.585 -0.5068  0.0360 -0.0309
  635TIP3    H1 1911   2.661   1.592   3.507 -0.5106 -0.4493 -0.0428
  635TIP3    H2 1912   2.663   1.630   3.654 -1.4012 -1.6287  0.2948
  636TIP3   OH2 1913   2.926   4.060   1.290 -0.3542  0.5094  0.1465
  636TIP3    H1 1914   2.919   4.140   1.342  0.9896  1.4474 -1.0232
  636TIP3    H2 1915   3.013   4.025   1.310  0.4138  1.1828 -1.7704
  637TIP3   OH2 1916   0.130   2.128   4.860 -0.1836 -0.0019 -0.4193
  637TIP3    H1 1917   0.162   2.170   4.941 -1.1126 -1.2241  0.6176
  637TIP3    H2 1918   0.142   2.034   4.875 -0.3793 -0.2549 -1.7176
  638TIP3   OH2 1919   6.004   0.798   1.936 -0.7957 -0.2458  0.4516
  638TIP3    H1 1920   6.085   0.782   1.887 -1.7297  0.0964 -1.2879
  638TIP3    H2 1921   5.987   0.715   1.980 -0.0250 -0.6557  0.0095
  639TIP3   OH2 1922   3.879   5.885   3.471  0.4329  0.1432  0.4591
  639TIP3    H1 1923   3.839   5.916   3.553 -2.6567 -2.6994  0.2606
  639TIP3    H2 1924   3.812   5.901   3.405  1.8568  0.0682 -1.0481
  640TIP3   OH2 1925   2.479   0.815   5.085  0.1001 -0.5174  0.4362
  640TIP3    H1 1926   2.465   0.817   4.990 -1.0812 -2.1275  0.5236
  640TIP3    H2 1927   2.561   0.862   5.098  0.9317 -1.3111 -1.5183
  641TIP3   OH2 1928   4.081   3.000   4.541 -0.0795  0.3666  0.3811
  641TIP3    H1 1929   3.989   3.016   4.565  0.6403  0.8625  3.1890
  641TIP3    H2 1930   4.107   2.925   4.594  1.1837  0.2997 -0.2884
  642TIP3   OH2 1931   5.385   3.504   1.980  0.1523  0.3224  0.6095
  642TIP3    H1 1932   5.333   3.488   1.902  0.4382 -1.2079  0.7151
  642TIP3    H2 1933   5.365   3.431   2.038  0.9843  0.7146  1.4092
  643TIP3   OH2 1934   2.598   1.340   3.083 -0.3593 -0.3238 -0.1167
  643TIP3    H1 1935   2.631   1.293   3.159  1.9270  0.2721 -0.6814
  643TIP3    H2 1936   2.674   1.387   3.048 -1.6815  0.6341 -1.8792
  644TIP3   OH2 1937   0.620   3.020   3.293 -0.0526 -0.1001  0.1637
  644TIP3    H1 1938   0.626   3.094   3.233 -0.7860 -0.8398 -0.8634
  644TIP3    H2 1939   0.637   2.943   3.238 -1.8370 -0.8930  0.6314
  645TIP3   OH2 1940   0.591   0.103   0.688  0.6225 -0.1344 -0.2909
  645TIP3    H1 1941   0.619   0.122   0.778  0.8052 -0.5956 -0.2490
  645TIP3    H2 1942   0.552   0.185   0.658 -2.2401 -0.7601  1.2772
  646TIP3   OH2 1943   1.301   0.403   4.192 -0.5717 -0.1887  0.2153
  646TIP3    H1 1944   1.331   0.393   4.282  1.4364 -1.5266 -0.5146
  646TIP3    H2 1945   1.244   0.328   4.178 -0.4471 -0.2892  0.2364
  647TIP3   OH2 1946   5.036   5.390   1.882  0.3369  0.0211 -0.0849
  647TIP3    H1 1947   5.049   5.474   1.927  1.9876  0.6324 -1.5711
  647TIP3    H2 1948   4.948   5.362   1.907  0.5988  1.0460  2.2673
  648TIP3   OH2 1949   1.145   2.605   0.225  0.2826  0.5818  0.1702
  648TIP3    H1 1950   1.171   2.603   0.317 -0.7443 -0.9032  0.4582
  648TIP3    H2 1951   1.106   2.692   0.214 -3.4932 -0.5580  2.3614
  649TIP3   OH2 1952   3.474   1.194   4.767 -0.2197  0.5075 -0.3071
  649TIP3    H1 1953   3.475   1.139   4.846 -0.2725  1.8218  0.6357
  649TIP3    H2 1954   3.435   1.276   4.795  1.7326  1.7972 -1.1447
  650TIP3   OH2 1955   0.564   3.675   4.677  0.5129 -0.3751  0.3409
  650TIP3    H1 1956   0.521   3.729   4.743  0.3709  0.4749 -0.4345
  650TIP3    H2 1957   0.545   3.585   4.705 -2.6217 -0.0687 -0.4486
  651TIP3   OH2 1958   3.025   4.192   3.771 -0.0284  0.5661  0.0367
  651TIP3    H1 1959   3.092   4.260   3.779  2.3237 -1.5702 -0.1003
  651TIP3    H2 1960   3.074   4.113   3.746 -3.0265 -0.3145 -4.0999
  652TIP3   OH2 1961   3.947   3.746   2.135  0.3095  0.8841 -0.5888
  652TIP3    H1 1962   3.911   3.834   2.145  0.4108  0.8136  0.4978
  652TIP3    H2 1963   3.875   3.694   2.101 -0.9487  0.5524  2.3270
  653TIP3   OH2 1964   1.097   0.037   3.733  0.4251  0.3912  0.4129
  653TIP3    H1 1965   1.141  -0.041   3.699  0.3354  0.9898 -1.1632
  653TIP3    H2 1966   1.169   0.092   3.765  0.6256  0.3772 -0.0091
  654TIP3   OH2 1967   2.246   5.475   1.201 -0.4066 -0.4295  0.2069
  654TIP3    H1 1968   2.205   5.491   1.286 -0.6408  0.2488 -0.0292
  654TIP3    H2 1969   2.340   5.477   1.219 -0.4440 -1.6298  0.6830
  655TIP3   OH2 1970   0.019   1.074   2.214  0.0302 -0.0356  0.4348
  655TIP3    H1 1971   0.103   1.038   2.243  0.6138 -0.4488 -1.6377
  655TIP3    H2 1972   0.033   1.095   2.122 -1.4932  1.9477  0.6027
  656TIP3   OH2 1973   3.812   1.469   2.083  0.0922  0.0361  0.4445
  656TIP3    H1 1974   3.849   1.381   2.093 -0.1522 -0.0580  0.5329
  656TIP3    H2 1975   3.791   1.475   1.989  1.2508  0.4651  0.1861
  657TIP3   OH2 1976   6.156   2.018   2.219  0.1267  0.2251  0.6318
  657TIP3    H1 1977   6.065   2.002   2.245 -0.1266  2.0995  1.0099
  657TIP3    H2 1978   6.207   1.955   2.271 -0.8111  0.3234  1.7105
  658TIP3   OH2 1979   4.100   5.356   4.385  0.2242 -0.4254  0.3715
  658TIP3    H1 1980   4.038   5.324   4.319 -0.0045  1.2365 -0.2674
  658TIP3    H2 1981   4.096   5.290   4.454 -0.5038 -1.5587 -0.6819
  659TIP3   OH2 1982   5.159   4.012   4.099 -0.0970  0.2292  0.1074
  659TIP3    H1 1983   5.220   4.055   4.039  2.4743 -0.8336  1.7871
  659TIP3    H2 1984   5.117   4.084   4.146 -1.7085  1.0594 -2.3592
  660TIP3   OH2 1985   0.056   0.192   0.441 -0.2856  0.3672  0.0910
  660TIP3    H1 1986   0.135   0.213   0.490 -0.2433  0.4511 -0.0145
  660TIP3    H2 1987   0.052   0.096   0.441  1.2807  0.2267 -2.2274
  661TIP3   OH2 1988   4.612   4.206   2.287 -0.2394  0.5329 -0.1206
  661TIP3    H1 1989   4.516   4.212   2.290 -0.1995  1.2359 -0.1993
  661TIP3    H2 1990   4.642   4.268   2.352  0.2122  2.6773 -2.2274
  662TIP3   OH2 1991   4.397   0.791   1.274  0.7376 -0.1112 -0.7185
  662TIP3    H1 1992   4.329   0.727   1.255  0.9961 -0.2922 -1.0366
  662TIP3    H2 1993   4.434   0.813   1.189  0.5931  0.5286 -0.6262
  663TIP3   OH2 1994   5.690   1.595   4.504  0.8285 -0.5776 -0.1905
  663TIP3    H1 1995   5.670   1.689   4.506 -1.7382 -1.0629  1.4536
  663TIP3    H2 1996   5.698   1.574   4.411  2.5963  1.4394 -0.5540
  664TIP3   OH2 1997   3.296   2.319   2.242  0.0582 -0.0984 -0.5527
  664TIP3    H1 1998   3.227   2.372   2.282 -1.0080 -0.5956 -1.6514
  664TIP3    H2 1999   3.377   2.366   2.260 -0.4794  0.2136  1.2780
  665TIP3   OH2 2000   0.124   4.532   1.130  0.0210 -0.6549  1.0162
  665TIP3    H1 2001   0.152   4.444   1.155  0.9810 -1.0808 -1.3231
  665TIP3    H2 2002   0.031   4.534   1.153  0.2373 -1.8723  2.1422
  666TIP3   OH2 2003   6.206   0.840   3.769 -0.4762 -0.5783  0.1818
  666TIP3    H1 2004   6.185   0.856   3.677  1.5819 -2.0023 -0.6185
  666TIP3    H2 2005   6.169   0.915   3.815  1.9213  2.4121 -2.3014
  667TIP3   OH2 2006   3.352   3.375   3.625 -0.2768 -0.1996  0.0941
  667TIP3    H1 2007   3.289   3.403   3.692  1.0106 -1.7314  2.0490
  667TIP3    H2 2008   3.321   3.288   3.597  0.6183 -0.6959  0.6238
  668TIP3   OH2 2009   3.783   4.246   2.281 -0.8506 -0.0746 -0.5875
  668TIP3    H1 2010   3.718   4.311   2.306 -0.8722 -1.5431  4.2118
  668TIP3    H2 2011   3.861   4.296   2.260 -1.1914  1.6410  1.8542
  669TIP3   OH2 2012   5.801   2.958   1.762  0.2860 -0.0429 -0.4620
  669TIP3    H1 2013   5.856   2.944   1.685 -0.1384  0.3843 -0.8546
  669TIP3    H2 2014   5.754   2.876   1.773 -1.4272  0.6505 -2.1198
  670TIP3   OH2 2015   2.953   5.744   0.662  0.1848 -0.4975  0.1170
  670TIP3    H1 2016   2.969   5.775   0.573  1.2402 -0.7394  0.2084
  670TIP3    H2 2017   2.941   5.824   0.713  1.1481 -0.2887  0.0352
  671TIP3   OH2 2018   2.250   4.857   0.626 -0.1824  0.0407  0.0494
  671TIP3    H1 2019   2.315   4.919   0.658  0.4488 -0.5532 -0.0640
  671TIP3    H2 2020   2.301   4.784   0.591 -0.9029 -0.3132 -0.2920
  672TIP3   OH2 2021   2.012   0.314   3.040  0.5464  0.0353 -0.1415
  672TIP3    H1 2022   1.921   0.315   3.009 -0.2577  1.3624  2.0074
  672TIP3    H2 2023   2.009   0.259   3.119  1.4588  0.6182  0.3128
  673TIP3   OH2 2024   1.878   0.597   0.924 -0.7390 -0.7149 -0.0893
  673TIP3    H1 2025   1.913   0.533   0.861  1.0397  0.5686 -0.4919
  673TIP3    H2 2026   1.949   0.610   0.986 -1.5295 -0.0072  0.6866
  674TIP3   OH2 2027   4.180   3.527   0.507 -0.1555  0.0590 -0.2395
  674TIP3    H1 2028   4.153   3.453   0.561 -1.4641 -0.1797 -1.1950
  674TIP3    H2 2029   4.276   3.529   0.516 -0.1152 -1.6010 -0.0258
  675TIP3   OH2 2030   4.641   3.277   0.826  0.0545 -0.2442 -0.2126
  675TIP3    H1 2031   4.675   3.264   0.915 -0.6158 -0.4879  0.0170
  675TIP3    H2 2032   4.607   3.367   0.826 -0.6650 -0.5056  0.0340
  676TIP3   OH2 2033   5.560   5.374   3.635  0.2032 -0.3822 -0.2645
  676TIP3    H1 2034   5.503   5.446   3.607 -0.5429 -0.7637  0.2357
  676TIP3    H2 2035   5.546   5.305   3.570  0.0649 -0.4850 -0.1279
  677TIP3   OH2 2036   0.332   5.618   0.930 -0.1009  0.2457 -0.0265
  677TIP3    H1 2037   0.391   5.589   0.999  0.1622 -0.2646 -0.4605
  677TIP3    H2 2038   0.292   5.538   0.897 -1.0936  0.5901  0.3102
  678TIP3   OH2 2039   3.200   1.381   3.446 -0.1703 -0.5169  0.3048
  678TIP3    H1 2040   3.158   1.343   3.524 -1.9832 -2.5972 -1.5529
  678TIP3    H2 2041   3.198   1.311   3.381  2.0364  0.8823 -1.3965
  679TIP3   OH2 2042   4.431   0.433   0.224 -0.0420 -0.0312  0.5551
  679TIP3    H1 2043   4.486   0.361   0.255  1.5891  0.8164 -0.2822
  679TIP3    H2 2044   4.440   0.432   0.129  0.1956  1.4212  0.5434
  680TIP3   OH2 2045   0.564   5.606   4.541 -0.0893  0.1535  0.6764
  680TIP3    H1 2046   0.603   5.691   4.561 -2.4912  1.2644  1.0071
  680TIP3    H2 2047   0.505   5.623   4.467 -1.9326 -0.7639  1.8438
  681TIP3   OH2 2048   5.541   0.844   3.929 -0.4472  0.2012  0.2502
  681TIP3    H1 2049   5.495   0.804   3.855 -0.3453 -1.4796  1.0531
  681TIP3    H2 2050   5.628   0.805   3.927 -0.6142 -0.2785  1.5580
  682TIP3   OH2 2051   1.390   1.419   2.680  0.0930 -0.0899 -1.1628
  682TIP3    H1 2052   1.385   1.420   2.585 -2.3848 -0.4024 -1.1008
  682TIP3    H2 2053   1.404   1.327   2.703 -0.0645 -0.1211 -1.1947
  683TIP3   OH2 2054   5.051   1.508   0.654 -0.0304  0.2748  0.1281
  683TIP3    H1 2055   5.118   1.560   0.699 -0.0595  0.3811  0.0502
  683TIP3    H2 2056   5.059   1.534   0.562  1.1267 -1.1227 -0.1989
  684TIP3   OH2 2057   2.138   2.015   0.652  0.0717 -0.0101 -0.0016
  684TIP3    H1 2058   2.093   1.938   0.618  0.2229 -0.6151  1.1191
  684TIP3    H2 2059   2.143   2.000   0.747 -1.1407  1.9996  0.4579
  685TIP3   OH2 2060   4.514   0.226   2.110  0.2482  0.3168 -0.0192
  685TIP3    H1 2061   4.600   0.201   2.076  0.1659 -0.7723  0.5265
  685TIP3    H2 2062   4.527   0.235   2.204  0.2914  2.5403 -0.1681
  686TIP3   OH2 2063   5.906   4.699   0.917 -0.0289 -0.1008  0.1282
  686TIP3    H1 2064   5.887   4.723   1.008 -0.0789  0.7966 -0.1084
  686TIP3    H2 2065   5.912   4.603   0.918 -2.0764 -0.2725  0.6834
  687TIP3   OH2 2066   4.935   3.300   3.868 -0.1009  0.1975  0.5181
  687TIP3    H1 2067   4.931   3.357   3.791 -2.9462  1.2411  1.3172
  687TIP3    H2 2068   4.909   3.214   3.836 -0.8944  0.5395  0.2209
  688TIP3   OH2 2069   5.174   2.721   4.229  0.0936  0.1466  0.4106
  688TIP3    H1 2070   5.218   2.654   4.282  0.5700 -0.5698 -0.8705
  688TIP3    H2 2071   5.217   2.803   4.255  0.1671 -0.1538  1.2892
  689TIP3   OH2 2072   3.643   0.536   0.819  0.1281  0.4375  0.0387
  689TIP3    H1 2073   3.553   0.546   0.786  0.5472  0.5106 -1.1168
  689TIP3    H2 2074   3.635   0.552   0.913 -0.6619  3.0466 -0.3882
  690TIP3   OH2 2075   4.891   2.430   0.443 -0.7561 -0.4159  0.0836
  690TIP3    H1 2076   4.967   2.483   0.419 -1.4519 -0.1966 -1.7726
  690TIP3    H2 2077   4.883   2.441   0.538  1.2480 -0.1015  0.2608
  691TIP3   OH2 2078   1.749   1.905   1.667 -0.4070  0.0295 -0.1219
  691TIP3    H1 2079   1.738   1.897   1.572 -1.1590  0.1980 -0.0585
  691TIP3    H2 2080   1.715   1.823   1.702 -0.5932  0.1689  0.0279
  692TIP3   OH2 2081   3.221   3.373   0.581  0.2069  0.2030 -0.0679
  692TIP3    H1 2082   3.157   3.305   0.602  0.5692 -0.5139 -1.1889
  692TIP3    H2 2083   3.211   3.387   0.487  0.8969  0.9234 -0.0470
  693TIP3   OH2 2084   4.964   2.019   4.831  0.0965  0.1726  0.3782
  693TIP3    H1 2085   4.876   2.055   4.844 -0.3170 -0.3024 -1.0125
  693TIP3    H2 2086   4.972   1.952   4.899 -0.4441  0.5119  0.7925
  694TIP3   OH2 2087   0.050   1.829   3.275 -0.5083  0.1116  0.0534
  694TIP3    H1 2088  -0.025   1.887   3.293  0.0695  1.1845 -0.9015
  694TIP3    H2 2089   0.070   1.844   3.183  1.2120  0.2407  0.4189
  695TIP3   OH2 2090   2.642   3.484   4.049  0.7194 -0.0167 -0.4938
  695TIP3    H1 2091   2.654   3.392   4.073  0.6576 -0.1085 -0.8144
  695TIP3    H2 2092   2.666   3.488   3.957 -1.4209 -0.1661 -1.1165
  696TIP3   OH2 2093   1.079   0.577   2.291 -0.1680  0.6747 -0.0341
  696TIP3    H1 2094   1.025   0.504   2.321  0.0332  1.1315  1.5162
  696TIP3    H2 2095   1.055   0.588   2.199 -1.2391 -0.4181  0.0903
  697TIP3   OH2 2096   0.348   2.839   3.460 -0.1208  0.1193 -0.0353
  697TIP3    H1 2097   0.361   2.902   3.531 -1.0820 -0.9567  1.1541
  697TIP3    H2 2098   0.327   2.892   3.384 -0.7885  1.2535  0.9115
  698TIP3   OH2 2099   0.801   5.897   0.589 -0.0723 -0.1217 -0.3531
  698TIP3    H1 2100   0.809   5.802   0.602 -1.4349 -0.3893 -1.1975
  698TIP3    H2 2101   0.792   5.907   0.495  1.6383  1.0164 -0.4251
  699TIP3   OH2 2102   0.335   2.158   0.823 -0.2211  0.2287 -0.1445
  699TIP3    H1 2103   0.264   2.131   0.765  1.6993 -0.3014 -2.4430
  699TIP3    H2 2104   0.344   2.252   0.809  0.7751 -0.0311 -1.4412
  700TIP3   OH2 2105   0.504   2.069   3.763  0.4331 -0.1516  0.1984
  700TIP3    H1 2106   0.420   2.108   3.787 -0.2639 -1.0880 -0.5957
  700TIP3    H2 2107   0.508   1.988   3.813 -0.4019 -1.4290 -1.6602
  701TIP3   OH2 2108   4.792   1.973   3.877  0.3569 -0.5836 -0.2245
  701TIP3    H1 2109   4.819   2.019   3.957  0.6749  0.8227 -1.0942
  701TIP3    H2 2110   4.697   1.977   3.879  0.3201 -1.4780  0.5794
  702TIP3   OH2 2111   5.557   4.854   0.810 -0.3032 -0.2358 -0.0964
  702TIP3    H1 2112   5.536   4.826   0.721  2.7789 -0.5347 -0.8477
  702TIP3    H2 2113   5.646   4.888   0.804  0.4361 -1.2656  3.0585
  703TIP3   OH2 2114   2.218   2.323   4.081  0.7199 -0.3327 -0.1696
  703TIP3    H1 2115   2.272   2.258   4.035  2.0375 -0.9423  2.1072
  703TIP3    H2 2116   2.278   2.366   4.141 -0.4993  1.8833 -0.4353
  704TIP3   OH2 2117   6.009   0.603   4.109 -0.8322 -0.2055 -0.3317
  704TIP3    H1 2118   6.024   0.509   4.113  0.5790 -0.1351 -2.6218
  704TIP3    H2 2119   6.090   0.642   4.141 -1.1098  0.2436 -0.1639
  705TIP3   OH2 2120   2.479   1.269   2.694  0.2733 -0.1048 -0.4554
  705TIP3    H1 2121   2.568   1.302   2.702 -0.0570  0.5813  0.5737
  705TIP3    H2 2122   2.472   1.242   2.602  0.5643  2.8049 -1.4422
  706TIP3   OH2 2123   2.642   2.960   0.067 -0.7334 -0.8398  0.1016
  706TIP3    H1 2124   2.717   3.004   0.026  0.6079 -0.6308  2.5538
  706TIP3    H2 2125   2.588   2.931  -0.006 -0.4620  2.7364 -1.7526
  707TIP3   OH2 2126   0.510   4.738   3.656  0.5302  0.2855 -0.2629
  707TIP3    H1 2127   0.577   4.796   3.621  1.0639 -0.9860 -1.3922
  707TIP3    H2 2128   0.557   4.661   3.686 -0.3420 -0.2825 -0.3098
  708TIP3   OH2 2129   0.137   4.286   2.681 -0.2483  0.2691 -0.2575
  708TIP3    H1 2130   0.159   4.315   2.769 -1.2508  1.1716 -0.2774
  708TIP3    H2 2131   0.070   4.219   2.693 -0.1833  0.1945 -0.3138
  709TIP3   OH2 2132   3.604   0.380   1.185  0.2264  0.1705 -0.3732
  709TIP3    H1 2133   3.512   0.364   1.208  0.5278  0.7800  1.3587
  709TIP3    H2 2134   3.606   0.471   1.156  0.4507  0.5137  0.6708
  710TIP3   OH2 2135   1.061   2.577   1.652  0.8027 -0.1078 -0.0390
  710TIP3    H1 2136   1.102   2.622   1.726  1.6975 -0.4441 -0.3110
  710TIP3    H2 2137   1.032   2.648   1.594 -0.5607  0.1723  0.9564
  711TIP3   OH2 2138   4.099   4.748   4.829  0.4292 -0.6545  0.1392
  711TIP3    H1 2139   4.166   4.802   4.787  1.3674  0.2460  2.6077
  711TIP3    H2 2140   4.027   4.809   4.847  1.1124 -0.3614  2.1020
  712TIP3   OH2 2141   1.708   3.693   4.808  0.4611  0.3044 -0.1652
  712TIP3    H1 2142   1.788   3.745   4.814 -0.2292  1.5746 -1.2748
  712TIP3    H2 2143   1.655   3.739   4.743  0.4190 -2.6917 -2.4697
  713TIP3   OH2 2144   2.283   5.919   4.239 -0.5303 -1.0472  0.1768
  713TIP3    H1 2145   2.263   5.908   4.332  0.0813  0.3238  0.5101
  713TIP3    H2 2146   2.202   5.953   4.201 -0.4134 -0.3841  0.4897
  714TIP3   OH2 2147   4.789   4.090   0.539  0.0677  0.1497  0.5464
  714TIP3    H1 2148   4.772   4.149   0.612  0.0758 -0.4022  1.0029
  714TIP3    H2 2149   4.703   4.074   0.501 -0.1617 -0.7527  1.3820
  715TIP3   OH2 2150   2.692   0.869   3.563 -0.2951 -0.3274 -0.1450
  715TIP3    H1 2151   2.600   0.847   3.582 -0.2052 -1.1481 -0.6307
  715TIP3    H2 2152   2.737   0.785   3.564  0.1829 -0.1029 -1.3985
  716TIP3   OH2 2153   4.056   2.043   0.534 -0.4147  0.2873 -0.1560
  716TIP3    H1 2154   4.064   2.000   0.449 -0.6654  0.9575 -0.5256
  716TIP3    H2 2155   4.046   2.136   0.514  3.1655  1.0264  0.6688
  717TIP3   OH2 2156   2.961   5.699   1.083  0.1378  0.1110  0.2812
  717TIP3    H1 2157   3.052   5.690   1.109  0.3179  0.3688 -0.2451
  717TIP3    H2 2158   2.935   5.786   1.115  0.9225  1.2522 -1.9830
  718TIP3   OH2 2159   4.907   0.605   3.813  0.3433  0.0332  0.0948
  718TIP3    H1 2160   4.852   0.626   3.889 -1.3258  1.1590 -1.3422
  718TIP3    H2 2161   4.969   0.678   3.808 -0.2958  0.5532 -0.2902
  719TIP3   OH2 2162   1.606   2.441   0.585  0.8193  0.3949 -0.0006
  719TIP3    H1 2163   1.613   2.363   0.530  0.5563  0.2596  0.1561
  719TIP3    H2 2164   1.531   2.423   0.642  1.5804  0.1906  0.9489
  720TIP3   OH2 2165   0.018   4.799   3.338 -0.1596  0.5352  0.0216
  720TIP3    H1 2166   0.095   4.850   3.364 -1.4809  2.1805  0.8356
  720TIP3    H2 2167  -0.057   4.849   3.371 -1.5428 -2.0885  1.1595
  721TIP3   OH2 2168   5.747   0.805   0.625  0.7437 -0.1637 -0.2365
  721TIP3    H1 2169   5.765   0.885   0.674  0.2323  0.6248 -1.2993
  721TIP3    H2 2170   5.816   0.802   0.559  0.1467 -0.0111 -0.8815
  722TIP3   OH2 2171   5.245   2.533   4.428 -0.0423  0.5243 -0.0865
  722TIP3    H1 2172   5.168   2.579   4.460 -0.3056  1.0007 -1.3409
  722TIP3    H2 2173   5.239   2.446   4.466 -1.5707  0.3328 -0.6802
  723TIP3   OH2 2174   1.958   2.556   0.928 -0.1986  0.4190 -0.0064
  723TIP3    H1 2175   2.045   2.545   0.889  0.0990  0.8064  0.5398
  723TIP3    H2 2176   1.952   2.649   0.949  0.2318  0.0108  2.1814
  724TIP3   OH2 2177   3.855   0.775   4.380 -0.1617  0.4243  0.3549
  724TIP3    H1 2178   3.918   0.807   4.445 -0.6059  0.3850  0.8114
  724TIP3    H2 2179   3.860   0.840   4.309  1.7623 -0.5724 -0.4975
  725TIP3   OH2 2180   3.028   0.985   0.433 -0.2165  0.9066  0.1706
  725TIP3    H1 2181   3.073   0.997   0.349 -0.7523 -0.3682 -0.3312
  725TIP3    H2 2182   3.065   1.052   0.490  2.2515  0.0326 -0.2552
  726TIP3   OH2 2183   3.799   5.956   0.972  0.0641  0.4615  0.4914
  726TIP3    H1 2184   3.793   6.040   0.928  1.4680 -0.2647 -1.2087
  726TIP3    H2 2185   3.722   5.907   0.942  0.0727  0.6011  0.2397
  727TIP3   OH2 2186   5.676   2.676   2.568  0.0363  0.2603 -0.4420
  727TIP3    H1 2187   5.739   2.622   2.616 -1.0304  1.0698  2.0106
  727TIP3    H2 2188   5.727   2.716   2.498  1.9035 -0.2916  0.5409
  728TIP3   OH2 2189   3.237   0.707   0.569  0.8578 -0.2866 -0.2383
  728TIP3    H1 2190   3.179   0.756   0.628 -0.4012 -0.0356 -1.6431
  728TIP3    H2 2191   3.290   0.774   0.526  0.1944 -0.2596 -1.0379
  729TIP3   OH2 2192   1.237   4.146   3.868  0.1600  0.5005  0.2563
  729TIP3    H1 2193   1.325   4.125   3.898  0.4705 -1.7540 -1.8886
  729TIP3    H2 2194   1.250   4.213   3.801  0.3560 -0.4019 -0.6225
  730TIP3   OH2 2195   5.995   5.292   1.946  0.0597 -0.7425 -0.3592
  730TIP3    H1 2196   5.980   5.370   1.999  1.5468 -1.8421  1.8147
  730TIP3    H2 2197   6.038   5.325   1.867 -2.3925  0.9629 -1.0964
  731TIP3   OH2 2198   4.574   0.193   5.092 -0.4380 -0.2313  0.0404
  731TIP3    H1 2199   4.615   0.152   5.016  0.2915 -2.3444  1.4644
  731TIP3    H2 2200   4.628   0.270   5.111  2.0783 -2.0833  0.9455
  732TIP3   OH2 2201   3.013  -0.012   4.453  0.1028  0.2248 -0.5289
  732TIP3    H1 2202   2.975   0.042   4.383 -0.3664  0.0706 -0.3933
  732TIP3    H2 2203   2.987   0.032   4.534 -1.2614 -0.8193 -0.3702
  733TIP3   OH2 2204   0.168   4.241   2.243 -0.3141 -0.9971 -0.2028
  733TIP3    H1 2205   0.213   4.256   2.160  0.0415 -0.0766  0.1460
  733TIP3    H2 2206   0.091   4.298   2.239  1.4766  1.7697  1.4743
  734TIP3   OH2 2207   5.649   1.018   4.720 -0.1035  0.0470 -0.2257
  734TIP3    H1 2208   5.568   1.068   4.722 -0.3078 -0.2575 -0.6242
  734TIP3    H2 2209   5.718   1.083   4.734 -0.4981  0.0669  1.8677
  735TIP3   OH2 2210   1.849   1.672   0.259  0.6119 -0.1220  0.4085
  735TIP3    H1 2211   1.917   1.630   0.207 -0.0885  1.3171 -1.7876
  735TIP3    H2 2212   1.853   1.764   0.234 -0.5452  0.4220  2.0644
  736TIP3   OH2 2213   6.191   0.286   0.649  0.2979  0.4576  0.0990
  736TIP3    H1 2214   6.247   0.314   0.721  0.9044 -1.1624  0.3172
  736TIP3    H2 2215   6.249   0.282   0.573  0.1692  0.1236  0.0141
  737TIP3   OH2 2216   3.071   4.025   4.421  0.2554  0.0999 -0.2165
  737TIP3    H1 2217   2.985   4.062   4.440  0.7737 -0.2150  3.5137
  737TIP3    H2 2218   3.126   4.100   4.399 -0.5491  0.4794 -1.0081
  738TIP3   OH2 2219   1.487   2.605   1.598 -0.2205 -0.0891  0.3146
  738TIP3    H1 2220   1.432   2.534   1.564 -0.8796 -0.5403  2.1946
  738TIP3    H2 2221   1.575   2.585   1.566 -0.4721 -1.5461  0.4789
  739TIP3   OH2 2222   4.632   5.631   1.265  0.0662  1.1612  0.1953
  739TIP3    H1 2223   4.690   5.653   1.191  0.5430  2.0460  0.8197
  739TIP3    H2 2224   4.688   5.586   1.327 -0.7209 -1.2752 -0.7097
  740TIP3   OH2 2225   2.656   4.816   1.127  0.0443  0.0692 -0.1955
  740TIP3    H1 2226   2.691   4.805   1.038 -1.2494  0.3357 -0.7640
  740TIP3    H2 2227   2.591   4.885   1.118 -0.5948 -0.3881  0.8309
  741TIP3   OH2 2228   2.113   2.592   3.012  0.1919  0.2706  0.3066
  741TIP3    H1 2229   2.185   2.655   3.010  1.2190 -0.8226 -2.4812
  741TIP3    H2 2230   2.105   2.568   3.104  1.6551  2.3178  1.0540
  742TIP3   OH2 2231   0.593   5.807   4.271 -0.2393 -0.0252 -0.6764
  742TIP3    H1 2232   0.626   5.814   4.361 -1.3344  2.3963 -0.3868
  742TIP3    H2 2233   0.662   5.760   4.224 -0.5177 -3.2332  1.7864
  743TIP3   OH2 2234   3.487   4.560   1.323 -0.2795  0.0116  0.0072
  743TIP3    H1 2235   3.401   4.594   1.298 -0.5608  0.1608  1.1106
  743TIP3    H2 2236   3.492   4.474   1.282 -0.7084  0.2368 -0.5408
  744TIP3   OH2 2237   3.077   4.497   0.702 -0.4879 -0.3342 -0.2465
  744TIP3    H1 2238   3.009   4.445   0.745 -0.5802  0.7489  0.9612
  744TIP3    H2 2239   3.095   4.569   0.762  2.2325 -0.9458 -0.1800
  745TIP3   OH2 2240   5.977   5.137   4.178  0.5794 -0.0826 -0.0220
  745TIP3    H1 2241   6.066   5.164   4.202  0.1671 -0.3224  1.9787
  745TIP3    H2 2242   5.922   5.170   4.249 -0.7280 -1.1473 -0.4914
  746TIP3   OH2 2243   4.812   2.900   0.342  0.1990  0.0400 -0.3074
  746TIP3    H1 2244   4.844   2.817   0.306  0.1160 -0.4275  0.6566
  746TIP3    H2 2245   4.774   2.876   0.426  0.6641  1.1458  0.2322
  747TIP3   OH2 2246   4.259   5.391   2.831 -0.2679 -0.0806 -0.1666
  747TIP3    H1 2247   4.317   5.370   2.904 -0.2539  1.4188  0.2973
  747TIP3    H2 2248   4.304   5.356   2.754  1.7791  1.8060  0.0501
  748TIP3   OH2 2249   4.945   0.469   1.058 -0.3952 -0.1022 -0.1790
  748TIP3    H1 2250   5.016   0.501   1.114 -0.4003  0.5660 -0.5456
  748TIP3    H2 2251   4.875   0.444   1.119  0.1633 -0.8060  0.1868
  749TIP3   OH2 2252   0.244   0.373   1.383  0.1086 -0.2274  0.3262
  749TIP3    H1 2253   0.253   0.451   1.438  0.1299  0.7118 -0.9617
  749TIP3    H2 2254   0.333   0.354   1.354  0.0002 -0.2662  0.0141
  750TIP3   OH2 2255   3.417   3.058   4.118  0.2638 -0.0082  0.4365
  750TIP3    H1 2256   3.509   3.039   4.098 -0.1789 -0.5742 -1.2714
  750TIP3    H2 2257   3.382   2.974   4.148 -0.5646 -0.8999 -2.6360
  751TIP3   OH2 2258   3.145   5.050   0.998 -0.3304  0.3664 -0.4919
  751TIP3    H1 2259   3.200   5.003   1.060  0.4146  1.7651 -0.0582
  751TIP3    H2 2260   3.076   5.090   1.052 -0.3999  0.5665 -0.7271
  752TIP3   OH2 2261   0.086   5.501   0.278  0.4214  0.1911  0.4356
  752TIP3    H1 2262   0.037   5.513   0.197 -0.5723  2.8152  1.3221
  752TIP3    H2 2263   0.060   5.414   0.308 -1.1558  0.1770 -0.8134
  753TIP3   OH2 2264   5.630   0.928   1.483  0.3090 -0.3512  0.4617
  753TIP3    H1 2265   5.559   0.943   1.421  0.5366  2.6076  0.7293
  753TIP3    H2 2266   5.700   0.888   1.431 -0.4427 -0.3938 -0.5454
  754TIP3   OH2 2267   4.327   2.521   1.895  0.2999  0.3374  0.0386
  754TIP3    H1 2268   4.254   2.526   1.833  1.3865  1.5494 -1.2408
  754TIP3    H2 2269   4.341   2.428   1.910 -1.4947  0.0925  0.3283
  755TIP3   OH2 2270   3.768   4.438   1.518  0.0933 -0.5075  0.2046
  755TIP3    H1 2271   3.853   4.465   1.481  0.1427 -1.1427 -0.1737
  755TIP3    H2 2272   3.722   4.399   1.443 -0.7929  0.4190  0.2577
  756TIP3   OH2 2273   4.181   2.815   4.050 -0.1604 -0.2264 -0.0182
  756TIP3    H1 2274   4.265   2.771   4.068  0.1920  0.1258 -0.7589
  756TIP3    H2 2275   4.147   2.837   4.137  0.7025 -0.0331  0.2869
  757TIP3   OH2 2276   6.211   3.856   2.608  0.1198  0.1355  0.3307
  757TIP3    H1 2277   6.142   3.830   2.547  0.2169  0.0695  0.2483
  757TIP3    H2 2278   6.280   3.891   2.551 -0.9731  2.8632  0.5431
  758TIP3   OH2 2279   6.110   4.161   3.679 -0.2106 -0.0577 -0.3289
  758TIP3    H1 2280   6.149   4.212   3.607  0.0025  0.0650 -0.1288
  758TIP3    H2 2281   6.072   4.084   3.636  0.0077 -0.0378 -0.5611
  759TIP3   OH2 2282   1.330   2.163   2.880 -1.0568  0.5534 -0.0736
  759TIP3    H1 2283   1.238   2.172   2.904 -1.1478 -0.9784  0.2901
  759TIP3    H2 2284   1.377   2.195   2.957 -1.3361 -1.0187  0.8079
  760TIP3   OH2 2285   1.962   1.819   0.549  0.4652  0.2049  0.4668
  760TIP3    H1 2286   2.017   1.749   0.582  0.1392  0.3972  1.4311
  760TIP3    H2 2287   1.888   1.775   0.508 -0.4445 -0.0176  2.2868
  761TIP3   OH2 2288   3.240   1.034   2.013 -0.0616 -0.4035  0.1444
  761TIP3    H1 2289   3.284   0.976   1.951 -1.4426 -0.8428 -0.4816
  761TIP3    H2 2290   3.263   1.001   2.099  1.1576 -0.3476 -0.1506
  762TIP3   OH2 2291   5.819   3.121   5.034  0.9687  0.3880  0.3092
  762TIP3    H1 2292   5.907   3.136   5.068  1.2513 -1.6787  0.6148
  762TIP3    H2 2293   5.789   3.042   5.077 -0.8513  0.7407 -0.2045
  763TIP3   OH2 2294   5.878   3.802   5.104  0.1279  0.2271  0.3281
  763TIP3    H1 2295   5.876   3.756   5.020 -0.3291  1.2393 -0.2329
  763TIP3    H2 2296   5.790   3.789   5.140  1.0116 -2.3079  1.8727
  764TIP3   OH2 2297   2.745   5.834   4.008  0.6729 -0.0084  0.6520
  764TIP3    H1 2298   2.816   5.893   4.033  0.9301  0.5955 -1.3189
  764TIP3    H2 2299   2.783   5.747   4.012  1.5712  0.3153 -0.4524
  765TIP3   OH2 2300   4.659   1.641   1.499  0.2493  0.0376  0.1054
  765TIP3    H1 2301   4.688   1.700   1.568 -0.6711 -0.6019  1.0518
  765TIP3    H2 2302   4.575   1.608   1.529 -0.0801 -0.3975 -1.2414
  766TIP3   OH2 2303   3.069   3.758   3.148 -0.0046 -0.2292 -0.0903
  766TIP3    H1 2304   3.109   3.786   3.230  0.2447  0.2397 -0.3660
  766TIP3    H2 2305   2.975   3.767   3.162  0.0166 -0.6211  0.3092
  767TIP3   OH2 2306   5.633   4.112   2.149 -0.5524 -0.8955 -0.3443
  767TIP3    H1 2307   5.673   4.026   2.141 -2.0056 -1.6397  0.1430
  767TIP3    H2 2308   5.665   4.160   2.072  1.5458 -1.2883  0.1986
  768TIP3   OH2 2309   1.664   5.764   3.442  0.1556 -0.1023  0.3834
  768TIP3    H1 2310   1.668   5.820   3.519 -0.4659 -0.6856  0.8520
  768TIP3    H2 2311   1.603   5.694   3.465  2.0150 -1.8477  0.3861
  769TIP3   OH2 2312   1.370   3.465   0.445  0.0013  0.2436 -0.1895
  769TIP3    H1 2313   1.390   3.386   0.495 -0.7049  0.1985  0.0307
  769TIP3    H2 2314   1.456   3.497   0.416  0.2662 -0.9068 -0.7632
  770TIP3   OH2 2315   0.705   1.511   1.185 -0.3715 -0.0726 -0.2103
  770TIP3    H1 2316   0.799   1.493   1.190 -0.1037  1.3420  0.1426
  770TIP3    H2 2317   0.698   1.606   1.184 -1.8289 -0.1481  0.1980
  771TIP3   OH2 2318   5.017   4.242   0.786  0.0684 -0.3756 -0.3454
  771TIP3    H1 2319   4.930   4.272   0.814  1.4300  2.3636  1.5284
  771TIP3    H2 2320   5.049   4.312   0.729  1.6028 -0.5185  0.2833
  772TIP3   OH2 2321   5.571   1.833   4.478  0.0986  0.1520  0.2666
  772TIP3    H1 2322   5.583   1.925   4.499  1.0564  0.0595  0.1489
  772TIP3    H2 2323   5.480   1.827   4.446 -0.9308  0.5652  2.8590
  773TIP3   OH2 2324   1.655   4.921   3.489  0.1494  0.8257  0.3136
  773TIP3    H1 2325   1.619   4.840   3.452 -0.1973  1.0443  0.1732
  773TIP3    H2 2326   1.703   4.962   3.417  0.6771  0.5473  0.4930
  774TIP3   OH2 2327   6.220   1.414   4.259  0.3417 -0.7226  0.1314
  774TIP3    H1 2328   6.210   1.330   4.216 -0.7900  0.1637 -1.4468
  774TIP3    H2 2329   6.166   1.407   4.338 -1.0260 -0.9834 -0.7868
  775TIP3   OH2 2330   5.946   3.578   0.123 -0.4318  0.0337 -0.2811
  775TIP3    H1 2331   5.920   3.586   0.215  0.5674 -0.5545  0.0588
  775TIP3    H2 2332   6.017   3.641   0.112  0.0443 -0.5246 -0.4201
  776TIP3   OH2 2333   0.436   1.886   1.801  0.4160  0.4213  0.2718
  776TIP3    H1 2334   0.366   1.897   1.865  1.1094  3.3016  0.6678
  776TIP3    H2 2335   0.391   1.878   1.717 -0.4211 -1.0215  0.8128
  777TIP3   OH2 2336   4.101   3.957   0.659 -0.3222 -0.1497  0.0313
  777TIP3    H1 2337   4.148   4.035   0.631  2.0704 -1.3351  0.5078
  777TIP3    H2 2338   4.124   3.890   0.594 -0.2002 -1.1337  1.0571
  778TIP3   OH2 2339   5.769   2.198   3.596 -0.6604  0.4063  0.0966
  778TIP3    H1 2340   5.691   2.231   3.642 -0.5660  0.7086  0.0393
  778TIP3    H2 2341   5.735   2.128   3.539 -1.2124  1.8541 -1.4174
  779TIP3   OH2 2342   0.564   0.914   1.295  0.1300 -0.0294  0.0057
  779TIP3    H1 2343   0.499   0.984   1.293  0.8552  0.7927  2.2457
  779TIP3    H2 2344   0.603   0.915   1.207 -1.0480  1.2150 -0.5461
  780TIP3   OH2 2345   1.859   0.162   2.534  0.1102  0.3196 -0.5772
  780TIP3    H1 2346   1.884   0.077   2.497 -1.4842 -1.3580  1.8805
  780TIP3    H2 2347   1.855   0.147   2.629  2.3581  3.9051  0.2606
  781TIP3   OH2 2348   0.618   5.276   2.815  0.3419 -0.6095  0.5034
  781TIP3    H1 2349   0.557   5.321   2.756  2.1038  0.0955 -0.8888
  781TIP3    H2 2350   0.670   5.220   2.758 -0.1363 -2.5798  1.9009
  782TIP3   OH2 2351   2.514   4.024   0.873  0.1779 -0.1647 -0.4843
  782TIP3    H1 2352   2.433   4.056   0.911  0.4183 -0.8514  0.6526
  782TIP3    H2 2353   2.486   3.963   0.804 -0.2603  1.2871 -1.6387
  783TIP3   OH2 2354   0.399   5.479   3.473 -0.1753  0.2607 -0.2163
  783TIP3    H1 2355   0.484   5.470   3.430  0.1681  0.0377  0.5035
  783TIP3    H2 2356   0.399   5.411   3.540  0.0761  1.8146  1.4302
  784TIP3   OH2 2357   0.312   1.368   2.552 -0.0083 -0.3767 -0.3844
  784TIP3    H1 2358   0.273   1.455   2.564 -0.6727 -0.7775  0.5274
  784TIP3    H2 2359   0.397   1.385   2.511  0.0132  0.7258  0.0795
  785TIP3   OH2 2360   1.407   0.245   4.938 -0.2993 -0.0642 -0.4614
  785TIP3    H1 2361   1.492   0.201   4.927 -0.0705  0.2877 -0.1389
  785TIP3    H2 2362   1.343   0.174   4.939  0.2133 -0.5672  1.8163
  786TIP3   OH2 2363   1.204   2.296   1.328  0.2119  0.2424  0.2592
  786TIP3    H1 2364   1.150   2.268   1.402 -0.4587 -0.7605 -0.5810
  786TIP3    H2 2365   1.203   2.221   1.268  2.3071  0.3036  0.0714
  787TIP3   OH2 2366   6.286   2.840   3.222  0.1789  0.1617 -0.6163
  787TIP3    H1 2367   6.308   2.926   3.257 -0.0531  0.2336 -0.6475
  787TIP3    H2 2368   6.358   2.783   3.252  1.3324  0.7378 -2.1600
  788TIP3   OH2 2369   1.687   3.493   4.461 -0.2425  0.4548 -0.1536
  788TIP3    H1 2370   1.592   3.487   4.462 -0.2711  0.8353 -0.4361
  788TIP3    H2 2371   1.706   3.582   4.431  0.1839  1.2761  2.3489
  789TIP3   OH2 2372   5.122   0.809   2.879  0.5511 -0.7082 -0.2343
  789TIP3    H1 2373   5.099   0.717   2.894  2.1393 -1.0922  0.0564
  789TIP3    H2 2374   5.061   0.839   2.813 -3.1314 -0.5814  2.9010
  790TIP3   OH2 2375   2.120   0.744   1.344 -0.1600  0.4211  0.3074
  790TIP3    H1 2376   2.038   0.720   1.387 -0.4660  0.7405 -0.0993
  790TIP3    H2 2377   2.178   0.770   1.416 -0.5624  0.6339  0.5578
  791TIP3   OH2 2378   2.652   5.933   1.296 -0.0625 -0.4797 -0.3774
  791TIP3    H1 2379   2.608   5.903   1.217  1.5794 -1.2256 -1.0679
  791TIP3    H2 2380   2.688   5.854   1.336 -3.1094 -0.5452  2.7030
  792TIP3   OH2 2381   1.592   4.019   1.868  0.4256 -0.0607 -0.7227
  792TIP3    H1 2382   1.614   3.950   1.930  1.1895  1.3190  0.6030
  792TIP3    H2 2383   1.676   4.048   1.834  0.3051  1.5922  0.3000
  793TIP3   OH2 2384   3.206   1.187   4.474 -0.5560  0.5225 -0.5058
  793TIP3    H1 2385   3.258   1.116   4.510  2.1200  2.3806 -0.4616
  793TIP3    H2 2386   3.172   1.153   4.392  0.2482 -0.9550 -0.2536
  794TIP3   OH2 2387   4.284   2.569   0.660 -0.6281  0.1467  0.1192
  794TIP3    H1 2388   4.285   2.550   0.566 -0.6127  1.7875 -0.2388
  794TIP3    H2 2389   4.355   2.632   0.673 -1.9277  1.5564  0.8339
  795TIP3   OH2 2390   0.036   3.226   0.832  0.1167 -0.5170 -0.2611
  795TIP3    H1 2391   0.044   3.322   0.835  0.5824 -0.4642 -1.8941
  795TIP3    H2 2392  -0.016   3.203   0.909 -1.3289  1.1976 -0.6546
  796TIP3   OH2 2393   1.183   0.466   4.514  0.3375  0.2586  0.1767
  796TIP3    H1 2394   1.136   0.547   4.532 -0.0959 -0.2413  1.3899
  796TIP3    H2 2395   1.261   0.470   4.568  0.7014  0.2065 -0.3394
  797TIP3   OH2 2396   0.131   1.434   2.946 -0.4640  0.1261 -0.2918
  797TIP3    H1 2397   0.165   1.401   3.029 -2.0117  1.1689  0.8026
  797TIP3    H2 2398   0.164   1.524   2.940 -1.8210  0.6781  0.1165
  798TIP3   OH2 2399   4.189   0.739   2.283  0.5093 -0.9147  0.6093
  798TIP3    H1 2400   4.112   0.751   2.227  1.6498 -0.7997 -1.0278
  798TIP3    H2 2401   4.181   0.808   2.349 -0.5729 -0.6514  0.2307
  799TIP3   OH2 2402   0.300   0.133   5.044  0.1938  0.3203  0.6475
  799TIP3    H1 2403   0.236   0.178   5.100 -1.1339  1.6228 -1.7405
  799TIP3    H2 2404   0.259   0.048   5.024 -0.4962  0.8539 -0.2808
  800TIP3   OH2 2405   0.675   2.545   0.221 -0.0575  0.6995 -0.8355
  800TIP3    H1 2406   0.724   2.473   0.261  1.0823  1.5668 -0.5842
  800TIP3    H2 2407   0.656   2.604   0.294  0.7010  1.5614 -1.3149
  801TIP3   OH2 2408   2.696   0.346   2.453 -0.0467 -0.2253 -0.2090
  801TIP3    H1 2409   2.687   0.349   2.357  2.2538  1.8067 -0.4555
  801TIP3    H2 2410   2.689   0.438   2.480 -1.3761 -0.8325  1.7128
  802TIP3   OH2 2411   5.974   3.538   3.278  0.2108 -0.1820  0.3558
  802TIP3    H1 2412   5.999   3.572   3.192  0.2935 -1.3248 -0.0903
  802TIP3    H2 2413   6.045   3.566   3.336  0.2799  0.3941  0.0005
  803TIP3   OH2 2414   4.389   3.222   0.630  0.0913  0.4886 -0.0897
  803TIP3    H1 2415   4.392   3.207   0.725  0.1986  1.5419  0.0814
  803TIP3    H2 2416   4.310   3.274   0.617  0.0767  0.3419 -0.5895
  804TIP3   OH2 2417   1.808   4.002   4.978  0.6040 -0.2379  0.2154
  804TIP3    H1 2418   1.844   4.083   5.013 -1.7856  1.7375 -1.5206
  804TIP3    H2 2419   1.748   3.971   5.046  0.0064  0.6001  0.0811
  805TIP3   OH2 2420   0.205   3.723   5.028  0.6653  0.0001 -0.1642
  805TIP3    H1 2421   0.281   3.759   5.074  1.3216 -0.3662 -0.9471
  805TIP3    H2 2422   0.211   3.629   5.041  1.1846 -0.1651 -1.4701
  806TIP3   OH2 2423   0.803   5.090   2.768  0.0177 -0.3931 -0.1177
  806TIP3    H1 2424   0.879   5.081   2.825 -0.5598  0.5989  0.8323
  806TIP3    H2 2425   0.771   5.000   2.757  1.2446 -0.8109 -0.4507
  807TIP3   OH2 2426   4.551   1.935   1.713 -0.1689 -0.2505  0.1719
  807TIP3    H1 2427   4.623   1.957   1.654 -0.2890 -0.1340  0.0695
  807TIP3    H2 2428   4.570   1.985   1.793 -1.6523  2.0845 -0.8492
  808TIP3   OH2 2429   3.713   1.555   3.075 -0.0373  0.2608 -0.4924
  808TIP3    H1 2430   3.647   1.591   3.016 -1.4560 -0.6787  0.4505
  808TIP3    H2 2431   3.708   1.609   3.153  0.2701  0.1495 -0.3932
  809TIP3   OH2 2432   4.570   2.233   4.243 -0.2051 -0.1290 -0.3648
  809TIP3    H1 2433   4.642   2.273   4.196 -0.6933 -1.3189 -2.2608
  809TIP3    H2 2434   4.515   2.306   4.270 -0.5552  0.6168 -2.8331
  810TIP3   OH2 2435   1.585   0.925   2.198  0.3002 -0.5158  0.4621
  810TIP3    H1 2436   1.619   1.014   2.202  1.2516 -0.7899 -0.8443
  810TIP3    H2 2437   1.494   0.935   2.170  0.5030  0.0362 -0.0040
  811TIP3   OH2 2438   3.718   2.052   1.170  0.0545 -0.1467 -0.6504
  811TIP3    H1 2439   3.649   1.999   1.130 -0.1815 -0.4835  0.1707
  811TIP3    H2 2440   3.695   2.054   1.263  0.4157  0.8666 -0.5715
  812TIP3   OH2 2441   4.558   1.802   3.736 -0.5959 -0.2842  0.0290
  812TIP3    H1 2442   4.546   1.894   3.759  0.2535 -0.6114  1.9898
  812TIP3    H2 2443   4.599   1.804   3.650 -0.2378  1.1906  0.2106
  813TIP3   OH2 2444   3.062   4.713   0.884 -0.0286  0.1307 -0.0694
  813TIP3    H1 2445   2.970   4.715   0.910  0.0100 -1.7766  0.3506
  813TIP3    H2 2446   3.082   4.804   0.861 -1.3632  1.0633  2.0659
  814TIP3   OH2 2447   2.279   3.247   0.069 -0.3420  0.3642  0.0193
  814TIP3    H1 2448   2.305   3.299   0.146  1.1016  0.3277 -0.4080
  814TIP3    H2 2449   2.227   3.307   0.016 -0.1672  0.8320  0.3648
  815TIP3   OH2 2450   1.416   5.483   3.181  0.4158 -0.3366  0.3210
  815TIP3    H1 2451   1.442   5.418   3.246 -0.5730 -0.4428  0.6250
  815TIP3    H2 2452   1.438   5.567   3.221 -0.6500 -0.3758  1.0269
  816TIP3   OH2 2453   2.273   4.010   4.561 -0.0091  0.1025  0.0034
  816TIP3    H1 2454   2.336   4.080   4.546 -1.3552  0.9752 -1.9447
  816TIP3    H2 2455   2.301   3.939   4.503 -1.1886  0.7847 -1.4605
  817TIP3   OH2 2456   5.917   1.009   3.587  0.3396 -0.0237 -0.0808
  817TIP3    H1 2457   5.886   1.063   3.660 -1.4273 -1.8023  0.5583
  817TIP3    H2 2458   5.933   0.923   3.626  0.4187 -0.7172 -1.5891
  818TIP3   OH2 2459   5.816   1.272   0.977  0.0534  0.1936  0.4375
  818TIP3    H1 2460   5.778   1.353   1.011 -0.2490  0.3769 -0.3150
  818TIP3    H2 2461   5.742   1.222   0.944  0.4884  0.8895 -1.7459
  819TIP3   OH2 2462   4.920   5.409   4.668 -0.5924 -0.3794 -0.6406
  819TIP3    H1 2463   5.004   5.364   4.659  0.6631  1.4304  1.2824
  819TIP3    H2 2464   4.875   5.363   4.739  0.1208  0.4863  0.4072
  820TIP3   OH2 2465   1.094   3.797   3.075 -0.1461  0.0763 -0.2947
  820TIP3    H1 2466   1.115   3.871   3.019  0.7491 -0.8863 -1.2774
  820TIP3    H2 2467   1.144   3.724   3.039 -0.9010 -0.9897  0.7191
  821TIP3   OH2 2468   4.378   3.560   1.144  0.0306  0.0947 -0.5453
  821TIP3    H1 2469   4.349   3.591   1.230  1.8706 -0.1219  0.2075
  821TIP3    H2 2470   4.418   3.637   1.104 -0.3829  0.0682 -1.0123
  822TIP3   OH2 2471   0.776   3.285   2.837  0.2345  0.0230  0.2719
  822TIP3    H1 2472   0.739   3.216   2.782  0.0347  0.1746  0.2154
  822TIP3    H2 2473   0.751   3.366   2.794  0.6111  0.1298  0.2490
  823TIP3   OH2 2474   5.463   1.032   0.255  0.2149  0.4759 -0.5184
  823TIP3    H1 2475   5.477   0.938   0.253 -1.4713  0.1831 -0.0952
  823TIP3    H2 2476   5.375   1.043   0.291  0.0259  2.1742 -1.3660
  824TIP3   OH2 2477   2.345   5.746   1.517 -0.3444 -0.0511 -1.2913
  824TIP3    H1 2478   2.412   5.702   1.465 -0.2551 -0.9915 -0.4245
  824TIP3    H2 2479   2.266   5.694   1.502 -0.2873 -0.4094 -0.4276
  825TIP3   OH2 2480   2.319   1.791   1.217 -0.4823  0.5565  0.1638
  825TIP3    H1 2481   2.243   1.849   1.209 -0.5025  0.6061  0.7200
  825TIP3    H2 2482   2.394   1.845   1.192 -0.5679  0.6624  0.1371
  826TIP3   OH2 2483   1.695   2.330   1.710 -0.3941  0.0735  0.0152
  826TIP3    H1 2484   1.652   2.321   1.625 -2.4149  1.9878  0.7130
  826TIP3    H2 2485   1.671   2.250   1.757 -0.9255 -0.1208 -0.5646
  827TIP3   OH2 2486   5.026   2.529   1.159 -0.7317 -0.1333 -0.0371
  827TIP3    H1 2487   4.990   2.506   1.244 -0.4953 -1.2495 -0.2199
  827TIP3    H2 2488   4.967   2.595   1.124 -0.0836  1.3480  1.5442
  828TIP3   OH2 2489   5.943   1.399   2.257  0.3626 -0.0626 -0.3736
  828TIP3    H1 2490   5.932   1.489   2.225 -1.6706  0.2034  0.9031
  828TIP3    H2 2491   6.036   1.380   2.243  1.1323  2.6828  0.3843
  829TIP3   OH2 2492   3.303   1.765   1.425  0.2789  0.3236 -0.4575
  829TIP3    H1 2493   3.266   1.794   1.508 -0.3740  0.7017 -0.8642
  829TIP3    H2 2494   3.364   1.834   1.400 -0.7633  1.0519 -1.0886
  830TIP3   OH2 2495   5.165   1.626   1.033 -0.1100 -0.1430 -0.1784
  830TIP3    H1 2496   5.096   1.563   1.012  0.0760 -0.4166  0.0206
  830TIP3    H2 2497   5.120   1.697   1.079 -0.4573  0.2842 -1.1637
  831TIP3   OH2 2498   4.451   4.246   3.049 -0.3349  0.4673 -0.4402
  831TIP3    H1 2499   4.378   4.208   3.098 -0.1364  1.5070  0.6976
  831TIP3    H2 2500   4.510   4.172   3.033 -1.2930 -0.2442 -0.7567
  832TIP3   OH2 2501   1.271   5.941   1.918 -0.1019  0.3713  0.3761
  832TIP3    H1 2502   1.329   5.971   1.849  0.0360  1.3642  0.9025
  832TIP3    H2 2503   1.293   5.849   1.930 -0.7434 -0.0690 -1.4982
  833TIP3   OH2 2504   1.515   5.181   2.357  0.1052 -0.3230  0.0709
  833TIP3    H1 2505   1.587   5.148   2.302  0.1944  0.3803 -0.2346
  833TIP3    H2 2506   1.456   5.225   2.296  0.8933  1.6865  0.6846
  834TIP3   OH2 2507   4.938   5.374   3.800  0.5955 -0.0348  0.6345
  834TIP3    H1 2508   4.947   5.295   3.748  0.4401 -0.3311  1.0555
  834TIP3    H2 2509   4.920   5.343   3.889 -1.7691  0.4621  0.4053
  835TIP3   OH2 2510   2.777   5.267   3.342 -0.0963 -0.0011 -0.1726
  835TIP3    H1 2511   2.751   5.360   3.345 -2.2066 -0.4463 -1.9846
  835TIP3    H2 2512   2.818   5.251   3.427 -1.9409  1.9911  1.2134
  836TIP3   OH2 2513   5.027   4.000   5.072  0.3701  0.0209  0.1248
  836TIP3    H1 2514   5.003   4.070   5.131  3.1213  0.9443  0.3073
  836TIP3    H2 2515   5.026   3.921   5.126 -0.6614  0.2414  0.4477
  837TIP3   OH2 2516   3.368   1.102   3.802 -0.6662 -1.1077 -0.4076
  837TIP3    H1 2517   3.456   1.083   3.769  0.3015  0.1977  1.1945
  837TIP3    H2 2518   3.340   1.021   3.844  1.4989 -0.5663  2.4686
  838TIP3   OH2 2519   6.020   4.780   3.172 -0.0668  0.2944 -0.1528
  838TIP3    H1 2520   5.934   4.766   3.210  0.3301  0.2662  0.7616
  838TIP3    H2 2521   6.047   4.867   3.204  0.0396  0.5181 -0.8284
  839TIP3   OH2 2522   2.848   4.668   2.639 -0.1093  0.0519  0.2202
  839TIP3    H1 2523   2.779   4.722   2.675 -2.5785 -2.4985 -0.3396
  839TIP3    H2 2524   2.921   4.677   2.701 -1.4054  1.7487  1.5903
  840TIP3   OH2 2525   5.384   4.405   3.606  0.1165 -0.0251  0.3256
  840TIP3    H1 2526   5.307   4.358   3.573  0.7772 -0.5127 -0.5790
  840TIP3    H2 2527   5.439   4.336   3.644  0.6278  0.1495 -0.0866
  841TIP3   OH2 2528   5.737   0.378   3.503  0.9177 -0.3688  0.2046
  841TIP3    H1 2529   5.824   0.339   3.517  1.4771  0.0274 -1.8623
  841TIP3    H2 2530   5.754   0.469   3.481 -0.0062 -0.3851 -0.6186
  842TIP3   OH2 2531   2.010   3.618   4.474  0.3585  0.0968  0.1249
  842TIP3    H1 2532   1.997   3.599   4.381  0.7513 -1.7810  0.4142
  842TIP3    H2 2533   2.105   3.622   4.485  0.3751 -1.1736  0.6714
  843TIP3   OH2 2534   1.687   3.710   1.150  0.5793 -0.1988 -0.5776
  843TIP3    H1 2535   1.643   3.736   1.069 -0.7117 -1.7281 -0.4153
  843TIP3    H2 2536   1.616   3.705   1.215  1.5181  0.4975  0.5446
  844TIP3   OH2 2537   2.930   0.045   3.687 -0.3245 -0.2113  0.2327
  844TIP3    H1 2538   2.887   0.056   3.771  0.6023 -1.8392  0.9826
  844TIP3    H2 2539   2.860   0.022   3.626 -0.6855 -2.0390  1.2535
  845TIP3   OH2 2540   4.298   3.035   2.987  0.3795 -0.2227  0.0052
  845TIP3    H1 2541   4.279   3.066   2.898 -1.3489 -2.2082 -0.3871
  845TIP3    H2 2542   4.387   2.999   2.982  0.3203 -0.2518 -0.8809
  846TIP3   OH2 2543   2.557   1.194   5.069  0.2348 -0.6199  0.1809
  846TIP3    H1 2544   2.636   1.244   5.048  0.4529 -0.7055  0.7674
  846TIP3    H2 2545   2.499   1.259   5.109 -0.0160 -0.5462 -0.2954
  847TIP3   OH2 2546   2.626   1.249   0.111  0.0128  0.6881 -0.0622
  847TIP3    H1 2547   2.670   1.242   0.195  0.0779 -1.3297 -0.2278
  847TIP3    H2 2548   2.555   1.311   0.126 -1.2624 -1.1789  2.0837
  848TIP3   OH2 2549   3.368   4.102   4.067  0.0725 -0.2729  0.3788
  848TIP3    H1 2550   3.424   4.130   4.139  1.6188 -0.8615 -0.5481
  848TIP3    H2 2551   3.326   4.182   4.037  0.9663  0.3103  0.6503
  849TIP3   OH2 2552   5.244   3.413   4.512  0.2747 -0.1896  0.3880
  849TIP3    H1 2553   5.326   3.447   4.475  0.1579  0.2873  0.5710
  849TIP3    H2 2554   5.178   3.478   4.488 -0.4253 -1.4578 -1.3983
  850TIP3   OH2 2555   4.677   4.653   2.557  0.0735 -0.0272 -0.0094
  850TIP3    H1 2556   4.599   4.630   2.507  0.5657 -1.9841  0.0394
  850TIP3    H2 2557   4.669   4.747   2.573 -1.2916  0.1831 -1.6698
  851TIP3   OH2 2558   1.707   5.501   3.206  0.5667 -0.1320  0.4301
  851TIP3    H1 2559   1.763   5.578   3.214 -1.5087  1.4718  0.0524
  851TIP3    H2 2560   1.704   5.483   3.112 -0.2413  0.3294  0.3629
  852TIP3   OH2 2561   1.902   0.367   3.671  0.2578  0.1734 -0.2927
  852TIP3    H1 2562   1.807   0.363   3.679  0.1736  1.1919 -0.5879
  852TIP3    H2 2563   1.920   0.460   3.657  1.2617 -0.0824 -0.7347
  853TIP3   OH2 2564   1.542   5.916   5.153 -0.2703 -0.7060 -0.5393
  853TIP3    H1 2565   1.480   5.971   5.104  0.7748  0.6240 -0.4053
  853TIP3    H2 2566   1.530   5.942   5.244 -0.5132 -1.4837 -0.3390
  854TIP3   OH2 2567   5.711   2.601   4.361  0.0642 -0.3591  0.5735
  854TIP3    H1 2568   5.718   2.694   4.380  2.0577 -0.3027 -0.1783
  854TIP3    H2 2569   5.801   2.571   4.353 -0.5237 -1.7879 -1.8189
  855TIP3   OH2 2570   2.914   3.607   3.457 -0.4298 -0.2914 -0.4329
  855TIP3    H1 2571   2.988   3.553   3.429 -0.1251  0.2419 -0.6658
  855TIP3    H2 2572   2.847   3.544   3.483 -0.9384 -0.8429 -2.8404
  856TIP3   OH2 2573   5.893   3.907   2.402 -0.2287 -0.3648  0.3212
  856TIP3    H1 2574   5.943   3.828   2.381 -0.2707  0.0556 -1.5371
  856TIP3    H2 2575   5.914   3.924   2.493  1.5826 -1.2423  0.1257
  857TIP3   OH2 2576   4.583   5.511   4.671  0.0864  0.1456  0.0799
  857TIP3    H1 2577   4.591   5.529   4.765  0.9501 -0.9923  0.2503
  857TIP3    H2 2578   4.551   5.420   4.668 -0.6800  0.4282 -0.7363
  858TIP3   OH2 2579   5.950   4.616   1.385 -0.3422  0.1184 -0.4632
  858TIP3    H1 2580   5.861   4.588   1.364 -0.7575  0.9033  0.2249
  858TIP3    H2 2581   5.968   4.577   1.471  0.2551 -0.6302 -0.9122
  859TIP3   OH2 2582   5.119   0.695   5.064 -0.3115 -0.5055 -0.2267
  859TIP3    H1 2583   5.205   0.654   5.054 -1.3232 -2.9217  0.1906
  859TIP3    H2 2584   5.087   0.663   5.148 -1.5738  0.4626 -0.3092
  860TIP3   OH2 2585   3.985   1.535   4.056 -0.1829  0.2437  0.0695
  860TIP3    H1 2586   3.925   1.462   4.040 -0.7110  0.0347  2.5469
  860TIP3    H2 2587   3.932   1.601   4.101  0.4229  1.9817 -1.6318
  861TIP3   OH2 2588   1.595   1.518   1.142  0.3999  0.5144 -0.1417
  861TIP3    H1 2589   1.636   1.605   1.137 -1.3204  1.3975  0.0706
  861TIP3    H2 2590   1.546   1.521   1.224  0.2869 -0.6606 -0.1599
  862TIP3   OH2 2591   0.064   0.487   1.877 -0.1542  0.1294  0.0029
  862TIP3    H1 2592  -0.002   0.545   1.839 -1.8974 -0.4626  1.8984
  862TIP3    H2 2593   0.089   0.531   1.959  0.9545 -0.2408 -0.1261
  863TIP3   OH2 2594   5.169   2.884   1.115 -0.2472  0.2804 -0.3301
  863TIP3    H1 2595   5.167   2.865   1.021  0.8890 -1.2366 -0.0729
  863TIP3    H2 2596   5.088   2.846   1.149  0.6317 -1.6591 -0.2919
  864TIP3   OH2 2597   5.204   3.690   3.953 -0.2372  0.4752 -0.3853
  864TIP3    H1 2598   5.234   3.694   3.862 -1.0443  0.6088 -0.6525
  864TIP3    H2 2599   5.198   3.596   3.971 -2.7117  0.3655 -1.3925
  865TIP3   OH2 2600   3.767   1.490   1.106 -0.1120 -0.1021 -0.6825
  865TIP3    H1 2601   3.827   1.525   1.040 -0.7411  0.9062 -0.7403
  865TIP3    H2 2602   3.738   1.567   1.155 -0.1073 -0.7723  0.3972
  866TIP3   OH2 2603   5.407   2.605   1.798 -0.9282  0.8536 -0.0965
  866TIP3    H1 2604   5.371   2.532   1.747 -0.3783  0.4341  0.1057
  866TIP3    H2 2605   5.413   2.571   1.887  1.6513  0.2501 -0.4132
  867TIP3   OH2 2606   0.379   5.390   0.279 -0.0181  0.1041 -0.0738
  867TIP3    H1 2607   0.450   5.442   0.316  0.2608  0.6473 -1.2985
  867TIP3    H2 2608   0.343   5.341   0.353  0.8132  0.7699  0.7944
  868TIP3   OH2 2609   0.168   4.599   2.891  0.2978  0.0093 -1.0398
  868TIP3    H1 2610   0.126   4.648   2.961 -0.1563  0.5680 -1.6975
  868TIP3    H2 2611   0.162   4.507   2.918 -0.1506  0.1985 -0.5032
  869TIP3   OH2 2612   2.333   0.217   3.137  0.0540 -0.1589  0.2443
  869TIP3    H1 2613   2.391   0.143   3.119  0.7678  0.3860  0.2445
  869TIP3    H2 2614   2.319   0.215   3.231  3.3250  1.9720  0.9513
  870TIP3   OH2 2615   2.210   4.384   3.002 -0.0243  0.0780  0.1927
  870TIP3    H1 2616   2.169   4.466   3.029 -1.2510 -0.6853  0.7675
  870TIP3    H2 2617   2.158   4.316   3.045  0.4877 -1.0385 -0.8768
  871TIP3   OH2 2618   6.276   0.780   1.754 -0.2003 -0.3812 -0.1224
  871TIP3    H1 2619   6.207   0.798   1.691  0.1515 -0.0251 -0.4133
  871TIP3    H2 2620   6.356   0.814   1.713 -0.0569  0.4110  0.7604
  872TIP3   OH2 2621   1.597   4.722   4.599  0.2280  0.5114  0.3363
  872TIP3    H1 2622   1.638   4.670   4.668 -0.9172 -0.0963  0.5746
  872TIP3    H2 2623   1.667   4.782   4.570  0.9801  0.1839  1.3994
  873TIP3   OH2 2624   2.138   0.553   2.867  0.0323 -0.5505  0.3065
  873TIP3    H1 2625   2.212   0.607   2.841  0.0618 -1.0532 -0.7178
  873TIP3    H2 2626   2.065   0.614   2.879  0.0531 -0.2668 -0.8732
  874TIP3   OH2 2627   6.187   4.745   2.824  0.4026  0.2468  0.0210
  874TIP3    H1 2628   6.208   4.736   2.731  0.1023  0.3788 -0.0590
  874TIP3    H2 2629   6.262   4.706   2.869 -0.0733 -1.0757 -0.2860
  875TIP3   OH2 2630   1.568   5.722   1.710  0.0086  0.4321 -0.2663
  875TIP3    H1 2631   1.595   5.656   1.773 -1.1663 -0.2400 -0.4283
  875TIP3    H2 2632   1.543   5.672   1.632  0.7011  1.1896 -0.9978
  876TIP3   OH2 2633   0.356   1.626   4.675 -0.2602  0.0458  0.2057
  876TIP3    H1 2634   0.414   1.655   4.604  3.2076  0.2524  2.8571
  876TIP3    H2 2635   0.328   1.538   4.648  0.2815  0.4225 -1.7348
  877TIP3   OH2 2636   1.145   3.802   1.154 -0.2215  0.0256  0.0131
  877TIP3    H1 2637   1.054   3.832   1.156  0.2045  2.1944 -3.6739
  877TIP3    H2 2638   1.189   3.857   1.219 -1.2238  0.2842  0.4946
  878TIP3   OH2 2639   3.796   5.701   0.615  0.4861 -0.2763 -0.2729
  878TIP3    H1 2640   3.888   5.673   0.621  0.4626 -0.0934  2.8942
  878TIP3    H2 2641   3.764   5.696   0.706 -1.7579  2.5798 -0.7625
  879TIP3   OH2 2642   2.168   4.334   0.565  0.4044  0.2447  0.1359
  879TIP3    H1 2643   2.085   4.372   0.592  0.9315  0.2628  1.8117
  879TIP3    H2 2644   2.179   4.364   0.474 -0.3995  1.9983  0.5793
  880TIP3   OH2 2645   2.585   0.133   1.178  0.6304 -0.0316 -0.4272
  880TIP3    H1 2646   2.595   0.209   1.236  0.2195  2.1163 -2.9882
  880TIP3    H2 2647   2.576   0.059   1.238  0.6785  1.9478  2.2323
  881TIP3   OH2 2648   2.037   5.594   2.759 -0.0578  0.2084 -0.3856
  881TIP3    H1 2649   1.973   5.609   2.829  1.4203  1.2354  0.8100
  881TIP3    H2 2650   2.056   5.500   2.765 -0.3541  0.1775  0.2335
  882TIP3   OH2 2651   4.997   2.567   3.486 -0.1817  0.1045  0.1927
  882TIP3    H1 2652   5.033   2.479   3.496 -0.0343 -0.2176 -2.4506
  882TIP3    H2 2653   4.912   2.553   3.444  0.1075  1.2268 -0.8182
  883TIP3   OH2 2654   2.207   3.051   3.788  0.7789 -0.9965 -0.1544
  883TIP3    H1 2655   2.126   3.086   3.752  0.7506 -0.4406  0.4211
  883TIP3    H2 2656   2.274   3.116   3.765  0.5217  0.1013  1.9329
  884TIP3   OH2 2657   2.284   5.184   3.371 -0.4022 -0.1705  0.5573
  884TIP3    H1 2658   2.354   5.236   3.331 -2.0360  2.0965  0.4121
  884TIP3    H2 2659   2.276   5.219   3.459 -0.9137 -0.8581  0.7874
  885TIP3   OH2 2660   3.579   1.662   2.103 -0.2615 -0.3448 -0.2070
  885TIP3    H1 2661   3.524   1.605   2.156  0.5619  0.5370  1.7114
  885TIP3    H2 2662   3.668   1.629   2.117  0.1937  1.1910  0.7137
  886TIP3   OH2 2663   1.952   3.352   0.686  0.5898  0.3694  0.2137
  886TIP3    H1 2664   1.973   3.442   0.709 -0.6161  1.1130 -1.4111
  886TIP3    H2 2665   1.866   3.336   0.726  1.7950 -0.9348  2.5191
  887TIP3   OH2 2666   2.534   1.804   1.488  0.3432  0.1789  0.1984
  887TIP3    H1 2667   2.482   1.883   1.479  0.5698  0.3798  0.6174
  887TIP3    H2 2668   2.541   1.769   1.399 -1.4808 -0.4874  0.2877
  888TIP3   OH2 2669   1.630   4.476   1.221 -0.5782 -0.1604  0.4291
  888TIP3    H1 2670   1.643   4.544   1.287 -0.4555  1.8212 -1.5447
  888TIP3    H2 2671   1.541   4.488   1.189 -0.1723 -0.1395 -0.7627
  889TIP3   OH2 2672   3.630   5.788   2.043 -0.5899  0.3948  0.5579
  889TIP3    H1 2673   3.711   5.737   2.049 -0.7814 -0.0815 -0.5583
  889TIP3    H2 2674   3.658   5.879   2.046  0.0802  0.2472 -0.6181
  890TIP3   OH2 2675   2.232   0.502   1.626 -0.1339 -0.5173  0.1364
  890TIP3    H1 2676   2.137   0.496   1.636 -0.5886  4.0008  0.5243
  890TIP3    H2 2677   2.261   0.553   1.702  2.7973 -2.4010  0.4441
  891TIP3   OH2 2678   3.012   5.753   2.909 -0.1174 -0.4932 -0.0545
  891TIP3    H1 2679   3.014   5.692   2.983 -1.1405  0.4262  0.7514
  891TIP3    H2 2680   3.049   5.834   2.944 -0.2067 -0.1801 -0.6796
  892TIP3   OH2 2681   5.141   3.589   0.136 -0.4556  0.3702  0.1346
  892TIP3    H1 2682   5.162   3.682   0.134  0.5227  0.1570  0.0448
  892TIP3    H2 2683   5.203   3.549   0.075 -1.3831 -0.2489 -0.4265
  893TIP3   OH2 2684   1.014   2.825   4.982 -0.2139 -0.8188 -0.2021
  893TIP3    H1 2685   0.951   2.803   5.051 -1.3663  1.9856 -0.2110
  893TIP3    H2 2686   0.961   2.867   4.914  1.2293 -1.4707 -1.8156
  894TIP3   OH2 2687   2.631   5.751   4.366  0.6581 -0.1065 -0.1653
  894TIP3    H1 2688   2.549   5.782   4.404  0.0779 -0.2509 -1.2590
  894TIP3    H2 2689   2.668   5.692   4.432  0.4777  0.8653  0.8319
  895TIP3   OH2 2690   5.006   4.484   0.432  0.3936 -0.6651 -0.1861
  895TIP3    H1 2691   4.912   4.485   0.450  0.5518 -0.7406  0.6865
  895TIP3    H2 2692   5.017   4.543   0.358  0.0853  2.3655  1.9887
  896TIP3   OH2 2693   1.041   1.271   4.167  0.3030 -0.0565 -0.1439
  896TIP3    H1 2694   1.010   1.287   4.078  1.0137  2.2909 -0.0397
  896TIP3    H2 2695   1.005   1.344   4.218  2.3188  0.2783  0.8793
  897TIP3   OH2 2696   1.751   2.669   2.531 -0.0967  0.0244 -0.0906
  897TIP3    H1 2697   1.713   2.663   2.444 -0.7604 -0.8959  0.2507
  897TIP3    H2 2698   1.834   2.622   2.525 -0.6637 -1.0205  0.0441
  898TIP3   OH2 2699   5.533   3.753   1.833  0.2619 -0.0111 -0.4825
  898TIP3    H1 2700   5.484   3.687   1.784  1.7039 -1.9710  0.5833
  898TIP3    H2 2701   5.575   3.806   1.765  0.6982 -1.4677 -1.4016
  899TIP3   OH2 2702   5.524   5.874   3.649 -0.0008 -0.2692  0.9117
  899TIP3    H1 2703   5.573   5.865   3.731 -0.7427  0.4240  1.4576
  899TIP3    H2 2704   5.574   5.938   3.598  1.3692 -1.9240  0.0821
  900TIP3   OH2 2705   1.223   2.523   3.768  0.3436  0.4771  0.0505
  900TIP3    H1 2706   1.162   2.451   3.752  2.1874 -1.9413  2.7459
  900TIP3    H2 2707   1.169   2.602   3.766 -3.4315 -1.5580  3.9971
  901TIP3   OH2 2708   1.138   0.508   1.642  0.0050  0.4502 -0.2741
  901TIP3    H1 2709   1.081   0.432   1.640  3.0175 -1.9865 -1.6895
  901TIP3    H2 2710   1.154   0.529   1.550  1.3732  1.0389  0.0754
  902TIP3   OH2 2711   0.186   1.606   3.594 -0.2512  0.7083  0.0447
  902TIP3    H1 2712   0.275   1.635   3.611  0.0650  0.1131 -0.5504
  902TIP3    H2 2713   0.181   1.599   3.498  0.6521 -3.9740  0.1033
  903TIP3   OH2 2714   2.397   5.273   0.452  0.3762  0.1852 -0.1205
  903TIP3    H1 2715   2.474   5.326   0.476 -0.8079  2.3862 -0.8888
  903TIP3    H2 2716   2.343   5.272   0.530 -0.0444  0.9735 -0.3914
  904TIP3   OH2 2717   0.579   2.876   2.263 -0.1991 -0.0554 -0.3377
  904TIP3    H1 2718   0.662   2.920   2.284 -0.7887 -0.3123  3.3128
  904TIP3    H2 2719   0.604   2.790   2.230  1.0128  0.2490 -0.2445
  905TIP3   OH2 2720   4.617   0.246   4.157 -0.0931  0.2038 -0.2048
  905TIP3    H1 2721   4.666   0.182   4.208 -0.5470  0.7063  0.8823
  905TIP3    H2 2722   4.643   0.331   4.192 -2.7317  0.4734  1.4414
  906TIP3   OH2 2723   5.374   2.404   3.017  0.5175 -0.1453  0.2477
  906TIP3    H1 2724   5.364   2.477   3.079 -0.8883 -0.1380  0.0505
  906TIP3    H2 2725   5.417   2.444   2.940 -1.6430  0.9136 -0.5026
  907TIP3   OH2 2726   2.425   5.070   1.464 -0.4788 -0.3786  0.2055
  907TIP3    H1 2727   2.465   5.128   1.399 -1.2756 -1.1029 -0.9650
  907TIP3    H2 2728   2.478   5.082   1.543 -0.1153  1.3021 -0.2545
  908TIP3   OH2 2729   4.674   4.416   4.298 -0.1121  0.1973 -0.0324
  908TIP3    H1 2730   4.744   4.480   4.282 -0.1270  0.9891  2.4681
  908TIP3    H2 2731   4.637   4.443   4.383 -1.7054 -1.7671 -0.0267
  909TIP3   OH2 2732   2.648   4.426   0.524  0.0436 -0.1867  0.5845
  909TIP3    H1 2733   2.740   4.408   0.505 -0.4367 -0.9919 -1.2046
  909TIP3    H2 2734   2.621   4.355   0.583  0.1244 -1.0346 -0.3679
  910TIP3   OH2 2735   1.964   1.652   3.037 -0.3164 -0.2887  0.4279
  910TIP3    H1 2736   1.955   1.735   3.084  0.8087 -0.0873  0.2971
  910TIP3    H2 2737   1.996   1.677   2.950  0.1039 -0.8587  0.4151
  911TIP3   OH2 2738   2.276   5.895   1.953 -0.0340 -0.4568  0.0802
  911TIP3    H1 2739   2.306   5.895   2.044  0.2067  0.5181  0.0156
  911TIP3    H2 2740   2.332   5.831   1.910  2.5870  1.8266 -0.1971
  912TIP3   OH2 2741   5.243   3.186   2.264  0.3180  0.2290 -0.1366
  912TIP3    H1 2742   5.205   3.257   2.211  1.4878  0.5714 -0.5465
  912TIP3    H2 2743   5.187   3.110   2.246 -0.5953  0.8902 -0.1580
  913TIP3   OH2 2744   0.034   1.600   5.057 -0.2918  0.0856  0.4166
  913TIP3    H1 2745   0.080   1.617   4.975 -0.6729 -0.4089  0.0960
  913TIP3    H2 2746   0.089   1.641   5.125  1.1676 -1.4031  0.1785
  914TIP3   OH2 2747   3.446   3.857   2.471 -0.7336  0.4477 -0.5555
  914TIP3    H1 2748   3.488   3.895   2.548 -1.9287  0.8386 -0.0620
  914TIP3    H2 2749   3.498   3.779   2.450  0.1529  0.8582  0.0688
  915TIP3   OH2 2750   0.051   3.931   1.869 -0.2091 -0.5903  0.0513
  915TIP3    H1 2751   0.043   3.863   1.802  1.6910  1.4411 -2.4756
  915TIP3    H2 2752  -0.039   3.956   1.889 -0.8560 -1.5173 -1.5336
  916TIP3   OH2 2753   6.360   5.110   3.135  0.0657 -0.1785 -0.3935
  916TIP3    H1 2754   6.335   5.199   3.158  0.4948 -0.3116  0.6577
  916TIP3    H2 2755   6.277   5.066   3.117 -0.1142  0.5506 -1.4125
  917TIP3   OH2 2756   0.181   2.678   3.807  0.0334 -0.3815 -0.4972
  917TIP3    H1 2757   0.186   2.656   3.900  0.3286 -0.7439 -0.5941
  917TIP3    H2 2758   0.116   2.748   3.801 -2.4866 -2.5650 -0.4139
  918TIP3   OH2 2759   4.426   0.072   2.424 -0.6490  0.0474  0.1235
  918TIP3    H1 2760   4.444   0.003   2.360 -0.0815 -0.9755  1.3133
  918TIP3    H2 2761   4.335   0.097   2.409 -0.5733 -0.2884 -0.9516
  919TIP3   OH2 2762   1.751   3.883   2.592  0.0665  0.4991  0.3200
  919TIP3    H1 2763   1.656   3.874   2.598  0.1905 -1.8631 -0.2223
  919TIP3    H2 2764   1.779   3.897   2.683 -0.7687  1.1117  0.4955
  920TIP3   OH2 2765   3.455   5.302   3.429  0.3787 -0.5235 -0.1730
  920TIP3    H1 2766   3.431   5.209   3.420 -1.3835 -0.0952 -0.2271
  920TIP3    H2 2767   3.437   5.339   3.342  0.4006  0.0016  0.0466
  921TIP3   OH2 2768   6.100   0.405   4.830 -0.4872 -0.7699  0.1074
  921TIP3    H1 2769   6.139   0.491   4.814 -1.0048 -0.5066  0.2594
  921TIP3    H2 2770   6.108   0.359   4.746 -2.3092  0.2591 -0.6878
  922TIP3   OH2 2771   3.548   0.465   3.472  0.6922  0.1467  0.1466
  922TIP3    H1 2772   3.492   0.414   3.530  1.8366 -0.2153  0.9655
  922TIP3    H2 2773   3.521   0.438   3.384  0.0184 -0.4811  0.5283
  923TIP3   OH2 2774   3.153   2.103   0.286 -0.2128 -0.2479 -0.3451
  923TIP3    H1 2775   3.135   2.139   0.373 -0.9650  2.5921 -1.5641
  923TIP3    H2 2776   3.248   2.097   0.281 -0.1674 -0.7083  0.7218
  924TIP3   OH2 2777   3.730   3.091  -0.026  0.2510 -0.3586 -0.0660
  924TIP3    H1 2778   3.793   3.046   0.031 -0.1160 -1.1452 -0.2612
  924TIP3    H2 2779   3.696   3.163   0.027  0.4452 -0.6479  0.4566
  925TIP3   OH2 2780   4.681   1.914   0.054 -0.4105 -0.0521 -0.1220
  925TIP3    H1 2781   4.607   1.955   0.009 -0.1164  0.8318  0.1789
  925TIP3    H2 2782   4.748   1.982   0.056 -1.1614  0.7832  3.6052
  926TIP3   OH2 2783   3.982   1.524   3.338  0.3615  0.4080  0.0529
  926TIP3    H1 2784   3.992   1.608   3.291 -0.5740  0.9258  0.7432
  926TIP3    H2 2785   3.975   1.549   3.430  0.3354 -0.4612  0.2906
  927TIP3   OH2 2786   4.049   5.650   0.640  0.3261  0.3527 -0.0207
  927TIP3    H1 2787   4.104   5.615   0.710 -0.6380  0.3319  0.7425
  927TIP3    H2 2788   4.074   5.742   0.634 -0.9575  0.8777  1.7524
  928TIP3   OH2 2789   2.779   3.931   1.888 -0.0684 -0.1669  0.3973
  928TIP3    H1 2790   2.712   3.956   1.823  0.2383 -0.0543  0.1247
  928TIP3    H2 2791   2.831   4.010   1.901  2.1926 -1.1432 -2.0130
  929TIP3   OH2 2792   2.597   0.032   2.390 -0.1636  0.4924  0.2385
  929TIP3    H1 2793   2.547   0.112   2.403  1.1353  1.0475  2.2911
  929TIP3    H2 2794   2.652   0.050   2.314 -2.3400  0.1797 -1.5100
  930TIP3   OH2 2795   6.317   4.723   4.263 -0.0369 -0.8873 -0.1269
  930TIP3    H1 2796   6.374   4.776   4.318  2.4121 -1.5633 -1.8343
  930TIP3    H2 2797   6.229   4.753   4.284  1.0470  1.8937  0.9636
  931TIP3   OH2 2798   1.403   1.130   1.748  0.0320 -0.4539  0.1472
  931TIP3    H1 2799   1.350   1.175   1.684  1.0547  1.3205  0.4915
  931TIP3    H2 2800   1.365   1.042   1.753 -1.5319  0.1049 -1.1093
  932TIP3   OH2 2801   0.307   1.805   3.149 -0.1636 -0.2048  0.7135
  932TIP3    H1 2802   0.289   1.722   3.195 -0.0798 -1.1047 -0.8063
  932TIP3    H2 2803   0.394   1.793   3.112  0.0758  0.7976  0.9441
  933TIP3   OH2 2804   4.955   4.964   0.440 -0.4658 -0.3321  0.0529
  933TIP3    H1 2805   4.902   5.020   0.384  0.5688  0.8960  0.2562
  933TIP3    H2 2806   5.042   4.964   0.398 -0.7292 -2.8666 -0.6796
  934TIP3   OH2 2807   3.666   2.540   0.671 -0.2607 -0.5434 -0.5193
  934TIP3    H1 2808   3.619   2.533   0.754  0.1242  0.3358 -0.2142
  934TIP3    H2 2809   3.644   2.460   0.624 -0.6480 -0.9563  0.3454
  935TIP3   OH2 2810   5.098   2.887   0.839 -0.4191 -0.0838  0.7561
  935TIP3    H1 2811   5.083   2.827   0.766  0.8839 -0.5387  0.8284
  935TIP3    H2 2812   5.023   2.945   0.838 -1.1892 -1.0492  0.0127
  936TIP3   OH2 2813   2.826   3.269   0.959 -0.4646 -0.1619 -0.6358
  936TIP3    H1 2814   2.884   3.281   1.034 -0.7340  1.9768 -0.6991
  936TIP3    H2 2815   2.768   3.345   0.962 -1.7870 -1.0842 -1.8746
  937TIP3   OH2 2816   5.906   5.848   0.444 -0.6130  0.4726  0.2828
  937TIP3    H1 2817   5.963   5.922   0.425 -2.7025  1.6842 -1.8126
  937TIP3    H2 2818   5.965   5.774   0.453  1.4737  2.1466  1.3386
  938TIP3   OH2 2819   1.084   2.607   0.787 -0.4195  0.2831  0.3368
  938TIP3    H1 2820   1.149   2.676   0.776 -1.2347  1.0174  0.0138
  938TIP3    H2 2821   1.044   2.625   0.872 -0.6774  0.2512  0.2237
  939TIP3   OH2 2822   2.736   4.121   3.793 -0.8262  0.7305 -0.0175
  939TIP3    H1 2823   2.731   4.026   3.809 -0.2557  0.6233 -0.4542
  939TIP3    H2 2824   2.830   4.140   3.790 -0.9078  1.5882  1.6298
  940TIP3   OH2 2825   3.678   3.352   1.295 -0.1367  0.1972  0.1272
  940TIP3    H1 2826   3.673   3.263   1.260  0.8408  0.6872 -1.3678
  940TIP3    H2 2827   3.603   3.397   1.256 -0.3624  0.1491  0.5063
  941TIP3   OH2 2828   0.259   3.448   0.634  0.1669 -0.1364  0.1234
  941TIP3    H1 2829   0.343   3.495   0.642 -0.2209  0.3139  2.0589
  941TIP3    H2 2830   0.202   3.509   0.587  1.2138 -0.9484 -2.4070
  942TIP3   OH2 2831   5.976   2.003   4.525 -0.0743 -0.0393 -0.1515
  942TIP3    H1 2832   6.037   1.967   4.589 -0.0008 -0.9818 -0.7351
  942TIP3    H2 2833   5.989   2.098   4.531 -0.7046 -0.0172  1.8544
  943TIP3   OH2 2834   0.512   2.396   3.967  0.7837  0.2326 -0.3282
  943TIP3    H1 2835   0.459   2.384   3.888  0.4387  2.9629 -0.6142
  943TIP3    H2 2836   0.588   2.445   3.936  0.8621  0.9468  0.9605
  944TIP3   OH2 2837   2.410   3.005   0.541  0.0880  0.1043 -0.1537
  944TIP3    H1 2838   2.388   3.054   0.461 -1.1796 -0.9516 -0.4846
  944TIP3    H2 2839   2.449   3.071   0.599 -1.1449  1.4271 -0.7445
  945TIP3   OH2 2840   2.975   3.535   0.856 -0.3711  0.1422 -0.1315
  945TIP3    H1 2841   3.044   3.587   0.816 -1.9331  1.1018 -1.6801
  945TIP3    H2 2842   2.950   3.584   0.934 -1.1334  1.2193 -1.0313
  946TIP3   OH2 2843   1.771   4.587   4.806 -0.2178  0.5632  0.0611
  946TIP3    H1 2844   1.806   4.661   4.856  0.4988  0.5802 -0.4504
  946TIP3    H2 2845   1.837   4.518   4.817 -0.2094  0.4644 -0.5904
  947TIP3   OH2 2846   5.555   5.753   2.987 -0.4687 -0.0512  0.1832
  947TIP3    H1 2847   5.538   5.733   3.080  2.0437 -2.1460  0.3312
  947TIP3    H2 2848   5.643   5.791   2.987 -0.5623  0.2116 -1.3117
  948TIP3   OH2 2849   3.344   5.954   3.578  0.0105 -0.0211 -0.7585
  948TIP3    H1 2850   3.303   5.880   3.623  1.6828 -0.6675 -0.1859
  948TIP3    H2 2851   3.412   5.984   3.639 -0.9275  2.3188 -0.7789
  949TIP3   OH2 2852   2.740   5.549   3.308  0.0534  0.0980  0.4074
  949TIP3    H1 2853   2.720   5.589   3.223  0.4784  2.8643  1.4854
  949TIP3    H2 2854   2.817   5.597   3.339  0.1190 -1.0745  2.2125
  950TIP3   OH2 2855   2.145   5.730   4.048 -0.1703 -1.1392  0.1406
  950TIP3    H1 2856   2.187   5.679   3.978 -0.8212 -1.0760 -0.3037
  950TIP3    H2 2857   2.209   5.730   4.119  0.3193 -1.5847 -0.2898
  951TIP3   OH2 2858   6.083   3.460   4.924 -0.4574  0.3271  0.8596
  951TIP3    H1 2859   6.154   3.521   4.944  0.8089 -0.4676 -0.9409
  951TIP3    H2 2860   6.017   3.514   4.880  1.0177  0.3479 -1.4780
  952TIP3   OH2 2861   2.387   1.371   0.143  0.9498  0.4098  0.4137
  952TIP3    H1 2862   2.387   1.454   0.094  0.8430  0.0203 -0.2578
  952TIP3    H2 2863   2.334   1.389   0.221 -1.7826  0.1098 -1.2446
  953TIP3   OH2 2864   1.343   1.896   0.685 -0.0105  0.3711 -0.3903
  953TIP3    H1 2865   1.280   1.824   0.695 -0.0067  0.4759  0.5007
  953TIP3    H2 2866   1.311   1.946   0.610  0.2533 -0.8229 -1.3189
  954TIP3   OH2 2867   3.176   4.416   1.385  0.0608 -0.0540 -0.7158
  954TIP3    H1 2868   3.158   4.333   1.429 -0.0091 -0.8564 -2.1951
  954TIP3    H2 2869   3.259   4.401   1.340  0.7457  1.1509  0.0828
  955TIP3   OH2 2870   1.462   3.809   2.978 -0.1489  0.0743  0.1616
  955TIP3    H1 2871   1.403   3.743   3.014  0.1820 -0.1293  0.3368
  955TIP3    H2 2872   1.543   3.799   3.027 -0.3912  1.2442  0.8420
  956TIP3   OH2 2873   6.176   0.387   1.513 -0.9101  0.0441  0.6179
  956TIP3    H1 2874   6.194   0.294   1.531 -1.8577 -0.6043 -1.4661
  956TIP3    H2 2875   6.112   0.412   1.579 -1.5773 -1.1483  0.4550
  957TIP3   OH2 2876   5.657   4.033   3.700 -0.3222 -0.3044 -0.1451
  957TIP3    H1 2877   5.588   4.021   3.636  0.1033 -0.2123 -0.6258
  957TIP3    H2 2878   5.728   3.977   3.670 -0.5899 -1.2808  0.9636
  958TIP3   OH2 2879   3.262   0.137   1.507  0.6717 -0.1723  0.2272
  958TIP3    H1 2880   3.202   0.064   1.490 -0.5717  0.7474  0.4663
  958TIP3    H2 2881   3.308   0.113   1.587 -0.1223 -0.4767  0.6093
  959TIP3   OH2 2882   1.725   4.204   3.790  0.1136 -0.6874  0.0380
  959TIP3    H1 2883   1.660   4.183   3.857 -0.8910  1.6825 -0.0703
  959TIP3    H2 2884   1.690   4.168   3.709  0.0737 -1.3575  0.3466
  960TIP3   OH2 2885   4.174   3.625   2.264 -0.7032 -0.4730  0.2292
  960TIP3    H1 2886   4.234   3.688   2.304 -0.6465  0.3152 -1.0555
  960TIP3    H2 2887   4.095   3.675   2.246 -0.4184 -0.5739 -1.4243
  961TIP3   OH2 2888   3.497   2.823   4.386  0.2011  0.5852  0.4013
  961TIP3    H1 2889   3.502   2.892   4.452 -0.8701 -0.4332  1.6233
  961TIP3    H2 2890   3.507   2.742   4.436  1.4168 -0.1539 -0.9941
  962TIP3   OH2 2891   4.330   1.686   4.332 -0.3203  0.2573  0.0898
  962TIP3    H1 2892   4.300   1.720   4.248  0.9035  0.9203 -0.1042
  962TIP3    H2 2893   4.425   1.679   4.323 -0.0638  1.0811  1.6572
  963TIP3   OH2 2894   4.481   1.339   4.523  0.2589  0.6051  0.3464
  963TIP3    H1 2895   4.454   1.429   4.540 -0.1569  0.2486  1.7290
  963TIP3    H2 2896   4.576   1.341   4.533  0.2207  0.8292  0.6868
  964TIP3   OH2 2897   0.121   2.065   1.045  0.2539 -0.5657  0.1837
  964TIP3    H1 2898   0.146   2.002   0.976  0.2295 -0.2130 -0.1507
  964TIP3    H2 2899   0.032   2.040   1.069 -0.5519  0.5885 -1.4057
  965TIP3   OH2 2900   2.490   3.106   4.662  0.2775 -0.3946  0.0436
  965TIP3    H1 2901   2.529   3.142   4.741  0.7540 -0.7962 -0.0035
  965TIP3    H2 2902   2.396   3.117   4.674  0.3801  4.3505 -1.5611
  966TIP3   OH2 2903   4.385   4.689   2.923 -0.6294  0.4126 -0.7077
  966TIP3    H1 2904   4.324   4.652   2.986 -0.1216  0.7061 -0.0336
  966TIP3    H2 2905   4.375   4.634   2.845  2.8362 -3.8315  1.3972
  967TIP3   OH2 2906   2.775   1.990   1.361  0.1404 -0.0638 -0.1407
  967TIP3    H1 2907   2.762   2.022   1.451  1.2260 -1.1921  0.4465
  967TIP3    H2 2908   2.687   1.992   1.323 -0.1670  1.4827  0.5711
  968TIP3   OH2 2909   6.188   5.673   0.483  0.3767 -0.4129 -0.5570
  968TIP3    H1 2910   6.282   5.654   0.483  0.2074 -1.3123 -0.1436
  968TIP3    H2 2911   6.162   5.660   0.575  0.0329  0.8015 -0.4736
  969TIP3   OH2 2912   4.006   0.417   1.991  0.0184  0.1230  0.2654
  969TIP3    H1 2913   4.038   0.502   2.022 -0.5734  0.4340  0.0498
  969TIP3    H2 2914   3.948   0.386   2.060  0.9084 -0.5297  0.7427
  970TIP3   OH2 2915   5.586   3.039   3.511 -0.3580  0.3878  0.3706
  970TIP3    H1 2916   5.672   3.037   3.554 -0.0425  0.4929 -0.2434
  970TIP3    H2 2917   5.557   2.948   3.510  0.5154  0.1001 -0.9224
  971TIP3   OH2 2918   3.969   3.742   0.541 -0.0269  0.0446 -0.3044
  971TIP3    H1 2919   4.027   3.674   0.506 -0.5490  0.2688 -1.6771
  971TIP3    H2 2920   3.965   3.808   0.471 -3.3759 -0.8440 -1.1427
  972TIP3   OH2 2921   0.090   0.767   3.419  0.0643 -0.0178  0.4010
  972TIP3    H1 2922   0.184   0.750   3.414 -0.2254 -1.4237 -2.1028
  972TIP3    H2 2923   0.080   0.857   3.388  0.5572  0.0124  0.3157
  973TIP3   OH2 2924   5.376   0.121   4.061 -0.3753 -0.0705 -0.3990
  973TIP3    H1 2925   5.402   0.087   4.147 -0.3227  2.4101  0.6516
  973TIP3    H2 2926   5.301   0.178   4.080  1.1447  2.4872 -1.5367
  974TIP3   OH2 2927   2.865   2.068   0.549 -0.8689  0.5604 -0.0601
  974TIP3    H1 2928   2.789   2.081   0.493 -1.1152 -0.5552  0.0030
  974TIP3    H2 2929   2.846   1.989   0.599  0.1893  0.4524  0.2008
  975TIP3   OH2 2930   3.808   0.558   3.514 -0.2803  0.0131  0.1482
  975TIP3    H1 2931   3.721   0.539   3.478  0.3732  1.3654 -2.3292
  975TIP3    H2 2932   3.810   0.653   3.524  1.1270  0.0644 -0.4466
  976TIP3   OH2 2933   1.779   3.836   0.698 -0.1341  0.1878  0.3146
  976TIP3    H1 2934   1.862   3.791   0.713 -1.2845 -1.9087  0.7466
  976TIP3    H2 2935   1.792   3.881   0.614  1.3909 -0.1829  0.3142
  977TIP3   OH2 2936   0.360   1.622   0.959 -0.2690  0.2752 -0.0249
  977TIP3    H1 2937   0.361   1.717   0.947  0.5152  0.4586  1.3015
  977TIP3    H2 2938   0.451   1.596   0.948 -0.1744 -0.0617  1.3876
  978TIP3   OH2 2939   1.830   3.632   2.488  0.0735  0.6875 -0.0580
  978TIP3    H1 2940   1.817   3.711   2.541 -0.0331  0.1651  0.7130
  978TIP3    H2 2941   1.922   3.611   2.498  0.3138  1.2268 -1.0132
  979TIP3   OH2 2942   2.839   3.558   4.223 -0.5092 -0.0777  0.1983
  979TIP3    H1 2943   2.800   3.507   4.294 -0.9135  0.1423  0.1345
  979TIP3    H2 2944   2.767   3.575   4.163 -0.1590 -0.3009 -0.2894
  980TIP3   OH2 2945   0.221   4.969   2.997 -0.4652 -0.3540  0.0232
  980TIP3    H1 2946   0.144   5.018   3.023 -0.4282 -0.2800 -0.0084
  980TIP3    H2 2947   0.192   4.877   2.999 -0.8586 -0.2744 -0.9760
  981TIP3   OH2 2948   4.931   4.962   0.752 -0.6161 -0.0255  0.0333
  981TIP3    H1 2949   4.908   4.887   0.698 -2.0866  0.4700 -0.0715
  981TIP3    H2 2950   4.905   5.038   0.700  1.6032  0.6384 -0.2304
  982TIP3   OH2 2951   3.459   4.429   3.105  0.6620 -0.5675 -0.1618
  982TIP3    H1 2952   3.535   4.463   3.152 -0.0431 -1.3574  1.6317
  982TIP3    H2 2953   3.495   4.363   3.045  1.5750  0.4933 -0.8159
  983TIP3   OH2 2954   3.495   2.001   1.488  0.3636 -0.0637  0.6028
  983TIP3    H1 2955   3.453   2.049   1.417  0.7402 -2.0037 -1.0097
  983TIP3    H2 2956   3.587   1.997   1.463  0.4208 -1.1545  0.9753
  984TIP3   OH2 2957   1.633   4.379   0.921  0.1760 -0.1257 -0.6263
  984TIP3    H1 2958   1.547   4.391   0.961 -0.1768 -2.8790 -0.3780
  984TIP3    H2 2959   1.692   4.431   0.975 -1.1155  0.7760 -0.0261
  985TIP3   OH2 2960   0.530   0.839   2.346  0.0472  0.3413 -0.6895
  985TIP3    H1 2961   0.459   0.776   2.341 -0.2187  0.6509 -0.8657
  985TIP3    H2 2962   0.512   0.901   2.275  0.7678  0.1339 -1.0677
  986TIP3   OH2 2963   0.746   1.684   1.769  0.2582 -0.1988  0.4394
  986TIP3    H1 2964   0.784   1.769   1.793  0.9315 -0.9544  2.2322
  986TIP3    H2 2965   0.716   1.696   1.679 -2.1813  2.7937  1.4704
  987TIP3   OH2 2966   1.940   3.177   2.237  0.0428  0.0447  0.3192
  987TIP3    H1 2967   1.892   3.197   2.318  1.2144 -0.2855  1.1254
  987TIP3    H2 2968   1.950   3.261   2.194  1.4757  0.6543  1.7269
  988TIP3   OH2 2969   5.805   5.418   3.358  0.5306  0.2760 -0.1576
  988TIP3    H1 2970   5.713   5.442   3.372  0.5642 -0.0535  0.6904
  988TIP3    H2 2971   5.810   5.397   3.265 -0.2902  0.1539 -0.1842
  989TIP3   OH2 2972   2.157   3.961   3.888 -0.0213 -0.0111 -0.9091
  989TIP3    H1 2973   2.119   3.880   3.855 -0.2137 -0.4163  0.2732
  989TIP3    H2 2974   2.091   4.028   3.869 -0.2038 -0.2616 -1.1624
  990TIP3   OH2 2975   5.015  -0.003   1.169 -0.3800  0.5724  0.3355
  990TIP3    H1 2976   4.932  -0.014   1.215 -0.1362 -1.2521  0.4213
  990TIP3    H2 2977   5.074   0.034   1.236 -0.9154  1.2143  0.4675
  991TIP3   OH2 2978   5.965   5.577   3.516 -0.0212  0.4610  0.0737
  991TIP3    H1 2979   5.978   5.516   3.589 -2.2252  1.0261  0.9942
  991TIP3    H2 2980   5.900   5.534   3.461  0.1260  0.9669 -0.4938
  992TIP3   OH2 2981   1.856   4.821   4.913 -0.2740 -0.5503  0.1754
  992TIP3    H1 2982   1.951   4.828   4.920 -0.2131 -0.3576 -0.7802
  992TIP3    H2 2983   1.823   4.906   4.943 -0.2301 -1.0641  1.7770
  993TIP3   OH2 2984   5.278   2.638   1.316  0.3619  0.1268  0.0911
  993TIP3    H1 2985   5.208   2.676   1.263  0.0107  0.6453  0.9027
  993TIP3    H2 2986   5.300   2.706   1.379 -0.2946 -0.9729  1.5853
  994TIP3   OH2 2987   0.146   5.632   4.575 -0.4898 -0.2209 -0.0165
  994TIP3    H1 2988   0.107   5.582   4.504 -1.4072 -0.2048  0.4616
  994TIP3    H2 2989   0.195   5.702   4.532  0.3497 -1.1835 -0.6784
  995TIP3   OH2 2990   2.231   1.696   2.503  0.0113 -0.7215  0.0992
  995TIP3    H1 2991   2.289   1.627   2.534  0.1444 -1.4822 -1.7067
  995TIP3    H2 2992   2.143   1.662   2.515  0.0931 -2.2089 -2.7128
  996TIP3   OH2 2993   0.293   3.294   4.273  0.0070  0.1096 -0.2924
  996TIP3    H1 2994   0.314   3.388   4.277  0.1558  0.0680 -0.1198
  996TIP3    H2 2995   0.365   3.256   4.223  0.8088 -0.1663  1.0171
  997TIP3   OH2 2996   3.571   4.346   4.652 -0.3223 -0.0870  0.3270
  997TIP3    H1 2997   3.643   4.286   4.672  0.8538  1.6024  1.4478
  997TIP3    H2 2998   3.493   4.300   4.682  0.4370 -1.3319  0.4985
  998TIP3   OH2 2999   0.707   2.230   0.615  0.0818 -0.9189 -0.0159
  998TIP3    H1 3000   0.662   2.146   0.628 -0.1050 -1.1276 -1.7551
  998TIP3    H2 3001   0.661   2.290   0.673 -2.5618 -1.1141 -1.6910
  999TIP3   OH2 3002   4.680   2.364   2.519  0.0739 -0.0405 -0.0885
  999TIP3    H1 3003   4.689   2.404   2.606  2.0560  0.1762 -0.3445
  999TIP3    H2 3004   4.611   2.415   2.476 -0.2536  0.4751  1.0049
 1000TIP3   OH2 3005   5.715   1.514   1.060  0.2594 -0.7925  0.3297
 1000TIP3    H1 3006   5.651   1.533   1.129 -1.2172 -0.6124 -1.0389
 1000TIP3    H2 3007   5.800   1.533   1.100 -0.6689  1.2194  1.4775
 1001TIP3   OH2 3008   2.571   2.118   2.010  0.2308 -0.2211  0.4000
 1001TIP3    H1 3009   2.549   2.129   1.918 -0.7256 -0.0341  0.6322
 1001TIP3    H2 3010   2.665   2.102   2.011  0.1705 -0.7347 -0.6465
 1002TIP3   OH2 3011   2.072   3.016   2.848  0.0426  0.3881 -0.1581
 1002TIP3    H1 3012   1.989   3.059   2.868  1.1924  2.3440  0.6703
 1002TIP3    H2 3013   2.047   2.927   2.823 -2.3397  1.1190 -0.6260
 1003TIP3   OH2 3014   2.643   2.651   0.929  0.5068  0.4147 -0.2159
 1003TIP3    H1 3015   2.548   2.647   0.943  0.3976  0.6380 -0.8531
 1003TIP3    H2 3016   2.677   2.574   0.974  0.1666  1.0009  1.1112
 1004TIP3   OH2 3017   3.394   2.719   3.501 -0.2622  0.5827  0.0538
 1004TIP3    H1 3018   3.380   2.629   3.474  1.0009  0.1805  0.6544
 1004TIP3    H2 3019   3.307   2.759   3.500 -0.4736  0.2404 -3.2139
 1005TIP3   OH2 3020   6.254   4.359   4.021  0.3018  0.1017 -0.2997
 1005TIP3    H1 3021   6.260   4.450   3.993  0.8762  0.6053  1.3510
 1005TIP3    H2 3022   6.160   4.343   4.030  0.1553  0.2355 -1.4491
 1006TIP3   OH2 3023   4.362   4.821   0.907  0.2838 -0.3726  0.1864
 1006TIP3    H1 3024   4.351   4.745   0.964  3.3081 -0.2867  1.0495
 1006TIP3    H2 3025   4.384   4.893   0.965  0.4322  0.4510 -0.8532
 1007TIP3   OH2 3026   5.921   2.343   0.538 -0.1374 -0.0784  0.6512
 1007TIP3    H1 3027   5.893   2.432   0.557 -1.1957  0.2344 -1.9443
 1007TIP3    H2 3028   5.922   2.339   0.442  1.0679 -2.5040  0.7044
 1008TIP3   OH2 3029   5.507   0.173   0.788  0.1131 -1.0416  0.0747
 1008TIP3    H1 3030   5.438   0.111   0.809  1.1177 -1.5463  2.1117
 1008TIP3    H2 3031   5.493   0.247   0.848  0.2974 -0.3204 -0.7392
 1009TIP3   OH2 3032   5.614   2.844   2.283  0.6175  0.3127  0.0033
 1009TIP3    H1 3033   5.691   2.788   2.274 -0.0595 -0.4767 -1.3078
 1009TIP3    H2 3034   5.645   2.932   2.262  1.4811  0.2881  1.0763
 1010TIP3   OH2 3035   2.772   1.099   1.679  0.1576 -0.2822 -0.6773
 1010TIP3    H1 3036   2.747   1.185   1.644  0.2433 -0.2229 -0.5942
 1010TIP3    H2 3037   2.688   1.056   1.697  0.0876  0.3648  0.6976
 1011TIP3   OH2 3038   2.074   5.628   4.804 -0.1282  0.0227 -0.2467
 1011TIP3    H1 3039   2.144   5.678   4.761 -0.2368  0.2588 -0.1491
 1011TIP3    H2 3040   1.994   5.674   4.780 -0.4155 -1.0989 -1.6188
 1012TIP3   OH2 3041   5.038   1.984   4.069 -0.0861  0.3957  0.8648
 1012TIP3    H1 3042   5.124   1.977   4.112  1.2025 -1.2855 -1.7141
 1012TIP3    H2 3043   5.043   2.065   4.018  0.6908 -0.4816 -0.5390
 1013TIP3   OH2 3044   4.627   3.536   3.025  0.5497  0.4880  0.2343
 1013TIP3    H1 3045   4.685   3.480   2.973  0.2117 -1.7723  2.1271
 1013TIP3    H2 3046   4.684   3.603   3.061  1.0077  1.3548 -1.9489
 1014TIP3   OH2 3047   3.486   0.052   0.893  0.2363 -0.1303  0.3151
 1014TIP3    H1 3048   3.526  -0.009   0.830 -0.9474 -1.0216  0.3984
 1014TIP3    H2 3049   3.394   0.025   0.898 -0.3108  1.6084  0.4365
 1015TIP3   OH2 3050   0.077   3.664   3.626  0.5254 -0.1938  0.5401
 1015TIP3    H1 3051   0.076   3.569   3.642 -0.4184  0.1514  2.9902
 1015TIP3    H2 3052   0.169   3.684   3.611  0.9309 -1.3327  1.3173
 1016TIP3   OH2 3053   3.011   4.017   2.572  0.0035  0.4443 -0.3910
 1016TIP3    H1 3054   2.989   4.052   2.659 -0.7751  1.3468 -0.9386
 1016TIP3    H2 3055   3.096   4.056   2.551  1.6144 -1.9298  1.1083
 1017TIP3   OH2 3056   6.281   4.383   2.232 -0.3318 -0.2654 -0.3943
 1017TIP3    H1 3057   6.219   4.366   2.303  0.2637 -1.0820 -0.0554
 1017TIP3    H2 3058   6.238   4.449   2.178 -0.3956  1.0562  1.2151
 1018TIP3   OH2 3059   4.757   0.134   2.062  0.1239  0.7577 -0.1082
 1018TIP3    H1 3060   4.789   0.098   2.145 -2.0896 -0.1703  0.3978
 1018TIP3    H2 3061   4.826   0.195   2.035  1.2084  0.6014  2.0745
 1019TIP3   OH2 3062   5.778   0.133   4.417  0.7707  0.1193 -0.0830
 1019TIP3    H1 3063   5.849   0.076   4.388  0.8378 -0.6539  1.5075
 1019TIP3    H2 3064   5.744   0.091   4.496 -0.5481  1.2080 -0.0360
 1020TIP3   OH2 3065   1.100   5.930   2.496 -0.2885  0.3006 -0.8641
 1020TIP3    H1 3066   1.032   5.995   2.514  0.6080  0.7997  1.0271
 1020TIP3    H2 3067   1.173   5.955   2.553  0.1503 -2.2661 -0.1387
 1021TIP3   OH2 3068   4.372   4.559   0.564 -0.5164  0.1882  0.2107
 1021TIP3    H1 3069   4.356   4.488   0.626 -1.5202 -0.1449 -0.3895
 1021TIP3    H2 3070   4.284   4.586   0.536 -0.0974  0.5318 -0.8287
 1022TIP3   OH2 3071   3.537   5.267   4.863 -0.4480  0.3037  0.1400
 1022TIP3    H1 3072   3.494   5.197   4.814 -1.0984  1.5255 -1.0949
 1022TIP3    H2 3073   3.610   5.294   4.807  1.8919 -1.5048  2.0380
 1023TIP3   OH2 3074   5.439   3.653   3.769  0.3674 -0.2408  0.0811
 1023TIP3    H1 3075   5.463   3.622   3.856 -0.7175  1.8839  1.2104
 1023TIP3    H2 3076   5.514   3.630   3.714  1.7574 -0.2777  1.8917
 1024TIP3   OH2 3077   6.217   4.389   4.966  0.5698  0.1067 -0.5817
 1024TIP3    H1 3078   6.301   4.344   4.974  0.1816 -0.3541  1.3021
 1024TIP3    H2 3079   6.211   4.445   5.043 -0.9056  0.0259 -0.6014
 1025TIP3   OH2 3080   4.794   1.603   3.862 -0.3307 -0.5944 -0.1323
 1025TIP3    H1 3081   4.771   1.693   3.886  1.9533 -0.1605  0.7045
 1025TIP3    H2 3082   4.764   1.594   3.772 -1.1026  0.8135 -0.0444
 1026TIP3   OH2 3083   5.712   0.238   5.026 -0.1609 -0.2337  0.4058
 1026TIP3    H1 3084   5.710   0.161   4.969 -0.7038 -0.2716  0.4708
 1026TIP3    H2 3085   5.742   0.309   4.968  0.5232 -0.5275  0.3939
 1027TIP3   OH2 3086   3.073   1.256   1.861  0.3376 -0.0823 -0.0291
 1027TIP3    H1 3087   3.095   1.188   1.798 -1.2704  0.0403 -0.7955
 1027TIP3    H2 3088   3.111   1.226   1.944  1.1320 -1.0364 -0.7188
 1028TIP3   OH2 3089   3.018   3.748   2.433  0.5707 -0.4255  0.3294
 1028TIP3    H1 3090   2.989   3.822   2.486 -2.2162 -0.3965 -1.0433
 1028TIP3    H2 3091   3.075   3.787   2.367  1.2704  0.0566  1.1970
 1029TIP3   OH2 3092   2.909   5.267   2.518  0.2118  0.2768  0.2979
 1029TIP3    H1 3093   2.905   5.341   2.458  0.8946 -0.9792 -1.3753
 1029TIP3    H2 3094   2.921   5.307   2.604 -1.4622  2.1527 -0.2650
 1030TIP3   OH2 3095   1.384   4.175   4.645  0.2935 -0.4920  0.4153
 1030TIP3    H1 3096   1.310   4.218   4.687  0.2823  0.3944 -0.4601
 1030TIP3    H2 3097   1.351   4.152   4.558  1.4086  1.1676 -0.5160
 1031TIP3   OH2 3098   4.684   1.441   4.791 -0.6869  0.6406 -0.1377
 1031TIP3    H1 3099   4.618   1.505   4.818 -0.1337  2.8416 -3.3344
 1031TIP3    H2 3100   4.645   1.397   4.716  0.2822 -0.2890 -0.1091
 1032TIP3   OH2 3101   0.680   2.657   4.171  0.4829  0.1575  0.0861
 1032TIP3    H1 3102   0.630   2.600   4.229 -1.3416  0.7525 -0.8402
 1032TIP3    H2 3103   0.686   2.740   4.217  0.0150  0.2887 -0.0845
 1033TIP3   OH2 3104   2.395   3.972   2.009 -0.0907 -0.2650  0.0662
 1033TIP3    H1 3105   2.307   4.007   2.026 -0.7495 -1.4224 -0.8405
 1033TIP3    H2 3106   2.413   3.915   2.084 -0.8009 -1.2880 -0.5307
 1034TIP3   OH2 3107   5.267   4.809   3.579 -0.4901  0.6197 -0.0593
 1034TIP3    H1 3108   5.181   4.815   3.538 -0.9744 -1.9139  0.4228
 1034TIP3    H2 3109   5.252   4.758   3.659  1.1852  1.6732  0.9885
 1035TIP3   OH2 3110   3.439   3.605   0.922  0.2253 -0.2490  0.1995
 1035TIP3    H1 3111   3.495   3.556   0.862  1.0258  0.7446  0.0917
 1035TIP3    H2 3112   3.501   3.657   0.974 -0.5170 -0.3160  1.1811
 1036TIP3   OH2 3113   4.906   1.003   1.325 -0.0536  0.4734  0.4359
 1036TIP3    H1 3114   4.898   1.081   1.270 -3.8324 -1.0901 -1.6120
 1036TIP3    H2 3115   4.898   1.035   1.415  1.3136  2.6478 -0.1495
 1037TIP3   OH2 3116   0.111   5.287   2.709 -0.3348  0.4212  0.3522
 1037TIP3    H1 3117   0.096   5.350   2.638 -2.2616  0.5355  0.8251
 1037TIP3    H2 3118   0.077   5.330   2.787 -1.2828 -1.0147  0.7689
 1038TIP3   OH2 3119   6.217   4.174   2.675  0.0724 -0.2044 -0.2630
 1038TIP3    H1 3120   6.243   4.159   2.584  1.6354 -2.1457  0.4428
 1038TIP3    H2 3121   6.169   4.257   2.672  1.6723  0.7483 -2.5599
 1039TIP3   OH2 3122   5.741   2.599   1.002 -0.2607 -0.3401  0.1783
 1039TIP3    H1 3123   5.693   2.658   1.060  0.1270  0.9461 -0.7431
 1039TIP3    H2 3124   5.830   2.635   1.000 -0.1265 -0.6958 -0.7514
 1040TIP3   OH2 3125   0.953   2.734   0.396  0.0853 -0.5063  0.0336
 1040TIP3    H1 3126   1.018   2.773   0.454 -0.1821  1.3477 -0.8369
 1040TIP3    H2 3127   0.986   2.646   0.378  1.3492 -0.2826  1.1229
 1041TIP3   OH2 3128   0.470   5.118   2.017  0.0109 -0.6462  0.0214
 1041TIP3    H1 3129   0.408   5.166   1.962 -1.0273 -1.9087  0.0296
 1041TIP3    H2 3130   0.482   5.174   2.094  0.0729  0.3115 -0.6640
 1042TIP3   OH2 3131   0.570   5.812   3.559 -0.2225 -0.0308 -0.2631
 1042TIP3    H1 3132   0.570   5.750   3.487 -0.0647 -0.4643  0.1093
 1042TIP3    H2 3133   0.485   5.856   3.553 -0.2768 -0.1805 -0.6071
 1043TIP3   OH2 3134   2.576   1.330   1.758  0.3264  0.6131  0.1330
 1043TIP3    H1 3135   2.560   1.397   1.691  0.4541  1.1917  0.6697
 1043TIP3    H2 3136   2.672   1.326   1.764  0.3836 -0.9088 -1.1576
 1044TIP3   OH2 3137   4.792   1.642   1.008 -0.2100  0.1907 -0.0529
 1044TIP3    H1 3138   4.855   1.571   1.015  1.3868  1.4716 -0.5449
 1044TIP3    H2 3139   4.724   1.621   1.071 -0.0704 -2.0166 -0.5737
 1045TIP3   OH2 3140   1.162   0.826   2.374  0.2152  0.9865 -0.2171
 1045TIP3    H1 3141   1.115   0.863   2.448  0.1060 -2.3022  1.5270
 1045TIP3    H2 3142   1.122   0.740   2.360  3.6331 -0.7172 -0.6262
 1046TIP3   OH2 3143   5.728   3.595   4.412  0.3037  0.0473  0.2148
 1046TIP3    H1 3144   5.714   3.527   4.346 -1.7490 -0.1085  0.7732
 1046TIP3    H2 3145   5.712   3.677   4.365  2.3742  0.1915 -0.3496
 1047TIP3   OH2 3146   3.003   1.278   4.944  0.1315  0.0572 -0.4927
 1047TIP3    H1 3147   2.952   1.358   4.932  1.5122  0.9662 -0.4819
 1047TIP3    H2 3148   3.075   1.286   4.882 -0.0056 -1.4384 -0.8644
 1048TIP3   OH2 3149   1.380   0.051   4.334  0.0692 -0.7218 -0.1048
 1048TIP3    H1 3150   1.332   0.034   4.253  0.8349 -1.1508 -0.4858
 1048TIP3    H2 3151   1.429  -0.030   4.350 -1.7882 -1.5334  2.0310
 1049TIP3   OH2 3152   0.405   0.322   1.084 -0.2143 -0.3007  0.6456
 1049TIP3    H1 3153   0.388   0.403   1.036 -1.3499  0.0992  1.6515
 1049TIP3    H2 3154   0.453   0.350   1.162  0.3273 -0.7462  0.4787
 1050TIP3   OH2 3155   0.997   5.066   3.576  0.1642  0.1468 -0.4967
 1050TIP3    H1 3156   0.997   4.973   3.595 -1.4026 -0.2977 -2.4352
 1050TIP3    H2 3157   1.013   5.108   3.661  1.9074 -1.8656  0.2389
 1051TIP3   OH2 3158   5.998   0.246   2.111 -0.5141  0.4109  0.1604
 1051TIP3    H1 3159   5.980   0.333   2.077  1.2621  0.3484 -1.0692
 1051TIP3    H2 3160   6.007   0.258   2.206  1.0701  1.8616 -0.1176
 1052TIP3   OH2 3161   2.998   5.349   5.074 -0.5225  0.4770  0.0150
 1052TIP3    H1 3162   3.032   5.439   5.077 -1.1334  0.7096  0.2089
 1052TIP3    H2 3163   2.929   5.352   5.008 -1.1047  0.3518  0.6072
 1053TIP3   OH2 3164   3.134   4.950   0.728 -0.2496 -0.6115  0.0984
 1053TIP3    H1 3165   3.148   5.019   0.663  0.8764 -0.7392  0.1759
 1053TIP3    H2 3166   3.144   4.995   0.812  1.6346 -1.0410  0.1507
 1054TIP3   OH2 3167   5.810   0.443   4.876 -0.2857  0.2201  0.1992
 1054TIP3    H1 3168   5.776   0.526   4.911 -0.7114  0.3787 -0.5806
 1054TIP3    H2 3169   5.895   0.466   4.839 -0.6512  0.4331 -0.5260
 1055TIP3   OH2 3170   4.241   5.071   0.945 -0.2107  0.4238  0.3671
 1055TIP3    H1 3171   4.229   5.152   0.994  1.7260 -0.4108  2.4289
 1055TIP3    H2 3172   4.219   5.002   1.008  2.8826 -0.7154  0.3970
 1056TIP3   OH2 3173   0.045   5.467   4.103 -0.1255 -0.6585 -0.0740
 1056TIP3    H1 3174   0.063   5.463   4.197 -1.3193  1.1866  0.2777
 1056TIP3    H2 3175   0.132   5.478   4.062  0.3482 -0.8718  0.8578
 1057TIP3   OH2 3176   3.339   2.304   3.138 -0.5265 -0.0912 -0.3574
 1057TIP3    H1 3177   3.361   2.268   3.052  0.9983 -0.1924  0.0383
 1057TIP3    H2 3178   3.410   2.365   3.157 -0.7983 -0.1336  0.8603
 1058TIP3   OH2 3179   3.981   2.154   3.123 -0.1668 -0.6525  0.2364
 1058TIP3    H1 3180   3.988   2.147   3.028  1.3609 -1.2968  0.3681
 1058TIP3    H2 3181   4.070   2.139   3.155 -0.1185  1.9533  1.6448
 1059TIP3   OH2 3182   5.486   5.012   0.246 -0.3906 -0.1052 -0.3149
 1059TIP3    H1 3183   5.443   5.097   0.256  2.6575  1.5163  0.1281
 1059TIP3    H2 3184   5.462   4.983   0.158  1.1010  2.9123 -1.8776
 1060TIP3   OH2 3185   1.163   4.864   0.309 -0.0811  0.3922  0.1809
 1060TIP3    H1 3186   1.254   4.894   0.310 -0.2474  1.2458 -2.4511
 1060TIP3    H2 3187   1.116   4.929   0.362  0.3757  1.9291 -1.2080
 1061TIP3   OH2 3188   2.836   1.403   1.754 -0.6878 -0.3792 -0.0845
 1061TIP3    H1 3189   2.911   1.363   1.799 -0.3883  0.3590  0.1043
 1061TIP3    H2 3190   2.873   1.439   1.674 -0.9814 -0.6100 -0.3245
 1062TIP3   OH2 3191   1.882   1.956   0.285  0.2368  0.1114 -0.5440
 1062TIP3    H1 3192   1.968   1.929   0.254  1.0536  1.1359  0.7077
 1062TIP3    H2 3193   1.894   1.973   0.378 -1.8203 -1.6841  0.1371
 1063TIP3   OH2 3194   0.753   0.720   2.779  0.4725  0.3988 -0.7440
 1063TIP3    H1 3195   0.722   0.634   2.809  1.8390 -0.0692 -0.5918
 1063TIP3    H2 3196   0.721   0.727   2.689 -1.8015  0.8595  0.0202
 1064TIP3   OH2 3197   5.057   1.622   4.181 -0.1706  0.5659 -0.3653
 1064TIP3    H1 3198   4.995   1.552   4.159 -2.0997  2.0321  0.1117
 1064TIP3    H2 3199   5.099   1.593   4.261 -0.1189 -0.5438 -0.7809
 1065TIP3   OH2 3200   1.141   4.735   1.083 -0.0977  0.6182 -0.5919
 1065TIP3    H1 3201   1.136   4.665   1.017  1.3029  0.2978 -0.3952
 1065TIP3    H2 3202   1.174   4.691   1.161 -0.1063  1.3266 -0.1826
 1066TIP3   OH2 3203   0.231   2.315   2.270 -0.0900 -0.0925 -0.5822
 1066TIP3    H1 3204   0.222   2.398   2.224 -1.0749  0.6591  0.9025
 1066TIP3    H2 3205   0.280   2.336   2.349 -1.6506 -0.5988  0.5613
 1067TIP3   OH2 3206   1.896   5.641   0.451  0.4016 -0.3339 -0.0215
 1067TIP3    H1 3207   1.952   5.688   0.389  1.3987  0.4423  1.4084
 1067TIP3    H2 3208   1.950   5.629   0.529 -0.8811 -1.0755  0.8059
 1068TIP3   OH2 3209   2.340   4.293   1.604 -0.1317 -0.2624 -0.2500
 1068TIP3    H1 3210   2.286   4.370   1.623 -0.5777 -0.4965 -0.5508
 1068TIP3    H2 3211   2.277   4.224   1.585  0.2665 -0.2604 -1.7234
 1069TIP3   OH2 3212   3.704   4.240   4.399  0.7020  0.2049  0.2842
 1069TIP3    H1 3213   3.625   4.199   4.363  0.4113  0.8525  0.1807
 1069TIP3    H2 3214   3.683   4.333   4.405  1.3967  0.3598  0.4261
 1070TIP3   OH2 3215   0.949   4.506   3.350 -0.5038 -0.0121 -0.1889
 1070TIP3    H1 3216   0.981   4.494   3.261 -1.4605  0.9838 -0.6907
 1070TIP3    H2 3217   0.856   4.526   3.341 -0.8253 -0.7623  1.1021
 1071TIP3   OH2 3218   0.538   0.502   2.340  0.0445  0.1586  0.1926
 1071TIP3    H1 3219   0.469   0.454   2.295  0.0907  0.9098 -0.7216
 1071TIP3    H2 3220   0.616   0.488   2.285  0.4586 -0.1200  0.8433
 1072TIP3   OH2 3221   4.067   5.309   3.609 -0.0290  0.2181  0.2527
 1072TIP3    H1 3222   4.137   5.306   3.674  0.3347  1.9949 -0.0021
 1072TIP3    H2 3223   4.051   5.402   3.595  0.2524 -0.0665 -2.5322
 1073TIP3   OH2 3224   5.206   0.705   3.446 -0.0823  0.0209  0.3241
 1073TIP3    H1 3225   5.124   0.754   3.450  0.2252  0.8682 -2.0503
 1073TIP3    H2 3226   5.270   0.760   3.490 -0.1639  0.8020 -0.5244
 1074TIP3   OH2 3227   1.951   2.217   1.619  0.6089 -0.6647  0.0820
 1074TIP3    H1 3228   1.888   2.185   1.554  0.6294  2.0266 -1.3949
 1074TIP3    H2 3229   1.896   2.248   1.691  0.5003 -2.1257  0.6532
 1075TIP3   OH2 3230   3.398   4.376   3.710 -0.2112  0.1086 -0.4570
 1075TIP3    H1 3231   3.488   4.360   3.682  0.4305 -3.6216  2.8400
 1075TIP3    H2 3232   3.345   4.317   3.655 -0.1845 -0.2293 -0.1217
 1076TIP3   OH2 3233   2.477   4.817   3.336 -0.0736  0.4254 -0.0875
 1076TIP3    H1 3234   2.506   4.733   3.372  0.5061 -0.1818 -1.8160
 1076TIP3    H2 3235   2.547   4.878   3.359  1.7638 -0.5814 -2.4897
 1077TIP3   OH2 3236   3.741   4.157   2.548  0.2246  0.3435 -0.5540
 1077TIP3    H1 3237   3.658   4.199   2.570 -1.2873 -2.1641 -1.0248
 1077TIP3    H2 3238   3.766   4.196   2.464 -0.4418  1.1983 -0.3646
 1078TIP3   OH2 3239   4.086   0.692   1.997 -0.6504 -0.1640 -0.1303
 1078TIP3    H1 3240   4.000   0.695   1.954 -0.9618 -0.6736  0.4403
 1078TIP3    H2 3241   4.111   0.784   2.007 -0.0526 -0.0218 -2.3874
 1079TIP3   OH2 3242   5.518   2.118   2.778 -0.0552 -0.5913  0.1487
 1079TIP3    H1 3243   5.560   2.090   2.697  0.2757  2.3376 -0.8339
 1079TIP3    H2 3244   5.427   2.089   2.770 -0.0458 -0.2837 -1.3517
 1080TIP3   OH2 3245   5.246   2.165   0.184  0.0571 -0.1236  0.3888
 1080TIP3    H1 3246   5.290   2.083   0.160  0.0303  0.2446 -0.9988
 1080TIP3    H2 3247   5.312   2.214   0.232 -0.3337 -1.4753  2.4666
 1081TIP3   OH2 3248   2.177   4.219   1.268  0.1753  0.1384 -0.4733
 1081TIP3    H1 3249   2.134   4.302   1.287  0.2762 -0.3267  2.2277
 1081TIP3    H2 3250   2.110   4.153   1.282  0.3428 -0.3253 -1.6952
 1082TIP3   OH2 3251   0.222   0.653   1.528  0.7018  0.2001 -0.4074
 1082TIP3    H1 3252   0.199   0.728   1.582  0.6389 -0.7255  0.8912
 1082TIP3    H2 3253   0.276   0.690   1.458  2.9937  1.1518  1.6913
 1083TIP3   OH2 3254   1.168   1.257   3.687 -0.2614 -0.1222  0.0697
 1083TIP3    H1 3255   1.168   1.172   3.644  2.3522 -0.0860 -0.1742
 1083TIP3    H2 3256   1.253   1.262   3.731  0.4234  2.9973 -1.2988
 1084TIP3   OH2 3257   0.765   0.090   2.122 -0.2752  0.3189  0.5383
 1084TIP3    H1 3258   0.741   0.097   2.215  1.8748 -0.0651  1.1805
 1084TIP3    H2 3259   0.838   0.151   2.112 -1.7456  1.9113 -1.4498
 1085TIP3   OH2 3260   1.665   2.235   2.359  0.3286  0.3663  0.3465
 1085TIP3    H1 3261   1.746   2.219   2.407  1.3126  1.2553 -0.9382
 1085TIP3    H2 3262   1.694   2.264   2.272 -1.3692 -1.0576 -0.7658
 1086TIP3   OH2 3263   2.589   5.271   2.788  0.1705  0.3542 -0.3937
 1086TIP3    H1 3264   2.590   5.296   2.880 -3.4456  1.1558 -0.4398
 1086TIP3    H2 3265   2.610   5.352   2.741 -1.8037  0.9707 -0.2955
 1087TIP3   OH2 3266   6.133   1.631   4.517 -0.7418  0.9818  0.2920
 1087TIP3    H1 3267   6.137   1.697   4.586 -1.7849  1.9438 -0.5247
 1087TIP3    H2 3268   6.199   1.659   4.453  0.2766  0.0513  0.9018
 1088TIP3   OH2 3269   5.681   4.524   1.337  0.3900 -0.4181  0.2711
 1088TIP3    H1 3270   5.654   4.458   1.401  0.4784 -1.6372 -0.9067
 1088TIP3    H2 3271   5.600   4.549   1.293  0.7244 -1.9939 -1.3324
 1089TIP3   OH2 3272   0.561   1.605   2.681  0.1684 -0.7754  0.0713
 1089TIP3    H1 3273   0.609   1.556   2.748  0.4937  0.7481  1.0053
 1089TIP3    H2 3274   0.564   1.549   2.603 -1.1718 -3.1141  1.5821
 1090TIP3   OH2 3275   6.280   1.822   2.990  0.3401  0.1092 -0.3221
 1090TIP3    H1 3276   6.228   1.818   3.070 -0.1343  0.4187 -0.6058
 1090TIP3    H2 3277   6.248   1.901   2.946  1.9008  1.0134  0.0810
 1091TIP3   OH2 3278   3.378   0.331   0.918  0.4570 -0.3837 -0.0180
 1091TIP3    H1 3279   3.441   0.260   0.929  1.1525  0.4667  2.2379
 1091TIP3    H2 3280   3.417   0.389   0.853  1.7588 -0.1934  0.8882
 1092TIP3   OH2 3281   4.029   0.920   4.523 -0.1928  0.3053 -0.3914
 1092TIP3    H1 3282   4.108   0.872   4.546  0.4901  0.4575 -2.2536
 1092TIP3    H2 3283   4.058   1.010   4.509 -0.5814  0.2791 -1.5122
 1093TIP3   OH2 3284   0.536   3.519   3.502 -0.5581  0.0506  0.5757
 1093TIP3    H1 3285   0.546   3.524   3.407  0.8572 -1.1037  0.6156
 1093TIP3    H2 3286   0.619   3.552   3.536 -1.0338  0.3996  1.4062
 1094TIP3   OH2 3287   4.536   4.011   3.391 -0.5732  0.3869 -0.5750
 1094TIP3    H1 3288   4.486   3.946   3.342 -0.7524  1.4717 -1.8768
 1094TIP3    H2 3289   4.525   3.986   3.483  0.2738 -2.0578 -1.0809
 1095TIP3   OH2 3290   5.521   0.870   1.872 -0.3818 -0.5362  0.0674
 1095TIP3    H1 3291   5.597   0.838   1.824 -1.0080 -1.0112 -0.6297
 1095TIP3    H2 3292   5.447   0.822   1.835 -0.8966 -0.8657  1.4445
 1096TIP3   OH2 3293   2.958   5.909   5.061 -0.9572 -0.3034  0.4794
 1096TIP3    H1 3294   2.880   5.959   5.040 -0.2002  1.1366  0.9713
 1096TIP3    H2 3295   2.931   5.817   5.051 -2.7070  0.1508  0.6923
 1097TIP3   OH2 3296   6.013   0.045   0.619 -0.2101  0.0412  0.6870
 1097TIP3    H1 3297   6.089  -0.011   0.629  0.0252  0.7173  3.2038
 1097TIP3    H2 3298   6.044   0.133   0.640 -1.2718  0.6582 -0.1540
 1098TIP3   OH2 3299   1.019   2.726   2.936  0.1344  0.2918  0.2901
 1098TIP3    H1 3300   1.023   2.631   2.947  0.5359  0.4551  1.8996
 1098TIP3    H2 3301   1.111   2.754   2.939 -0.0136  0.7715  0.3458
 1099TIP3   OH2 3302   0.978   2.021   4.585  1.2075  0.1304 -0.0610
 1099TIP3    H1 3303   0.958   2.105   4.627  0.3238  0.7439 -1.6031
 1099TIP3    H2 3304   1.037   2.044   4.513 -0.6296 -0.2109 -1.7686
 1100TIP3   OH2 3305   3.630   5.894   4.022  0.0039  0.3856 -0.0181
 1100TIP3    H1 3306   3.646   5.980   4.061 -0.5607  0.0431  1.0104
 1100TIP3    H2 3307   3.704   5.879   3.964  0.3760  1.3369  0.2007
 1101TIP3   OH2 3308   1.955   1.385   4.059 -0.9144  0.1901  0.0432
 1101TIP3    H1 3309   2.010   1.342   4.124 -0.2350 -0.5091 -0.9565
 1101TIP3    H2 3310   1.945   1.475   4.090 -0.8814 -0.2208  1.2666
 1102TIP3   OH2 3311   1.696   2.459   4.289 -0.6115 -0.1184  0.2147
 1102TIP3    H1 3312   1.746   2.524   4.339 -0.1513  0.5309 -1.0428
 1102TIP3    H2 3313   1.679   2.389   4.352 -0.2622  0.7712  1.3387
 1103TIP3   OH2 3314   5.544   1.599   1.801  0.4606 -0.1027  0.0851
 1103TIP3    H1 3315   5.636   1.587   1.824  0.4607  1.3968  1.0138
 1103TIP3    H2 3316   5.504   1.514   1.817  1.6343 -0.6960 -0.0773
 1104TIP3   OH2 3317   2.133   2.479   5.187  0.0934 -0.1024  0.2461
 1104TIP3    H1 3318   2.192   2.541   5.145  1.2814 -0.5459  1.2050
 1104TIP3    H2 3319   2.053   2.482   5.134  1.8012 -1.3258 -2.6123
 1105TIP3   OH2 3320   3.402   5.254   3.153 -0.1808 -0.1998  0.4457
 1105TIP3    H1 3321   3.307   5.262   3.140 -0.4395  0.5607  2.3857
 1105TIP3    H2 3322   3.436   5.341   3.134 -0.1263  0.0006  1.4141
 1106TIP3   OH2 3323   6.191   2.235   0.547  0.2126 -0.5651 -0.0120
 1106TIP3    H1 3324   6.175   2.164   0.485  0.1832 -1.7632  1.3393
 1106TIP3    H2 3325   6.109   2.286   0.547 -0.2178 -1.2490 -0.0690
 1107TIP3   OH2 3326   3.176   1.066   2.909  0.3415 -0.4352  0.1362
 1107TIP3    H1 3327   3.191   1.152   2.949  1.7877 -0.1426 -0.9164
 1107TIP3    H2 3328   3.243   1.010   2.947  0.8333 -0.5055 -0.7952
 1108TIP3   OH2 3329   2.254   1.368   2.493 -0.1568 -0.4082  0.1035
 1108TIP3    H1 3330   2.322   1.306   2.468  0.6048  0.3253  0.2828
 1108TIP3    H2 3331   2.301   1.438   2.537 -1.1423 -0.3045  1.0336
 1109TIP3   OH2 3332   5.962   3.653   4.570  0.4181 -0.0119 -0.0694
 1109TIP3    H1 3333   6.043   3.630   4.524  0.2641 -2.2212  0.6684
 1109TIP3    H2 3334   5.892   3.617   4.516 -0.0006  0.5633  0.0734
 1110TIP3   OH2 3335   3.544   2.584   3.703 -0.2983 -0.2526  0.7055
 1110TIP3    H1 3336   3.569   2.653   3.641 -0.2190  1.0418  2.1129
 1110TIP3    H2 3337   3.473   2.623   3.754 -2.3115 -2.3001 -0.3650
 1111TIP3   OH2 3338   6.275   5.353   3.223 -0.1942 -0.8041 -1.1976
 1111TIP3    H1 3339   6.235   5.348   3.310 -2.4917  0.1590 -2.1104
 1111TIP3    H2 3340   6.366   5.375   3.240 -1.1097  1.9335  0.9693
 1112TIP3   OH2 3341   4.877   3.470   0.872  0.4839 -0.1565  0.1368
 1112TIP3    H1 3342   4.923   3.390   0.898 -0.3080 -0.9505 -0.8270
 1112TIP3    H2 3343   4.874   3.466   0.777  0.9190  1.3176  0.0345
 1113TIP3   OH2 3344   1.139   1.936   4.947  0.2449 -0.1711 -0.1197
 1113TIP3    H1 3345   1.131   1.891   5.031  1.3483 -0.4290 -0.1276
 1113TIP3    H2 3346   1.221   1.986   4.955  0.5565 -0.4884 -1.1633
 1114TIP3   OH2 3347   0.449   4.175   5.009 -0.4391 -0.7043  0.3764
 1114TIP3    H1 3348   0.466   4.210   5.096 -0.2553  1.6264 -0.5160
 1114TIP3    H2 3349   0.534   4.147   4.976  0.1298  1.5726 -0.2707
 1115TIP3   OH2 3350   0.120   2.728   2.681  0.3912  0.1742  0.4666
 1115TIP3    H1 3351   0.102   2.662   2.615 -1.7542  1.8861 -0.8189
 1115TIP3    H2 3352   0.068   2.701   2.757 -0.0442  0.0757  0.1410
 1116TIP3   OH2 3353   4.293   5.846   0.455 -0.1902 -0.4043  0.2200
 1116TIP3    H1 3354   4.370   5.800   0.487 -1.2453 -2.5783 -0.1812
 1116TIP3    H2 3355   4.307   5.852   0.360 -0.8885 -1.6372  0.0186
 1117TIP3   OH2 3356   5.926   5.500   4.411 -0.0652 -0.2078 -0.2286
 1117TIP3    H1 3357   5.977   5.556   4.469  1.1124 -0.4278 -1.0348
 1117TIP3    H2 3358   5.896   5.428   4.468 -0.1914  0.3516  0.4274
 1118TIP3   OH2 3359   3.180   4.185   1.581 -0.0841  0.3231 -0.1983
 1118TIP3    H1 3360   3.109   4.200   1.642 -1.2376  3.4569 -2.0512
 1118TIP3    H2 3361   3.260   4.193   1.633 -1.0474  0.3940  1.3026
 1119TIP3   OH2 3362   4.568   4.167   3.836  0.0446  0.2780  0.4952
 1119TIP3    H1 3363   4.600   4.217   3.761 -0.0757 -0.5567 -0.1282
 1119TIP3    H2 3364   4.581   4.225   3.911 -0.5595  1.4422 -0.2701
 1120TIP3   OH2 3365   4.372   2.493   4.181  0.1438  0.2867 -0.2401
 1120TIP3    H1 3366   4.277   2.486   4.187  0.0937  0.3650 -0.8736
 1120TIP3    H2 3367   4.390   2.586   4.193  0.1991  0.1836  0.5354
 1121TIP3   OH2 3368   1.941   0.769   0.708  0.2907  0.5712  0.1616
 1121TIP3    H1 3369   2.036   0.768   0.712  0.3238 -1.0096 -0.2874
 1121TIP3    H2 3370   1.913   0.710   0.778 -0.2266 -1.2706 -1.5128
 1122TIP3   OH2 3371   4.947   3.927   0.714 -0.0654  0.0764 -0.4438
 1122TIP3    H1 3372   5.027   3.877   0.727 -0.9416 -1.5159 -0.9491
 1122TIP3    H2 3373   4.976   4.018   0.709  1.7009 -0.4659 -0.6395
 1123TIP3   OH2 3374   5.372   2.880   2.011  0.1946 -0.4895  0.6584
 1123TIP3    H1 3375   5.345   2.896   1.921  0.3827 -0.1428  0.6612
 1123TIP3    H2 3376   5.293   2.848   2.055  0.0754 -0.5512  0.3976
 1124TIP3   OH2 3377   5.732   3.160   2.814 -0.4177  0.1201 -0.7529
 1124TIP3    H1 3378   5.779   3.158   2.730  0.7712  1.2842 -0.1465
 1124TIP3    H2 3379   5.785   3.217   2.870 -2.7072  1.7456 -0.1100
 1125TIP3   OH2 3380   3.291   3.011   0.495 -0.6951  0.3399 -0.1859
 1125TIP3    H1 3381   3.222   2.981   0.554  0.6375 -0.4094  1.0461
 1125TIP3    H2 3382   3.253   3.001   0.407 -2.3955  0.6455  0.4717
 1126TIP3   OH2 3383   3.885   0.245   3.989  0.1885 -0.2172 -0.2137
 1126TIP3    H1 3384   3.940   0.276   4.061  0.4100  1.9562 -1.2380
 1126TIP3    H2 3385   3.935   0.266   3.910 -1.0472 -0.4345 -1.0905
 1127TIP3   OH2 3386   4.809   0.549   2.356  0.1018 -0.4522  0.6653
 1127TIP3    H1 3387   4.868   0.473   2.346  0.0676 -0.2923 -0.9948
 1127TIP3    H2 3388   4.826   0.603   2.279 -0.2516  0.9911  1.5671
 1128TIP3   OH2 3389   1.182   5.723   3.108  0.3705  0.2369 -0.2387
 1128TIP3    H1 3390   1.272   5.730   3.139  0.4814 -0.3102 -0.4217
 1128TIP3    H2 3391   1.137   5.796   3.149  0.2295 -1.1336  2.2619
 1129TIP3   OH2 3392   0.098   0.421   3.988  0.1232  0.4019 -0.1673
 1129TIP3    H1 3393   0.121   0.472   4.066  0.7455  0.0837 -0.1311
 1129TIP3    H2 3394   0.064   0.486   3.926  0.3300  0.7678  0.0963
 1130TIP3   OH2 3395   4.376   4.359   2.304  0.0024 -0.1754 -0.7043
 1130TIP3    H1 3396   4.419   4.428   2.254 -0.8255 -0.0401 -1.2464
 1130TIP3    H2 3397   4.345   4.296   2.239  2.0119 -1.8424 -0.1420
 1131TIP3   OH2 3398   3.789   5.122   2.487 -0.4210 -0.3043  0.2082
 1131TIP3    H1 3399   3.768   5.048   2.430 -0.6821 -0.4476  0.4884
 1131TIP3    H2 3400   3.865   5.094   2.537 -0.1106 -0.1285 -0.1615
 1132TIP3   OH2 3401   4.872   0.809   2.449  0.0321  0.0974  0.1848
 1132TIP3    H1 3402   4.826   0.725   2.444 -4.3328  2.2810 -0.9520
 1132TIP3    H2 3403   4.868   0.845   2.360  1.3888  1.7680  0.7247
 1133TIP3   OH2 3404   4.796   4.924   1.601  0.3930 -0.2662  0.0256
 1133TIP3    H1 3405   4.725   4.905   1.541  0.8851 -0.4698 -0.5048
 1133TIP3    H2 3406   4.754   4.936   1.686 -0.3819  0.6505 -0.4741
 1134TIP3   OH2 3407   3.833   5.560   4.211 -0.1756  0.5208 -0.1599
 1134TIP3    H1 3408   3.871   5.565   4.299  0.6921 -0.1500 -0.4853
 1134TIP3    H2 3409   3.750   5.513   4.223  0.0396  0.2425  0.2691
 1135TIP3   OH2 3410   0.674   4.590   2.495  0.5362  0.1465 -0.0933
 1135TIP3    H1 3411   0.600   4.647   2.514 -0.5530 -1.1154 -0.3646
 1135TIP3    H2 3412   0.654   4.508   2.541  0.6803 -0.9647 -1.8873
 1136TIP3   OH2 3413   4.032   1.787   3.842 -0.4867 -0.1325 -0.5707
 1136TIP3    H1 3414   4.121   1.751   3.849 -0.0436  0.4206 -2.6638
 1136TIP3    H2 3415   4.036   1.868   3.893 -0.2604 -0.8776  0.6345
 1137TIP3   OH2 3416   1.713   3.280   3.210  0.4496  0.0469  0.2108
 1137TIP3    H1 3417   1.731   3.246   3.122  0.3420  0.2269  0.1198
 1137TIP3    H2 3418   1.684   3.203   3.260 -0.7828  0.1868 -0.2667
 1138TIP3   OH2 3419   1.470   1.770   0.877  0.1239  0.0595  0.2668
 1138TIP3    H1 3420   1.445   1.828   0.804  1.6559  0.4791  0.0300
 1138TIP3    H2 3421   1.481   1.684   0.837 -1.1552 -0.2099  0.4334
 1139TIP3   OH2 3422   2.446   5.045   1.955 -0.3550 -0.3575  1.2782
 1139TIP3    H1 3423   2.438   5.090   2.039 -1.5361  0.7841  0.6017
 1139TIP3    H2 3424   2.395   5.098   1.895  1.1678 -0.6607 -0.3765
 1140TIP3   OH2 3425   5.411   1.592   5.140  0.2033 -0.0713  0.7875
 1140TIP3    H1 3426   5.407   1.611   5.234  0.5677  0.6716  0.6617
 1140TIP3    H2 3427   5.476   1.653   5.106 -1.4410  1.1707 -0.2961
 1141TIP3   OH2 3428   4.633   3.974   4.260  0.1085 -0.0609 -0.3981
 1141TIP3    H1 3429   4.641   4.064   4.227  1.6253 -0.1766 -0.4054
 1141TIP3    H2 3430   4.590   3.926   4.189 -0.8461  0.6762 -0.3369
 1142TIP3   OH2 3431   4.326   0.976   3.794  0.0041 -0.3447 -0.2707
 1142TIP3    H1 3432   4.325   0.977   3.890  0.6110 -0.8083 -0.2590
 1142TIP3    H2 3433   4.374   0.897   3.771  0.3012  0.0344 -0.9591
 1143TIP3   OH2 3434   1.255   1.331   4.691  0.2690  0.4808  0.0029
 1143TIP3    H1 3435   1.179   1.274   4.703  1.5798 -1.9150 -2.1852
 1143TIP3    H2 3436   1.311   1.314   4.766 -0.0500  0.0335  0.1432
 1144TIP3   OH2 3437   1.971   4.393   4.850  0.3534  0.1922  0.2690
 1144TIP3    H1 3438   2.016   4.325   4.800  1.6367  1.3213 -0.1705
 1144TIP3    H2 3439   1.930   4.346   4.922  1.7735 -0.9805  0.3631
 1145TIP3   OH2 3440   4.019   0.051   1.175 -0.1082 -0.2184 -0.0894
 1145TIP3    H1 3441   3.938   0.017   1.213 -1.7762  1.7093 -1.6781
 1145TIP3    H2 3442   4.063   0.095   1.248 -0.1832 -1.7158  0.9097
 1146TIP3   OH2 3443   4.839   2.205   1.751  0.0941  0.0609  0.2476
 1146TIP3    H1 3444   4.811   2.113   1.752 -0.5379  0.2521  0.9501
 1146TIP3    H2 3445   4.858   2.223   1.659  0.8692 -0.9596  0.1886
 1147TIP3   OH2 3446   1.743   5.530   2.693 -0.2500 -0.3888  0.0157
 1147TIP3    H1 3447   1.712   5.503   2.606  0.2798  0.1486 -0.3462
 1147TIP3    H2 3448   1.763   5.623   2.684 -2.9945  0.4553  1.5198
 1148TIP3   OH2 3449   1.604   3.361   0.071 -0.5732  0.2574  0.1900
 1148TIP3    H1 3450   1.592   3.318   0.155 -0.6278 -0.6854 -0.2944
 1148TIP3    H2 3451   1.625   3.291   0.010  1.8104  1.1602 -0.1377
 1149TIP3   OH2 3452   2.107   2.064   1.254  0.4117 -0.2085  0.0379
 1149TIP3    H1 3453   2.105   2.014   1.336 -0.8538 -0.7784 -0.3240
 1149TIP3    H2 3454   2.019   2.056   1.219  1.0457 -0.3242 -1.6019
 1150TIP3   OH2 3455   5.847   4.812   2.694  0.4580 -0.6295 -0.0864
 1150TIP3    H1 3456   5.758   4.841   2.709  0.8314  1.2284 -1.1431
 1150TIP3    H2 3457   5.838   4.722   2.663 -1.0426 -0.4752 -0.1608
 1151TIP3   OH2 3458   2.210   5.051   0.128  0.0090  0.1214  0.4299
 1151TIP3    H1 3459   2.192   4.973   0.180  1.3325  0.3207  1.2393
 1151TIP3    H2 3460   2.172   5.123   0.179 -2.0179 -0.0361 -0.7544
 1152TIP3   OH2 3461   4.215   4.336   1.620  0.1606  0.3451  0.1404
 1152TIP3    H1 3462   4.198   4.430   1.615 -1.7217  0.1202  1.3750
 1152TIP3    H2 3463   4.135   4.296   1.587  1.7907 -0.8909 -2.6231
 1153TIP3   OH2 3464   0.053   5.247   0.355  0.1192 -1.0029  0.0369
 1153TIP3    H1 3465   0.071   5.199   0.274 -1.3154 -1.8239  0.1639
 1153TIP3    H2 3466   0.129   5.230   0.410  1.4336  0.1233 -1.3467
 1154TIP3   OH2 3467   4.322   3.996   2.376  0.3355 -0.1017 -0.5483
 1154TIP3    H1 3468   4.247   4.046   2.343  0.8015  1.3933  0.5270
 1154TIP3    H2 3469   4.320   4.011   2.470  1.4184 -0.8677 -0.3926
 1155TIP3   OH2 3470   5.676   2.557   5.145 -0.3611 -0.3851 -0.0965
 1155TIP3    H1 3471   5.736   2.532   5.075 -0.0518 -1.2270  0.4505
 1155TIP3    H2 3472   5.590   2.563   5.102 -0.6510 -3.3747 -0.1344
 1156TIP3   OH2 3473   5.645   3.969   2.829 -0.9202 -0.0824 -0.3694
 1156TIP3    H1 3474   5.715   3.904   2.821 -0.2635  0.6666 -0.8010
 1156TIP3    H2 3475   5.653   4.023   2.751 -0.0694  1.8566  0.9762
 1157TIP3   OH2 3476   5.330   3.490   2.370  0.0043  0.1517 -0.3619
 1157TIP3    H1 3477   5.393   3.420   2.390 -0.7346 -1.4249 -3.0662
 1157TIP3    H2 3478   5.247   3.445   2.356 -0.5781  1.5639 -1.8402
 1158TIP3   OH2 3479   0.859   4.214   2.747  0.0617  0.2948 -0.0745
 1158TIP3    H1 3480   0.907   4.285   2.705 -0.7319  0.5038 -0.6578
 1158TIP3    H2 3481   0.769   4.223   2.714  0.4169 -2.4042 -2.0505
 1159TIP3   OH2 3482   5.700   4.310   3.685  0.3388  0.1836  0.4304
 1159TIP3    H1 3483   5.787   4.335   3.716  0.8640  0.8905 -1.4823
 1159TIP3    H2 3484   5.705   4.215   3.673  1.5345  0.4304 -1.4996
 1160TIP3   OH2 3485   1.533   3.247   0.549  0.2182 -0.1522  0.1202
 1160TIP3    H1 3486   1.569   3.238   0.461 -0.4835 -4.5419  0.0958
 1160TIP3    H2 3487   1.603   3.218   0.607 -0.4555 -0.5662  0.7424
 1161TIP3   OH2 3488   5.055   1.186   3.129 -0.9847  0.2176  0.2121
 1161TIP3    H1 3489   4.983   1.125   3.114  0.2590 -1.0253 -0.9786
 1161TIP3    H2 3490   5.107   1.184   3.049  1.9292 -1.1306  1.9324
 1162TIP3   OH2 3491   1.321   5.430   1.036 -0.2496 -0.0118  0.4741
 1162TIP3    H1 3492   1.240   5.419   1.085 -0.1117 -0.0556  0.6930
 1162TIP3    H2 3493   1.346   5.340   1.011  1.2057 -0.3398  2.7915
 1163TIP3   OH2 3494   5.841   2.815   3.834 -0.3633 -0.2853  1.0198
 1163TIP3    H1 3495   5.923   2.843   3.874 -0.7652  0.4098  1.3728
 1163TIP3    H2 3496   5.855   2.723   3.813  0.9627  0.1329 -0.0874
 1164TIP3   OH2 3497   2.661   4.294   4.653  0.1363  0.1033 -0.5450
 1164TIP3    H1 3498   2.673   4.354   4.580 -2.5698 -0.6998 -1.7842
 1164TIP3    H2 3499   2.631   4.349   4.725 -1.5665  0.3861 -1.4348
 1165TIP3   OH2 3500   3.597   3.372   3.826  0.0827  0.2020  0.0493
 1165TIP3    H1 3501   3.578   3.447   3.769  0.3151  0.4441  0.2873
 1165TIP3    H2 3502   3.577   3.296   3.772 -2.0683  0.4209  0.4304
 1166TIP3   OH2 3503   0.749   0.245   3.674  0.1947 -0.1606  0.1378
 1166TIP3    H1 3504   0.708   0.260   3.589  1.0756 -0.7191 -0.4025
 1166TIP3    H2 3505   0.676   0.227   3.734 -0.4126  0.0024 -0.5493
 1167TIP3   OH2 3506   4.755   3.715   1.639  0.2642  0.4970 -0.0811
 1167TIP3    H1 3507   4.704   3.643   1.602 -0.4840  0.9024  0.1341
 1167TIP3    H2 3508   4.724   3.792   1.592 -0.2716  0.9341  0.9445
 1168TIP3   OH2 3509   4.676   1.034   3.605 -0.4260 -0.1728  0.0599
 1168TIP3    H1 3510   4.694   1.014   3.696 -1.5056  1.5520  0.6940
 1168TIP3    H2 3511   4.745   1.096   3.580  0.2710 -1.1659 -0.5188
 1169TIP3   OH2 3512   1.752   5.959   0.130 -0.7949 -1.0908 -0.9683
 1169TIP3    H1 3513   1.671   5.912   0.112 -1.6390 -0.7185  1.4232
 1169TIP3    H2 3514   1.738   5.997   0.217  1.2843  0.4544 -1.2367
 1170TIP3   OH2 3515   4.961   1.946   3.230 -0.8112  0.1460  0.0130
 1170TIP3    H1 3516   4.927   1.985   3.311  0.2724 -1.0033  1.0806
 1170TIP3    H2 3517   4.910   1.865   3.219  0.9853 -1.2354  1.2498
 1171TIP3   OH2 3518   3.470   3.484   5.156 -0.0189 -0.0600  0.4468
 1171TIP3    H1 3519   3.383   3.473   5.117  0.4960 -1.4737 -0.4065
 1171TIP3    H2 3520   3.514   3.401   5.138  2.3354  1.4448 -1.3020
 1172TIP3   OH2 3521   4.591   5.759   3.264  0.1698 -0.3022 -0.3744
 1172TIP3    H1 3522   4.623   5.704   3.192 -1.7213  0.8166 -2.1971
 1172TIP3    H2 3523   4.501   5.781   3.239 -0.2764  0.8363  1.9562
 1173TIP3   OH2 3524   4.713   3.278   2.473  0.1854 -0.0894  0.3336
 1173TIP3    H1 3525   4.633   3.256   2.425  0.3621 -0.9858  0.4379
 1173TIP3    H2 3526   4.758   3.342   2.418 -1.3649  1.6849  1.0076
 1174TIP3   OH2 3527   2.842   1.436   0.050  0.7448 -0.3735  0.2728
 1174TIP3    H1 3528   2.916   1.468   0.104  0.1207  0.2055  0.8078
 1174TIP3    H2 3529   2.768   1.490   0.077  0.3910 -0.1218 -1.1328
 1175TIP3   OH2 3530   2.536   3.457   0.649  0.4624 -0.1767  0.3251
 1175TIP3    H1 3531   2.559   3.547   0.675  0.4499  0.4214 -1.5600
 1175TIP3    H2 3532   2.612   3.426   0.601  0.7088 -1.4480  1.4861
 1176TIP3   OH2 3533   0.313   5.529   2.053 -0.4491  0.0793 -0.0163
 1176TIP3    H1 3534   0.369   5.504   1.979 -0.7707  0.6044 -0.4501
 1176TIP3    H2 3535   0.370   5.581   2.109 -0.5757  0.9041 -0.6287
 1177TIP3   OH2 3536   5.943   0.043   5.124 -0.1117  0.3570  0.1053
 1177TIP3    H1 3537   5.941  -0.053   5.127  0.1906  0.3706  1.7771
 1177TIP3    H2 3538   5.888   0.066   5.050 -1.2173 -1.0799  0.4450
 1178TIP3   OH2 3539   5.048   4.654   3.027 -0.1619  0.3976  0.2081
 1178TIP3    H1 3540   4.978   4.588   3.023 -0.1525 -0.0641  4.0589
 1178TIP3    H2 3541   5.126   4.608   2.996 -0.9168 -0.0116 -1.2121
 1179TIP3   OH2 3542   1.561   4.697   1.400  0.2900  0.1389  0.3550
 1179TIP3    H1 3543   1.483   4.736   1.360 -0.3039 -2.0077 -0.7707
 1179TIP3    H2 3544   1.552   4.714   1.493 -1.1604  0.5555  0.1646
 1180TIP3   OH2 3545   3.707   5.354   3.500  0.3323 -0.4654 -0.2132
 1180TIP3    H1 3546   3.620   5.328   3.471 -0.1541 -1.1271  1.6823
 1180TIP3    H2 3547   3.703   5.349   3.595  1.3028  3.1737  0.1598
 1181TIP3   OH2 3548   6.216   3.472   0.326  0.1516 -0.5674 -0.2992
 1181TIP3    H1 3549   6.132   3.427   0.314  0.9681 -1.9414 -1.1511
 1181TIP3    H2 3550   6.248   3.440   0.410 -0.0509 -0.2532 -0.1019
 1182TIP3   OH2 3551   2.874   4.721   4.952 -0.6761  1.4299 -0.2225
 1182TIP3    H1 3552   2.880   4.678   4.867 -0.7983 -0.2962  0.6120
 1182TIP3    H2 3553   2.965   4.729   4.981 -0.7774 -1.2682  1.0365
 1183TIP3   OH2 3554   3.615   5.783   4.282  0.3685 -0.1802 -0.4271
 1183TIP3    H1 3555   3.632   5.867   4.325 -1.2636 -0.1078  0.1471
 1183TIP3    H2 3556   3.680   5.778   4.212  1.3569  0.9333  0.3779
 1184TIP3   OH2 3557   4.818   1.001   3.130  0.3434 -0.3572  0.1545
 1184TIP3    H1 3558   4.747   1.003   3.194 -2.0447  1.8114 -2.3123
 1184TIP3    H2 3559   4.802   0.922   3.078  0.8271 -0.8192  0.7008
 1185TIP3   OH2 3560   5.017   0.519   4.827  0.5793 -0.4076 -0.2263
 1185TIP3    H1 3561   5.079   0.467   4.878 -0.2861 -0.3745  0.8886
 1185TIP3    H2 3562   4.985   0.585   4.887 -0.9818 -0.7948 -0.5859
 1186TIP3   OH2 3563   2.911   2.709   4.891 -0.4028 -0.1745 -0.3182
 1186TIP3    H1 3564   2.941   2.697   4.801 -1.6180 -2.1099 -0.5434
 1186TIP3    H2 3565   2.939   2.630   4.936 -1.8426 -0.3301  0.3733
 1187TIP3   OH2 3566   4.840   3.922   2.283 -0.6882 -0.2376 -0.0562
 1187TIP3    H1 3567   4.868   3.910   2.374 -1.4980 -0.6397  0.1524
 1187TIP3    H2 3568   4.744   3.929   2.289 -0.6710  0.8833 -0.7598
 1188TIP3   OH2 3569   3.373   3.001   3.708  0.6227  0.3194 -0.5251
 1188TIP3    H1 3570   3.411   2.944   3.774 -0.7084  0.5569  0.4971
 1188TIP3    H2 3571   3.286   2.965   3.692  0.1598  1.4500 -0.6329
 1189TIP3   OH2 3572   1.421   0.446   1.739  0.6587  0.3275 -0.1601
 1189TIP3    H1 3573   1.348   0.502   1.714 -0.5432 -1.1174 -0.0431
 1189TIP3    H2 3574   1.420   0.375   1.674  1.3798 -0.1949  0.3828
 1190TIP3   OH2 3575   4.685   5.817   1.039 -0.1034  0.1581 -0.0248
 1190TIP3    H1 3576   4.763   5.789   0.992 -1.1994  0.3544 -2.1019
 1190TIP3    H2 3577   4.697   5.911   1.053  0.2884  0.0722  0.2280
 1191TIP3   OH2 3578   3.605   4.971   0.877  0.1051 -0.2203  0.6353
 1191TIP3    H1 3579   3.554   4.892   0.897  0.8591 -0.5336  1.3472
 1191TIP3    H2 3580   3.597   5.025   0.955  0.5662 -0.1043  0.6014
 1192TIP3   OH2 3581   3.126   2.544   1.089  0.1681  0.3430  0.2386
 1192TIP3    H1 3582   3.110   2.570   0.998 -2.4552  0.5688  0.6891
 1192TIP3    H2 3583   3.115   2.625   1.139 -2.6207 -0.4431  1.1000
 1193TIP3   OH2 3584   0.151   2.012   1.928  0.5909  0.1171  0.1081
 1193TIP3    H1 3585   0.155   2.079   1.860 -2.3170  1.6837  1.2987
 1193TIP3    H2 3586   0.181   2.056   2.007  0.5968 -0.6139  0.5218
 1194TIP3   OH2 3587   3.945   0.330   0.393  1.0851 -0.1385 -0.1123
 1194TIP3    H1 3588   3.966   0.263   0.458  0.1045  0.7017  1.1156
 1194TIP3    H2 3589   4.030   0.361   0.363  1.6081 -2.7051 -1.6007
 1195TIP3   OH2 3590   1.343   4.118   4.338  0.2399  0.7495 -0.9706
 1195TIP3    H1 3591   1.272   4.179   4.358 -1.7916 -1.1706 -1.9107
 1195TIP3    H2 3592   1.395   4.161   4.270 -0.2433  2.0193 -0.5485
 1196TIP3   OH2 3593   0.344   4.195  -0.022 -0.6015 -0.3367  0.4697
 1196TIP3    H1 3594   0.400   4.201   0.056 -0.4848  1.1769  0.3029
 1196TIP3    H2 3595   0.259   4.227   0.008 -0.1197  1.9106 -0.3913
 1197TIP3   OH2 3596   1.897   2.257   0.736 -0.5251  0.5688 -0.0392
 1197TIP3    H1 3597   1.974   2.203   0.751 -0.1734  0.8860 -0.6771
 1197TIP3    H2 3598   1.872   2.288   0.823 -0.3142 -0.0444  0.2452
 1198TIP3   OH2 3599   1.614   0.633   4.814  0.0049  0.0751  0.7769
 1198TIP3    H1 3600   1.561   0.611   4.890  0.1644  0.5625  1.0289
 1198TIP3    H2 3601   1.704   0.613   4.841  0.1009  0.5907  0.8461
 1199TIP3   OH2 3602   1.047   0.597   2.010  0.2871 -0.0134  0.4458
 1199TIP3    H1 3603   1.114   0.530   1.994 -1.5293 -1.8727  0.0764
 1199TIP3    H2 3604   1.043   0.647   1.928 -0.2575 -1.3394 -0.3787
 1200TIP3   OH2 3605   1.162   2.706   1.894 -0.4220 -0.5398  0.7733
 1200TIP3    H1 3606   1.250   2.670   1.899 -0.2410 -0.1709  0.3255
 1200TIP3    H2 3607   1.173   2.800   1.909 -0.5488 -0.2685 -0.6927
 1201TIP3   OH2 3608   3.609   2.392   4.376 -0.0190 -0.4241  0.4654
 1201TIP3    H1 3609   3.595   2.485   4.387 -0.1613 -0.3339 -0.4061
 1201TIP3    H2 3610   3.604   2.356   4.465  2.0933  0.6656  1.1002
 1202TIP3   OH2 3611   2.482   5.634   1.302 -0.1987 -0.6578  0.1739
 1202TIP3    H1 3612   2.559   5.621   1.247  0.1700 -1.1917  0.8107
 1202TIP3    H2 3613   2.433   5.705   1.258  1.9755  1.6118  1.1901
 1203TIP3   OH2 3614   4.243   0.654   0.650 -0.0413  0.4739  0.1814
 1203TIP3    H1 3615   4.170   0.632   0.592 -0.2854 -1.2888  1.0939
 1203TIP3    H2 3616   4.229   0.601   0.728  1.9604  0.4516  0.5789
 1204TIP3   OH2 3617   2.952   4.508   4.085 -0.0689  0.1459  0.4677
 1204TIP3    H1 3618   3.027   4.449   4.081  0.3009  0.6163  0.2413
 1204TIP3    H2 3619   2.894   4.478   4.016  1.4595  1.7955 -1.7008
 1205TIP3   OH2 3620   3.250   3.713   1.507 -0.4269 -0.1780 -0.5256
 1205TIP3    H1 3621   3.296   3.657   1.444  1.7985  0.0927  0.7726
 1205TIP3    H2 3622   3.253   3.800   1.468 -0.5720 -0.3007 -0.8166
 1206TIP3   OH2 3623   4.102   1.603   2.137  0.0146  0.4015  0.1360
 1206TIP3    H1 3624   4.076   1.530   2.193 -0.7571 -2.0269 -3.0669
 1206TIP3    H2 3625   4.025   1.620   2.082  0.7281  2.5887 -0.3212
 1207TIP3   OH2 3626   2.183   3.497   2.442  0.3284  0.1481  0.0669
 1207TIP3    H1 3627   2.162   3.559   2.512  2.9452  0.3244  0.8181
 1207TIP3    H2 3628   2.174   3.411   2.483  0.8827  0.2184  0.3553
 1208TIP3   OH2 3629   5.384   4.831   4.450  0.1771  0.3656  0.0274
 1208TIP3    H1 3630   5.307   4.775   4.458 -2.0741  3.4098  1.8505
 1208TIP3    H2 3631   5.380   4.866   4.361 -1.2759  1.3570  0.4513
 1209TIP3   OH2 3632   4.723   1.375   4.185  0.0246 -0.0611 -0.1786
 1209TIP3    H1 3633   4.749   1.342   4.100 -1.0462  0.2424 -0.6373
 1209TIP3    H2 3634   4.772   1.322   4.248  1.9622  0.6861 -0.9784
 1210TIP3   OH2 3635   0.107   1.461   1.507  0.0198  0.1507 -0.1509
 1210TIP3    H1 3636   0.116   1.470   1.412 -0.1226 -1.6467 -0.3716
 1210TIP3    H2 3637   0.047   1.532   1.532  0.1882  0.7460 -1.3674
 1211TIP3   OH2 3638   0.187   4.327   2.959 -0.5544 -0.1146  0.3491
 1211TIP3    H1 3639   0.272   4.287   2.976 -0.0738  0.5969 -0.3172
 1211TIP3    H2 3640   0.144   4.331   3.044  0.0580 -0.5109  0.6822
 1212TIP3   OH2 3641   2.268   1.012   2.796  0.1426  0.1744 -0.0448
 1212TIP3    H1 3642   2.184   1.053   2.815 -0.1531 -0.2573 -0.3969
 1212TIP3    H2 3643   2.325   1.085   2.770  0.5420  0.7818  2.3061
 1213TIP3   OH2 3644   1.105   3.469   0.258  0.0767  0.2394 -0.2337
 1213TIP3    H1 3645   1.195   3.494   0.237  0.1468  0.3247  0.1636
 1213TIP3    H2 3646   1.113   3.410   0.333 -0.1394 -0.4186 -0.7127
 1214TIP3   OH2 3647   3.123   2.869   2.577 -0.2386  0.1716  0.7356
 1214TIP3    H1 3648   3.138   2.954   2.619  0.7508  0.0868  0.5783
 1214TIP3    H2 3649   3.083   2.816   2.645 -0.2626  0.5714  1.0403
 1215TIP3   OH2 3650   5.525   5.951   4.079  0.1087  0.3755 -0.6816
 1215TIP3    H1 3651   5.480   5.869   4.098 -0.2629  0.9003  0.9482
 1215TIP3    H2 3652   5.542   5.949   3.985 -2.0774 -0.4692 -1.1203
 1216TIP3   OH2 3653   3.117   2.070   4.042  0.4514 -0.3019 -0.0774
 1216TIP3    H1 3654   3.154   2.014   4.110 -1.3756  0.2755  1.4804
 1216TIP3    H2 3655   3.193   2.102   3.994  1.6549 -2.4754  0.2739
 1217TIP3   OH2 3656   3.762   5.374   3.092 -0.1827  0.2394 -0.2541
 1217TIP3    H1 3657   3.828   5.427   3.047  1.4030 -2.0582 -0.7849
 1217TIP3    H2 3658   3.798   5.358   3.179 -0.3273 -0.4907 -0.3215
 1218TIP3   OH2 3659   3.020   5.211   4.777  0.1932  0.2660 -0.6902
 1218TIP3    H1 3660   2.928   5.202   4.802  0.7302  0.9566  1.8976
 1218TIP3    H2 3661   3.068   5.170   4.849  1.9469  0.9612 -1.4043
 1219TIP3   OH2 3662   0.651   4.533   3.747 -0.3040 -0.0721 -0.0129
 1219TIP3    H1 3663   0.727   4.496   3.792  0.4686 -0.4113 -1.5030
 1219TIP3    H2 3664   0.619   4.462   3.692 -0.3254  0.7152 -1.0447
 1220TIP3   OH2 3665   4.740   4.618   4.977  0.1374  0.0231 -0.7554
 1220TIP3    H1 3666   4.808   4.645   4.916  1.5390 -0.6110  0.4787
 1220TIP3    H2 3667   4.734   4.523   4.966 -0.3907  0.0431 -0.6788
 1221TIP3   OH2 3668   2.138   4.409   4.213 -0.0154  0.3052  0.1211
 1221TIP3    H1 3669   2.208   4.357   4.172  0.2064  0.6255  0.0922
 1221TIP3    H2 3670   2.167   4.499   4.204 -1.5302  0.6435 -1.9711
 1222TIP3   OH2 3671   3.309   5.595   0.065  0.2777 -0.0352  0.0786
 1222TIP3    H1 3672   3.309   5.690   0.073 -0.7606 -0.0597  0.4743
 1222TIP3    H2 3673   3.387   5.567   0.114  0.8693  0.6243 -0.4523
 1223TIP3   OH2 3674   4.295   0.706   1.827  0.1064 -0.0708 -0.4392
 1223TIP3    H1 3675   4.299   0.647   1.751  2.4483 -1.5895  0.7203
 1223TIP3    H2 3676   4.226   0.670   1.882  0.1439 -0.5380 -0.6888
 1224TIP3   OH2 3677   4.754   2.325   1.013  0.8061 -0.0523 -0.4148
 1224TIP3    H1 3678   4.698   2.291   1.082  2.3395 -0.9801  0.4272
 1224TIP3    H2 3679   4.748   2.259   0.943  0.2275  0.2662 -0.6757
 1225TIP3   OH2 3680   1.959   2.958   3.555 -0.4981 -0.1411 -0.1091
 1225TIP3    H1 3681   1.975   2.952   3.649 -1.2737 -0.4517  0.0049
 1225TIP3    H2 3682   1.988   3.046   3.531 -0.2051 -0.0963  0.3939
 1226TIP3   OH2 3683   3.483   5.186   4.095  0.1948  0.1627 -0.1941
 1226TIP3    H1 3684   3.432   5.114   4.133 -1.7104  1.4338 -0.1803
 1226TIP3    H2 3685   3.417   5.245   4.058  1.7629  1.2651 -1.3587
 1227TIP3   OH2 3686   3.093   0.726   2.982  0.0234  0.0357 -0.0027
 1227TIP3    H1 3687   3.083   0.745   2.889  2.7185 -1.2826 -0.6779
 1227TIP3    H2 3688   3.015   0.676   3.005 -0.7851  0.5477 -1.4890
 1228TIP3   OH2 3689   3.467   0.150   3.679 -0.1270 -0.4243  0.2940
 1228TIP3    H1 3690   3.532   0.144   3.750 -0.4978 -0.6168  0.6202
 1228TIP3    H2 3691   3.520   0.153   3.599  0.2771 -1.2690  0.5150
 1229TIP3   OH2 3692   2.243   3.199   4.261 -0.1322 -0.3679 -0.1461
 1229TIP3    H1 3693   2.228   3.105   4.253 -1.1857 -0.1218 -1.5209
 1229TIP3    H2 3694   2.162   3.233   4.299  0.2192 -0.0077  0.2836
 1230TIP3   OH2 3695   3.065   3.060   1.774 -0.3689 -0.4079 -0.4259
 1230TIP3    H1 3696   2.998   3.101   1.830 -0.4191  2.1628 -2.1826
 1230TIP3    H2 3697   3.034   2.970   1.762 -2.4281  0.1116  0.4788
 1231TIP3   OH2 3698   5.177   3.849   0.067 -0.3491 -0.2153  0.1174
 1231TIP3    H1 3699   5.216   3.867  -0.018 -1.9641 -1.9444 -1.0684
 1231TIP3    H2 3700   5.169   3.935   0.109  2.3481  0.4543 -0.5651
 1232TIP3   OH2 3701   1.182   3.217   1.837 -0.1206 -0.1828  0.7179
 1232TIP3    H1 3702   1.107   3.275   1.845  1.3824  1.7827  1.4124
 1232TIP3    H2 3703   1.258   3.275   1.837  1.5327 -2.1543  2.1734
 1233TIP3   OH2 3704   2.729   1.047   4.401 -0.2390  0.0066 -0.3267
 1233TIP3    H1 3705   2.734   1.089   4.315 -0.8318 -0.3638 -0.5526
 1233TIP3    H2 3706   2.787   0.971   4.394  1.1217  0.9709  0.2036
 1234TIP3   OH2 3707   0.105   2.135   0.668  0.0983 -0.0526  0.4153
 1234TIP3    H1 3708   0.028   2.135   0.611 -0.2014  2.3122  0.7225
 1234TIP3    H2 3709   0.103   2.050   0.711 -0.3399 -1.4671 -2.1555
 1235TIP3   OH2 3710   5.656   4.153   2.625 -0.0538  0.3179  0.9393
 1235TIP3    H1 3711   5.698   4.153   2.539 -0.3397 -1.7779  0.7346
 1235TIP3    H2 3712   5.638   4.245   2.644 -0.2180  0.8122 -1.3634
 1236TIP3   OH2 3713   6.094   0.919   1.567 -0.3371 -0.1207 -0.1350
 1236TIP3    H1 3714   6.180   0.956   1.549 -0.6498  1.2543  1.0345
 1236TIP3    H2 3715   6.051   0.915   1.482 -0.7539  3.4270 -0.2007
 1237TIP3   OH2 3716   4.629   5.588   1.864  0.2197 -0.1385 -0.1119
 1237TIP3    H1 3717   4.645   5.678   1.891 -1.7449  0.2079  0.0563
 1237TIP3    H2 3718   4.570   5.596   1.789 -0.7203 -1.2987  0.4859
 1238TIP3   OH2 3719   5.899   3.251   3.692  0.1094  0.1394 -0.0852
 1238TIP3    H1 3720   5.891   3.159   3.664  1.0628  0.3433 -1.1098
 1238TIP3    H2 3721   5.967   3.287   3.635  0.3514  1.2634  0.8890
 1239TIP3   OH2 3722   1.482   0.995   4.936  0.2354 -0.5673  0.1997
 1239TIP3    H1 3723   1.410   1.023   4.993 -0.5447 -1.1365 -0.4752
 1239TIP3    H2 3724   1.554   0.978   4.996  0.8598  2.9711  0.6491
 1240TIP3   OH2 3725   2.324   3.501   1.531 -0.1450  0.4951 -0.1818
 1240TIP3    H1 3726   2.406   3.540   1.561 -0.0771 -0.7471  1.4258
 1240TIP3    H2 3727   2.339   3.406   1.540 -0.3310 -0.0141 -3.7660
 1241TIP3   OH2 3728   2.868   2.769   0.168  0.0598  0.4088 -0.2734
 1241TIP3    H1 3729   2.924   2.753   0.243 -0.7730  0.1557  0.3076
 1241TIP3    H2 3730   2.902   2.850   0.129  0.3786  0.6423  0.4831
 1242TIP3   OH2 3731   1.849   0.277   0.965  0.1492  0.2754 -0.1602
 1242TIP3    H1 3732   1.759   0.279   0.933  0.6376  0.8949 -1.6271
 1242TIP3    H2 3733   1.901   0.311   0.891  1.4430  1.1915  1.1167
 1243TIP3   OH2 3734   1.729   3.354   4.236  0.1255  0.1801 -0.2436
 1243TIP3    H1 3735   1.738   3.408   4.314  0.4842  1.4386 -1.1167
 1243TIP3    H2 3736   1.652   3.300   4.252 -0.6433  1.4252  0.3974
 1244TIP3   OH2 3737   3.829   3.969   1.828 -0.3436  0.3127  0.2021
 1244TIP3    H1 3738   3.735   3.951   1.832 -0.6309  1.5504 -0.3669
 1244TIP3    H2 3739   3.836   4.062   1.852  0.6095  0.5543 -0.9481
 1245TIP3   OH2 3740   1.327   1.766   2.296  0.5072  0.7836 -1.0103
 1245TIP3    H1 3741   1.324   1.861   2.290 -0.7989  0.6722 -2.6966
 1245TIP3    H2 3742   1.240   1.737   2.270  0.3418 -0.8384  1.1002
 1246TIP3   OH2 3743   0.211   1.193   2.746 -0.0635 -0.9406  0.0132
 1246TIP3    H1 3744   0.240   1.241   2.669 -1.3787 -0.7862 -0.4184
 1246TIP3    H2 3745   0.152   1.253   2.791  1.2425 -0.7597  1.5507
 1247TIP3   OH2 3746   5.366   4.927   4.164 -0.2671 -0.2575 -0.5237
 1247TIP3    H1 3747   5.367   5.014   4.204 -2.6375 -0.2506 -0.3479
 1247TIP3    H2 3748   5.390   4.942   4.073  0.8934  0.3285 -0.1467
 1248TIP3   OH2 3749   3.879   3.431   0.524 -0.3526 -0.2176  0.0884
 1248TIP3    H1 3750   3.918   3.483   0.594  1.4910 -0.3036 -0.8121
 1248TIP3    H2 3751   3.886   3.341   0.554  1.2031 -0.3237 -0.5163
 1249TIP3   OH2 3752   4.260   1.075   1.315 -0.8671  0.2502  0.2956
 1249TIP3    H1 3753   4.327   1.031   1.263  0.0808  0.9273  0.9225
 1249TIP3    H2 3754   4.221   1.005   1.368 -1.4203 -0.3323 -0.8485
 1250TIP3   OH2 3755   1.629   5.585   0.436 -0.0191  0.1142 -0.6088
 1250TIP3    H1 3756   1.723   5.602   0.440  0.3857 -1.9243 -0.4979
 1250TIP3    H2 3757   1.599   5.597   0.527  0.6050 -1.4639 -0.1547
 1251TIP3   OH2 3758   3.001   5.270   0.695 -0.1642 -0.0570  0.3646
 1251TIP3    H1 3759   3.080   5.278   0.748  0.9857 -0.0174 -1.2822
 1251TIP3    H2 3760   3.028   5.218   0.619 -1.6583  0.1739 -0.3639
 1252TIP3   OH2 3761   5.084   1.684   3.581 -0.5047  0.0607  0.0272
 1252TIP3    H1 3762   5.017   1.660   3.516 -1.1188  2.0683 -0.1403
 1252TIP3    H2 3763   5.051   1.765   3.619  1.3816  0.5598  0.6516
 1253TIP3   OH2 3764   4.700   3.020   1.562 -0.0797  0.1544  0.2347
 1253TIP3    H1 3765   4.653   3.053   1.639  2.0512  0.7224  1.3833
 1253TIP3    H2 3766   4.718   3.099   1.510 -1.2164 -0.1853 -0.7070
 1254TIP3   OH2 3767   3.056   1.235   4.163  0.6333  0.2776 -0.0880
 1254TIP3    H1 3768   3.094   1.277   4.087  2.1318  2.0691  1.5470
 1254TIP3    H2 3769   3.111   1.158   4.179  0.9768  0.5093 -0.1643
 1255TIP3   OH2 3770   4.699   3.722   5.156  0.1508  0.2712 -0.0215
 1255TIP3    H1 3771   4.770   3.723   5.093  0.4876  2.7487  0.2958
 1255TIP3    H2 3772   4.623   3.755   5.107 -0.0706  0.3117  0.3433
 1256TIP3   OH2 3773   5.987   4.983   4.969  0.0591  0.2530  0.2045
 1256TIP3    H1 3774   6.071   5.018   4.999  0.2878  0.3791 -0.5596
 1256TIP3    H2 3775   6.004   4.890   4.953  0.5173  0.5954 -1.5208
 1257TIP3   OH2 3776   2.125   4.606   0.356  0.5302  0.0831 -0.4681
 1257TIP3    H1 3777   2.071   4.615   0.435  0.7134 -0.9424 -0.2095
 1257TIP3    H2 3778   2.209   4.645   0.381  1.2364 -1.9360  0.5447
 1258TIP3   OH2 3779   1.414   3.287   2.441 -0.5064  0.8479 -0.2301
 1258TIP3    H1 3780   1.484   3.317   2.383 -0.6178  0.4712 -0.5664
 1258TIP3    H2 3781   1.348   3.356   2.438  0.5834  2.0463  1.4468
 1259TIP3   OH2 3782   1.977   5.647   4.340 -0.1724  0.0877 -0.3370
 1259TIP3    H1 3783   1.991   5.733   4.381  1.0695 -0.8936  1.4308
 1259TIP3    H2 3784   1.901   5.660   4.284 -2.2712  1.4881  2.5670
 1260TIP3   OH2 3785   0.168   0.764   4.438 -0.6951 -0.5241  0.2146
 1260TIP3    H1 3786   0.200   0.680   4.405  0.8894  0.2596 -0.3802
 1260TIP3    H2 3787   0.240   0.825   4.421 -0.5472  0.3723  3.3574
 1261TIP3   OH2 3788   4.574   1.043   1.869  0.2633 -0.4529 -0.2833
 1261TIP3    H1 3789   4.536   1.039   1.781 -2.2336  2.4527  0.5071
 1261TIP3    H2 3790   4.665   1.068   1.854 -0.3044  0.7605 -2.0585
 1262TIP3   OH2 3791   3.456   0.435   4.468 -0.1290 -0.4216  0.4300
 1262TIP3    H1 3792   3.418   0.518   4.498  0.0163 -0.4254  0.6271
 1262TIP3    H2 3793   3.517   0.461   4.398 -0.2192 -0.3799  0.3671
 1263TIP3   OH2 3794   6.017   4.160   1.371 -0.0732  0.0466 -0.4855
 1263TIP3    H1 3795   6.061   4.102   1.433 -0.4470 -2.0179 -2.0362
 1263TIP3    H2 3796   5.946   4.199   1.422 -0.9365 -2.2872  0.2509
 1264TIP3   OH2 3797   4.428   3.125   0.015 -0.2608  0.1827  0.3739
 1264TIP3    H1 3798   4.414   3.215   0.044  1.4138  0.9258 -0.9275
 1264TIP3    H2 3799   4.505   3.096   0.065 -0.6506 -0.4624  0.6127
 1265TIP3   OH2 3800   5.179   3.836   0.802  0.2417 -0.2553 -0.2107
 1265TIP3    H1 3801   5.163   3.760   0.859  0.5377  0.1517  0.4279
 1265TIP3    H2 3802   5.265   3.819   0.764  0.6574  0.1127  0.5320
 1266TIP3   OH2 3803   4.337   3.276   1.323  0.2197  0.6032  0.2481
 1266TIP3    H1 3804   4.307   3.192   1.290  1.1472  0.7356 -1.0284
 1266TIP3    H2 3805   4.264   3.336   1.308 -0.1752  0.1904  0.5020
 1267TIP3   OH2 3806   3.534   2.752   0.995 -0.6857  0.9382 -0.6267
 1267TIP3    H1 3807   3.529   2.726   1.086  0.4477 -0.4444 -0.9264
 1267TIP3    H2 3808   3.445   2.780   0.973 -0.9445  1.4073  0.9082
 1268TIP3   OH2 3809   2.547   4.211   2.210  0.1905 -0.1811 -0.3683
 1268TIP3    H1 3810   2.503   4.129   2.231 -1.3230  1.0935  1.8355
 1268TIP3    H2 3811   2.620   4.217   2.273 -1.7177  1.6052  1.8691
 1269TIP3   OH2 3812   0.326   5.896   5.072  0.1774 -0.3974  0.0384
 1269TIP3    H1 3813   0.420   5.899   5.091  0.2108 -0.9305 -0.0456
 1269TIP3    H2 3814   0.291   5.975   5.114  0.5365 -0.5995  0.7315
 1270TIP3   OH2 3815   2.052   5.491   2.167  0.1479  0.4906 -0.1463
 1270TIP3    H1 3816   2.129   5.539   2.197 -0.0281  1.0730 -0.6160
 1270TIP3    H2 3817   2.068   5.401   2.195 -0.3841  1.1290  2.4435
 1271TIP3   OH2 3818   4.483   3.403   3.554 -0.2009  0.3810 -0.3886
 1271TIP3    H1 3819   4.535   3.335   3.597 -0.3017  1.0062  0.7595
 1271TIP3    H2 3820   4.497   3.389   3.461  0.7728 -0.4349 -0.1308
 1272TIP3   OH2 3821   0.267   4.247   1.985  0.0662  0.3503 -0.6139
 1272TIP3    H1 3822   0.360   4.236   2.007 -0.0331  0.8422  0.0924
 1272TIP3    H2 3823   0.265   4.321   1.925 -0.0324  1.5976  0.8591
 1273TIP3   OH2 3824   0.756   3.447   0.434 -0.4241 -0.1334  0.5993
 1273TIP3    H1 3825   0.701   3.521   0.409 -0.6707 -0.4732  0.1016
 1273TIP3    H2 3826   0.694   3.377   0.453 -0.1741 -0.5343 -0.0097
 1274TIP3   OH2 3827   4.900   1.296   1.313  0.0236  0.1659 -0.5464
 1274TIP3    H1 3828   4.958   1.371   1.327  0.1341  0.2668 -1.4362
 1274TIP3    H2 3829   4.827   1.311   1.373  0.5639  0.4166  0.0654
 1275TIP3   OH2 3830   4.104   4.526   3.633 -0.1223 -0.3131 -0.0433
 1275TIP3    H1 3831   4.045   4.459   3.598 -0.2398  0.5987 -1.6914
 1275TIP3    H2 3832   4.124   4.581   3.558  0.4224  1.1782  1.1589
 1276TIP3   OH2 3833   2.866   2.976   1.099  0.1833  0.2586 -0.4068
 1276TIP3    H1 3834   2.772   2.969   1.108  0.2837  0.6611  1.1515
 1276TIP3    H2 3835   2.886   3.067   1.120  0.9892  0.0058 -0.0157
 1277TIP3   OH2 3836   1.470   4.870   4.350 -0.5252  0.6985  0.4795
 1277TIP3    H1 3837   1.552   4.918   4.358  0.1919 -0.5883  1.0115
 1277TIP3    H2 3838   1.411   4.931   4.304  0.7783  1.5398 -0.1237
 1278TIP3   OH2 3839   3.731   2.756   3.243  0.0680 -0.8324  0.3774
 1278TIP3    H1 3840   3.790   2.796   3.307 -1.6578 -0.7466  1.9770
 1278TIP3    H2 3841   3.755   2.664   3.243 -0.8312 -1.1017  2.2546
 1279TIP3   OH2 3842   1.630   0.394   3.691 -0.0467 -0.8323 -0.2767
 1279TIP3    H1 3843   1.557   0.361   3.639  1.7298 -1.3730 -2.6114
 1279TIP3    H2 3844   1.591   0.419   3.775 -2.7477 -1.7333 -1.1672
 1280TIP3   OH2 3845   1.935   4.959   2.397 -0.6807 -0.0896 -0.3599
 1280TIP3    H1 3846   1.924   4.962   2.492 -1.2613  0.5831 -0.4440
 1280TIP3    H2 3847   2.030   4.967   2.383 -0.5374 -0.7586  0.1765
 1281TIP3   OH2 3848   2.477   3.638   2.718  0.1662 -0.2818 -0.2065
 1281TIP3    H1 3849   2.561   3.626   2.762  0.9906  1.0294 -1.3357
 1281TIP3    H2 3850   2.417   3.579   2.763  2.1420 -2.7954 -0.6532
 1282TIP3   OH2 3851   5.840   2.613   0.521  0.1179  0.0181 -0.4106
 1282TIP3    H1 3852   5.884   2.678   0.466  0.8771  0.7783  1.0238
 1282TIP3    H2 3853   5.793   2.664   0.587  0.9388 -0.8424  0.9037
 1283TIP3   OH2 3854   4.023   2.615   2.118 -0.1880 -0.2673 -0.2987
 1283TIP3    H1 3855   4.110   2.654   2.110  0.7354 -1.4692  2.8375
 1283TIP3    H2 3856   4.031   2.529   2.076 -0.8260  0.7252 -2.6770
 1284TIP3   OH2 3857   3.080   5.452   4.366  0.1730 -0.6044  0.7449
 1284TIP3    H1 3858   3.006   5.483   4.312  1.6859 -0.2513 -1.2497
 1284TIP3    H2 3859   3.056   5.362   4.390 -1.1679 -0.2922  0.6915
 1285TIP3   OH2 3860   3.933   2.773  -0.006  0.2690 -0.1178  0.5419
 1285TIP3    H1 3861   3.945   2.863   0.024 -1.6737  0.6299 -0.7526
 1285TIP3    H2 3862   3.906   2.725   0.073 -0.1291  0.7507  0.9408
 1286TIP3   OH2 3863   0.945   1.124   4.376  0.8583 -0.7392  0.7525
 1286TIP3    H1 3864   0.980   1.172   4.301  1.4807 -0.5941  1.1295
 1286TIP3    H2 3865   1.020   1.113   4.434  0.7506 -2.2699  0.6232
 1287TIP3   OH2 3866   5.697   0.666   0.846 -0.3804 -0.9754 -0.6475
 1287TIP3    H1 3867   5.635   0.720   0.895  0.2444 -1.1778  0.3909
 1287TIP3    H2 3868   5.729   0.724   0.776  0.7714  0.2532  0.8349
 1288TIP3   OH2 3869   5.281   2.692   0.274 -0.0626  0.3122 -0.2810
 1288TIP3    H1 3870   5.267   2.784   0.295  1.3868  0.0513  2.1707
 1288TIP3    H2 3871   5.213   2.646   0.323  0.0599 -0.0251 -0.4250
 1289TIP3   OH2 3872   5.872   0.125   2.984  0.3942 -0.2797 -0.5676
 1289TIP3    H1 3873   5.873   0.202   2.927  0.8326 -1.5825 -2.4043
 1289TIP3    H2 3874   5.865   0.161   3.072  2.0982  1.9312 -1.2313
 1290TIP3   OH2 3875   1.361   1.178   0.494 -0.4523 -0.0392  0.1670
 1290TIP3    H1 3876   1.273   1.199   0.525 -0.4772 -0.6785  0.5551
 1290TIP3    H2 3877   1.356   1.086   0.468 -0.3822  0.4185 -1.5945
 1291TIP3   OH2 3878   4.030   1.946   1.381 -0.6783 -0.0851 -0.0504
 1291TIP3    H1 3879   4.052   1.950   1.288  1.5383 -0.0956  0.4369
 1291TIP3    H2 3880   4.112   1.925   1.425 -1.6542  0.0245  1.9403
 1292TIP3   OH2 3881   5.163   3.291   5.093 -0.0073 -0.2751  0.2328
 1292TIP3    H1 3882   5.124   3.291   5.005  1.3494  3.1266 -0.4924
 1292TIP3    H2 3883   5.187   3.199   5.108 -2.1971 -1.3454 -1.9780
 1293TIP3   OH2 3884   1.477   3.285   4.222 -0.8008  0.0732 -0.7137
 1293TIP3    H1 3885   1.416   3.351   4.255  0.3638  1.0522 -0.4367
 1293TIP3    H2 3886   1.433   3.248   4.145 -1.5023  1.1347 -0.8431
 1294TIP3   OH2 3887   2.262   2.897   1.365 -0.1646 -0.9235 -0.4301
 1294TIP3    H1 3888   2.188   2.936   1.412  0.7337 -0.5345  0.6953
 1294TIP3    H2 3889   2.290   2.965   1.304  0.8227 -0.1038  0.8946
 1295TIP3   OH2 3890   5.728   2.542   1.495 -0.1354  0.3679  0.5063
 1295TIP3    H1 3891   5.657   2.603   1.518  0.2074  2.0531 -2.4818
 1295TIP3    H2 3892   5.776   2.586   1.426  0.8190 -2.8755 -1.0727
 1296TIP3   OH2 3893   3.262   5.891   1.854 -0.2394  0.2077 -0.7050
 1296TIP3    H1 3894   3.239   5.844   1.774 -0.1333  0.1210 -0.6845
 1296TIP3    H2 3895   3.340   5.941   1.831 -0.1284  0.0761 -0.6154
 1297TIP3   OH2 3896   4.054   5.807   1.887 -0.1352  0.1408 -0.2982
 1297TIP3    H1 3897   4.067   5.802   1.792  1.6471  0.3180 -0.0998
 1297TIP3    H2 3898   4.028   5.898   1.903 -1.4382 -0.1376 -0.6880
 1298TIP3   OH2 3899   3.189   1.529   1.360  0.1521  0.3788  0.2784
 1298TIP3    H1 3900   3.256   1.472   1.322 -0.4017 -0.6455  0.7786
 1298TIP3    H2 3901   3.238   1.604   1.394  1.3399 -1.1628  2.2371
 1299TIP3   OH2 3902   0.254   2.907   4.545  0.4150 -0.2506 -0.7173
 1299TIP3    H1 3903   0.216   2.821   4.528 -0.1667 -0.0268 -0.5523
 1299TIP3    H2 3904   0.181   2.960   4.576  0.8426  0.2081 -0.4882
 1300TIP3   OH2 3905   5.486   0.098   4.336 -0.3474 -0.1624 -0.0722
 1300TIP3    H1 3906   5.477   0.188   4.366  0.1192 -0.2054  0.2207
 1300TIP3    H2 3907   5.575   0.073   4.363 -1.3653 -1.5929  2.3271
 1301TIP3   OH2 3908   6.276   0.153   1.601 -0.5041 -0.5162  0.1168
 1301TIP3    H1 3909   6.316   0.149   1.687 -3.3138 -2.0044  1.4887
 1301TIP3    H2 3910   6.343   0.120   1.541  0.5871 -2.1146  2.1206
 1302TIP3   OH2 3911   4.815   1.425   3.163 -0.0354  0.8374  0.1078
 1302TIP3    H1 3912   4.722   1.432   3.145  0.4059 -0.2098 -3.2479
 1302TIP3    H2 3913   4.835   1.332   3.154  1.6995  1.3164 -1.9677
 1303TIP3   OH2 3914   0.923   2.334   2.017 -0.1123 -0.2288  0.5499
 1303TIP3    H1 3915   0.839   2.366   1.985 -0.7011 -1.4669  0.7968
 1303TIP3    H2 3916   0.940   2.385   2.097  0.1425  1.0917 -0.3031
 1304TIP3   OH2 3917   0.895   4.294   4.379 -0.3194 -0.0670  0.2234
 1304TIP3    H1 3918   0.805   4.290   4.410 -1.5534  0.6082 -2.9672
 1304TIP3    H2 3919   0.936   4.361   4.434 -1.9787  0.2042  1.2024
 1305TIP3   OH2 3920   0.732   5.053   1.956  0.4045  0.3206 -0.1085
 1305TIP3    H1 3921   0.647   5.096   1.949  0.4474  0.2801 -1.0753
 1305TIP3    H2 3922   0.747   5.043   2.050 -0.7723  0.0980  0.0693
 1306TIP3   OH2 3923   5.522   3.470   3.989 -0.7617  0.1391 -0.1039
 1306TIP3    H1 3924   5.582   3.404   3.956 -0.9485  0.6593 -1.5565
 1306TIP3    H2 3925   5.565   3.504   4.068 -0.5915 -1.5606  0.5631
 1307TIP3   OH2 3926   4.818   5.891   0.490  0.1628  0.4029 -0.3542
 1307TIP3    H1 3927   4.866   5.943   0.426 -0.5421  1.8517  0.2472
 1307TIP3    H2 3928   4.800   5.952   0.561 -0.4413 -0.7602  0.5214
 1308TIP3   OH2 3929   4.326   1.213   2.282 -0.4148 -0.1825  0.3671
 1308TIP3    H1 3930   4.356   1.141   2.226 -1.2489 -0.3208  0.0867
 1308TIP3    H2 3931   4.383   1.286   2.259  0.1029 -0.6046  0.2806
 1309TIP3   OH2 3932   2.098   0.317   0.175 -0.1028  0.0702 -0.5486
 1309TIP3    H1 3933   2.016   0.358   0.202  0.0906 -0.0886  0.3271
 1309TIP3    H2 3934   2.129   0.272   0.254 -0.5799 -2.2364 -1.5871
 1310TIP3   OH2 3935   4.527   0.248   3.126  0.4875 -0.3812 -0.1416
 1310TIP3    H1 3936   4.523   0.159   3.090  1.5912 -0.0136 -1.2364
 1310TIP3    H2 3937   4.461   0.297   3.077  0.4103 -0.4123 -0.0692
 1311TIP3   OH2 3938   4.250   1.046   1.768 -0.0407  0.2446 -0.1940
 1311TIP3    H1 3939   4.290   0.967   1.732  0.8028  1.0194 -1.0163
 1311TIP3    H2 3940   4.221   1.021   1.856  0.1548 -0.9862 -0.4707
 1312TIP3   OH2 3941   1.983   3.678   0.751 -0.3441 -0.4972  0.4236
 1312TIP3    H1 3942   1.992   3.663   0.845  1.0989 -1.5091  0.1432
 1312TIP3    H2 3943   2.067   3.714   0.724 -1.0604  0.6607 -0.3477
 1313TIP3   OH2 3944   2.360   2.076   0.952 -0.4896  0.4472  0.7128
 1313TIP3    H1 3945   2.266   2.061   0.946 -0.9208  2.4014  1.8012
 1313TIP3    H2 3946   2.379   2.139   0.883 -0.1627  0.8083  1.1324
 1314TIP3   OH2 3947   1.209   0.237   1.918 -0.2545 -0.3449  0.5157
 1314TIP3    H1 3948   1.258   0.298   1.973 -0.9043  1.6397 -0.9523
 1314TIP3    H2 3949   1.276   0.186   1.873  0.3109 -0.9255  1.9754
 1315TIP3   OH2 3950   1.430   0.962   4.002 -0.7007 -0.2704  0.0394
 1315TIP3    H1 3951   1.522   0.944   4.021 -1.2467 -1.2021  2.0341
 1315TIP3    H2 3952   1.416   1.052   4.032 -0.8919 -0.8126  1.6656
 1316TIP3   OH2 3953   2.584   5.091   4.441 -0.5733  0.4650 -0.0134
 1316TIP3    H1 3954   2.631   5.045   4.372 -1.3023 -1.2290  0.5640
 1316TIP3    H2 3955   2.565   5.024   4.506 -1.0874  1.7440  1.2101
 1317TIP3   OH2 3956   2.739   5.552   4.138 -0.0380  0.2075 -0.1247
 1317TIP3    H1 3957   2.696   5.506   4.211  1.4173 -2.8098 -1.0055
 1317TIP3    H2 3958   2.799   5.613   4.180 -2.0239  1.4027  1.1220
 1318TIP3   OH2 3959   1.246   5.472   0.692 -0.1884  0.0618  0.0113
 1318TIP3    H1 3960   1.197   5.476   0.774  0.0214  0.6662  0.1137
 1318TIP3    H2 3961   1.181   5.452   0.626 -0.5164  0.4817  0.2009
 1319TIP3   OH2 3962   6.151   3.995   2.164 -0.0886  0.0907  0.4116
 1319TIP3    H1 3963   6.198   4.049   2.100 -1.7750  1.0740 -0.0651
 1319TIP3    H2 3964   6.191   4.018   2.248 -0.1452  1.4220  0.1014
 1320TIP3   OH2 3965   1.052   3.788   4.275  0.7411 -0.3847 -0.0152
 1320TIP3    H1 3966   0.993   3.751   4.210 -0.3108  0.6455  0.3274
 1320TIP3    H2 3967   1.040   3.733   4.353 -2.2088  1.6135  1.1129
 1321TIP3   OH2 3968   1.275   5.244   4.889 -0.0747 -0.2661  0.0614
 1321TIP3    H1 3969   1.189   5.244   4.931  0.5550  0.0600  1.4183
 1321TIP3    H2 3970   1.336   5.223   4.960  0.8485 -1.9750 -1.1702
 1322TIP3   OH2 3971   2.342   3.512   3.302 -0.4385  0.5696 -0.4616
 1322TIP3    H1 3972   2.259   3.559   3.312 -1.3993  0.0136 -4.1226
 1322TIP3    H2 3973   2.404   3.577   3.270 -0.2717  0.4048 -0.4782
 1323TIP3   OH2 3974   1.889   3.531   1.039  0.1704  0.2558 -0.0440
 1323TIP3    H1 3975   1.977   3.562   1.061 -0.2404 -0.3703  2.8992
 1323TIP3    H2 3976   1.831   3.600   1.070 -0.4615  0.7368 -2.0984
 1324TIP3   OH2 3977   3.788   4.702   4.250  0.0030 -0.0060  0.5471
 1324TIP3    H1 3978   3.764   4.612   4.230  1.7549 -0.0322 -1.9341
 1324TIP3    H2 3979   3.865   4.694   4.307  1.6339 -0.2397 -1.5496
 1325TIP3   OH2 3980   2.628   3.048   2.223 -0.4426  0.3197  0.2648
 1325TIP3    H1 3981   2.569   3.058   2.298 -2.1294  0.1180 -0.9776
 1325TIP3    H2 3982   2.710   3.087   2.252 -1.0722  0.3318  2.1812
 1326TIP3   OH2 3983   2.947   4.845   3.202 -0.3202 -0.1582  0.1582
 1326TIP3    H1 3984   2.989   4.786   3.264 -0.3484 -1.1473 -0.7411
 1326TIP3    H2 3985   2.882   4.791   3.157 -0.4654  0.5975 -0.5738
 1327TIP3   OH2 3986   0.340   0.727   2.791  0.8217  0.0897 -0.0814
 1327TIP3    H1 3987   0.395   0.682   2.726  0.6314 -0.4635  0.1324
 1327TIP3    H2 3988   0.254   0.688   2.779  0.4918  0.8867 -0.3503
 1328TIP3   OH2 3989   1.940   3.033   4.801 -0.4713 -0.0041 -0.1998
 1328TIP3    H1 3990   1.950   2.988   4.717 -1.9611  1.6088 -1.3117
 1328TIP3    H2 3991   1.847   3.055   4.805 -0.2099  0.9306  1.3592
 1329TIP3   OH2 3992   2.781   2.534   0.501  0.0041 -0.2935 -0.0073
 1329TIP3    H1 3993   2.765   2.524   0.407 -1.8417  0.0933  0.2191
 1329TIP3    H2 3994   2.766   2.628   0.517 -1.4654 -0.6470  0.9250
 1330TIP3   OH2 3995   0.950   1.968   2.297 -0.8440  0.0408 -0.1625
 1330TIP3    H1 3996   0.935   2.051   2.342 -0.4090 -0.3703  0.7691
 1330TIP3    H2 3997   0.924   1.901   2.360 -1.6514 -0.5300 -1.0851
 1331TIP3   OH2 3998   6.114   3.672   3.075 -0.3340  0.0429 -0.6490
 1331TIP3    H1 3999   6.177   3.724   3.125  0.0371 -3.0928  2.5238
 1331TIP3    H2 4000   6.160   3.652   2.993  0.5157  2.3781 -0.8020
 1332TIP3   OH2 4001   5.578   3.692   1.213 -0.0188  0.1839  0.1227
 1332TIP3    H1 4002   5.492   3.676   1.253 -0.0068  1.5943  0.7634
 1332TIP3    H2 4003   5.618   3.759   1.268  0.9712  0.4782 -0.9208
 1333TIP3   OH2 4004   5.693   0.656   4.994 -0.4760 -0.6277 -0.3889
 1333TIP3    H1 4005   5.601   0.634   5.009 -0.3795  0.1321  1.7293
 1333TIP3    H2 4006   5.721   0.699   5.076  1.3083  0.6596 -1.5940
 1334TIP3   OH2 4007   1.921   4.146   0.917  0.2288 -0.1720 -0.2507
 1334TIP3    H1 4008   1.847   4.142   0.977 -0.7928 -1.5759 -1.5254
 1334TIP3    H2 4009   1.976   4.071   0.940 -0.3717 -0.9499 -1.2881
 1335TIP3   OH2 4010   0.898   3.770   1.878 -0.0974  0.4566 -0.5829
 1335TIP3    H1 4011   0.836   3.696   1.883  0.0081  0.4288  0.9151
 1335TIP3    H2 4012   0.939   3.761   1.793 -0.4062 -0.9757 -0.6142
 1336TIP3   OH2 4013   0.982   2.486   3.415  0.0691 -0.2242  0.4901
 1336TIP3    H1 4014   0.918   2.441   3.470  1.0621 -0.2552  1.6735
 1336TIP3    H2 4015   1.032   2.416   3.374  1.3587 -0.2786  2.0284
 1337TIP3   OH2 4016   2.822   5.445   2.993 -0.2190  0.4325  0.2283
 1337TIP3    H1 4017   2.878   5.502   3.046 -0.2136  0.2120  0.4607
 1337TIP3    H2 4018   2.748   5.425   3.050  0.3234 -0.7060  0.5697
 1338TIP3   OH2 4019   5.315   5.708   1.159  0.4402  0.4941 -0.0940
 1338TIP3    H1 4020   5.302   5.694   1.253 -0.5928  1.0387 -0.1399
 1338TIP3    H2 4021   5.323   5.620   1.122  0.1161  0.2522  0.4015
 1339TIP3   OH2 4022   4.447   2.517   3.007 -0.0075 -0.0349  0.0651
 1339TIP3    H1 4023   4.399   2.574   3.067 -0.7558  1.8256 -2.1206
 1339TIP3    H2 4024   4.538   2.547   3.013 -0.3705  1.3705 -0.9469
 1340TIP3   OH2 4025   2.813   1.048   4.845  0.0463 -0.1954 -0.2643
 1340TIP3    H1 4026   2.887   1.099   4.879  1.0114 -1.3565 -0.5403
 1340TIP3    H2 4027   2.785   1.095   4.767 -0.5738  1.1334  0.7044
 1341TIP3   OH2 4028   1.087   0.638   3.982 -0.2434  0.0787 -0.0461
 1341TIP3    H1 4029   1.125   0.551   3.984  1.9986  0.9779 -0.8629
 1341TIP3    H2 4030   1.012   0.633   4.042  0.0086 -2.2846  0.1499
 1342TIP3   OH2 4031   1.443   2.716   2.499 -0.4142  0.0325  0.0273
 1342TIP3    H1 4032   1.374   2.735   2.562  0.4270  0.5020  0.8391
 1342TIP3    H2 4033   1.467   2.625   2.516 -0.6020 -0.0224 -0.0103
 1343TIP3   OH2 4034   0.170   4.552   2.318 -0.0355 -0.5473  0.0787
 1343TIP3    H1 4035   0.100   4.494   2.290  0.8654 -1.2754 -0.7266
 1343TIP3    H2 4036   0.225   4.498   2.375  0.6801 -0.4299 -0.4856
 1344TIP3   OH2 4037   3.516   4.158   2.078 -0.0593 -0.7102  0.5471
 1344TIP3    H1 4038   3.490   4.068   2.100  3.0647 -1.9452 -0.2707
 1344TIP3    H2 4039   3.442   4.192   2.028 -0.9072 -3.2378 -0.0983
 1345TIP3   OH2 4040   0.069   4.999   4.098 -0.6860  0.3500 -0.3890
 1345TIP3    H1 4041  -0.010   4.946   4.083  1.0142 -2.0854 -1.4912
 1345TIP3    H2 4042   0.103   4.967   4.181 -0.0824  0.3166 -0.6470
 1346TIP3   OH2 4043   0.875   5.525   3.507  0.7050 -0.0316 -0.1056
 1346TIP3    H1 4044   0.813   5.452   3.519 -1.4628  1.8301  0.6653
 1346TIP3    H2 4045   0.897   5.522   3.414 -2.3203  0.5083 -0.9374
 1347TIP3   OH2 4046   5.096   4.551   4.901  0.1291  0.3594  0.1870
 1347TIP3    H1 4047   5.161   4.613   4.934 -0.9379  1.9547 -0.5672
 1347TIP3    H2 4048   5.096   4.480   4.964  1.7095  0.9152  0.8600
 1348TIP3   OH2 4049   4.028   5.458   2.995  0.5234 -0.4030  0.5855
 1348TIP3    H1 4050   4.056   5.537   3.041 -0.2171  0.5803 -0.5741
 1348TIP3    H2 4051   4.095   5.445   2.927 -1.7611  2.2293 -2.5051
 1349TIP3   OH2 4052   0.182   3.941   0.369  0.0628 -0.3216 -0.0442
 1349TIP3    H1 4053   0.249   3.877   0.391  0.1058 -0.5541 -0.8429
 1349TIP3    H2 4054   0.099   3.897   0.390  0.1025 -0.5505 -0.3601
 1350TIP3   OH2 4055   4.412   2.743   3.471  0.2960  0.4068 -0.0961
 1350TIP3    H1 4056   4.503   2.766   3.486  0.2245  0.7723 -0.2196
 1350TIP3    H2 4057   4.361   2.810   3.516  0.0863  0.0456  0.2127
 1351TIP3   OH2 4058   0.472   0.530   4.683  0.1304  0.7394 -0.1018
 1351TIP3    H1 4059   0.428   0.495   4.606 -0.5137 -1.1488  1.0712
 1351TIP3    H2 4060   0.409   0.520   4.754  1.5219  0.2642  1.1278
 1352TIP3   OH2 4061   5.383   2.336   0.357  0.3435  0.1686  0.2713
 1352TIP3    H1 4062   5.452   2.384   0.403  2.0668 -1.9863  0.1013
 1352TIP3    H2 4063   5.332   2.294   0.426  0.5480  0.0307  0.3390
 1353TIP3   OH2 4064   0.007   3.955   0.122 -0.3886  0.0582 -0.6957
 1353TIP3    H1 4065   0.071   4.006   0.071 -0.5386  0.8279 -0.1314
 1353TIP3    H2 4066   0.051   3.939   0.205 -0.8889  0.5274 -0.3347
 1354TIP3   OH2 4067   5.912   5.221   3.524 -0.0932  0.3496  0.1031
 1354TIP3    H1 4068   5.876   5.299   3.483 -0.3251  0.1167 -0.1404
 1354TIP3    H2 4069   5.973   5.254   3.590 -0.7796  0.7542  0.5492
 1355TIP3   OH2 4070   5.848   4.434   0.629 -0.4315 -0.9223 -0.2603
 1355TIP3    H1 4071   5.917   4.438   0.696 -0.3722 -0.7842 -0.3282
 1355TIP3    H2 4072   5.848   4.522   0.590  0.1890 -1.2767 -1.0939
 1356TIP3   OH2 4073   4.700   2.495   1.708 -0.1578  0.3829  0.2472
 1356TIP3    H1 4074   4.636   2.470   1.642  1.1635  0.7202 -1.2233
 1356TIP3    H2 4075   4.785   2.472   1.669  0.7790  2.2188  1.0586
 1357TIP3   OH2 4076   5.086   0.137   3.690 -0.3847 -0.3840 -0.1539
 1357TIP3    H1 4077   5.155   0.173   3.633 -0.5464  1.9711  1.0069
 1357TIP3    H2 4078   5.127   0.063   3.734  2.1226  1.9118  1.7502
 1358TIP3   OH2 4079   4.037   1.615   2.964  0.0931 -0.4092  0.2776
 1358TIP3    H1 4080   3.988   1.667   3.028  0.5250  0.3224  0.0236
 1358TIP3    H2 4081   3.998   1.527   2.969 -2.9543  0.6568 -1.6113
 1359TIP3   OH2 4082   3.115   0.332   0.649 -0.3607  0.0244  0.0005
 1359TIP3    H1 4083   3.104   0.356   0.741  2.4500  1.3708  0.1055
 1359TIP3    H2 4084   3.103   0.237   0.647 -0.6578 -0.0015  1.7296
 1360TIP3   OH2 4085   0.955   0.243   1.998  0.0862 -0.0553  0.0065
 1360TIP3    H1 4086   1.043   0.205   1.997  0.2930  0.4156  0.0888
 1360TIP3    H2 4087   0.953   0.302   1.922 -0.6383 -1.1217 -0.8340
 1361TIP3   OH2 4088   2.393   4.731   2.891 -0.1170  0.1007  0.5079
 1361TIP3    H1 4089   2.351   4.712   2.807  0.5348 -0.0197  0.2045
 1361TIP3    H2 4090   2.320   4.746   2.952 -0.6194 -1.0981  0.2257
 1362TIP3   OH2 4091   0.404   0.775   4.046  0.4710 -0.0568  0.2122
 1362TIP3    H1 4092   0.453   0.750   3.968  1.5752 -0.0774  0.8865
 1362TIP3    H2 4093   0.358   0.856   4.021 -0.8941 -1.1734 -1.0930
 1363TIP3   OH2 4094   5.949   1.902   3.051  0.0178  0.2115 -0.0536
 1363TIP3    H1 4095   5.884   1.949   3.104  0.9737  0.3311  1.0504
 1363TIP3    H2 4096   5.896   1.848   2.992 -1.1003  0.2719  0.8421
 1364TIP3   OH2 4097   1.805   5.376   1.045 -0.1876  0.3795  0.0287
 1364TIP3    H1 4098   1.750   5.301   1.068 -0.2083  0.5154  0.4426
 1364TIP3    H2 4099   1.744   5.450   1.041  0.0130  0.6142  0.9233
 1365TIP3   OH2 4100   4.596   1.758   2.414  0.0814  0.0977 -0.6332
 1365TIP3    H1 4101   4.541   1.680   2.414  0.5945 -0.3015  0.6970
 1365TIP3    H2 4102   4.684   1.726   2.396  0.2707  0.3769 -0.2283
 1366TIP3   OH2 4103   1.035   2.104   0.314 -0.4070 -0.1272  0.2700
 1366TIP3    H1 4104   1.016   2.193   0.285  2.5585  0.5846  0.2167
 1366TIP3    H2 4105   1.013   2.105   0.408  0.7861  1.1148  0.5789
 1367TIP3   OH2 4106   1.319   4.163   1.820 -0.0334  0.0083 -0.0620
 1367TIP3    H1 4107   1.402   4.119   1.801  0.0126  0.2877 -0.5018
 1367TIP3    H2 4108   1.342   4.226   1.889 -0.0019 -0.3104  0.2261
 1368TIP3   OH2 4109   1.349   0.686   4.091 -0.2744  0.1312  0.1789
 1368TIP3    H1 4110   1.401   0.711   4.167  1.8234  0.5967 -1.3517
 1368TIP3    H2 4111   1.315   0.599   4.114 -0.2698  0.5401  1.8999
 1369TIP3   OH2 4112  -0.002   6.005   2.082 -0.3737  0.4442  0.1168
 1369TIP3    H1 4113   0.008   5.983   1.990  1.5592  0.0470  0.3794
 1369TIP3    H2 4114   0.002   5.920   2.127 -0.3934  0.7100  0.6219
 1370TIP3   OH2 4115   6.177   3.005   1.756 -1.2202  0.5384 -0.2332
 1370TIP3    H1 4116   6.190   3.021   1.663  0.8079  1.8649  0.2118
 1370TIP3    H2 4117   6.258   2.962   1.784 -1.3688  1.0651  1.0816
 1371TIP3   OH2 4118   0.687   0.694   0.248 -0.1190  0.2960 -0.1928
 1371TIP3    H1 4119   0.637   0.672   0.170  1.3417 -0.7251 -0.9074
 1371TIP3    H2 4120   0.630   0.751   0.299 -1.2766  0.6350 -1.7951
 1372TIP3   OH2 4121   0.096   2.792   4.865  0.4909  0.2975  0.5000
 1372TIP3    H1 4122   0.135   2.821   4.782  0.9341 -0.4413  0.4420
 1372TIP3    H2 4123   0.138   2.848   4.931  0.3308  0.7107  0.2571
 1373TIP3   OH2 4124   2.420   1.104   1.678 -0.1543 -0.0992 -0.3450
 1373TIP3    H1 4125   2.437   1.194   1.706 -0.8820  0.0541 -0.3660
 1373TIP3    H2 4126   2.418   1.109   1.582 -0.0566 -0.1615 -0.3498
 1374TIP3   OH2 4127   3.719   0.994   0.207 -0.2248 -0.6855 -0.6364
 1374TIP3    H1 4128   3.713   0.952   0.293  0.0573  1.5204  0.5366
 1374TIP3    H2 4129   3.628   1.014   0.184 -0.1670  4.3019  2.2245
 1375TIP3   OH2 4130   2.822   2.497   2.791 -0.3227 -0.1053 -0.3814
 1375TIP3    H1 4131   2.836   2.416   2.840 -0.3910  0.8783  1.3897
 1375TIP3    H2 4132   2.753   2.542   2.840  0.0821  1.2392 -1.0069
 1376TIP3   OH2 4133   3.431   0.092   2.632  0.7749  0.2669 -0.2252
 1376TIP3    H1 4134   3.374   0.067   2.705  0.0789 -0.1966 -0.9104
 1376TIP3    H2 4135   3.431   0.187   2.634  1.3711  0.2645  0.8313
 1377TIP3   OH2 4136   0.545   1.974   0.618  0.3100 -0.2871 -0.0943
 1377TIP3    H1 4137   0.478   2.041   0.600 -0.0083 -0.2688  1.0748
 1377TIP3    H2 4138   0.522   1.901   0.561  1.3244  0.9761 -2.2599
 1378TIP3   OH2 4139   0.618   2.456   3.535 -0.4908 -0.1601  0.2633
 1378TIP3    H1 4140   0.666   2.389   3.487  0.9112  0.4813  0.7237
 1378TIP3    H2 4141   0.673   2.477   3.610 -0.7822  1.6394  0.0294
 1379TIP3   OH2 4142   3.568   2.172   3.397 -0.0300  0.4274  0.7614
 1379TIP3    H1 4143   3.567   2.168   3.301  0.0939  3.0419  0.5881
 1379TIP3    H2 4144   3.660   2.189   3.419 -0.3173  1.4406  1.2197
 1380TIP3   OH2 4145   6.211   5.176   2.102  0.0582 -0.3713 -0.0839
 1380TIP3    H1 4146   6.275   5.164   2.032 -0.2677  0.6329 -0.5666
 1380TIP3    H2 4147   6.136   5.218   2.060  0.2702  1.2481  1.0697
 1381TIP3   OH2 4148   6.188   4.588   1.195 -0.2517 -0.2032  0.1927
 1381TIP3    H1 4149   6.151   4.504   1.169 -2.5831  1.2568 -1.6734
 1381TIP3    H2 4150   6.164   4.597   1.288 -2.3988 -0.4980 -0.2719
 1382TIP3   OH2 4151   5.707   5.857   0.636  0.0917 -0.6100 -0.4925
 1382TIP3    H1 4152   5.782   5.862   0.576  0.5331 -1.1947 -0.0001
 1382TIP3    H2 4153   5.734   5.794   0.703  0.1397  0.9694  1.0585
 1383TIP3   OH2 4154   0.370   3.086   3.610 -0.1072  0.1932 -0.1113
 1383TIP3    H1 4155   0.278   3.104   3.589 -0.2777  0.4027  0.7555
 1383TIP3    H2 4156   0.405   3.171   3.637  0.2879  0.0780 -0.2627
 1384TIP3   OH2 4157  -0.001   2.361   4.788  0.7121  0.2539  0.4158
 1384TIP3    H1 4158   0.061   2.404   4.730 -0.8507  1.1854 -0.6481
 1384TIP3    H2 4159   0.044   2.281   4.816  2.9526  1.6185  0.9418
 1385TIP3   OH2 4160   3.471   3.685   3.995 -0.5029 -0.0131 -0.2868
 1385TIP3    H1 4161   3.469   3.594   4.024 -1.8977 -0.5336 -1.8314
 1385TIP3    H2 4162   3.542   3.726   4.045  1.7027 -2.4925 -1.1958
 1386TIP3   OH2 4163   2.432   0.771   0.547 -0.3008  0.9257  0.0812
 1386TIP3    H1 4164   2.468   0.859   0.536  0.2479  0.7307  0.2873
 1386TIP3    H2 4165   2.390   0.752   0.463  1.1217  0.6896 -0.6069
 1387TIP3   OH2 4166   1.608   5.176   1.087  0.1046  0.3996 -0.5481
 1387TIP3    H1 4167   1.645   5.111   1.147  0.1274 -0.0211 -1.0093
 1387TIP3    H2 4168   1.573   5.124   1.015 -0.4018  0.8660 -0.6442
 1388TIP3   OH2 4169   1.708   0.218   4.923  0.5430  0.0290  0.1722
 1388TIP3    H1 4170   1.682   0.178   5.006 -0.0289 -0.8883 -0.4312
 1388TIP3    H2 4171   1.725   0.143   4.865 -3.0578  0.5205 -1.8140
 1389TIP3   OH2 4172   4.941   5.353   0.869  0.7961 -0.2434 -0.0861
 1389TIP3    H1 4173   5.028   5.338   0.833  1.2956  1.1167  0.5078
 1389TIP3    H2 4174   4.887   5.374   0.793  1.1863 -0.1843 -0.3525
 1390TIP3   OH2 4175   2.927   3.721   1.769  0.0965 -0.4094 -0.2938
 1390TIP3    H1 4176   2.890   3.803   1.803  0.1249  0.2864 -1.8578
 1390TIP3    H2 4177   2.872   3.700   1.693  1.4178 -0.6572 -1.2041
 1391TIP3   OH2 4178   4.249   2.130   3.201 -0.4192  0.5320  0.7075
 1391TIP3    H1 4179   4.317   2.187   3.164  0.6068 -1.0342  0.0960
 1391TIP3    H2 4180   4.241   2.059   3.138  1.0276 -1.9887  3.1771
 1392TIP3   OH2 4181   5.088   0.517   4.383  0.1303 -0.0951 -0.4768
 1392TIP3    H1 4182   5.020   0.455   4.411  1.0960 -0.4398  1.2803
 1392TIP3    H2 4183   5.169   0.480   4.418  0.8734  1.5991 -0.3229
 1393TIP3   OH2 4184   1.548   2.595   5.098 -0.5912 -0.1228 -0.6254
 1393TIP3    H1 4185   1.480   2.657   5.126 -0.4799 -0.2857  0.0172
 1393TIP3    H2 4186   1.609   2.592   5.171 -0.1732 -0.3911 -0.9826
 1394TIP3   OH2 4187   5.299   0.193   3.527  0.0400  0.1154  1.0327
 1394TIP3    H1 4188   5.361   0.135   3.572  0.2663 -0.6612 -0.2346
 1394TIP3    H2 4189   5.353   0.242   3.465 -0.5607 -0.4838  0.0059
 1395TIP3   OH2 4190   1.443   4.145   2.742 -0.0754 -0.1891  0.1602
 1395TIP3    H1 4191   1.458   4.063   2.694 -0.0149 -0.2366  0.2606
 1395TIP3    H2 4192   1.354   4.171   2.717 -0.3852 -0.6858  0.7230
 1396TIP3   OH2 4193   0.719   0.573   4.947  0.2161  0.8774 -0.4904
 1396TIP3    H1 4194   0.814   0.586   4.945  0.5042 -0.9439 -0.5199
 1396TIP3    H2 4195   0.683   0.653   4.909  1.8066  1.0685 -1.7088
 1397TIP3   OH2 4196   4.880   3.022   3.812  0.3170  0.3094  0.6965
 1397TIP3    H1 4197   4.965   3.013   3.854  0.3977 -0.1666  0.4388
 1397TIP3    H2 4198   4.866   2.938   3.768 -0.1160  0.5202  0.4248
 1398TIP3   OH2 4199   3.043   0.455   3.162 -0.7222 -0.3892 -0.3495
 1398TIP3    H1 4200   3.013   0.516   3.229 -1.6149  0.4834 -1.4950
 1398TIP3    H2 4201   3.085   0.384   3.211 -1.9666 -0.1372  1.1654
 1399TIP3   OH2 4202   3.974   0.464   2.376  0.0223  0.5927 -0.1253
 1399TIP3    H1 4203   4.007   0.467   2.465 -0.5054  0.9691  0.0643
 1399TIP3    H2 4204   3.907   0.533   2.373  0.2067  0.7491 -0.8753
 1400TIP3   OH2 4205   1.608   1.179   1.430  0.2692  0.2986  0.1031
 1400TIP3    H1 4206   1.576   1.264   1.459  2.7482  1.1947  0.5021
 1400TIP3    H2 4207   1.646   1.196   1.344  1.9973 -0.0395  0.7519
 1401TIP3   OH2 4208   5.824   0.632   3.433  0.4628  0.0347 -0.4205
 1401TIP3    H1 4209   5.835   0.699   3.366 -1.5309 -0.7998 -1.6687
 1401TIP3    H2 4210   5.737   0.648   3.469  0.6949 -0.7817  0.5568
 1402TIP3   OH2 4211   5.378   1.547   3.283 -0.3412  0.7782  0.8063
 1402TIP3    H1 4212   5.316   1.616   3.258 -1.3631 -0.0924  0.9024
 1402TIP3    H2 4213   5.356   1.527   3.374 -1.7931 -1.4363  0.0459
 1403TIP3   OH2 4214   3.314   2.686   0.210  0.0524 -0.3138 -0.0290
 1403TIP3    H1 4215   3.389   2.710   0.264  1.3415  1.3735 -2.3576
 1403TIP3    H2 4216   3.344   2.702   0.120 -3.2739  1.0882 -1.0397
 1404TIP3   OH2 4217   1.746   2.559   1.520 -0.6266  0.0827  0.2021
 1404TIP3    H1 4218   1.825   2.574   1.571 -0.0875  0.4029 -0.7234
 1404TIP3    H2 4219   1.774   2.504   1.447 -1.0380  1.0520 -0.7087
 1405TIP3   OH2 4220   0.586   2.625   1.263  0.0171  0.3477 -0.0929
 1405TIP3    H1 4221   0.500   2.618   1.306 -0.2162 -0.2173 -0.6423
 1405TIP3    H2 4222   0.609   2.718   1.271 -0.5123  0.4502  0.3144
 1406TIP3   OH2 4223   6.116   1.602   1.391  0.0847  0.2625 -0.0298
 1406TIP3    H1 4224   6.149   1.654   1.465 -4.1763  0.8081  1.7553
 1406TIP3    H2 4225   6.180   1.617   1.321  2.1475  3.1402  2.2203
 1407TIP3   OH2 4226   3.168   4.987   3.080  0.4785  0.4016 -0.6069
 1407TIP3    H1 4227   3.180   4.893   3.090  1.7771  0.5127 -1.0358
 1407TIP3    H2 4228   3.103   5.010   3.147  0.7607 -0.6553  0.0525
 1408TIP3   OH2 4229   0.804   3.164   2.057  0.1007  0.5843 -0.3602
 1408TIP3    H1 4230   0.708   3.170   2.054  0.0381  0.1245  0.3434
 1408TIP3    H2 4231   0.822   3.116   2.138  0.8813 -0.4295 -1.1158
 1409TIP3   OH2 4232   4.592   1.679   1.224  0.5926  0.8691  0.1344
 1409TIP3    H1 4233   4.499   1.685   1.244  0.0696 -1.8174 -1.0562
 1409TIP3    H2 4234   4.635   1.669   1.309 -0.1696  1.9518  0.6763
 1410TIP3   OH2 4235   5.980   5.851   1.273  0.5813 -0.6038 -0.1317
 1410TIP3    H1 4236   5.908   5.847   1.211  0.0952  0.9602  0.2744
 1410TIP3    H2 4237   6.058   5.830   1.221  0.1989  0.7057 -1.3260
 1411TIP3   OH2 4238   5.496   0.696   1.568  0.1647  0.8681  0.2497
 1411TIP3    H1 4239   5.552   0.767   1.537  1.8548 -0.0576  1.0473
 1411TIP3    H2 4240   5.505   0.628   1.501 -0.0730  0.7401  0.3466
 1412TIP3   OH2 4241   5.518   2.184   3.989 -0.4989  0.8150  0.0376
 1412TIP3    H1 4242   5.426   2.189   4.014  0.2202  0.1621  3.2536
 1412TIP3    H2 4243   5.564   2.233   4.057  1.6910 -0.6489 -0.2992
 1413TIP3   OH2 4244   4.540   5.071   1.589  0.1501  0.2345 -0.3230
 1413TIP3    H1 4245   4.542   5.128   1.512  1.4585  1.8462  0.8324
 1413TIP3    H2 4246   4.605   5.108   1.648  0.2500 -1.8364  0.9711
 1414TIP3   OH2 4247   2.525   1.155   3.993  0.2784  0.0613  0.0063
 1414TIP3    H1 4248   2.578   1.187   4.066  0.6855  0.3503 -0.4081
 1414TIP3    H2 4249   2.551   1.210   3.919  0.0571 -0.3976 -0.4172
 1415TIP3   OH2 4250   3.225   3.899   4.779 -0.2319  0.5910  0.1894
 1415TIP3    H1 4251   3.255   3.833   4.716 -0.0838  2.8058 -2.2024
 1415TIP3    H2 4252   3.250   3.863   4.864  2.5592 -1.0570 -1.1847
 1416TIP3   OH2 4253   5.372   5.168   4.785  0.2171  0.1605  0.3210
 1416TIP3    H1 4254   5.387   5.160   4.879 -0.2084  3.1854  0.7618
 1416TIP3    H2 4255   5.307   5.101   4.765 -1.6187  1.0421  2.7745
 1417TIP3   OH2 4256   6.104   3.249   1.872 -0.1192 -0.2487 -0.1082
 1417TIP3    H1 4257   6.120   3.155   1.864 -0.2347 -0.2887  0.1262
 1417TIP3    H2 4258   6.010   3.257   1.887  0.0045 -0.1476  0.6568
 1418TIP3   OH2 4259   5.930   5.088   3.282  0.4432 -0.0245 -0.3718
 1418TIP3    H1 4260   5.905   5.116   3.370  0.5554 -1.7193  0.2521
 1418TIP3    H2 4261   6.024   5.105   3.278  0.4767 -0.1212 -0.0778
 1419TIP3   OH2 4262   1.550   4.773   3.025 -0.4723  0.1529  0.0016
 1419TIP3    H1 4263   1.471   4.723   3.003 -1.3462  1.2218  0.5814
 1419TIP3    H2 4264   1.554   4.841   2.958  0.2092 -0.1524 -0.2737
 1420TIP3   OH2 4265   5.057   0.346   4.094  0.2386  0.6089 -0.2763
 1420TIP3    H1 4266   5.139   0.392   4.077  1.2434 -1.3101 -0.9389
 1420TIP3    H2 4267   5.074   0.296   4.174 -0.6612  1.0002  0.1723
 1421TIP3   OH2 4268   2.121   5.893   4.495  0.5131  0.1892 -0.2195
 1421TIP3    H1 4269   2.041   5.928   4.455 -0.3419  0.5829  1.7005
 1421TIP3    H2 4270   2.124   5.935   4.581  1.4915 -1.6455  0.6868
 1422TIP3   OH2 4271   2.473   1.955   2.216  0.3647  0.1151  0.0722
 1422TIP3    H1 4272   2.484   1.999   2.132  0.3149  1.3864  0.7088
 1422TIP3    H2 4273   2.485   1.862   2.196  0.2511  0.3807 -1.3492
 1423TIP3   OH2 4274   2.929   1.274   0.837  0.1884 -0.1981 -0.0576
 1423TIP3    H1 4275   2.978   1.350   0.870 -2.3724  1.5733  0.0363
 1423TIP3    H2 4276   2.851   1.271   0.893 -1.0227 -1.2807 -1.7176
 1424TIP3   OH2 4277   2.293   5.684   0.725  0.1562  0.1348 -0.1380
 1424TIP3    H1 4278   2.265   5.755   0.783  0.1800 -1.9463  2.6165
 1424TIP3    H2 4279   2.358   5.635   0.776  0.3914 -1.6897 -2.0413
 1425TIP3   OH2 4280   5.164   1.205   0.789  0.1780 -0.1649 -0.0458
 1425TIP3    H1 4281   5.191   1.294   0.814 -0.3866 -0.1317  0.4513
 1425TIP3    H2 4282   5.134   1.165   0.870  0.4730 -0.8343 -0.2605
 1426TIP3   OH2 4283   0.433   2.550   0.656  0.4391 -0.5375 -0.2216
 1426TIP3    H1 4284   0.368   2.561   0.587  0.7888 -0.4632 -0.5437
 1426TIP3    H2 4285   0.516   2.571   0.614  0.4074  2.3322  0.9162
 1427TIP3   OH2 4286   5.292   5.544   3.353 -0.8844 -0.1845 -0.5692
 1427TIP3    H1 4287   5.207   5.583   3.337 -1.9366 -2.2722 -0.4760
 1427TIP3    H2 4288   5.306   5.555   3.447 -1.5619 -0.7061 -0.3930
 1428TIP3   OH2 4289   0.022   5.219   4.773  0.6215  0.1524  0.0261
 1428TIP3    H1 4290   0.028   5.296   4.829  1.0070 -1.7305  2.7734
 1428TIP3    H2 4291   0.079   5.155   4.815 -0.9593 -2.1830 -1.1725
 1429TIP3   OH2 4292   4.496   5.507   3.759 -0.4725  0.4312  0.8314
 1429TIP3    H1 4293   4.556   5.552   3.699 -2.3852  1.2219 -0.5978
 1429TIP3    H2 4294   4.547   5.495   3.839  1.5809  1.0311 -0.3029
 1430TIP3   OH2 4295   0.559   0.006   1.697 -0.2333 -0.4931  0.0593
 1430TIP3    H1 4296   0.540  -0.038   1.614  1.2582 -0.6281 -0.2396
 1430TIP3    H2 4297   0.491   0.073   1.705 -0.6329 -0.7389 -1.0834
 1431TIP3   OH2 4298   2.285   3.016   3.027 -0.4326  0.6325  0.0479
 1431TIP3    H1 4299   2.220   3.015   2.957  0.5777 -1.9173 -0.9399
 1431TIP3    H2 4300   2.256   2.948   3.088  1.7353 -1.2924 -0.9268
 1432TIP3   OH2 4301   0.586   5.829   5.155 -0.3562  0.3086 -0.1156
 1432TIP3    H1 4302   0.564   5.753   5.100 -0.8703 -0.3152  0.9165
 1432TIP3    H2 4303   0.554   5.805   5.242 -0.7801  1.8477  0.1666
 1433TIP3   OH2 4304   0.478   5.211   0.101  0.0071  0.0636 -0.4041
 1433TIP3    H1 4305   0.546   5.167   0.153  2.3809  1.4954 -2.0927
 1433TIP3    H2 4306   0.446   5.281   0.159  1.5317  0.6980 -0.2722
 1434TIP3   OH2 4307   1.995   3.225   4.373 -0.1288 -0.1938  0.0070
 1434TIP3    H1 4308   1.921   3.239   4.313 -1.4656 -0.0411  1.6129
 1434TIP3    H2 4309   1.979   3.286   4.445  1.1003 -0.7806  0.8106
 1435TIP3   OH2 4310   0.104   4.837   2.312 -0.4534  0.0651 -0.1828
 1435TIP3    H1 4311   0.181   4.887   2.285  1.4457 -2.1953  0.7088
 1435TIP3    H2 4312   0.136   4.748   2.325 -2.9931 -0.7478  1.3507
 1436TIP3   OH2 4313   3.197   4.734   4.769 -0.1395  0.2591  0.0492
 1436TIP3    H1 4314   3.153   4.675   4.708  1.5523 -2.0735  0.9571
 1436TIP3    H2 4315   3.179   4.822   4.734  1.6805 -0.8969 -4.4887
 1437TIP3   OH2 4316   3.250   1.836   4.190  0.0983  0.7439  0.1686
 1437TIP3    H1 4317   3.344   1.833   4.173 -0.2770 -0.6716 -2.0055
 1437TIP3    H2 4318   3.213   1.768   4.134 -1.9257 -0.9795  3.2590
 1438TIP3   OH2 4319   2.834   3.237   1.892 -0.3033  0.2968  0.4473
 1438TIP3    H1 4320   2.888   3.310   1.922  0.5414 -0.4100  0.6994
 1438TIP3    H2 4321   2.753   3.244   1.944  0.7480 -0.3489  2.2624
 1439TIP3   OH2 4322   2.162   2.203   2.346 -0.6263 -0.8713  0.0954
 1439TIP3    H1 4323   2.184   2.111   2.357  0.5949 -0.6865 -0.5527
 1439TIP3    H2 4324   2.247   2.248   2.343 -1.1978  0.2867  0.5060
 1440TIP3   OH2 4325   4.523   2.080   3.807 -0.1268 -0.2162 -0.5451
 1440TIP3    H1 4326   4.545   2.171   3.789  1.6173 -0.4991  0.0301
 1440TIP3    H2 4327   4.487   2.081   3.896  0.3837 -0.1643 -0.3408
 1441TIP3   OH2 4328   3.732   1.056   1.652 -0.1982 -0.1876  0.2074
 1441TIP3    H1 4329   3.824   1.034   1.640  0.0325  0.3498  0.9728
 1441TIP3    H2 4330   3.723   1.145   1.619 -0.3376 -0.0538  0.6009
 1442TIP3   OH2 4331  -0.032   2.088   4.630 -0.3703  0.0590  0.6356
 1442TIP3    H1 4332   0.024   2.114   4.703 -2.1512 -0.3198  2.2080
 1442TIP3    H2 4333   0.012   2.123   4.553  2.1731 -0.4854  1.7313
 1443TIP3   OH2 4334   0.021   3.520   0.849  0.0691  0.0368 -0.7106
 1443TIP3    H1 4335  -0.009   3.595   0.900 -0.7359 -0.7144 -0.0435
 1443TIP3    H2 4336   0.011   3.548   0.758 -0.3505  0.6871 -0.4721
 1444TIP3   OH2 4337   5.132   4.311   5.071 -0.7419 -0.0373 -0.1298
 1444TIP3    H1 4338   5.214   4.301   5.120 -0.1074 -0.8031 -1.3022
 1444TIP3    H2 4339   5.067   4.333   5.138 -0.0535 -1.7105  1.1713
 1445TIP3   OH2 4340   2.003   2.335   2.167  0.2013 -0.4256  0.1794
 1445TIP3    H1 4341   2.057   2.284   2.228  1.0273  0.9530  0.6468
 1445TIP3    H2 4342   2.045   2.421   2.165  0.5754 -0.5912 -2.8201
 1446TIP3   OH2 4343   4.072   5.025   2.557 -0.0270  0.0258 -0.0516
 1446TIP3    H1 4344   4.039   5.077   2.630 -0.5616 -0.0412 -0.2397
 1446TIP3    H2 4345   4.128   4.959   2.597  0.3180  0.4840  0.2257
 1447TIP3   OH2 4346   6.249   2.301   3.692  0.3281  0.3781 -0.2951
 1447TIP3    H1 4347   6.229   2.373   3.632 -0.6739  0.6963  0.3824
 1447TIP3    H2 4348   6.163   2.267   3.717  0.7521 -0.1382  0.4893
 1448TIP3   OH2 4349   0.045   5.986   4.729 -0.5541 -0.2610 -0.1419
 1448TIP3    H1 4350   0.091   5.910   4.764 -1.3477 -0.6860  0.0055
 1448TIP3    H2 4351  -0.033   5.950   4.686 -0.4690  0.3926 -0.8857
 1449TIP3   OH2 4352   4.204   0.620   4.321 -0.2459 -0.0589  0.3461
 1449TIP3    H1 4353   4.220   0.532   4.354  1.7763 -0.1712 -0.7500
 1449TIP3    H2 4354   4.113   0.619   4.292 -1.1198 -0.8911  2.8834
 1450TIP3   OH2 4355   4.229   1.416   4.403  0.3322 -0.3389 -0.1054
 1450TIP3    H1 4356   4.311   1.365   4.400  1.4526  1.2999  1.0505
 1450TIP3    H2 4357   4.255   1.504   4.375 -1.8169 -0.5945 -3.3277
 1451TIP3   OH2 4358   1.927   3.177   0.219 -0.1899 -1.0640  0.3293
 1451TIP3    H1 4359   1.995   3.144   0.277  0.4975 -1.0109 -0.4226
 1451TIP3    H2 4360   1.940   3.129   0.137  0.9238  1.0761 -0.8511
 1452TIP3   OH2 4361   3.535   2.889   3.072 -0.2202  0.0827 -0.4316
 1452TIP3    H1 4362   3.594   2.832   3.121  0.8305 -1.4019 -3.2439
 1452TIP3    H2 4363   3.447   2.863   3.102  0.3690  0.0701  1.4366
 1453TIP3   OH2 4364   5.384   4.472   5.130 -0.6435  0.3922  0.0871
 1453TIP3    H1 4365   5.389   4.383   5.165  0.4448  1.4170  2.7946
 1453TIP3    H2 4366   5.470   4.487   5.090 -0.3831  0.6332  0.7317
 1454TIP3   OH2 4367   5.957   5.023   2.062 -0.2453  0.0399 -0.3038
 1454TIP3    H1 4368   5.973   5.104   2.014  2.9790  0.3591  1.0713
 1454TIP3    H2 4369   5.986   4.954   2.002  1.9551  0.3201  0.3473
 1455TIP3   OH2 4370   6.160   0.221   2.743 -0.1467 -0.3025 -0.1974
 1455TIP3    H1 4371   6.074   0.187   2.720 -0.2805 -1.3267  1.6424
 1455TIP3    H2 4372   6.158   0.229   2.838  0.8734  2.2709 -0.3131
 1456TIP3   OH2 4373   3.587   3.050   1.944  0.3722 -0.3266 -0.1910
 1456TIP3    H1 4374   3.526   3.053   2.018 -2.3497 -1.0507 -2.2058
 1456TIP3    H2 4375   3.580   3.137   1.904  1.2950 -0.1567  0.0098
 1457TIP3   OH2 4376   1.123   1.375   2.912  0.1943 -0.0927 -0.0797
 1457TIP3    H1 4377   1.154   1.320   2.985  0.9444  1.0910  0.5383
 1457TIP3    H2 4378   1.190   1.443   2.904 -0.1850  0.1376 -1.5052
 1458TIP3   OH2 4379   5.757   1.775   2.846 -0.0712  0.1950  0.0475
 1458TIP3    H1 4380   5.767   1.701   2.904  0.7846 -0.2444 -0.6319
 1458TIP3    H2 4381   5.693   1.832   2.889 -1.3685 -1.3188  0.1775
 1459TIP3   OH2 4382   2.480   5.860   1.075  0.2640 -0.0607 -0.5852
 1459TIP3    H1 4383   2.462   5.893   0.987  1.0784 -0.8504 -1.0682
 1459TIP3    H2 4384   2.395   5.861   1.118 -0.3334 -0.5232 -1.6909
 1460TIP3   OH2 4385   3.746   5.747   4.839  0.4809 -0.8367  0.1080
 1460TIP3    H1 4386   3.660   5.787   4.851 -0.2734 -2.5504  0.7506
 1460TIP3    H2 4387   3.798   5.780   4.912  0.2406 -0.1602 -0.0151
 1461TIP3   OH2 4388   5.236   1.325   4.075  0.4056 -0.2443 -0.1875
 1461TIP3    H1 4389   5.186   1.326   4.157 -0.0245  1.1369 -0.4402
 1461TIP3    H2 4390   5.323   1.355   4.100  0.7454 -1.3695  0.0234
 1462TIP3   OH2 4391   5.777   4.152   2.356  0.5589 -0.8426  0.1974
 1462TIP3    H1 4392   5.825   4.070   2.361  1.2178 -0.9269 -3.8095
 1462TIP3    H2 4393   5.720   4.142   2.280 -1.6298  1.3619  1.3972
 1463TIP3   OH2 4394   0.793   2.887   2.543 -0.2481  0.0569  0.0418
 1463TIP3    H1 4395   0.825   2.873   2.454  2.0104  1.2424  0.5985
 1463TIP3    H2 4396   0.796   2.800   2.584  0.5604 -0.1754 -0.4873
 1464TIP3   OH2 4397   3.220   0.870   4.791 -0.0524 -0.4522  0.1926
 1464TIP3    H1 4398   3.201   0.777   4.782  0.5873 -0.4319 -1.7864
 1464TIP3    H2 4399   3.206   0.888   4.884 -2.1691 -2.0412  0.2541
 1465TIP3   OH2 4400   1.059   2.323   0.800 -0.1883 -0.4834  0.6051
 1465TIP3    H1 4401   1.111   2.287   0.873 -0.0790  1.8243  1.7314
 1465TIP3    H2 4402   1.056   2.417   0.816 -2.4981 -0.2266 -0.9158
 1466TIP3   OH2 4403   1.342   4.627   4.106  0.0855  0.3610 -0.3891
 1466TIP3    H1 4404   1.394   4.704   4.083  0.9237 -0.3607 -0.9826
 1466TIP3    H2 4405   1.319   4.587   4.022 -0.2872 -0.0663 -0.0870
 1467TIP3   OH2 4406   2.490   2.558   4.709  0.0706  0.2643  0.4145
 1467TIP3    H1 4407   2.534   2.510   4.779  1.5712 -0.5839 -1.0270
 1467TIP3    H2 4408   2.467   2.490   4.645  0.3351  1.1894 -0.6998
 1468TIP3   OH2 4409   0.817   4.577   2.763 -0.0976 -0.1527  0.3927
 1468TIP3    H1 4410   0.875   4.531   2.702 -0.6248 -0.3504  0.0350
 1468TIP3    H2 4411   0.731   4.538   2.749 -0.4876  0.7111  0.3259
 1469TIP3   OH2 4412   0.143   3.065   1.429 -0.2486  0.1020 -0.0753
 1469TIP3    H1 4413   0.219   3.047   1.374 -1.5862 -1.8071 -1.4121
 1469TIP3    H2 4414   0.129   3.159   1.421  2.2263  0.5804  0.6117
 1470TIP3   OH2 4415   1.607   0.513   3.057  0.0792  0.0521  0.2541
 1470TIP3    H1 4416   1.688   0.540   3.013 -0.1969  0.5158  0.0173
 1470TIP3    H2 4417   1.624   0.423   3.086  0.3537 -0.1867 -0.6099
 1471TIP3   OH2 4418   3.344   2.472   1.481 -0.6316 -0.7169  0.0612
 1471TIP3    H1 4419   3.348   2.455   1.387 -0.6658 -1.1389  0.1365
 1471TIP3    H2 4420   3.435   2.474   1.509 -0.3518  2.9710 -0.5996
 1472TIP3   OH2 4421   5.821   0.172   4.111 -0.0262 -0.0371 -0.0660
 1472TIP3    H1 4422   5.800   0.185   4.203  1.6411  0.8514  0.2264
 1472TIP3    H2 4423   5.776   0.243   4.065  0.5198  0.5314  0.2758
 1473TIP3   OH2 4424   0.567   5.972   0.391  0.3681 -0.0735  0.0826
 1473TIP3    H1 4425   0.492   6.031   0.403 -0.7831 -0.8158 -2.6475
 1473TIP3    H2 4426   0.537   5.888   0.425  0.1329 -0.2368 -0.5104
 1474TIP3   OH2 4427   3.336   2.853   1.966  0.0701  0.1474  0.1836
 1474TIP3    H1 4428   3.326   2.939   1.926 -0.2379 -0.4401 -1.0598
 1474TIP3    H2 4429   3.283   2.795   1.910  1.2308 -1.0539  0.2868
 1475TIP3   OH2 4430   0.507   3.207   0.240  0.5356 -0.3141 -0.7662
 1475TIP3    H1 4431   0.417   3.237   0.244  0.6641  0.0179 -0.3527
 1475TIP3    H2 4432   0.532   3.192   0.331  0.7644 -0.8078 -0.9049
 1476TIP3   OH2 4433   0.127   4.833   4.621 -0.0357 -0.4703  0.0352
 1476TIP3    H1 4434   0.159   4.911   4.666 -0.5579 -0.0278 -0.3471
 1476TIP3    H2 4435   0.187   4.763   4.648  1.6545  0.4443 -1.1627
 1477TIP3   OH2 4436   1.346   1.588   2.966  0.2441 -0.1029 -0.6245
 1477TIP3    H1 4437   1.298   1.671   2.971 -1.6114 -1.1536 -0.2174
 1477TIP3    H2 4438   1.393   1.593   2.882 -0.3968  1.0665 -0.9427
 1478TIP3   OH2 4439   3.231   4.886   1.477 -0.4314 -0.1873  0.0183
 1478TIP3    H1 4440   3.177   4.811   1.503  0.3224 -0.2216  1.5847
 1478TIP3    H2 4441   3.213   4.952   1.544  2.3238 -0.6149  1.2896
 1479TIP3   OH2 4442   1.088   5.084   2.889  0.2177 -0.1695  0.1016
 1479TIP3    H1 4443   1.050   5.171   2.903  1.2759  0.5002 -1.0042
 1479TIP3    H2 4444   1.163   5.080   2.949  0.6573  0.0154 -0.4261
 1480TIP3   OH2 4445   0.220   1.334   3.460  0.6593  0.0376 -0.2340
 1480TIP3    H1 4446   0.307   1.344   3.498 -0.1409  0.7570  1.4651
 1480TIP3    H2 4447   0.216   1.402   3.393  1.7139 -0.5892 -0.9734
 1481TIP3   OH2 4448   2.970   5.916   2.619 -0.2976 -0.8400  0.0805
 1481TIP3    H1 4449   2.895   5.928   2.561  0.0718  1.5458  0.0027
 1481TIP3    H2 4450   2.961   5.827   2.652 -2.3911 -1.0798 -0.9897
 1482TIP3   OH2 4451   3.257  -0.013   3.219  0.5270 -0.0313 -0.2325
 1482TIP3    H1 4452   3.301  -0.024   3.303 -0.0546  0.2677  0.1161
 1482TIP3    H2 4453   3.236   0.080   3.214  1.2305  0.1014 -1.0585
 1483TIP3   OH2 4454   1.438   2.347   2.477 -0.1474  0.1809 -0.1940
 1483TIP3    H1 4455   1.525   2.321   2.446  0.1891  0.1470  0.7649
 1483TIP3    H2 4456   1.379   2.323   2.405  0.5548 -0.3830 -0.5906
 1484TIP3   OH2 4457   3.911   4.522   2.972 -0.0177 -0.1335  0.1151
 1484TIP3    H1 4458   3.868   4.576   2.907  0.4343 -0.9769 -0.9128
 1484TIP3    H2 4459   3.900   4.570   3.054 -4.4389 -1.1103  0.3239
 1485TIP3   OH2 4460   0.420   1.018   4.969  0.2272  0.1651  0.2256
 1485TIP3    H1 4461   0.446   1.064   4.889  0.4904  0.8089  0.6710
 1485TIP3    H2 4462   0.364   0.947   4.938  0.6001  0.1902 -0.5599
 1486TIP3   OH2 4463   1.450   3.602   2.010  0.7501 -0.2373 -0.3071
 1486TIP3    H1 4464   1.480   3.524   1.963 -0.3209 -1.2932  0.6674
 1486TIP3    H2 4465   1.369   3.627   1.965  1.9633  1.4084 -1.6999
 1487TIP3   OH2 4466   1.244   5.112   0.129 -0.1707  0.5935 -0.1943
 1487TIP3    H1 4467   1.295   5.150   0.057 -0.3893 -0.4532 -0.9353
 1487TIP3    H2 4468   1.304   5.048   0.169  0.0131  1.3025  0.6825
 1488TIP3   OH2 4469   1.905   4.333   1.930 -0.5096  0.1574 -0.1640
 1488TIP3    H1 4470   1.980   4.388   1.907 -0.3567  0.2737  0.5608
 1488TIP3    H2 4471   1.847   4.392   1.980 -0.2800 -0.3659  0.7451
 1489TIP3   OH2 4472   4.464   1.636   4.884 -0.1719  0.2545  0.9026
 1489TIP3    H1 4473   4.427   1.596   4.805  1.3854  1.5858 -0.5887
 1489TIP3    H2 4474   4.414   1.717   4.896  1.6506  1.7179 -0.7267
 1490TIP3   OH2 4475   4.393   3.294   4.280 -0.2640 -0.2339 -0.1561
 1490TIP3    H1 4476   4.309   3.287   4.325  1.0232 -2.0847  2.2277
 1490TIP3    H2 4477   4.458   3.285   4.350  1.9257 -0.4771 -2.0981
 1491TIP3   OH2 4478   0.746   5.124   4.641 -0.1483  0.0514  0.3431
 1491TIP3    H1 4479   0.662   5.080   4.653  0.1806 -0.3494  1.2185
 1491TIP3    H2 4480   0.747   5.192   4.708  0.3118 -0.0798  0.4720
 1492TIP3   OH2 4481   5.954   1.024   2.094 -0.2842 -0.2498 -0.2152
 1492TIP3    H1 4482   5.865   1.057   2.104 -0.4120  0.3829 -2.7952
 1492TIP3    H2 4483   5.945   0.948   2.037  0.3303 -3.4229  3.4922
 1493TIP3   OH2 4484   2.538   1.976   4.372 -0.0807  0.4228  0.1310
 1493TIP3    H1 4485   2.479   2.021   4.431 -2.2123 -0.5164 -1.1766
 1493TIP3    H2 4486   2.533   2.026   4.290 -0.0867 -0.4117 -0.3891
 1494TIP3   OH2 4487   1.645   2.107   1.828  0.2400  0.0304 -0.2388
 1494TIP3    H1 4488   1.665   2.052   1.904 -1.0109  0.9641  0.8149
 1494TIP3    H2 4489   1.651   2.048   1.753  0.4046 -1.1859  0.7044
 1495TIP3   OH2 4490   2.514   4.857   4.630  0.4446 -0.3315  0.2890
 1495TIP3    H1 4491   2.489   4.883   4.718  0.8535  0.4265  0.1952
 1495TIP3    H2 4492   2.440   4.807   4.597 -0.6333  1.2171  0.2840
 1496TIP3   OH2 4493   4.797   1.385   2.820  0.0240  0.0168  0.0744
 1496TIP3    H1 4494   4.748   1.441   2.759  3.6793  0.9822 -2.2848
 1496TIP3    H2 4495   4.802   1.435   2.901 -0.2750  1.2598 -0.6560
 1497TIP3   OH2 4496   1.158   1.500   1.749  0.3674  0.2080  0.1506
 1497TIP3    H1 4497   1.154   1.409   1.721 -1.8403  0.1252  0.5338
 1497TIP3    H2 4498   1.137   1.497   1.842 -0.9463  1.1815 -0.0843
 1498TIP3   OH2 4499   2.273   4.580   2.689 -0.4127 -0.3608 -0.4160
 1498TIP3    H1 4500   2.201   4.642   2.678  0.9814  1.2577 -0.6959
 1498TIP3    H2 4501   2.307   4.567   2.601 -0.3447 -1.1285 -0.2812
 1499TIP3   OH2 4502   4.468   0.342   2.661  0.0197 -0.3293 -0.2073
 1499TIP3    H1 4503   4.419   0.374   2.737  0.6866  1.7976 -0.6208
 1499TIP3    H2 4504   4.525   0.274   2.696 -0.9817 -0.6549  0.8452
 1500TIP3   OH2 4505   5.420   1.285   3.228  0.0178 -0.4371 -0.1940
 1500TIP3    H1 4506   5.419   1.381   3.234 -0.0556 -0.4441 -0.0942
 1500TIP3    H2 4507   5.352   1.256   3.288 -1.6059 -0.4678 -1.9510
 1501TIP3   OH2 4508   1.095   3.218   3.376  0.6032  0.0322 -0.2470
 1501TIP3    H1 4509   1.036   3.202   3.450 -0.3272 -0.8151 -1.1413
 1501TIP3    H2 4510   1.182   3.205   3.413  0.3083  1.8083  1.2219
 1502TIP3   OH2 4511   4.472   4.921   1.172  0.6399  0.0051  0.2110
 1502TIP3    H1 4512   4.562   4.943   1.146  0.7250  1.1283  1.3496
 1502TIP3    H2 4513   4.468   4.943   1.265 -0.5331 -0.9891  0.4141
 1503TIP3   OH2 4514   4.661   4.645   1.766 -0.3438 -0.0276 -0.0195
 1503TIP3    H1 4515   4.572   4.678   1.755  0.2298  2.4424  2.0336
 1503TIP3    H2 4516   4.717   4.713   1.729  0.7746 -0.7882  0.2010
 1504TIP3   OH2 4517   0.237   5.909   0.304 -0.3102  0.5771 -0.1998
 1504TIP3    H1 4518   0.294   5.840   0.340 -2.0876 -0.0871  1.4923
 1504TIP3    H2 4519   0.291   5.988   0.309  1.7306 -0.5682 -2.0354
 1505TIP3   OH2 4520   1.457   1.189   4.200  0.3782 -0.0678 -0.0670
 1505TIP3    H1 4521   1.395   1.156   4.265 -0.3589  1.7262  0.1963
 1505TIP3    H2 4522   1.540   1.194   4.246 -0.0520  0.7974  0.6396
 1506TIP3   OH2 4523   0.752   5.101   4.358 -0.1628  0.1483  0.0206
 1506TIP3    H1 4524   0.777   5.097   4.450  1.8209 -1.9002 -0.5387
 1506TIP3    H2 4525   0.746   5.010   4.330  0.5903  0.7130 -2.1928
 1507TIP3   OH2 4526   1.281   4.889   4.624  0.0779 -0.4691 -0.5018
 1507TIP3    H1 4527   1.199   4.924   4.659  0.1869 -1.3203  0.6822
 1507TIP3    H2 4528   1.347   4.953   4.649  0.1431 -1.0391  0.8631
 1508TIP3   OH2 4529   4.826   2.891   2.899  0.0713 -0.8179 -0.1439
 1508TIP3    H1 4530   4.901   2.834   2.880  0.8367 -0.2612  1.0681
 1508TIP3    H2 4531   4.837   2.966   2.841  0.9732 -0.3168  0.6513
 1509TIP3   OH2 4532   2.483   2.416   0.153  0.6695  0.0070 -0.4779
 1509TIP3    H1 4533   2.432   2.383   0.227  0.7244 -3.0016 -1.6528
 1509TIP3    H2 4534   2.570   2.430   0.189  0.4703 -0.5367  0.2498
 1510TIP3   OH2 4535   1.257   2.277   2.263 -0.5043 -0.0751 -0.1306
 1510TIP3    H1 4536   1.320   2.303   2.196 -0.7394  1.8335  0.3265
 1510TIP3    H2 4537   1.188   2.343   2.257 -0.8300 -0.2221  1.5828
 1511TIP3   OH2 4538   5.257   0.529   4.128 -0.1446  0.3623 -0.7449
 1511TIP3    H1 4539   5.290   0.611   4.091 -0.8758  0.3736 -1.4065
 1511TIP3    H2 4540   5.253   0.546   4.222 -0.0745  1.0148 -0.8493
 1512TIP3   OH2 4541   3.405   5.703   2.375  0.1422  0.3583  0.2097
 1512TIP3    H1 4542   3.347   5.635   2.408  1.0235 -0.4493  0.1223
 1512TIP3    H2 4543   3.378   5.716   2.284 -1.6852  1.9389  0.9073
 1513TIP3   OH2 4544   2.243   1.704   0.416 -0.0753  0.0225 -0.1647
 1513TIP3    H1 4545   2.219   1.765   0.346 -0.0668  0.8736  0.5491
 1513TIP3    H2 4546   2.222   1.618   0.381 -0.3369  0.4486 -1.1053
 1514TIP3   OH2 4547   5.340   5.875   2.869  0.8610  0.9123  0.4175
 1514TIP3    H1 4548   5.423   5.843   2.905  0.5433  2.1284  2.3412
 1514TIP3    H2 4549   5.365   5.949   2.814  1.1979  0.0593 -0.6191
 1515TIP3   OH2 4550   3.991   1.748   3.572  0.0398  0.2308 -0.1259
 1515TIP3    H1 4551   3.994   1.787   3.660  0.2224  0.6127 -0.2992
 1515TIP3    H2 4552   4.082   1.723   3.554  0.0628  0.4696 -0.3454
 1516TIP3   OH2 4553   6.096   1.609   3.512  0.1532 -0.6341 -0.4170
 1516TIP3    H1 4554   6.112   1.533   3.455 -0.6413 -1.2112  0.0974
 1516TIP3    H2 4555   6.053   1.673   3.456 -1.0643 -1.3818 -0.4024
 1517TIP3   OH2 4556   2.108   3.551   2.128  0.5354  0.3856 -0.0717
 1517TIP3    H1 4557   2.021   3.546   2.167  0.7263  1.2704  0.5098
 1517TIP3    H2 4558   2.161   3.490   2.179  0.7638  1.4727  1.0547
 1518TIP3   OH2 4559   3.780   0.681   1.517 -0.0021  0.1044 -0.4528
 1518TIP3    H1 4560   3.769   0.750   1.451 -1.6751  0.3134  0.0111
 1518TIP3    H2 4561   3.799   0.602   1.466  0.0829  0.5359 -1.1037
 1519TIP3   OH2 4562   5.083   1.677   1.816  0.3349 -0.3269 -0.4052
 1519TIP3    H1 4563   5.088   1.771   1.835 -0.0455 -0.0151 -1.7327
 1519TIP3    H2 4564   5.034   1.640   1.889 -2.6016  1.0787 -1.4933
 1520TIP3   OH2 4565   5.906   0.280   0.089 -0.0395  0.3291  0.1564
 1520TIP3    H1 4566   5.814   0.287   0.063 -0.2423 -3.9513 -0.9701
 1520TIP3    H2 4567   5.905   0.289   0.184 -1.9297 -1.1435  0.3411
 1521TIP3   OH2 4568   2.860   0.329   0.472 -0.1822 -0.0585 -0.0333
 1521TIP3    H1 4569   2.938   0.349   0.524 -0.8195 -0.6539  1.2006
 1521TIP3    H2 4570   2.793   0.308   0.537 -1.0646 -0.6702 -1.1083
 1522TIP3   OH2 4571   6.054   4.773   4.353  0.1835 -0.5459 -0.0476
 1522TIP3    H1 4572   6.001   4.832   4.300  1.6228 -0.5761 -1.6088
 1522TIP3    H2 4573   6.044   4.806   4.443  0.0164  1.3639 -0.7105
 1523TIP3   OH2 4574   0.494   5.268   2.243  0.5984  0.1026 -0.6142
 1523TIP3    H1 4575   0.527   5.351   2.209  2.3592 -0.4601 -0.3780
 1523TIP3    H2 4576   0.534   5.260   2.329  2.1143 -1.9047 -1.4323
 1524TIP3   OH2 4577   1.930   2.779   2.886 -0.2449 -0.1667 -0.2872
 1524TIP3    H1 4578   1.856   2.726   2.855  0.4227 -1.8525  0.8673
 1524TIP3    H2 4579   1.984   2.718   2.936  0.6982  1.5771  0.9165
 1525TIP3   OH2 4580   4.537   1.386   3.046  0.1018 -1.1304 -0.1799
 1525TIP3    H1 4581   4.521   1.356   2.957  1.0455 -0.0086 -0.7433
 1525TIP3    H2 4582   4.462   1.442   3.067  0.5669 -0.2655 -0.7963
 1526TIP3   OH2 4583   1.441   3.112   4.023 -0.2713 -0.0669 -0.1830
 1526TIP3    H1 4584   1.467   3.021   4.038 -2.0216 -0.5256  0.2386
 1526TIP3    H2 4585   1.366   3.106   3.964  0.9011  1.2575 -1.9409
 1527TIP3   OH2 4586   4.688   3.659   2.007 -0.1214  0.4206 -0.2550
 1527TIP3    H1 4587   4.744   3.735   1.994 -0.2836  0.3486 -1.5128
 1527TIP3    H2 4588   4.608   3.680   1.959 -1.0454  0.3673  1.2104
 1528TIP3   OH2 4589   6.138   3.792   0.087 -0.3949 -0.1644 -0.0664
 1528TIP3    H1 4590   6.215   3.839   0.119  0.3867 -1.2691 -0.2642
 1528TIP3    H2 4591   6.162   3.766  -0.003 -0.4829 -1.5874  0.2998
 1529TIP3   OH2 4592   4.026   3.129   1.756  0.3179 -0.6730 -0.1726
 1529TIP3    H1 4593   4.104   3.184   1.754  3.0385 -4.2185 -1.1372
 1529TIP3    H2 4594   3.992   3.131   1.666 -1.0274  1.0992  0.3106
 1530TIP3   OH2 4595   4.873   0.071   0.494 -0.4681 -0.2390 -0.9074
 1530TIP3    H1 4596   4.818   0.014   0.548 -0.3749  0.9314  0.4878
 1530TIP3    H2 4597   4.812   0.131   0.452 -0.3732  0.2300 -0.3833
 1531TIP3   OH2 4598   1.232   4.077   3.433 -0.6530  0.5052  0.1615
 1531TIP3    H1 4599   1.245   4.110   3.344 -0.1322  0.1356  0.0961
 1531TIP3    H2 4600   1.291   4.002   3.439 -1.0165  0.2595  0.6736
 1532TIP3   OH2 4601   2.654   4.449   4.339  0.2259 -0.5289  0.3364
 1532TIP3    H1 4602   2.588   4.452   4.408  1.5850 -0.5783  1.6917
 1532TIP3    H2 4603   2.611   4.489   4.263 -1.9119 -2.0619  0.6300
 1533TIP3   OH2 4604   5.735   5.577   2.346 -0.1428  0.4017  0.9002
 1533TIP3    H1 4605   5.729   5.657   2.293 -0.5532  0.1705  0.5958
 1533TIP3    H2 4606   5.648   5.538   2.340  0.9074 -1.8715 -1.7314
 1534TIP3   OH2 4607   3.224   3.459   2.584 -0.0978  0.0171  0.3909
 1534TIP3    H1 4608   3.131   3.453   2.604 -0.1526  0.1484  0.1779
 1534TIP3    H2 4609   3.228   3.470   2.489  0.0769  1.2232  0.5183
 1535TIP3   OH2 4610   5.778   1.194   3.788  0.1361 -0.4388  0.8685
 1535TIP3    H1 4611   5.771   1.202   3.883 -0.2947  0.0874  0.8008
 1535TIP3    H2 4612   5.844   1.259   3.763 -1.5385  1.2276  0.5706
 1536TIP3   OH2 4613   0.891   3.573   4.123  0.1548 -0.5271 -0.3249
 1536TIP3    H1 4614   0.847   3.515   4.185 -0.7890  0.5120  0.0043
 1536TIP3    H2 4615   0.829   3.644   4.108  0.9738  0.0098 -1.3193
 1537TIP3   OH2 4616   4.060   3.465   4.604  0.5283 -0.4560  0.4051
 1537TIP3    H1 4617   4.076   3.536   4.542  1.7128 -1.2791 -0.2683
 1537TIP3    H2 4618   3.978   3.426   4.575  0.9383 -0.6646 -0.4793
 1538TIP3   OH2 4619   4.559   1.262   1.381  0.3959  0.2306  0.6107
 1538TIP3    H1 4620   4.551   1.204   1.457 -0.1992  1.6487  1.6935
 1538TIP3    H2 4621   4.472   1.300   1.370  0.3056 -0.4083 -1.2109
 1539TIP3   OH2 4622   6.150   3.834   4.021 -0.0802 -0.2767  0.0437
 1539TIP3    H1 4623   6.133   3.927   4.038  1.3626 -0.0380  0.3058
 1539TIP3    H2 4624   6.117   3.789   4.099 -0.1896  0.0865  0.2092
 1540TIP3   OH2 4625   3.484   1.404   3.863  0.3485 -0.3933  0.2949
 1540TIP3    H1 4626   3.475   1.450   3.780  1.3379 -1.6331 -0.5453
 1540TIP3    H2 4627   3.507   1.314   3.838 -0.3348 -1.0548  1.8896
 1541TIP3   OH2 4628   0.164   2.971   0.835  0.5299  0.0312 -0.0723
 1541TIP3    H1 4629   0.135   3.062   0.847  1.7267  0.2022  2.0058
 1541TIP3    H2 4630   0.243   2.979   0.782  0.3822  0.1465 -0.2807
 1542TIP3   OH2 4631   3.384   3.206   2.371 -0.3767  0.6397  0.0666
 1542TIP3    H1 4632   3.380   3.243   2.459 -0.7729  1.5988 -0.3347
 1542TIP3    H2 4633   3.477   3.200   2.351 -0.2205 -0.9819  1.0973
 1543TIP3   OH2 4634   2.140   5.053   0.843 -0.4592  0.1647  0.0405
 1543TIP3    H1 4635   2.145   5.095   0.929  0.6870  0.9235 -0.3728
 1543TIP3    H2 4636   2.157   4.960   0.861  0.0879  0.3697  0.6037
 1544TIP3   OH2 4637   5.912   0.771   4.855  0.2831 -0.3493 -0.5540
 1544TIP3    H1 4638   5.837   0.726   4.894  0.4218 -1.4273 -1.4779
 1544TIP3    H2 4639   5.880   0.802   4.770  0.2205  1.2313  0.0322
 1545TIP3   OH2 4640   1.132   0.194   4.110  0.1343 -0.5289  0.0346
 1545TIP3    H1 4641   1.061   0.172   4.170  1.0532  1.9503  2.2206
 1545TIP3    H2 4642   1.187   0.116   4.107 -1.2702 -1.5572  0.3940
 1546TIP3   OH2 4643   2.902   1.481   4.647  0.6519  0.2680 -0.3477
 1546TIP3    H1 4644   2.953   1.559   4.624  1.3536 -0.0488  0.0718
 1546TIP3    H2 4645   2.897   1.483   4.742  2.7976 -1.4283 -0.0937
 1547TIP3   OH2 4646   1.002   5.569   3.237  0.1846  0.1665  0.2375
 1547TIP3    H1 4647   1.083   5.615   3.257 -0.5627  1.4933  0.2869
 1547TIP3    H2 4648   1.028   5.500   3.175  1.4804 -0.0259  0.9705
 1548TIP3   OH2 4649   2.702   4.904   0.208  0.3086 -0.0381  0.3577
 1548TIP3    H1 4650   2.659   4.989   0.218  1.0176  0.1803  1.7792
 1548TIP3    H2 4651   2.670   4.853   0.283  0.8164 -0.6150  0.1863
 1549TIP3   OH2 4652   4.018   5.265   0.840  0.0285 -0.0939 -0.4557
 1549TIP3    H1 4653   4.105   5.239   0.871 -1.1752  0.8915  4.8104
 1549TIP3    H2 4654   3.963   5.188   0.856 -0.7860  0.6600  0.5022
 1550TIP3   OH2 4655   0.371   2.694   0.884 -0.2455  0.4977  0.6150
 1550TIP3    H1 4656   0.367   2.669   0.792  1.8399  1.6764  0.1480
 1550TIP3    H2 4657   0.282   2.680   0.917 -0.9290 -0.3240 -1.4605
 1551TIP3   OH2 4658   0.901   3.896   3.893  0.3133  0.3447 -0.3372
 1551TIP3    H1 4659   0.833   3.856   3.947 -0.7815 -0.2522 -2.0721
 1551TIP3    H2 4660   0.932   3.970   3.945  1.0194 -1.5517  2.1104
 1552TIP3   OH2 4661   1.206   3.629   1.477  0.5642 -0.1726 -0.0053
 1552TIP3    H1 4662   1.126   3.677   1.498  0.2387 -0.8293  0.2870
 1552TIP3    H2 4663   1.183   3.577   1.400  1.1959  0.8220 -0.8915
 1553TIP3   OH2 4664   6.075   0.874   2.871  0.1128 -0.1944 -0.1199
 1553TIP3    H1 4665   6.084   0.960   2.829  0.2282  0.8537  1.9215
 1553TIP3    H2 4666   5.999   0.884   2.929  1.1374 -0.9019  1.4057
 1554TIP3   OH2 4667   0.601   1.823   2.495  0.1401  0.4342  0.0387
 1554TIP3    H1 4668   0.590   1.750   2.556 -2.4297  1.0268  0.3987
 1554TIP3    H2 4669   0.581   1.786   2.409  0.1161  0.4104  0.0544
 1555TIP3   OH2 4670   2.733   2.466   1.817 -0.1009 -0.3532 -0.4222
 1555TIP3    H1 4671   2.814   2.423   1.846 -0.5228 -0.6723  0.3073
 1555TIP3    H2 4672   2.672   2.394   1.801 -1.2452 -0.0411  2.0891
 1556TIP3   OH2 4673   2.389   2.754   4.008 -0.1383 -0.4344  0.3529
 1556TIP3    H1 4674   2.316   2.738   3.948 -0.5987  0.6196  0.6204
 1556TIP3    H2 4675   2.393   2.675   4.063 -0.4257 -0.9245 -0.3107
 1557TIP3   OH2 4676   5.065   2.794   2.601 -0.4877  0.7001 -0.3006
 1557TIP3    H1 4677   5.112   2.747   2.670 -0.2993  0.8463 -0.3292
 1557TIP3    H2 4678   5.021   2.726   2.550 -1.4850  0.6444  0.5916
 1558TIP3   OH2 4679   2.445   5.254   4.133 -0.0302  0.0343  0.0786
 1558TIP3    H1 4680   2.366   5.258   4.078  0.9307  0.8821 -1.3009
 1558TIP3    H2 4681   2.475   5.164   4.124  0.1658  0.1829 -0.8902
 1559TIP3   OH2 4682   5.323   4.671   4.165  0.1671 -0.3434 -0.1907
 1559TIP3    H1 4683   5.346   4.642   4.076 -1.6739  0.5134 -0.9874
 1559TIP3    H2 4684   5.346   4.764   4.166  1.5269 -0.6631  0.7450
 1560TIP3   OH2 4685   6.324   0.993   2.565 -0.3761  0.4175  0.8018
 1560TIP3    H1 4686   6.266   1.067   2.579 -1.8063 -0.4416 -0.2651
 1560TIP3    H2 4687   6.411   1.031   2.555 -0.4682  1.6509  3.7407
 1561TIP3   OH2 4688   5.450   3.645   0.228 -0.3426 -0.0799  0.2466
 1561TIP3    H1 4689   5.524   3.694   0.190 -1.5494  1.0610 -0.7302
 1561TIP3    H2 4690   5.403   3.611   0.152 -0.8947 -0.7130  0.8603
 1562TIP3   OH2 4691   6.125   4.158   3.089 -0.4712 -0.2338 -0.3969
 1562TIP3    H1 4692   6.217   4.134   3.099 -0.4331 -0.2354 -0.7406
 1562TIP3    H2 4693   6.118   4.190   2.999 -1.5099 -3.4979 -1.6276
 1563TIP3   OH2 4694   4.605   2.140   3.234  0.1377 -0.7522 -0.2174
 1563TIP3    H1 4695   4.583   2.048   3.225  0.3562 -0.8492  0.2285
 1563TIP3    H2 4696   4.573   2.180   3.153  0.8214 -1.3564 -0.7937
 1564TIP3   OH2 4697   4.866   3.984   1.082  0.1952 -0.0569  0.3025
 1564TIP3    H1 4698   4.941   4.028   1.044 -0.3636  0.9168  0.2948
 1564TIP3    H2 4699   4.902   3.905   1.122  1.2082  0.3690  0.2560
 1565TIP3   OH2 4700   5.278   0.543   0.322 -0.8915  0.3586 -0.5944
 1565TIP3    H1 4701   5.206   0.480   0.324 -3.5532  3.2255 -0.5310
 1565TIP3    H2 4702   5.295   0.557   0.229 -0.3891 -0.2886 -0.6096
 1566TIP3   OH2 4703   3.393   4.017   4.544  0.1480 -0.0235 -0.0997
 1566TIP3    H1 4704   3.426   3.947   4.600 -0.6161  0.0709  0.4973
 1566TIP3    H2 4705   3.388   4.093   4.602 -1.4769 -0.1412 -0.0346
 1567TIP3   OH2 4706   3.442   3.384   3.065  0.3794  0.7324  0.3631
 1567TIP3    H1 4707   3.383   3.408   2.994 -0.1970 -0.5464  0.3720
 1567TIP3    H2 4708   3.388   3.334   3.126  1.5093 -0.7882  0.1889
 1568TIP3   OH2 4709   3.786   5.048   1.660  0.4046 -0.2704 -0.2896
 1568TIP3    H1 4710   3.797   4.955   1.641  1.5835  0.0021 -1.0119
 1568TIP3    H2 4711   3.868   5.075   1.700 -0.2441  0.2949  0.7230
 1569TIP3   OH2 4712   4.844   1.773   4.944 -0.2592  0.6170  0.5055
 1569TIP3    H1 4713   4.789   1.764   4.866 -0.2256 -2.2029  0.7282
 1569TIP3    H2 4714   4.791   1.826   5.004 -2.2399 -0.9278  0.2266
 1570TIP3   OH2 4715   2.766   2.825   0.521  0.1418  0.1340 -0.2274
 1570TIP3    H1 4716   2.723   2.875   0.451 -0.1036  0.3025  0.0410
 1570TIP3    H2 4717   2.696   2.804   0.582  0.2860 -0.3495 -0.2260
 1571TIP3   OH2 4718   4.571   5.256   4.530  0.2859  0.4574 -0.2612
 1571TIP3    H1 4719   4.495   5.235   4.585  1.0149 -0.8886  0.2779
 1571TIP3    H2 4720   4.548   5.339   4.488 -1.9679 -0.4634 -1.0114
 1572TIP3   OH2 4721   6.250   5.539   2.313 -0.7622  0.5005 -0.1786
 1572TIP3    H1 4722   6.271   5.447   2.328 -1.3144  0.0118 -2.1319
 1572TIP3    H2 4723   6.161   5.549   2.346 -1.1596 -0.0102 -1.0461
 1573TIP3   OH2 4724   1.359   4.312   2.039 -0.0460 -0.1307 -0.4088
 1573TIP3    H1 4725   1.273   4.322   2.081  1.0126  0.0411  1.8671
 1573TIP3    H2 4726   1.418   4.286   2.110  1.7918 -0.3278 -1.9189
 1574TIP3   OH2 4727   1.123   2.822   1.211  0.1377  0.1365 -0.4977
 1574TIP3    H1 4728   1.157   2.751   1.265 -0.6981 -0.3670 -0.6250
 1574TIP3    H2 4729   1.187   2.831   1.141 -0.3262 -1.2922 -1.1454
 1575TIP3   OH2 4730   4.150   4.335   3.818 -0.0335 -0.1172 -0.3203
 1575TIP3    H1 4731   4.239   4.312   3.846 -1.1301 -2.9450  1.2086
 1575TIP3    H2 4732   4.159   4.423   3.783  3.1780  0.1395  0.7604
 1576TIP3   OH2 4733   2.836   1.838   4.237  0.3057  0.0174 -0.4879
 1576TIP3    H1 4734   2.864   1.826   4.328  2.2201  0.6517 -0.9516
 1576TIP3    H2 4735   2.820   1.931   4.229  0.3534 -0.0032 -0.8426
 1577TIP3   OH2 4736   0.049   4.757   3.071 -0.0143  0.3825  0.1178
 1577TIP3    H1 4737   0.062   4.741   3.165 -1.2227 -1.1564  0.0625
 1577TIP3    H2 4738  -0.031   4.809   3.065 -0.6834 -0.6513 -0.1049
 1578TIP3   OH2 4739   4.346   0.987   0.688 -0.1042  0.4508 -0.3507
 1578TIP3    H1 4740   4.306   1.022   0.609  1.5534 -0.6104 -1.7464
 1578TIP3    H2 4741   4.285   0.920   0.718 -1.2686  1.6023 -0.0727
 1579TIP3   OH2 4742   1.941   1.208   1.079 -0.3170  0.5177  0.2592
 1579TIP3    H1 4743   1.939   1.133   1.020 -2.0650 -0.6620  1.7288
 1579TIP3    H2 4744   2.022   1.198   1.128 -1.1189 -1.1646  1.3107
 1580TIP3   OH2 4745   0.201   3.704   1.179 -0.1279  0.1500  0.0887
 1580TIP3    H1 4746   0.257   3.631   1.204  1.1935  1.2622  0.4843
 1580TIP3    H2 4747   0.154   3.726   1.260  0.8896  0.9399  0.4781
 1581TIP3   OH2 4748   5.504   3.325   3.583  0.0051  0.0230  0.2812
 1581TIP3    H1 4749   5.420   3.302   3.621 -0.5242 -0.0924 -0.9168
 1581TIP3    H2 4750   5.547   3.241   3.567  0.3744  0.0824  0.9185
 1582TIP3   OH2 4751   3.138   3.968   0.351 -0.2302 -0.0869  1.0982
 1582TIP3    H1 4752   3.179   3.959   0.437 -0.5119 -2.6142  1.0435
 1582TIP3    H2 4753   3.185   3.905   0.295 -0.1059  1.4314 -0.6153
 1583TIP3   OH2 4754   4.256   2.040   4.271  0.3989 -0.2464 -0.1733
 1583TIP3    H1 4755   4.276   1.964   4.325  0.6649  0.3374  0.5665
 1583TIP3    H2 4756   4.164   2.058   4.289  0.3092 -0.4454 -0.4239
 1584TIP3   OH2 4757   3.392   5.345   4.601 -0.3359 -0.1972 -0.0684
 1584TIP3    H1 4758   3.445   5.289   4.658 -2.4289  0.6801  3.0249
 1584TIP3    H2 4759   3.447   5.359   4.524  3.6193 -0.0394  2.4517
 1585TIP3   OH2 4760   0.965   3.115   5.130 -0.0200 -0.2971 -0.1475
 1585TIP3    H1 4761   0.874   3.138   5.114  0.1876  0.8210  0.1634
 1585TIP3    H2 4762   0.996   3.078   5.048 -0.3061  0.8506 -0.7949
 1586TIP3   OH2 4763   5.786   0.172   1.373 -0.5677 -0.3330  0.5366
 1586TIP3    H1 4764   5.872   0.210   1.351  0.4111 -2.0037  1.2470
 1586TIP3    H2 4765   5.756   0.132   1.292  0.4239 -1.6956  0.8093
 1587TIP3   OH2 4766   0.795   2.712   3.312  0.8749  0.3229 -0.1931
 1587TIP3    H1 4767   0.777   2.741   3.401  0.1921 -0.7141  0.0376
 1587TIP3    H2 4768   0.866   2.649   3.321  1.5276  1.0023 -0.5252
 1588TIP3   OH2 4769   6.219   5.822   1.480 -0.0221  0.0546 -0.5813
 1588TIP3    H1 4770   6.137   5.772   1.474  0.2082 -0.3816 -0.1015
 1588TIP3    H2 4771   6.202   5.887   1.549  0.8223 -1.5564  1.2102
 1589TIP3   OH2 4772   1.905   0.363   1.246  0.3317 -0.3224 -0.8395
 1589TIP3    H1 4773   1.815   0.357   1.278  0.1217  0.1288 -1.3335
 1589TIP3    H2 4774   1.900   0.340   1.154  0.6087  0.4200 -1.0453
 1590TIP3   OH2 4775   4.149   0.886   2.741  0.4012  0.1133  0.0781
 1590TIP3    H1 4776   4.237   0.902   2.707  0.9099  2.0815  2.0856
 1590TIP3    H2 4777   4.151   0.794   2.768  0.8093 -0.7295 -2.5996
 1591TIP3   OH2 4778   1.476   2.542   3.907 -0.4461 -0.4458 -0.7935
 1591TIP3    H1 4779   1.508   2.518   3.820  0.0739  0.7321 -0.9538
 1591TIP3    H2 4780   1.381   2.528   3.902 -0.4714 -0.0777 -1.6751
 1592TIP3   OH2 4781   4.565   0.574   2.447  0.1240  0.1488  0.2139
 1592TIP3    H1 4782   4.533   0.488   2.418 -1.3864  1.3424 -1.9958
 1592TIP3    H2 4783   4.658   0.574   2.424  0.0795 -0.8071 -0.0091
 1593TIP3   OH2 4784   1.408   4.871   3.958 -0.0049  0.5350 -0.2434
 1593TIP3    H1 4785   1.330   4.825   3.925  0.4921 -1.3611  1.0627
 1593TIP3    H2 4786   1.372   4.944   4.009 -0.8727  0.5376 -0.8220
 1594TIP3   OH2 4787   2.423   0.532   3.011 -0.4919 -0.4488 -1.3013
 1594TIP3    H1 4788   2.482   0.534   3.086 -0.7229  3.5079 -1.0186
 1594TIP3    H2 4789   2.452   0.605   2.956 -2.7696 -0.7769 -3.0901
 1595TIP3   OH2 4790   3.379   5.392   3.677  0.3503  0.2204 -0.1960
 1595TIP3    H1 4791   3.385   5.374   3.584  2.5343 -0.8188  0.0998
 1595TIP3    H2 4792   3.469   5.409   3.705  0.3148 -2.9041  2.3519
 1596TIP3   OH2 4793   1.638   4.256   4.666  0.3719  0.0877  0.1770
 1596TIP3    H1 4794   1.696   4.182   4.650  0.1691 -0.3853  1.4551
 1596TIP3    H2 4795   1.551   4.218   4.669  0.0824  0.6421 -0.7440
 1597TIP3   OH2 4796   5.876   5.066   0.996 -0.0108 -0.4709 -0.3919
 1597TIP3    H1 4797   5.805   5.024   1.044  0.0241 -0.4742 -0.3431
 1597TIP3    H2 4798   5.843   5.153   0.974  0.1331 -0.3106  0.0138
 1598TIP3   OH2 4799   5.270   1.844   4.464 -0.1597  0.3410  0.1785
 1598TIP3    H1 4800   5.178   1.866   4.449  0.4680  2.2136 -1.3685
 1598TIP3    H2 4801   5.284   1.859   4.557 -1.3582  0.3440  0.3665
 1599TIP3   OH2 4802   4.465   0.714   4.743  0.2538 -0.3723  0.1594
 1599TIP3    H1 4803   4.470   0.676   4.831  0.4628 -0.6109  0.0478
 1599TIP3    H2 4804   4.556   0.717   4.714  0.1579 -0.5536 -0.1594
 1600TIP3   OH2 4805   5.494   1.701   2.619  0.0366 -0.0482 -0.3723
 1600TIP3    H1 4806   5.496   1.616   2.575 -0.6647  0.4656 -1.4452
 1600TIP3    H2 4807   5.420   1.696   2.679  0.4991 -0.4687  0.1766
 1601TIP3   OH2 4808   6.334   3.065   2.090  0.1680  0.4256 -0.2042
 1601TIP3    H1 4809   6.383   3.066   2.172  0.6720 -0.1972 -0.4800
 1601TIP3    H2 4810   6.284   2.983   2.094 -1.1056  1.1969  0.2058
 1602TIP3   OH2 4811   6.015   4.299   1.103 -0.4369  0.1780 -0.3417
 1602TIP3    H1 4812   5.944   4.362   1.117  0.5511  1.3385 -0.2916
 1602TIP3    H2 4813   6.028   4.259   1.189 -0.0385  1.0745  0.0325
 1603TIP3   OH2 4814   4.043   5.051   1.872  0.0263 -0.1233  0.3891
 1603TIP3    H1 4815   4.027   5.128   1.927 -1.5502  0.3727 -0.7143
 1603TIP3    H2 4816   4.132   5.065   1.837 -0.5244  1.6458 -0.4324
 1604TIP3   OH2 4817   1.825   2.916   1.790  0.1617  0.2794  0.1736
 1604TIP3    H1 4818   1.879   2.846   1.826 -1.3943 -1.0314  0.0854
 1604TIP3    H2 4819   1.813   2.892   1.698 -1.7487 -0.3114  0.5197
 1605TIP3   OH2 4820   6.012   4.652   4.042 -0.3669 -0.4117  0.2771
 1605TIP3    H1 4821   6.077   4.705   4.088 -0.1271 -0.3355 -0.1444
 1605TIP3    H2 4822   5.949   4.715   4.008 -0.7486 -0.4980  0.8178
 1606TIP3   OH2 4823   5.219   2.176   1.335 -0.0552  0.0158 -0.1925
 1606TIP3    H1 4824   5.223   2.250   1.395  0.0940 -0.1992  0.0653
 1606TIP3    H2 4825   5.151   2.200   1.272 -0.1992  0.2502  0.0487
 1607TIP3   OH2 4826   2.555   4.212   4.188  0.0377 -0.6936  0.4370
 1607TIP3    H1 4827   2.513   4.251   4.111 -1.8545 -1.2240  1.1241
 1607TIP3    H2 4828   2.610   4.282   4.224 -1.4204  0.6001  0.2996
 1608TIP3   OH2 4829   6.168   3.689   3.788 -0.0722 -0.7480  0.0086
 1608TIP3    H1 4830   6.172   3.734   3.872 -2.4672  0.9009 -0.6768
 1608TIP3    H2 4831   6.260   3.673   3.765  0.7345  1.0961  1.7004
 1609TIP3   OH2 4832   0.087   3.873   3.936 -0.3763  0.0942 -0.1112
 1609TIP3    H1 4833  -0.002   3.857   3.967 -0.8069 -0.0783 -1.3483
 1609TIP3    H2 4834   0.077   3.941   3.869  0.5500  0.7108  0.3605
 1610TIP3   OH2 4835   0.417   1.836   0.129 -0.1926 -0.2246  0.2904
 1610TIP3    H1 4836   0.385   1.900   0.065 -0.8344  0.1184  0.9394
 1610TIP3    H2 4837   0.448   1.763   0.077  0.9399  0.7809 -0.4999
 1611TIP3   OH2 4838   4.426   4.939   5.169  0.4470 -1.1339 -0.1583
 1611TIP3    H1 4839   4.395   5.018   5.214  0.0208 -1.5336  0.2614
 1611TIP3    H2 4840   4.409   4.956   5.077 -2.4811 -1.9134  0.1281
 1612TIP3   OH2 4841   3.970   3.693   2.596 -0.0350 -0.4153  0.6391
 1612TIP3    H1 4842   3.976   3.773   2.545  0.0195 -0.4299  0.6231
 1612TIP3    H2 4843   3.877   3.685   2.617  0.0715  0.0660  1.3081
 1613TIP3   OH2 4844   4.437   5.716   4.026 -0.1359  0.3352  0.0261
 1613TIP3    H1 4845   4.395   5.705   4.112 -2.4290  2.4335 -0.7051
 1613TIP3    H2 4846   4.367   5.698   3.963  0.9027  0.9735 -1.3525
 1614TIP3   OH2 4847   0.778   5.463   2.965  0.5492  0.2133 -0.1838
 1614TIP3    H1 4848   0.725   5.393   2.925 -0.8420 -0.3857  2.4727
 1614TIP3    H2 4849   0.716   5.533   2.982  0.8091  0.0163  1.8049
 1615TIP3   OH2 4850   1.893   0.148   3.869 -0.0728  0.0762  0.0046
 1615TIP3    H1 4851   1.939   0.082   3.817 -2.7266 -0.5556 -1.7382
 1615TIP3    H2 4852   1.906   0.230   3.821 -0.8772 -0.1379 -0.5945
 1616TIP3   OH2 4853   3.793   5.884   2.518 -0.1984 -0.1129  0.1579
 1616TIP3    H1 4854   3.851   5.904   2.444 -0.9189 -0.3662 -0.4920
 1616TIP3    H2 4855   3.743   5.807   2.489 -1.9949  1.0308  0.0419
 1617TIP3   OH2 4856   2.314   2.624   3.448  0.8974 -0.6071 -0.6896
 1617TIP3    H1 4857   2.254   2.679   3.498 -0.9910 -2.4713 -0.7498
 1617TIP3    H2 4858   2.364   2.685   3.394 -1.0326  1.0447 -0.7058
 1618TIP3   OH2 4859   5.966   2.000   2.612 -0.2420  0.2835  0.1753
 1618TIP3    H1 4860   6.016   1.926   2.647 -0.3678 -0.2147 -0.6829
 1618TIP3    H2 4861   6.021   2.076   2.630  0.1082 -0.0690  0.6348
 1619TIP3   OH2 4862   0.750   2.325   2.506  0.0959  0.3756 -0.2078
 1619TIP3    H1 4863   0.690   2.305   2.578  0.4937  0.4883  0.1581
 1619TIP3    H2 4864   0.835   2.297   2.538  0.5143  1.7508 -0.0643
 1620TIP3   OH2 4865   1.184   4.572   3.452  0.6511 -0.5003  0.7099
 1620TIP3    H1 4866   1.096   4.551   3.419  1.3887 -1.2022 -0.9019
 1620TIP3    H2 4867   1.172   4.583   3.546 -1.8934  3.1153  0.1803
 1621TIP3   OH2 4868   1.802   5.751   4.546  0.3564 -0.1505  0.2246
 1621TIP3    H1 4869   1.793   5.827   4.604  1.7176 -0.7946  1.3326
 1621TIP3    H2 4870   1.806   5.788   4.458  2.0633  1.1669  0.8133
 1622TIP3   OH2 4871   2.426   3.789   1.287 -0.0443 -0.4045  0.4463
 1622TIP3    H1 4872   2.428   3.745   1.201  0.6129  1.4705 -0.5539
 1622TIP3    H2 4873   2.333   3.801   1.305 -0.1967  1.1947 -1.1338
 1623TIP3   OH2 4874   3.867   4.741   3.961  0.9614  0.0087 -0.2738
 1623TIP3    H1 4875   3.824   4.713   4.042  1.0227 -0.6206 -0.4542
 1623TIP3    H2 4876   3.960   4.739   3.981  0.9366  2.9061  0.6238
 1624TIP3   OH2 4877   0.375   3.748   3.908  0.1999 -0.5931  0.7950
 1624TIP3    H1 4878   0.428   3.816   3.950 -1.1134  0.2598  1.1279
 1624TIP3    H2 4879   0.285   3.777   3.920 -0.3142 -1.4150 -0.7489
 1625TIP3   OH2 4880   3.875   4.749   1.025  0.6511  0.1970  0.0997
 1625TIP3    H1 4881   3.833   4.685   0.968 -0.2682  0.5243  0.3877
 1625TIP3    H2 4882   3.826   4.744   1.107  1.0318  0.7552  0.3692
 1626TIP3   OH2 4883   2.112   1.422   3.553  0.1537  0.0568  0.4898
 1626TIP3    H1 4884   2.189   1.462   3.511 -0.3673  0.4339 -0.1267
 1626TIP3    H2 4885   2.147   1.380   3.632  1.1741 -0.6899 -0.3198
 1627TIP3   OH2 4886   0.786   1.110   4.826  0.7662 -0.0145 -0.4654
 1627TIP3    H1 4887   0.693   1.103   4.803 -0.0325 -1.5986  2.6508
 1627TIP3    H2 4888   0.795   1.196   4.867  0.4015 -0.2524  0.1309
 1628TIP3   OH2 4889   4.665   2.297   2.125  0.4015  0.4123 -0.1388
 1628TIP3    H1 4890   4.715   2.350   2.063 -0.0813 -0.2787 -1.1400
 1628TIP3    H2 4891   4.598   2.357   2.158  1.5834  1.2187  0.8829
 1629TIP3   OH2 4892   3.417   0.924   3.054  0.1691 -0.5937 -0.0662
 1629TIP3    H1 4893   3.442   1.000   3.106 -0.8970 -0.1585 -0.1521
 1629TIP3    H2 4894   3.499   0.889   3.020  0.8044 -0.3079  1.1041
 1630TIP3   OH2 4895   0.731   1.460   2.166  0.0167 -0.8364 -0.3774
 1630TIP3    H1 4896   0.824   1.475   2.146  0.2795 -0.9054  0.7194
 1630TIP3    H2 4897   0.693   1.434   2.082  0.7795  0.1275 -1.0585
 1631TIP3   OH2 4898   0.984   3.286   0.485  0.4346  0.3536 -0.8718
 1631TIP3    H1 4899   0.916   3.350   0.466 -0.4886 -0.4956 -0.4926
 1631TIP3    H2 4900   0.996   3.290   0.580  1.4182  0.9801 -1.0039
 1632TIP3   OH2 4901   6.178   0.868   3.498  0.0710  0.3778 -0.2216
 1632TIP3    H1 4902   6.229   0.788   3.486  0.1466  0.4186 -0.1789
 1632TIP3    H2 4903   6.135   0.883   3.414 -0.0882  0.1921 -0.1731
 1633TIP3   OH2 4904   3.844   0.689   2.495  0.4930  0.0485  0.1676
 1633TIP3    H1 4905   3.937   0.674   2.511  0.5371 -1.2567 -1.1041
 1633TIP3    H2 4906   3.800   0.650   2.570  0.8978 -1.3467 -0.2939
 1634TIP3   OH2 4907   3.159   2.692   1.804 -0.7164 -0.2597 -0.1816
 1634TIP3    H1 4908   3.144   2.634   1.879  1.3643 -0.8623 -0.1697
 1634TIP3    H2 4909   3.071   2.715   1.774 -1.6428  0.4519  2.7558
 1635TIP3   OH2 4910   2.050   2.538   0.441  0.3110  0.4199  0.4428
 1635TIP3    H1 4911   2.097   2.467   0.485 -0.6492  0.1645  1.0856
 1635TIP3    H2 4912   1.964   2.540   0.483  0.3620  2.0615  0.5199
 1636TIP3   OH2 4913   2.238   4.460   5.034 -0.1149  0.0561 -0.5566
 1636TIP3    H1 4914   2.315   4.433   5.084 -0.9364  0.0469  0.7527
 1636TIP3    H2 4915   2.245   4.412   4.951  0.4994 -1.1108  0.1494
 1637TIP3   OH2 4916   3.145   2.082   1.062 -0.2792  0.4691  0.0369
 1637TIP3    H1 4917   3.117   2.127   0.982 -1.3996  1.0101  0.7149
 1637TIP3    H2 4918   3.073   2.095   1.124 -0.0678 -1.1801  0.6775
 1638TIP3   OH2 4919   2.851   4.597   1.938 -0.2857 -0.0951  0.6646
 1638TIP3    H1 4920   2.867   4.674   1.992 -0.1330  0.5289 -0.2492
 1638TIP3    H2 4921   2.930   4.588   1.884 -0.6915 -0.3194  0.0907
 1639TIP3   OH2 4922   5.179   0.988   1.863  0.4605  0.7376  0.3539
 1639TIP3    H1 4923   5.209   0.964   1.776  0.0360 -2.1883  0.9341
 1639TIP3    H2 4924   5.253   1.036   1.901  0.7529  1.8205 -1.4444
 1640TIP3   OH2 4925   6.343   3.345   1.700  0.1287 -0.2260 -0.1105
 1640TIP3    H1 4926   6.249   3.363   1.690  0.3232  0.5126 -0.6836
 1640TIP3    H2 4927   6.351   3.305   1.787 -0.7928 -0.8435 -0.2977
 1641TIP3   OH2 4928   2.800   0.372   0.101  0.0358  0.2670 -0.1621
 1641TIP3    H1 4929   2.777   0.435   0.033 -1.1729  2.2273  1.9255
 1641TIP3    H2 4930   2.861   0.312   0.059 -0.7937  1.2622 -2.9949
 1642TIP3   OH2 4931   2.293   1.459   0.908 -0.3014  0.6664  0.1148
 1642TIP3    H1 4932   2.293   1.531   0.846  1.4498 -0.3764 -1.1506
 1642TIP3    H2 4933   2.318   1.499   0.992  1.9230  1.3641 -0.8276
 1643TIP3   OH2 4934   5.199   2.814   1.777  0.0890 -0.1654 -0.3824
 1643TIP3    H1 4935   5.238   2.878   1.717  3.4638 -1.3770  0.2821
 1643TIP3    H2 4936   5.256   2.737   1.770 -1.9985 -1.9630  1.1534
 1644TIP3   OH2 4937   0.770   2.587   1.072  0.4788 -0.4262 -0.2143
 1644TIP3    H1 4938   0.811   2.524   1.132 -0.3454 -1.0410 -0.2763
 1644TIP3    H2 4939   0.682   2.600   1.108  0.0697 -0.5947 -1.1413
 1645TIP3   OH2 4940   2.149   3.811   2.268  0.2645  0.3368  0.2126
 1645TIP3    H1 4941   2.088   3.832   2.338  0.0932 -2.1266  0.8949
 1645TIP3    H2 4942   2.136   3.717   2.252  1.3335  0.5258 -2.1213
 1646TIP3   OH2 4943   6.352   0.470   5.142 -0.0911 -0.1943  0.2621
 1646TIP3    H1 4944   6.316   0.532   5.205 -1.3471 -0.2451 -0.3904
 1646TIP3    H2 4945   6.279   0.412   5.119  0.9036 -1.5709  0.4174
 1647TIP3   OH2 4946   0.356   4.572   0.520  0.4240  0.6352 -0.1938
 1647TIP3    H1 4947   0.335   4.651   0.471  0.7651  0.6144 -0.3811
 1647TIP3    H2 4948   0.320   4.501   0.468  2.7209  0.4190 -1.6186
 1648TIP3   OH2 4949   0.658   4.409   0.757  0.6062 -0.2990  0.5413
 1648TIP3    H1 4950   0.653   4.413   0.853  2.1062  0.1742  0.6168
 1648TIP3    H2 4951   0.642   4.499   0.729 -1.1523 -0.6717  0.2473
 1649TIP3   OH2 4952   3.265   4.166   2.714 -0.5002 -0.0955  0.2669
 1649TIP3    H1 4953   3.351   4.189   2.680 -0.2356 -0.5782  0.5946
 1649TIP3    H2 4954   3.204   4.217   2.661 -0.1289 -1.1439 -1.2246
 1650TIP3   OH2 4955   2.212   2.198   0.032 -0.1238  0.1467  0.0415
 1650TIP3    H1 4956   2.288   2.200  -0.027 -0.7704  1.0865 -0.8156
 1650TIP3    H2 4957   2.155   2.267  -0.002 -1.0118 -0.0240  1.1412
 1651TIP3   OH2 4958   5.748   4.832   4.751  0.5534 -0.4765  0.2271
 1651TIP3    H1 4959   5.794   4.898   4.803 -0.4994 -0.0069  0.5936
 1651TIP3    H2 4960   5.656   4.841   4.777 -0.1821  0.4772 -2.4015
 1652TIP3   OH2 4961   5.747   0.388   2.037  0.0739  0.3367  0.4283
 1652TIP3    H1 4962   5.699   0.401   1.955  0.9298  0.3671 -0.0785
 1652TIP3    H2 4963   5.760   0.293   2.042 -1.9101  0.0765  1.6685
 1653TIP3   OH2 4964   4.486   2.029   4.106  0.2956 -0.2640 -0.5627
 1653TIP3    H1 4965   4.409   2.023   4.162  1.0248 -1.1269  0.3819
 1653TIP3    H2 4966   4.546   2.086   4.154  0.3078  0.2947 -1.2295
 1654TIP3   OH2 4967   3.105   0.295   2.838  0.5387  0.0299  0.5203
 1654TIP3    H1 4968   3.159   0.362   2.879 -0.4666  1.3050 -0.1879
 1654TIP3    H2 4969   3.027   0.290   2.894 -0.6958  1.5497 -0.9842
 1655TIP3   OH2 4970   1.346   0.797   4.394 -0.3677 -0.8519  0.5080
 1655TIP3    H1 4971   1.396   0.726   4.434  0.6524 -1.1000 -1.1437
 1655TIP3    H2 4972   1.255   0.768   4.400  0.0072 -2.1599  0.1231
 1656TIP3   OH2 4973   0.251   1.116   1.538 -0.2407 -0.3089 -0.1296
 1656TIP3    H1 4974   0.270   1.182   1.471 -0.3443 -0.3846 -0.2345
 1656TIP3    H2 4975   0.336   1.080   1.562 -0.3589 -2.0240 -1.9992
 1657TIP3   OH2 4976   5.357   1.542   4.487  0.5709 -0.2941  0.1842
 1657TIP3    H1 4977   5.349   1.529   4.582 -0.1008  1.3624  0.3860
 1657TIP3    H2 4978   5.363   1.637   4.476  1.9737 -0.5108 -1.3607
 1658TIP3   OH2 4979   4.184   5.559   4.700  0.1127  0.3055 -0.7459
 1658TIP3    H1 4980   4.221   5.591   4.618 -1.3414  0.1997 -1.4765
 1658TIP3    H2 4981   4.217   5.469   4.708 -1.4610 -0.4965 -2.4030
 1659TIP3   OH2 4982   0.475   2.255   1.814 -0.2441  0.4026 -0.6297
 1659TIP3    H1 4983   0.530   2.195   1.764 -0.1411  1.3157 -1.6719
 1659TIP3    H2 4984   0.519   2.264   1.898 -0.3182 -1.0372 -0.4065
 1660TIP3   OH2 4985   5.252   0.988   3.033  0.2321 -0.4184 -1.1784
 1660TIP3    H1 4986   5.204   0.915   2.995 -1.6313 -0.5819  1.2379
 1660TIP3    H2 4987   5.327   0.947   3.077  0.2234 -0.6529 -1.3786
 1661TIP3   OH2 4988   6.209   2.060   2.852  0.3144 -0.2712  0.0982
 1661TIP3    H1 4989   6.143   2.094   2.914 -0.0028  0.2167 -0.4974
 1661TIP3    H2 4990   6.260   2.137   2.827 -1.4443  0.1392 -2.5289
 1662TIP3   OH2 4991   4.889   1.256   2.101 -0.1422 -0.5426  0.0586
 1662TIP3    H1 4992   4.912   1.311   2.025 -0.4265 -1.4219 -0.6789
 1662TIP3    H2 4993   4.973   1.228   2.136  0.5081  4.5170  3.7623
 1663TIP3   OH2 4994   2.134   3.948   0.064  0.8111 -0.4214 -0.0366
 1663TIP3    H1 4995   2.085   3.919  -0.014 -1.4822 -1.1142  1.5610
 1663TIP3    H2 4996   2.087   4.025   0.094  1.3920 -0.4352  0.9200
 1664TIP3   OH2 4997   4.351   5.330   2.573  0.3088 -0.0282 -0.5210
 1664TIP3    H1 4998   4.381   5.366   2.490  0.1751 -1.5669 -1.2734
 1664TIP3    H2 4999   4.390   5.243   2.577  1.7336  0.6292  1.8650
 1665TIP3   OH2 5000   0.886   4.760   2.533 -0.0189  0.1363 -0.2947
 1665TIP3    H1 5001   0.891   4.770   2.628 -0.2982 -2.6835  0.0860
 1665TIP3    H2 5002   0.808   4.708   2.518 -0.2245  0.9098 -2.1467
 1666TIP3   OH2 5003   5.852   1.375   3.454 -0.1273  0.2198  0.5900
 1666TIP3    H1 5004   5.812   1.441   3.397 -1.0451 -0.8211 -0.0030
 1666TIP3    H2 5005   5.779   1.341   3.507  0.0572 -1.2476 -0.0547
 1667TIP3   OH2 5006   4.519   3.617   2.263 -0.0395 -0.7897 -0.1778
 1667TIP3    H1 5007   4.562   3.626   2.178  0.0360  0.7593  0.0073
 1667TIP3    H2 5008   4.459   3.544   2.251  0.8464 -1.3854 -1.1848
 1668TIP3   OH2 5009   5.539   4.210   1.898  0.0683  0.0685  0.1587
 1668TIP3    H1 5010   5.537   4.116   1.879  1.0046  0.2761 -1.0885
 1668TIP3    H2 5011   5.459   4.245   1.858 -0.4463 -0.2287  0.9063
 1669TIP3   OH2 5012   2.891   0.797   2.342  0.0715 -0.0660 -0.2781
 1669TIP3    H1 5013   2.969   0.843   2.374 -0.5689  0.4101  0.6600
 1669TIP3    H2 5014   2.918   0.760   2.258  0.8736  1.3249 -0.6797
 1670TIP3   OH2 5015   2.834   4.102   4.541 -0.2549  0.3692 -1.0815
 1670TIP3    H1 5016   2.894   4.092   4.615 -0.4557 -1.3721 -1.0960
 1670TIP3    H2 5017   2.768   4.163   4.572 -0.7264 -0.8479  0.4814
 1671TIP3   OH2 5018   5.934   4.372   2.053  0.3162 -0.1215 -0.0041
 1671TIP3    H1 5019   6.016   4.354   2.099  1.4258  0.2154 -1.7567
 1671TIP3    H2 5020   5.920   4.466   2.065 -0.5033 -0.3837  1.3139
 1672TIP3   OH2 5021   3.065   4.123   0.843 -0.8021  0.2980  0.0566
 1672TIP3    H1 5022   3.156   4.141   0.818  0.3957 -2.5124  1.8857
 1672TIP3    H2 5023   3.022   4.208   0.838  1.6783  1.5715 -1.7690
 1673TIP3   OH2 5024   5.762   1.192   2.207 -0.3552 -0.1591  0.1161
 1673TIP3    H1 5025   5.672   1.211   2.232 -0.3257  1.4153 -0.8937
 1673TIP3    H2 5026   5.814   1.259   2.251  0.1016  0.1775 -0.9052
 1674TIP3   OH2 5027   3.462   5.056   4.713 -0.2831 -0.0854 -0.2302
 1674TIP3    H1 5028   3.454   5.040   4.619  2.7074 -2.1866 -0.2794
 1674TIP3    H2 5029   3.437   4.973   4.754 -2.9451  1.2230  1.0507
 1675TIP3   OH2 5030   1.184   2.597   1.333  0.0534  0.3434 -0.6276
 1675TIP3    H1 5031   1.279   2.589   1.322  0.1625 -1.2791  1.0077
 1675TIP3    H2 5032   1.157   2.514   1.372 -2.1648  0.5225 -1.6220
 1676TIP3   OH2 5033   4.421   2.227   0.418  0.4913 -0.4596  0.7183
 1676TIP3    H1 5034   4.460   2.276   0.491 -0.5442  0.9186  0.3711
 1676TIP3    H2 5035   4.378   2.293   0.364  2.1228 -1.2915 -1.7661
 1677TIP3   OH2 5036   1.218   0.881   4.713 -0.1770 -0.1301 -0.1147
 1677TIP3    H1 5037   1.211   0.868   4.808 -0.2689 -0.4268 -0.1600
 1677TIP3    H2 5038   1.311   0.875   4.695 -0.2078 -0.6225 -0.1171
 1678TIP3   OH2 5039   3.058   1.829   3.150  0.1597 -0.6592  0.1370
 1678TIP3    H1 5040   3.081   1.921   3.159 -0.4406 -0.4274 -0.6471
 1678TIP3    H2 5041   3.132   1.790   3.103 -0.1017 -0.3291 -0.5670
 1679TIP3   OH2 5042   3.611   4.880   4.097  0.3846 -0.1080  0.2156
 1679TIP3    H1 5043   3.654   4.896   4.181 -0.6190  0.7234  0.6011
 1679TIP3    H2 5044   3.517   4.887   4.117  0.0463 -1.9402 -0.5693
 1680TIP3   OH2 5045   1.433   1.939   2.758 -0.3405  0.0534 -0.0069
 1680TIP3    H1 5046   1.417   2.018   2.809  0.9489 -0.2779  0.9518
 1680TIP3    H2 5047   1.456   1.972   2.670  0.9662  0.7980  0.5858
 1681TIP3   OH2 5048   6.006   4.241   4.282 -0.1721  1.3291  0.0147
 1681TIP3    H1 5049   6.012   4.337   4.283  3.0912  1.2431  1.4998
 1681TIP3    H2 5050   5.993   4.218   4.374  0.1306  0.2997 -0.1927
 1682TIP3   OH2 5051   2.855   2.181   3.448  0.2017 -0.1978 -0.2005
 1682TIP3    H1 5052   2.777   2.225   3.482  0.5050  0.1247  0.0849
 1682TIP3    H2 5053   2.828   2.089   3.439  0.3357 -0.4551  1.6809
 1683TIP3   OH2 5054   0.945   2.568   4.378  0.1756 -0.2430 -0.0496
 1683TIP3    H1 5055   0.876   2.585   4.442  1.3941 -0.2015  1.3052
 1683TIP3    H2 5056   0.996   2.649   4.376  0.5630 -0.4958 -0.5672
 1684TIP3   OH2 5057   0.975   1.431   3.619 -0.0672 -0.0033 -0.2284
 1684TIP3    H1 5058   1.026   1.497   3.666 -0.8976 -0.3613  1.2617
 1684TIP3    H2 5059   1.018   1.348   3.640  0.2524 -0.0658 -1.0963
 1685TIP3   OH2 5060   1.504   3.063   4.406  0.3355 -0.3695 -0.4639
 1685TIP3    H1 5061   1.458   3.128   4.353  1.0592  1.8228  1.4493
 1685TIP3    H2 5062   1.497   3.095   4.496  2.5077 -1.8238  0.3063
 1686TIP3   OH2 5063   5.709   2.684   0.265  0.3617  0.4748 -0.2079
 1686TIP3    H1 5064   5.720   2.610   0.324 -0.0064  1.3545  1.0142
 1686TIP3    H2 5065   5.788   2.736   0.277 -0.6933  1.8586  1.3484
 1687TIP3   OH2 5066   5.518   1.977   5.032  0.1923  0.1477  0.1976
 1687TIP3    H1 5067   5.559   1.890   5.030  1.2729  0.6532 -1.2770
 1687TIP3    H2 5068   5.425   1.960   5.018  0.5354 -0.7068 -1.1974
 1688TIP3   OH2 5069   3.346   2.118   1.256  0.1848 -0.3140 -0.2754
 1688TIP3    H1 5070   3.265   2.091   1.213  0.0939 -0.6086  0.0683
 1688TIP3    H2 5071   3.346   2.213   1.249 -0.0658 -0.3282 -0.5012
 1689TIP3   OH2 5072   6.312   3.858   1.474  0.4138  0.1097  0.4501
 1689TIP3    H1 5073   6.362   3.899   1.403  0.3745 -0.9687 -0.2225
 1689TIP3    H2 5074   6.274   3.932   1.522  2.0956  0.9333  0.5753
 1690TIP3   OH2 5075   1.089   0.755   3.614  0.0829  0.3156 -0.0229
 1690TIP3    H1 5076   1.150   0.692   3.650 -0.7679 -0.6016 -0.1402
 1690TIP3    H2 5077   1.005   0.709   3.612 -0.2606  0.9570 -1.4786
 1691TIP3   OH2 5078   3.347   1.723   2.817 -0.2020  0.2841  0.4994
 1691TIP3    H1 5079   3.410   1.743   2.748 -0.7232 -1.0941 -0.4101
 1691TIP3    H2 5080   3.395   1.738   2.899  1.2880 -0.6848 -0.1674
 1692TIP3   OH2 5081   4.704   5.833   1.953 -0.4187  0.5463  0.0685
 1692TIP3    H1 5082   4.770   5.791   2.009 -0.3632  1.0167  0.3707
 1692TIP3    H2 5083   4.745   5.837   1.867 -1.1711 -1.7626 -0.4654
 1693TIP3   OH2 5084   6.043   0.237   1.292 -0.6403  0.5188  0.2008
 1693TIP3    H1 5085   6.110   0.196   1.237 -0.3241 -0.3213  1.1678
 1693TIP3    H2 5086   6.092   0.302   1.344 -0.6776  0.3379  0.4662
 1694TIP3   OH2 5087   3.319   3.498   2.848 -0.0191  0.4192 -0.1726
 1694TIP3    H1 5088   3.300   3.582   2.889 -0.8138 -0.1255  0.6225
 1694TIP3    H2 5089   3.284   3.506   2.759  0.6005  1.1886 -0.3471
 1695TIP3   OH2 5090   0.105   3.476   2.904  0.0876 -0.0050  0.2078
 1695TIP3    H1 5091   0.106   3.541   2.974 -0.6689 -0.1184  0.3310
 1695TIP3    H2 5092   0.147   3.519   2.830  0.1132  0.4219  0.4687
 1696TIP3   OH2 5093   2.501   1.610   3.403  0.2282  0.4733 -0.0378
 1696TIP3    H1 5094   2.489   1.519   3.376 -0.3106  0.3819  0.4915
 1696TIP3    H2 5095   2.535   1.654   3.325  1.6026 -0.4133  0.0461
 1697TIP3   OH2 5096   1.161   3.579   5.203 -0.4006  0.2537 -0.1111
 1697TIP3    H1 5097   1.144   3.505   5.145 -0.6855  1.1692 -1.2370
 1697TIP3    H2 5098   1.249   3.609   5.179  0.6186 -0.9794  1.7998
 1698TIP3   OH2 5099   5.173   2.093   3.673 -0.7251 -0.1756 -0.7139
 1698TIP3    H1 5100   5.103   2.041   3.634 -1.1667  0.1682 -0.3878
 1698TIP3    H2 5101   5.226   2.030   3.721 -2.5468 -0.0811  1.6195
 1699TIP3   OH2 5102   0.781   0.121   2.418 -0.0417 -0.0132 -0.1159
 1699TIP3    H1 5103   0.825   0.060   2.477  1.4599  0.5164 -0.6598
 1699TIP3    H2 5104   0.688   0.112   2.440  0.4683  0.3811  2.5255
 1700TIP3   OH2 5105   2.777   1.673   2.260  0.0328 -0.5507  0.4628
 1700TIP3    H1 5106   2.822   1.617   2.197  0.8330  1.1471 -0.5605
 1700TIP3    H2 5107   2.848   1.725   2.299 -0.8648  1.1855 -0.1364
 1701TIP3   OH2 5108   1.472   0.534   0.596 -0.5751  0.1992  0.2667
 1701TIP3    H1 5109   1.401   0.523   0.533 -0.4768 -1.0165  0.3349
 1701TIP3    H2 5110   1.521   0.451   0.592 -1.4162 -0.5458  2.9420
 1702TIP3   OH2 5111   5.312   2.909   2.451 -0.1370 -0.4667 -0.5638
 1702TIP3    H1 5112   5.217   2.907   2.451 -0.1291 -1.6787 -0.6368
 1702TIP3    H2 5113   5.338   2.848   2.382  0.6827 -0.9627  0.1536
 1703TIP3   OH2 5114   2.147   1.216   0.113  0.2731 -0.1468  0.7378
 1703TIP3    H1 5115   2.087   1.240   0.185  0.1208 -0.8829  0.8624
 1703TIP3    H2 5116   2.220   1.277   0.123  0.2943 -0.2885  1.5740
 1704TIP3   OH2 5117   0.905   0.053   4.915 -0.1672  0.3180  0.7587
 1704TIP3    H1 5118   0.879   0.063   4.823  1.9108 -1.6208 -0.1492
 1704TIP3    H2 5119   0.857  -0.025   4.944 -1.2542  1.2551  1.5350
 1705TIP3   OH2 5120   5.026   1.482   3.817  0.3079  0.3057 -0.8583
 1705TIP3    H1 5121   5.065   1.558   3.775  1.7264 -1.1207 -2.2291
 1705TIP3    H2 5122   4.939   1.512   3.844  0.6656  2.2689 -1.7224
 1706TIP3   OH2 5123   2.083   4.169   0.307  0.0956 -0.3239  0.2402
 1706TIP3    H1 5124   2.022   4.208   0.370  1.2674 -0.0148  1.2117
 1706TIP3    H2 5125   2.101   4.239   0.245  0.9758  0.2131  1.0833
 1707TIP3   OH2 5126   2.737   2.501   0.222 -0.5562  0.1650  0.0995
 1707TIP3    H1 5127   2.801   2.436   0.192 -0.2544  0.1468  0.7467
 1707TIP3    H2 5128   2.780   2.585   0.209 -0.4157  0.1559  0.4830
 1708TIP3   OH2 5129   0.615   1.447   0.608 -0.0692 -0.0868  0.0128
 1708TIP3    H1 5130   0.666   1.373   0.641  0.0112 -0.2260 -0.4145
 1708TIP3    H2 5131   0.625   1.442   0.513  0.7227  1.0325  0.0092
 1709TIP3   OH2 5132   1.827   4.672   1.557 -0.0448 -0.3051 -0.0342
 1709TIP3    H1 5133   1.885   4.740   1.523  1.2998  0.1447  2.7902
 1709TIP3    H2 5134   1.750   4.675   1.502  1.4112  1.1339 -2.1244
 1710TIP3   OH2 5135   5.479   4.923   3.907  0.6763  0.0937 -0.6692
 1710TIP3    H1 5136   5.541   4.969   3.851 -1.2727  1.7595 -1.6101
 1710TIP3    H2 5137   5.479   4.833   3.874 -0.8485  1.1264 -3.9377
 1711TIP3   OH2 5138   1.997   4.723   0.627  0.2643  0.1871  0.6911
 1711TIP3    H1 5139   1.958   4.721   0.714  2.0937 -1.0141  1.5481
 1711TIP3    H2 5140   2.068   4.787   0.634 -0.6591  1.3938 -0.4613
 1712TIP3   OH2 5141   5.722   5.863   2.258  0.0691 -0.2854 -0.2800
 1712TIP3    H1 5142   5.649   5.921   2.235 -0.0572 -0.0803  0.5734
 1712TIP3    H2 5143   5.753   5.896   2.342  1.4751 -0.0781 -0.8526
 1713TIP3   OH2 5144   0.721   1.224   2.471  0.1073 -0.0767 -0.0367
 1713TIP3    H1 5145   0.792   1.187   2.418  0.8193 -0.4600  1.1474
 1713TIP3    H2 5146   0.743   1.200   2.561 -0.4557  1.5597  0.5707
 1714TIP3   OH2 5147   4.923   3.242   1.016  0.5718  1.0127 -0.0414
 1714TIP3    H1 5148   4.990   3.236   1.084 -0.3743 -2.8163  0.7833
 1714TIP3    H2 5149   4.844   3.272   1.063  0.5426  0.8288  0.0292
 1715TIP3   OH2 5150   0.361   3.602   2.993 -0.2807  0.6816  0.1507
 1715TIP3    H1 5151   0.408   3.671   2.946  1.0726  0.8732  1.6876
 1715TIP3    H2 5152   0.281   3.645   3.025  1.0321  1.9418  2.0024
 1716TIP3   OH2 5153   4.556   4.881   4.876  0.4434 -0.5834  0.0493
 1716TIP3    H1 5154   4.628   4.876   4.814 -0.6539  0.0851 -1.3402
 1716TIP3    H2 5155   4.534   4.789   4.895  1.3123 -0.7879  0.0955
 1717TIP3   OH2 5156   1.514   4.478   4.811 -0.4291  0.0083  0.0948
 1717TIP3    H1 5157   1.591   4.533   4.827 -0.0191 -0.7022  0.6211
 1717TIP3    H2 5158   1.545   4.412   4.749 -0.6202 -0.2676  0.2909
 1718TIP3   OH2 5159   2.480   2.296   1.141 -0.1156 -0.1431 -0.2828
 1718TIP3    H1 5160   2.414   2.364   1.155 -0.0461 -0.1012 -0.1586
 1718TIP3    H2 5161   2.430   2.216   1.125 -0.1981 -0.0662 -0.4158
 1719TIP3   OH2 5162   1.331   2.033   3.397 -0.4482  0.0314  0.5140
 1719TIP3    H1 5163   1.325   2.017   3.303 -1.9383  1.6957  0.2708
 1719TIP3    H2 5164   1.348   1.947   3.436  1.4014 -0.5220 -1.3323
 1720TIP3   OH2 5165   5.136   4.580   3.276 -0.2554 -0.3918  0.1547
 1720TIP3    H1 5166   5.112   4.615   3.190 -2.7745 -1.1435  0.4559
 1720TIP3    H2 5167   5.146   4.657   3.332 -2.3489  0.0550  0.0116
 1721TIP3   OH2 5168   3.879   4.775   3.035 -0.2850 -0.1549 -0.7163
 1721TIP3    H1 5169   3.878   4.860   2.990  1.5703 -0.1090 -0.7648
 1721TIP3    H2 5170   3.798   4.773   3.085 -1.3563  0.7603 -2.3104
 1722TIP3   OH2 5171   4.843   4.848   2.870 -0.1138 -0.3778  0.1865
 1722TIP3    H1 5172   4.865   4.843   2.777 -3.4862  1.3354 -0.8681
 1722TIP3    H2 5173   4.926   4.831   2.915  2.5515  2.3425 -3.1380
 1723TIP3   OH2 5174   1.271   4.360   3.253 -0.0978  1.1100 -0.2272
 1723TIP3    H1 5175   1.258   4.451   3.279 -1.0178  0.3815  2.0820
 1723TIP3    H2 5176   1.186   4.333   3.217 -0.2290  0.8260  0.2791
 1724TIP3   OH2 5177   0.360   2.997   1.230 -0.0873  0.0781 -0.0087
 1724TIP3    H1 5178   0.413   3.033   1.301  2.3096 -1.8630 -0.6770
 1724TIP3    H2 5179   0.424   2.972   1.163 -1.9636 -1.4050 -1.3390
 1725TIP3   OH2 5180   5.737   0.808   4.558 -0.1343  0.3659  0.0153
 1725TIP3    H1 5181   5.671   0.767   4.503 -0.4689 -1.1390  1.4463
 1725TIP3    H2 5182   5.690   0.875   4.607  0.2884  2.1508 -1.8769
 1726TIP3   OH2 5183   5.791   4.441   1.105 -0.5635  0.3205 -0.6396
 1726TIP3    H1 5184   5.711   4.394   1.079  0.2305 -1.0588 -0.6525
 1726TIP3    H2 5185   5.778   4.461   1.197 -0.0696 -1.8053 -0.0472
 1727TIP3   OH2 5186   1.281   1.925   1.056  0.2456  0.3774  0.1395
 1727TIP3    H1 5187   1.242   1.841   1.081  0.7544 -0.1321 -0.7378
 1727TIP3    H2 5188   1.351   1.902   0.995  1.4788  1.3224  1.1387
 1728TIP3   OH2 5189   2.937   4.434   0.451  0.4743  0.3557  0.2002
 1728TIP3    H1 5190   2.953   4.487   0.529  0.8869 -1.3085  1.3010
 1728TIP3    H2 5191   2.990   4.475   0.383  2.2216  0.3442  1.4859
 1729TIP3   OH2 5192   4.595   5.505   4.268 -0.0925 -0.3286 -0.1688
 1729TIP3    H1 5193   4.627   5.593   4.246  0.5382 -0.4267  0.3229
 1729TIP3    H2 5194   4.504   5.504   4.237 -0.1676  0.5673 -0.0163
 1730TIP3   OH2 5195   4.602   0.845   1.444  0.4268 -0.4423  0.6132
 1730TIP3    H1 5196   4.550   0.843   1.364 -1.2949  1.8786  1.5576
 1730TIP3    H2 5197   4.574   0.768   1.493  0.3197 -1.0026 -0.3062
 1731TIP3   OH2 5198   2.495   5.643   4.805  0.5371 -0.1107  0.3944
 1731TIP3    H1 5199   2.544   5.574   4.852  1.8357  1.1994  1.0404
 1731TIP3    H2 5200   2.558   5.679   4.743 -0.3475  0.0617 -0.4227
 1732TIP3   OH2 5201   1.476   3.189   2.088  0.5138 -0.1284  0.1667
 1732TIP3    H1 5202   1.414   3.259   2.111 -0.4269 -1.3349  1.5162
 1732TIP3    H2 5203   1.488   3.198   1.994 -0.3518  1.2366  0.1490
 1733TIP3   OH2 5204   5.296   3.493   2.726  0.1747 -0.3333  0.4903
 1733TIP3    H1 5205   5.256   3.443   2.797 -2.3191 -0.4608 -0.9125
 1733TIP3    H2 5206   5.348   3.428   2.678  0.6857 -0.5519  1.3148
 1734TIP3   OH2 5207   4.751   2.589   4.799 -0.4074  0.0459  0.0743
 1734TIP3    H1 5208   4.753   2.626   4.888  0.2626  0.9800 -0.3082
 1734TIP3    H2 5209   4.841   2.562   4.782  0.0591  2.1154 -1.1863
 1735TIP3   OH2 5210   2.183   4.813   0.950  0.0463  0.3422 -0.4510
 1735TIP3    H1 5211   2.171   4.762   1.030 -0.8435  1.7693  0.3794
 1735TIP3    H2 5212   2.244   4.762   0.898 -0.9005 -1.6316  0.2524
 1736TIP3   OH2 5213   4.232   2.774   2.358  0.2111  0.4331  1.0247
 1736TIP3    H1 5214   4.218   2.812   2.271  0.4540 -0.2169  0.6958
 1736TIP3    H2 5215   4.199   2.685   2.351 -1.2766  0.8606  2.0892
 1737TIP3   OH2 5216   4.844   2.771   3.706  0.1570 -0.0727  0.4362
 1737TIP3    H1 5217   4.803   2.736   3.626  0.3256 -0.9646  0.7302
 1737TIP3    H2 5218   4.913   2.708   3.727  0.5398  0.5004  0.9296
 1738TIP3   OH2 5219   4.607   4.572   1.366 -0.4485  0.2490  0.2550
 1738TIP3    H1 5220   4.517   4.551   1.392 -0.9534  1.9318 -0.0099
 1738TIP3    H2 5221   4.613   4.667   1.376  0.3538  0.5708 -2.6081
 1739TIP3   OH2 5222   1.700   3.216   3.874 -0.2538 -0.4414 -0.2082
 1739TIP3    H1 5223   1.631   3.156   3.903 -0.0756  0.0479  1.3089
 1739TIP3    H2 5224   1.779   3.162   3.871 -0.1796 -0.4079  0.7299
 1740TIP3   OH2 5225   2.079   2.162   0.426 -0.3683  0.3848  0.2258
 1740TIP3    H1 5226   2.060   2.101   0.496 -0.8830  0.9803  0.6163
 1740TIP3    H2 5227   2.170   2.144   0.402 -0.3752 -0.2150  0.6444
 1741TIP3   OH2 5228   4.194   3.833   3.616 -0.4421  0.5300 -0.2268
 1741TIP3    H1 5229   4.266   3.895   3.628 -0.2004 -0.2048  3.0997
 1741TIP3    H2 5230   4.182   3.828   3.521  3.2845  1.3581 -0.8971
 1742TIP3   OH2 5231   4.122   0.129   4.805 -0.0458  0.5862  0.4295
 1742TIP3    H1 5232   4.073   0.207   4.779 -0.1313  0.1888 -0.6289
 1742TIP3    H2 5233   4.167   0.155   4.885 -1.1510  1.2896  0.8450
 1743TIP3   OH2 5234   5.764   5.159   4.372  0.1091 -0.0164  0.3960
 1743TIP3    H1 5235   5.842   5.189   4.418  0.3630  0.8795 -0.5779
 1743TIP3    H2 5236   5.696   5.157   4.440  0.2266  2.2108  0.6667
 1744TIP3   OH2 5237   6.111   4.117   0.761 -0.1491 -0.1020 -0.5205
 1744TIP3    H1 5238   6.043   4.098   0.826 -0.3089 -1.4593 -1.0527
 1744TIP3    H2 5239   6.063   4.151   0.685 -0.0713  0.3642 -0.3677
 1745TIP3   OH2 5240   6.147   1.110   3.866 -0.4443  0.0151  0.2361
 1745TIP3    H1 5241   6.072   1.167   3.851 -2.1944 -1.7050  1.9081
 1745TIP3    H2 5242   6.216   1.146   3.810 -2.1856  2.2437 -0.6339
 1746TIP3   OH2 5243   4.175   0.973   2.028 -0.0143  0.0533 -0.0989
 1746TIP3    H1 5244   4.134   1.002   2.109  1.4056  0.4192  0.5249
 1746TIP3    H2 5245   4.269   0.984   2.044  0.3053 -0.2061 -1.6652
 1747TIP3   OH2 5246   0.145   1.673   4.013  0.4309 -0.2961 -0.2135
 1747TIP3    H1 5247   0.070   1.689   4.071  0.9400  1.0961  0.0968
 1747TIP3    H2 5248   0.114   1.606   3.952 -2.0402  2.1143 -1.8332
 1748TIP3   OH2 5249   4.301   3.001   1.633 -0.2649  0.1426  0.1798
 1748TIP3    H1 5250   4.298   3.068   1.702  0.1515  0.5526 -0.1953
 1748TIP3    H2 5251   4.213   3.002   1.595 -1.6552 -2.4065  2.8486
 1749TIP3   OH2 5252   5.065   1.616   0.413 -0.1575 -0.0826 -0.1893
 1749TIP3    H1 5253   4.992   1.619   0.351 -0.6703 -0.4424  0.3783
 1749TIP3    H2 5254   5.094   1.707   0.421 -1.2960  0.2466  0.4366
 1750TIP3   OH2 5255   2.432   3.972   2.305  0.0517 -0.3138 -0.2419
 1750TIP3    H1 5256   2.373   3.899   2.288  1.2443 -1.6568  0.9571
 1750TIP3    H2 5257   2.415   3.995   2.397 -0.8084  1.4423 -0.8054
 1751TIP3   OH2 5258   5.953   1.193   0.444  0.0219 -0.1962  0.1320
 1751TIP3    H1 5259   5.974   1.151   0.361 -1.7145 -1.0882  0.0921
 1751TIP3    H2 5260   5.862   1.169   0.461 -0.2498  1.5006  1.3830
 1752TIP3   OH2 5261   4.634   3.881   1.266  0.3484  0.0628 -0.0561
 1752TIP3    H1 5262   4.719   3.876   1.311  0.4294 -0.3805 -0.2476
 1752TIP3    H2 5263   4.654   3.925   1.183  0.2773  0.5094  0.1662
 1753TIP3   OH2 5264   1.081   4.812   3.192 -0.0855  1.0047 -0.0055
 1753TIP3    H1 5265   0.996   4.789   3.153  0.3489 -1.0907  0.1526
 1753TIP3    H2 5266   1.068   4.900   3.227 -1.8709  1.1468 -0.8863
 1754TIP3   OH2 5267   6.149   2.955   2.476  0.0494 -0.2590 -0.5361
 1754TIP3    H1 5268   6.151   2.920   2.566 -0.2748  1.4562  0.1699
 1754TIP3    H2 5269   6.237   2.990   2.463 -0.3607  0.8877 -0.2934
 1755TIP3   OH2 5270   5.487   4.824   4.818  0.4628  0.2037  0.2597
 1755TIP3    H1 5271   5.410   4.848   4.766  1.6637  1.4392 -1.0595
 1755TIP3    H2 5272   5.455   4.819   4.908 -0.6055  4.0127  0.2832
 1756TIP3   OH2 5273   0.812   5.866   1.286 -1.2501 -0.4237  0.1612
 1756TIP3    H1 5274   0.775   5.879   1.199 -1.1963  0.5446  0.2777
 1756TIP3    H2 5275   0.776   5.782   1.315 -2.1723 -0.2049 -0.3229
 1757TIP3   OH2 5276   2.167   2.327   1.205 -0.5853 -0.4308  0.2099
 1757TIP3    H1 5277   2.141   2.241   1.237 -3.1192 -0.4393 -1.5695
 1757TIP3    H2 5278   2.105   2.388   1.245  1.7171  0.7930  2.1548
 1758TIP3   OH2 5279   2.132   1.819   0.173 -0.9878 -0.3023 -0.4080
 1758TIP3    H1 5280   2.109   1.735   0.135  1.6705 -1.6487  0.7234
 1758TIP3    H2 5281   2.202   1.853   0.116 -1.5146  0.8251 -0.4235
 1759TIP3   OH2 5282   2.526   2.488   5.126  0.3159  0.1921 -0.4148
 1759TIP3    H1 5283   2.592   2.504   5.193  1.5487 -1.6443 -1.1200
 1759TIP3    H2 5284   2.500   2.397   5.139 -1.8594  0.7688 -0.3868
 1760TIP3   OH2 5285   4.134   5.937   3.428 -0.9580  0.0293  0.7327
 1760TIP3    H1 5286   4.045   5.907   3.445 -0.8550  0.5125  2.3262
 1760TIP3    H2 5287   4.126   6.032   3.416 -1.2084 -0.3657 -3.7224
 1761TIP3   OH2 5288   5.700   5.868   2.654  0.4163 -1.0196 -0.0811
 1761TIP3    H1 5289   5.720   5.918   2.733 -0.7291 -1.5117  0.5375
 1761TIP3    H2 5290   5.699   5.933   2.584 -0.3759 -0.2690  0.6020
 1762TIP3   OH2 5291   5.673   1.658   0.819 -0.3104 -0.0387 -0.0514
 1762TIP3    H1 5292   5.695   1.613   0.901  3.1455 -0.6789 -1.1789
 1762TIP3    H2 5293   5.670   1.588   0.754  0.7979  0.8587 -1.1033
 1763TIP3   OH2 5294   0.426   3.327   2.938  0.2107  0.3385  0.0834
 1763TIP3    H1 5295   0.396   3.416   2.955 -0.2338  0.1148  0.5259
 1763TIP3    H2 5296   0.498   3.314   3.000  0.7290  0.6186 -0.4545
 1764TIP3   OH2 5297   3.348   4.777   1.988 -0.1509 -0.1292  0.4700
 1764TIP3    H1 5298   3.284   4.847   1.979  0.4085  0.3507  0.1260
 1764TIP3    H2 5299   3.432   4.819   1.968  0.2070 -0.8654  0.4036
 1765TIP3   OH2 5300   5.590   1.407   2.486  0.2107 -0.2342 -0.2124
 1765TIP3    H1 5301   5.552   1.393   2.399 -0.0914 -1.6119  0.1163
 1765TIP3    H2 5302   5.528   1.368   2.546  0.4068  0.7336  0.6450
 1766TIP3   OH2 5303   4.245   4.951   4.704  0.6135  0.1996  0.2434
 1766TIP3    H1 5304   4.263   4.984   4.616 -3.4465  1.8544 -0.1842
 1766TIP3    H2 5305   4.268   5.023   4.762  0.1583  0.3954  0.1848
 1767TIP3   OH2 5306   2.500   3.222   2.750  0.6851  0.4278  0.0511
 1767TIP3    H1 5307   2.565   3.264   2.693  0.3597  0.4423 -0.3123
 1767TIP3    H2 5308   2.508   3.268   2.834  0.7410  0.8215 -0.1694
 1768TIP3   OH2 5309   5.671   3.742   0.092  0.1843 -0.6453 -0.8005
 1768TIP3    H1 5310   5.729   3.776   0.024 -0.5822 -0.6149 -1.4514
 1768TIP3    H2 5311   5.724   3.676   0.137  2.5033  2.6603  1.8820
 1769TIP3   OH2 5312   3.118   2.178   2.514  0.4774 -0.0846 -0.1706
 1769TIP3    H1 5313   3.024   2.196   2.516  0.4957 -0.0171  0.6883
 1769TIP3    H2 5314   3.132   2.130   2.433 -0.0828  1.0444 -0.9617
 1770TIP3   OH2 5315   5.594   4.713   0.271  0.3600  0.1474 -0.6297
 1770TIP3    H1 5316   5.650   4.789   0.288  0.5009  0.0267 -0.5545
 1770TIP3    H2 5317   5.547   4.735   0.190 -1.0572  1.1736  0.4036
 1771TIP3   OH2 5318   1.121   3.624   2.177 -0.2347 -0.2594 -0.1148
 1771TIP3    H1 5319   1.106   3.697   2.238 -0.9023 -0.7494  0.3104
 1771TIP3    H2 5320   1.144   3.667   2.095 -0.6816  0.4400  0.1151
 1772TIP3   OH2 5321   5.041   5.188   4.930  0.0825 -0.0305  0.2563
 1772TIP3    H1 5322   5.110   5.202   4.996 -0.0659 -1.3321  0.7254
 1772TIP3    H2 5323   5.060   5.252   4.862 -0.7915  2.6034  2.3216
 1773TIP3   OH2 5324   1.753   2.040   4.697  0.0572 -0.2004  0.1633
 1773TIP3    H1 5325   1.723   1.990   4.621 -1.9682 -2.3371  2.1942
 1773TIP3    H2 5326   1.674   2.053   4.750  1.6642 -0.5544  2.8532
 1774TIP3   OH2 5327   2.071   4.430   2.740  0.1776 -0.3323  0.1401
 1774TIP3    H1 5328   2.068   4.377   2.820 -0.6615 -1.2040 -0.4517
 1774TIP3    H2 5329   2.159   4.468   2.741  1.5973 -3.2941 -0.3582
 1775TIP3   OH2 5330   3.442   1.457   0.424  0.4958 -0.0972 -0.3095
 1775TIP3    H1 5331   3.392   1.376   0.417  2.6330 -2.1004  3.8196
 1775TIP3    H2 5332   3.500   1.457   0.348  0.4215 -2.4262 -0.4252
 1776TIP3   OH2 5333   3.982   1.570   4.887 -0.2997  0.2857 -0.2764
 1776TIP3    H1 5334   3.955   1.490   4.932 -0.2615 -0.0306 -0.8101
 1776TIP3    H2 5335   3.959   1.556   4.795  1.1560  0.2292 -0.6550
 1777TIP3   OH2 5336   5.331   5.223   0.385 -0.5354 -0.0881  0.0666
 1777TIP3    H1 5337   5.283   5.160   0.439  0.5693 -1.5272 -0.5782
 1777TIP3    H2 5338   5.420   5.224   0.421 -0.9332  2.5410  1.2462
 1778TIP3   OH2 5339   6.197   5.941   3.672 -0.6510 -0.2036  0.1994
 1778TIP3    H1 5340   6.133   5.907   3.610 -1.2256 -1.3457  1.3587
 1778TIP3    H2 5341   6.280   5.901   3.645 -1.1789 -1.9735  1.0646
 1779TIP3   OH2 5342   4.591   4.945   3.446 -0.3111 -0.0439 -0.0094
 1779TIP3    H1 5343   4.546   4.880   3.392 -0.7170 -0.3628  0.6918
 1779TIP3    H2 5344   4.681   4.914   3.450 -0.8402 -1.5251  1.6892
 1780TIP3   OH2 5345   6.098   1.116   2.776 -0.4577 -0.2078 -0.4787
 1780TIP3    H1 5346   6.065   1.206   2.782 -0.7812 -0.2076 -1.7733
 1780TIP3    H2 5347   6.163   1.119   2.705 -0.7862 -1.0724 -0.8356
 1781TIP3   OH2 5348   3.040   3.221   1.530  0.1950  0.4007 -0.2972
 1781TIP3    H1 5349   3.057   3.183   1.616  1.2012  1.4692 -0.0004
 1781TIP3    H2 5350   3.038   3.315   1.545  0.5522  0.6141 -1.4641
 1782TIP3   OH2 5351   4.232   2.505   1.246 -0.4121  0.4819  0.3310
 1782TIP3    H1 5352   4.247   2.563   1.321 -1.9037  1.0403  0.2164
 1782TIP3    H2 5353   4.149   2.533   1.209 -0.5345 -0.8914 -0.5279
 1783TIP3   OH2 5354   1.393   5.098   2.745 -0.2769  0.0800  0.4550
 1783TIP3    H1 5355   1.474   5.120   2.792  0.0905 -1.7990  0.7745
 1783TIP3    H2 5356   1.349   5.035   2.802  0.6269 -3.0147 -2.0350
 1784TIP3   OH2 5357   2.135   3.667   3.371 -0.3504  0.5218 -0.4507
 1784TIP3    H1 5358   2.094   3.717   3.299 -0.0613  0.3309 -0.7495
 1784TIP3    H2 5359   2.101   3.708   3.450 -0.2647  1.0769 -0.6962
 1785TIP3   OH2 5360   6.192   5.214   0.574  0.2202  0.2080  0.2993
 1785TIP3    H1 5361   6.180   5.119   0.578  2.5388 -0.2022 -0.4508
 1785TIP3    H2 5362   6.255   5.227   0.504  0.5675  2.2419  0.9096
 1786TIP3   OH2 5363   2.984   3.685   1.092  0.2523  0.2697  0.2032
 1786TIP3    H1 5364   2.966   3.775   1.063 -0.2336 -0.0342 -0.4896
 1786TIP3    H2 5365   2.931   3.674   1.171 -0.0092  0.4661  0.0583
 1787TIP3   OH2 5366   4.488   4.774   4.063  0.0196 -0.3761 -0.1940
 1787TIP3    H1 5367   4.431   4.735   4.129  1.2828  0.0283  1.1831
 1787TIP3    H2 5368   4.443   4.758   3.980 -1.7411 -0.6641  0.7741
 1788TIP3   OH2 5369   4.249   4.652   2.012  0.5380 -0.3785 -0.0831
 1788TIP3    H1 5370   4.188   4.579   2.022  1.6135 -1.2917 -0.0504
 1788TIP3    H2 5371   4.329   4.623   2.055  2.2005 -0.7007 -3.1228
 1789TIP3   OH2 5372   3.807   0.067   0.391  0.5027 -0.4864 -0.0814
 1789TIP3    H1 5373   3.872   0.093   0.458 -0.4428  1.1757  0.2440
 1789TIP3    H2 5374   3.731   0.039   0.442  0.0149  0.1550 -0.4499
 1790TIP3   OH2 5375   1.094   1.016   3.516 -0.0503  0.0742 -0.3392
 1790TIP3    H1 5376   1.011   1.052   3.485  0.1953  1.7663  0.8417
 1790TIP3    H2 5377   1.075   0.924   3.534 -1.5892  0.3661 -0.3475
 1791TIP3   OH2 5378   2.104   2.862   1.629 -0.0342  0.1752  0.1504
 1791TIP3    H1 5379   2.142   2.884   1.714  0.0124  1.4050 -0.1789
 1791TIP3    H2 5380   2.080   2.946   1.590  0.6211 -0.3043 -1.3675
 1792TIP3   OH2 5381   6.290   3.389   0.587  0.0502  0.4523  0.3294
 1792TIP3    H1 5382   6.341   3.310   0.577 -1.6919 -0.4534 -2.6174
 1792TIP3    H2 5383   6.213   3.362   0.637 -0.8981  0.0179 -1.2919
 1793TIP3   OH2 5384   6.144   3.035   3.908 -0.2128 -0.4633  0.6687
 1793TIP3    H1 5385   6.169   3.127   3.903  1.8576 -0.9681  0.7900
 1793TIP3    H2 5386   6.136   3.017   4.002 -0.4494 -0.4695  0.6499
 1794TIP3   OH2 5387   6.307   5.481   4.360 -0.4764 -0.2666 -0.0962
 1794TIP3    H1 5388   6.231   5.424   4.349 -0.6570 -0.5686  2.3126
 1794TIP3    H2 5389   6.273   5.570   4.350 -0.9524 -0.4323  0.0343
 1795TIP3   OH2 5390   1.825   5.172   3.472 -0.0813 -0.6857  0.4605
 1795TIP3    H1 5391   1.861   5.167   3.383 -0.3649 -0.2864  0.3186
 1795TIP3    H2 5392   1.774   5.254   3.472 -1.1267 -1.3229  0.6052
 1796TIP3   OH2 5393   3.234   3.664   0.767  0.0430 -1.0145  0.7341
 1796TIP3    H1 5394   3.301   3.671   0.835  1.9351 -2.2646 -0.8797
 1796TIP3    H2 5395   3.256   3.584   0.720 -0.7983  0.1077 -1.7370
 1797TIP3   OH2 5396   5.443   2.898   0.897 -0.9197  0.6706 -0.4796
 1797TIP3    H1 5397   5.397   2.820   0.929 -0.2494 -0.5068 -2.2326
 1797TIP3    H2 5398   5.477   2.940   0.976  2.4130 -3.1697  0.4743
 1798TIP3   OH2 5399   0.117   4.944   4.382 -0.1482 -0.1977 -0.6205
 1798TIP3    H1 5400   0.095   4.907   4.468 -0.3828  1.7703  0.2167
 1798TIP3    H2 5401   0.178   5.015   4.402  0.0511  0.0811 -2.1371
 1799TIP3   OH2 5402   2.943   0.672   2.083 -0.0684 -0.0650 -0.5058
 1799TIP3    H1 5403   3.026   0.666   2.037  0.1555  1.0632 -0.2564
 1799TIP3    H2 5404   2.889   0.603   2.043  1.5671 -2.1182  0.6063
 1800TIP3   OH2 5405   5.686   3.105   4.194 -0.1023  0.1252  0.4408
 1800TIP3    H1 5406   5.751   3.122   4.125 -0.7030 -1.3621 -0.5283
 1800TIP3    H2 5407   5.737   3.107   4.275  1.0518 -0.3530 -0.2405
 1801TIP3   OH2 5408   0.857   3.032   1.492 -0.0841 -0.4894  0.1291
 1801TIP3    H1 5409   0.939   3.024   1.540 -0.0540  0.2998  0.2178
 1801TIP3    H2 5410   0.860   3.120   1.453 -1.5195  0.1331  1.3291
 1802TIP3   OH2 5411   1.238   3.089   0.359  0.6158  0.3767 -0.0114
 1802TIP3    H1 5412   1.239   3.172   0.406  2.5860  0.6389 -0.4324
 1802TIP3    H2 5413   1.328   3.076   0.331  0.0225 -1.0932 -1.4112
 1803TIP3   OH2 5414   0.210   0.316   0.059  0.4821  0.6696 -0.1741
 1803TIP3    H1 5415   0.221   0.408   0.038  1.6946  0.3247 -1.1303
 1803TIP3    H2 5416   0.291   0.292   0.105 -0.5797  0.5036  1.7369
 1804TIP3   OH2 5417   3.608   2.944   0.783 -0.1636  0.0488 -0.0708
 1804TIP3    H1 5418   3.611   3.039   0.781  2.0195  0.0885  1.1760
 1804TIP3    H2 5419   3.608   2.922   0.876 -0.4803 -1.1611 -0.3384
 1805TIP3   OH2 5420   5.681   4.061   4.027  0.0875 -0.1795  0.3685
 1805TIP3    H1 5421   5.772   4.033   4.021 -0.2564 -1.3013  0.2325
 1805TIP3    H2 5422   5.666   4.112   3.947  0.6979  0.3538  0.5860
 1806TIP3   OH2 5423   4.208   4.003   4.234  0.1914  0.1557  0.1762
 1806TIP3    H1 5424   4.261   4.033   4.308  0.3909 -0.1378  0.1534
 1806TIP3    H2 5425   4.251   3.922   4.205 -0.0693  0.1011 -0.0593
 1807TIP3   OH2 5426   0.114   2.318   4.294  0.2494 -0.1424 -0.0498
 1807TIP3    H1 5427   0.207   2.311   4.315 -0.3357 -0.0769  3.0221
 1807TIP3    H2 5428   0.077   2.235   4.323 -0.7539  0.0045 -0.8454
 1808TIP3   OH2 5429   3.596   0.554   4.687  0.2313 -0.1569  0.1564
 1808TIP3    H1 5430   3.548   0.594   4.615  0.5896 -2.3199 -1.3753
 1808TIP3    H2 5431   3.547   0.475   4.709  0.6871 -0.0691  1.5995
 1809TIP3   OH2 5432   4.201   3.243   2.326 -0.2356 -0.6040 -0.6056
 1809TIP3    H1 5433   4.162   3.304   2.389  0.1544 -0.8953 -0.0689
 1809TIP3    H2 5434   4.213   3.295   2.246  1.0595  0.3425  0.1638
 1810TIP3   OH2 5435   0.023   2.617   2.914 -0.2722 -0.5830 -0.0907
 1810TIP3    H1 5436   0.065   2.658   2.990 -2.4063  0.1027  0.8082
 1810TIP3    H2 5437  -0.022   2.541   2.950 -0.9603 -0.4907 -0.7313
 1811TIP3   OH2 5438   1.282   0.363   3.191  0.1569  0.0485 -0.7506
 1811TIP3    H1 5439   1.217   0.348   3.123  0.4796  0.2713 -1.1144
 1811TIP3    H2 5440   1.300   0.457   3.187  1.2674 -0.1664 -1.3766
 1812TIP3   OH2 5441   0.197   1.799   2.330  0.3069 -0.4511  0.0050
 1812TIP3    H1 5442   0.252   1.733   2.372  1.0461 -0.6615 -1.2592
 1812TIP3    H2 5443   0.255   1.844   2.269 -0.2982  1.0831  0.5117
 1813TIP3   OH2 5444   0.156   1.288   1.731 -0.2492 -0.3493  0.5478
 1813TIP3    H1 5445   0.172   1.220   1.665  0.0784 -1.3020  1.5899
 1813TIP3    H2 5446   0.137   1.366   1.679  1.7921 -0.6156 -0.7199
 1814TIP3   OH2 5447   4.204   3.175   0.261  0.4433  0.1922 -0.2798
 1814TIP3    H1 5448   4.252   3.205   0.183  0.1706 -0.3058 -0.6464
 1814TIP3    H2 5449   4.271   3.132   0.315  0.5289  0.0510 -0.4972
 1815TIP3   OH2 5450   1.860   1.473   0.629  0.1989  0.2063  0.3678
 1815TIP3    H1 5451   1.822   1.537   0.568  1.5325 -0.8515 -1.6617
 1815TIP3    H2 5452   1.809   1.484   0.709 -0.9900  2.3392 -0.5980
 1816TIP3   OH2 5453   1.165   1.170   2.120  0.4885 -0.2371  0.0545
 1816TIP3    H1 5454   1.220   1.129   2.186  0.1253 -0.6141  0.1190
 1816TIP3    H2 5455   1.211   1.153   2.037  1.1575  0.5842  0.2355
 1817TIP3   OH2 5456   2.572   3.278   1.323  0.6663  0.0064  0.1676
 1817TIP3    H1 5457   2.663   3.298   1.300  0.7958  2.5404  2.3544
 1817TIP3    H2 5458   2.523   3.357   1.299 -0.5693 -0.4967  0.9188
 1818TIP3   OH2 5459   2.058   3.892   3.226  0.2446  0.0297 -0.7610
 1818TIP3    H1 5460   2.040   3.938   3.144  2.1216  0.0058 -1.2267
 1818TIP3    H2 5461   2.121   3.948   3.272  1.8122 -1.5109 -0.8933
 1819TIP3   OH2 5462   3.630   5.947   0.590 -0.0284 -0.7073  0.5430
 1819TIP3    H1 5463   3.723   5.928   0.601  0.7441  1.2068 -1.8761
 1819TIP3    H2 5464   3.624   6.042   0.594 -2.2436 -0.8335  2.5477
 1820TIP3   OH2 5465   6.281   0.882   1.254  0.9053 -0.5251  0.1432
 1820TIP3    H1 5466   6.190   0.897   1.281  0.8241  2.0546 -1.1824
 1820TIP3    H2 5467   6.274   0.826   1.177  0.4553 -0.5847  0.2239
 1821TIP3   OH2 5468   0.418   4.389   4.000  0.6117 -0.5373 -0.6741
 1821TIP3    H1 5469   0.479   4.334   3.950  0.5200 -2.1933  0.9345
 1821TIP3    H2 5470   0.338   4.337   4.004  0.7903 -0.7218  1.5828
 1822TIP3   OH2 5471   5.335   2.033   1.552  0.2847  0.1289  0.2358
 1822TIP3    H1 5472   5.412   2.055   1.605  0.1728  1.1886 -0.0227
 1822TIP3    H2 5473   5.314   2.114   1.506  0.6230 -0.8411 -1.7543
 1823TIP3   OH2 5474   4.890   3.160   2.212 -0.1764 -0.4407  0.2932
 1823TIP3    H1 5475   4.886   3.249   2.247  0.5623  0.6235 -2.1106
 1823TIP3    H2 5476   4.808   3.149   2.164  0.4326 -0.3990 -0.7918
 1824TIP3   OH2 5477   0.998   0.299   3.778 -0.1006  0.4759  0.2657
 1824TIP3    H1 5478   0.917   0.300   3.726 -0.3908  0.9227  0.7147
 1824TIP3    H2 5479   1.013   0.207   3.798 -1.4483  0.5221  1.6316
 1825TIP3   OH2 5480   5.417   5.743   5.103 -0.0837  0.1744  0.1029
 1825TIP3    H1 5481   5.375   5.657   5.097 -1.2209  0.6450  0.9042
 1825TIP3    H2 5482   5.431   5.769   5.012 -1.2823 -0.1440 -0.1924
 1826TIP3   OH2 5483   4.027   1.948   0.273 -0.1384  0.3520  0.1393
 1826TIP3    H1 5484   3.980   1.999   0.207  1.0416  1.4929  0.1459
 1826TIP3    H2 5485   3.960   1.892   0.312 -1.4223  1.6332 -0.1306
 1827TIP3   OH2 5486   3.093   1.685   2.765  0.0424 -0.4850 -0.1134
 1827TIP3    H1 5487   3.185   1.697   2.788  0.6451 -0.0976 -2.4873
 1827TIP3    H2 5488   3.044   1.719   2.840  1.8144  2.6657 -0.2368
 1828TIP3   OH2 5489   0.585   1.742   2.234  0.1317 -0.3283 -0.4217
 1828TIP3    H1 5490   0.561   1.665   2.182 -0.7587 -0.1505 -0.2738
 1828TIP3    H2 5491   0.548   1.816   2.185  0.3401 -0.0564 -0.1694
 1829TIP3   OH2 5492   0.886   1.370   4.647 -0.4578  0.1448 -0.1346
 1829TIP3    H1 5493   0.875   1.366   4.742 -0.5866 -1.0815 -0.1870
 1829TIP3    H2 5494   0.904   1.280   4.621  0.7891  0.6540 -1.1415
 1830TIP3   OH2 5495   4.936   5.919   3.263  0.9319 -0.1538  0.7018
 1830TIP3    H1 5496   4.979   5.973   3.197  1.1330 -0.6243  0.4416
 1830TIP3    H2 5497   4.909   5.840   3.216  1.6653 -0.7871  1.2990
 1831TIP3   OH2 5498   5.249   2.961   0.303  0.3713 -0.4726  0.2818
 1831TIP3    H1 5499   5.338   2.931   0.325  0.1608 -1.8908 -0.6771
 1831TIP3    H2 5500   5.260   3.054   0.283  1.6631 -0.6288  0.1449
 1832TIP3   OH2 5501   3.477   0.152   4.400 -0.5177  0.7149  0.4467
 1832TIP3    H1 5502   3.471   0.222   4.465  0.0931 -0.7494  2.1849
 1832TIP3    H2 5503   3.419   0.084   4.434  0.5612 -0.4797 -0.0322
 1833TIP3   OH2 5504   4.292   0.505   0.957 -0.7236 -0.1345  0.2740
 1833TIP3    H1 5505   4.214   0.460   0.924 -1.7131  1.8001 -0.1125
 1833TIP3    H2 5506   4.365   0.460   0.914 -1.6880 -1.0647 -0.4447
 1834TIP3   OH2 5507   3.770   0.896   5.164 -0.3921  0.1353 -0.3133
 1834TIP3    H1 5508   3.864   0.893   5.179 -0.4386 -1.2044 -0.1398
 1834TIP3    H2 5509   3.745   0.986   5.184  1.0130  0.8093 -1.4629
 1835TIP3   OH2 5510   0.471   4.204   0.210  0.4814  0.1642  0.1134
 1835TIP3    H1 5511   0.566   4.204   0.198  0.3540  0.5885 -0.9928
 1835TIP3    H2 5512   0.458   4.175   0.300  1.7236  1.4553  0.7510
 1836TIP3   OH2 5513   0.175   5.023   3.375  0.0448 -0.2098 -0.0962
 1836TIP3    H1 5514   0.159   5.072   3.295  0.4060  0.3652  0.1806
 1836TIP3    H2 5515   0.149   5.082   3.446  2.5912  0.4833  0.3521
 1837TIP3   OH2 5516   5.244   2.416   1.466 -0.0093  0.3161  0.6272
 1837TIP3    H1 5517   5.334   2.397   1.439 -0.6358 -0.6991 -0.8670
 1837TIP3    H2 5518   5.226   2.502   1.430 -0.2307 -0.2736 -0.7513
 1838TIP3   OH2 5519   5.856   1.591   4.899 -0.3505  0.4214 -0.6049
 1838TIP3    H1 5520   5.949   1.612   4.893  0.2675 -2.2970 -2.5970
 1838TIP3    H2 5521   5.819   1.622   4.817 -0.1250 -2.4923 -1.9565
 1839TIP3   OH2 5522   2.681   2.929   3.164 -0.6618 -0.1860 -0.3883
 1839TIP3    H1 5523   2.640   2.914   3.080 -1.4549 -0.4943  0.0456
 1839TIP3    H2 5524   2.774   2.912   3.149 -0.8237 -0.4232 -1.1478
 1840TIP3   OH2 5525   4.652   2.436   4.425 -0.5465  0.4472  0.0998
 1840TIP3    H1 5526   4.714   2.370   4.394 -1.9782 -1.5818  1.3499
 1840TIP3    H2 5527   4.685   2.518   4.389  2.3014 -0.6681 -0.1052
 1841TIP3   OH2 5528   4.626   1.520   2.644  0.3493  0.2838  0.1025
 1841TIP3    H1 5529   4.551   1.567   2.680  0.7216  2.2307 -1.4347
 1841TIP3    H2 5530   4.592   1.473   2.568  0.0067 -1.9803  1.5619
 1842TIP3   OH2 5531   1.832   5.389   3.699  0.1308  0.2275 -0.0741
 1842TIP3    H1 5532   1.838   5.295   3.718  1.1998  0.3459  0.2011
 1842TIP3    H2 5533   1.784   5.393   3.616  1.1420 -0.6367 -0.7320
 1843TIP3   OH2 5534   5.333   1.353   2.700  0.2609 -0.4202  0.2129
 1843TIP3    H1 5535   5.371   1.342   2.787 -0.5537  0.5434  0.7152
 1843TIP3    H2 5536   5.270   1.282   2.691  0.3190 -0.4971  0.4190
 1844TIP3   OH2 5537   1.319   1.763   0.183  0.1226  0.7152  0.3841
 1844TIP3    H1 5538   1.363   1.687   0.144  0.1884  0.8245  0.2470
 1844TIP3    H2 5539   1.234   1.729   0.211 -1.7979  1.5161 -3.7192
 1845TIP3   OH2 5540   0.406   1.741   3.502 -0.2111  0.1276 -0.0770
 1845TIP3    H1 5541   0.467   1.750   3.430 -1.8335 -1.0636 -1.7105
 1845TIP3    H2 5542   0.354   1.821   3.501  0.3501  0.4994  0.3599
 1846TIP3   OH2 5543   2.364   2.675   0.326  0.8011  0.3019  0.7337
 1846TIP3    H1 5544   2.301   2.627   0.273  0.4714  1.5853 -0.0928
 1846TIP3    H2 5545   2.381   2.755   0.276  0.3364  1.6699  2.6686
 1847TIP3   OH2 5546   0.196   4.700   2.012  0.3512  0.7709  0.2009
 1847TIP3    H1 5547   0.272   4.758   2.010 -1.0187  2.6706  0.3001
 1847TIP3    H2 5548   0.177   4.688   2.105 -0.3723  1.6123  0.1792
 1848TIP3   OH2 5549   2.913   3.421   3.971 -0.1045  1.0657  0.4243
 1848TIP3    H1 5550   2.901   3.430   4.066  2.4086 -0.2162  0.9696
 1848TIP3    H2 5551   2.928   3.327   3.958  1.2171  1.4343 -0.9879
 1849TIP3   OH2 5552   0.793   5.711   4.892 -0.2225 -0.3111  0.3460
 1849TIP3    H1 5553   0.848   5.675   4.962 -1.1603  1.6729  2.2116
 1849TIP3    H2 5554   0.704   5.690   4.918 -0.5257 -1.2813 -1.3454
 1850TIP3   OH2 5555   2.420   2.794   1.629 -0.1240  0.4055 -0.3456
 1850TIP3    H1 5556   2.336   2.777   1.587  0.4027  0.5412 -1.5261
 1850TIP3    H2 5557   2.468   2.845   1.564  1.5463 -1.2219 -0.4656
 1851TIP3   OH2 5558   0.369   1.357   0.252  0.2702 -0.2875 -0.0077
 1851TIP3    H1 5559   0.367   1.435   0.308  0.7287 -0.3371  0.0772
 1851TIP3    H2 5560   0.458   1.323   0.260  0.3151 -0.3474 -0.6996
 1852TIP3   OH2 5561   4.514   1.633   1.808 -0.0824  0.6597  0.0171
 1852TIP3    H1 5562   4.467   1.676   1.736  1.7535 -0.0712 -1.7077
 1852TIP3    H2 5563   4.579   1.697   1.836  0.1379  0.4278  0.0450
 1853TIP3   OH2 5564   1.168   0.872   3.193 -0.3874  0.3233 -0.0434
 1853TIP3    H1 5565   1.134   0.911   3.112 -3.3835 -0.7814  0.5704
 1853TIP3    H2 5566   1.092   0.865   3.250  1.1790 -1.1191  2.0132
 1854TIP3   OH2 5567   0.577   5.288   4.227 -0.3309  0.1477  0.5373
 1854TIP3    H1 5568   0.601   5.373   4.191 -0.2341  0.7997  2.0717
 1854TIP3    H2 5569   0.657   5.254   4.266 -0.2515 -0.8886 -0.4629
 1855TIP3   OH2 5570   3.319   3.402   1.480  0.2854 -0.5102 -0.1134
 1855TIP3    H1 5571   3.285   3.328   1.530  1.2136 -1.9119 -1.4714
 1855TIP3    H2 5572   3.356   3.460   1.546 -0.6119 -1.1462  1.0016
 1856TIP3   OH2 5573   4.239   5.387   3.810 -0.0617  0.0670 -0.2584
 1856TIP3    H1 5574   4.330   5.385   3.840 -0.6005  0.9838  1.6015
 1856TIP3    H2 5575   4.211   5.478   3.825 -1.3136 -0.2136 -0.7555
 1857TIP3   OH2 5576   5.655   3.533   3.661 -0.0427 -0.2073 -0.5595
 1857TIP3    H1 5577   5.597   3.470   3.618 -0.3660 -0.4143  0.1519
 1857TIP3    H2 5578   5.711   3.478   3.716 -0.0617  0.0923 -0.2390
 1858TIP3   OH2 5579   1.825   2.909   2.663 -0.6076 -0.0301  0.3502
 1858TIP3    H1 5580   1.865   2.878   2.745 -0.8329  1.6656  1.1514
 1858TIP3    H2 5581   1.778   2.833   2.629 -0.6671 -0.7271  1.8913
 1859TIP3   OH2 5582   3.352   3.125   2.091  0.1486  0.1548 -0.4020
 1859TIP3    H1 5583   3.363   3.141   2.185 -0.5241  0.4974 -0.3773
 1859TIP3    H2 5584   3.285   3.056   2.086 -0.0405  0.3524 -0.6347
 1860TIP3   OH2 5585   3.023   5.590   1.415 -0.0266 -0.4328 -0.4440
 1860TIP3    H1 5586   3.104   5.623   1.375  0.2293 -0.8974 -0.3191
 1860TIP3    H2 5587   2.996   5.518   1.358 -1.7227  1.2720 -1.9095
 1861TIP3   OH2 5588   5.193   0.452   1.955  0.1729  0.4918  0.1204
 1861TIP3    H1 5589   5.269   0.396   1.964 -0.4142 -0.1391  1.4628
 1861TIP3    H2 5590   5.220   0.521   1.895  1.1371 -0.8297 -0.9983
 1862TIP3   OH2 5591   0.281   1.669   2.568  0.4707 -0.4091  0.0355
 1862TIP3    H1 5592   0.359   1.657   2.621  0.2014 -0.1958  0.4937
 1862TIP3    H2 5593   0.212   1.691   2.631  0.2594  0.3982 -0.4519
 1863TIP3   OH2 5594   2.955   3.202   4.458  0.2639 -0.7535  0.0673
 1863TIP3    H1 5595   2.907   3.140   4.514  1.4570 -2.6161 -0.8801
 1863TIP3    H2 5596   3.015   3.246   4.518 -0.1077 -1.0046  0.6371
 1864TIP3   OH2 5597   3.253   4.059   2.415  0.4669 -0.4005  0.0160
 1864TIP3    H1 5598   3.285   4.146   2.392  0.0844 -0.6515 -1.5900
 1864TIP3    H2 5599   3.332   4.012   2.443  0.8103  0.2271  0.1238
 1865TIP3   OH2 5600   4.812   3.373   1.620 -0.2262 -0.2470 -0.9536
 1865TIP3    H1 5601   4.736   3.369   1.563 -0.4522 -0.9242 -0.6127
 1865TIP3    H2 5602   4.871   3.434   1.577 -1.2643  0.8645 -0.8415
 1866TIP3   OH2 5603   0.500   2.306   2.995 -0.0970 -0.0642 -0.0717
 1866TIP3    H1 5604   0.428   2.363   2.968 -0.5877 -0.5049  0.2845
 1866TIP3    H2 5605   0.474   2.275   3.082  0.2083 -0.7504 -0.2213
 1867TIP3   OH2 5606   0.583   5.404   5.182  0.0706 -0.5190 -0.5719
 1867TIP3    H1 5607   0.604   5.351   5.105 -2.0233  1.9409 -3.0634
 1867TIP3    H2 5608   0.666   5.446   5.205  0.5266 -0.3162 -2.3823
 1868TIP3   OH2 5609   3.478   3.942   3.001  0.2398 -0.2069 -0.2059
 1868TIP3    H1 5610   3.468   3.875   3.068  2.3798 -2.0596 -1.5823
 1868TIP3    H2 5611   3.417   3.916   2.931  0.3086 -0.1080 -0.3037
 1869TIP3   OH2 5612   5.724   4.729   3.976  0.0562  0.0581 -0.2263
 1869TIP3    H1 5613   5.721   4.810   3.925  1.1263 -0.2835 -0.8657
 1869TIP3    H2 5614   5.718   4.758   4.067 -1.2590  0.7245 -0.5025
 1870TIP3   OH2 5615   5.403   5.986   4.501  0.6258 -0.1449  0.3174
 1870TIP3    H1 5616   5.483   5.958   4.456  0.5139 -0.9189  0.5748
 1870TIP3    H2 5617   5.333   5.936   4.459  0.5841 -1.3035  1.6575
 1871TIP3   OH2 5618   0.256   0.230   3.889 -0.5497 -0.3088  0.2021
 1871TIP3    H1 5619   0.210   0.145   3.891 -1.0869 -0.0315 -0.1656
 1871TIP3    H2 5620   0.189   0.294   3.912 -0.1446  0.0229  0.4704
 1872TIP3   OH2 5621   0.003   0.429   1.267  0.4143  0.2562  0.3639
 1872TIP3    H1 5622   0.093   0.413   1.295  0.0550 -0.3513  1.2551
 1872TIP3    H2 5623  -0.033   0.486   1.335 -0.5598 -1.4638  1.3680
 1873TIP3   OH2 5624   0.644   0.494   2.848  0.0763 -0.2694 -0.2291
 1873TIP3    H1 5625   0.563   0.461   2.885 -0.2207 -0.5338 -1.0898
 1873TIP3    H2 5626   0.655   0.446   2.766  0.6317  0.3964 -0.5628
 1874TIP3   OH2 5627   0.386   3.201   0.922 -0.4507 -0.3995 -0.1679
 1874TIP3    H1 5628   0.456   3.244   0.872 -1.2827  1.7411  0.4062
 1874TIP3    H2 5629   0.417   3.111   0.934  0.3296 -0.6944 -3.4487
 1875TIP3   OH2 5630   4.554   2.371   0.616 -0.5901  0.6368  0.0965
 1875TIP3    H1 5631   4.548   2.448   0.560 -0.1199  0.7991  0.2640
 1875TIP3    H2 5632   4.647   2.366   0.640 -1.0513  1.6022  2.3054
 1876TIP3   OH2 5633   1.916   2.938   1.334  0.4468 -0.0823 -0.7091
 1876TIP3    H1 5634   1.854   2.900   1.397  0.3819 -2.2908 -1.9817
 1876TIP3    H2 5635   1.976   2.990   1.388  0.5782 -2.0814  1.2770
 1877TIP3   OH2 5636   4.949   2.435   3.001  0.0404 -0.6720  0.2589
 1877TIP3    H1 5637   4.946   2.340   3.011  0.0381 -0.6483  0.5007
 1877TIP3    H2 5638   4.985   2.466   3.084  0.0411 -0.4624  0.1794
 1878TIP3   OH2 5639   0.042   4.539   0.369 -0.0423  1.0479 -0.0534
 1878TIP3    H1 5640   0.129   4.501   0.356  0.3005  2.1110 -1.0495
 1878TIP3    H2 5641  -0.000   4.531   0.283 -1.1140  0.1496  0.5283
 1879TIP3   OH2 5642   5.368   5.678   0.045  0.3577 -0.1973 -0.1748
 1879TIP3    H1 5643   5.278   5.664   0.077  1.3772 -2.3447  2.0787
 1879TIP3    H2 5644   5.391   5.766   0.075 -0.3194 -0.4037  1.0155
 1880TIP3   OH2 5645   3.900   1.866   4.660  0.6016  0.2174 -0.0585
 1880TIP3    H1 5646   3.917   1.883   4.753 -1.2878 -0.1712  0.4149
 1880TIP3    H2 5647   3.862   1.778   4.659 -2.5753  1.4646 -0.7193
 1881TIP3   OH2 5648   5.866   0.434   0.776  0.1290  0.2753  0.1647
 1881TIP3    H1 5649   5.823   0.514   0.807  0.5574  1.5722 -2.2749
 1881TIP3    H2 5650   5.896   0.390   0.855 -1.0864  1.9675  1.6557
 1882TIP3   OH2 5651   2.849   3.397   0.653 -0.1058 -0.3684  0.8222
 1882TIP3    H1 5652   2.853   3.302   0.665  1.5809 -0.4828 -0.3583
 1882TIP3    H2 5653   2.855   3.432   0.742 -0.5576 -1.3379  1.2569
 1883TIP3   OH2 5654   0.390   5.553   4.767  0.0217  0.8791  0.3338
 1883TIP3    H1 5655   0.446   5.550   4.690 -0.2052 -2.3984  0.1609
 1883TIP3    H2 5656   0.302   5.570   4.732  0.0031 -0.0575 -0.0966
 1884TIP3   OH2 5657   5.283   1.590   1.633 -0.7460  0.2113 -0.2049
 1884TIP3    H1 5658   5.360   1.632   1.671  0.8571 -0.5511 -2.3835
 1884TIP3    H2 5659   5.221   1.583   1.705  0.5988  2.2683  1.2647
 1885TIP3   OH2 5660   5.141   0.982   4.023 -0.0487  0.6325  0.4781
 1885TIP3    H1 5661   5.131   0.992   4.118 -1.6626  0.6459  0.3463
 1885TIP3    H2 5662   5.092   1.055   3.986  0.4711  0.5606 -0.3614
 1886TIP3   OH2 5663   3.737   5.599   4.623 -0.4346  0.5388 -0.2567
 1886TIP3    H1 5664   3.749   5.655   4.699 -1.4694 -0.1784  0.4768
 1886TIP3    H2 5665   3.671   5.644   4.569 -2.0973 -0.4204  0.8721
 1887TIP3   OH2 5666   2.296   3.204   1.323  0.3543 -0.2878 -0.1323
 1887TIP3    H1 5667   2.383   3.217   1.360  0.9388 -1.9188 -0.8337
 1887TIP3    H2 5668   2.307   3.223   1.230 -0.0668 -0.4422 -0.2159
 1888TIP3   OH2 5669   3.545   4.697   0.420  0.0272 -0.3303  0.2631
 1888TIP3    H1 5670   3.636   4.674   0.399 -0.1119 -0.5095 -0.1480
 1888TIP3    H2 5671   3.552   4.781   0.465  0.2715  0.4903 -1.2286
 1889TIP3   OH2 5672   1.317   2.945   3.556 -0.3063 -0.5523  0.0709
 1889TIP3    H1 5673   1.362   3.029   3.550 -0.2290 -0.5030  1.1033
 1889TIP3    H2 5674   1.300   2.919   3.466 -0.0757  0.4353 -0.2579
 1890TIP3   OH2 5675   3.658   3.271   0.172  0.1412 -0.2232  0.1305
 1890TIP3    H1 5676   3.679   3.342   0.234  1.1487 -1.1079  0.8352
 1890TIP3    H2 5677   3.597   3.215   0.220  0.5082 -0.6290  0.1196
 1891TIP3   OH2 5678   0.400   4.791   4.404  0.4957 -0.3725 -0.0751
 1891TIP3    H1 5679   0.337   4.728   4.368  1.0492 -0.5908 -0.6788
 1891TIP3    H2 5680   0.374   4.875   4.367 -1.5017  0.1703  2.3078
 1892TIP3   OH2 5681   2.117   0.607   1.113 -0.4210 -0.2175  0.3970
 1892TIP3    H1 5682   2.156   0.521   1.126 -1.6329 -0.7779  0.5144
 1892TIP3    H2 5683   2.125   0.650   1.198  0.4978 -0.0748  0.2441
 1893TIP3   OH2 5684   4.273   1.326   2.609 -0.4210  0.2826  0.6337
 1893TIP3    H1 5685   4.284   1.311   2.515 -0.4238 -1.0589  0.8384
 1893TIP3    H2 5686   4.178   1.324   2.622 -0.4551  1.0653  0.5895
 1894TIP3   OH2 5687   0.894   2.588   1.349  0.1875  0.2975  0.1055
 1894TIP3    H1 5688   0.989   2.601   1.340 -0.0912  1.9176 -0.9097
 1894TIP3    H2 5689   0.867   2.655   1.412 -0.4044  0.4335 -0.2879
 1895TIP3   OH2 5690   5.187   0.073   0.237 -0.5061  0.1502 -0.4882
 1895TIP3    H1 5691   5.177   0.156   0.282 -0.9715 -0.4777  0.5910
 1895TIP3    H2 5692   5.183   0.096   0.144 -1.2455  1.2532 -0.2067
 1896TIP3   OH2 5693   3.006   4.371   4.760 -0.1161 -0.2865  0.7652
 1896TIP3    H1 5694   2.950   4.445   4.735 -0.4658 -0.5138  0.8764
 1896TIP3    H2 5695   3.095   4.406   4.754 -0.2403 -0.0595  0.1279
 1897TIP3   OH2 5696   3.071   2.728   0.341  0.0637  0.2631  0.0030
 1897TIP3    H1 5697   3.066   2.645   0.388 -0.4292  0.7083  0.7640
 1897TIP3    H2 5698   3.156   2.725   0.296 -0.0178 -0.7089 -0.1080
 1898TIP3   OH2 5699   0.640   0.616   1.267 -0.3262 -0.2527  0.0428
 1898TIP3    H1 5700   0.547   0.595   1.258 -0.4794  0.7948 -0.8837
 1898TIP3    H2 5701   0.641   0.692   1.325 -0.0175 -0.4809  0.3378
 1899TIP3   OH2 5702   0.969   2.048   3.207 -0.0148  0.6265 -0.0937
 1899TIP3    H1 5703   1.008   1.962   3.224 -0.9359  0.4215  1.1019
 1899TIP3    H2 5704   0.875   2.034   3.217 -0.2189  1.6282 -0.5506
 1900TIP3   OH2 5705   5.813   0.831   2.723 -0.1612  0.2711 -0.1973
 1900TIP3    H1 5706   5.845   0.920   2.712 -0.7623  0.4968 -0.1973
 1900TIP3    H2 5707   5.857   0.780   2.655  0.2523  0.5523 -0.1387
 1901TIP3   OH2 5708   1.724   1.305   0.003 -0.3910  0.7325  0.6375
 1901TIP3    H1 5709   1.710   1.236   0.068 -0.8355  0.4459  0.2424
 1901TIP3    H2 5710   1.694   1.385   0.047 -2.0582  0.3285  0.2925
 1902TIP3   OH2 5711   3.125   5.932   2.246 -0.2188  0.2551 -0.8079
 1902TIP3    H1 5712   3.193   5.883   2.199  0.4131 -1.0664  1.3416
 1902TIP3    H2 5713   3.053   5.870   2.256 -0.4836  0.6304 -0.3612
 1903TIP3   OH2 5714   2.823   2.715   1.976  0.0189 -0.0191 -0.4809
 1903TIP3    H1 5715   2.787   2.629   1.956  0.6076 -1.1602  2.7907
 1903TIP3    H2 5716   2.747   2.769   1.997 -0.2592 -1.4942  3.1051
 1904TIP3   OH2 5717   2.775   0.859   0.409  0.2469 -0.0380  0.5132
 1904TIP3    H1 5718   2.707   0.925   0.427  1.1618  0.5222  2.1572
 1904TIP3    H2 5719   2.857   0.901   0.436  1.4528 -0.3237 -2.3191
 1905TIP3   OH2 5720   2.198   1.784   4.076 -0.0744  0.5755  0.2718
 1905TIP3    H1 5721   2.292   1.792   4.089  0.1052  0.4775 -0.8532
 1905TIP3    H2 5722   2.164   1.873   4.081  0.0409  0.5910  0.8657
 1906TIP3   OH2 5723   6.056   3.179   3.261  0.1544  0.0406 -0.6448
 1906TIP3    H1 5724   6.044   3.123   3.184  0.5766 -1.6097  0.4266
 1906TIP3    H2 5725   6.097   3.258   3.227 -0.1957 -0.4079 -2.1915
 1907TIP3   OH2 5726   0.823   1.124   2.715 -0.1304  0.4513  0.3288
 1907TIP3    H1 5727   0.918   1.133   2.713  0.2158 -2.1342  1.1819
 1907TIP3    H2 5728   0.798   1.158   2.800  0.6148 -2.2704  1.7778
 1908TIP3   OH2 5729   3.283   4.981   1.224 -0.5161 -0.1629  0.0958
 1908TIP3    H1 5730   3.330   5.060   1.250  0.7039 -0.3210 -1.4747
 1908TIP3    H2 5731   3.292   4.922   1.300  0.7238  0.2941  0.3382
 1909TIP3   OH2 5732   3.746   3.385   4.244 -0.3992  0.6836  0.1907
 1909TIP3    H1 5733   3.728   3.478   4.248  0.8906  0.9204  1.3719
 1909TIP3    H2 5734   3.685   3.346   4.306 -0.3439  0.8517  0.3505
 1910TIP3   OH2 5735   6.245   4.182   1.002 -0.4140 -0.3360 -0.2243
 1910TIP3    H1 5736   6.168   4.225   1.040 -0.5841 -1.0677  0.2951
 1910TIP3    H2 5737   6.222   4.167   0.911 -0.6586 -0.0257 -0.2142
 1911TIP3   OH2 5738   0.831   5.363   4.428 -0.1539  0.5756  0.2432
 1911TIP3    H1 5739   0.744   5.376   4.467 -1.7887 -1.8687 -2.2173
 1911TIP3    H2 5740   0.849   5.270   4.443  0.9574  0.5110 -1.3128
 1912TIP3   OH2 5741   5.722   0.579   4.185 -0.0021 -0.3466 -0.3461
 1912TIP3    H1 5742   5.734   0.543   4.272  0.2525 -0.6451 -0.5038
 1912TIP3    H2 5743   5.804   0.625   4.166 -0.4114  0.5288 -0.0496
 1913TIP3   OH2 5744   3.367   0.842   3.874  0.2010  0.5270 -0.4102
 1913TIP3    H1 5745   3.416   0.825   3.793  0.8620  0.6004 -0.0251
 1913TIP3    H2 5746   3.431   0.835   3.944 -0.4205  0.2110  0.1423
 1914TIP3   OH2 5747   0.754   3.384   2.267  0.0347 -0.2838 -0.0089
 1914TIP3    H1 5748   0.805   3.369   2.347 -0.3936  0.2765  0.3786
 1914TIP3    H2 5749   0.671   3.338   2.282 -0.2258  0.2000  0.0679
 1915TIP3   OH2 5750   2.875   3.548   5.077  0.2387  0.2422 -0.9561
 1915TIP3    H1 5751   2.965   3.528   5.052  0.1198  0.5715 -1.6918
 1915TIP3    H2 5752   2.880   3.633   5.122  0.3533  0.0488 -0.6088
 1916TIP3   OH2 5753   3.441   2.636   2.649  0.0925  0.3597 -0.0335
 1916TIP3    H1 5754   3.435   2.732   2.646 -0.5597  0.4371  2.2765
 1916TIP3    H2 5755   3.504   2.618   2.719 -1.1154 -0.9024  0.7686
 1917TIP3   OH2 5756   0.800   2.442   1.571 -0.2910 -0.3301 -0.4715
 1917TIP3    H1 5757   0.865   2.480   1.630  1.0275 -3.4820  0.3442
 1917TIP3    H2 5758   0.801   2.498   1.494  1.1545  1.4276  0.7457
 1918TIP3   OH2 5759   4.093   0.861   1.419 -0.0444  0.5973  0.2835
 1918TIP3    H1 5760   4.012   0.863   1.367 -0.8047  1.2353  1.4482
 1918TIP3    H2 5761   4.124   0.771   1.411 -1.6777 -0.0691  0.9967
 1919TIP3   OH2 5762   2.573   0.518   3.242 -0.5857 -0.3828  0.5315
 1919TIP3    H1 5763   2.606   0.607   3.251 -0.8366 -0.0191 -1.6103
 1919TIP3    H2 5764   2.515   0.506   3.317 -1.6334  1.7659  0.1395
 1920TIP3   OH2 5765   0.552   2.154   2.105  0.0337  0.4897  0.6006
 1920TIP3    H1 5766   0.552   2.217   2.177 -0.3073 -1.2995  2.2341
 1920TIP3    H2 5767   0.635   2.108   2.113 -0.6233 -0.7076  0.7853
 1921TIP3   OH2 5768   3.688   2.385   0.278  0.3170 -0.1301 -0.2444
 1921TIP3    H1 5769   3.608   2.405   0.229 -0.1826 -0.1725  0.5387
 1921TIP3    H2 5770   3.746   2.459   0.261 -0.0621  0.1189 -0.4646
 1922TIP3   OH2 5771   0.339   5.367   4.402 -0.5152  0.2869  0.1545
 1922TIP3    H1 5772   0.358   5.461   4.393  0.7629 -0.1478 -3.2182
 1922TIP3    H2 5773   0.399   5.325   4.341 -0.5849 -2.8623  2.0660
 1923TIP3   OH2 5774   6.114   5.626   0.754 -0.3451  0.4718  0.6137
 1923TIP3    H1 5775   6.060   5.595   0.826 -1.5846 -2.5048 -1.4259
 1923TIP3    H2 5776   6.183   5.561   0.746  0.6187  1.5316 -0.0321
 1924TIP3   OH2 5777   2.613   1.530   1.532 -0.0270 -0.7279 -0.1321
 1924TIP3    H1 5778   2.682   1.580   1.488 -0.3479 -0.9137 -0.8592
 1924TIP3    H2 5779   2.558   1.597   1.573 -1.0258 -0.3838 -1.9391
 1925TIP3   OH2 5780   3.956   0.323   3.247  0.4498  0.0148 -0.2241
 1925TIP3    H1 5781   3.956   0.229   3.232 -1.0125  0.1455 -1.2506
 1925TIP3    H2 5782   3.968   0.333   3.341 -2.0609 -1.3125  0.3234
 1926TIP3   OH2 5783   2.116   2.748   3.587 -0.0697  1.0592  0.8653
 1926TIP3    H1 5784   2.039   2.772   3.535 -0.3156  4.4739  2.4898
 1926TIP3    H2 5785   2.080   2.708   3.666 -0.0918  1.1013  0.8769
 1927TIP3   OH2 5786   3.633   0.628   4.013  0.4048 -0.5164 -0.0835
 1927TIP3    H1 5787   3.680   0.584   3.942 -0.2011  0.5092 -1.1532
 1927TIP3    H2 5788   3.541   0.604   3.999 -0.0260  1.5271 -1.0672
 1928TIP3   OH2 5789   0.289   2.038   1.495  0.2558 -0.2991  0.3251
 1928TIP3    H1 5790   0.267   2.098   1.566 -0.7468  0.3097 -0.4628
 1928TIP3    H2 5791   0.278   1.950   1.533 -1.1696  0.0029  0.6912
 1929TIP3   OH2 5792   0.665   0.674   2.519  0.2004 -0.4274 -0.0651
 1929TIP3    H1 5793   0.623   0.599   2.477  0.0641 -0.4714  0.1465
 1929TIP3    H2 5794   0.633   0.750   2.470  1.7512 -0.6234 -1.4447
 1930TIP3   OH2 5795   5.071   2.158   1.922  0.3187 -0.6277 -0.0583
 1930TIP3    H1 5796   4.997   2.169   1.863 -0.3210  0.4777  0.9042
 1930TIP3    H2 5797   5.034   2.115   1.999 -0.1427  2.7503  1.8028
 1931TIP3   OH2 5798   5.871   4.166   0.568 -0.3540  0.2776 -0.1172
 1931TIP3    H1 5799   5.886   4.185   0.475 -2.4450  1.0294 -0.3572
 1931TIP3    H2 5800   5.849   4.251   0.607  0.0391 -0.1063  0.9964
 1932TIP3   OH2 5801   4.488   2.563   3.849  0.0350  0.6022 -0.1241
 1932TIP3    H1 5802   4.487   2.500   3.921  1.9231 -0.6248 -1.0624
 1932TIP3    H2 5803   4.541   2.636   3.881  0.7976  0.0983 -0.1895
 1933TIP3   OH2 5804   5.301   1.484   3.561 -0.5495 -0.6233 -0.1555
 1933TIP3    H1 5805   5.217   1.531   3.557  0.1710  0.6882 -0.5299
 1933TIP3    H2 5806   5.304   1.448   3.649 -0.8745  0.5596  0.3633
 1934TIP3   OH2 5807   5.367   5.610   3.609  0.0536 -0.2613  0.4344
 1934TIP3    H1 5808   5.453   5.650   3.622 -0.1183  0.2752 -0.0140
 1934TIP3    H2 5809   5.307   5.669   3.656 -0.3213  0.5695 -1.0207
 1935TIP3   OH2 5810   4.976   2.464   1.697  0.2478  0.1072  0.3343
 1935TIP3    H1 5811   5.017   2.534   1.646  1.4013 -0.1282  0.8899
 1935TIP3    H2 5812   4.988   2.491   1.788 -0.1454 -0.3636  0.5284
 1936TIP3   OH2 5813   0.577   2.476   4.347  0.2845  0.1341  0.1603
 1936TIP3    H1 5814   0.633   2.399   4.357 -0.6099 -0.5535  0.0057
 1936TIP3    H2 5815   0.489   2.445   4.368  0.1358  1.5332  1.8905
 1937TIP3   OH2 5816   6.194   2.498   3.472 -0.1275 -0.1903 -0.2355
 1937TIP3    H1 5817   6.279   2.542   3.469 -0.2135  0.2688  2.1296
 1937TIP3    H2 5818   6.131   2.566   3.446  0.1761 -0.5781 -2.1613
 1938TIP3   OH2 5819   3.673   1.211   4.535  0.0858 -0.1496  0.3356
 1938TIP3    H1 5820   3.588   1.255   4.532 -0.2162 -0.6728  0.8623
 1938TIP3    H2 5821   3.708   1.232   4.621 -0.0131 -0.8315  0.5504
 1939TIP3   OH2 5822   0.069   1.057   3.360  0.3775 -0.0778  0.4729
 1939TIP3    H1 5823  -0.017   1.076   3.397  0.5702 -0.4217  1.1130
 1939TIP3    H2 5824   0.125   1.127   3.393  0.3956  0.0116  0.2524
 1940TIP3   OH2 5825   2.988   4.545   1.187  0.0744 -0.1708 -0.1683
 1940TIP3    H1 5826   2.892   4.535   1.188  0.1011 -0.4678  0.6219
 1940TIP3    H2 5827   3.019   4.476   1.247  0.5810  1.8706  2.0714
 1941TIP3   OH2 5828   6.143   0.591   3.249 -0.1046 -0.6783  0.1477
 1941TIP3    H1 5829   6.229   0.584   3.207 -0.2727  1.9719 -0.7984
 1941TIP3    H2 5830   6.164   0.595   3.343  0.8748  0.3746 -0.0887
 1942TIP3   OH2 5831   2.119   3.227   3.172 -0.3137 -0.2613  0.2068
 1942TIP3    H1 5832   2.188   3.171   3.138  0.6271  0.9760  0.0107
 1942TIP3    H2 5833   2.041   3.172   3.171  0.8225 -1.9598  1.2399
 1943TIP3   OH2 5834   5.505   0.767   0.210  0.1512  0.3411  0.2066
 1943TIP3    H1 5835   5.541   0.709   0.278  0.3219  0.5739  0.3174
 1943TIP3    H2 5836   5.444   0.712   0.161 -0.0095  0.1872  0.5807
 1944TIP3   OH2 5837   0.867   1.824   0.759  0.0922 -0.1439  0.0631
 1944TIP3    H1 5838   0.841   1.856   0.673  0.9246 -1.6387 -0.7764
 1944TIP3    H2 5839   0.927   1.891   0.793 -0.6625  0.7129 -0.2729
 1945TIP3   OH2 5840   1.015   5.351   2.928 -0.6271 -0.3748 -0.4741
 1945TIP3    H1 5841   0.930   5.371   2.966 -1.1978 -1.9164 -0.8842
 1945TIP3    H2 5842   1.003   5.362   2.833 -0.6468 -1.5435 -0.6118
 1946TIP3   OH2 5843   4.210   5.799   4.314  0.3678  0.4131  0.2643
 1946TIP3    H1 5844   4.236   5.739   4.384 -0.6097 -0.6287 -0.2437
 1946TIP3    H2 5845   4.261   5.878   4.331  1.1368 -0.2898  1.3776
 1947TIP3   OH2 5846   4.663   1.347   0.491  0.2093  0.3296  0.4867
 1947TIP3    H1 5847   4.736   1.359   0.430  0.6277  2.6985  1.3404
 1947TIP3    H2 5848   4.603   1.287   0.446  1.1775  0.8308 -1.5980
 1948TIP3   OH2 5849   5.154   5.194   3.195 -0.6285  0.3399 -0.1646
 1948TIP3    H1 5850   5.152   5.214   3.289 -0.9623 -0.2391 -0.0448
 1948TIP3    H2 5851   5.109   5.110   3.188 -0.5685  0.3648 -0.8414
 1949TIP3   OH2 5852   2.051   5.123   2.134 -0.1480  0.2434  0.6466
 1949TIP3    H1 5853   2.142   5.093   2.137  0.2203  1.0961 -0.7697
 1949TIP3    H2 5854   2.038   5.169   2.217  0.7189  0.1338  0.8520
 1950TIP3   OH2 5855   2.310   2.017   1.481 -0.1614  0.0737  0.2980
 1950TIP3    H1 5856   2.217   2.037   1.486 -0.2178  0.0371 -0.5079
 1950TIP3    H2 5857   2.343   2.070   1.408  1.1614  2.7319  2.6248
 1951TIP3   OH2 5858   3.969   2.485   3.918 -0.2542 -0.0028  0.0765
 1951TIP3    H1 5859   3.979   2.432   3.838 -1.0199  0.3763 -0.2755
 1951TIP3    H2 5860   3.955   2.574   3.886  0.0401  0.2519  0.6511
 1952TIP3   OH2 5861   0.757   4.862   3.589  0.0835 -0.2101 -0.1835
 1952TIP3    H1 5862   0.776   4.955   3.601 -1.4671  0.2051 -0.7227
 1952TIP3    H2 5863   0.842   4.822   3.573  1.0450  0.7585  2.1312
 1953TIP3   OH2 5864   3.484   3.620   3.732 -0.2402 -0.0067  0.5311
 1953TIP3    H1 5865   3.477   3.649   3.822 -1.1386  0.0979  0.4355
 1953TIP3    H2 5866   3.396   3.590   3.709  0.2558 -1.1994  0.0855
 1954TIP3   OH2 5867   2.561   1.353   0.514  0.1160 -0.3623 -0.0537
 1954TIP3    H1 5868   2.617   1.294   0.464  0.7121 -0.8710  1.1728
 1954TIP3    H2 5869   2.614   1.378   0.590 -0.4787  0.9936 -0.0453
 1955TIP3   OH2 5870   3.479   3.749   0.573  0.2957  0.3286  0.4048
 1955TIP3    H1 5871   3.390   3.717   0.556  0.0770  0.4998  1.1789
 1955TIP3    H2 5872   3.500   3.803   0.497 -1.3040  2.4711  1.3553
 1956TIP3   OH2 5873   1.488   2.878   1.700 -0.0961  0.0088  1.3367
 1956TIP3    H1 5874   1.457   2.790   1.680 -1.0451  0.3194  1.4108
 1956TIP3    H2 5875   1.468   2.891   1.792 -1.6908  0.9738  0.8937
 1957TIP3   OH2 5876   1.743   3.384   0.851  0.2696  0.4971 -0.1338
 1957TIP3    H1 5877   1.770   3.439   0.925  3.5189 -0.8245 -0.2140
 1957TIP3    H2 5878   1.691   3.314   0.891  0.2315  0.9270  0.5884
 1958TIP3   OH2 5879   2.674   5.002   3.361  0.2470 -0.0046  0.4123
 1958TIP3    H1 5880   2.676   4.982   3.455  2.3343 -1.4465  0.1358
 1958TIP3    H2 5881   2.711   5.090   3.354  1.1861 -0.3571  0.8607
 1959TIP3   OH2 5882   4.198   2.800   4.683  0.1956  0.1859 -0.4607
 1959TIP3    H1 5883   4.262   2.852   4.634  1.1933  0.8278  1.4131
 1959TIP3    H2 5884   4.251   2.748   4.744 -1.0173  0.1610  0.6187
 1960TIP3   OH2 5885   4.351   3.968   0.119  0.4103 -0.8855 -0.2896
 1960TIP3    H1 5886   4.431   4.020   0.118 -0.0154 -0.1426 -2.7812
 1960TIP3    H2 5887   4.374   3.890   0.169  2.1141  0.1377  0.6113
 1961TIP3   OH2 5888   0.283   0.823   3.714  0.3376  0.7545  0.1435
 1961TIP3    H1 5889   0.339   0.745   3.710 -1.3207 -0.5101  0.6771
 1961TIP3    H2 5890   0.271   0.847   3.622  2.6604  1.8068  0.0233
 1962TIP3   OH2 5891   5.409   3.581   1.637  0.2288  0.0517 -0.1901
 1962TIP3    H1 5892   5.337   3.639   1.610  0.0536 -0.2888 -0.4748
 1962TIP3    H2 5893   5.391   3.498   1.591  0.0079 -0.5021  0.8640
 1963TIP3   OH2 5894   3.552   3.288   4.697 -0.3949 -0.1821 -0.1913
 1963TIP3    H1 5895   3.552   3.348   4.622 -0.0339 -0.4089 -0.3788
 1963TIP3    H2 5896   3.615   3.326   4.758  2.4657 -2.0660 -1.7361
 1964TIP3   OH2 5897   1.900   3.907   1.529  0.2344 -0.4627  0.6480
 1964TIP3    H1 5898   1.811   3.903   1.562  0.0504  0.3048  0.2762
 1964TIP3    H2 5899   1.949   3.847   1.584 -0.1785  0.3133  1.9081
 1965TIP3   OH2 5900   2.417   3.940   3.926  0.0701  0.1063 -0.3142
 1965TIP3    H1 5901   2.440   3.849   3.906  0.3056 -0.0994  0.8394
 1965TIP3    H2 5902   2.322   3.943   3.916  0.0000 -0.4075  0.1526
 1966TIP3   OH2 5903   3.941   0.899   3.207  0.2757 -0.6275  0.0872
 1966TIP3    H1 5904   3.941   0.961   3.280  0.7363 -1.2457  0.6184
 1966TIP3    H2 5905   4.000   0.939   3.143 -2.5167  1.5109 -1.3820
 1967TIP3   OH2 5906   5.482   3.233   2.960  0.0221  0.1738  0.6456
 1967TIP3    H1 5907   5.521   3.203   3.042 -1.3630 -2.0913  0.5745
 1967TIP3    H2 5908   5.554   3.233   2.897  0.7287  0.1530  1.4433
 1968TIP3   OH2 5909   6.049   3.160   4.409  0.3576  0.0229  0.0695
 1968TIP3    H1 5910   6.060   3.236   4.467 -1.0058 -0.8705  1.5888
 1968TIP3    H2 5911   5.959   3.130   4.425  0.4031 -1.1089 -1.5144
 1969TIP3   OH2 5912   0.252   3.335   0.312 -0.9212  0.4679  0.4283
 1969TIP3    H1 5913   0.199   3.272   0.361 -1.8664  1.1786  0.3510
 1969TIP3    H2 5914   0.250   3.414   0.364  1.0530  0.1941  0.9996
 1970TIP3   OH2 5915   3.916   5.248   4.828 -0.4523 -0.1923  0.6190
 1970TIP3    H1 5916   3.884   5.183   4.890  0.8080 -0.0187  1.4909
 1970TIP3    H2 5917   3.927   5.327   4.881 -0.9283  0.4435 -0.1959
 1971TIP3   OH2 5918   3.849   5.319   0.319 -0.8907 -0.2332 -0.3351
 1971TIP3    H1 5919   3.882   5.346   0.405  0.3620  0.3900 -0.9884
 1971TIP3    H2 5920   3.806   5.396   0.284 -1.6766 -0.5789 -0.1580
 1972TIP3   OH2 5921   0.934   3.635   2.559 -0.2444 -0.0796 -0.0822
 1972TIP3    H1 5922   0.852   3.661   2.601  0.2200 -0.3536  1.0108
 1972TIP3    H2 5923   0.925   3.540   2.548 -0.1818 -0.0709 -0.2060
 1973TIP3   OH2 5924   3.280   0.431   3.000  0.1073  0.0885 -0.2646
 1973TIP3    H1 5925   3.200   0.464   3.040 -0.3751 -0.9246 -0.3483
 1973TIP3    H2 5926   3.341   0.505   3.002 -0.0732  0.2250  1.8310
 1974TIP3   OH2 5927   0.985   4.317   0.194 -0.0658 -0.1309 -0.0409
 1974TIP3    H1 5928   0.912   4.376   0.176  1.5261  1.6196 -1.1330
 1974TIP3    H2 5929   1.030   4.356   0.269  0.1082 -0.8477  0.2387
 1975TIP3   OH2 5930   6.079   3.275   0.723  0.8259 -0.3182 -0.5180
 1975TIP3    H1 5931   6.090   3.182   0.703  0.6523 -0.8205  1.4290
 1975TIP3    H2 5932   6.098   3.281   0.817  0.5647  1.5703 -0.5478
 1976TIP3   OH2 5933   0.326   5.190   3.182  0.1020 -0.5115 -0.0418
 1976TIP3    H1 5934   0.289   5.163   3.098  1.6290 -2.0091 -0.2874
 1976TIP3    H2 5935   0.420   5.171   3.174  0.4447  0.2968  1.6305
 1977TIP3   OH2 5936   1.658   5.947   1.289  0.0384  0.0378  0.0185
 1977TIP3    H1 5937   1.595   5.877   1.309 -0.1308  0.3859  0.7080
 1977TIP3    H2 5938   1.621   5.990   1.212 -1.0046  0.7531  0.8933
 1978TIP3   OH2 5939   5.251   2.025   2.771  0.1527  0.2529  0.2140
 1978TIP3    H1 5940   5.208   1.941   2.789  0.5397 -0.2688 -1.1991
 1978TIP3    H2 5941   5.212   2.085   2.834 -0.7807 -0.7890  0.6695
 1979TIP3   OH2 5942   4.652   4.927   2.571  0.0956 -0.3518 -0.3472
 1979TIP3    H1 5943   4.706   5.003   2.595 -1.8330  0.2506  2.5700
 1979TIP3    H2 5944   4.574   4.965   2.530 -1.5792 -0.4973  2.4814
 1980TIP3   OH2 5945   5.901   3.505   0.650 -0.3698 -0.1621  0.5580
 1980TIP3    H1 5946   5.905   3.558   0.730 -2.0324 -2.2833  2.1829
 1980TIP3    H2 5947   5.939   3.420   0.675 -0.9122 -0.8814 -0.9145
 1981TIP3   OH2 5948   4.097   3.064   0.810  0.4313  0.2800  0.5920
 1981TIP3    H1 5949   4.107   2.970   0.794  0.2792  0.4766 -0.7021
 1981TIP3    H2 5950   4.172   3.085   0.866  1.0228 -0.4307  0.1006
 1982TIP3   OH2 5951   2.106   2.413   3.467  0.1613  0.2443 -0.0893
 1982TIP3    H1 5952   2.200   2.426   3.478  0.1802  1.4984 -1.4647
 1982TIP3    H2 5953   2.076   2.385   3.554  1.8690 -0.8027  0.2289
 1983TIP3   OH2 5954   5.818   2.472   2.695  0.1326 -0.3805  0.0040
 1983TIP3    H1 5955   5.758   2.428   2.755 -0.4525 -1.7357 -1.5136
 1983TIP3    H2 5956   5.905   2.454   2.731 -0.2307 -0.4727  0.8744
 1984TIP3   OH2 5957  -0.003   3.729   1.704 -0.3151  0.1729  0.0538
 1984TIP3    H1 5958   0.006   3.768   1.617 -0.7489  0.7182  0.2449
 1984TIP3    H2 5959   0.035   3.641   1.695 -0.7267  0.0686 -0.7926
 1985TIP3   OH2 5960   1.307   3.779   0.021 -0.0465 -0.8360 -0.0296
 1985TIP3    H1 5961   1.311   3.828  -0.062 -1.3696 -1.3572 -0.4392
 1985TIP3    H2 5962   1.239   3.824   0.071  0.8248 -0.4611  0.8367
 1986TIP3   OH2 5963   4.260   4.698   3.802 -0.1611  0.2062  0.1980
 1986TIP3    H1 5964   4.194   4.646   3.758  1.6763 -1.2598 -1.0039
 1986TIP3    H2 5965   4.217   4.729   3.882 -2.4373 -0.1484 -0.8129
 1987TIP3   OH2 5966   2.674   0.666   4.381  0.7092 -0.1336  0.3270
 1987TIP3    H1 5967   2.750   0.724   4.383 -0.3914  1.3533  1.1403
 1987TIP3    H2 5968   2.646   0.659   4.473 -2.0244  2.0253 -0.2270
 1988TIP3   OH2 5969   0.794   2.749   0.660  0.2768 -0.1847 -0.4356
 1988TIP3    H1 5970   0.888   2.765   0.656  0.3120  0.3837  1.7459
 1988TIP3    H2 5971   0.785   2.669   0.712 -0.4689 -0.1556 -0.5069
 1989TIP3   OH2 5972   2.406   2.009   3.476  0.3732 -0.3637  0.1207
 1989TIP3    H1 5973   2.439   2.094   3.448  1.0173  0.0132  1.8776
 1989TIP3    H2 5974   2.311   2.020   3.480  0.0337 -0.9095 -3.2144
 1990TIP3   OH2 5975   5.947   1.945   0.043 -0.1776  0.2990  0.0777
 1990TIP3    H1 5976   6.033   1.973   0.012 -0.2113 -0.8021 -1.0929
 1990TIP3    H2 5977   5.885   2.006   0.003 -0.1071 -0.3137 -1.0093
 1991TIP3   OH2 5978   4.088   3.855   0.088 -0.9472 -0.2481  0.2992
 1991TIP3    H1 5979   4.167   3.907   0.092 -1.0784 -0.0642  4.0413
 1991TIP3    H2 5980   4.111   3.781   0.032  1.3482  0.5875  0.0330
 1992TIP3   OH2 5981   5.606   4.970   3.352  0.4956  0.3917 -0.1548
 1992TIP3    H1 5982   5.542   4.999   3.287  0.7043 -0.7575 -0.8964
 1992TIP3    H2 5983   5.683   4.945   3.301  0.7866 -0.2121  0.5603
 1993TIP3   OH2 5984   1.295   1.505   3.227  0.2842  0.1651  0.2701
 1993TIP3    H1 5985   1.277   1.426   3.176  2.6230 -1.5438  1.8614
 1993TIP3    H2 5986   1.352   1.557   3.169  0.2982 -0.2223 -0.0723
 1994TIP3   OH2 5987   0.989   0.405   4.834  0.3976  0.2875  0.5687
 1994TIP3    H1 5988   1.053   0.418   4.905 -0.6419  0.4640  1.5071
 1994TIP3    H2 5989   1.016   0.324   4.792  1.2874  0.4001  0.9030
 1995TIP3   OH2 5990   4.083   4.485   1.876 -0.3736 -0.8813  0.3124
 1995TIP3    H1 5991   4.098   4.453   1.787  1.5377  0.8390 -0.0614
 1995TIP3    H2 5992   4.074   4.580   1.867  0.4601 -0.6005  1.9862
 1996TIP3   OH2 5993   2.883   4.702   0.335 -0.5443 -0.0112 -0.1800
 1996TIP3    H1 5994   2.840   4.771   0.284  0.8772  0.1405 -1.2365
 1996TIP3    H2 5995   2.826   4.626   0.327 -2.1290  0.9968  0.9871
 1997TIP3   OH2 5996   2.598   1.686   4.972  0.6474 -0.6196  0.3129
 1997TIP3    H1 5997   2.683   1.686   5.016  2.2057 -0.4013 -2.4903
 1997TIP3    H2 5998   2.559   1.602   4.996  1.6728 -0.7814  1.5509
 1998TIP3   OH2 5999   5.111   2.430   0.745  0.2346  1.0367  0.1702
 1998TIP3    H1 6000   5.194   2.387   0.724 -0.4810 -0.6975  0.7348
 1998TIP3    H2 6001   5.123   2.462   0.834  0.3443  0.9358  0.1925
 1999TIP3   OH2 6002   2.146   1.420   1.423  0.1627 -0.7501 -0.1978
 1999TIP3    H1 6003   2.124   1.386   1.510 -1.7666 -1.0641 -0.7530
 1999TIP3    H2 6004   2.156   1.515   1.437  0.2349 -0.8384  0.4122
 2000TIP3   OH2 6005   0.208   0.750   0.265  0.1444  0.0234  0.4666
 2000TIP3    H1 6006   0.167   0.750   0.178 -2.5977  1.4972  1.6227
 2000TIP3    H2 6007   0.155   0.690   0.317  2.0052 -1.1674  1.0660
 2001TIP3   OH2 6008   5.887   1.286   4.054  0.8352  0.1607  0.1953
 2001TIP3    H1 6009   5.870   1.311   4.145  1.1427  0.0887  0.2743
 2001TIP3    H2 6010   5.882   1.368   4.005 -2.7267 -0.1853 -0.2786
 2002TIP3   OH2 6011   1.883   0.842   0.112  0.3649 -0.0435 -0.0641
 2002TIP3    H1 6012   1.834   0.855   0.031  0.3228  1.8684  0.2219
 2002TIP3    H2 6013   1.817   0.839   0.181  0.5557  1.2915  0.1924
 2003TIP3   OH2 6014   4.346   1.465   2.162 -0.1108  0.0142 -0.0036
 2003TIP3    H1 6015   4.313   1.555   2.155  2.3506  0.9219 -1.0659
 2003TIP3    H2 6016   4.342   1.431   2.073  2.5679  0.5334 -0.4148
 2004TIP3   OH2 6017   5.917   0.994   3.101  0.0921  0.9280 -0.0888
 2004TIP3    H1 6018   5.940   1.060   3.166 -1.5242  0.7761  0.6978
 2004TIP3    H2 6019   5.864   0.930   3.150 -1.7340  1.1428 -1.6718
 2005TIP3   OH2 6020   2.192   5.474   4.993  0.2822  0.0099  0.0281
 2005TIP3    H1 6021   2.160   5.524   4.917  0.0235 -0.6780 -0.3241
 2005TIP3    H2 6022   2.256   5.531   5.034 -0.5837  0.9647  0.0935
 2006TIP3   OH2 6023   5.115   5.164   2.016  0.3645 -0.4077 -0.4295
 2006TIP3    H1 6024   5.090   5.248   1.976  2.2236  0.2155 -0.3891
 2006TIP3    H2 6025   5.153   5.114   1.945  0.9177 -0.4948 -0.0775
 2007TIP3   OH2 6026   0.147   4.941   1.640 -0.5146  0.1803 -0.4506
 2007TIP3    H1 6027   0.175   4.973   1.553 -0.3187  2.4892  0.3831
 2007TIP3    H2 6028   0.229   4.931   1.689 -0.7632  1.7659  0.3441
 2008TIP3   OH2 6029   5.311   1.957   4.167 -0.2795  0.0861  0.0383
 2008TIP3    H1 6030   5.373   2.029   4.182 -0.0737 -0.1320  0.2388
 2008TIP3    H2 6031   5.289   1.926   4.255 -1.8064  1.1170  0.0563
 2009TIP3   OH2 6032   5.274   5.158   4.292  0.7400 -0.1458  0.2593
 2009TIP3    H1 6033   5.290   5.251   4.311 -0.1366  0.5201 -2.0156
 2009TIP3    H2 6034   5.184   5.143   4.319 -0.5331  0.8209 -3.0283
 2010TIP3   OH2 6035   4.634   2.774   3.978  0.0465 -0.1937  0.6671
 2010TIP3    H1 6036   4.706   2.717   3.952 -0.7042  0.3760 -3.2878
 2010TIP3    H2 6037   4.676   2.853   4.012  1.2680 -0.3349 -0.4670
 2011TIP3   OH2 6038   0.998   5.390   2.668 -0.6049  0.4917 -0.4560
 2011TIP3    H1 6039   0.986   5.314   2.611  2.0511  0.2975 -0.9134
 2011TIP3    H2 6040   0.945   5.458   2.628 -0.4937 -0.2489 -1.9516
 2012TIP3   OH2 6041   2.529   5.719   0.377  0.0705 -0.8262  0.1055
 2012TIP3    H1 6042   2.491   5.770   0.449  0.9396 -0.5722  0.3938
 2012TIP3    H2 6043   2.615   5.693   0.409  1.3955  1.1189 -1.6324
 2013TIP3   OH2 6044   1.729   5.057   2.214 -0.1756 -0.0076 -0.0677
 2013TIP3    H1 6045   1.780   5.108   2.150  0.8883 -0.6024  0.2789
 2013TIP3    H2 6046   1.794   5.027   2.277 -1.0262 -0.5287  0.5704
 2014TIP3   OH2 6047   0.925   4.165   1.500 -0.1335 -0.5663  0.1149
 2014TIP3    H1 6048   1.017   4.158   1.526 -0.1154 -0.9235 -0.0399
 2014TIP3    H2 6049   0.920   4.249   1.455 -0.1903  0.1089  1.3361
 2015TIP3   OH2 6050   2.028   0.366   4.736  0.5770  0.6009  0.1307
 2015TIP3    H1 6051   2.037   0.288   4.790  2.9642 -0.3209 -1.4417
 2015TIP3    H2 6052   2.059   0.438   4.791 -1.2649  0.4562  1.4503
 2016TIP3   OH2 6053   5.915   0.626   3.098 -0.0251 -0.3982 -0.0011
 2016TIP3    H1 6054   5.971   0.599   3.025 -0.5071 -0.9616 -0.1658
 2016TIP3    H2 6055   5.976   0.633   3.172  0.2729 -0.9720 -0.1863
 2017TIP3   OH2 6056   3.003   0.169   4.793 -0.0064  0.4955 -0.1126
 2017TIP3    H1 6057   2.925   0.146   4.843  0.4403  1.4086  1.0316
 2017TIP3    H2 6058   3.044   0.085   4.773 -1.2101  0.0091 -0.6425
 2018TIP3   OH2 6059   1.749   2.926   4.366 -0.0573 -0.2078 -0.2368
 2018TIP3    H1 6060   1.707   2.856   4.416  2.7987 -0.3655  2.2226
 2018TIP3    H2 6061   1.679   2.990   4.352 -1.5394 -1.1443  2.1371
 2019TIP3   OH2 6062   5.102   1.016   4.304  0.0758 -0.1693  0.3385
 2019TIP3    H1 6063   5.077   0.928   4.333  2.2475 -1.7175 -2.0726
 2019TIP3    H2 6064   5.180   1.037   4.354 -0.5050  0.4538  0.9914
 2020TIP3   OH2 6065   0.202   3.510   1.796 -0.2460  0.2454 -0.1123
 2020TIP3    H1 6066   0.173   3.431   1.842  0.8164  0.1691  0.4445
 2020TIP3    H2 6067   0.172   3.498   1.706 -0.3920 -0.6258  0.0497
 2021TIP3   OH2 6068   2.999   3.218   1.194  0.0380 -0.3763  0.3509
 2021TIP3    H1 6069   3.059   3.164   1.246  1.3064 -0.7591 -1.4294
 2021TIP3    H2 6070   2.978   3.292   1.251 -1.0549 -2.2457  2.5396
 2022TIP3   OH2 6071   5.188   3.130   3.180  0.5585 -0.0524 -0.1602
 2022TIP3    H1 6072   5.252   3.124   3.250  0.9527  0.4317 -0.4687
 2022TIP3    H2 6073   5.107   3.158   3.223  0.8937  0.6058  0.0461
 2023TIP3   OH2 6074   5.123   0.358   5.030  0.0793 -0.0141 -0.8868
 2023TIP3    H1 6075   5.070   0.289   4.991  0.6588 -0.9425 -0.0658
 2023TIP3    H2 6076   5.113   0.347   5.124  1.4925 -0.0322 -0.7110
 2024TIP3   OH2 6077   5.376   5.828   2.220 -0.3442  0.2650 -0.4205
 2024TIP3    H1 6078   5.418   5.819   2.306 -1.6826  1.4138  0.4018
 2024TIP3    H2 6079   5.391   5.920   2.197 -1.9643  0.5736 -0.3179
 2025TIP3   OH2 6080   0.527   2.260   4.836 -0.0607 -0.0819  0.2460
 2025TIP3    H1 6081   0.441   2.271   4.796  0.4578  0.9694 -0.6444
 2025TIP3    H2 6082   0.561   2.349   4.846  0.6957 -0.4409  1.1231
 2026TIP3   OH2 6083   2.719   3.162   0.551  0.0417 -0.4864  0.1158
 2026TIP3    H1 6084   2.723   3.084   0.496  0.0974 -1.4346  1.4022
 2026TIP3    H2 6085   2.703   3.234   0.490 -1.3141 -1.6576 -1.0009
 2027TIP3   OH2 6086   0.172   5.643   3.424  1.1522 -0.5387 -0.1739
 2027TIP3    H1 6087   0.255   5.626   3.467  1.5045 -1.1696 -1.0748
 2027TIP3    H2 6088   0.167   5.577   3.354 -0.6152 -1.2501  0.5654
 2028TIP3   OH2 6089   3.599   1.090   4.177  0.7785 -0.0332  0.1328
 2028TIP3    H1 6090   3.586   1.176   4.218  0.9064  0.6384 -1.1804
 2028TIP3    H2 6091   3.574   1.027   4.244  0.3054  1.0435  0.9889
 2029TIP3   OH2 6092   2.601   0.041   4.113  0.1121  0.1018  0.0513
 2029TIP3    H1 6093   2.595   0.122   4.164 -0.7851 -0.2389  0.5058
 2029TIP3    H2 6094   2.645  -0.021   4.171  1.9768  0.6123 -0.7666
 2030TIP3   OH2 6095   3.181   0.666   1.943 -0.2070 -0.2191  0.4848
 2030TIP3    H1 6096   3.229   0.644   1.863  0.8888  1.1080  0.7464
 2030TIP3    H2 6097   3.247   0.663   2.012 -0.9414 -0.3968  1.1850
 2031TIP3   OH2 6098   1.150   1.059   1.586 -0.2942  0.2568 -0.0561
 2031TIP3    H1 6099   1.146   1.082   1.493  0.0841 -0.5702 -0.2877
 2031TIP3    H2 6100   1.126   0.966   1.589 -0.1056  0.2238  0.6548
 2032TIP3   OH2 6101   3.850   2.346   2.665  0.2580 -0.2961 -0.0411
 2032TIP3    H1 6102   3.833   2.365   2.573 -1.1183  1.7928  0.5870
 2032TIP3    H2 6103   3.811   2.259   2.679  2.1903 -1.5248 -1.8191
 2033TIP3   OH2 6104   4.014   4.309   0.890  0.2023  0.1636 -0.7962
 2033TIP3    H1 6105   3.922   4.317   0.865  0.1630 -0.8538 -1.0202
 2033TIP3    H2 6106   4.016   4.333   0.983 -0.4044 -0.4438 -0.6234
 2034TIP3   OH2 6107   0.633   5.266   4.952 -0.1116  0.4080 -0.4236
 2034TIP3    H1 6108   0.671   5.321   4.884  0.1026  0.5698 -0.1768
 2034TIP3    H2 6109   0.693   5.192   4.960  0.3024  0.7967  0.1519
 2035TIP3   OH2 6110   1.898   2.976   3.823  0.0383  0.0417  0.1723
 2035TIP3    H1 6111   1.820   2.922   3.838 -1.2535  2.1312  1.4832
 2035TIP3    H2 6112   1.911   3.022   3.906  1.6015  1.0778 -0.6097
 2036TIP3   OH2 6113   4.615   1.900   1.034  0.2038  0.3201  0.0616
 2036TIP3    H1 6114   4.625   1.852   1.116  2.9738 -0.4338 -0.6051
 2036TIP3    H2 6115   4.571   1.839   0.975 -0.5533  0.3641  0.5752
 2037TIP3   OH2 6116   4.871   0.436   0.493 -0.0368 -0.4839 -0.3251
 2037TIP3    H1 6117   4.799   0.374   0.495  1.2290 -2.0611 -1.0008
 2037TIP3    H2 6118   4.880   0.466   0.584 -0.6230 -1.3752  0.0361
 2038TIP3   OH2 6119   3.674   0.051   3.935 -0.7943 -0.0039 -0.1612
 2038TIP3    H1 6120   3.632   0.053   4.021 -0.3050 -2.3100  0.2136
 2038TIP3    H2 6121   3.758   0.096   3.947 -1.0631  0.3613  0.3524
 2039TIP3   OH2 6122   2.052   5.291   2.771  0.1514  0.3379  0.4416
 2039TIP3    H1 6123   2.003   5.313   2.851  0.6179  1.3793  0.4620
 2039TIP3    H2 6124   2.143   5.312   2.792  0.2015  1.2054 -0.5488
 2040TIP3   OH2 6125   5.789   0.662   1.561  0.4301  0.0289 -0.2260
 2040TIP3    H1 6126   5.743   0.647   1.479  1.8216 -0.3070 -0.9743
 2040TIP3    H2 6127   5.825   0.576   1.585  1.6002  0.4934 -0.2588
 2041TIP3   OH2 6128   2.633   1.762   1.198  0.7658  0.1349  0.2707
 2041TIP3    H1 6129   2.564   1.709   1.159  0.7135  0.1874  0.2914
 2041TIP3    H2 6130   2.628   1.846   1.152  1.5743 -0.2465 -0.5384
 2042TIP3   OH2 6131   0.234   2.021   2.616  0.1915  0.0767  0.4898
 2042TIP3    H1 6132   0.225   1.960   2.543  2.0257  1.4852 -1.0381
 2042TIP3    H2 6133   0.144   2.035   2.647 -0.3567 -2.6252  0.3349
 2043TIP3   OH2 6134   3.393   1.246   1.634  0.2232  0.5797 -0.1397
 2043TIP3    H1 6135   3.430   1.231   1.547  0.0365  1.5319 -0.4014
 2043TIP3    H2 6136   3.314   1.192   1.636  1.0396 -0.6483  0.0344
 2044TIP3   OH2 6137   2.731   5.047   3.881 -0.0014 -0.3673  0.5043
 2044TIP3    H1 6138   2.740   5.136   3.913 -0.4537  0.0732 -0.5552
 2044TIP3    H2 6139   2.670   5.006   3.943 -0.6488  0.3809  0.3825
 2045TIP3   OH2 6140   5.921   3.057   1.991  0.9312 -0.0109  0.4617
 2045TIP3    H1 6141   5.860   3.012   1.932  0.2034  0.1447  1.0779
 2045TIP3    H2 6142   5.992   2.995   2.005  1.1165 -0.0502 -0.5759
 2046TIP3   OH2 6143   2.904   2.796   4.345 -0.3851 -0.3449 -0.1309
 2046TIP3    H1 6144   2.809   2.807   4.350 -0.3046  0.9229 -0.8296
 2046TIP3    H2 6145   2.920   2.766   4.255 -0.1080 -0.3522 -0.0798
 2047TIP3   OH2 6146   5.086   1.044   5.010 -0.2263  0.4287  0.1798
 2047TIP3    H1 6147   5.122   0.975   5.066  0.0864 -0.2242 -0.7949
 2047TIP3    H2 6148   5.042   0.997   4.939 -0.0414  1.2333 -0.4889
 2048TIP3   OH2 6149   6.213   4.384   0.188 -0.6145 -0.9568  0.0170
 2048TIP3    H1 6150   6.156   4.449   0.229 -0.7767 -1.1147  0.0448
 2048TIP3    H2 6151   6.159   4.344   0.120 -0.6282 -1.2929  0.2203
 2049TIP3   OH2 6152   3.348   3.737   4.971  0.2547 -0.8819  0.2097
 2049TIP3    H1 6153   3.327   3.650   5.006 -0.5371 -0.5327  0.6112
 2049TIP3    H2 6154   3.378   3.719   4.881  1.7484 -1.7239  0.8353
 2050TIP3   OH2 6155   5.452   5.068   5.119 -0.2657  0.3430  0.2191
 2050TIP3    H1 6156   5.494   4.986   5.093 -0.9765 -0.1871  0.6917
 2050TIP3    H2 6157   5.522   5.120   5.159  0.0997 -0.2076  0.3028
 2051TIP3   OH2 6158   6.075   3.618   1.134  0.5255 -0.2367 -0.2304
 2051TIP3    H1 6159   6.165   3.601   1.160  0.3190 -0.0643  0.6105
 2051TIP3    H2 6160   6.021   3.575   1.201 -0.0049  0.7774  0.0158
 2052TIP3   OH2 6161   6.042   2.472   2.388 -0.0698 -0.0930  0.6764
 2052TIP3    H1 6162   5.992   2.406   2.437  0.6689 -0.8676  0.4211
 2052TIP3    H2 6163   6.086   2.422   2.319  0.0471  0.7665  0.1119
 2053TIP3   OH2 6164   5.816   1.546   3.234  0.0678 -0.4575 -0.4412
 2053TIP3    H1 6165   5.772   1.614   3.284 -1.2311 -0.9948 -0.7955
 2053TIP3    H2 6166   5.908   1.574   3.229 -0.2221  0.6809  0.3581
 2054TIP3   OH2 6167   0.974   1.731   1.117  0.0243  0.4234  0.2672
 2054TIP3    H1 6168   1.056   1.685   1.132  0.0578  0.9047  1.7030
 2054TIP3    H2 6169   0.954   1.715   1.024  0.2226 -2.1310  0.5930
 2055TIP3   OH2 6170   2.496   4.318   3.014  0.3291 -0.6338  0.0928
 2055TIP3    H1 6171   2.512   4.228   3.043  1.2561  0.0708  1.9668
 2055TIP3    H2 6172   2.411   4.341   3.053  1.4626  0.2324  2.2295
 2056TIP3   OH2 6173   2.384   5.259   1.762 -0.3909  0.2243 -0.5616
 2056TIP3    H1 6174   2.389   5.307   1.680 -1.0935  1.5909  0.1639
 2056TIP3    H2 6175   2.413   5.321   1.828 -0.5640 -0.6057  0.3286
 2057TIP3   OH2 6176   0.936   3.320   1.877  0.0016  0.4049  0.6685
 2057TIP3    H1 6177   0.893   3.401   1.906  3.1563  1.6971  2.2167
 2057TIP3    H2 6178   0.904   3.253   1.937  0.6197  1.4691  2.2438
 2058TIP3   OH2 6179   5.572   2.582   3.789 -0.4972  0.0550 -0.2861
 2058TIP3    H1 6180   5.560   2.638   3.713 -0.4883  1.6394  0.8147
 2058TIP3    H2 6181   5.655   2.612   3.827 -1.1000  0.1517  1.0049
 2059TIP3   OH2 6182   4.198   3.395   4.825 -0.1741  0.3971  0.0209
 2059TIP3    H1 6183   4.267   3.351   4.776  2.1660  2.0172  1.6371
 2059TIP3    H2 6184   4.144   3.437   4.758  1.0929  0.0195 -1.2934
 2060TIP3   OH2 6185   0.621   4.934   2.220 -0.0971  0.1625 -0.1617
 2060TIP3    H1 6186   0.581   4.849   2.207  0.8701 -0.3379  0.0633
 2060TIP3    H2 6187   0.613   4.951   2.314 -1.4697  0.9404 -0.3844
 2061TIP3   OH2 6188   2.422   2.618   2.553  0.4730  0.0633  0.0303
 2061TIP3    H1 6189   2.504   2.652   2.519 -0.4728  1.3962 -1.0316
 2061TIP3    H2 6190   2.371   2.597   2.475 -0.4597 -0.0810  0.6626
 2062TIP3   OH2 6191   5.829   5.599   2.974  0.6507 -0.2020 -0.0710
 2062TIP3    H1 6192   5.905   5.631   3.022 -0.2638 -0.5739  1.7232
 2062TIP3    H2 6193   5.817   5.509   3.005 -1.1767  0.2216  0.5776
 2063TIP3   OH2 6194   0.656   4.329   3.307 -0.4374 -0.1846  0.5632
 2063TIP3    H1 6195   0.728   4.284   3.352 -0.0797 -0.7210 -0.5110
 2063TIP3    H2 6196   0.663   4.300   3.216 -2.7836 -1.2960  0.6461
 2064TIP3   OH2 6197   1.437   4.782   1.642 -0.0396 -0.2632 -0.3225
 2064TIP3    H1 6198   1.453   4.814   1.731 -1.1647 -0.0654 -0.1788
 2064TIP3    H2 6199   1.433   4.861   1.588  0.3459 -0.3653 -0.5037
 2065TIP3   OH2 6200   0.238   3.022   0.314  0.1131 -0.3421 -0.4379
 2065TIP3    H1 6201   0.241   3.102   0.261  2.3543  0.2267  0.4156
 2065TIP3    H2 6202   0.192   2.958   0.259 -0.5648  1.1538 -1.6778
 2066TIP3   OH2 6203   3.724   3.629   2.702  0.3628  0.9225 -0.1144
 2066TIP3    H1 6204   3.655   3.571   2.670  0.1796  0.5806  0.8603
 2066TIP3    H2 6205   3.744   3.596   2.790  0.4575  2.1588  0.3460
 2067TIP3   OH2 6206   3.730   4.717   3.704  0.1273 -0.3666  0.0960
 2067TIP3    H1 6207   3.676   4.796   3.713  3.6913  2.2792  0.6145
 2067TIP3    H2 6208   3.787   4.718   3.781  1.9381 -2.0303 -1.1229
 2068TIP3   OH2 6209   1.382   2.116   3.865  0.4575 -0.1308 -0.0339
 2068TIP3    H1 6210   1.449   2.050   3.880  0.4160 -0.1124  0.2286
 2068TIP3    H2 6211   1.423   2.178   3.804  0.5847 -0.2632 -0.0821
 2069TIP3   OH2 6212   0.651   3.702   5.002  0.2483 -0.0271  0.4849
 2069TIP3    H1 6213   0.746   3.707   5.013  0.1705 -0.5811  1.4724
 2069TIP3    H2 6214   0.626   3.618   5.040 -0.6394  0.0868  0.1907
 2070TIP3   OH2 6215   2.264   0.678   1.869  0.4905  0.3354 -0.0532
 2070TIP3    H1 6216   2.276   0.667   1.963  0.9463 -1.1970 -0.2628
 2070TIP3    H2 6217   2.313   0.757   1.847  0.1574  0.8562  1.0251
 2071TIP3   OH2 6218   5.733   2.211   1.842  0.6976 -0.3782 -0.1677
 2071TIP3    H1 6219   5.744   2.274   1.913  2.1336  0.3572 -1.0026
 2071TIP3    H2 6220   5.761   2.258   1.764  2.6331 -2.2774 -0.7022
 2072TIP3   OH2 6221   2.903   5.579   4.555 -0.4361 -0.2578  0.1296
 2072TIP3    H1 6222   2.962   5.524   4.504  0.7483  0.6863  0.4393
 2072TIP3    H2 6223   2.958   5.650   4.587 -2.1971  1.9580 -1.4792
 2073TIP3   OH2 6224   4.754   5.134   0.612 -0.6689 -0.4010 -0.3314
 2073TIP3    H1 6225   4.833   5.186   0.598 -0.4496 -0.7253 -0.3032
 2073TIP3    H2 6226   4.684   5.199   0.616 -0.2172  0.0440  1.2543
 2074TIP3   OH2 6227   4.713   0.692   0.882  0.1687 -0.3331  1.1201
 2074TIP3    H1 6228   4.694   0.780   0.915  0.9537  0.0197  0.6620
 2074TIP3    H2 6229   4.667   0.687   0.798 -1.8118 -1.2239  2.1688
 2075TIP3   OH2 6230   5.523   1.768   0.035  0.0325  0.3993 -0.2885
 2075TIP3    H1 6231   5.618   1.764   0.022  0.0652  3.0467 -1.4600
 2075TIP3    H2 6232   5.490   1.690  -0.011  1.6460 -1.1663  1.0547
 2076TIP3   OH2 6233   6.212   1.238   2.538 -0.1580 -0.0391 -0.1877
 2076TIP3    H1 6234   6.211   1.284   2.622  0.2222  0.0178 -0.2107
 2076TIP3    H2 6235   6.224   1.306   2.473 -2.4126  0.1478 -0.4733
 2077TIP3   OH2 6236   3.883   2.945   3.096 -0.6044 -0.2443  0.0111
 2077TIP3    H1 6237   3.810   2.885   3.086 -2.4523  1.8450  0.2328
 2077TIP3    H2 6238   3.874   3.007   3.023  2.2968 -1.1530 -1.2990
 2078TIP3   OH2 6239   1.292   2.811   1.006 -0.0564  0.7748  0.5283
 2078TIP3    H1 6240   1.384   2.807   1.029  0.1130  1.2613 -0.0441
 2078TIP3    H2 6241   1.291   2.829   0.912 -0.6941  4.0477  1.0552
 2079TIP3   OH2 6242   5.572   2.062   0.247  0.0952 -0.7054  0.5052
 2079TIP3    H1 6243   5.529   1.984   0.282 -1.8015 -0.4607 -1.0947
 2079TIP3    H2 6244   5.537   2.134   0.300 -0.5593 -0.6310 -0.0220
 2080TIP3   OH2 6245   0.444   0.028   3.360 -0.1426 -0.2731 -0.7296
 2080TIP3    H1 6246   0.407  -0.053   3.327  1.8357 -1.5450 -0.0080
 2080TIP3    H2 6247   0.536   0.027   3.331  0.2654  1.0824  0.3636
 2081TIP3   OH2 6248   0.769   2.510   0.785 -0.3291  0.1123 -0.0120
 2081TIP3    H1 6249   0.747   2.427   0.827 -2.0335 -0.3628 -1.6786
 2081TIP3    H2 6250   0.745   2.577   0.849 -1.1154 -0.6288  0.4817
 2082TIP3   OH2 6251   0.050   0.858   3.986  0.3357 -0.3286  0.3554
 2082TIP3    H1 6252   0.081   0.771   3.961 -2.8955 -1.2802 -0.7365
 2082TIP3    H2 6253   0.031   0.902   3.903  1.3110  1.2329  0.9139
 2083TIP3   OH2 6254   1.203   5.244   4.312 -0.5928 -0.3972 -0.0060
 2083TIP3    H1 6255   1.146   5.223   4.238  0.6210 -1.5044 -0.6723
 2083TIP3    H2 6256   1.146   5.242   4.388 -2.0891  1.7766 -0.9686
 2084TIP3   OH2 6257   5.837   1.118   2.646 -0.2423  0.0261 -0.0585
 2084TIP3    H1 6258   5.852   1.139   2.738 -2.5596  0.1850  0.3307
 2084TIP3    H2 6259   5.823   1.203   2.604 -0.8034 -0.1552 -0.2391
 2085TIP3   OH2 6260   1.565   1.217   3.965  0.4975  0.5429 -0.6200
 2085TIP3    H1 6261   1.523   1.247   4.045 -0.5158  0.8799 -1.2642
 2085TIP3    H2 6262   1.642   1.169   3.995  0.3031  0.9244  0.5401
 2086TIP3   OH2 6263   5.242   0.850   1.049 -0.1441 -0.2017 -0.2434
 2086TIP3    H1 6264   5.201   0.901   1.119 -0.3044  0.4275 -0.7860
 2086TIP3    H2 6265   5.175   0.844   0.982  0.4977  0.4648 -0.9605
 2087TIP3   OH2 6266   1.464   2.195   4.350 -0.8488  0.0599  0.7086
 2087TIP3    H1 6267   1.441   2.104   4.334 -1.2613  0.2888 -0.0300
 2087TIP3    H2 6268   1.472   2.234   4.263  0.0632  0.5538  1.0020
 2088TIP3   OH2 6269   0.004   3.908   5.064  0.4787  0.2782  0.0694
 2088TIP3    H1 6270   0.060   3.835   5.036  0.9670  1.0701 -1.0952
 2088TIP3    H2 6271   0.065   3.975   5.094  0.2097  1.2852 -1.5483
 2089TIP3   OH2 6272   0.948   1.589   0.530 -0.1847 -0.2006 -0.4466
 2089TIP3    H1 6273   0.874   1.533   0.506 -0.6706 -1.2797  2.9337
 2089TIP3    H2 6274   0.915   1.678   0.517 -1.3989 -0.6761 -0.7905
 2090TIP3   OH2 6275   1.426   1.199   3.729  0.1049 -0.0367  0.0453
 2090TIP3    H1 6276   1.508   1.201   3.679  0.2575  0.6919  0.3177
 2090TIP3    H2 6277   1.452   1.217   3.819 -0.5619  2.2508 -0.1632
 2091TIP3   OH2 6278   2.638   0.806   2.952 -0.4018  0.1324 -0.1689
 2091TIP3    H1 6279   2.610   0.868   3.020  0.7191 -0.7741  1.1560
 2091TIP3    H2 6280   2.690   0.741   2.998  0.6291 -0.3761 -1.9495
 2092TIP3   OH2 6281   1.254   1.676   1.192 -0.3977 -0.0009 -0.1749
 2092TIP3    H1 6282   1.258   1.598   1.136 -2.6081 -0.7883  0.6617
 2092TIP3    H2 6283   1.295   1.648   1.274  0.1685  0.2188 -0.3766
 2093TIP3   OH2 6284   5.107   2.886   0.524  0.5913 -0.1586 -0.5337
 2093TIP3    H1 6285   5.136   2.950   0.589 -1.4669  1.3023 -0.9768
 2093TIP3    H2 6286   5.157   2.908   0.446  1.2376 -0.3094 -0.1762
 2094TIP3   OH2 6287   0.800   3.838   2.129 -0.2833 -0.4564 -0.0879
 2094TIP3    H1 6288   0.857   3.790   2.187 -0.5188  0.1346  0.6467
 2094TIP3    H2 6289   0.849   3.845   2.047  0.6551 -0.0561  0.4905
 2095TIP3   OH2 6290   0.326   2.087   0.498 -0.2835  0.0269  0.0607
 2095TIP3    H1 6291   0.238   2.063   0.524 -0.2861  0.5040  0.4990
 2095TIP3    H2 6292   0.314   2.158   0.435 -0.2791 -1.1043 -1.2972
 2096TIP3   OH2 6293   4.841   4.185   1.246 -0.2844  0.7379 -0.4468
 2096TIP3    H1 6294   4.808   4.126   1.179 -0.9874  0.1717  0.3699
 2096TIP3    H2 6295   4.934   4.162   1.255 -0.4572  0.0216 -0.4215
 2097TIP3   OH2 6296   0.322   5.153   0.735 -0.1280 -0.5275  0.4986
 2097TIP3    H1 6297   0.378   5.222   0.771  0.6985 -0.1763 -1.3147
 2097TIP3    H2 6298   0.375   5.074   0.740  0.7733 -0.1290 -1.5479
 2098TIP3   OH2 6299   1.102   4.085   0.366 -0.5038 -0.1007 -0.3033
 2098TIP3    H1 6300   1.117   4.003   0.320  1.4250 -0.9716  1.7045
 2098TIP3    H2 6301   1.148   4.151   0.313 -0.7615 -0.5610 -1.1134
 2099TIP3   OH2 6302   1.348   5.375   2.573 -0.0835 -0.0656 -0.2106
 2099TIP3    H1 6303   1.291   5.423   2.634  0.5227 -1.0613  1.2218
 2099TIP3    H2 6304   1.293   5.303   2.542 -0.8095  1.1614 -1.9139
 2100TIP3   OH2 6305   0.598   5.677   2.998  0.1870  0.2526  0.4734
 2100TIP3    H1 6306   0.617   5.767   2.970 -3.2340  1.8929  2.6813
 2100TIP3    H2 6307   0.523   5.650   2.946  1.3041 -1.5116 -0.3133
 2101TIP3   OH2 6308   3.713   0.513   1.922 -0.3430  0.1972 -0.3474
 2101TIP3    H1 6309   3.689   0.558   2.004  3.1025 -0.1372  1.0142
 2101TIP3    H2 6310   3.707   0.420   1.943 -1.6400  0.0557 -1.2553
 2102TIP3   OH2 6311   4.930   1.533   5.126 -0.5776  0.1514  0.4267
 2102TIP3    H1 6312   4.889   1.593   5.063 -0.9008  1.0692  1.4765
 2102TIP3    H2 6313   4.933   1.449   5.080  0.4618  1.0919 -1.3289
 2103TIP3   OH2 6314   1.587   0.576   4.420 -0.1317  0.0962 -0.3895
 2103TIP3    H1 6315   1.658   0.636   4.399  0.1224  0.5814  1.5867
 2103TIP3    H2 6316   1.630   0.494   4.444 -0.2313  0.2666  0.4195
 2104TIP3   OH2 6317   5.970   5.616   1.403 -0.4053  0.0225  0.5333
 2104TIP3    H1 6318   5.880   5.587   1.390 -0.8618  1.8256 -0.7182
 2104TIP3    H2 6319   5.979   5.694   1.348  1.0849  1.5438  2.7233
 2105TIP3   OH2 6320   2.986   0.047   3.326  0.0870  1.0554  0.2854
 2105TIP3    H1 6321   2.954  -0.027   3.274  0.7564  2.3090 -2.0586
 2105TIP3    H2 6322   3.030   0.007   3.401 -1.3342 -0.8373  0.1760
 2106TIP3   OH2 6323   5.658   3.667   0.648 -0.1499  0.2000  0.2560
 2106TIP3    H1 6324   5.740   3.621   0.629 -0.2119  0.1959 -0.0078
 2106TIP3    H2 6325   5.686   3.753   0.678 -0.0120 -0.1851  1.2991
 2107TIP3   OH2 6326   5.161   3.407   1.842  0.1730 -0.4843 -0.5648
 2107TIP3    H1 6327   5.095   3.475   1.852 -0.4999 -1.1054 -0.6754
 2107TIP3    H2 6328   5.118   3.340   1.789  0.8985 -0.8954 -0.6453
 2108TIP3   OH2 6329   6.147   1.182   4.148  0.1812 -0.0997  0.0262
 2108TIP3    H1 6330   6.061   1.222   4.132  0.2157 -0.0163  0.0499
 2108TIP3    H2 6331   6.173   1.149   4.062  0.4460  0.5089 -0.1344
 2109TIP3   OH2 6332   2.609   4.606   4.119  0.1989  0.9147  0.1480
 2109TIP3    H1 6333   2.662   4.644   4.049  2.6946 -0.9380  0.8966
 2109TIP3    H2 6334   2.542   4.554   4.074  0.9252  0.8535 -0.8774
 2110TIP3   OH2 6335   0.909   5.607   1.155 -0.2358 -0.2801 -0.5489
 2110TIP3    H1 6336   0.880   5.663   1.084  1.5820  0.7148 -0.5363
 2110TIP3    H2 6337   0.863   5.640   1.232 -0.1240  0.3871 -0.7682
 2111TIP3   OH2 6338   1.238   1.018   1.040  0.1480 -0.3374  0.3162
 2111TIP3    H1 6339   1.332   1.014   1.053  0.6831 -0.2183 -2.9153
 2111TIP3    H2 6340   1.224   1.082   0.971 -2.2295 -0.9155  0.1389
 2112TIP3   OH2 6341   5.777   4.469   0.229 -0.3142  0.1609 -0.4779
 2112TIP3    H1 6342   5.828   4.522   0.168 -0.8511  0.9556 -0.2503
 2112TIP3    H2 6343   5.695   4.516   0.239  0.1808  0.6471  1.7190
 2113TIP3   OH2 6344   0.038   4.827   0.449  0.3328  0.1463 -0.5726
 2113TIP3    H1 6345  -0.037   4.857   0.500  1.5051  1.6396  0.3445
 2113TIP3    H2 6346   0.021   4.734   0.435 -0.4819 -0.1393  1.8253
 2114TIP3   OH2 6347   1.225   0.423   3.886 -0.2850  0.9731  1.0883
 2114TIP3    H1 6348   1.135   0.392   3.875 -0.0700  1.1157 -1.8060
 2114TIP3    H2 6349   1.279   0.346   3.868  0.1551  1.5102 -0.0506
 2115TIP3   OH2 6350   2.696   3.920   3.555 -0.6342  0.2010  0.0277
 2115TIP3    H1 6351   2.660   3.861   3.621 -1.0763  2.1008  1.5935
 2115TIP3    H2 6352   2.619   3.964   3.518 -0.2083  1.7102  0.8373
 2116TIP3   OH2 6353   2.956   3.960   1.017  0.6650  0.1986  0.0388
 2116TIP3    H1 6354   2.935   4.014   1.093 -0.2076 -0.7811  0.5323
 2116TIP3    H2 6355   2.996   4.020   0.954  1.6506  0.9936  1.3603
 2117TIP3   OH2 6356   3.567   5.157   0.398  0.3009 -0.2905  0.1653
 2117TIP3    H1 6357   3.496   5.108   0.358  1.0848 -1.6597  0.3905
 2117TIP3    H2 6358   3.626   5.179   0.326 -0.8631  1.8373 -0.2054
 2118TIP3   OH2 6359   4.975   0.241   1.894  0.4880 -0.0907  0.3454
 2118TIP3    H1 6360   5.022   0.323   1.906  0.6248 -0.3426  1.7097
 2118TIP3    H2 6361   5.043   0.174   1.895  0.1554 -0.4481  2.2390
 2119TIP3   OH2 6362   3.355   2.996   5.029  0.0790  0.6865  0.5450
 2119TIP3    H1 6363   3.401   2.936   5.088 -0.5055 -0.9742 -0.6000
 2119TIP3    H2 6364   3.277   3.022   5.079  0.5848  0.9007  1.2461
 2120TIP3   OH2 6365   0.566   0.960   3.488 -0.1633 -0.1634 -0.0259
 2120TIP3    H1 6366   0.647   0.919   3.519  0.5586  0.1152 -1.4533
 2120TIP3    H2 6367   0.502   0.889   3.488  0.8114 -1.1063 -1.5049
 2121TIP3   OH2 6368   3.258   1.234   0.053  0.3035  0.2134 -0.2230
 2121TIP3    H1 6369   3.209   1.192   0.123  1.4513  0.2723  0.6466
 2121TIP3    H2 6370   3.289   1.163  -0.002 -0.3528  0.1438 -0.4993
 2122TIP3   OH2 6371   2.099   0.478   4.232  0.4606 -0.5474  0.4769
 2122TIP3    H1 6372   2.084   0.404   4.173  0.7163 -0.0527 -0.2183
 2122TIP3    H2 6373   2.054   0.453   4.313  0.3891 -1.3818  0.1924
 2123TIP3   OH2 6374   4.875   5.682   5.103  0.6508  0.1387  0.3524
 2123TIP3    H1 6375   4.821   5.755   5.073  0.7634 -0.5339 -1.6161
 2123TIP3    H2 6376   4.892   5.701   5.195  0.4412  2.4380 -0.0373
 2124TIP3   OH2 6377   4.973   4.807   0.083  0.2286 -0.1669  0.1950
 2124TIP3    H1 6378   4.896   4.835   0.132  0.7635  0.0552  0.9239
 2124TIP3    H2 6379   4.938   4.755   0.010 -0.6794  0.9951 -0.2312
 2125TIP3   OH2 6380   3.996   3.517   4.222  0.0413  0.4128 -0.1777
 2125TIP3    H1 6381   3.910   3.476   4.236  0.0209  0.1452 -0.9965
 2125TIP3    H2 6382   4.045   3.452   4.171  0.4211  0.9237 -0.4743
 2126TIP3   OH2 6383   2.776   1.221   0.384 -0.0028  0.7695 -0.2834
 2126TIP3    H1 6384   2.794   1.313   0.403 -0.4931  0.7837  0.1407
 2126TIP3    H2 6385   2.801   1.175   0.464  0.5860  0.4875 -0.6260
 2127TIP3   OH2 6386   2.861   2.229   4.748  0.0964 -0.1735 -0.1681
 2127TIP3    H1 6387   2.847   2.167   4.819  0.1594 -0.7382 -0.6386
 2127TIP3    H2 6388   2.861   2.175   4.669  1.0911  0.2940 -0.5078
 2128TIP3   OH2 6389   4.345   4.077   5.051 -0.0552 -0.6283  0.1449
 2128TIP3    H1 6390   4.434   4.043   5.056  0.9791  1.8572  0.0677
 2128TIP3    H2 6391   4.321   4.094   5.142 -0.5221 -1.3886  0.1743
 2129TIP3   OH2 6392   1.189   1.670   0.650  0.3392 -0.0227 -0.1263
 2129TIP3    H1 6393   1.099   1.653   0.624  0.2838 -1.4737  0.8815
 2129TIP3    H2 6394   1.242   1.621   0.587  0.4242  0.5159 -0.4832
 2130TIP3   OH2 6395   0.505   3.505   3.205 -0.0680  0.7349 -0.4166
 2130TIP3    H1 6396   0.586   3.501   3.155 -0.2325 -0.8247 -0.5933
 2130TIP3    H2 6397   0.442   3.545   3.145  0.4956  1.7802 -0.3413
 2131TIP3   OH2 6398   3.104   2.579   2.040 -0.2603 -0.1678 -0.0928
 2131TIP3    H1 6399   3.074   2.648   2.099  0.8105 -0.6394  1.0621
 2131TIP3    H2 6400   3.053   2.502   2.065 -1.5368  0.1903 -1.4560
 2132TIP3   OH2 6401   2.493   3.555   0.347 -0.0442  0.8394 -0.1939
 2132TIP3    H1 6402   2.574   3.506   0.359  0.0985  1.0367 -0.3277
 2132TIP3    H2 6403   2.488   3.569   0.252  0.2542  1.6422 -0.0981
 2133TIP3   OH2 6404   5.667   3.774   0.966 -0.3603 -0.3198 -0.6505
 2133TIP3    H1 6405   5.646   3.867   0.962  1.9122  0.2317 -0.9707
 2133TIP3    H2 6406   5.612   3.740   1.038 -0.2849  1.5329  0.3453
 2134TIP3   OH2 6407   0.067   1.912   0.815 -0.4275  0.1941 -0.2530
 2134TIP3    H1 6408   0.082   1.818   0.807  2.2430  0.6869 -1.9874
 2134TIP3    H2 6409  -0.026   1.919   0.840 -0.8005 -2.8473 -0.4383
 2135TIP3   OH2 6410   5.224   4.908   4.742  0.3980 -0.2001  0.3128
 2135TIP3    H1 6411   5.129   4.899   4.739  0.5298 -1.7248 -1.0057
 2135TIP3    H2 6412   5.249   4.925   4.652  1.3743  0.2514  0.6584
 2136TIP3   OH2 6413   5.403   1.822   2.036 -0.6280  0.4022 -0.2050
 2136TIP3    H1 6414   5.496   1.830   2.013 -0.3459 -3.4018 -1.0057
 2136TIP3    H2 6415   5.356   1.849   1.957 -0.1862  1.3668 -0.1489
 2137TIP3   OH2 6416   4.757   5.333   3.388  0.2312  0.0391  0.0332
 2137TIP3    H1 6417   4.832   5.383   3.421  0.2530  0.5618 -0.7901
 2137TIP3    H2 6418   4.727   5.381   3.311 -0.9292 -0.1894  0.3147
 2138TIP3   OH2 6419   4.146   1.420   3.637 -0.3632 -0.7634 -0.1774
 2138TIP3    H1 6420   4.080   1.409   3.706  0.9427  0.3271  1.3205
 2138TIP3    H2 6421   4.206   1.346   3.650 -0.2772 -0.7175 -0.3146
 2139TIP3   OH2 6422   2.336   2.268   2.073 -0.1823 -1.2768  0.2057
 2139TIP3    H1 6423   2.403   2.323   2.113  0.3032  0.5566 -2.8458
 2139TIP3    H2 6424   2.375   2.181   2.068  0.7713 -0.9187  1.1500
 2140TIP3   OH2 6425   0.122   2.737   0.689  0.0765  0.1176 -0.0558
 2140TIP3    H1 6426   0.126   2.690   0.772  0.3871  0.5043  0.1523
 2140TIP3    H2 6427   0.102   2.828   0.714 -1.2655 -0.0319 -0.4947
 2141TIP3   OH2 6428   0.955   4.494   4.795  0.0843 -0.6787  0.3154
 2141TIP3    H1 6429   0.882   4.450   4.751 -0.8302  1.7484 -0.8296
 2141TIP3    H2 6430   0.943   4.473   4.888 -1.8387 -0.7299  0.1046
 2142TIP3   OH2 6431   2.794   5.315   3.935  0.3267  0.1235  0.0190
 2142TIP3    H1 6432   2.856   5.363   3.990  0.9458  0.2089 -0.7254
 2142TIP3    H2 6433   2.777   5.374   3.862 -0.5530  0.0518  0.1599
 2143TIP3   OH2 6434   0.700   0.709   1.875  0.0001 -0.0135 -0.3897
 2143TIP3    H1 6435   0.773   0.689   1.817 -0.2102 -0.3402 -0.5380
 2143TIP3    H2 6436   0.674   0.625   1.912  0.4844  0.2512  0.6028
 2144TIP3   OH2 6437   4.171   3.237   4.432  0.0737 -0.1180  0.0916
 2144TIP3    H1 6438   4.139   3.157   4.474 -0.6397 -0.4309 -0.9942
 2144TIP3    H2 6439   4.132   3.308   4.482 -0.1634 -0.4717  0.4158
 2145TIP3   OH2 6440   4.059   4.773   0.812  0.5445 -0.0199  0.0530
 2145TIP3    H1 6441   4.023   4.771   0.900 -1.6799 -0.7620 -0.7888
 2145TIP3    H2 6442   4.149   4.805   0.823 -0.4067  2.2468  2.3126
 2146TIP3   OH2 6443   5.420   0.363   4.544  0.2793 -0.0555  0.4026
 2146TIP3    H1 6444   5.402   0.438   4.487  0.9922 -0.2391 -0.0719
 2146TIP3    H2 6445   5.422   0.400   4.632 -2.2186  0.0174  0.5195
 2147TIP3   OH2 6446   0.602   2.636   3.083  0.7840 -0.0135 -0.1606
 2147TIP3    H1 6447   0.674   2.676   3.131  1.7225 -0.8586 -0.8395
 2147TIP3    H2 6448   0.643   2.568   3.029 -0.6583 -1.4796  0.4925
 2148TIP3   OH2 6449   2.274   2.273   2.682  0.0021  0.2526  0.2372
 2148TIP3    H1 6450   2.291   2.184   2.712  0.5211  0.2980  0.1060
 2148TIP3    H2 6451   2.312   2.276   2.594  0.5691  0.7824  0.4863
 2149TIP3   OH2 6452   1.340   4.036   1.058 -0.2419 -0.0788  0.6634
 2149TIP3    H1 6453   1.271   3.970   1.062 -1.0708  0.6968 -0.3374
 2149TIP3    H2 6454   1.346   4.059   0.965  1.2654 -0.0167  0.7531
 2150TIP3   OH2 6455   4.278   0.108   1.802 -0.0080 -0.3685 -0.2842
 2150TIP3    H1 6456   4.317   0.070   1.723  2.6383  0.7869  0.3779
 2150TIP3    H2 6457   4.308   0.051   1.873  1.5371  1.1804  0.3702
 2151TIP3   OH2 6458   5.037   3.870   4.375 -0.4450  0.1950  0.7128
 2151TIP3    H1 6459   5.100   3.940   4.394  1.8545 -1.4402 -0.3219
 2151TIP3    H2 6460   5.060   3.800   4.437 -1.5643 -0.2738  0.6189
 2152TIP3   OH2 6461   5.128   4.484   4.268 -0.4479 -0.0450  0.2938
 2152TIP3    H1 6462   5.146   4.470   4.361 -1.8023  0.0823  0.5966
 2152TIP3    H2 6463   5.200   4.539   4.237  0.5246 -0.8870  1.0340
 2153TIP3   OH2 6464   5.137   2.541   3.178  0.3921  0.9528 -0.1975
 2153TIP3    H1 6465   5.174   2.596   3.109 -0.3469  1.6705 -0.0408
 2153TIP3    H2 6466   5.172   2.578   3.259 -0.2630  1.3297 -0.0793
 2154TIP3   OH2 6467   3.434   2.917   2.620 -0.1708 -0.2364  0.3406
 2154TIP3    H1 6468   3.359   2.975   2.629 -0.3072 -0.7575  4.2693
 2154TIP3    H2 6469   3.508   2.976   2.605 -0.6730  0.7842  1.6720
 2155TIP3   OH2 6470   0.980   1.970   1.248  0.2402 -0.0741 -0.4287
 2155TIP3    H1 6471   0.995   1.945   1.339  2.1233 -0.5031 -0.8111
 2155TIP3    H2 6472   0.979   1.887   1.200  0.3050  0.2127 -0.9349
 2156TIP3   OH2 6473   6.323   2.572   4.295  0.0989 -0.3836 -0.2716
 2156TIP3    H1 6474   6.230   2.552   4.280 -0.1943  0.1787  0.7283
 2156TIP3    H2 6475   6.361   2.488   4.320 -0.6917 -0.1766  1.8272
 2157TIP3   OH2 6476   0.756   2.950   4.577  0.2422  0.7245  0.5379
 2157TIP3    H1 6477   0.768   2.986   4.664 -1.6817  1.8184  0.4145
 2157TIP3    H2 6478   0.662   2.933   4.571  0.4218  0.1495 -1.1123
 2158TIP3   OH2 6479   0.309   3.983   1.773 -0.3928  0.2824 -0.0016
 2158TIP3    H1 6480   0.352   4.004   1.856 -2.2706  1.7942  0.6356
 2158TIP3    H2 6481   0.220   3.960   1.797 -1.5035  2.4922 -1.7083
 2159TIP3   OH2 6482   3.156   1.847   0.135  0.0244  0.0539  0.2645
 2159TIP3    H1 6483   3.104   1.922   0.161  0.7365  0.9397 -0.7398
 2159TIP3    H2 6484   3.209   1.826   0.212 -1.9429 -1.0265  1.3790
 2160TIP3   OH2 6485   0.661   4.179   3.066 -0.1916  0.1480 -0.0694
 2160TIP3    H1 6486   0.735   4.123   3.092 -1.1658 -0.9752  0.3691
 2160TIP3    H2 6487   0.584   4.136   3.103 -0.9679  1.9408  0.4963
 2161TIP3   OH2 6488   1.492   0.859   4.697 -0.6172  0.0870  0.0988
 2161TIP3    H1 6489   1.548   0.782   4.711 -1.0976 -0.1133  0.9279
 2161TIP3    H2 6490   1.489   0.902   4.782  0.2100  1.4224 -0.5191
 2162TIP3   OH2 6491   5.687   2.404   1.214 -0.7181 -0.2431 -0.1933
 2162TIP3    H1 6492   5.715   2.481   1.264 -0.9874  0.1967 -0.7166
 2162TIP3    H2 6493   5.702   2.427   1.123  0.8971 -1.5010 -0.2822
 2163TIP3   OH2 6494   1.087   3.015   0.938  0.5873 -0.3726 -0.4371
 2163TIP3    H1 6495   1.046   3.003   0.852 -0.4823  0.1178 -0.0209
 2163TIP3    H2 6496   1.104   2.926   0.969  1.6891 -0.5425 -1.4620
 2164TIP3   OH2 6497   5.382   2.433   3.577 -0.5504 -0.0360  0.3445
 2164TIP3    H1 6498   5.409   2.525   3.575 -0.3560  0.0359  3.0069
 2164TIP3    H2 6499   5.452   2.389   3.626 -0.9247 -1.5102 -0.4095
 2165TIP3   OH2 6500   0.416   5.691   2.245  0.3448  0.2317  0.1074
 2165TIP3    H1 6501   0.423   5.747   2.167  0.1294  0.8389  0.5126
 2165TIP3    H2 6502   0.378   5.749   2.311 -2.1621 -1.0034 -0.1172
 2166TIP3   OH2 6503   1.200   2.899   3.313  0.0690  0.5693  0.5891
 2166TIP3    H1 6504   1.118   2.899   3.265 -0.0111  0.1869  0.7210
 2166TIP3    H2 6505   1.213   2.808   3.338  1.0847  0.4477 -0.3568
 2167TIP3   OH2 6506   1.278   0.450   1.108  0.2816  0.0242 -1.0476
 2167TIP3    H1 6507   1.361   0.415   1.075  0.2751  1.0482 -2.2244
 2167TIP3    H2 6508   1.249   0.512   1.040 -1.3369 -0.1492 -0.5729
 2168TIP3   OH2 6509   6.135   4.921   3.753 -0.0120  0.5146  0.7143
 2168TIP3    H1 6510   6.054   4.938   3.705  0.0603  0.7181  0.6633
 2168TIP3    H2 6511   6.159   4.832   3.728  0.3932  0.8595 -0.1719
 2169TIP3   OH2 6512   0.864   5.296   0.739  0.0618 -0.3693  0.3658
 2169TIP3    H1 6513   0.917   5.357   0.789  1.3773 -2.3494  1.5203
 2169TIP3    H2 6514   0.825   5.238   0.804 -2.3965  0.0816 -0.5648
 2170TIP3   OH2 6515   1.249   3.415   4.312  0.2461 -0.0779 -0.8868
 2170TIP3    H1 6516   1.251   3.469   4.391  0.2651  1.0210 -1.6094
 2170TIP3    H2 6517   1.214   3.331   4.341 -1.9456  1.0205 -0.1150
 2171TIP3   OH2 6518   5.839   3.515   2.625  0.0078  0.3161 -0.2913
 2171TIP3    H1 6519   5.921   3.470   2.605 -0.2191 -0.7422  1.0570
 2171TIP3    H2 6520   5.863   3.584   2.685 -0.2162 -0.7794  1.1126
 2172TIP3   OH2 6521   0.617   3.984   0.947  0.1391 -0.5888  0.2433
 2172TIP3    H1 6522   0.614   3.919   0.876  1.0071 -0.3436 -0.0390
 2172TIP3    H2 6523   0.541   4.040   0.932  0.2042 -0.6596 -0.3835
 2173TIP3   OH2 6524   5.609   1.073   3.311 -0.5837 -0.1579  0.0044
 2173TIP3    H1 6525   5.543   1.103   3.248 -0.3590  1.5028  0.5005
 2173TIP3    H2 6526   5.588   1.119   3.392 -1.4997 -3.0382  1.5439
 2174TIP3   OH2 6527   3.996   2.740   3.840  0.1518  0.1279 -0.2633
 2174TIP3    H1 6528   4.035   2.768   3.757  0.4225  3.0645  0.7364
 2174TIP3    H2 6529   4.069   2.744   3.902 -0.2320 -1.2532  0.3093
 2175TIP3   OH2 6530   2.690   3.905   4.406  0.2509  0.4304 -0.2515
 2175TIP3    H1 6531   2.689   3.842   4.478 -0.5105  0.0852 -0.5558
 2175TIP3    H2 6532   2.742   3.978   4.439 -1.3303  0.9378  1.2172
 2176TIP3   OH2 6533   0.896   0.696   2.998 -0.3640 -0.5727 -0.7894
 2176TIP3    H1 6534   0.859   0.713   2.911 -1.8332  2.9395  0.3247
 2176TIP3    H2 6535   0.820   0.691   3.056  0.6296 -1.0431  0.5253
 2177TIP3   OH2 6536   6.151   2.255   3.989  0.1404  0.3085  0.2147
 2177TIP3    H1 6537   6.109   2.226   3.908 -2.8818  0.3805  1.6444
 2177TIP3    H2 6538   6.127   2.189   4.054 -0.1505  1.8431  1.7326
 2178TIP3   OH2 6539   5.744   4.569   4.841  0.2705  0.3308  0.3638
 2178TIP3    H1 6540   5.767   4.659   4.820  0.5766  0.1711 -0.0001
 2178TIP3    H2 6541   5.794   4.516   4.778  0.6733 -0.1237  1.0577
 2179TIP3   OH2 6542   2.434   4.048   1.341 -0.0773 -0.1311  0.5111
 2179TIP3    H1 6543   2.444   3.957   1.313 -0.2443 -0.0475  0.1880
 2179TIP3    H2 6544   2.347   4.073   1.312 -0.2679 -0.0576  1.1336
 2180TIP3   OH2 6545   2.022   1.154   2.790  0.4302 -0.5966 -0.1739
 2180TIP3    H1 6546   1.945   1.099   2.807  1.0325 -0.9277  1.6664
 2180TIP3    H2 6547   2.026   1.159   2.695 -3.2758  1.4177 -0.4451
 2181TIP3   OH2 6548   4.772   1.109   2.845 -0.0017 -0.3221 -0.1629
 2181TIP3    H1 6549   4.751   1.112   2.938  1.3395  0.0533  0.1437
 2181TIP3    H2 6550   4.771   1.201   2.817  0.4185 -0.3630 -0.3192
 2182TIP3   OH2 6551   6.006   3.746   1.674  0.3742 -0.2239  0.0275
 2182TIP3    H1 6552   6.000   3.840   1.691  0.3029  0.2884 -2.3985
 2182TIP3    H2 6553   6.093   3.721   1.705  0.3475  0.6093  0.8047
 2183TIP3   OH2 6554   5.751   2.263   1.550  0.3253  0.1706  0.1581
 2183TIP3    H1 6555   5.767   2.354   1.527 -1.6188  0.6059  0.3654
 2183TIP3    H2 6556   5.657   2.250   1.536  0.4324 -1.6157  0.7610
 2184TIP3   OH2 6557   0.806   3.912   3.647 -0.2798  0.3025 -0.0043
 2184TIP3    H1 6558   0.885   3.918   3.594 -1.1796  2.5757 -1.2351
 2184TIP3    H2 6559   0.837   3.894   3.736  1.3593 -1.9739 -0.9411
 2185TIP3   OH2 6560   3.359   1.392   1.182 -0.5358  0.1123 -0.2239
 2185TIP3    H1 6561   3.399   1.371   1.266 -1.9467 -0.3853  0.3496
 2185TIP3    H2 6562   3.431   1.429   1.130  0.3081  0.6504  1.2649
 2186TIP3   OH2 6563   1.619   2.284   4.105  0.5839 -0.0837 -0.2204
 2186TIP3    H1 6564   1.674   2.349   4.148  1.6952 -1.8575  1.1386
 2186TIP3    H2 6565   1.572   2.334   4.038  1.0361  2.1941  1.0513
 2187TIP3   OH2 6566   1.414   1.624   1.744  0.2855 -0.2229 -0.0787
 2187TIP3    H1 6567   1.338   1.575   1.712 -0.0354 -0.2085  0.6400
 2187TIP3    H2 6568   1.384   1.715   1.746  0.8145 -0.0000 -1.2162
 2188TIP3   OH2 6569   1.481   4.630   0.452  0.4329  0.1269  0.1625
 2188TIP3    H1 6570   1.564   4.595   0.420 -0.4030 -1.3132 -0.5194
 2188TIP3    H2 6571   1.480   4.721   0.421  0.7644 -0.4977 -1.8113
 2189TIP3   OH2 6572   4.653   3.629   0.301  0.1912 -0.0247  0.1879
 2189TIP3    H1 6573   4.738   3.585   0.299  1.1281  1.3426  3.4653
 2189TIP3    H2 6574   4.589   3.559   0.289  1.6714 -1.0587 -2.6280
 2190TIP3   OH2 6575   2.973   5.224   4.453 -0.0777 -0.0443  0.5946
 2190TIP3    H1 6576   2.961   5.207   4.547 -1.6530  1.4885  0.7203
 2190TIP3    H2 6577   2.892   5.193   4.412 -0.1204  0.8567 -0.0244
 2191TIP3   OH2 6578   2.051   1.140   4.498  0.3932  0.0483 -0.2063
 2191TIP3    H1 6579   2.052   1.165   4.591 -0.4752  0.9400 -0.4194
 2191TIP3    H2 6580   1.960   1.154   4.471  0.6427 -0.2031 -1.1956
 2192TIP3   OH2 6581   2.862   3.366   2.850 -0.0155 -0.0138 -0.4126
 2192TIP3    H1 6582   2.835   3.327   2.934  0.8337  0.2593 -0.0028
 2192TIP3    H2 6583   2.944   3.321   2.828 -0.3062 -0.1853 -1.1787
 2193TIP3   OH2 6584   0.638   0.818   1.542 -0.1014 -0.3971 -0.6897
 2193TIP3    H1 6585   0.732   0.825   1.556  0.0027 -0.9343 -1.1162
 2193TIP3    H2 6586   0.622   0.864   1.460 -0.3755  0.6572 -0.0675
 2194TIP3   OH2 6587   3.745   0.058   4.810 -0.4192  0.4361  0.0847
 2194TIP3    H1 6588   3.735   0.129   4.874  0.0425 -0.3346  1.0497
 2194TIP3    H2 6589   3.836   0.028   4.822 -0.2692  0.3759 -1.0607
 2195TIP3   OH2 6590   2.222   5.891   4.783 -0.1689 -0.1538 -0.5785
 2195TIP3    H1 6591   2.180   5.972   4.810  0.4262 -0.0886  0.1986
 2195TIP3    H2 6592   2.285   5.872   4.853 -0.2948 -1.2823 -0.7495
 2196TIP3   OH2 6593   3.393   1.040   3.492 -0.3711  0.2203 -0.3492
 2196TIP3    H1 6594   3.464   1.098   3.522 -0.5065 -0.2707  1.0068
 2196TIP3    H2 6595   3.433   0.953   3.491 -0.9151 -0.0412  0.3069
 2197TIP3   OH2 6596   4.825   5.499   1.424 -0.2562  0.0102 -0.2527
 2197TIP3    H1 6597   4.867   5.419   1.394  1.0056  0.6777 -0.3180
 2197TIP3    H2 6598   4.864   5.517   1.509 -0.7918  0.3618 -0.0743
 2198TIP3   OH2 6599   0.956   4.790   4.323  0.4763  0.3716 -0.8463
 2198TIP3    H1 6600   0.991   4.813   4.237  0.5728 -1.8260 -1.4742
 2198TIP3    H2 6601   0.861   4.788   4.310  0.3077  2.3431 -0.2260
 2199TIP3   OH2 6602   5.115   4.749   4.489 -0.6031 -0.2173  0.3113
 2199TIP3    H1 6603   5.021   4.749   4.471 -0.8912 -0.7838  1.6835
 2199TIP3    H2 6604   5.129   4.669   4.540  0.4490  0.3966  1.0018
 2200TIP3   OH2 6605   1.720   2.246   4.458  0.1885  0.5896  0.2446
 2200TIP3    H1 6606   1.721   2.259   4.553  1.1121 -1.2421  0.5254
 2200TIP3    H2 6607   1.638   2.201   4.440 -0.3684  1.6533  0.0362
 2201TIP3   OH2 6608   0.847   0.780   5.161 -0.2836 -0.1085 -0.1752
 2201TIP3    H1 6609   0.764   0.737   5.140 -0.1953 -0.9582  1.1113
 2201TIP3    H2 6610   0.913   0.711   5.152  0.1074  0.2195  0.1179
 2202TIP3   OH2 6611   1.022   1.572   5.096  0.0173 -0.5654 -0.0233
 2202TIP3    H1 6612   1.087   1.528   5.150 -0.5666  0.4183  1.5523
 2202TIP3    H2 6613   1.038   1.665   5.109 -1.8307 -0.2829  0.6316
 2203TIP3   OH2 6614   0.949   3.408   3.028  0.4703  0.5361  0.2281
 2203TIP3    H1 6615   0.936   3.333   3.086  0.1521  0.3104 -0.1328
 2203TIP3    H2 6616   0.934   3.373   2.940 -0.6019  1.2254  0.1200
 2204TIP3   OH2 6617   5.951   2.276   0.840  0.1912 -0.2719  0.6972
 2204TIP3    H1 6618   6.000   2.209   0.793  1.5147  1.8036 -1.0718
 2204TIP3    H2 6619   5.915   2.333   0.771 -0.3212  1.2261  2.1131
 2205TIP3   OH2 6620   4.432   3.586   0.674  0.0996  0.3108 -0.4060
 2205TIP3    H1 6621   4.427   3.681   0.659 -0.2288  0.0955 -1.7279
 2205TIP3    H2 6622   4.509   3.558   0.625  0.4996 -0.0373  0.4115
 2206TIP3   OH2 6623   5.081   4.240   1.440 -0.0611 -0.4336 -0.8013
 2206TIP3    H1 6624   5.073   4.258   1.534  0.6232 -0.5809 -0.7092
 2206TIP3    H2 6625   5.069   4.146   1.432 -1.1722 -0.2919 -0.9958
 2207TIP3   OH2 6626   1.938   1.718   1.417  0.2917 -0.1700  0.2232
 2207TIP3    H1 6627   1.920   1.625   1.401  1.0354 -0.2852 -0.0142
 2207TIP3    H2 6628   2.034   1.722   1.425  0.4270  0.8296 -1.4696
 2208TIP3   OH2 6629   0.066   0.340   0.853  0.3541  0.0677 -0.2903
 2208TIP3    H1 6630   0.105   0.288   0.923  0.0142 -0.9081 -0.8040
 2208TIP3    H2 6631   0.139   0.387   0.813  0.6273  0.1788  0.3319
 2209TIP3   OH2 6632   3.074   3.689   4.209  0.0716  0.2256  0.1256
 2209TIP3    H1 6633   2.991   3.641   4.216  0.0802  0.0230 -1.0153
 2209TIP3    H2 6634   3.103   3.673   4.119  1.9720 -0.7220  0.8606
 2210TIP3   OH2 6635   2.194   4.359   4.493 -0.1809  0.7210 -0.4394
 2210TIP3    H1 6636   2.152   4.352   4.407 -0.1820 -0.0816 -0.3840
 2210TIP3    H2 6637   2.143   4.424   4.540 -1.0293  0.1592 -0.5657
 2211TIP3   OH2 6638   5.329   4.413   0.157 -0.2474 -0.3437 -0.5889
 2211TIP3    H1 6639   5.377   4.484   0.200  2.0336 -0.2622 -2.9685
 2211TIP3    H2 6640   5.243   4.450   0.137 -0.2303  0.6265  0.9612
 2212TIP3   OH2 6641   3.006   5.879   0.430  0.0856 -0.0612  0.0335
 2212TIP3    H1 6642   3.073   5.933   0.390  0.4661  0.3981  1.2252
 2212TIP3    H2 6643   2.923   5.920   0.405  0.3328  0.4946  0.1066
 2213TIP3   OH2 6644   3.336   4.505   4.250 -0.1441  0.6455 -0.0118
 2213TIP3    H1 6645   3.380   4.545   4.174  0.6435 -0.1953 -0.0170
 2213TIP3    H2 6646   3.269   4.568   4.274 -0.6612  0.7754 -1.6380
 2214TIP3   OH2 6647   1.507   2.597   4.528  0.0026  0.0912  0.2438
 2214TIP3    H1 6648   1.507   2.578   4.622  1.4274  2.0020  0.7089
 2214TIP3    H2 6649   1.472   2.686   4.522 -0.3450 -0.1138 -1.0847
 2215TIP3   OH2 6650   4.579   3.600   2.538  0.6677  0.5055 -0.5394
 2215TIP3    H1 6651   4.590   3.578   2.445  1.1889 -0.5701 -0.2387
 2215TIP3    H2 6652   4.666   3.590   2.576  0.1140 -0.9684  0.4341
 2216TIP3   OH2 6653   2.208   0.600   4.459 -0.4052  0.4788  0.5213
 2216TIP3    H1 6654   2.173   0.639   4.379 -0.8988 -0.8134  0.0930
 2216TIP3    H2 6655   2.133   0.594   4.518 -0.1480  0.9535  0.9091
 2217TIP3   OH2 6656   4.846   5.449   4.369  0.0875  0.9148  0.2419
 2217TIP3    H1 6657   4.754   5.467   4.350 -0.3273 -0.7929  0.4970
 2217TIP3    H2 6658   4.846   5.414   4.458  0.7831 -0.4080 -0.2484
 2218TIP3   OH2 6659   0.279   3.435   0.036 -0.1645  0.0127 -0.1833
 2218TIP3    H1 6660   0.192   3.443  -0.003  0.1329 -0.3139 -0.9196
 2218TIP3    H2 6661   0.262   3.412   0.127 -0.8597  0.5712 -0.1572
 2219TIP3   OH2 6662   3.655   0.845   2.921  0.5600 -0.1638  0.5674
 2219TIP3    H1 6663   3.641   0.913   2.855 -1.7114  0.6786  1.7778
 2219TIP3    H2 6664   3.709   0.780   2.877  0.7532  1.2604 -1.4681
 2220TIP3   OH2 6665   5.106   0.082   1.397 -0.6521  0.4911 -0.0344
 2220TIP3    H1 6666   5.099   0.076   1.492 -0.4317 -1.0338 -0.0959
 2220TIP3    H2 6667   5.200   0.087   1.379 -0.6563  0.0132 -0.2029
 2221TIP3   OH2 6668   5.747   0.738   1.822  0.5777  0.5351 -0.8098
 2221TIP3    H1 6669   5.754   0.714   1.730  0.8004 -0.2053 -0.6112
 2221TIP3    H2 6670   5.833   0.773   1.845  1.3859 -1.6143 -0.2703
 2222TIP3   OH2 6671   2.546   4.552   4.788  0.4178  0.1637  0.2928
 2222TIP3    H1 6672   2.473   4.606   4.818  0.5558 -0.5436  2.0174
 2222TIP3    H2 6673   2.553   4.483   4.854  1.7335 -0.6116 -0.6188
 2223TIP3   OH2 6674   1.701   1.933   0.814  0.1889 -0.0595  0.4893
 2223TIP3    H1 6675   1.701   1.910   0.721 -3.3372 -1.4931  0.7202
 2223TIP3    H2 6676   1.754   1.865   0.856  1.5912  0.4558 -0.3896
 2224TIP3   OH2 6677   3.171   0.934   0.178  0.4019  0.7361 -0.3119
 2224TIP3    H1 6678   3.077   0.915   0.173  0.3834  0.6155  0.3958
 2224TIP3    H2 6679   3.213   0.858   0.139  0.1865  1.1481 -1.3878
 2225TIP3   OH2 6680   2.882   1.478   0.424 -0.0123 -0.2890 -0.2994
 2225TIP3    H1 6681   2.924   1.474   0.337 -2.0587  0.0733 -1.3585
 2225TIP3    H2 6682   2.927   1.550   0.468  0.4251  0.1621 -1.4245
 2226TIP3   OH2 6683   2.146   0.836   0.986  0.3072  0.4797 -0.4529
 2226TIP3    H1 6684   2.054   0.862   0.993  0.0390 -0.4742 -0.2979
 2226TIP3    H2 6685   2.147   0.743   1.012  1.4552  0.7318  0.4843
 2227TIP3   OH2 6686   3.016   5.652   2.366  0.3411  0.2064 -0.3548
 2227TIP3    H1 6687   3.096   5.606   2.393 -0.7444 -1.0042  0.9502
 2227TIP3    H2 6688   2.980   5.687   2.448 -0.6393  0.4298 -0.8745
 2228TIP3   OH2 6689   3.622   3.963   3.665 -0.3081  0.2205 -0.4144
 2228TIP3    H1 6690   3.541   3.935   3.622 -0.0238 -3.3778  0.9944
 2228TIP3    H2 6691   3.688   3.965   3.596 -0.6881 -1.4460 -0.8575
 2229TIP3   OH2 6692   1.815   1.179   0.641 -0.0448  0.2902 -0.0812
 2229TIP3    H1 6693   1.908   1.176   0.619 -0.3918 -0.4788 -1.5126
 2229TIP3    H2 6694   1.782   1.258   0.598 -0.3465 -0.2275 -0.8152
 2230TIP3   OH2 6695   4.438   4.482   3.901 -0.7583  0.3829  0.1691
 2230TIP3    H1 6696   4.442   4.549   3.833  0.2278 -0.2691 -0.4345
 2230TIP3    H2 6697   4.361   4.505   3.952 -2.4647  0.0035 -2.0811
 2231TIP3   OH2 6698   3.102   1.966   0.722 -0.1541  0.1064 -0.9102
 2231TIP3    H1 6699   3.091   1.897   0.788  0.0113  0.1414 -0.8450
 2231TIP3    H2 6700   3.050   2.040   0.756 -1.4592 -0.4403 -1.6562
 2232TIP3   OH2 6701   2.412   1.095   1.200  0.2851  0.4611 -0.3251
 2232TIP3    H1 6702   2.330   1.069   1.243  0.2562  1.6048  0.3619
 2232TIP3    H2 6703   2.465   1.015   1.198 -0.7116 -0.2080 -0.4631
 2233TIP3   OH2 6704   5.880   2.696   4.937 -0.1490  0.6414 -0.0533
 2233TIP3    H1 6705   5.850   2.736   4.855  0.2322  1.4706  0.1965
 2233TIP3    H2 6706   5.974   2.687   4.926 -0.3711 -1.5860 -0.6808
 2234TIP3   OH2 6707   5.538   4.346   3.899 -0.2584  0.6038  0.1352
 2234TIP3    H1 6708   5.577   4.349   3.987 -1.6248 -0.1432  0.8080
 2234TIP3    H2 6709   5.613   4.341   3.840  0.6917  0.8916  1.2651
 2235TIP3   OH2 6710   0.904   0.364   2.704 -0.0596 -0.2531 -0.0516
 2235TIP3    H1 6711   0.948   0.423   2.643 -0.5045 -0.4964 -0.6105
 2235TIP3    H2 6712   0.811   0.370   2.682 -0.3645  0.5402  1.3664
 2236TIP3   OH2 6713   2.560   2.818   0.717  0.3410  0.1152  0.3062
 2236TIP3    H1 6714   2.564   2.780   0.804 -2.0497  0.0840  0.4689
 2236TIP3    H2 6715   2.491   2.884   0.723  1.6537  1.6954 -1.0087
 2237TIP3   OH2 6716   1.716   4.173   0.253 -0.0644 -0.1501  0.7795
 2237TIP3    H1 6717   1.765   4.093   0.231 -0.8212 -1.0135  2.0703
 2237TIP3    H2 6718   1.775   4.244   0.231  1.1867 -1.1201  0.8864
 2238TIP3   OH2 6719   1.460   4.537   4.372  0.1457 -0.3796 -0.2933
 2238TIP3    H1 6720   1.496   4.450   4.353  0.9456 -0.0854 -0.1434
 2238TIP3    H2 6721   1.401   4.556   4.299 -1.8007 -1.9958  0.7375
 2239TIP3   OH2 6722   2.302   5.370   2.842  0.3751  0.0286 -0.0884
 2239TIP3    H1 6723   2.302   5.304   2.911  0.7045 -2.2206 -2.1142
 2239TIP3    H2 6724   2.389   5.362   2.802 -0.2286  0.4065 -1.5205
 2240TIP3   OH2 6725   3.866   0.687   1.783 -0.7637  0.8029  0.0642
 2240TIP3    H1 6726   3.865   0.671   1.689  1.4671 -0.3531  0.1717
 2240TIP3    H2 6727   3.811   0.617   1.820  0.0667 -0.0461 -0.2605
 2241TIP3   OH2 6728   1.041   5.207   2.481 -0.0576 -0.1081  0.2849
 2241TIP3    H1 6729   1.132   5.180   2.471  0.6079  1.7483  0.9644
 2241TIP3    H2 6730   0.992   5.124   2.489  1.4720 -1.1380 -0.6222
 2242TIP3   OH2 6731   4.761   2.544   3.307  0.4293  0.0198 -0.1726
 2242TIP3    H1 6732   4.713   2.613   3.353 -1.2816 -1.7037  0.7820
 2242TIP3    H2 6733   4.765   2.573   3.216  1.0777  2.0354  0.4486
 2243TIP3   OH2 6734   3.795   2.905   3.902 -0.2443 -0.2490  0.7633
 2243TIP3    H1 6735   3.851   2.979   3.879 -0.0071 -0.3371  1.0499
 2243TIP3    H2 6736   3.843   2.828   3.872 -1.2033 -0.2218 -0.9964
 2244TIP3   OH2 6737   0.657   0.828   4.880 -1.0457  0.6533 -0.2345
 2244TIP3    H1 6738   0.714   0.905   4.874  0.4810 -0.5293 -2.0001
 2244TIP3    H2 6739   0.568   0.865   4.883 -0.3235  2.4978  0.3306
 2245TIP3   OH2 6740   2.613   2.606   2.921  0.1602 -0.6698  0.5338
 2245TIP3    H1 6741   2.632   2.573   3.009 -0.2382 -1.5591  0.3084
 2245TIP3    H2 6742   2.548   2.544   2.887 -0.2011  0.0622 -0.1282
 2246TIP3   OH2 6743   0.414   5.602   4.297  0.0371 -0.2171 -0.3625
 2246TIP3    H1 6744   0.439   5.694   4.285 -0.8651 -0.0135 -0.7892
 2246TIP3    H2 6745   0.417   5.565   4.210 -2.8762  0.3010 -0.7983
 2247TIP3   OH2 6746   2.131   0.038   3.010 -0.4609 -0.3639  0.1893
 2247TIP3    H1 6747   2.183  -0.035   2.975 -1.0481 -0.4078 -0.6339
 2247TIP3    H2 6748   2.190   0.113   3.005 -0.0387 -0.6660  0.5096
 2248TIP3   OH2 6749   1.622   2.621   2.775 -0.3389  0.3936 -0.6793
 2248TIP3    H1 6750   1.672   2.631   2.694 -1.0848  0.8075 -1.1021
 2248TIP3    H2 6751   1.547   2.568   2.750 -0.6537  0.6500 -0.2969
 2249TIP3   OH2 6752   5.490   1.830   0.379  0.1601  0.2203  0.3368
 2249TIP3    H1 6753   5.582   1.803   0.370 -0.0926 -0.0050 -2.9180
 2249TIP3    H2 6754   5.444   1.750   0.407  0.6532 -0.3381 -0.4033
 2250TIP3   OH2 6755   6.134   3.022   4.182 -0.4396 -0.1424 -0.0458
 2250TIP3    H1 6756   6.228   3.007   4.170 -0.3871  1.4048 -2.3308
 2250TIP3    H2 6757   6.127   3.068   4.265  0.4202 -2.9242  1.7141
 2251TIP3   OH2 6758   4.939   5.804   2.148  0.3275 -0.2225  0.1414
 2251TIP3    H1 6759   4.955   5.896   2.125  0.9505 -0.4606 -0.4207
 2251TIP3    H2 6760   4.993   5.789   2.225 -0.6202  0.1757  0.8936
 2252TIP3   OH2 6761   2.995   5.336   2.770 -0.2053 -0.6864  0.0643
 2252TIP3    H1 6762   3.041   5.260   2.807  1.0029  0.4603  0.9890
 2252TIP3    H2 6763   2.945   5.371   2.842  1.6635  1.1870  0.5425
 2253TIP3   OH2 6764   2.584   2.978   3.608 -0.3048 -0.5728  0.6230
 2253TIP3    H1 6765   2.563   2.923   3.532  1.1087 -0.6235  0.2327
 2253TIP3    H2 6766   2.524   2.949   3.676 -2.0239 -0.1228 -0.6269
 2254TIP3   OH2 6767   2.430   3.868   0.652  0.5038  0.1421  0.4551
 2254TIP3    H1 6768   2.362   3.845   0.589 -0.2826  1.2679  0.8435
 2254TIP3    H2 6769   2.499   3.803   0.639  1.3467  1.5139 -3.0129
 2255TIP3   OH2 6770   1.617   1.099   3.427  0.4620  0.1822  0.7826
 2255TIP3    H1 6771   1.614   1.075   3.334  3.0186 -0.0625  0.7025
 2255TIP3    H2 6772   1.565   1.031   3.470  1.5927 -1.3645 -0.2007
 2256TIP3   OH2 6773   5.261   2.672   2.989  0.4213 -0.6639  0.4569
 2256TIP3    H1 6774   5.355   2.688   2.979  0.0526  0.4395 -1.9710
 2256TIP3    H2 6775   5.236   2.627   2.908 -0.6827 -3.5831  2.2940
 2257TIP3   OH2 6776   4.970   5.179   2.855 -0.5049  0.4515 -0.4170
 2257TIP3    H1 6777   5.025   5.199   2.779  1.5180 -1.1409  0.5039
 2257TIP3    H2 6778   5.007   5.232   2.926 -0.2708 -0.4725  0.1685
 2258TIP3   OH2 6779   0.700   4.835   2.762  0.1827 -0.3368  0.2963
 2258TIP3    H1 6780   0.621   4.849   2.815 -0.1863  0.6978 -0.4878
 2258TIP3    H2 6781   0.718   4.742   2.770  0.1725 -0.2037  2.2697
 2259TIP3   OH2 6782   5.689   3.461   3.344 -0.4399  0.5014 -0.5560
 2259TIP3    H1 6783   5.731   3.380   3.372 -0.2910  0.6777 -0.2597
 2259TIP3    H2 6784   5.756   3.507   3.294  0.5531  1.8497  1.8517
 2260TIP3   OH2 6785   0.527   1.215   1.550 -0.2620  0.5763  0.2997
 2260TIP3    H1 6786   0.493   1.257   1.471 -1.9215 -1.5815 -0.2221
 2260TIP3    H2 6787   0.601   1.270   1.577 -0.7865  2.3723 -1.6974
 2261TIP3   OH2 6788   4.339   5.424   1.502 -0.3735  0.5453  0.3454
 2261TIP3    H1 6789   4.362   5.444   1.411 -1.4078 -0.3974 -0.1528
 2261TIP3    H2 6790   4.422   5.399   1.543  0.0018  0.3186 -0.5303
 2262TIP3   OH2 6791   2.090   5.026   4.597  0.3325  0.4306  0.7452
 2262TIP3    H1 6792   2.159   5.090   4.582  0.5239  0.3944  1.4580
 2262TIP3    H2 6793   2.010   5.070   4.569  0.6028  0.5672  0.1693
 2263TIP3   OH2 6794   0.865   2.995   2.271 -0.5191 -0.1739  0.0805
 2263TIP3    H1 6795   0.915   2.924   2.231 -0.9416 -0.8636  0.7436
 2263TIP3    H2 6796   0.930   3.050   2.314 -0.2897 -0.8093  0.5513
 2264TIP3   OH2 6797   4.293   3.037   5.100  0.2151  0.6882 -0.0132
 2264TIP3    H1 6798   4.203   3.060   5.125  0.0831  0.1422  0.0265
 2264TIP3    H2 6799   4.310   2.955   5.146  0.4139  0.3247 -0.7257
 2265TIP3   OH2 6800   5.630   2.978   3.860 -0.1428 -0.2010  0.1314
 2265TIP3    H1 6801   5.543   2.940   3.846 -0.0390 -0.1197 -0.7373
 2265TIP3    H2 6802   5.688   2.903   3.867 -0.1036 -0.2339 -0.5003
 2266TIP3   OH2 6803   4.336   1.849   1.262 -0.1172  0.1675  0.9551
 2266TIP3    H1 6804   4.284   1.928   1.245  0.4773  0.4846  0.5469
 2266TIP3    H2 6805   4.403   1.878   1.325 -1.5741 -0.7098  3.0149
 2267TIP3   OH2 6806   1.986   4.238   3.036  0.3977  0.4877 -0.1064
 2267TIP3    H1 6807   1.898   4.270   3.056  0.2276  0.2223 -0.4277
 2267TIP3    H2 6808   1.972   4.158   2.985  0.8301  0.8029 -0.7289
 2268TIP3   OH2 6809   4.396   1.295   3.770 -0.2550  0.5962 -0.1800
 2268TIP3    H1 6810   4.412   1.203   3.792 -1.6175  0.1828 -0.8142
 2268TIP3    H2 6811   4.334   1.324   3.836 -0.5730  0.7752 -0.5569
 2269TIP3   OH2 6812   6.100   0.239   4.592  0.1347 -0.0959 -0.6050
 2269TIP3    H1 6813   6.079   0.171   4.528 -3.4272  0.6507 -0.4404
 2269TIP3    H2 6814   6.085   0.321   4.546 -1.2417  0.4650  0.7588
 2270TIP3   OH2 6815   6.092   1.643   1.927  0.1428  0.2786 -0.5536
 2270TIP3    H1 6816   6.178   1.605   1.912  0.0460 -0.0509 -0.2826
 2270TIP3    H2 6817   6.091   1.666   2.020  0.6514  2.0984 -0.9614
 2271TIP3   OH2 6818   5.970   1.023   0.212 -0.0825 -0.0708 -0.0112
 2271TIP3    H1 6819   5.907   0.951   0.211  0.7291 -0.9419  2.7524
 2271TIP3    H2 6820   6.055   0.980   0.223  0.4261  1.2295  1.6218
 2272TIP3   OH2 6821   0.850   3.770   3.162  0.1362  0.6160  0.2145
 2272TIP3    H1 6822   0.816   3.702   3.103  0.1903  0.3371  0.5031
 2272TIP3    H2 6823   0.944   3.750   3.168 -0.0761 -0.0933  1.3597
 2273TIP3   OH2 6824   3.927   1.874   1.109 -0.4457 -0.6116  0.5410
 2273TIP3    H1 6825   3.873   1.798   1.088 -1.4877 -0.0795  1.2290
 2273TIP3    H2 6826   3.865   1.946   1.121  0.5638  0.5799 -0.9403
 2274TIP3   OH2 6827   1.479   4.205   2.319 -0.7164 -0.2329  0.1037
 2274TIP3    H1 6828   1.459   4.278   2.378  0.1405  0.7048 -0.7238
 2274TIP3    H2 6829   1.415   4.137   2.342 -2.5119  1.2971 -0.0557
 2275TIP3   OH2 6830   1.103   1.349   3.359 -0.0346  0.3116 -0.0547
 2275TIP3    H1 6831   1.166   1.411   3.321  1.2142 -0.6828  0.3286
 2275TIP3    H2 6832   1.109   1.366   3.454 -0.7010  0.5373 -0.0528
 2276TIP3   OH2 6833   4.328   5.631   4.477  0.2348 -0.2152 -0.2466
 2276TIP3    H1 6834   4.419   5.633   4.504  0.2787 -0.0454 -0.4037
 2276TIP3    H2 6835   4.327   5.576   4.399  0.1515 -0.4854 -0.0547
 2277TIP3   OH2 6836   1.758   2.118   5.064  0.1334  0.0798  0.5118
 2277TIP3    H1 6837   1.759   2.032   5.106 -0.7951 -0.1566  0.0705
 2277TIP3    H2 6838   1.756   2.180   5.137 -3.0292 -0.3362  0.9231
 2278TIP3   OH2 6839   1.022   0.553   5.161 -0.2491 -0.5503 -0.7505
 2278TIP3    H1 6840   1.088   0.529   5.096 -1.2270  1.3532 -2.5829
 2278TIP3    H2 6841   1.004   0.472   5.208  2.3672 -1.4233 -1.0973
 2279TIP3   OH2 6842   0.567   4.622   2.040 -1.0912 -0.2399 -0.1456
 2279TIP3    H1 6843   0.529   4.576   2.115  0.5315 -1.8393 -0.2497
 2279TIP3    H2 6844   0.504   4.692   2.021 -2.3161 -0.7654  1.7019
 2280TIP3   OH2 6845   1.299   1.204   0.847 -0.0327 -0.0790 -0.3444
 2280TIP3    H1 6846   1.378   1.202   0.793 -0.0940 -2.2337 -0.4552
 2280TIP3    H2 6847   1.227   1.198   0.785 -0.0911 -3.2111 -0.1305
 2281TIP3   OH2 6848   2.145   4.892   0.332  0.9233  0.0805 -0.1681
 2281TIP3    H1 6849   2.056   4.863   0.312  0.5978  0.5365  0.5644
 2281TIP3    H2 6850   2.141   4.921   0.423  1.9083 -0.2058 -0.0202
 2282TIP3   OH2 6851   2.424   3.572   2.361 -0.1406  0.0214  0.1529
 2282TIP3    H1 6852   2.335   3.549   2.386  0.0577 -1.0809 -0.0696
 2282TIP3    H2 6853   2.445   3.650   2.412 -0.4024 -1.0808  2.0515
 2283TIP3   OH2 6854   3.205   4.408   3.060 -0.2484 -0.0746 -0.2992
 2283TIP3    H1 6855   3.299   4.425   3.062 -0.1196 -0.7401 -0.3803
 2283TIP3    H2 6856   3.198   4.315   3.038 -0.9692  0.3318 -1.9246
 2284TIP3   OH2 6857   1.170   0.271   2.457 -0.9732  0.2555 -0.4634
 2284TIP3    H1 6858   1.228   0.336   2.419 -0.8532  0.6558  0.3705
 2284TIP3    H2 6859   1.082   0.299   2.430 -0.8587  0.2628 -0.8310
 2285TIP3   OH2 6860   1.989   0.792   2.912 -0.3444  0.3841  0.1325
 2285TIP3    H1 6861   2.029   0.845   2.981  0.3137 -0.3523  0.3345
 2285TIP3    H2 6862   1.922   0.849   2.874 -1.0183  0.6560  1.6457
 2286TIP3   OH2 6863   5.179   5.650   2.253  0.1105 -0.7627  0.3312
 2286TIP3    H1 6864   5.180   5.602   2.336 -0.3276  0.9736  1.4028
 2286TIP3    H2 6865   5.253   5.710   2.260 -0.0720 -0.4434 -0.4524
 2287TIP3   OH2 6866   0.350   3.188   2.051  0.2319 -0.2309  0.1455
 2287TIP3    H1 6867   0.343   3.096   2.075 -0.5151 -0.2829 -0.2136
 2287TIP3    H2 6868   0.373   3.233   2.132 -2.5535 -0.3456  1.1344
 2288TIP3   OH2 6869   5.921   2.240   1.271 -0.4372 -0.0015 -0.5320
 2288TIP3    H1 6870   5.834   2.276   1.289  0.1088  0.1497  2.2509
 2288TIP3    H2 6871   5.914   2.147   1.296 -0.0815 -0.2544 -1.3474
 2289TIP3   OH2 6872   2.360   2.996   0.261  0.4618 -0.8952 -0.4171
 2289TIP3    H1 6873   2.387   3.053   0.189 -1.3521 -1.2669 -1.4533
 2289TIP3    H2 6874   2.275   2.962   0.234 -0.1979 -1.2003  1.8360
 2290TIP3   OH2 6875   5.026   0.034   0.726 -0.9593 -0.6087 -0.6523
 2290TIP3    H1 6876   4.979   0.075   0.653  0.1081  1.2694 -0.3659
 2290TIP3    H2 6877   4.972   0.053   0.803 -2.1779 -2.7451 -0.9075
 2291TIP3   OH2 6878   4.310   0.051   1.055  0.5208  0.2071  0.2436
 2291TIP3    H1 6879   4.229   0.081   1.096  0.2133 -2.0553  1.4772
 2291TIP3    H2 6880   4.379   0.104   1.093 -0.3289  2.2193 -0.8709
 2292TIP3   OH2 6881   4.166   2.858   4.318  0.2948 -0.3648  0.3266
 2292TIP3    H1 6882   4.146   2.912   4.395  0.9820 -0.7828  0.8027
 2292TIP3    H2 6883   4.261   2.847   4.319  0.3870  0.1167 -0.9261
 2293TIP3   OH2 6884   1.537   1.929   2.239  0.0189 -0.3117  0.8538
 2293TIP3    H1 6885   1.504   2.019   2.246 -0.1257 -0.2381 -0.5185
 2293TIP3    H2 6886   1.577   1.912   2.324 -0.2828  0.9202  1.2683
 2294TIP3   OH2 6887   2.193   4.273   3.717 -0.0938  0.2085 -0.9147
 2294TIP3    H1 6888   2.226   4.335   3.782  1.6401  0.3676 -1.9015
 2294TIP3    H2 6889   2.143   4.210   3.768  0.2147  1.0014  0.4239
 2295TIP3   OH2 6890   5.264   2.160   2.515  0.2528 -0.0807  0.3174
 2295TIP3    H1 6891   5.283   2.117   2.598 -0.5847 -0.8746  0.1051
 2295TIP3    H2 6892   5.204   2.231   2.538  1.7682  1.1609  0.6925
 2296TIP3   OH2 6893   3.431   5.014   2.961  0.0354  0.3689 -0.2345
 2296TIP3    H1 6894   3.343   4.994   2.992 -0.7060  0.2226 -2.2547
 2296TIP3    H2 6895   3.452   5.099   2.999 -0.8445  0.2670  0.4996
 2297TIP3   OH2 6896   2.821   2.221   2.496 -0.1540  0.2769  0.4842
 2297TIP3    H1 6897   2.851   2.177   2.417  0.5494 -0.5123  1.1739
 2297TIP3    H2 6898   2.743   2.172   2.523 -0.1125  0.2409  0.5406
 2298TIP3   OH2 6899   2.927   1.754   0.301  0.4951  0.6824 -0.4346
 2298TIP3    H1 6900   3.012   1.757   0.258  1.0311 -1.0962  0.3979
 2298TIP3    H2 6901   2.948   1.734   0.393 -0.7918  0.7566 -0.1097
 2299TIP3   OH2 6902   4.865   0.390   0.193 -0.3749 -0.0472 -0.1283
 2299TIP3    H1 6903   4.786   0.348   0.229  0.3636 -2.0742 -0.7470
 2299TIP3    H2 6904   4.934   0.369   0.256  0.3689 -1.3091 -1.3189
 2300TIP3   OH2 6905   4.234   1.375   3.995  0.5217  0.5981 -0.2709
 2300TIP3    H1 6906   4.293   1.419   4.056  0.6294  0.9554 -0.6246
 2300TIP3    H2 6907   4.152   1.423   4.002  0.1582 -0.1068  0.4665
 2301TIP3   OH2 6908   6.196   1.165   3.520 -0.2470 -0.1211 -0.3445
 2301TIP3    H1 6909   6.130   1.222   3.481 -1.2711 -0.3660  0.9950
 2301TIP3    H2 6910   6.155   1.078   3.521 -0.0152 -0.2232  0.7377
 2302TIP3   OH2 6911   4.419   5.384   0.919  0.3992  0.0337 -0.1064
 2302TIP3    H1 6912   4.457   5.412   1.002  0.3506  0.4495 -0.2252
 2302TIP3    H2 6913   4.466   5.303   0.898 -1.3512 -1.5265  1.6090
 2303TIP3   OH2 6914   5.199   4.284   0.416 -0.2075  0.0831  0.7250
 2303TIP3    H1 6915   5.141   4.356   0.440 -0.6208  0.1539 -0.4582
 2303TIP3    H2 6916   5.285   4.326   0.404 -0.5807  0.5088 -0.5966
 2304TIP3   OH2 6917   6.359   5.703   3.143  0.1670  0.7326 -0.2592
 2304TIP3    H1 6918   6.370   5.771   3.210  0.3646 -0.1129  0.5732
 2304TIP3    H2 6919   6.288   5.736   3.087  0.5476  1.8264 -0.1279
 2305TIP3   OH2 6920   0.705   2.236   4.395 -0.2927  1.1472 -0.4012
 2305TIP3    H1 6921   0.796   2.250   4.421 -0.0731  1.8437 -1.5138
 2305TIP3    H2 6922   0.676   2.163   4.451  0.4815  1.8551  0.9896
 2306TIP3   OH2 6923   4.625   5.865   2.685 -0.1667  0.4095 -0.0842
 2306TIP3    H1 6924   4.536   5.835   2.704 -1.1700  2.1149 -1.7770
 2306TIP3    H2 6925   4.631   5.951   2.726  0.6980  0.3316 -0.0250
 2307TIP3   OH2 6926   5.433   2.268   2.246 -0.7944  0.6134 -0.3400
 2307TIP3    H1 6927   5.411   2.206   2.176 -3.5103  2.6984 -1.4862
 2307TIP3    H2 6928   5.522   2.243   2.272 -0.9475 -2.3758 -2.1745
 2308TIP3   OH2 6929   2.217   0.053   4.030 -0.2461  0.4101 -0.2753
 2308TIP3    H1 6930   2.256   0.119   3.973 -0.0679 -1.1531 -2.0517
 2308TIP3    H2 6931   2.177  -0.010   3.970 -1.3584 -0.5419  1.3892
 2309TIP3   OH2 6932   2.036   3.185   3.992 -0.5232 -0.4314  0.3097
 2309TIP3    H1 6933   1.995   3.267   4.018  0.7201  0.6598 -0.9748
 2309TIP3    H2 6934   2.126   3.210   3.969 -0.2547 -2.0593 -0.5596
 2310TIP3   OH2 6935   2.753   2.701   3.871 -0.1998  0.6995  0.7757
 2310TIP3    H1 6936   2.699   2.636   3.826  2.9420 -1.0421 -0.7643
 2310TIP3    H2 6937   2.700   2.727   3.947 -1.8448 -3.3249  1.2622
 2311TIP3   OH2 6938   5.480   0.401   0.469  0.7561  0.0425  0.0539
 2311TIP3    H1 6939   5.525   0.431   0.548  0.3373 -0.6823  0.5859
 2311TIP3    H2 6940   5.403   0.457   0.462 -0.1449 -0.9867  1.1706
 2312TIP3   OH2 6941   2.115   1.412   2.832  0.2998  0.1822  0.7242
 2312TIP3    H1 6942   2.175   1.406   2.906  0.7404  0.0154  0.3554
 2312TIP3    H2 6943   2.135   1.336   2.779  0.5742  0.7575 -0.0091
 2313TIP3   OH2 6944   1.918   3.567   1.384 -0.7854  0.0320 -0.1922
 2313TIP3    H1 6945   1.895   3.656   1.410 -2.2112 -0.0785 -0.9651
 2313TIP3    H2 6946   1.851   3.512   1.425 -0.7665 -0.5313 -0.8896
 2314TIP3   OH2 6947   2.370   1.162   3.620 -0.2337  0.4640  0.1687
 2314TIP3    H1 6948   2.305   1.211   3.670  0.5774  1.4655  0.2733
 2314TIP3    H2 6949   2.358   1.071   3.647 -1.8577  0.5743 -0.1269
 2315TIP3   OH2 6950   2.174   5.181   4.344 -0.1318  0.0341 -0.0963
 2315TIP3    H1 6951   2.241   5.174   4.412  0.4397 -0.1480 -0.6664
 2315TIP3    H2 6952   2.173   5.274   4.321 -0.8486  0.2328  0.6593
 2316TIP3   OH2 6953   5.522   2.710   1.562  0.3398  0.6188 -0.4882
 2316TIP3    H1 6954   5.506   2.804   1.568 -0.4004  0.4206  1.1251
 2316TIP3    H2 6955   5.481   2.673   1.641  1.0184 -1.0022 -0.8500
 2317TIP3   OH2 6956   0.941   0.217   5.135  0.7668 -0.0619 -0.2711
 2317TIP3    H1 6957   0.915   0.190   5.047 -0.4372 -0.2720  0.1295
 2317TIP3    H2 6958   0.997   0.147   5.167 -0.2913 -0.9070 -0.1969
 2318TIP3   OH2 6959   1.225   0.978   3.769 -0.2253  0.0997  0.2536
 2318TIP3    H1 6960   1.316   1.001   3.751 -0.9957  3.2514 -0.2840
 2318TIP3    H2 6961   1.207   0.903   3.712  1.7789  0.0284 -0.3417
 2319TIP3   OH2 6962   5.904   2.923   2.367  0.2572 -0.1598  0.1271
 2319TIP3    H1 6963   5.885   2.829   2.359 -1.7626  0.0779  1.2765
 2319TIP3    H2 6964   5.992   2.927   2.404 -0.0597 -1.6631  1.1458
 2320TIP3   OH2 6965   1.002   2.876   0.120  0.3280  0.1128 -0.7473
 2320TIP3    H1 6966   0.931   2.899   0.061  0.2636  1.5468 -0.1481
 2320TIP3    H2 6967   1.003   2.946   0.186  0.8310 -1.0648  0.5597
 2321TIP3   OH2 6968   0.596   1.425   4.550  0.7369 -0.2886  0.1973
 2321TIP3    H1 6969   0.576   1.409   4.642 -1.1400 -0.4056 -0.2003
 2321TIP3    H2 6970   0.631   1.342   4.518  2.6298  0.1180  1.0759
 2322TIP3   OH2 6971   2.212   2.351   0.591 -0.7400 -0.1037 -0.1744
 2322TIP3    H1 6972   2.180   2.272   0.547 -0.6631 -1.3457  1.8891
 2322TIP3    H2 6973   2.305   2.354   0.570 -0.9107 -0.0645 -0.9556
 2323TIP3   OH2 6974   1.518   5.565   0.695 -0.3193  0.6310 -0.2321
 2323TIP3    H1 6975   1.423   5.575   0.709 -0.3323 -1.4708  1.8352
 2323TIP3    H2 6976   1.557   5.629   0.754 -0.4782 -0.0819  0.6735
 2324TIP3   OH2 6977   4.293   1.683   3.827 -0.3183 -0.1637  0.2111
 2324TIP3    H1 6978   4.263   1.613   3.769  0.5639 -1.0579  0.7862
 2324TIP3    H2 6979   4.384   1.699   3.800 -0.4676  0.6654  0.1786
 2325TIP3   OH2 6980   5.687   4.154   1.286  0.4560 -0.1311 -0.1093
 2325TIP3    H1 6981   5.741   4.228   1.259  1.0311 -0.7659 -0.7502
 2325TIP3    H2 6982   5.602   4.170   1.245  1.1028 -0.7136 -1.7725
 2326TIP3   OH2 6983   1.406   0.908   2.452  0.3762 -0.1984  0.4939
 2326TIP3    H1 6984   1.325   0.861   2.434  0.2191  0.3703 -0.3275
 2326TIP3    H2 6985   1.459   0.896   2.372  0.7837  0.0817  0.7162
 2327TIP3   OH2 6986   4.102   4.058   1.476 -0.5220 -0.2239  0.0563
 2327TIP3    H1 6987   4.048   3.999   1.423  0.6992 -0.8419 -0.5366
 2327TIP3    H2 6988   4.039   4.105   1.530 -1.7195 -0.3948 -1.1237
 2328TIP3   OH2 6989   5.885   1.241   0.080  0.1954  0.3163  0.2053
 2328TIP3    H1 6990   5.799   1.240   0.121 -1.2420 -1.8674 -2.5340
 2328TIP3    H2 6991   5.930   1.164   0.115 -0.0700 -0.1242 -0.4030
 2329TIP3   OH2 6992   3.611   3.551   0.710  0.0359  0.4925 -0.2193
 2329TIP3    H1 6993   3.704   3.570   0.717 -0.1531  1.5854 -0.5870
 2329TIP3    H2 6994   3.573   3.629   0.671 -0.7191 -0.7243 -2.0529
 2330TIP3   OH2 6995   1.029   5.759   0.211 -0.2240 -0.5531 -0.2584
 2330TIP3    H1 6996   1.076   5.819   0.153 -1.7402 -0.2435 -1.2064
 2330TIP3    H2 6997   1.024   5.807   0.294 -1.1573  0.5449 -0.9160
 2331TIP3   OH2 6998   1.312   0.903   2.135 -0.2060  0.1703  0.1145
 2331TIP3    H1 6999   1.248   0.902   2.206  0.3584  0.4844  0.6372
 2331TIP3    H2 7000   1.259   0.901   2.055 -0.8281 -0.9185  0.5382
 2332TIP3   OH2 7001   1.885   4.379   0.189 -0.0225 -0.2189 -0.1067
 2332TIP3    H1 7002   1.981   4.380   0.183  0.1258  0.5838  1.6517
 2332TIP3    H2 7003   1.855   4.391   0.100  1.5242 -0.1523 -0.6517
 2333TIP3   OH2 7004   3.337   2.407   1.210 -0.4488  0.2973 -0.1834
 2333TIP3    H1 7005   3.400   2.475   1.186 -0.1016  0.4612  1.1269
 2333TIP3    H2 7006   3.261   2.425   1.156 -0.5386  2.0317  0.4560
 2334TIP3   OH2 7007   1.731   1.919   1.361 -0.2618  0.5951  0.0915
 2334TIP3    H1 7008   1.665   1.900   1.294 -1.3494  1.0152  1.0202
 2334TIP3    H2 7009   1.776   1.835   1.374 -1.5599 -0.0732  0.4538
 2335TIP3   OH2 7010   0.875   3.520   5.081  0.0587 -0.1814 -0.1045
 2335TIP3    H1 7011   0.960   3.483   5.055  1.0627  3.1519 -2.1180
 2335TIP3    H2 7012   0.897   3.587   5.145 -1.2185 -0.1304  0.2961
 2336TIP3   OH2 7013   2.465   0.910   4.061 -0.6614  0.4761  0.4742
 2336TIP3    H1 7014   2.552   0.879   4.085 -1.1219 -1.3157 -0.0753
 2336TIP3    H2 7015   2.480   1.000   4.030  1.2830 -0.4285 -1.4676
 2337TIP3   OH2 7016   0.936   3.179   3.175  0.1836 -0.0899  0.1522
 2337TIP3    H1 7017   0.975   3.201   3.259 -0.6214  0.5502  0.3724
 2337TIP3    H2 7018   0.967   3.091   3.156  0.2591 -0.2954  1.1957
 2338TIP3   OH2 7019   0.581   4.017   3.533  0.1029  0.1280  0.3972
 2338TIP3    H1 7020   0.584   4.111   3.519  1.8074  0.0008 -0.3257
 2338TIP3    H2 7021   0.658   3.998   3.587 -0.1357 -0.8713  0.4130
 2339TIP3   OH2 7022   4.134   0.847   5.023  0.2320 -0.0166 -0.3044
 2339TIP3    H1 7023   4.161   0.936   4.998 -1.7751  0.7390  0.0043
 2339TIP3    H2 7024   4.107   0.807   4.940 -2.6445  1.1120 -0.0228
 2340TIP3   OH2 7025   3.964   3.998   3.240 -0.0887 -0.0252  0.2750
 2340TIP3    H1 7026   3.962   4.001   3.144  0.5436 -0.5720  0.2426
 2340TIP3    H2 7027   4.023   4.068   3.265 -2.3017  1.9375  0.4013
 2341TIP3   OH2 7028   0.313   1.084   1.208 -0.3921  0.2355  0.1508
 2341TIP3    H1 7029   0.352   1.158   1.254  2.3534 -0.0312 -1.5044
 2341TIP3    H2 7030   0.293   1.118   1.121 -0.0066 -0.7086 -0.3159
 2342TIP3   OH2 7031   5.432   4.539   1.221 -0.0400 -0.2442  0.3964
 2342TIP3    H1 7032   5.402   4.488   1.296  2.5915 -0.4338  1.4361
 2342TIP3    H2 7033   5.417   4.482   1.146  0.5299 -1.5452  1.2330
 2343TIP3   OH2 7034   2.367   3.599   1.950 -1.0336  0.3002  0.1318
 2343TIP3    H1 7035   2.438   3.645   1.995  0.1921 -0.5229 -0.8727
 2343TIP3    H2 7036   2.299   3.588   2.016  0.9420 -1.4744  2.0125
 2344TIP3   OH2 7037   0.393   0.358   4.218  0.3670  0.0596 -0.4360
 2344TIP3    H1 7038   0.372   0.266   4.206 -1.2409  0.1556  1.2134
 2344TIP3    H2 7039   0.459   0.360   4.287  0.4062  0.1531 -0.4749
 2345TIP3   OH2 7040   6.125   4.005   3.437 -0.3376 -0.2818 -0.1407
 2345TIP3    H1 7041   6.204   3.977   3.483 -0.6359  0.3011  0.7685
 2345TIP3    H2 7042   6.148   4.090   3.399 -0.8877  0.5079  1.2127
 2346TIP3   OH2 7043   2.732   0.760   4.866  0.4271 -0.1316  0.0398
 2346TIP3    H1 7044   2.767   0.760   4.955 -0.3839  0.4024  0.3640
 2346TIP3    H2 7045   2.767   0.840   4.827 -1.8513  1.4096  0.9619
 2347TIP3   OH2 7046   2.941   5.086   3.509  0.0038  0.3591  0.0543
 2347TIP3    H1 7047   3.007   5.034   3.463 -1.0684 -0.0431 -1.0928
 2347TIP3    H2 7048   2.969   5.085   3.600  1.0438 -0.6253 -0.2475
 2348TIP3   OH2 7049   4.504   3.082   3.416 -0.0495 -0.3415  0.1167
 2348TIP3    H1 7050   4.462   3.115   3.337 -0.0820 -2.2011 -0.6936
 2348TIP3    H2 7051   4.437   3.088   3.484 -1.2486 -2.0074 -0.8445
 2349TIP3   OH2 7052   1.311   4.553   5.032  0.0901  0.0643  0.4901
 2349TIP3    H1 7053   1.299   4.466   5.072  0.1040 -0.6234 -0.9383
 2349TIP3    H2 7054   1.383   4.540   4.970 -1.1224  0.5994 -1.0976
 2350TIP3   OH2 7055   1.376   4.676   0.702  0.5077 -0.5370 -0.0622
 2350TIP3    H1 7056   1.423   4.617   0.643  0.0021 -0.2674 -0.7452
 2350TIP3    H2 7057   1.288   4.640   0.708  0.8779 -1.2421  1.5040
 2351TIP3   OH2 7058   5.136   3.375   2.114  0.0780  0.2152 -0.5762
 2351TIP3    H1 7059   5.156   3.378   2.021  1.0802 -0.1202 -0.3915
 2351TIP3    H2 7060   5.063   3.435   2.126 -1.4032 -1.2683 -1.8907
 2352TIP3   OH2 7061   2.211   2.519   0.804 -0.2067  0.5404 -0.4013
 2352TIP3    H1 7062   2.172   2.444   0.759  0.6951  0.2964 -0.7882
 2352TIP3    H2 7063   2.265   2.562   0.738  0.6808  0.5081  0.2814
 2353TIP3   OH2 7064   1.885   3.651   1.691 -0.0042 -0.2251  0.7830
 2353TIP3    H1 7065   1.803   3.700   1.690  0.6537  0.9085  0.7996
 2353TIP3    H2 7066   1.939   3.697   1.755  1.4739  0.4534 -0.8715
 2354TIP3   OH2 7067   4.287   2.991   3.595  0.1562 -0.2520 -0.1322
 2354TIP3    H1 7068   4.295   3.003   3.689  0.6407  2.5874 -0.4536
 2354TIP3    H2 7069   4.206   2.941   3.583  1.0889 -2.3712  1.8190
 2355TIP3   OH2 7070   2.135   4.851   4.802 -0.7662  0.1306  0.5564
 2355TIP3    H1 7071   2.136   4.915   4.730  4.9587 -1.1141 -0.9979
 2355TIP3    H2 7072   2.110   4.769   4.760  2.7708 -0.6373 -0.3466
 2356TIP3   OH2 7073   3.496   2.631   1.240 -0.6393 -0.1576  0.0345
 2356TIP3    H1 7074   3.407   2.651   1.267 -0.3970 -0.2148  0.8935
 2356TIP3    H2 7075   3.551   2.657   1.314  0.1332  0.5723 -0.7668
 2357TIP3   OH2 7076   2.950   1.298   3.830 -0.9670  0.6923 -0.4343
 2357TIP3    H1 7077   2.898   1.219   3.844  0.0410 -0.0718 -0.8426
 2357TIP3    H2 7078   2.900   1.367   3.873 -1.4403 -0.3232  0.7389
 2358TIP3   OH2 7079   4.035   0.464   5.017 -0.3034  0.2709 -0.3617
 2358TIP3    H1 7080   4.018   0.371   5.003  0.9236  0.2363 -1.7700
 2358TIP3    H2 7081   3.948   0.504   5.014 -0.6931 -0.6135 -1.4405
 2359TIP3   OH2 7082   4.025   5.567   3.559 -0.2562 -0.1043  0.2826
 2359TIP3    H1 7083   3.953   5.601   3.611 -0.8162 -0.2471 -0.3805
 2359TIP3    H2 7084   4.082   5.643   3.545 -0.2031 -0.0218  0.9247
 2360TIP3   OH2 7085   4.707   5.330   2.404 -0.2359 -0.1805  0.8354
 2360TIP3    H1 7086   4.652   5.408   2.400  0.9618  0.6981  1.2303
 2360TIP3    H2 7087   4.773   5.344   2.336 -0.1774 -0.9915  0.7153
 2361TIP3   OH2 7088   1.881   3.309   1.239  0.4291  0.0668 -0.0902
 2361TIP3    H1 7089   1.877   3.363   1.318 -0.6133  1.7295 -1.2182
 2361TIP3    H2 7090   1.909   3.370   1.170 -0.3243 -0.9351 -1.3160
 2362TIP3   OH2 7091   3.116   0.471   0.902 -0.3327 -0.1788 -0.4291
 2362TIP3    H1 7092   3.208   0.456   0.881  0.1122  2.1463 -0.3639
 2362TIP3    H2 7093   3.110   0.459   0.996  0.1835  0.8397 -0.2576
 2363TIP3   OH2 7094   5.519   3.689   2.364 -0.2982  0.1388 -0.1764
 2363TIP3    H1 7095   5.467   3.613   2.338  1.6355 -2.0517  1.8433
 2363TIP3    H2 7096   5.528   3.681   2.459 -0.9978  3.6658  0.3478
 2364TIP3   OH2 7097   1.763   4.643   3.456 -0.2295  0.2590  0.7536
 2364TIP3    H1 7098   1.778   4.592   3.536 -0.1927 -0.7203  0.1347
 2364TIP3    H2 7099   1.816   4.722   3.468  0.4449 -0.2721  1.3274
 2365TIP3   OH2 7100   3.960   2.990   0.164 -0.0882 -0.3364 -0.2004
 2365TIP3    H1 7101   4.055   2.996   0.175 -0.0176 -0.5213 -0.6927
 2365TIP3    H2 7102   3.924   3.022   0.247  0.3582  2.2871 -0.9222
 2366TIP3   OH2 7103   3.918   0.860   2.304 -0.2127 -0.0041 -0.2102
 2366TIP3    H1 7104   3.867   0.784   2.333  0.4948  0.0603  1.2953
 2366TIP3    H2 7105   3.875   0.935   2.345  1.5381 -0.0310  1.8864
 2367TIP3   OH2 7106   5.438   5.828   4.734 -0.1326  0.3075  0.1318
 2367TIP3    H1 7107   5.423   5.873   4.650  0.7308  1.2152  0.4388
 2367TIP3    H2 7108   5.444   5.899   4.798  1.5108 -0.1997  0.6054
 2368TIP3   OH2 7109   4.984   3.572   1.504  0.0744  0.1139  0.1645
 2368TIP3    H1 7110   4.961   3.633   1.434  1.9668 -1.6179 -2.1524
 2368TIP3    H2 7111   5.079   3.577   1.510  0.0330 -0.5937  1.8928
 2369TIP3   OH2 7112   5.264   0.694   3.159 -0.2385 -0.1356  0.7670
 2369TIP3    H1 7113   5.260   0.761   3.227 -3.2372  1.6205 -0.9143
 2369TIP3    H2 7114   5.221   0.618   3.198  0.2294  0.0103  1.5927
 2370TIP3   OH2 7115   3.116   1.555   1.854 -0.6819  0.2791  0.1914
 2370TIP3    H1 7116   3.196   1.532   1.901  0.1869  0.0183 -1.3419
 2370TIP3    H2 7117   3.097   1.479   1.800 -1.2001  0.8691 -0.4731
 2371TIP3   OH2 7118   3.637   0.250   0.289  0.2078 -0.3123 -0.7272
 2371TIP3    H1 7119   3.701   0.182   0.309  0.5303  0.4104  0.8319
 2371TIP3    H2 7120   3.684   0.312   0.233 -0.0035 -1.1889 -1.9154
 2372TIP3   OH2 7121   1.008   5.612   1.575 -0.1386  0.0166 -0.4841
 2372TIP3    H1 7122   1.064   5.585   1.502  0.5582 -2.1959  0.7669
 2372TIP3    H2 7123   0.999   5.533   1.628 -0.4903  1.5819  1.9186
 2373TIP3   OH2 7124   4.558   3.224   4.502  0.0688  0.3038 -0.0818
 2373TIP3    H1 7125   4.550   3.318   4.518  0.4561  0.3427 -0.0889
 2373TIP3    H2 7126   4.542   3.183   4.587 -0.7105  0.3353 -0.2058
 2374TIP3   OH2 7127   0.231   0.065   3.083  0.0899  0.3492  0.1654
 2374TIP3    H1 7128   0.178   0.140   3.111 -1.5298 -0.7033  0.0232
 2374TIP3    H2 7129   0.193  -0.010   3.128  0.5338 -0.6499 -1.0679
 2375TIP3   OH2 7130   3.191   5.450   4.763  0.2020  0.5329 -0.4115
 2375TIP3    H1 7131   3.265   5.427   4.707  0.1461  2.2444 -1.2512
 2375TIP3    H2 7132   3.125   5.384   4.743  0.4448  0.6987 -1.8635
 2376TIP3   OH2 7133   3.597   2.447   4.854  0.1929  0.1240 -0.2125
 2376TIP3    H1 7134   3.560   2.524   4.896  0.1241 -1.0443  2.0241
 2376TIP3    H2 7135   3.535   2.377   4.873  1.8849 -1.1848  0.7600
 2377TIP3   OH2 7136   4.922   0.194   2.955 -0.1094  0.0552 -0.2260
 2377TIP3    H1 7137   4.951   0.187   3.046 -0.7271  1.2540  0.0892
 2377TIP3    H2 7138   5.002   0.210   2.905 -0.0805  3.7269  0.6701
 2378TIP3   OH2 7139   0.991   4.952   2.372 -0.3835  0.3268  0.3347
 2378TIP3    H1 7140   0.954   4.919   2.290  2.5150 -1.7101 -0.2867
 2378TIP3    H2 7141   0.946   4.902   2.441 -0.5729 -0.2657 -0.2083
 2379TIP3   OH2 7142   3.361   5.003   0.246 -0.1551 -0.0270 -0.0269
 2379TIP3    H1 7143   3.279   4.957   0.263 -0.9765  1.6588  0.9175
 2379TIP3    H2 7144   3.341   5.062   0.174  0.3761  0.0400 -0.1220
 2380TIP3   OH2 7145   3.943   0.380   1.722  0.6249 -0.4099  0.2415
 2380TIP3    H1 7146   3.849   0.379   1.701  0.4896 -0.2473  0.8262
 2380TIP3    H2 7147   3.947   0.410   1.812  1.2419 -0.4786  0.2401
 2381TIP3   OH2 7148   0.874   0.352   1.426  0.3945 -0.1092  0.0945
 2381TIP3    H1 7149   0.893   0.407   1.350 -1.3098 -2.2008 -2.0019
 2381TIP3    H2 7150   0.781   0.328   1.415 -0.0931 -0.0129  3.2043
 2382TIP3   OH2 7151   4.308   5.870   0.144 -0.0520 -0.6479 -0.0961
 2382TIP3    H1 7152   4.388   5.914   0.172 -0.1491  0.9641 -2.0721
 2382TIP3    H2 7153   4.334   5.819   0.068 -0.9939  0.5659 -1.2900
 2383TIP3   OH2 7154   2.950   2.307   0.231  0.2295 -0.0628 -0.4371
 2383TIP3    H1 7155   3.016   2.350   0.286 -1.1632  0.8393  0.5931
 2383TIP3    H2 7156   2.955   2.214   0.255 -0.5672  0.3503  1.5080
 2384TIP3   OH2 7157   1.534   0.899   2.699  0.8201  0.2540 -0.3591
 2384TIP3    H1 7158   1.490   0.827   2.744  0.2761  0.9314  0.2392
 2384TIP3    H2 7159   1.498   0.898   2.610  0.5371  0.0132 -0.2440
 2385TIP3   OH2 7160   3.483   1.806   4.406 -0.2892 -0.1700 -0.1046
 2385TIP3    H1 7161   3.456   1.884   4.455 -0.6098 -0.2588 -0.1409
 2385TIP3    H2 7162   3.510   1.839   4.321 -1.4057 -0.2060 -0.4895
 2386TIP3   OH2 7163   3.867   2.323   4.290  1.0704  0.4748  0.0442
 2386TIP3    H1 7164   3.921   2.381   4.344  0.9738  1.7660 -1.1810
 2386TIP3    H2 7165   3.779   2.358   4.299  0.6848 -0.6321  0.7386
 2387TIP3   OH2 7166   4.835   3.457   4.095 -0.2387 -0.4656 -0.7023
 2387TIP3    H1 7167   4.860   3.423   4.009 -0.0237 -1.1000 -0.3945
 2387TIP3    H2 7168   4.783   3.387   4.134  0.5898 -0.6305  0.1239
 2388TIP3   OH2 7169   2.524   0.137   0.921 -0.4849  0.4186  0.6339
 2388TIP3    H1 7170   2.537   0.142   1.016  0.8121  1.0625  0.4462
 2388TIP3    H2 7171   2.435   0.169   0.908 -0.1901  1.7368  1.5348
 2389TIP3   OH2 7172   1.821   2.705   3.380  0.5773  0.1007 -0.0495
 2389TIP3    H1 7173   1.802   2.764   3.307  0.7383  0.9257  0.5550
 2389TIP3    H2 7174   1.744   2.712   3.436  0.8307  0.1551  0.2921
 2390TIP3   OH2 7175   1.709   0.923   5.064 -0.1209  0.0302  0.0092
 2390TIP3    H1 7176   1.744   0.861   5.000 -0.6330 -1.4544  1.1187
 2390TIP3    H2 7177   1.757   0.903   5.145  0.0547  1.4315  0.2744
 2391TIP3   OH2 7178   3.157   1.539   3.776 -0.0674  0.4096 -0.0469
 2391TIP3    H1 7179   3.170   1.451   3.811  0.6950  0.8460  0.7758
 2391TIP3    H2 7180   3.243   1.566   3.743 -0.0864  1.1959  0.5221
 2392TIP3   OH2 7181   4.280   2.060   2.334 -0.3340 -0.0612 -0.0159
 2392TIP3    H1 7182   4.265   2.152   2.354  0.0774 -0.0917  0.4772
 2392TIP3    H2 7183   4.372   2.056   2.308 -0.8125 -0.0592 -1.7742
 2393TIP3   OH2 7184   5.004   2.253   1.171 -0.6569  0.1833  0.2929
 2393TIP3    H1 7185   5.000   2.348   1.170 -1.0141  0.1654 -0.1319
 2393TIP3    H2 7186   4.926   2.224   1.124 -0.3867 -0.3137  0.1327
 2394TIP3   OH2 7187   4.401   4.754   4.548  0.7174  0.5268  0.1149
 2394TIP3    H1 7188   4.355   4.788   4.625  1.4058  2.3654 -0.2276
 2394TIP3    H2 7189   4.492   4.781   4.560  1.0593 -0.1938 -0.7681
 2395TIP3   OH2 7190   1.006   5.504   5.004  0.2420  0.1592  0.0303
 2395TIP3    H1 7191   1.007   5.416   4.966 -0.8719  0.3732 -0.5333
 2395TIP3    H2 7192   1.097   5.533   5.000  0.7895 -1.3134  1.0768
 2396TIP3   OH2 7193   0.162   1.717   2.888  0.1539 -0.8940 -0.0187
 2396TIP3    H1 7194   0.080   1.733   2.934 -0.3757  0.1370 -1.2480
 2396TIP3    H2 7195   0.226   1.771   2.935 -0.1638 -0.6377  0.1279
 2397TIP3   OH2 7196   1.079   4.328   2.080 -0.4449 -0.5000  0.1051
 2397TIP3    H1 7197   1.023   4.265   2.126  0.0727 -1.2779 -0.2961
 2397TIP3    H2 7198   1.020   4.401   2.058 -1.8479 -2.1254 -2.0017
 2398TIP3   OH2 7199   6.214   2.011   1.090 -0.3892  0.1158  0.2118
 2398TIP3    H1 7200   6.156   2.013   1.167 -0.6117  2.0599  0.0376
 2398TIP3    H2 7201   6.161   1.969   1.022 -0.9008  0.1289  0.5950
 2399TIP3   OH2 7202   3.253   3.806   1.100 -0.2743  0.2016 -0.1380
 2399TIP3    H1 7203   3.262   3.756   1.181 -0.4002  1.0797  0.4337
 2399TIP3    H2 7204   3.195   3.753   1.045  1.3607 -1.3484 -0.4463
 2400TIP3   OH2 7205   1.767   2.162   3.266  0.4715  0.0801  0.8248
 2400TIP3    H1 7206   1.759   2.241   3.212  0.9651  0.0673  0.7233
 2400TIP3    H2 7207   1.705   2.100   3.227  1.9407 -0.4862 -0.7467
 2401TIP3   OH2 7208   2.315   1.055   2.227  0.0318 -0.6987  0.2344
 2401TIP3    H1 7209   2.334   1.007   2.307 -0.8862 -1.0134  0.2708
 2401TIP3    H2 7210   2.254   0.999   2.179 -1.6961  0.7466  0.6451
 2402TIP3   OH2 7211   1.011   3.317   1.387 -0.3420  0.3181 -0.1332
 2402TIP3    H1 7212   1.071   3.243   1.378 -1.5093 -0.4267 -3.0232
 2402TIP3    H2 7213   1.042   3.380   1.322 -0.3403  1.6991  1.1710
 2403TIP3   OH2 7214   5.218   2.060   4.678 -0.0826  0.6313  0.2403
 2403TIP3    H1 7215   5.269   1.986   4.711  1.4140  2.2509  1.7644
 2403TIP3    H2 7216   5.138   2.020   4.643  1.0439 -1.7618  0.1615
 2404TIP3   OH2 7217   6.012   3.467   3.896  0.3079  0.2018  0.0856
 2404TIP3    H1 7218   6.099   3.492   3.864  0.1121  0.8763  0.0639
 2404TIP3    H2 7219   5.976   3.412   3.827  0.1646  1.0755 -0.5548
 2405TIP3   OH2 7220   1.317   1.630   5.057  0.0971  0.1445  0.4302
 2405TIP3    H1 7221   1.253   1.645   4.988 -2.1503  2.0110  2.7536
 2405TIP3    H2 7222   1.294   1.544   5.092  2.4458 -1.7395 -2.1247
 2406TIP3   OH2 7223   1.775   4.861   3.732  0.2917 -0.1678  0.9518
 2406TIP3    H1 7224   1.737   4.869   3.644  2.0283 -0.6375  0.1013
 2406TIP3    H2 7225   1.739   4.780   3.767 -0.0152 -0.2577  0.4400
 2407TIP3   OH2 7226   0.877   1.168   1.897  0.3260 -0.1618 -0.2156
 2407TIP3    H1 7227   0.880   1.088   1.950 -0.1549  0.3360  0.5916
 2407TIP3    H2 7228   0.785   1.196   1.903  0.0545 -0.5530 -2.0320
 2408TIP3   OH2 7229   0.392   5.250   4.764  0.4073 -0.2020 -0.1850
 2408TIP3    H1 7230   0.392   5.346   4.769  3.1537 -0.1907  1.8757
 2408TIP3    H2 7231   0.334   5.223   4.836 -1.2661 -0.1647 -1.4585
 2409TIP3   OH2 7232   5.089   0.412   3.459  0.0631 -0.5731 -0.2694
 2409TIP3    H1 7233   5.114   0.340   3.517 -1.9656  0.6373  2.3391
 2409TIP3    H2 7234   5.171   0.455   3.437  1.0595 -2.0629  0.3551
 2410TIP3   OH2 7235   5.581   4.062   0.838 -0.7737 -0.0311 -0.1908
 2410TIP3    H1 7236   5.611   4.135   0.784 -0.9807  0.9018  0.9205
 2410TIP3    H2 7237   5.608   3.984   0.790 -0.1211  0.7765 -1.1705
 2411TIP3   OH2 7238   3.552   2.275   4.008 -0.1288 -0.2815 -0.3540
 2411TIP3    H1 7239   3.644   2.258   4.028 -0.2528 -0.7646 -0.1801
 2411TIP3    H2 7240   3.533   2.217   3.934 -0.4316 -0.5732 -0.0500
 2412TIP3   OH2 7241   3.137   1.060   1.210  0.0501 -1.0688  0.1849
 2412TIP3    H1 7242   3.051   1.090   1.238  0.5625 -0.9941  1.7308
 2412TIP3    H2 7243   3.145   1.093   1.120 -0.5046  1.0964  0.8802
 2413TIP3   OH2 7244   5.427   3.597   4.435  0.3145 -0.1264 -0.4958
 2413TIP3    H1 7245   5.393   3.660   4.371 -0.3486 -0.1325 -0.1547
 2413TIP3    H2 7246   5.512   3.634   4.461  0.8151 -0.3700 -1.7188
 2414TIP3   OH2 7247   0.431   1.314   2.894 -0.1473 -0.2187 -0.1747
 2414TIP3    H1 7248   0.440   1.290   2.986 -1.1360 -0.4162 -0.1223
 2414TIP3    H2 7249   0.356   1.263   2.862 -0.2088  0.3155 -0.9254
 2415TIP3   OH2 7250   1.532   0.068   2.466 -0.3983 -0.9928  1.0157
 2415TIP3    H1 7251   1.487   0.138   2.512 -0.1795 -0.8729  1.0497
 2415TIP3    H2 7252   1.621   0.101   2.453 -0.1064 -1.5101  1.6054
 2416TIP3   OH2 7253   2.240   2.621   1.424  0.2300 -0.2444  0.5646
 2416TIP3    H1 7254   2.311   2.562   1.402 -0.0984 -1.0407  1.5383
 2416TIP3    H2 7255   2.247   2.693   1.361  1.5960 -0.5381  0.3594
 2417TIP3   OH2 7256   0.574   5.492   2.159  0.5319  0.3368 -0.2136
 2417TIP3    H1 7257   0.640   5.531   2.102  2.2511 -0.3794  1.1687
 2417TIP3    H2 7258   0.546   5.563   2.216  0.0878  0.6560 -0.8308
 2418TIP3   OH2 7259   3.279   1.481   0.872 -0.1754  0.1051 -0.5385
 2418TIP3    H1 7260   3.240   1.521   0.949 -0.3205  3.5623 -2.2109
 2418TIP3    H2 7261   3.364   1.449   0.902 -1.4046 -1.3688  1.6183
 2419TIP3   OH2 7262   0.538   3.283   1.827  0.3487 -0.0825 -1.1013
 2419TIP3    H1 7263   0.470   3.262   1.892  0.8138 -0.7043 -0.8046
 2419TIP3    H2 7264   0.554   3.200   1.782 -0.3356  0.4610 -2.3828
 2420TIP3   OH2 7265   1.939   0.107   2.815  0.4314 -0.1813 -0.4512
 2420TIP3    H1 7266   1.996   0.069   2.882  1.6084 -0.7613 -1.7445
 2420TIP3    H2 7267   1.971   0.196   2.804  1.2120 -0.5539 -1.2841
 2421TIP3   OH2 7268   3.725   5.319   2.751  0.3935  0.3428  0.5435
 2421TIP3    H1 7269   3.750   5.327   2.843 -1.2298  0.7876  0.9857
 2421TIP3    H2 7270   3.672   5.240   2.747  0.6901  0.1641 -0.0805
 2422TIP3   OH2 7271   1.116   2.482   2.762 -0.5842 -0.1207 -0.2121
 2422TIP3    H1 7272   1.201   2.449   2.792  0.0212  1.5420  0.0308
 2422TIP3    H2 7273   1.052   2.424   2.803  0.4275 -2.7090 -2.0329
 2423TIP3   OH2 7274   3.262   3.241   4.587 -0.4816  0.1802  0.2825
 2423TIP3    H1 7275   3.357   3.236   4.592 -0.4534 -2.4337 -1.0168
 2423TIP3    H2 7276   3.244   3.282   4.502 -0.5306  1.1290  0.7458
 2424TIP3   OH2 7277   5.564   2.819   4.131  0.6300 -0.0567 -0.3650
 2424TIP3    H1 7278   5.472   2.822   4.104  0.6072  1.1516 -0.2335
 2424TIP3    H2 7279   5.573   2.893   4.190  1.7865  0.0785 -0.6891
 2425TIP3   OH2 7280   0.708   5.819   4.609  0.0176  0.8928  0.5444
 2425TIP3    H1 7281   0.774   5.874   4.566  1.2604 -1.3812 -0.6460
 2425TIP3    H2 7282   0.750   5.791   4.690  0.9187 -1.1766 -0.5714
 2426TIP3   OH2 7283   5.302   5.134   1.367  0.0121  0.7556 -0.4659
 2426TIP3    H1 7284   5.296   5.229   1.361  0.6625  0.9633  1.5233
 2426TIP3    H2 7285   5.395   5.117   1.385 -0.0375 -0.2836 -1.1001
 2427TIP3   OH2 7286   3.965   0.035   3.720  0.2860 -0.2801  0.4151
 2427TIP3    H1 7287   4.011   0.118   3.730 -1.7084  0.8794  0.5469
 2427TIP3    H2 7288   4.026  -0.030   3.755  3.1739  0.6138 -2.4113
 2428TIP3   OH2 7289   1.844   5.085   0.176 -0.1966  0.0084 -0.6823
 2428TIP3    H1 7290   1.915   5.124   0.125 -0.1182  1.4822  0.5011
 2428TIP3    H2 7291   1.886   5.012   0.222  0.9898  1.7270  1.1295
 2429TIP3   OH2 7292   0.566   4.068   1.910  0.4278 -0.4835  0.1449
 2429TIP3    H1 7293   0.653   4.075   1.949  0.3707  0.2812  0.1482
 2429TIP3    H2 7294   0.580   4.014   1.831  1.2353  0.9805 -0.7703
 2430TIP3   OH2 7295   3.279   3.868   3.945 -0.3798 -0.0431  0.1771
 2430TIP3    H1 7296   3.319   3.785   3.970 -0.7249 -0.4210 -0.4764
 2430TIP3    H2 7297   3.333   3.935   3.986  1.0157 -0.5303 -0.7850
 2431TIP3   OH2 7298   3.382   5.735   3.145  0.1809  0.3116 -0.4379
 2431TIP3    H1 7299   3.347   5.808   3.196 -1.5227 -0.2043 -0.8069
 2431TIP3    H2 7300   3.349   5.656   3.189  1.1728 -0.2234 -0.6152
 2432TIP3   OH2 7301   5.881   3.500   4.144 -0.0773  0.0290 -0.1194
 2432TIP3    H1 7302   5.918   3.462   4.065 -0.2652  0.4114 -0.3918
 2432TIP3    H2 7303   5.946   3.566   4.171  1.2556 -1.8223  1.4835
 2433TIP3   OH2 7304   1.432   3.556   3.344 -0.4604  0.3300 -0.8781
 2433TIP3    H1 7305   1.450   3.485   3.282 -0.7760 -0.0849 -0.4990
 2433TIP3    H2 7306   1.517   3.595   3.361  0.0941 -1.3630  0.6069
 2434TIP3   OH2 7307   1.604   3.714   0.883  0.6826 -0.4879 -0.8290
 2434TIP3    H1 7308   1.521   3.712   0.836  0.3287  0.8623 -0.3231
 2434TIP3    H2 7309   1.664   3.759   0.824  0.6274 -0.0729 -0.5711
 2435TIP3   OH2 7310   3.344   1.850   3.240 -0.3345  0.0097  0.4913
 2435TIP3    H1 7311   3.333   1.908   3.316 -1.6215  0.6782 -0.1598
 2435TIP3    H2 7312   3.314   1.765   3.271  0.9099 -0.1663  1.2593
 2436TIP3   OH2 7313   4.092   4.606   2.783  0.1512  0.0986 -0.1288
 2436TIP3    H1 7314   4.071   4.574   2.871 -0.5338  1.8290  0.3868
 2436TIP3    H2 7315   4.008   4.604   2.737  0.2129  0.5390 -0.2674
 2437TIP3   OH2 7316   3.300   5.471   2.860  0.2462  0.2740 -0.2933
 2437TIP3    H1 7317   3.380   5.503   2.902 -0.4638 -0.3101  1.5907
 2437TIP3    H2 7318   3.331   5.415   2.789  1.5707 -1.1688  1.3339
 2438TIP3   OH2 7319   5.472   0.357   3.408  0.1387  0.1255  0.4755
 2438TIP3    H1 7320   5.551   0.368   3.462  1.0461  0.4260 -0.8833
 2438TIP3    H2 7321   5.495   0.394   3.323 -1.1709 -0.5918 -0.2256
 2439TIP3   OH2 7322   5.494   5.304   3.028 -0.1684 -0.3149  0.0857
 2439TIP3    H1 7323   5.442   5.384   3.019  1.1363  0.6553  0.7362
 2439TIP3    H2 7324   5.579   5.326   2.990 -0.1865 -1.8508 -0.9330
 2440TIP3   OH2 7325   4.418   0.630   1.524  0.2244  0.3788 -0.0767
 2440TIP3    H1 7326   4.399   0.589   1.439 -0.9439 -1.9093  1.1896
 2440TIP3    H2 7327   4.492   0.580   1.558  0.7187  1.3244  0.2611
 2441TIP3   OH2 7328   5.026   2.563   5.023 -0.8189  0.2606  0.2286
 2441TIP3    H1 7329   5.019   2.576   4.928 -0.2089  0.0826  0.1510
 2441TIP3    H2 7330   4.976   2.634   5.061 -2.5972 -0.6904 -0.2348
 2442TIP3   OH2 7331   5.443   0.483   2.120 -0.2035  1.1858  0.1480
 2442TIP3    H1 7332   5.454   0.402   2.070  1.7271  0.7451  1.1820
 2442TIP3    H2 7333   5.486   0.550   2.066 -0.9333  1.3403 -0.2492
 2443TIP3   OH2 7334   3.967   3.907   0.336 -0.0391  0.0186  0.4356
 2443TIP3    H1 7335   3.980   3.896   0.242  1.6916 -0.1095  0.6708
 2443TIP3    H2 7336   3.994   3.997   0.353 -1.5117  0.4559  0.6505
 2444TIP3   OH2 7337   1.435   2.093   4.967  0.9373 -0.2195  0.1664
 2444TIP3    H1 7338   1.459   2.132   5.051 -2.0971 -0.9696  1.5079
 2444TIP3    H2 7339   1.423   2.168   4.909 -3.9993  1.2252  2.4825
 2445TIP3   OH2 7340   5.317   1.547   2.077 -0.2384  0.3763  0.4467
 2445TIP3    H1 7341   5.372   1.619   2.046  2.3996 -1.3064  0.8118
 2445TIP3    H2 7342   5.303   1.566   2.169 -0.3111  0.8696  0.3370
 2446TIP3   OH2 7343   3.007   4.779   2.834 -0.3544 -0.3880 -0.2390
 2446TIP3    H1 7344   3.046   4.758   2.919 -0.6867 -0.1917 -0.0354
 2446TIP3    H2 7345   3.081   4.782   2.773  0.0878  1.0328  0.3370
 2447TIP3   OH2 7346   4.205   3.587   5.036 -0.0520  0.5803  0.1844
 2447TIP3    H1 7347   4.220   3.545   4.951  0.3971  0.1633  0.4608
 2447TIP3    H2 7348   4.210   3.681   5.017 -0.4532  0.5012 -0.3359
 2448TIP3   OH2 7349   1.455   1.031   3.018  0.0313 -0.2479 -0.0715
 2448TIP3    H1 7350   1.451   0.951   2.967  0.1799  0.1883 -0.7849
 2448TIP3    H2 7351   1.547   1.037   3.047 -0.2050 -0.8426  0.8311
 2449TIP3   OH2 7352   0.160   4.837   3.883  0.2890 -0.1513  0.2191
 2449TIP3    H1 7353   0.162   4.903   3.953 -0.4086 -0.6469  0.7266
 2449TIP3    H2 7354   0.153   4.888   3.802 -1.0598  0.4116  0.6529
 2450TIP3   OH2 7355   5.807   4.515   2.624 -0.2437 -0.3997 -0.1757
 2450TIP3    H1 7356   5.732   4.481   2.673 -0.3909  3.1576  2.4919
 2450TIP3    H2 7357   5.773   4.528   2.535 -2.4893  0.0140  0.6672
 2451TIP3   OH2 7358   2.478   2.605   1.824 -0.4778 -0.0474 -0.3510
 2451TIP3    H1 7359   2.518   2.561   1.749 -1.6117  0.2841 -1.1685
 2451TIP3    H2 7360   2.455   2.692   1.792  1.6142  1.1889  1.1981
 2452TIP3   OH2 7361   0.835   5.383   1.395  0.0941  0.2622  1.0673
 2452TIP3    H1 7362   0.825   5.304   1.342 -1.7618  1.8035 -1.0571
 2452TIP3    H2 7363   0.929   5.400   1.395  0.2318 -0.0980 -1.3798
 2453TIP3   OH2 7364   1.023   3.018   0.646 -0.6411  0.2415  0.8004
 2453TIP3    H1 7365   1.111   3.054   0.637  1.1434 -3.9135 -0.8780
 2453TIP3    H2 7366   0.986   3.024   0.558 -0.7679 -0.7650  0.7713
 2454TIP3   OH2 7367   3.558   4.924   0.582 -0.4599 -0.6469  0.1433
 2454TIP3    H1 7368   3.576   4.931   0.676 -0.9593 -1.6511  0.3164
 2454TIP3    H2 7369   3.568   5.014   0.550  1.4366 -0.5586  0.8317
 2455TIP3   OH2 7370   0.895   4.552   2.346  0.1965 -0.3236 -0.2473
 2455TIP3    H1 7371   0.816   4.562   2.400 -0.1917  0.3348 -0.9148
 2455TIP3    H2 7372   0.873   4.596   2.263  1.0890 -0.5650 -0.6235
 2456TIP3   OH2 7373   2.549   5.920   0.621 -0.4967 -0.0106 -0.2725
 2456TIP3    H1 7374   2.479   5.984   0.605  1.0167  2.1243  1.1101
 2456TIP3    H2 7375   2.532   5.888   0.710 -1.7440 -2.3293 -1.2566
 2457TIP3   OH2 7376   5.379   0.417   3.908 -0.1042 -0.4811  0.0611
 2457TIP3    H1 7377   5.360   0.459   3.992 -0.4395  0.0702 -0.2784
 2457TIP3    H2 7378   5.299   0.430   3.857  1.4669  3.0126 -1.8559
 2458TIP3   OH2 7379   1.488   3.002   2.530 -0.4859  0.4278 -0.5987
 2458TIP3    H1 7380   1.479   2.908   2.515 -1.3160  0.3514  0.3167
 2458TIP3    H2 7381   1.544   3.032   2.458 -1.7285 -0.4419 -1.9912
 2459TIP3   OH2 7382   5.154   1.813   1.487 -0.0339  0.1809  0.2623
 2459TIP3    H1 7383   5.166   1.728   1.529 -1.4227  0.4331  1.2609
 2459TIP3    H2 7384   5.197   1.875   1.547  1.0583  0.2043 -0.5096
 2460TIP3   OH2 7385   4.931   5.679   1.196 -0.1962  0.0262  0.4183
 2460TIP3    H1 7386   4.909   5.587   1.185 -3.2484  0.7935 -0.7780
 2460TIP3    H2 7387   4.949   5.710   1.108  0.8087  0.6286  0.8123
 2461TIP3   OH2 7388   5.381   1.696   4.126 -0.2960 -0.3537 -0.2635
 2461TIP3    H1 7389   5.367   1.790   4.139 -1.1039  0.0718 -3.4564
 2461TIP3    H2 7390   5.302   1.655   4.161 -1.5679  0.5232 -1.9556
 2462TIP3   OH2 7391   6.125   0.883   3.230  0.1748  0.3938 -0.0808
 2462TIP3    H1 7392   6.123   0.788   3.224 -0.0618  0.1866  2.2428
 2462TIP3    H2 7393   6.063   0.913   3.164 -0.9004 -1.1496  0.1749
 2463TIP3   OH2 7394   2.430   2.484   3.217 -0.6197 -0.5869  0.2365
 2463TIP3    H1 7395   2.385   2.399   3.216  0.0378 -0.9902  1.6261
 2463TIP3    H2 7396   2.382   2.535   3.284 -1.1638  0.2473 -0.7578
 2464TIP3   OH2 7397   1.895   3.398   3.407  0.1978 -0.2050  0.1479
 2464TIP3    H1 7398   1.943   3.450   3.341  0.0012 -0.8045 -0.4746
 2464TIP3    H2 7399   1.814   3.373   3.364  0.3944 -1.2444  0.3464
 2465TIP3   OH2 7400   0.512   0.187   0.162  0.1481 -0.1157 -0.3233
 2465TIP3    H1 7401   0.552   0.272   0.142  0.8236 -0.4669 -0.4596
 2465TIP3    H2 7402   0.585   0.129   0.181 -0.2412 -0.9278 -1.1901
 2466TIP3   OH2 7403   1.610   1.781   4.732  0.4389 -0.3528 -0.3041
 2466TIP3    H1 7404   1.619   1.740   4.818 -1.6887 -2.1475 -0.8401
 2466TIP3    H2 7405   1.537   1.843   4.744  1.4363  0.8804 -0.3680
 2467TIP3   OH2 7406   1.566   1.299   2.930 -0.5755 -0.2983  0.1052
 2467TIP3    H1 7407   1.488   1.320   2.981 -1.6579 -1.2087 -1.1132
 2467TIP3    H2 7408   1.610   1.231   2.981 -1.3504 -0.8046  0.1192
 2468TIP3   OH2 7409   6.195   1.974   0.400 -0.3575  0.3323  0.6511
 2468TIP3    H1 7410   6.275   1.937   0.439  0.6729  1.9785  0.2022
 2468TIP3    H2 7411   6.161   1.904   0.345  1.4367 -0.0325 -0.0580
 2469TIP3   OH2 7412   3.008   1.893   2.563 -0.2773 -0.1533 -0.0457
 2469TIP3    H1 7413   3.033   1.883   2.471 -3.0758 -0.2628 -0.8713
 2469TIP3    H2 7414   3.027   1.807   2.602 -0.9637 -0.7714 -1.0324
 2470TIP3   OH2 7415   3.209   1.878   4.756 -0.6096 -0.0708 -0.1452
 2470TIP3    H1 7416   3.162   1.823   4.694 -1.5765 -1.6523  1.8803
 2470TIP3    H2 7417   3.272   1.926   4.702 -0.3398 -2.4769 -2.1640
 2471TIP3   OH2 7418   1.305   5.099   1.273 -0.3595  0.1573  0.0937
 2471TIP3    H1 7419   1.221   5.120   1.234  0.8235  1.8613 -1.7616
 2471TIP3    H2 7420   1.361   5.074   1.199  1.4021  1.3902  0.9194
 2472TIP3   OH2 7421   3.957   0.103   1.980  0.2841 -0.1499 -0.0784
 2472TIP3    H1 7422   3.869   0.090   1.944  0.4794 -1.2149 -0.2059
 2472TIP3    H2 7423   3.942   0.137   2.068 -0.2325  0.5543 -0.4274
 2473TIP3   OH2 7424   1.909   3.971   4.084  0.1496  0.1390 -0.3149
 2473TIP3    H1 7425   1.926   3.910   4.012 -0.8974 -0.1915 -0.3043
 2473TIP3    H2 7426   1.994   3.986   4.124  0.6501 -0.1439 -1.2560
 2474TIP3   OH2 7427   6.004   0.076   1.718 -0.6317  0.0967 -0.1729
 2474TIP3    H1 7428   6.037   0.090   1.807  0.0180 -1.0381 -0.2193
 2474TIP3    H2 7429   6.047   0.143   1.665 -0.0036 -0.0573  0.1401
 2475TIP3   OH2 7430   1.857   2.529   0.640  0.3497 -0.5561 -0.2153
 2475TIP3    H1 7431   1.889   2.448   0.680 -1.8128 -1.3010  0.1276
 2475TIP3    H2 7432   1.780   2.502   0.590  0.6209  1.0293 -1.5634
 2476TIP3   OH2 7433   1.996   2.888   2.196  0.0495  0.6569  0.3276
 2476TIP3    H1 7434   2.036   2.883   2.283  1.0075 -0.7129 -0.1561
 2476TIP3    H2 7435   2.008   2.979   2.170  2.5460  0.4227  0.4027
 2477TIP3   OH2 7436   1.168   3.182   4.417 -0.3624  0.5608 -0.2266
 2477TIP3    H1 7437   1.085   3.218   4.384 -0.2439  0.5661 -0.5176
 2477TIP3    H2 7438   1.142   3.104   4.466 -0.5277  0.5007 -0.4114
 2478TIP3   OH2 7439   4.939   3.726   4.070  0.4111 -0.0052 -0.2528
 2478TIP3    H1 7440   4.889   3.646   4.085 -0.4533 -0.0271 -2.8201
 2478TIP3    H2 7441   4.873   3.795   4.062  1.0930  0.8241  0.9722
 2479TIP3   OH2 7442   1.659   1.405   4.926  0.4449 -0.0526 -0.8403
 2479TIP3    H1 7443   1.684   1.364   5.009  0.0113  0.6848 -0.3321
 2479TIP3    H2 7444   1.739   1.449   4.895  0.3823  0.3948 -0.3729
 2480TIP3   OH2 7445   1.133   2.327   4.741 -0.1980 -0.1358  0.0391
 2480TIP3    H1 7446   1.200   2.335   4.674 -0.3855 -0.1406 -0.1488
 2480TIP3    H2 7447   1.159   2.390   4.808 -0.0040 -0.1414 -0.0309
 2481TIP3   OH2 7448   4.562   5.365   0.410  0.3500  0.1550 -0.1336
 2481TIP3    H1 7449   4.629   5.375   0.477 -0.6565 -1.5008  1.2050
 2481TIP3    H2 7450   4.480   5.389   0.453 -0.2744 -0.5851 -0.8544
 2482TIP3   OH2 7451   4.732   4.523   0.534 -0.0404 -0.1636  0.3324
 2482TIP3    H1 7452   4.676   4.510   0.610 -0.1904 -2.4379 -0.1039
 2482TIP3    H2 7453   4.732   4.618   0.520 -2.1795  0.0673  1.5324
 2483TIP3   OH2 7454   5.683   5.736   4.384 -0.6109  0.2914 -0.0778
 2483TIP3    H1 7455   5.729   5.778   4.456  0.0704 -0.8606  0.1718
 2483TIP3    H2 7456   5.741   5.747   4.309 -0.4054 -0.2420  0.0001
 2484TIP3   OH2 7457   4.996   1.900   4.593 -0.0301  0.4407 -0.4938
 2484TIP3    H1 7458   4.952   1.960   4.533 -0.6271  0.3917 -0.1064
 2484TIP3    H2 7459   4.978   1.935   4.680  1.1558  0.7375 -0.3430
 2485TIP3   OH2 7460   5.667   2.048   3.006 -0.0183  0.2827  0.0750
 2485TIP3    H1 7461   5.655   2.126   3.061  0.7244 -0.0801  0.7775
 2485TIP3    H2 7462   5.640   2.076   2.919  0.8110  1.5299  0.1916
 2486TIP3   OH2 7463   0.993   1.720   3.008  0.3805 -0.8562 -0.0333
 2486TIP3    H1 7464   1.062   1.750   2.949  1.3028 -0.4520  1.2164
 2486TIP3    H2 7465   0.954   1.645   2.962  0.8476 -0.3597 -1.2913
 2487TIP3   OH2 7466   3.006   0.937   4.609 -0.3324 -0.3958  0.0477
 2487TIP3    H1 7467   3.091   0.915   4.646  1.4600  0.4989 -3.1859
 2487TIP3    H2 7468   2.988   1.026   4.641  0.8025  0.0772 -0.5896
 2488TIP3   OH2 7469   4.928   3.188   3.295  0.0003 -0.1701 -0.3322
 2488TIP3    H1 7470   4.891   3.138   3.222  0.5527 -0.4633 -0.4163
 2488TIP3    H2 7471   4.878   3.161   3.371  0.2638 -0.8298 -0.3854
 2489TIP3   OH2 7472   5.243   5.482   0.347  0.0872 -0.1561 -0.3393
 2489TIP3    H1 7473   5.250   5.386   0.345  0.6225 -0.1652  0.8196
 2489TIP3    H2 7474   5.333   5.512   0.358 -0.0160  0.5160 -1.2745
 2490TIP3   OH2 7475   6.139   0.915   2.276  0.0928  0.1546  0.3388
 2490TIP3    H1 7476   6.080   0.932   2.202 -1.1081 -0.0311  1.2101
 2490TIP3    H2 7477   6.215   0.970   2.259  1.3122 -2.1233 -2.6110
 2491TIP3   OH2 7478   2.268   0.521   0.731  0.2592  0.2717 -0.7760
 2491TIP3    H1 7479   2.244   0.614   0.738  0.9116  0.3925  0.0117
 2491TIP3    H2 7480   2.184   0.475   0.734 -0.0743  0.8342 -1.2208
 2492TIP3   OH2 7481   1.153   1.563   4.858 -0.5374  0.0989 -0.2716
 2492TIP3    H1 7482   1.087   1.519   4.911 -0.9267  0.0463 -0.7877
 2492TIP3    H2 7483   1.173   1.501   4.788 -0.7310  0.5328 -0.7256
 2493TIP3   OH2 7484   4.882   0.747   1.199  0.4420 -0.2251  0.2244
 2493TIP3    H1 7485   4.883   0.843   1.206  0.4262 -0.2225  0.1910
 2493TIP3    H2 7486   4.903   0.717   1.287  1.5624 -0.1794 -0.0004
 2494TIP3   OH2 7487   5.790   1.483   1.576 -0.4110 -0.0764 -0.5148
 2494TIP3    H1 7488   5.842   1.538   1.635 -0.1415  0.0235 -0.8425
 2494TIP3    H2 7489   5.854   1.425   1.535 -0.6136 -0.2276 -0.6185
 2495TIP3   OH2 7490   5.507   0.275   2.829  0.0937 -0.0275 -0.2832
 2495TIP3    H1 7491   5.474   0.186   2.828 -1.0904  0.3785  0.1440
 2495TIP3    H2 7492   5.527   0.295   2.738  0.3325 -0.7098 -0.3818
 2496TIP3   OH2 7493   4.130   5.902   0.656 -0.6569 -0.5050  0.2506
 2496TIP3    H1 7494   4.191   5.927   0.726 -1.2932  1.5956  0.1122
 2496TIP3    H2 7495   4.183   5.901   0.577 -0.6000  0.3833  0.2721
 2497TIP3   OH2 7496   4.380   5.462   1.228  0.4755 -0.2724 -0.3140
 2497TIP3    H1 7497   4.471   5.493   1.226  0.4677 -0.2336 -0.1080
 2497TIP3    H2 7498   4.327   5.538   1.207  0.4882 -0.2824 -0.3810
 2498TIP3   OH2 7499   2.089   3.109   1.481 -0.3833  0.1244 -0.6203
 2498TIP3    H1 7500   2.155   3.159   1.433  2.2597 -0.2904  2.2264
 2498TIP3    H2 7501   2.039   3.176   1.528  0.9740  0.3731  0.5807
 2499TIP3   OH2 7502   4.984   4.005   3.837  0.1507 -0.0409 -0.2099
 2499TIP3    H1 7503   5.032   3.974   3.914  0.9070 -0.1933 -0.7330
 2499TIP3    H2 7504   4.963   4.096   3.857  1.6192  0.3703 -0.4088
 2500TIP3   OH2 7505   2.143   4.021   2.099  0.2629  0.5780 -0.0645
 2500TIP3    H1 7506   2.052   4.050   2.097  0.2250  0.5877  1.1012
 2500TIP3    H2 7507   2.144   3.951   2.165  1.3941  1.7181  1.2025
 2501TIP3   OH2 7508   5.913   4.076   2.026  0.1929  0.0348  0.0842
 2501TIP3    H1 7509   5.985   4.028   2.068  0.9490  0.2680 -0.9180
 2501TIP3    H2 7510   5.915   4.162   2.068 -0.2938 -0.3434  0.9141
 2502TIP3   OH2 7511   3.147   3.912   2.197  0.2834 -0.0871 -0.4370
 2502TIP3    H1 7512   3.211   3.928   2.128 -0.7804 -0.3807 -1.5242
 2502TIP3    H2 7513   3.176   3.967   2.270  1.5470  0.0681 -1.0246
 2503TIP3   OH2 7514   5.258   3.345   3.430 -0.0138  0.0779  0.4255
 2503TIP3    H1 7515   5.208   3.406   3.484 -1.0031  0.8611 -1.2871
 2503TIP3    H2 7516   5.231   3.258   3.461  0.0934  0.4844  1.7286
 2504TIP3   OH2 7517   2.912   2.910   2.427 -0.0145  0.0721  0.1301
 2504TIP3    H1 7518   2.949   2.864   2.351  0.8968  0.8909  0.0604
 2504TIP3    H2 7519   2.982   2.910   2.492  0.5434  2.5308 -0.3657
 2505TIP3   OH2 7520   3.738   1.276   4.030  0.3106 -0.3314 -0.1020
 2505TIP3    H1 7521   3.745   1.308   4.120  0.8642  0.1292 -0.3085
 2505TIP3    H2 7522   3.703   1.187   4.040 -1.6072  0.4251  0.4577
 2506TIP3   OH2 7523   4.813   1.365   0.716  0.3947  0.0339  0.2829
 2506TIP3    H1 7524   4.881   1.431   0.701 -0.0273  0.3220 -0.4038
 2506TIP3    H2 7525   4.770   1.355   0.631 -1.8172  1.4153  1.1497
 2507TIP3   OH2 7526   4.371   1.745   0.987 -0.1779 -0.8869 -0.2256
 2507TIP3    H1 7527   4.344   1.777   1.073 -0.4951  0.0931 -0.6704
 2507TIP3    H2 7528   4.313   1.791   0.926 -1.1661 -2.8818 -0.8812
 2508TIP3   OH2 7529   3.466   1.014   0.179  0.1811  0.6383  0.2078
 2508TIP3    H1 7530   3.401   0.988   0.113 -0.0021  1.9870 -0.1760
 2508TIP3    H2 7531   3.413   1.039   0.255  0.3990 -1.2040  1.0437
 2509TIP3   OH2 7532   1.909   4.474   0.576 -0.1750  0.2062 -0.1310
 2509TIP3    H1 7533   1.940   4.554   0.618 -1.6789  0.0691  1.3431
 2509TIP3    H2 7534   1.850   4.435   0.640 -0.8020 -1.2032 -1.5118
 2510TIP3   OH2 7535   4.364   1.949   0.416  0.3095 -0.0135 -0.2783
 2510TIP3    H1 7536   4.387   2.040   0.397  0.9757 -0.2510 -0.6332
 2510TIP3    H2 7537   4.394   1.935   0.506 -0.9387  0.4788  0.2492
 2511TIP3   OH2 7538   0.152   5.034   4.913  0.0373 -0.0885 -0.2010
 2511TIP3    H1 7539   0.209   5.070   4.981 -1.9056 -0.5876  1.8379
 2511TIP3    H2 7540   0.156   4.940   4.926  1.2497 -0.3624 -2.2341
 2512TIP3   OH2 7541   2.127   0.011   4.316 -0.0892  0.1758  0.3001
 2512TIP3    H1 7542   2.203  -0.001   4.372  0.2628 -1.0667 -0.4002
 2512TIP3    H2 7543   2.163   0.027   4.229 -0.5215 -2.7596 -0.5364
 2513TIP3   OH2 7544   0.964   4.848   1.256 -0.2900 -0.2106  0.0840
 2513TIP3    H1 7545   0.999   4.811   1.337 -0.3966  0.5289  0.4676
 2513TIP3    H2 7546   1.025   4.817   1.188 -0.8023 -1.7309  0.2784
 2514TIP3   OH2 7547   5.796   2.392   4.921  0.3337  0.4755  0.2199
 2514TIP3    H1 7548   5.862   2.332   4.886  0.3887 -0.0228  1.1381
 2514TIP3    H2 7549   5.822   2.477   4.887  0.8524  0.1305 -0.2799
 2515TIP3   OH2 7550   1.227   4.621   2.071  0.1701  0.4033  0.1047
 2515TIP3    H1 7551   1.215   4.557   2.000  0.2112  0.1396  0.3348
 2515TIP3    H2 7552   1.270   4.571   2.141 -0.9243  0.3624  0.7697
 2516TIP3   OH2 7553   2.623   4.671   5.083 -0.4773  0.5021  0.0399
 2516TIP3    H1 7554   2.566   4.689   5.007 -1.5692 -1.8542  0.2001
 2516TIP3    H2 7555   2.705   4.642   5.044 -0.7392  0.1302 -0.2470
 2517TIP3   OH2 7556   4.418   2.308   3.994  0.2459  0.0146  0.1286
 2517TIP3    H1 7557   4.428   2.235   4.055  0.0223  0.4624  0.7107
 2517TIP3    H2 7558   4.388   2.381   4.048  1.7395  0.9175 -0.1904
 2518TIP3   OH2 7559   4.408   3.394   1.779 -0.4204 -0.3441  0.2485
 2518TIP3    H1 7560   4.455   3.374   1.698  1.8486  0.2871  1.3127
 2518TIP3    H2 7561   4.388   3.487   1.774  1.9587  0.3026  1.3862
 2519TIP3   OH2 7562   2.684   3.219   1.645 -0.2362  0.0702 -0.4091
 2519TIP3    H1 7563   2.737   3.233   1.723 -2.1854  0.3449  0.9119
 2519TIP3    H2 7564   2.728   3.272   1.577 -0.9336  3.5373  1.5863
 2520TIP3   OH2 7565   3.362   0.656   1.677  0.6397 -0.8193 -0.4548
 2520TIP3    H1 7566   3.441   0.704   1.651 -0.1787  2.1178  1.9505
 2520TIP3    H2 7567   3.291   0.720   1.667 -1.1226 -2.6471 -0.3050
 2521TIP3   OH2 7568   4.474   4.972   2.925  0.3669  0.0869  0.0905
 2521TIP3    H1 7569   4.533   4.999   2.854 -0.5176 -1.7890 -1.4636
 2521TIP3    H2 7570   4.488   4.877   2.933 -3.1928 -0.7126 -1.2316
 2522TIP3   OH2 7571   1.949   1.620   1.719  0.6345 -0.0966  0.9090
 2522TIP3    H1 7572   1.985   1.707   1.701  1.8585 -0.7568  0.0351
 2522TIP3    H2 7573   1.860   1.624   1.685  0.9459  0.5742  0.1435
 2523TIP3   OH2 7574   0.827   5.059   5.016 -0.1905  0.1691  0.2533
 2523TIP3    H1 7575   0.849   4.966   5.009 -1.0814 -0.1198  1.1471
 2523TIP3    H2 7576   0.808   5.072   5.109  1.0461  1.5092  0.3602
 2524TIP3   OH2 7577   4.493   3.870   4.737 -0.2245 -0.1757  0.2332
 2524TIP3    H1 7578   4.471   3.953   4.695 -1.7734 -1.2207 -1.1325
 2524TIP3    H2 7579   4.568   3.891   4.793  0.2387  1.8611 -1.0294
 2525TIP3   OH2 7580   0.907   1.989   0.080 -0.0217 -0.5407 -0.3553
 2525TIP3    H1 7581   0.831   2.025   0.126  0.7714  1.3090 -0.3740
 2525TIP3    H2 7582   0.978   1.994   0.145 -0.4057 -5.1007  0.7531
 2526TIP3   OH2 7583   3.781   0.613   2.889  0.1461  0.1838 -0.4234
 2526TIP3    H1 7584   3.806   0.525   2.860  0.8514  0.6895 -1.4264
 2526TIP3    H2 7585   3.861   0.650   2.926 -0.5717 -0.1857  1.5955
 2527TIP3   OH2 7586   2.524   4.465   3.349 -0.1160 -0.1738 -1.2376
 2527TIP3    H1 7587   2.522   4.370   3.355 -1.3076 -0.1668 -1.3703
 2527TIP3    H2 7588   2.433   4.491   3.337  0.1448  1.0107 -0.8319
 2528TIP3   OH2 7589   1.937   1.829   4.935  0.3340  0.2672  0.1450
 2528TIP3    H1 7590   1.859   1.813   4.988  0.8788 -1.1879  0.5726
 2528TIP3    H2 7591   1.938   1.923   4.920 -1.1663  0.3870  0.6436
 2529TIP3   OH2 7592   0.044   5.559   1.568  0.5330 -0.3014 -0.1470
 2529TIP3    H1 7593  -0.010   5.513   1.503 -0.2230 -1.2550  1.1210
 2529TIP3    H2 7594   0.002   5.644   1.578  1.0106  0.0909 -1.3397
 2530TIP3   OH2 7595   1.596   5.644   4.793 -0.2905 -0.1644  0.1433
 2530TIP3    H1 7596   1.680   5.685   4.771 -0.8431  0.1499 -1.5381
 2530TIP3    H2 7597   1.614   5.550   4.786  0.0449 -0.1128  0.2584
 2531TIP3   OH2 7598   3.958   5.038   3.931  0.4100  0.0098 -0.3656
 2531TIP3    H1 7599   4.038   5.065   3.886  1.0544 -0.9854  0.1288
 2531TIP3    H2 7600   3.935   4.954   3.890 -1.0284  0.7854 -1.2594
 2532TIP3   OH2 7601   3.377   5.355   1.072  0.6241 -0.1588  0.0347
 2532TIP3    H1 7602   3.444   5.400   1.021 -0.3709  3.7053  1.7735
 2532TIP3    H2 7603   3.425   5.310   1.141  1.5706  2.8336  1.4623
 2533TIP3   OH2 7604   2.461   1.289   1.492  0.5249 -0.2728  0.1526
 2533TIP3    H1 7605   2.537   1.347   1.482  0.8902 -0.8638 -0.6753
 2533TIP3    H2 7606   2.422   1.287   1.404  0.2222 -0.8630  0.2954
 2534TIP3   OH2 7607   0.677   0.236   3.134  0.3820  0.2536 -0.6229
 2534TIP3    H1 7608   0.679   0.180   3.056  2.4111  2.3086 -2.1938
 2534TIP3    H2 7609   0.769   0.242   3.161  0.2366  2.6800 -0.4577
 2535TIP3   OH2 7610   3.908   5.296   2.263 -0.1110 -0.0063 -0.3086
 2535TIP3    H1 7611   3.879   5.251   2.343  0.1204  1.5230  0.6922
 2535TIP3    H2 7612   3.831   5.346   2.235 -0.1521 -0.4411 -0.9937
 2536TIP3   OH2 7613   2.471   3.714   4.142  0.5063 -0.7161  0.1000
 2536TIP3    H1 7614   2.523   3.775   4.090  2.0346 -0.8335  1.4153
 2536TIP3    H2 7615   2.524   3.635   4.146  0.7504 -0.4814  2.3614
 2537TIP3   OH2 7616   1.280   3.561   4.098 -0.0556 -0.6251  0.1350
 2537TIP3    H1 7617   1.199   3.537   4.054 -0.4572  0.7503  0.0566
 2537TIP3    H2 7618   1.275   3.517   4.183 -0.2844 -1.5518 -0.3445
 2538TIP3   OH2 7619   6.139   1.431   5.087  0.2644  0.1538  0.4087
 2538TIP3    H1 7620   6.165   1.342   5.066  1.9002  0.4968  0.8287
 2538TIP3    H2 7621   6.216   1.484   5.067 -0.7039  1.4984  0.0630
 2539TIP3   OH2 7622   3.033   0.816   4.120 -0.1692  0.3567 -0.0980
 2539TIP3    H1 7623   2.987   0.800   4.203  1.0777 -1.6690  0.2589
 2539TIP3    H2 7624   2.990   0.759   4.057  0.9485 -0.5412 -0.0715
 2540TIP3   OH2 7625   4.232   5.943   4.730  0.2139 -0.5322 -0.4525
 2540TIP3    H1 7626   4.172   5.878   4.693 -0.6497  0.8976 -1.6886
 2540TIP3    H2 7627   4.218   5.938   4.825  1.4488 -3.3055 -0.3366
 2541TIP3   OH2 7628   1.165   3.568   3.678 -0.1739 -0.4041 -0.0671
 2541TIP3    H1 7629   1.251   3.529   3.663 -0.6363 -1.4081 -0.1963
 2541TIP3    H2 7630   1.131   3.523   3.755 -0.8417 -0.4810 -0.3921
 2542TIP3   OH2 7631   4.233   0.021   0.424 -0.9534 -0.1341  0.1277
 2542TIP3    H1 7632   4.203  -0.065   0.394  0.3460 -0.3208 -0.7429
 2542TIP3    H2 7633   4.249   0.070   0.344 -0.6076  0.5343  0.5944
 2543TIP3   OH2 7634   0.369   2.994   0.660  0.2228  0.3978 -0.1253
 2543TIP3    H1 7635   0.346   2.936   0.588 -1.0144 -1.6978  1.8254
 2543TIP3    H2 7636   0.465   2.991   0.664  0.3297  0.7186 -1.7564
 2544TIP3   OH2 7637   4.573   1.535   5.112  0.6113  0.1262  0.0888
 2544TIP3    H1 7638   4.552   1.568   5.025 -3.0413 -1.7467  0.0352
 2544TIP3    H2 7639   4.603   1.445   5.096 -2.0150 -0.9646  0.6732
 2545TIP3   OH2 7640   3.342   3.793   2.733 -0.2676 -0.0294  0.1987
 2545TIP3    H1 7641   3.355   3.804   2.639  0.7086  1.2753  0.4550
 2545TIP3    H2 7642   3.253   3.823   2.750  0.0731  1.2376 -0.1164
 2546TIP3   OH2 7643   1.860   0.939   3.578  0.5729  0.0733 -0.0533
 2546TIP3    H1 7644   1.765   0.924   3.570  0.5972  0.2413 -0.7170
 2546TIP3    H2 7645   1.871   1.031   3.554  0.8227  0.2566  0.7442
 2547TIP3   OH2 7646   4.488   5.655   1.569  0.3669 -0.5999  0.3821
 2547TIP3    H1 7647   4.549   5.712   1.521 -1.0996 -0.4866 -1.5011
 2547TIP3    H2 7648   4.534   5.571   1.576  1.8324  0.2497  1.5695
 2548TIP3   OH2 7649   2.614   5.301   3.092 -0.3757 -0.9252  0.6979
 2548TIP3    H1 7650   2.575   5.310   3.179 -0.3241 -0.5704  0.6834
 2548TIP3    H2 7651   2.607   5.207   3.072 -1.2287 -0.8700  0.6922
 2549TIP3   OH2 7652   5.058   1.085   1.015  0.2371  0.2856 -0.1041
 2549TIP3    H1 7653   5.040   0.994   0.993  1.7744 -0.1612  0.3479
 2549TIP3    H2 7654   4.973   1.129   1.011 -0.1421 -0.5360 -3.1303
 2550TIP3   OH2 7655   0.997   4.516   4.489  0.1696  0.2267 -0.7617
 2550TIP3    H1 7656   0.998   4.607   4.460 -1.5135  0.4011 -0.3628
 2550TIP3    H2 7657   0.998   4.520   4.584  1.0150 -0.2085 -0.7453
 2551TIP3   OH2 7658   1.911   3.042   3.161  0.1975 -0.7790 -0.3131
 2551TIP3    H1 7659   1.867   2.982   3.101 -2.0845 -1.6450  2.0434
 2551TIP3    H2 7660   1.979   2.988   3.201  0.6000 -0.6837 -0.8518
 2552TIP3   OH2 7661   4.804   1.208   0.938  0.2757  0.3028 -0.4431
 2552TIP3    H1 7662   4.809   1.258   0.857 -0.2443 -0.2346 -0.8145
 2552TIP3    H2 7663   4.720   1.233   0.977 -0.4977 -1.0219 -1.1535
 2553TIP3   OH2 7664   5.755   3.928   0.697  0.3170  0.2284  0.0451
 2553TIP3    H1 7665   5.818   3.954   0.765 -0.0012  0.6282  0.1849
 2553TIP3    H2 7666   5.781   3.978   0.620 -0.3567  1.0450  0.3420
 2554TIP3   OH2 7667   2.534   0.570   0.708  0.0213 -0.2138 -0.1645
 2554TIP3    H1 7668   2.509   0.658   0.680  1.2500 -0.0924 -0.9380
 2554TIP3    H2 7669   2.456   0.536   0.752 -0.4915  1.2288  0.0901
 2555TIP3   OH2 7670   0.356   1.889   0.934  0.4167  0.2396 -0.4498
 2555TIP3    H1 7671   0.451   1.891   0.945  0.3377 -0.1293  0.3599
 2555TIP3    H2 7672   0.335   1.974   0.895  1.0086  0.5902 -0.0183
 2556TIP3   OH2 7673   0.851   1.368   4.924  0.2313 -0.6084 -0.3150
 2556TIP3    H1 7674   0.822   1.454   4.955 -0.2186  0.3379 -3.0236
 2556TIP3    H2 7675   0.933   1.352   4.969  2.1189  2.9001 -2.1206
 2557TIP3   OH2 7676   3.069   0.820   0.999 -0.5171  0.2207 -0.1994
 2557TIP3    H1 7677   2.997   0.826   1.062 -1.0945  2.0124 -0.9752
 2557TIP3    H2 7678   3.028   0.785   0.920  0.1352 -1.6802  0.2350
 2558TIP3   OH2 7679   1.410   1.538   3.638 -0.2041 -0.0600 -0.0294
 2558TIP3    H1 7680   1.416   1.526   3.733 -1.4040  0.5624  0.1523
 2558TIP3    H2 7681   1.451   1.460   3.601 -1.8059 -1.5072  1.0479
 2559TIP3   OH2 7682   2.645   2.862   4.720  0.1955  0.2268 -0.1732
 2559TIP3    H1 7683   2.563   2.911   4.710  0.1959  0.2153 -0.2298
 2559TIP3    H2 7684   2.628   2.802   4.792  0.8449  1.6913  1.2529
 2560TIP3   OH2 7685   2.403   0.272   2.434 -0.1874 -0.3906  0.7852
 2560TIP3    H1 7686   2.451   0.344   2.474 -0.5639  0.4694 -0.2723
 2560TIP3    H2 7687   2.330   0.255   2.494  0.2580 -0.3228  1.3524
 2561TIP3   OH2 7688   3.880   3.130   0.380 -0.2700 -0.0149  0.5601
 2561TIP3    H1 7689   3.888   3.216   0.338  1.9625  0.9003  2.6263
 2561TIP3    H2 7690   3.885   3.148   0.474 -0.5098 -2.3567  1.0882
 2562TIP3   OH2 7691   5.966   5.994   3.131  0.0762 -0.2109  0.0523
 2562TIP3    H1 7692   5.903   5.977   3.201  1.0202 -1.0485  0.7281
 2562TIP3    H2 7693   5.996   5.907   3.104 -0.1951  0.1001 -1.3487
 2563TIP3   OH2 7694   3.454   4.173   4.323  0.4640  0.8007  0.1872
 2563TIP3    H1 7695   3.445   4.114   4.398  1.1266  0.8933  0.3421
 2563TIP3    H2 7696   3.364   4.201   4.305 -0.0097 -0.9942 -0.5038
 2564TIP3   OH2 7697   1.190   4.597   0.228  0.5702 -0.0230  0.0346
 2564TIP3    H1 7698   1.284   4.599   0.247  0.5797 -1.3203  0.2033
 2564TIP3    H2 7699   1.156   4.676   0.269  1.6504  0.6730 -0.3811
 2565TIP3   OH2 7700   3.804   4.729   3.434 -0.3788 -0.2283  0.0466
 2565TIP3    H1 7701   3.793   4.735   3.529 -1.8691 -0.0841 -0.1243
 2565TIP3    H2 7702   3.897   4.749   3.420  0.1140 -1.2305  1.5451
 2566TIP3   OH2 7703   0.044   1.786   4.386  0.1005 -0.1864 -0.1072
 2566TIP3    H1 7704   0.067   1.802   4.477 -0.8076 -0.3361  0.1552
 2566TIP3    H2 7705   0.076   1.698   4.368  1.1220  0.1931 -0.2265
 2567TIP3   OH2 7706   4.096   0.915   0.791 -0.4416 -0.8430  0.2893
 2567TIP3    H1 7707   4.019   0.944   0.742 -0.6007 -2.9698 -0.8236
 2567TIP3    H2 7708   4.066   0.842   0.844  0.2858 -0.0849  1.8032
 2568TIP3   OH2 7709   4.459   3.389   2.114 -0.0978  0.5469 -0.1933
 2568TIP3    H1 7710   4.473   3.447   2.039 -1.4171  0.6695 -0.3681
 2568TIP3    H2 7711   4.364   3.376   2.117 -0.0902  0.6400  1.5334
 2569TIP3   OH2 7712   3.149   5.340   3.780  0.6008  0.8563 -0.3472
 2569TIP3    H1 7713   3.224   5.378   3.733  0.2761  0.6634 -1.0392
 2569TIP3    H2 7714   3.102   5.291   3.713  0.5615 -0.0961  0.3609
 2570TIP3   OH2 7715   3.258   2.722   1.355 -0.1317 -0.2862  0.2669
 2570TIP3    H1 7716   3.190   2.667   1.393  1.0652 -0.7631  1.8418
 2570TIP3    H2 7717   3.213   2.774   1.288 -2.1810 -0.0882  1.6959
 2571TIP3   OH2 7718   1.284   3.604   2.807  0.4767  0.3737 -0.6165
 2571TIP3    H1 7719   1.315   3.519   2.775 -0.7805  0.4759 -2.2144
 2571TIP3    H2 7720   1.247   3.584   2.894  0.8094 -0.5808 -0.6775
 2572TIP3   OH2 7721   3.358   5.076   3.758  0.8386  0.2279 -0.1272
 2572TIP3    H1 7722   3.303   5.099   3.833  1.4145  0.5542  0.1991
 2572TIP3    H2 7723   3.356   5.154   3.702  1.8924  0.6893  0.4450
 2573TIP3   OH2 7724   4.076   2.352   2.067  0.0474  0.2759  0.2870
 2573TIP3    H1 7725   4.101   2.332   2.157  1.4201  1.5715  0.2308
 2573TIP3    H2 7726   4.106   2.276   2.017  2.3461  0.9518  0.4990
 2574TIP3   OH2 7727   0.725   4.095   0.130 -0.0009  0.2195 -0.0817
 2574TIP3    H1 7728   0.794   4.107   0.064  0.9720  0.2609  0.9249
 2574TIP3    H2 7729   0.768   4.111   0.213 -1.0278 -0.6399  0.6400
 2575TIP3   OH2 7730   1.680   3.262   1.758 -0.7900 -0.1058 -0.3126
 2575TIP3    H1 7731   1.720   3.216   1.832  1.3953 -0.3558 -1.5780
 2575TIP3    H2 7732   1.629   3.195   1.712 -0.1570 -0.5326 -0.3989
 2576TIP3   OH2 7733   2.971   2.140   1.248 -0.5490 -0.0059 -0.2995
 2576TIP3    H1 7734   2.936   2.229   1.249  1.9688  1.0526 -0.7202
 2576TIP3    H2 7735   2.909   2.090   1.302 -0.2548  2.6737  2.8583
 2577TIP3   OH2 7736   0.346   4.214   3.397  0.4880 -0.2665  0.2969
 2577TIP3    H1 7737   0.362   4.176   3.311  0.0602 -0.8893  0.4851
 2577TIP3    H2 7738   0.269   4.271   3.384 -1.2419 -2.3640  0.7929
 2578TIP3   OH2 7739   5.903   0.407   1.622 -0.4155  0.1647  0.1990
 2578TIP3    H1 7740   5.967   0.386   1.690 -1.0315  1.3534  1.1776
 2578TIP3    H2 7741   5.851   0.328   1.612 -0.2541 -0.0485  1.0425
 2579TIP3   OH2 7742   2.848   3.120   2.620  0.5972  0.5989 -0.0691
 2579TIP3    H1 7743   2.871   3.041   2.570 -2.2690 -0.8702  0.7424
 2579TIP3    H2 7744   2.909   3.119   2.694  0.7208 -0.7777 -0.1550
 2580TIP3   OH2 7745   4.611   2.344   3.734  0.4817 -0.3555  0.0100
 2580TIP3    H1 7746   4.593   2.334   3.640 -2.8031 -1.5229  0.6543
 2580TIP3    H2 7747   4.577   2.431   3.756 -1.2853 -1.1667  0.5886
 2581TIP3   OH2 7748   0.450   0.870   0.276  0.5102 -0.2049 -0.6093
 2581TIP3    H1 7749   0.458   0.918   0.194  1.2902 -2.1350 -1.7379
 2581TIP3    H2 7750   0.360   0.838   0.277  0.8534 -1.2360 -1.3686
 2582TIP3   OH2 7751   1.537   5.872   2.597 -0.0633  0.0909 -0.2228
 2582TIP3    H1 7752   1.503   5.835   2.515  0.3051  0.1628 -0.4100
 2582TIP3    H2 7753   1.500   5.960   2.600 -1.2616 -0.4154  0.4204
 2583TIP3   OH2 7754   1.178   3.889   4.542  0.5111 -0.4505  0.0121
 2583TIP3    H1 7755   1.206   3.811   4.590 -0.8612 -0.5575  0.6971
 2583TIP3    H2 7756   1.087   3.902   4.570  0.1187  0.2963 -1.5181
 2584TIP3   OH2 7757   3.848   3.150   2.914 -0.3438  0.4683  0.0088
 2584TIP3    H1 7758   3.888   3.234   2.893  1.2214 -0.3044 -0.2325
 2584TIP3    H2 7759   3.767   3.148   2.863 -0.3963  1.8227  0.0250
 2585TIP3   OH2 7760   6.279   3.270   3.934 -0.5029 -0.5205  0.0371
 2585TIP3    H1 7761   6.303   3.362   3.946 -2.4132 -0.1082  1.2338
 2585TIP3    H2 7762   6.352   3.232   3.887 -0.5856  2.1214 -2.5295
 2586TIP3   OH2 7763   1.531   5.935   0.646  0.1182  0.8508  0.3368
 2586TIP3    H1 7764   1.477   5.898   0.576  0.6204  1.0856 -0.1823
 2586TIP3    H2 7765   1.565   5.859   0.693  0.2340  0.6767 -0.0235
 2587TIP3   OH2 7766   0.262   3.828   0.624  0.0012  0.4991  0.2627
 2587TIP3    H1 7767   0.261   3.796   0.714 -1.1652 -0.7080 -0.1478
 2587TIP3    H2 7768   0.195   3.897   0.622 -1.7088 -1.1118 -0.2030
 2588TIP3   OH2 7769   1.222   1.144   2.450  0.3960  0.0313  0.1502
 2588TIP3    H1 7770   1.286   1.082   2.484  1.2641 -0.1569 -1.6902
 2588TIP3    H2 7771   1.268   1.228   2.447 -0.3214  0.4893  1.2964
 2589TIP3   OH2 7772   3.683   3.438   1.618  0.2668 -0.4063 -0.0046
 2589TIP3    H1 7773   3.776   3.452   1.633  0.5286 -1.7656 -0.1462
 2589TIP3    H2 7774   3.679   3.349   1.582 -1.2072 -0.9399  1.3839
 2590TIP3   OH2 7775   0.894   0.721   3.804  0.4831 -0.0154  0.4879
 2590TIP3    H1 7776   0.828   0.672   3.853  0.2242 -2.7637 -2.3476
 2590TIP3    H2 7777   0.977   0.694   3.843  0.2706 -1.9976 -0.3267
 2591TIP3   OH2 7778   1.749   4.952   4.318  0.2959 -0.2572  0.2813
 2591TIP3    H1 7779   1.819   5.015   4.299 -0.2649  0.1196 -0.6378
 2591TIP3    H2 7780   1.794   4.873   4.345  1.0483  0.2606  0.5822
 2592TIP3   OH2 7781   5.441   2.908   2.806  0.3446  0.2409  0.1377
 2592TIP3    H1 7782   5.361   2.945   2.843 -0.4085 -0.6040 -0.6251
 2592TIP3    H2 7783   5.414   2.827   2.763  1.3637  0.6730 -1.4137
 2593TIP3   OH2 7784   4.964   4.202   4.832 -0.1363 -0.1478  0.1788
 2593TIP3    H1 7785   5.031   4.208   4.901  0.2114  0.7358 -0.2164
 2593TIP3    H2 7786   4.882   4.224   4.876 -0.1323 -0.9278  0.5995
 2594TIP3   OH2 7787   0.417   1.156   4.391  0.3769 -0.0172  0.2742
 2594TIP3    H1 7788   0.324   1.163   4.410  0.6945  1.7557  1.4158
 2594TIP3    H2 7789   0.443   1.245   4.366  1.7827 -0.4604  0.0794
 2595TIP3   OH2 7790   1.130   2.095   4.352  0.3008 -0.3402 -0.2170
 2595TIP3    H1 7791   1.073   2.170   4.337  2.1241  1.3683  0.9851
 2595TIP3    H2 7792   1.185   2.090   4.274  0.4857 -0.1340 -0.1005
 2596TIP3   OH2 7793   1.767   4.454   2.171  0.1412 -0.1726 -0.2823
 2596TIP3    H1 7794   1.722   4.538   2.165  0.5536  0.1481  0.8002
 2596TIP3    H2 7795   1.701   4.393   2.204  0.0588 -0.0841 -0.2829
 2597TIP3   OH2 7796   0.729   3.555   3.038 -0.4473  0.1219  0.8017
 2597TIP3    H1 7797   0.687   3.554   2.952 -0.9256  0.5406  1.0249
 2597TIP3    H2 7798   0.808   3.502   3.027 -1.1932 -0.9359  0.4544
 2598TIP3   OH2 7799   0.208   2.212   5.103  0.1003 -0.0980  0.1200
 2598TIP3    H1 7800   0.282   2.271   5.121  1.3530 -1.8316  0.9751
 2598TIP3    H2 7801   0.192   2.167   5.186 -0.0289 -1.7824 -0.7701
 2599TIP3   OH2 7802   5.025   5.653   4.558  0.4057  0.6298  0.4040
 2599TIP3    H1 7803   4.982   5.736   4.576 -1.1118 -0.2402  0.9589
 2599TIP3    H2 7804   4.982   5.591   4.617  1.1829 -0.6388 -0.3313
 2600TIP3   OH2 7805   2.014   1.798   3.449  0.6932  0.1076  0.3134
 2600TIP3    H1 7806   1.966   1.832   3.373  0.9904 -0.9542 -0.3723
 2600TIP3    H2 7807   2.092   1.757   3.411  1.0542 -0.0721  1.2352
 2601TIP3   OH2 7808   2.741   0.605   0.511 -0.7026  0.6378 -0.3609
 2601TIP3    H1 7809   2.677   0.595   0.582 -1.2780 -1.6212 -1.1345
 2601TIP3    H2 7810   2.730   0.696   0.483 -2.5833  0.7264  0.4647
 2602TIP3   OH2 7811   1.969   5.413   1.285  0.1545  0.5595  0.6106
 2602TIP3    H1 7812   1.934   5.329   1.315  1.6783  0.7570  3.2562
 2602TIP3    H2 7813   1.967   5.407   1.190 -1.2919 -1.8053  0.6967
 2603TIP3   OH2 7814   3.619   2.877   1.650  0.2929 -0.0485 -0.0419
 2603TIP3    H1 7815   3.539   2.852   1.696 -0.1312 -0.3182 -0.9107
 2603TIP3    H2 7816   3.680   2.901   1.720 -0.0950 -1.1474  0.6999
 2604TIP3   OH2 7817   4.236   2.695   0.213 -0.1497  0.5228  0.3060
 2604TIP3    H1 7818   4.150   2.696   0.256  0.2679 -1.0420  1.2467
 2604TIP3    H2 7819   4.217   2.666   0.123 -0.7801  1.7710  0.0192
 2605TIP3   OH2 7820   5.337   4.011   1.809  0.3962 -0.0138 -0.0650
 2605TIP3    H1 7821   5.382   4.034   1.728  0.1542 -1.5733 -0.6731
 2605TIP3    H2 7822   5.257   3.968   1.781  0.3396 -0.6394  0.9987
 2606TIP3   OH2 7823   4.206   5.210   1.685  0.5268  0.1050 -0.0552
 2606TIP3    H1 7824   4.229   5.268   1.612  1.1020  0.8823  0.7168
 2606TIP3    H2 7825   4.286   5.205   1.737  0.9568 -2.5713 -0.8474
 2607TIP3   OH2 7826   5.934   5.076   1.362  0.1988 -0.1177 -0.2987
 2607TIP3    H1 7827   5.993   5.050   1.432 -1.9197 -1.4420  1.1356
 2607TIP3    H2 7828   5.991   5.109   1.293  3.0485 -5.2598 -0.9099
 2608TIP3   OH2 7829   0.046   3.562   2.630  0.1993  0.0854  0.2331
 2608TIP3    H1 7830   0.110   3.615   2.582 -0.8631 -0.0050 -1.3406
 2608TIP3    H2 7831   0.075   3.472   2.615  0.1734  0.0841  0.1873
 2609TIP3   OH2 7832   1.377   5.871   3.513 -0.3335 -0.3874 -0.3457
 2609TIP3    H1 7833   1.386   5.961   3.483  2.6187 -1.0092 -1.8086
 2609TIP3    H2 7834   1.455   5.856   3.567 -2.3450 -1.2237  2.5554
 2610TIP3   OH2 7835   4.397   4.828   0.382 -0.1454 -0.0660 -0.1594
 2610TIP3    H1 7836   4.305   4.845   0.403  0.4184  1.4695  1.3455
 2610TIP3    H2 7837   4.409   4.735   0.400 -1.4189 -0.2961 -0.4340
 2611TIP3   OH2 7838   4.875   2.714   2.275 -0.1466 -0.4052  0.4311
 2611TIP3    H1 7839   4.917   2.663   2.206  0.1683 -0.8617  0.9452
 2611TIP3    H2 7840   4.888   2.662   2.354 -3.1657 -1.4682  0.3781
 2612TIP3   OH2 7841   6.004   1.988   3.752  1.0214  0.5482 -0.2514
 2612TIP3    H1 7842   6.052   1.959   3.829  1.5720 -1.0471 -1.1628
 2612TIP3    H2 7843   5.918   2.014   3.786  0.6244 -1.8110  0.6921
 2613TIP3   OH2 7844   1.107   5.176   2.208  0.1503 -0.2106 -0.1751
 2613TIP3    H1 7845   1.139   5.099   2.161  0.1763 -1.1311  1.2980
 2613TIP3    H2 7846   1.075   5.142   2.291 -2.4352  0.9990 -0.5639
 2614TIP3   OH2 7847   5.793   4.640   3.294  0.0971  0.1481  0.2690
 2614TIP3    H1 7848   5.837   4.559   3.321 -0.4234  0.0028  0.6974
 2614TIP3    H2 7849   5.764   4.680   3.376  1.8383  1.6471  0.1992
 2615TIP3   OH2 7850   2.815   4.547   4.711 -0.4484 -0.1592 -0.1872
 2615TIP3    H1 7851   2.722   4.569   4.721 -0.0492  0.8260  2.4762
 2615TIP3    H2 7852   2.842   4.593   4.632 -2.2320 -0.5139 -1.0458
 2616TIP3   OH2 7853   1.603   3.039   5.134 -0.5259 -0.2080  0.1012
 2616TIP3    H1 7854   1.574   3.072   5.219 -0.6822 -0.5621  0.1881
 2616TIP3    H2 7855   1.668   3.103   5.104 -0.3648 -0.1574  0.5534
 2617TIP3   OH2 7856   2.514   5.170   0.752  0.0444  0.1231 -0.2921
 2617TIP3    H1 7857   2.484   5.249   0.707  0.5106 -0.5603 -1.8388
 2617TIP3    H2 7858   2.609   5.176   0.751  0.1848 -1.4325 -2.3280
 2618TIP3   OH2 7859   3.820   1.735  -0.011 -0.4343  0.1779  0.1818
 2618TIP3    H1 7860   3.904   1.735  -0.056 -0.4596  0.0055  0.1337
 2618TIP3    H2 7861   3.837   1.694   0.074 -0.5856 -0.3746 -0.0509
 2619TIP3   OH2 7862   5.851   5.710   4.192 -0.6612  0.2403 -0.2913
 2619TIP3    H1 7863   5.846   5.667   4.107  0.1232  1.4552 -0.9830
 2619TIP3    H2 7864   5.883   5.642   4.251  3.5624  0.4697 -1.9534
 2620TIP3   OH2 7865   3.495   5.010   1.952 -0.1326  0.7775 -0.4803
 2620TIP3    H1 7866   3.457   5.005   1.865 -0.6040 -1.3133 -0.2156
 2620TIP3    H2 7867   3.583   5.044   1.938 -0.7617  2.0362 -1.5515
 2621TIP3   OH2 7868   4.713   4.289   0.790 -0.0138 -0.2650 -0.4215
 2621TIP3    H1 7869   4.621   4.282   0.763 -0.4448 -1.0811  1.1262
 2621TIP3    H2 7870   4.712   4.355   0.860  0.7365  0.3872 -1.0168
 2622TIP3   OH2 7871   3.086   1.809   0.947  0.4613 -0.0098 -0.2002
 2622TIP3    H1 7872   3.004   1.764   0.965  0.8014 -0.3179  0.6500
 2622TIP3    H2 7873   3.086   1.883   1.008  1.5865 -0.9990  1.0506
 2623TIP3   OH2 7874   1.671   5.402   3.453 -0.5856  0.2202 -0.0240
 2623TIP3    H1 7875   1.580   5.403   3.480 -0.6836 -1.8916 -0.1000
 2623TIP3    H2 7876   1.673   5.454   3.372 -1.5031  1.1076  0.5095
 2624TIP3   OH2 7877   2.735   2.007   3.950  0.2820  0.0970  0.0175
 2624TIP3    H1 7878   2.730   2.063   4.027 -0.6093 -0.1755  0.1749
 2624TIP3    H2 7879   2.678   2.050   3.886  1.9333  0.9654 -0.9385
 2625TIP3   OH2 7880   2.062   5.332   4.724 -0.3607  0.1152 -0.6703
 2625TIP3    H1 7881   1.997   5.378   4.671  0.0550  1.3070 -0.1845
 2625TIP3    H2 7882   2.143   5.380   4.709 -0.3108  0.7424  1.3442
 2626TIP3   OH2 7883   4.578   5.115   2.260  0.0910  0.7221 -0.6898
 2626TIP3    H1 7884   4.599   5.185   2.321 -0.2010  1.3789 -1.3320
 2626TIP3    H2 7885   4.549   5.160   2.181 -0.0343 -0.1234 -1.1335
 2627TIP3   OH2 7886   0.037   3.062   4.674 -0.1398  0.0719  0.0553
 2627TIP3    H1 7887   0.055   3.125   4.604 -0.9046 -0.2841 -0.4792
 2627TIP3    H2 7888  -0.055   3.038   4.662  0.4954 -2.3105 -0.7475
 2628TIP3   OH2 7889   2.287   4.840   1.860 -0.5852 -0.4282 -0.4476
 2628TIP3    H1 7890   2.331   4.803   1.782  2.6000 -1.0061  1.4122
 2628TIP3    H2 7891   2.338   4.918   1.881 -2.6716  0.8851 -0.0552
 2629TIP3   OH2 7892   2.214   0.297   1.385  0.4992  0.6250 -0.5936
 2629TIP3    H1 7893   2.182   0.215   1.423  0.9922  0.6116 -0.1977
 2629TIP3    H2 7894   2.192   0.364   1.451 -0.1029  0.8528 -1.0129
 2630TIP3   OH2 7895   0.411   0.482   3.953 -0.1407  0.1878 -0.0571
 2630TIP3    H1 7896   0.426   0.473   4.047 -0.7344 -0.4634 -0.0117
 2630TIP3    H2 7897   0.341   0.418   3.934  0.5965 -0.3352 -1.0950
 2631TIP3   OH2 7898   5.099   1.815   2.847 -0.4504 -0.5692 -0.0539
 2631TIP3    H1 7899   5.130   1.840   2.934 -0.2602 -0.7071 -0.0836
 2631TIP3    H2 7900   5.135   1.728   2.832  0.0314 -0.2911 -0.5324
 2632TIP3   OH2 7901   5.988   2.719   0.967 -0.0398 -0.1172 -0.1427
 2632TIP3    H1 7902   5.927   2.790   0.947 -0.8599 -0.5408  0.7634
 2632TIP3    H2 7903   6.028   2.744   1.050 -0.7522 -0.9698  0.4726
 2633TIP3   OH2 7904   5.307   4.613   0.400  0.4339  0.0749 -0.5021
 2633TIP3    H1 7905   5.396   4.646   0.413  0.6159 -0.3083 -0.7584
 2633TIP3    H2 7906   5.276   4.591   0.488  1.1225 -1.1350 -0.5463
 2634TIP3   OH2 7907   2.358   0.886   1.466 -0.2489 -0.5678  0.2914
 2634TIP3    H1 7908   2.446   0.910   1.436  0.1413 -1.2855  0.8273
 2634TIP3    H2 7909   2.373   0.830   1.542 -1.0681 -2.8271 -1.0905
 2635TIP3   OH2 7910   3.695   4.253   1.336  0.3191 -0.1583  0.9959
 2635TIP3    H1 7911   3.748   4.217   1.265  0.3343 -1.9704  1.8787
 2635TIP3    H2 7912   3.609   4.268   1.296  0.1813 -1.6215  0.6819
 2636TIP3   OH2 7913   3.387   1.143   2.607  0.4575 -0.1807 -0.4122
 2636TIP3    H1 7914   3.384   1.139   2.511 -0.6721 -0.6487 -0.3822
 2636TIP3    H2 7915   3.295   1.144   2.633  0.6687  3.0592  0.5856
 2637TIP3   OH2 7916   6.187   4.556   1.787 -0.6588  0.0819  0.3066
 2637TIP3    H1 7917   6.195   4.555   1.882  1.0924 -0.2060  0.1976
 2637TIP3    H2 7918   6.236   4.633   1.759  0.4033 -0.8266 -0.4418
 2638TIP3   OH2 7919   5.002   1.851   1.226  0.3121  0.1658  0.1622
 2638TIP3    H1 7920   5.068   1.877   1.162  0.5267  0.7507  0.6156
 2638TIP3    H2 7921   5.050   1.837   1.307  0.0555 -0.6792  0.1753
 2639TIP3   OH2 7922   5.027   2.639   1.505 -0.4875 -0.3391 -0.0935
 2639TIP3    H1 7923   4.977   2.597   1.434  0.5773 -2.0829  0.1219
 2639TIP3    H2 7924   4.971   2.711   1.534 -1.3507 -0.1138 -2.1052
 2640TIP3   OH2 7925   6.170   2.995   0.607  0.4439 -0.4301 -0.1304
 2640TIP3    H1 7926   6.094   2.940   0.622 -0.3824  0.1888 -1.7893
 2640TIP3    H2 7927   6.237   2.961   0.666  0.1070 -3.4566 -1.3321
 2641TIP3   OH2 7928   2.092   0.887   2.149  0.3146 -0.1970 -0.7522
 2641TIP3    H1 7929   2.100   0.799   2.112  0.0096  0.1226 -1.6051
 2641TIP3    H2 7930   2.043   0.936   2.084 -2.2980 -0.1969  1.0398
 2642TIP3   OH2 7931   0.218   3.469   5.116  0.6586 -0.4691  0.1398
 2642TIP3    H1 7932   0.287   3.521   5.158  0.1015  0.6729 -0.3165
 2642TIP3    H2 7933   0.262   3.422   5.045  1.2208 -0.8478  0.7307
 2643TIP3   OH2 7934   4.244   0.963   3.504 -0.3218 -0.4479  0.0715
 2643TIP3    H1 7935   4.313   0.944   3.567 -1.0383 -2.1728  0.3951
 2643TIP3    H2 7936   4.164   0.966   3.556 -0.6367  0.4232 -0.4465
 2644TIP3   OH2 7937   4.174   4.484   4.413 -0.8232  0.6443  0.0249
 2644TIP3    H1 7938   4.120   4.562   4.425 -2.6356 -0.2333 -1.7267
 2644TIP3    H2 7939   4.113   4.418   4.379  1.2332 -0.6363 -1.3825
 2645TIP3   OH2 7940   3.307   3.138   0.928  0.0719  0.3571 -0.1356
 2645TIP3    H1 7941   3.260   3.217   0.953  1.3178  1.5207 -1.3312
 2645TIP3    H2 7942   3.350   3.160   0.845  1.0867 -1.3126 -0.1072
 2646TIP3   OH2 7943   5.311   2.340   4.101  0.2668 -0.1047  0.4078
 2646TIP3    H1 7944   5.358   2.420   4.078 -0.3273  0.1936  0.1943
 2646TIP3    H2 7945   5.321   2.333   4.196  0.3594  0.1991  0.4208
 2647TIP3   OH2 7946   0.337   1.335   1.367 -0.4495 -0.6983 -0.3731
 2647TIP3    H1 7947   0.356   1.345   1.274  2.4573  0.3872  0.2235
 2647TIP3    H2 7948   0.302   1.420   1.394 -0.4911 -0.7369 -0.3033
 2648TIP3   OH2 7949   2.510   5.003   4.857  0.9097  0.0297 -0.5793
 2648TIP3    H1 7950   2.513   4.999   4.953 -0.4986  1.3372 -0.4460
 2648TIP3    H2 7951   2.457   5.080   4.838  0.9390 -0.3655 -2.4271
 2649TIP3   OH2 7952   1.563   2.719   0.293 -0.1648 -0.3095  0.4350
 2649TIP3    H1 7953   1.651   2.701   0.325 -0.3923 -1.5192  0.4152
 2649TIP3    H2 7954   1.565   2.698   0.200 -0.4783 -0.3446  0.4329
 2650TIP3   OH2 7955   4.292   1.933   1.623  0.2729  0.6380 -0.3290
 2650TIP3    H1 7956   4.265   1.842   1.612 -0.6108  0.8504  0.0507
 2650TIP3    H2 7957   4.366   1.929   1.684 -0.1302  0.2256  0.1406
 2651TIP3   OH2 7958   2.937   3.814   4.699 -0.1269 -0.7542  0.1696
 2651TIP3    H1 7959   2.953   3.908   4.703 -1.6510 -0.4391 -0.3045
 2651TIP3    H2 7960   3.001   3.781   4.636 -0.8722  0.3240 -1.2187
 2652TIP3   OH2 7961   6.056   5.756   3.038  0.5628  0.2534  0.4726
 2652TIP3    H1 7962   6.071   5.778   2.946 -2.2669  0.2187 -0.1023
 2652TIP3    H2 7963   6.090   5.667   3.048  0.1318 -0.0759 -0.7994
 2653TIP3   OH2 7964   2.290   4.627   4.300  0.1121 -0.2477 -0.1989
 2653TIP3    H1 7965   2.310   4.716   4.274  1.0588 -0.7317 -1.1608
 2653TIP3    H2 7966   2.360   4.603   4.361 -1.0929  0.2391  1.4845
 2654TIP3   OH2 7967   0.093   3.744   3.011  0.4008  0.4692 -0.1979
 2654TIP3    H1 7968   0.033   3.758   3.084  0.5967  0.6268 -0.0686
 2654TIP3    H2 7969   0.128   3.831   2.991  1.4042  0.2131  0.4228
 2655TIP3   OH2 7970   1.507   4.204   5.010  0.4905  0.1015  0.3443
 2655TIP3    H1 7971   1.483   4.277   4.955  0.2979 -1.1670 -1.3300
 2655TIP3    H2 7972   1.479   4.229   5.098 -0.7685  1.4623 -0.4108
 2656TIP3   OH2 7973   2.931   0.626   3.331  0.3522 -0.6756 -0.8555
 2656TIP3    H1 7974   2.888   0.709   3.312 -0.4421 -0.7597  0.4516
 2656TIP3    H2 7975   2.899   0.601   3.418 -1.0070 -3.3606 -2.0103
 2657TIP3   OH2 7976   0.374   2.055   4.526 -0.2630  0.0077  0.4095
 2657TIP3    H1 7977   0.417   2.011   4.452 -0.7097  1.0996 -0.5137
 2657TIP3    H2 7978   0.306   1.993   4.554  0.0122 -0.4823  0.0117
 2658TIP3   OH2 7979   6.105   1.687   5.126  0.0100  0.4053 -0.0688
 2658TIP3    H1 7980   6.194   1.665   5.099 -0.9036  0.7486 -4.1317
 2658TIP3    H2 7981   6.060   1.603   5.131  0.7074  0.0869  3.4065
 2659TIP3   OH2 7982   0.649   1.218   1.257 -0.4571 -0.4642  0.5073
 2659TIP3    H1 7983   0.599   1.225   1.176  0.8554 -0.4803 -0.3283
 2659TIP3    H2 7984   0.671   1.309   1.279 -0.0156 -0.5219  0.3205
 2660TIP3   OH2 7985   0.592   5.430   3.846  0.1585 -0.0502 -0.2363
 2660TIP3    H1 7986   0.575   5.521   3.820 -1.5967 -0.8100 -2.0129
 2660TIP3    H2 7987   0.632   5.437   3.932 -1.5318  2.3755  0.4718
 2661TIP3   OH2 7988   4.779   2.038   1.200  0.7159  0.1490  0.2303
 2661TIP3    H1 7989   4.854   1.979   1.206 -0.7148 -1.9405 -0.9551
 2661TIP3    H2 7990   4.726   2.002   1.129 -0.3903  2.7767 -0.3887
 2662TIP3   OH2 7991   5.537   5.062   1.522 -0.3375  0.2829 -0.3377
 2662TIP3    H1 7992   5.488   5.126   1.573 -0.0257  0.4002 -0.1788
 2662TIP3    H2 7993   5.612   5.112   1.487 -0.7386  0.2938 -1.2104
 2663TIP3   OH2 7994   5.873   3.771   2.782 -0.7486 -0.1235  0.5132
 2663TIP3    H1 7995   5.931   3.741   2.852 -0.8825 -0.9860  0.2645
 2663TIP3    H2 7996   5.916   3.850   2.749 -0.6770  0.2898  1.5459
 2664TIP3   OH2 7997   4.877   4.449   2.985 -0.4742 -0.3761 -0.1429
 2664TIP3    H1 7998   4.820   4.493   2.922  0.4293  0.2452 -0.5412
 2664TIP3    H2 7999   4.894   4.363   2.946 -0.8164 -0.4155 -0.2061
 2665TIP3   OH2 8000   6.143   0.260   5.078  0.4742  0.1944 -0.3326
 2665TIP3    H1 8001   6.108   0.333   5.028 -0.1844  0.6070  0.6891
 2665TIP3    H2 8002   6.068   0.202   5.091  0.9481 -0.5944 -0.9777
 2666TIP3   OH2 8003   4.938   2.062   2.148 -0.6362  0.3286 -0.0738
 2666TIP3    H1 8004   5.014   2.050   2.205 -0.5733 -4.2249 -0.6806
 2666TIP3    H2 8005   4.866   2.080   2.208  0.2175  0.5652  0.9239
 2667TIP3   OH2 8006   2.758   5.214   2.183  0.3135  0.0790 -0.4666
 2667TIP3    H1 8007   2.829   5.276   2.199 -0.3259  0.7368 -0.1183
 2667TIP3    H2 8008   2.736   5.181   2.270  0.3052 -0.2543 -0.5952
 2668TIP3   OH2 8009   4.341   0.252   4.129 -0.7451 -0.2175  0.0223
 2668TIP3    H1 8010   4.337   0.302   4.211 -0.3733  0.5815 -0.4299
 2668TIP3    H2 8011   4.434   0.234   4.117 -0.7291  0.2142 -0.5347
 2669TIP3   OH2 8012   2.044   5.037   3.627 -0.1127 -0.1013 -0.0180
 2669TIP3    H1 8013   1.979   5.077   3.570 -0.6468 -2.0429 -0.8563
 2669TIP3    H2 8014   2.020   5.065   3.715 -1.2751  0.2940 -0.4464
 2670TIP3   OH2 8015   0.286   5.720   1.746  0.3430  0.0701 -0.6925
 2670TIP3    H1 8016   0.288   5.633   1.787 -0.4653 -0.4697 -1.7337
 2670TIP3    H2 8017   0.340   5.711   1.668  0.3058  0.5162 -0.7706
 2671TIP3   OH2 8018   4.983   3.652   3.768  0.0307  0.5029 -0.4984
 2671TIP3    H1 8019   4.888   3.658   3.767 -0.0699 -0.4553  0.6795
 2671TIP3    H2 8020   5.007   3.666   3.860  0.9860  0.3046 -0.7048
 2672TIP3   OH2 8021   1.739   5.511   2.142 -0.2442 -0.9110 -0.2296
 2672TIP3    H1 8022   1.802   5.471   2.202 -1.3872 -1.8487  0.3954
 2672TIP3    H2 8023   1.670   5.446   2.134 -1.2640  0.1956 -0.6784
 2673TIP3   OH2 8024   1.061   3.931   0.040  0.1232  0.0741  0.0715
 2673TIP3    H1 8025   1.040   3.861   0.103  2.8441 -0.4866  0.4903
 2673TIP3    H2 8026   1.118   3.990   0.089 -0.5590  1.5828 -0.8818
 2674TIP3   OH2 8027   0.257   2.295   3.837 -0.1275  0.4109 -0.3984
 2674TIP3    H1 8028   0.196   2.317   3.908 -0.0361  2.4277 -0.8812
 2674TIP3    H2 8029   0.217   2.220   3.793 -0.9730  0.1195  0.8166
 2675TIP3   OH2 8030   3.588   2.945   1.343 -0.1726 -0.5418 -0.5811
 2675TIP3    H1 8031   3.545   2.876   1.393 -1.4562  0.5756 -0.0745
 2675TIP3    H2 8032   3.516   2.993   1.301  0.7175  0.1485 -1.3542
 2676TIP3   OH2 8033   5.528   2.648   2.957 -0.0798 -0.4008 -0.1498
 2676TIP3    H1 8034   5.601   2.664   3.017  1.0088  0.5533 -1.6384
 2676TIP3    H2 8035   5.569   2.605   2.881 -1.0732  0.1121 -0.9930
 2677TIP3   OH2 8036   0.636   4.058   4.700 -0.0513 -0.4286  0.3783
 2677TIP3    H1 8037   0.642   3.976   4.651  1.6287  0.1317 -0.4396
 2677TIP3    H2 8038   0.543   4.078   4.702 -0.2167 -0.0867 -3.3380
 2678TIP3   OH2 8039   3.770   0.127   4.385 -0.2244  0.1917 -0.2208
 2678TIP3    H1 8040   3.740   0.189   4.318 -0.6527  0.0385 -0.1708
 2678TIP3    H2 8041   3.691   0.103   4.433 -0.0156 -0.1790 -0.0577
 2679TIP3   OH2 8042   3.193   5.238   2.283 -0.1193  0.3415  0.1183
 2679TIP3    H1 8043   3.224   5.154   2.316 -0.4558  0.9360  2.0884
 2679TIP3    H2 8044   3.099   5.237   2.298  0.0903  1.7590  2.0426
 2680TIP3   OH2 8045   1.704   1.826   2.900 -0.3942  0.4417 -0.2343
 2680TIP3    H1 8046   1.690   1.743   2.945  0.6255 -0.2064 -1.0701
 2680TIP3    H2 8047   1.617   1.850   2.866 -0.4282 -1.0960 -1.3358
 2681TIP3   OH2 8048   2.916   1.037   2.789  0.6246 -0.1456 -0.1668
 2681TIP3    H1 8049   2.999   1.027   2.835  0.8791 -0.3400 -0.6601
 2681TIP3    H2 8050   2.854   0.985   2.841  0.6702  0.4721  0.5299
 2682TIP3   OH2 8051   3.404   5.483   0.753 -0.1152  0.4927 -0.6790
 2682TIP3    H1 8052   3.470   5.452   0.816 -0.9327 -0.0440 -0.0627
 2682TIP3    H2 8053   3.419   5.429   0.675  0.9001  1.1563 -0.9701
 2683TIP3   OH2 8054   2.822   4.023   2.860  0.2449  0.2972  0.2205
 2683TIP3    H1 8055   2.758   3.974   2.810  2.3033 -0.8019 -1.5142
 2683TIP3    H2 8056   2.838   4.102   2.809 -0.2035  0.8972  0.9889
 2684TIP3   OH2 8057   6.260   4.298   0.513  0.3699 -0.5430 -0.0286
 2684TIP3    H1 8058   6.197   4.229   0.492  0.2260  0.2806 -2.5658
 2684TIP3    H2 8059   6.283   4.336   0.429  1.6040  1.5176  1.1680
 2685TIP3   OH2 8060   4.714   2.096   0.857 -0.7587 -0.5428 -0.3547
 2685TIP3    H1 8061   4.787   2.036   0.873 -0.4629  0.3919  2.2504
 2685TIP3    H2 8062   4.637   2.048   0.890 -0.4883  0.4712  1.9663
 2686TIP3   OH2 8063   1.621   3.792   3.949  0.2852 -0.0197  0.1077
 2686TIP3    H1 8064   1.626   3.719   4.010 -2.2603 -0.4914 -0.1413
 2686TIP3    H2 8065   1.562   3.762   3.880  0.7678  1.5651 -1.0627
 2687TIP3   OH2 8066   0.056   2.738   1.786  0.2443  0.2588  0.0831
 2687TIP3    H1 8067  -0.009   2.698   1.729  0.6642 -0.0688 -0.1673
 2687TIP3    H2 8068   0.093   2.810   1.735  1.1887 -0.5333 -0.3647
 2688TIP3   OH2 8069   3.578   4.928   3.806  0.2187  0.6144  0.0038
 2688TIP3    H1 8070   3.513   4.997   3.792 -1.1570 -0.3444  1.3000
 2688TIP3    H2 8071   3.579   4.915   3.901  0.1184 -1.4115 -0.2235
 2689TIP3   OH2 8072   0.954   4.405   5.059  0.0567 -0.3803  0.0623
 2689TIP3    H1 8073   0.871   4.357   5.062 -0.9560  1.2832  0.1279
 2689TIP3    H2 8074   1.009   4.362   5.124 -0.5510 -1.8603 -0.3590
 2690TIP3   OH2 8075   4.530   5.515   2.762 -0.0884 -0.6674 -0.1785
 2690TIP3    H1 8076   4.533   5.502   2.667  0.3977 -0.2246 -0.2278
 2690TIP3    H2 8077   4.512   5.427   2.797  1.6473 -1.2253 -0.5926
 2691TIP3   OH2 8078   5.402   0.275   1.943  1.1397  0.0679  0.3807
 2691TIP3    H1 8079   5.448   0.274   1.859  0.4248  0.6310 -0.0336
 2691TIP3    H2 8080   5.344   0.199   1.939  1.0324  0.1529  0.3227
 2692TIP3   OH2 8081   6.233   4.872   1.069  0.3489  0.2833  0.1517
 2692TIP3    H1 8082   6.303   4.855   1.005 -0.1261  0.8808 -0.5429
 2692TIP3    H2 8083   6.212   4.785   1.104  0.0995 -0.1854 -1.0766
 2693TIP3   OH2 8084   5.353   2.273   4.924  0.1608  0.2186 -0.2928
 2693TIP3    H1 8085   5.421   2.326   4.881  0.8602 -0.3526  0.0909
 2693TIP3    H2 8086   5.390   2.185   4.929 -0.1504  0.1407  0.9351
 2694TIP3   OH2 8087   3.349   5.502   1.655  0.4925  0.4513  0.2308
 2694TIP3    H1 8088   3.310   5.417   1.674 -1.4435  1.1343 -0.4652
 2694TIP3    H2 8089   3.401   5.523   1.732  1.6597 -1.6832  0.1052
 2695TIP3   OH2 8090   0.334   3.959   4.474  0.1273  0.0450 -0.0460
 2695TIP3    H1 8091   0.307   3.867   4.474 -1.2853  0.4450 -0.3286
 2695TIP3    H2 8092   0.352   3.978   4.382 -1.6922  0.6187 -0.3230
 2696TIP3   OH2 8093   4.489   4.593   5.170 -0.2029  0.4192 -0.1551
 2696TIP3    H1 8094   4.554   4.610   5.102 -0.3100  0.5206 -0.2332
 2696TIP3    H2 8095   4.518   4.646   5.245 -0.8016  1.3551 -0.5583
 2697TIP3   OH2 8096   3.194   0.160   1.105 -0.0787  0.1145 -0.1932
 2697TIP3    H1 8097   3.156   0.235   1.150 -0.0029 -0.2657  0.5163
 2697TIP3    H2 8098   3.262   0.197   1.049  0.3658  0.5195  0.6004
 2698TIP3   OH2 8099   4.723   2.867   0.598  0.1028  0.1328 -0.3366
 2698TIP3    H1 8100   4.785   2.817   0.651 -0.9316 -1.1466 -0.2829
 2698TIP3    H2 8101   4.757   2.956   0.599 -0.5085  0.4740  3.5031
 2699TIP3   OH2 8102   3.125   2.856   3.311 -0.1306 -0.2076 -0.1272
 2699TIP3    H1 8103   3.181   2.781   3.290  2.6857  2.1747 -1.9245
 2699TIP3    H2 8104   3.054   2.851   3.247 -0.3185 -1.5920  0.1549
 2700TIP3   OH2 8105   1.263   3.143   2.653  0.5805  0.4938  0.0689
 2700TIP3    H1 8106   1.334   3.131   2.591 -0.1919 -1.0665 -0.5693
 2700TIP3    H2 8107   1.219   3.058   2.656 -0.9094  1.2516  0.8652
 2701TIP3   OH2 8108   2.220   0.696   5.136 -0.4535 -0.0297  0.2251
 2701TIP3    H1 8109   2.192   0.662   5.221  0.4239 -1.7620 -0.1337
 2701TIP3    H2 8110   2.301   0.744   5.154 -0.3319 -0.2937  0.3717
 2702TIP3   OH2 8111   5.194   3.194   2.542 -0.1285  0.0076  0.2711
 2702TIP3    H1 8112   5.284   3.194   2.576  0.3398  0.4796 -0.8940
 2702TIP3    H2 8113   5.205   3.194   2.447 -1.3673  0.2018  0.1154
 2703TIP3   OH2 8114   3.834   4.238   3.093 -0.6449  0.3038 -0.2640
 2703TIP3    H1 8115   3.807   4.172   3.028 -0.3318  1.6192 -1.7955
 2703TIP3    H2 8116   3.845   4.318   3.042  0.2861  1.2340  1.3348
 2704TIP3   OH2 8117   6.013   2.224   1.888  0.2037  0.2512 -0.3262
 2704TIP3    H1 8118   6.085   2.166   1.913 -0.3907 -0.0675  0.6796
 2704TIP3    H2 8119   5.935   2.183   1.924 -0.4743  0.7127 -1.2149
 2705TIP3   OH2 8120   3.485   1.641   1.711  0.1754  0.1167 -0.0105
 2705TIP3    H1 8121   3.577   1.659   1.730 -0.3232  0.4714  2.3873
 2705TIP3    H2 8122   3.479   1.545   1.708  1.0724  0.0635 -3.0645
 2706TIP3   OH2 8123   6.065   0.071   3.993  0.7373  0.7135 -0.4012
 2706TIP3    H1 8124   5.996   0.118   4.040  0.6248  1.7939 -1.5958
 2706TIP3    H2 8125   6.091   0.001   4.053  0.4798  1.9106  1.1967
 2707TIP3   OH2 8126   1.459   1.743   2.034  0.2487  0.1825 -0.0148
 2707TIP3    H1 8127   1.390   1.786   1.984 -0.9044 -0.3656  1.0380
 2707TIP3    H2 8128   1.478   1.804   2.106  0.2794 -0.0332  0.1607
 2708TIP3   OH2 8129   5.566   2.956   0.656  0.0512  0.5662 -0.3315
 2708TIP3    H1 8130   5.569   3.050   0.636 -1.0011  0.7523  0.3565
 2708TIP3    H2 8131   5.524   2.950   0.742  2.2359 -0.3888  0.7558
 2709TIP3   OH2 8132   0.217   3.414   3.625  0.3727  0.0126  0.1044
 2709TIP3    H1 8133   0.170   3.334   3.651 -1.2460  0.7139 -0.5497
 2709TIP3    H2 8134   0.309   3.393   3.642 -0.1059 -1.5629  1.0639
 2710TIP3   OH2 8135   5.710   3.345   4.851  0.4686  1.0983 -0.8508
 2710TIP3    H1 8136   5.728   3.286   4.777 -2.1822 -0.4495 -0.4026
 2710TIP3    H2 8137   5.700   3.286   4.926  1.5014  2.5059  0.4455
 2711TIP3   OH2 8138   5.662   1.100   0.497  0.8713  0.1919  0.0958
 2711TIP3    H1 8139   5.644   1.006   0.492 -1.3342  0.5651  0.2743
 2711TIP3    H2 8140   5.579   1.140   0.522  2.0002  2.1188  1.0289
 2712TIP3   OH2 8141   0.761   5.360   1.098 -0.2265  0.2059 -0.3005
 2712TIP3    H1 8142   0.792   5.444   1.130 -0.4355  1.4104 -2.9470
 2712TIP3    H2 8143   0.683   5.381   1.047 -0.8258 -1.7239 -0.2641
 2713TIP3   OH2 8144   3.369   1.764   0.882  0.3166 -0.1258  0.4584
 2713TIP3    H1 8145   3.278   1.787   0.900  0.1358  0.8471 -1.4543
 2713TIP3    H2 8146   3.364   1.686   0.826  0.7132 -0.7213  1.2315
 2714TIP3   OH2 8147   0.482   4.994   3.840 -0.2468 -0.3486  0.5152
 2714TIP3    H1 8148   0.425   5.043   3.899  0.9680  0.4423  1.0762
 2714TIP3    H2 8149   0.426   4.968   3.767 -1.4718 -0.2150  1.3861
 2715TIP3   OH2 8150   0.849   0.894   2.028  0.0026 -0.0585  0.3355
 2715TIP3    H1 8151   0.800   0.836   1.971 -2.0525  1.3270  0.6028
 2715TIP3    H2 8152   0.843   0.854   2.114 -0.7750  0.1336  0.3803
 2716TIP3   OH2 8153   6.088   2.363   1.487 -0.1402 -0.6439  0.2596
 2716TIP3    H1 8154   5.994   2.356   1.469 -0.0428 -0.4540 -0.3288
 2716TIP3    H2 8155   6.126   2.399   1.407  0.1972  0.8932  1.0755
 2717TIP3   OH2 8156   2.738   3.533   0.046 -0.2396 -0.0807  0.1111
 2717TIP3    H1 8157   2.752   3.535  -0.048 -2.4036  3.0898 -0.2854
 2717TIP3    H2 8158   2.675   3.603   0.063 -0.1939 -0.7337  3.8968
 2718TIP3   OH2 8159   5.815   1.630   2.593  0.7427  0.3794  0.3496
 2718TIP3    H1 8160   5.800   1.686   2.669 -0.9478  0.5169 -0.0458
 2718TIP3    H2 8161   5.754   1.557   2.606 -0.4779  1.0235 -1.4595
 2719TIP3   OH2 8162   5.351   0.366   2.442 -0.1242  0.2705 -0.1414
 2719TIP3    H1 8163   5.438   0.339   2.472 -0.3764  1.1438  1.4959
 2719TIP3    H2 8164   5.303   0.284   2.431  0.9979 -0.2498 -1.4663
 2720TIP3   OH2 8165   3.087   1.214   2.303  0.3952 -0.0377 -0.0463
 2720TIP3    H1 8166   3.135   1.131   2.308  0.8771  0.2754  0.5937
 2720TIP3    H2 8167   3.152   1.277   2.272 -0.1363 -0.0153 -1.1989
 2721TIP3   OH2 8168   0.636   3.540   0.909 -0.3153  0.4518 -0.0332
 2721TIP3    H1 8169   0.654   3.606   0.842 -0.1098  2.1053  1.5644
 2721TIP3    H2 8170   0.615   3.591   0.988  1.6007 -1.3388  1.7745
 2722TIP3   OH2 8171   2.934   2.725   0.925  0.4217 -0.0007  0.3441
 2722TIP3    H1 8172   2.847   2.738   0.887  0.5310  1.1929  0.4666
 2722TIP3    H2 8173   2.943   2.796   0.987  1.8163  0.3586 -0.2459
 2723TIP3   OH2 8174   1.511   3.112   0.861  0.0175  0.0382 -0.1877
 2723TIP3    H1 8175   1.502   3.044   0.928  1.8210  0.5086  0.6005
 2723TIP3    H2 8176   1.461   3.186   0.897 -2.5351 -1.0241 -1.3756
 2724TIP3   OH2 8177   1.799   0.988   2.770 -0.2198  0.7314  0.1121
 2724TIP3    H1 8178   1.800   1.015   2.678  0.5382  1.2772  0.2713
 2724TIP3    H2 8179   1.725   0.928   2.776  1.1721 -1.2580 -1.4041
 2725TIP3   OH2 8180   4.802   2.385   5.066 -0.1966 -0.2705 -0.4070
 2725TIP3    H1 8181   4.794   2.349   5.154 -1.1449 -1.9855 -1.1369
 2725TIP3    H2 8182   4.808   2.479   5.079  0.8327 -0.5574  1.5347
 2726TIP3   OH2 8183   0.154   3.192   0.528  0.1777  0.6880  0.1171
 2726TIP3    H1 8184   0.205   3.237   0.595  0.2277 -0.7952  1.1150
 2726TIP3    H2 8185   0.200   3.109   0.514 -0.1945  0.6841 -1.2929
 2727TIP3   OH2 8186   4.911   1.516   4.644 -0.0541  0.1088 -0.7314
 2727TIP3    H1 8187   4.843   1.497   4.708 -1.1771  1.6300 -1.4237
 2727TIP3    H2 8188   4.882   1.595   4.600  2.0766  0.7122 -1.1926
 2728TIP3   OH2 8189   1.649   0.013   0.832  0.1851 -0.5070  0.1922
 2728TIP3    H1 8190   1.706   0.071   0.781 -0.7998  0.1942 -0.1344
 2728TIP3    H2 8191   1.620  -0.054   0.771 -1.1076  0.4131 -0.2426
 2729TIP3   OH2 8192   0.748   4.525   1.534 -0.0267  0.3522 -0.1408
 2729TIP3    H1 8193   0.713   4.613   1.551  0.4374  0.5204 -0.0328
 2729TIP3    H2 8194   0.838   4.541   1.506 -0.2475 -0.0245 -1.1137
 2730TIP3   OH2 8195   5.180   5.452   4.073 -0.0951 -0.6879 -0.4414
 2730TIP3    H1 8196   5.199   5.446   4.167  1.9262  1.1009 -0.6560
 2730TIP3    H2 8197   5.100   5.400   4.061 -2.0161  1.1928  2.7237
 2731TIP3   OH2 8198   5.002   2.694   2.902 -0.0314 -0.4143  0.0443
 2731TIP3    H1 8199   5.038   2.610   2.875  0.9485  0.1548 -0.4785
 2731TIP3    H2 8200   5.074   2.739   2.945  0.4611  1.4207 -2.5044
 2732TIP3   OH2 8201   3.700   0.230   0.669 -0.3086  0.5873  0.4757
 2732TIP3    H1 8202   3.746   0.240   0.753 -3.9903 -0.7276  2.8961
 2732TIP3    H2 8203   3.659   0.144   0.675 -1.4003  0.8116 -2.3622
 2733TIP3   OH2 8204   4.685   0.103   3.457  0.0915 -0.0016 -0.1395
 2733TIP3    H1 8205   4.760   0.125   3.512  3.1575  1.2248 -4.2976
 2733TIP3    H2 8206   4.627   0.178   3.463  1.1904  0.8489  0.1560
 2734TIP3   OH2 8207   2.063   3.948   1.028  0.0056 -0.4509 -0.2937
 2734TIP3    H1 8208   2.127   3.960   1.097 -1.3596 -0.2971  0.9983
 2734TIP3    H2 8209   2.068   3.854   1.007 -0.1318 -0.6641  0.5948
 2735TIP3   OH2 8210   1.511   2.725   4.134 -0.1085  0.4738  0.1328
 2735TIP3    H1 8211   1.474   2.685   4.055  1.1368 -0.2022 -0.1466
 2735TIP3    H2 8212   1.536   2.651   4.189  0.8558  0.8805  0.2640
 2736TIP3   OH2 8213   2.490   3.061   4.193 -0.1922  0.0477 -0.2994
 2736TIP3    H1 8214   2.413   3.105   4.227 -0.4538 -0.3064 -0.4279
 2736TIP3    H2 8215   2.555   3.069   4.263 -0.2109  0.6916 -0.3480
 2737TIP3   OH2 8216   3.859   5.635   3.176 -0.0463 -0.3003  0.1746
 2737TIP3    H1 8217   3.821   5.715   3.140  3.1766  2.3863  2.1891
 2737TIP3    H2 8218   3.826   5.630   3.266  1.2124 -0.1354  0.6634
 2738TIP3   OH2 8219   3.210   0.863   3.191  0.8046  0.4711  0.0145
 2738TIP3    H1 8220   3.164   0.817   3.120 -0.3177  1.0943  0.3158
 2738TIP3    H2 8221   3.292   0.891   3.151  0.1448  0.9128 -1.1010
 2739TIP3   OH2 8222   4.219   4.223   4.866 -0.6708 -0.8148  0.2719
 2739TIP3    H1 8223   4.267   4.198   4.945  0.2919 -0.7395 -0.2743
 2739TIP3    H2 8224   4.285   4.226   4.797 -1.3098  0.1293 -0.3293
 2740TIP3   OH2 8225   1.084   0.973   4.045 -0.8985  0.2267 -0.1936
 2740TIP3    H1 8226   0.990   0.965   4.064 -0.1747  0.6175  5.0772
 2740TIP3    H2 8227   1.104   1.065   4.062  0.4377  0.1864 -1.4062
 2741TIP3   OH2 8228   4.135   4.629   0.481 -0.0103 -0.2560 -0.5664
 2741TIP3    H1 8229   4.060   4.589   0.526 -1.2283  0.1273 -2.1426
 2741TIP3    H2 8230   4.118   4.723   0.485  0.2855 -0.1768 -1.0938
 2742TIP3   OH2 8231   5.326   1.450   4.757  0.3129  0.0188 -0.5764
 2742TIP3    H1 8232   5.317   1.390   4.831 -0.2226  1.4822  0.6081
 2742TIP3    H2 8233   5.245   1.438   4.707 -0.5085  0.7951  0.5011
 2743TIP3   OH2 8234   1.763   4.752   1.964  0.0224  0.0427 -0.2777
 2743TIP3    H1 8235   1.843   4.804   1.958 -0.5201  0.7724 -1.5926
 2743TIP3    H2 8236   1.781   4.689   2.033  1.2735  0.9822  0.3028
 2744TIP3   OH2 8237   3.632   0.928   3.939 -0.0672 -0.0121 -0.3421
 2744TIP3    H1 8238   3.626   0.970   4.025 -0.1706 -0.2924 -0.2133
 2744TIP3    H2 8239   3.675   0.845   3.956 -0.7990 -0.4170 -0.4443
 2745TIP3   OH2 8240   1.129   0.908   1.936  0.1870  0.6492 -0.4398
 2745TIP3    H1 8241   1.046   0.865   1.913  0.4894 -0.8740  1.0395
 2745TIP3    H2 8242   1.105   0.999   1.951 -1.4836  0.0517  0.9757
 2746TIP3   OH2 8243   4.346   3.455   2.597 -0.1263 -0.1882  0.3832
 2746TIP3    H1 8244   4.425   3.479   2.549 -0.3987  1.4045  0.6997
 2746TIP3    H2 8245   4.366   3.476   2.688 -0.6540 -0.4973  0.5729
 2747TIP3   OH2 8246   4.411   4.533   4.847 -0.0596  0.4771  0.7207
 2747TIP3    H1 8247   4.328   4.528   4.799  0.4489  0.1788 -0.1522
 2747TIP3    H2 8248   4.386   4.564   4.934 -1.0007  1.0775  0.2580
 2748TIP3   OH2 8249   0.205   3.971   2.125  0.2616 -0.0996  0.3724
 2748TIP3    H1 8250   0.221   4.061   2.153 -1.3675  0.6561 -0.9322
 2748TIP3    H2 8251   0.173   3.979   2.035  1.6372 -2.1191 -0.3776
 2749TIP3   OH2 8252   5.881   4.705   0.532  0.0572  0.2010 -0.0671
 2749TIP3    H1 8253   5.897   4.753   0.450 -2.1502  1.7040  0.2902
 2749TIP3    H2 8254   5.802   4.745   0.567 -0.4980 -2.1469  1.5273
 2750TIP3   OH2 8255   1.626   5.513   1.891 -0.0617 -0.0540  0.2662
 2750TIP3    H1 8256   1.576   5.459   1.830 -1.2224 -0.2998  1.3942
 2750TIP3    H2 8257   1.665   5.451   1.952 -0.1165  0.2836  0.6466
 2751TIP3   OH2 8258   3.802   1.188   3.171  0.3912 -0.0877 -0.2125
 2751TIP3    H1 8259   3.864   1.151   3.108  0.5448  1.3420 -0.9482
 2751TIP3    H2 8260   3.853   1.199   3.252 -0.3869 -4.1560  1.0838
 2752TIP3   OH2 8261   1.700   1.469   4.110  0.0333  0.0508  0.1721
 2752TIP3    H1 8262   1.763   1.408   4.073 -0.3616 -1.1030  1.3144
 2752TIP3    H2 8263   1.682   1.434   4.197  0.3494  2.2128  1.1717
 2753TIP3   OH2 8264   0.878   5.646   3.754 -0.1727 -0.3183  0.3082
 2753TIP3    H1 8265   0.785   5.661   3.771  0.1852  0.7090  1.5756
 2753TIP3    H2 8266   0.881   5.602   3.670 -1.7550  0.5452 -0.2370
 2754TIP3   OH2 8267   1.720   4.615   3.837  0.9915 -0.5009 -0.0318
 2754TIP3    H1 8268   1.767   4.635   3.918 -0.9524 -0.9713  1.2827
 2754TIP3    H2 8269   1.657   4.547   3.862  0.3319 -0.6564 -1.9512
 2755TIP3   OH2 8270   1.913   2.771   0.316 -0.3042  0.5056 -0.3043
 2755TIP3    H1 8271   1.852   2.703   0.286  1.1556 -1.0468  0.1025
 2755TIP3    H2 8272   1.984   2.722   0.357  0.1036  2.3762  1.3108
 2756TIP3   OH2 8273   5.607   0.291   2.561  0.0471 -0.2737  0.5797
 2756TIP3    H1 8274   5.641   0.219   2.508 -1.3060 -1.1842  0.8939
 2756TIP3    H2 8275   5.661   0.366   2.537 -0.9620 -0.4302 -2.6948
 2757TIP3   OH2 8276   2.358   1.401   3.289 -0.1714 -0.0174  0.0249
 2757TIP3    H1 8277   2.313   1.317   3.299 -0.7748  0.2803 -0.1282
 2757TIP3    H2 8278   2.426   1.384   3.223  0.1477 -0.5489  0.4838
 2758TIP3   OH2 8279   5.890   3.388   2.329  0.0551  0.2512  0.1574
 2758TIP3    H1 8280   5.942   3.399   2.409  0.0203 -0.7196  0.3304
 2758TIP3    H2 8281   5.918   3.303   2.294 -1.1203 -0.1116  0.0506
 2759TIP3   OH2 8282   5.425   4.750   5.097 -0.9017  0.7039  0.0092
 2759TIP3    H1 8283   5.389   4.797   5.172 -0.3213  0.4209  0.4683
 2759TIP3    H2 8284   5.390   4.661   5.104 -1.1969  0.7939 -0.3004
 2760TIP3   OH2 8285   0.477   0.191   3.703  0.2888 -0.3824  0.3010
 2760TIP3    H1 8286   0.499   0.099   3.719  0.0421 -0.2826  1.2998
 2760TIP3    H2 8287   0.387   0.200   3.734  0.2749  0.1771  0.1161
 2761TIP3   OH2 8288   0.077   5.921   3.306 -0.0097  0.3039  0.1767
 2761TIP3    H1 8289   0.143   5.958   3.364  2.4808 -0.1581 -2.1431
 2761TIP3    H2 8290   0.017   5.993   3.288  0.8485  1.2445  0.9851
 2762TIP3   OH2 8291   2.225   0.573   3.201  0.2471 -0.2719 -0.1786
 2762TIP3    H1 8292   2.281   0.560   3.277  0.8428 -0.1683 -0.5965
 2762TIP3    H2 8293   2.269   0.641   3.150  0.3689 -1.0251 -1.1080
 2763TIP3   OH2 8294   1.269   0.117   2.228 -0.3866  0.0091 -0.3861
 2763TIP3    H1 8295   1.267   0.190   2.166  1.4022  1.1119  0.7744
 2763TIP3    H2 8296   1.262   0.158   2.314  2.1694 -0.9867  0.3788
 2764TIP3   OH2 8297   1.943   1.212   1.496  0.0494 -0.4719 -0.5167
 2764TIP3    H1 8298   2.001   1.137   1.509  0.0499 -0.4304 -0.2622
 2764TIP3    H2 8299   1.943   1.256   1.581 -1.3032 -1.1360 -0.1542
 2765TIP3   OH2 8300   4.735   3.017   1.153 -0.4113  0.3116  0.5638
 2765TIP3    H1 8301   4.640   3.026   1.152 -0.5639 -0.2372  2.8146
 2765TIP3    H2 8302   4.764   3.080   1.219  0.7218  0.0653  0.3174
 2766TIP3   OH2 8303   5.953   3.492   1.375  0.1143  0.5107 -0.0427
 2766TIP3    H1 8304   5.901   3.547   1.435  0.3778  1.0119 -0.2654
 2766TIP3    H2 8305   5.889   3.460   1.311 -0.5151 -1.4812  1.4926
 2767TIP3   OH2 8306   1.058   3.249   1.065  0.3376  0.2784 -0.3240
 2767TIP3    H1 8307   0.965   3.268   1.080  0.2206 -0.4436 -0.0487
 2767TIP3    H2 8308   1.058   3.163   1.022  0.8596  0.5264 -0.8378
 2768TIP3   OH2 8309   4.263   1.048   4.071 -0.0663 -0.2946 -0.3478
 2768TIP3    H1 8310   4.291   1.127   4.118  1.7129 -0.3443 -1.2196
 2768TIP3    H2 8311   4.288   0.976   4.128  1.5116 -0.3296 -1.0333
 2769TIP3   OH2 8312   2.307   1.434   1.772 -0.2090 -0.4843  0.1025
 2769TIP3    H1 8313   2.339   1.523   1.785 -0.4009 -0.5494  1.0600
 2769TIP3    H2 8314   2.375   1.378   1.810 -1.0067 -0.6573  1.3389
 2770TIP3   OH2 8315   1.617   0.243   0.221 -0.0175 -0.2459  0.2998
 2770TIP3    H1 8316   1.628   0.245   0.316  0.2688 -0.3560  0.2704
 2770TIP3    H2 8317   1.660   0.323   0.190 -0.2972 -0.1027  0.2815
 2771TIP3   OH2 8318   2.137   5.110   1.551  0.1869  0.3073  0.2242
 2771TIP3    H1 8319   2.232   5.110   1.543  0.4390 -3.0559  1.4008
 2771TIP3    H2 8320   2.119   5.160   1.631  1.1475 -0.2706  0.8248
 2772TIP3   OH2 8321   2.144   5.254   0.279 -0.3916 -0.3686 -0.1293
 2772TIP3    H1 8322   2.222   5.280   0.328 -1.1637 -0.2413  1.0844
 2772TIP3    H2 8323   2.071   5.282   0.334 -1.3046 -0.3695 -1.3025
 2773TIP3   OH2 8324   2.178   3.510   3.776  0.1258 -0.4070  0.1380
 2773TIP3    H1 8325   2.102   3.543   3.728  0.6411 -0.6241 -0.8629
 2773TIP3    H2 8326   2.142   3.472   3.856 -0.9168 -1.3778 -0.7663
 2774TIP3   OH2 8327   0.109   0.540   2.745 -0.3217  0.4781  0.3767
 2774TIP3    H1 8328   0.025   0.584   2.758  0.1428  2.6649 -2.8868
 2774TIP3    H2 8329   0.101   0.497   2.659  1.7682  0.4733  0.1258
 2775TIP3   OH2 8330   2.733   1.230   2.349 -0.2445  0.0749 -0.0821
 2775TIP3    H1 8331   2.785   1.296   2.396 -1.8608  0.8679  0.6779
 2775TIP3    H2 8332   2.784   1.211   2.270  1.8222 -0.1895  1.2581
 2776TIP3   OH2 8333   2.720   1.516   4.193  0.6057 -0.2594  0.1046
 2776TIP3    H1 8334   2.730   1.546   4.103 -1.2318 -0.1479 -0.0897
 2776TIP3    H2 8335   2.661   1.579   4.234  2.2656  0.3494  1.7628
 2777TIP3   OH2 8336   3.810   5.635   0.178 -0.1731  0.4673  0.7060
 2777TIP3    H1 8337   3.896   5.671   0.196 -0.4370  2.0416 -0.9242
 2777TIP3    H2 8338   3.750   5.692   0.226 -0.4215  0.4819  0.3810
 2778TIP3   OH2 8339   6.175   4.962   3.014 -0.0975  0.0724 -0.2406
 2778TIP3    H1 8340   6.151   4.870   3.001 -0.4580  0.2110 -0.5607
 2778TIP3    H2 8341   6.158   5.003   2.930 -0.1510  0.4787 -0.0331
 2779TIP3   OH2 8342   4.586   1.186   2.470  1.0863 -0.1666  0.6983
 2779TIP3    H1 8343   4.591   1.187   2.374  1.6671  0.5078  0.7271
 2779TIP3    H2 8344   4.550   1.100   2.491 -0.6803  0.3043 -0.1935
 2780TIP3   OH2 8345   1.005   1.288   0.867  0.4418  0.4354  0.2749
 2780TIP3    H1 8346   0.985   1.243   0.949 -1.1725 -1.0883 -0.9033
 2780TIP3    H2 8347   1.009   1.381   0.891  0.4907 -0.0134  2.1393
 2781TIP3   OH2 8348   5.573   3.405   1.758  0.3340  0.4365  0.3812
 2781TIP3    H1 8349   5.501   3.466   1.745  0.5324  0.3670 -1.2654
 2781TIP3    H2 8350   5.648   3.447   1.715  0.5477 -0.7977 -0.4907
 2782TIP3   OH2 8351   6.043   3.750   4.266 -0.4753 -0.2228  0.1842
 2782TIP3    H1 8352   5.982   3.823   4.282 -0.5051 -0.1098 -0.4410
 2782TIP3    H2 8353   6.125   3.779   4.306 -0.7230 -0.2154  0.6976
 2783TIP3   OH2 8354   5.039   5.028   1.732  0.8298  0.0982  0.0170
 2783TIP3    H1 8355   5.115   5.068   1.691  0.2509  0.2771 -0.9019
 2783TIP3    H2 8356   5.003   4.970   1.666  1.5845 -1.9054  1.2833
 2784TIP3   OH2 8357   5.902   1.944   2.341  0.1994  0.3902 -0.1693
 2784TIP3    H1 8358   5.857   1.860   2.340  0.0944  0.4450 -0.1911
 2784TIP3    H2 8359   5.919   1.962   2.433  0.4894  0.2054 -0.1889
 2785TIP3   OH2 8360   4.706   5.564   4.926  0.0442 -0.0673  0.0939
 2785TIP3    H1 8361   4.704   5.468   4.921  0.2290 -0.1429  1.2785
 2785TIP3    H2 8362   4.786   5.584   4.974 -0.5151  0.6276  0.7594
 2786TIP3   OH2 8363   4.174   4.459   3.065  0.0098 -0.3417  0.5100
 2786TIP3    H1 8364   4.197   4.379   3.016 -0.0107  0.3789 -0.7199
 2786TIP3    H2 8365   4.088   4.483   3.030 -0.5607 -0.4574  1.7768
 2787TIP3   OH2 8366   3.085   4.580   4.555 -0.0404  0.1960 -0.3202
 2787TIP3    H1 8367   3.116   4.634   4.482  0.0163  1.1220  0.3730
 2787TIP3    H2 8368   3.046   4.503   4.513 -1.9192  1.6739 -1.4350
 2788TIP3   OH2 8369   0.774   2.256   3.392 -0.3431  0.4534 -0.0078
 2788TIP3    H1 8370   0.692   2.212   3.414 -0.3292  0.2263 -0.3967
 2788TIP3    H2 8371   0.842   2.196   3.424 -0.3044 -0.4955 -1.7645
 2789TIP3   OH2 8372   5.088   1.981   2.364 -0.5924 -0.0505 -0.2450
 2789TIP3    H1 8373   5.150   2.045   2.400 -0.4324 -0.0656 -0.4913
 2789TIP3    H2 8374   5.098   1.904   2.419 -0.1473 -0.1719 -0.4896
 2790TIP3   OH2 8375   4.428   4.217   4.642  0.5083  0.1424 -0.1765
 2790TIP3    H1 8376   4.406   4.292   4.585  0.5296 -0.5504 -1.1197
 2790TIP3    H2 8377   4.523   4.221   4.650  0.3787  1.1446  1.1017
 2791TIP3   OH2 8378   1.309   2.828   4.697  0.5781  0.0678  0.5130
 2791TIP3    H1 8379   1.229   2.880   4.707 -0.1120 -1.0385  0.9833
 2791TIP3    H2 8380   1.325   2.827   4.602 -1.7034 -2.1380  0.0497
 2792TIP3   OH2 8381   1.926   4.840   3.356 -0.5281  0.6472  0.5109
 2792TIP3    H1 8382   1.917   4.915   3.297 -1.0837  0.3538  0.2165
 2792TIP3    H2 8383   2.017   4.845   3.387 -0.2819  0.9035 -0.2274
 2793TIP3   OH2 8384   2.812   1.665   0.944 -0.2501 -0.6726 -0.3732
 2793TIP3    H1 8385   2.740   1.709   0.989 -0.5338  0.4403 -1.8416
 2793TIP3    H2 8386   2.770   1.613   0.876  0.2791 -0.6925 -0.6920
 2794TIP3   OH2 8387   2.863   4.738   4.186  0.1232 -0.1471 -0.3721
 2794TIP3    H1 8388   2.901   4.657   4.154  0.9113 -0.1760  0.5952
 2794TIP3    H2 8389   2.913   4.759   4.264  0.6355  1.8364 -1.1657
 2795TIP3   OH2 8390   5.602   0.414   0.973  0.1160  0.0528  0.2775
 2795TIP3    H1 8391   5.535   0.473   1.005  0.7112  1.6098 -1.1587
 2795TIP3    H2 8392   5.674   0.471   0.947  1.4691 -1.4608  0.5143
 2796TIP3   OH2 8393   4.406   5.704   2.421 -0.2680  0.3395  0.0248
 2796TIP3    H1 8394   4.404   5.750   2.504  1.4888 -0.6711  0.6637
 2796TIP3    H2 8395   4.417   5.773   2.355  0.9456  0.9634  0.8507
 2797TIP3   OH2 8396   2.270   3.622   4.542  0.7995  0.3267 -0.3770
 2797TIP3    H1 8397   2.299   3.582   4.624  1.2463  0.9984 -0.2001
 2797TIP3    H2 8398   2.321   3.702   4.535  1.3671 -0.1275 -1.7240
 2798TIP3   OH2 8399   4.836   5.564   1.680 -0.1076 -0.5638 -0.1284
 2798TIP3    H1 8400   4.914   5.597   1.724  2.0641 -3.0820 -1.7852
 2798TIP3    H2 8401   4.792   5.510   1.746  1.4916 -1.8964 -0.1019
 2799TIP3   OH2 8402   4.003   4.257   3.532 -0.6158  0.2905 -0.3586
 2799TIP3    H1 8403   3.998   4.186   3.596 -0.0282 -0.2371 -0.8877
 2799TIP3    H2 8404   3.915   4.294   3.531 -0.6885  0.1764  0.6054
 2800TIP3   OH2 8405   3.023   5.405   4.067  0.2215 -0.4085 -0.0323
 2800TIP3    H1 8406   3.042   5.499   4.061  0.1965 -0.2966  1.4266
 2800TIP3    H2 8407   3.085   5.365   4.007 -0.6635  0.6238 -1.7363
 2801TIP3   OH2 8408   2.196   1.710   1.445  0.1437 -0.3214 -0.1035
 2801TIP3    H1 8409   2.272   1.709   1.386 -0.5660 -0.5557 -1.0358
 2801TIP3    H2 8410   2.217   1.779   1.509  0.1644  1.2116 -1.6774
 2802TIP3   OH2 8411   3.567   0.818   1.635 -0.3286 -0.1294  0.0130
 2802TIP3    H1 8412   3.612   0.902   1.649 -0.9283  0.1332  0.3869
 2802TIP3    H2 8413   3.638   0.756   1.619  0.1308  0.4251 -0.1490
 2803TIP3   OH2 8414   0.407   0.989   0.763 -0.2548 -0.1974  0.3364
 2803TIP3    H1 8415   0.346   1.062   0.757  0.3852  0.3681  0.4977
 2803TIP3    H2 8416   0.380   0.940   0.840 -0.7554 -0.1965  0.1618
 2804TIP3   OH2 8417   2.040   4.607   4.676 -0.5019 -0.0445  0.4283
 2804TIP3    H1 8418   1.963   4.584   4.623 -1.2343 -0.3311  1.5656
 2804TIP3    H2 8419   2.038   4.545   4.748  1.0172 -0.2611  0.3042
 2805TIP3   OH2 8420   5.863   2.312   2.490  0.2999  0.4979 -0.3432
 2805TIP3    H1 8421   5.779   2.326   2.447  1.3191  3.3263 -1.6923
 2805TIP3    H2 8422   5.860   2.365   2.569  0.7597  0.4939 -0.3155
 2806TIP3   OH2 8423   3.970   0.477   0.067  0.1187 -0.1601 -0.2895
 2806TIP3    H1 8424   4.002   0.565   0.048  1.3810 -0.6110 -0.3827
 2806TIP3    H2 8425   4.001   0.459   0.155 -0.6581 -0.2960 -0.0355
 2807TIP3   OH2 8426   2.776   5.710   1.392  0.2138  1.2019  0.3570
 2807TIP3    H1 8427   2.710   5.665   1.444  0.9086 -0.1382  0.1358
 2807TIP3    H2 8428   2.857   5.660   1.408  0.5173  0.9256 -1.7285
 2808TIP3   OH2 8429   0.061   5.401   4.980 -0.2352 -0.5722  0.4148
 2808TIP3    H1 8430   0.115   5.385   5.058  1.0394  1.6933  0.0673
 2808TIP3    H2 8431   0.002   5.472   5.006  0.2098  0.2183 -0.6668
 2809TIP3   OH2 8432   5.515   5.084   1.046  0.0976  0.1488  0.1477
 2809TIP3    H1 8433   5.512   5.022   0.974 -1.8094 -1.1264  1.2137
 2809TIP3    H2 8434   5.576   5.046   1.109  2.1610  1.5141 -0.9096
 2810TIP3   OH2 8435   0.694   5.619   1.355  0.5177  0.2469 -0.0827
 2810TIP3    H1 8436   0.737   5.542   1.391  1.1030  0.9192  0.6874
 2810TIP3    H2 8437   0.614   5.586   1.314  0.2693 -0.6376  1.0988
 2811TIP3   OH2 8438   3.981   2.061   2.508  0.5854 -0.3828  0.1677
 2811TIP3    H1 8439   4.075   2.045   2.516  0.2461 -2.6429  0.2335
 2811TIP3    H2 8440   3.944   2.025   2.589 -0.4336 -0.4757 -0.3292
 2812TIP3   OH2 8441   0.312   1.645   4.943 -0.0683  0.5759 -0.1840
 2812TIP3    H1 8442   0.367   1.574   4.976 -1.2777 -0.6591 -0.7693
 2812TIP3    H2 8443   0.325   1.645   4.848  1.2414  2.3051 -0.0703
 2813TIP3   OH2 8444   3.880   1.659   0.246  0.4253  0.2578  0.1664
 2813TIP3    H1 8445   3.920   1.572   0.243  0.3891  0.2542 -0.3360
 2813TIP3    H2 8446   3.829   1.659   0.327  1.5219  0.3088  0.8791
 2814TIP3   OH2 8447   1.479   4.825   2.494  0.1122  0.2506  0.1869
 2814TIP3    H1 8448   1.529   4.900   2.528 -2.9375  1.8152  1.6335
 2814TIP3    H2 8449   1.465   4.846   2.402 -1.5093  2.0702  0.7756
 2815TIP3   OH2 8450   3.124   3.060   4.314  0.2319  0.0136  0.7547
 2815TIP3    H1 8451   3.193   3.126   4.300 -1.0383  1.3347  0.5021
 2815TIP3    H2 8452   3.058   3.106   4.365 -0.0321 -1.5476  1.8661
 2816TIP3   OH2 8453   1.312   4.766   1.313  0.2664 -0.5901  0.2493
 2816TIP3    H1 8454   1.283   4.851   1.345  0.2315 -0.4311 -0.2009
 2816TIP3    H2 8455   1.260   4.703   1.362 -0.7604 -0.3116 -0.4644
 2817TIP3   OH2 8456   5.674   0.410   3.178 -0.0987 -0.2527 -0.4321
 2817TIP3    H1 8457   5.728   0.478   3.137 -1.4295  1.9467  1.2880
 2817TIP3    H2 8458   5.584   0.434   3.155 -0.7012 -0.3730  1.6769
 2818TIP3   OH2 8459   5.984   0.890   1.304 -0.1081  0.1316 -0.2689
 2818TIP3    H1 8460   5.970   0.974   1.262 -2.9528 -0.1416 -0.0532
 2818TIP3    H2 8461   5.948   0.826   1.243  0.2814 -0.7466  0.3923
 2819TIP3   OH2 8462   0.765   0.508   3.500 -0.1017  0.4720 -0.5270
 2819TIP3    H1 8463   0.752   0.479   3.410 -1.2008 -0.0928 -0.2060
 2819TIP3    H2 8464   0.860   0.507   3.512  0.1073  1.1677 -1.8665
 2820TIP3   OH2 8465   4.852   5.089   2.515 -0.2848 -0.1968 -0.1270
 2820TIP3    H1 8466   4.934   5.058   2.477 -0.0706 -0.7192  0.7475
 2820TIP3    H2 8467   4.849   5.182   2.494  1.0405  0.0645  0.7434
 2821TIP3   OH2 8468   5.421   3.071   4.096 -0.5238 -0.0852  0.1003
 2821TIP3    H1 8469   5.405   3.124   4.018 -1.1902 -2.9392 -1.8404
 2821TIP3    H2 8470   5.515   3.082   4.113 -0.5231  1.1938 -0.5894
 2822TIP3   OH2 8471   4.855   3.839   2.544 -0.1995  0.1430  0.0490
 2822TIP3    H1 8472   4.893   3.751   2.536  1.2622  0.6680  0.8902
 2822TIP3    H2 8473   4.849   3.853   2.639 -2.3512  0.1872 -0.0314
 2823TIP3   OH2 8474   2.801   1.832   2.994  0.1740 -0.3542  0.2059
 2823TIP3    H1 8475   2.806   1.882   2.912 -0.5169 -0.0213  0.3596
 2823TIP3    H2 8476   2.883   1.852   3.039 -0.6852  1.8313  0.9292
 2824TIP3   OH2 8477   5.156   5.610   1.535  0.4413 -0.5498  0.1217
 2824TIP3    H1 8478   5.247   5.624   1.560  0.5313  1.4420 -1.0764
 2824TIP3    H2 8479   5.135   5.523   1.568  2.4876 -0.6913  1.2199
 2825TIP3   OH2 8480   0.104   2.353   0.052  0.1352 -0.2356  0.6855
 2825TIP3    H1 8481   0.078   2.426   0.108 -1.0072 -1.3811  1.7154
 2825TIP3    H2 8482   0.083   2.383  -0.037 -1.5741  0.2098  1.1971
 2826TIP3   OH2 8483   5.236   5.366   3.714 -0.0558  0.3026 -0.1529
 2826TIP3    H1 8484   5.154   5.380   3.762  0.6108 -0.2375  1.2155
 2826TIP3    H2 8485   5.272   5.454   3.701 -0.6903  0.5164 -0.4538
 2827TIP3   OH2 8486   2.061   2.603   3.282 -0.0114 -0.5613 -0.3521
 2827TIP3    H1 8487   1.983   2.646   3.317 -0.9715 -1.4379 -1.3621
 2827TIP3    H2 8488   2.086   2.540   3.350 -0.2356 -0.3596 -0.0791
 2828TIP3   OH2 8489   1.347   0.117   0.978  0.5722 -0.8360  0.2654
 2828TIP3    H1 8490   1.252   0.112   0.976  0.5896 -1.0864  0.0359
 2828TIP3    H2 8491   1.377   0.032   0.946  0.8753 -1.1148  1.2365
 2829TIP3   OH2 8492   6.323   0.250   3.518  0.0384  0.1553 -0.2531
 2829TIP3    H1 8493   6.293   0.249   3.609  0.2525 -0.0515 -0.1861
 2829TIP3    H2 8494   6.395   0.187   3.515  0.0498  0.1810 -0.5598
 2830TIP3   OH2 8495   3.486   5.829   4.956 -0.3461  0.7646  0.0456
 2830TIP3    H1 8496   3.499   5.919   4.927 -1.6484  0.7935 -0.4743
 2830TIP3    H2 8497   3.392   5.814   4.948 -0.4887  0.0800  2.2435
 2831TIP3   OH2 8498   2.631   2.209   4.176 -0.7920  0.3773 -0.6976
 2831TIP3    H1 8499   2.720   2.233   4.202 -1.2391  0.7264  0.5953
 2831TIP3    H2 8500   2.616   2.254   4.093 -0.1130  1.1389 -0.4148
 2832TIP3   OH2 8501   4.688   4.909   1.882 -0.1890  0.4551 -0.0633
 2832TIP3    H1 8502   4.724   4.971   1.946 -0.2372  3.6732 -2.8744
 2832TIP3    H2 8503   4.594   4.905   1.903  0.1922 -0.6369  1.5975
 2833TIP3   OH2 8504   6.253   4.009   4.597  0.3473  0.2281  0.5248
 2833TIP3    H1 8505   6.255   4.091   4.546  2.0008 -0.9056 -1.3725
 2833TIP3    H2 8506   6.261   4.038   4.688  1.0916  2.1725 -0.0992
 2834TIP3   OH2 8507   2.964   2.193   0.854  0.0149  0.2451  0.0997
 2834TIP3    H1 8508   2.885   2.219   0.901 -1.6921 -0.4786 -2.2009
 2834TIP3    H2 8509   2.981   2.266   0.795  0.9635  0.2905  0.4156
 2835TIP3   OH2 8510   3.583   2.834   0.176 -0.9215  0.3414  0.2799
 2835TIP3    H1 8511   3.595   2.829   0.271 -1.6562  0.1362  0.3715
 2835TIP3    H2 8512   3.546   2.921   0.161 -1.6195  0.0528  0.2846
 2836TIP3   OH2 8513   4.186   0.192   3.419  0.6324 -0.0287  0.2554
 2836TIP3    H1 8514   4.275   0.228   3.415  0.7942 -0.4292  0.1781
 2836TIP3    H2 8515   4.143   0.242   3.488  1.0824 -0.1862  0.6559
 2837TIP3   OH2 8516   4.571   2.698   1.124  0.0928  0.2385  0.1764
 2837TIP3    H1 8517   4.555   2.793   1.128  0.1913  0.3131 -0.8405
 2837TIP3    H2 8518   4.521   2.662   1.198 -1.6297  0.8762 -0.6138
 2838TIP3   OH2 8519   4.245   5.095   3.957 -0.1705 -0.4786  0.0093
 2838TIP3    H1 8520   4.303   5.115   4.030 -1.3425  0.8635  0.6232
 2838TIP3    H2 8521   4.232   5.179   3.913 -2.8231 -0.3520  0.8277
 2839TIP3   OH2 8522   5.580   4.408   2.750 -0.1719  0.4878 -0.1023
 2839TIP3    H1 8523   5.491   4.421   2.718  0.1442  2.4077 -0.3239
 2839TIP3    H2 8524   5.574   4.420   2.845 -0.2123  0.2139 -0.0696
 2840TIP3   OH2 8525   0.380   5.849   3.336  0.2913 -0.2988 -0.4281
 2840TIP3    H1 8526   0.294   5.818   3.307  0.9000 -0.3586 -2.2882
 2840TIP3    H2 8527   0.438   5.775   3.319  0.8536  0.0456 -0.0006
 2841TIP3   OH2 8528   5.552   3.461   1.408  0.1563 -0.2609 -0.4882
 2841TIP3    H1 8529   5.509   3.401   1.470  1.4388 -1.3626 -0.6256
 2841TIP3    H2 8530   5.627   3.495   1.457  0.7911 -0.6167 -1.1989
 2842TIP3   OH2 8531   1.146   5.344   3.172  0.1942  0.5840  0.0345
 2842TIP3    H1 8532   1.205   5.418   3.160 -2.4159  2.5186 -1.9345
 2842TIP3    H2 8533   1.115   5.323   3.084 -0.9542 -1.3103  0.8247
 2843TIP3   OH2 8534   2.187   4.731   2.172  0.7247 -0.0355 -0.3416
 2843TIP3    H1 8535   2.224   4.672   2.237  0.2656 -1.6405 -1.4575
 2843TIP3    H2 8536   2.245   4.723   2.096 -1.0721 -1.6226 -1.6601
 2844TIP3   OH2 8537   0.061   1.190   4.786  0.4184 -0.4242  0.0512
 2844TIP3    H1 8538   0.045   1.162   4.696 -0.4967 -3.3088  0.9975
 2844TIP3    H2 8539   0.133   1.135   4.816  0.0665 -0.2035  1.3718
 2845TIP3   OH2 8540   4.455   5.984   2.004  0.0218  0.0873 -0.3804
 2845TIP3    H1 8541   4.536   5.938   1.983 -0.4107 -2.1632  2.3044
 2845TIP3    H2 8542   4.420   5.937   2.080 -2.8362  2.1593 -0.2717
 2846TIP3   OH2 8543   0.757   4.809   1.622  0.0176  0.1598 -0.1194
 2846TIP3    H1 8544   0.853   4.809   1.629 -0.0374  1.1150  0.6797
 2846TIP3    H2 8545   0.726   4.796   1.711 -0.6151  0.2905 -0.3161
 2847TIP3   OH2 8546   2.133   3.694   1.034 -0.1955 -0.2140  0.1387
 2847TIP3    H1 8547   2.217   3.669   0.997 -0.6495  0.1266 -1.1770
 2847TIP3    H2 8548   2.144   3.682   1.128  0.5551 -2.4539 -0.1652
 2848TIP3   OH2 8549   0.532   2.894   2.628  0.7034 -0.3745  0.2340
 2848TIP3    H1 8550   0.530   2.934   2.715  0.0405 -0.7816  0.4126
 2848TIP3    H2 8551   0.622   2.865   2.617  1.3016  1.4541 -0.0356
 2849TIP3   OH2 8552   2.414   2.085   0.684  0.0923 -0.0398  0.4269
 2849TIP3    H1 8553   2.453   2.023   0.623  0.6248 -1.0433  1.7539
 2849TIP3    H2 8554   2.320   2.072   0.674  0.1684 -0.1495 -0.2037
 2850TIP3   OH2 8555   3.782   2.021   1.458  0.0622  0.4035  0.3627
 2850TIP3    H1 8556   3.784   2.053   1.548 -0.6447  0.3423  0.4041
 2850TIP3    H2 8557   3.873   2.030   1.427  0.2105  0.8628  0.9201
 2851TIP3   OH2 8558   4.229   3.989   2.926 -0.3641 -0.0996  0.3439
 2851TIP3    H1 8559   4.165   4.060   2.924 -0.3953 -0.1155 -1.8087
 2851TIP3    H2 8560   4.314   4.033   2.918 -0.2064 -0.1882  1.3999
 2852TIP3   OH2 8561   1.134   3.476   3.233 -0.2629  0.0453  0.5643
 2852TIP3    H1 8562   1.153   3.389   3.267 -0.6470 -0.2670  0.0160
 2852TIP3    H2 8563   1.065   3.461   3.168  1.5445  0.3681 -1.5552
 2853TIP3   OH2 8564   0.203   5.730   1.347  0.9546 -0.1175 -0.0275
 2853TIP3    H1 8565   0.154   5.699   1.271 -0.6933  0.8171  0.6221
 2853TIP3    H2 8566   0.173   5.674   1.419  0.7472  0.5399  0.3991
 2854TIP3   OH2 8567   6.108   1.696   2.206 -0.1167 -0.2035  0.2651
 2854TIP3    H1 8568   6.164   1.751   2.260  0.8468 -2.9102  2.1524
 2854TIP3    H2 8569   6.020   1.734   2.217  0.8012  2.4089 -0.5520
 2855TIP3   OH2 8570   4.534   1.406   1.945  0.4184 -0.0305 -0.5897
 2855TIP3    H1 8571   4.527   1.337   1.879  0.2279 -0.1043 -0.4918
 2855TIP3    H2 8572   4.553   1.485   1.894 -1.6660  0.3035 -0.9564
 2856TIP3   OH2 8573   2.001   4.882   1.962 -0.2648  0.3448 -0.4085
 2856TIP3    H1 8574   2.009   4.947   2.032 -0.2389 -0.1486  0.0495
 2856TIP3    H2 8575   2.092   4.855   1.944 -0.3487 -0.2596  0.0610
 2857TIP3   OH2 8576   3.151   4.578   2.703 -0.1402 -0.1625 -0.4416
 2857TIP3    H1 8577   3.091   4.561   2.776  0.1537  3.9296  1.0527
 2857TIP3    H2 8578   3.226   4.520   2.719 -0.4832 -0.0259  2.0597
 2858TIP3   OH2 8579   3.847   4.538   4.776  0.2666 -0.5754 -0.0316
 2858TIP3    H1 8580   3.915   4.605   4.785 -0.6722  0.3550  0.3117
 2858TIP3    H2 8581   3.889   4.458   4.806  0.9239  0.1668  1.1281
 2859TIP3   OH2 8582   3.094   2.828   1.136  1.0321  0.3350 -0.2317
 2859TIP3    H1 8583   3.011   2.875   1.141  0.6934 -0.2998  0.2281
 2859TIP3    H2 8584   3.159   2.896   1.118  0.5155  0.9336  0.1324
 2860TIP3   OH2 8585   2.730   4.168   2.424  0.5179 -0.1161  0.4024
 2860TIP3    H1 8586   2.743   4.093   2.482 -0.1567 -1.1465 -0.6978
 2860TIP3    H2 8587   2.814   4.179   2.379  0.8405  0.2657  1.0983
 2861TIP3   OH2 8588   1.213   2.808   0.447  0.2228 -0.3693 -0.2604
 2861TIP3    H1 8589   1.260   2.891   0.441 -1.2896  0.7132  1.8434
 2861TIP3    H2 8590   1.275   2.749   0.491  0.9941 -0.1258 -0.9967
 2862TIP3   OH2 8591   3.472   4.987   4.421 -0.6113  0.6977  0.3758
 2862TIP3    H1 8592   3.561   4.956   4.404 -0.5873  1.0030 -0.0626
 2862TIP3    H2 8593   3.431   4.989   4.335 -0.2433  3.0309  0.1845
 2863TIP3   OH2 8594   1.180   4.719   3.880  0.3915 -0.0505  0.0523
 2863TIP3    H1 8595   1.152   4.679   3.798 -0.5698  0.1833  0.2550
 2863TIP3    H2 8596   1.101   4.722   3.934  0.8344  0.5114  0.6912
 2864TIP3   OH2 8597   3.147   4.856   0.343 -0.4180 -0.5057 -0.0812
 2864TIP3    H1 8598   3.060   4.897   0.338 -1.4238 -2.3751  1.0560
 2864TIP3    H2 8599   3.137   4.786   0.407  2.4513  0.3866  1.5241
 2865TIP3   OH2 8600   2.439   4.645   2.048 -0.1136  0.4495  0.7020
 2865TIP3    H1 8601   2.506   4.710   2.070 -0.7022  1.3370 -0.0982
 2865TIP3    H2 8602   2.475   4.600   1.971  0.4617 -0.4506  1.4730
 2866TIP3   OH2 8603   5.120   1.745   5.019  0.1913 -0.2808 -0.1193
 2866TIP3    H1 8604   5.133   1.673   5.080 -0.2674 -0.7295 -0.5416
 2866TIP3    H2 8605   5.028   1.739   4.994  0.1200  0.5051 -0.0954
 2867TIP3   OH2 8606   3.537   2.652   0.385 -0.2556 -0.0589 -0.2823
 2867TIP3    H1 8607   3.583   2.688   0.461 -0.3741 -1.1970  0.3457
 2867TIP3    H2 8608   3.504   2.567   0.415  1.1857 -1.3474 -2.1217
 2868TIP3   OH2 8609   0.886   2.403   2.268 -0.1372  0.4150  0.0480
 2868TIP3    H1 8610   0.953   2.391   2.335 -0.5393  0.0816  0.3917
 2868TIP3    H2 8611   0.814   2.446   2.314 -0.6345 -0.3123 -0.0336
 2869TIP3   OH2 8612   0.238   2.392   3.161 -0.6757 -0.0776  0.0655
 2869TIP3    H1 8613   0.278   2.311   3.193  0.0661  0.6884  1.1482
 2869TIP3    H2 8614   0.144   2.373   3.159 -0.3957 -1.5078 -1.3351
 2870TIP3   OH2 8615   5.953   1.977   1.308  0.6774 -0.1803 -0.0602
 2870TIP3    H1 8616   5.900   1.900   1.285 -0.6550  0.2413  1.4103
 2870TIP3    H2 8617   6.033   1.941   1.345  0.5766 -0.8558 -0.4776
 2871TIP3   OH2 8618   5.428   2.336   0.855 -0.7175  0.1381 -0.6864
 2871TIP3    H1 8619   5.376   2.378   0.923 -0.5114 -0.6821 -0.0134
 2871TIP3    H2 8620   5.517   2.331   0.892 -0.4269  0.3871 -1.3275
 2872TIP3   OH2 8621   0.149   3.709   0.014 -0.9835 -0.2923  0.6652
 2872TIP3    H1 8622   0.090   3.776  -0.020 -0.9562 -1.3118 -1.5901
 2872TIP3    H2 8623   0.091   3.634   0.033 -0.4929 -1.4586 -1.9849
 2873TIP3   OH2 8624   0.272   1.082   3.802 -0.3231 -0.3179 -0.0348
 2873TIP3    H1 8625   0.281   0.988   3.784  1.1838  0.0799 -1.6824
 2873TIP3    H2 8626   0.183   1.103   3.775 -0.7897 -1.3273  0.6709
 2874TIP3   OH2 8627   2.018   2.444   2.636 -0.3216  0.5284  0.3027
 2874TIP3    H1 8628   2.076   2.371   2.657 -0.8147  0.4752  1.5795
 2874TIP3    H2 8629   2.077   2.516   2.612  0.1832 -0.0970 -0.3622
 2875TIP3   OH2 8630   5.607   1.981   3.481 -0.9369 -0.1257 -0.1991
 2875TIP3    H1 8631   5.524   1.967   3.437 -0.3395  0.0839 -1.4148
 2875TIP3    H2 8632   5.599   1.931   3.562 -1.5064 -1.7529 -1.2133
 2876TIP3   OH2 8633   2.524   0.620   2.035 -0.2156  0.0713  0.2354
 2876TIP3    H1 8634   2.463   0.548   2.016 -0.7536  0.3075  1.0265
 2876TIP3    H2 8635   2.512   0.637   2.129  1.0122  0.1772  0.3941
 2877TIP3   OH2 8636   2.323   1.139   3.359 -0.4383 -0.1736  0.4585
 2877TIP3    H1 8637   2.354   1.143   3.450  0.4249 -0.5733  0.1926
 2877TIP3    H2 8638   2.232   1.111   3.367 -1.2347  2.3909  1.3312
 2878TIP3   OH2 8639   3.410   1.447   2.818 -0.7020  0.3124 -0.1277
 2878TIP3    H1 8640   3.480   1.457   2.753 -1.2916  1.3617 -0.6338
 2878TIP3    H2 8641   3.371   1.534   2.824 -0.7907  0.1917  1.5056
 2879TIP3   OH2 8642   4.913   2.795   1.156  0.0060 -0.2259 -0.0127
 2879TIP3    H1 8643   4.893   2.771   1.065  2.7965 -0.3308 -0.6820
 2879TIP3    H2 8644   4.861   2.874   1.172  0.5542  0.6353 -2.2064
 2880TIP3   OH2 8645   4.702   4.532   4.559  0.0956  0.0576 -0.0113
 2880TIP3    H1 8646   4.609   4.510   4.557  0.0890  0.0009 -2.3982
 2880TIP3    H2 8647   4.743   4.460   4.608 -0.9818 -0.4994  0.1000
 2881TIP3   OH2 8648   6.047   2.344   2.795 -0.0494 -0.4221  0.0379
 2881TIP3    H1 8649   6.057   2.347   2.890 -0.0096  1.5573  0.0168
 2881TIP3    H2 8650   6.137   2.331   2.762  0.0920 -0.0374  0.2623
 2882TIP3   OH2 8651   1.416   0.692   2.841 -0.7027 -0.2113  1.1378
 2882TIP3    H1 8652   1.443   0.649   2.922  3.1192 -2.5191 -1.0821
 2882TIP3    H2 8653   1.378   0.621   2.788 -0.6675  0.6640 -0.0921
 2883TIP3   OH2 8654   2.409   1.373   4.441 -0.4555  0.1704  0.4996
 2883TIP3    H1 8655   2.503   1.383   4.456 -0.2175 -0.2021 -0.6485
 2883TIP3    H2 8656   2.396   1.279   4.435 -1.1099  0.1604  1.8221
 2884TIP3   OH2 8657   6.275   3.026   0.299 -0.0759 -0.0000  0.5995
 2884TIP3    H1 8658   6.322   3.057   0.222  0.5753  0.6508  1.2279
 2884TIP3    H2 8659   6.341   3.025   0.368 -0.3748 -1.6670  0.9051
 2885TIP3   OH2 8660   4.484   0.949   2.519 -0.3235  0.3752 -0.1597
 2885TIP3    H1 8661   4.428   0.938   2.595  0.4204  0.1710  0.3639
 2885TIP3    H2 8662   4.442   0.898   2.450  0.6800 -2.1674  0.9937
 2886TIP3   OH2 8663   3.986   5.688   2.600 -0.3865 -0.2919 -0.1290
 2886TIP3    H1 8664   3.950   5.667   2.686  0.9110 -0.9005  0.2936
 2886TIP3    H2 8665   3.930   5.758   2.566 -1.2609 -0.4455  0.9567
 2887TIP3   OH2 8666   2.903   4.359   0.859  0.4807 -0.2623  0.0648
 2887TIP3    H1 8667   2.817   4.386   0.824  0.8380  0.3065 -0.3926
 2887TIP3    H2 8668   2.892   4.361   0.954  0.3470  1.0495  0.0344
 2888TIP3   OH2 8669   6.282   3.895   4.333  0.0800  0.2861  0.1555
 2888TIP3    H1 8670   6.246   3.936   4.412 -1.0720  0.7698 -0.6023
 2888TIP3    H2 8671   6.289   3.967   4.270  1.7789  0.0757  0.0443
 2889TIP3   OH2 8672   5.701   4.113   3.073  0.2315  0.3341 -0.8453
 2889TIP3    H1 8673   5.791   4.080   3.077 -0.4639 -1.6422 -0.0846
 2889TIP3    H2 8674   5.667   4.077   2.991 -0.1043  0.3665 -0.7200
 2890TIP3   OH2 8675   5.351   4.615   1.516  0.1033  0.3906  0.2806
 2890TIP3    H1 8676   5.332   4.523   1.495 -0.6540  0.8672 -1.2933
 2890TIP3    H2 8677   5.295   4.635   1.591  0.5886 -0.5360  0.9122
 2891TIP3   OH2 8678   5.573   5.812   1.742  0.7452  0.0111  0.5128
 2891TIP3    H1 8679   5.488   5.814   1.699  1.4162 -1.6724 -1.0085
 2891TIP3    H2 8680   5.559   5.762   1.822 -0.0839  1.4705  1.3266
 2892TIP3   OH2 8681   1.129   4.425   3.907  0.1315  0.2307 -0.4929
 2892TIP3    H1 8682   1.143   4.330   3.911 -1.6334 -0.0563 -0.4863
 2892TIP3    H2 8683   1.078   4.446   3.984  1.8112  1.4886  0.3452
 2893TIP3   OH2 8684   2.270   2.589   1.079  0.1459 -0.2418 -0.1957
 2893TIP3    H1 8685   2.265   2.505   1.125  0.8997 -0.5782 -0.6992
 2893TIP3    H2 8686   2.248   2.568   0.988  0.7828  0.0091 -0.4154
 2894TIP3   OH2 8687   4.246   4.464   4.105  0.1950  0.3277  0.4243
 2894TIP3    H1 8688   4.160   4.429   4.127 -0.0810  0.7587  0.0343
 2894TIP3    H2 8689   4.286   4.484   4.190  0.9589 -2.2867  0.7563
 2895TIP3   OH2 8690   3.492   0.141   2.966 -0.2379 -0.1008  0.4759
 2895TIP3    H1 8691   3.455   0.201   3.030  0.9160 -1.4532  2.5468
 2895TIP3    H2 8692   3.418   0.089   2.935 -0.8563  0.7854  0.4467
 2896TIP3   OH2 8693   2.780   3.256   2.289  0.0372  0.1345  0.5623
 2896TIP3    H1 8694   2.776   3.322   2.220 -0.3565  1.9633  2.2593
 2896TIP3    H2 8695   2.812   3.303   2.366  0.5138 -1.8415  1.6427
 2897TIP3   OH2 8696   0.549   1.016   0.046 -0.3868 -0.0292 -0.1728
 2897TIP3    H1 8697   0.540   0.933  -0.001  0.4862  0.3526 -1.0351
 2897TIP3    H2 8698   0.641   1.039   0.037 -0.7603  1.3899 -0.5500
 2898TIP3   OH2 8699   0.363   0.113   2.822 -0.2767  0.7064 -0.3415
 2898TIP3    H1 8700   0.395   0.203   2.820  1.4462  0.1261 -0.7401
 2898TIP3    H2 8701   0.327   0.102   2.910 -1.3170  2.0217 -0.5667
 2899TIP3   OH2 8702   0.300   1.274   0.590  0.1276 -0.3291  0.0928
 2899TIP3    H1 8703   0.377   1.221   0.572  0.2579 -0.0370 -0.2139
 2899TIP3    H2 8704   0.321   1.361   0.554 -0.8422 -0.5870 -1.1586
 2900TIP3   OH2 8705   0.177   2.683   3.131 -0.8224  0.2136  0.0724
 2900TIP3    H1 8706   0.250   2.725   3.087 -0.4503 -0.3288  0.1591
 2900TIP3    H2 8707   0.208   2.595   3.150 -1.7887 -0.2941 -0.6167
 2901TIP3   OH2 8708   6.241   1.019   4.410 -0.9272  0.0195 -0.6176
 2901TIP3    H1 8709   6.307   1.013   4.341 -0.3450  1.0338 -0.1693
 2901TIP3    H2 8710   6.172   1.075   4.373 -0.7034  0.4068 -0.4592
 2902TIP3   OH2 8711   5.111   0.335   2.643  0.6056 -0.0726 -0.0161
 2902TIP3    H1 8712   5.201   0.365   2.656  0.5670  0.8118 -1.4823
 2902TIP3    H2 8713   5.116   0.279   2.565 -0.1404  0.1249 -0.2100
 2903TIP3   OH2 8714   2.931   1.095   3.492  0.5659 -0.1778  0.4112
 2903TIP3    H1 8715   2.855   1.143   3.524  0.2426  0.6363 -1.4391
 2903TIP3    H2 8716   3.006   1.138   3.532  0.1642  0.4948  0.4484
 2904TIP3   OH2 8717   4.327   3.704   4.316  0.6212  0.2753  0.3536
 2904TIP3    H1 8718   4.359   3.656   4.240 -2.0336 -2.0931  0.5365
 2904TIP3    H2 8719   4.397   3.695   4.381  1.2494 -1.2870 -0.4692
 2905TIP3   OH2 8720   3.064   2.759   4.101  0.2771 -0.3090  0.1661
 2905TIP3    H1 8721   3.158   2.773   4.107  0.3645  0.0145 -1.4421
 2905TIP3    H2 8722   3.045   2.759   4.007 -1.6164  1.5658  0.4689
 2906TIP3   OH2 8723   6.085   0.384   1.838  0.3192  0.1102  0.0312
 2906TIP3    H1 8724   6.032   0.423   1.908  1.4375 -0.3677  1.1851
 2906TIP3    H2 8725   6.165   0.356   1.882  0.7709 -0.8139 -1.3355
 2907TIP3   OH2 8726   0.220   3.014   3.899  0.1083 -0.4225  0.1487
 2907TIP3    H1 8727   0.231   2.927   3.861 -1.2075 -0.6880  0.3370
 2907TIP3    H2 8728   0.177   3.065   3.830 -3.6571 -1.3032  1.6566
 2908TIP3   OH2 8729   2.338   5.902   3.757  0.1300 -0.2344  0.2000
 2908TIP3    H1 8730   2.347   5.807   3.748 -0.7671 -0.3504  0.4871
 2908TIP3    H2 8731   2.379   5.922   3.841  0.3782 -0.3586  0.1089
 2909TIP3   OH2 8732   4.233   0.058   2.892 -0.1622  0.7460 -0.3368
 2909TIP3    H1 8733   4.237  -0.007   2.962  0.5633  0.8181 -0.2999
 2909TIP3    H2 8734   4.197   0.010   2.817 -0.4387  0.5286 -0.0694
 2910TIP3   OH2 8735   3.907   5.761   5.064 -0.3384 -0.3149 -0.0518
 2910TIP3    H1 8736   3.941   5.686   5.016 -1.0178 -0.2514 -0.6462
 2910TIP3    H2 8737   3.966   5.833   5.042 -1.2424 -0.0256 -1.6636
 2911TIP3   OH2 8738   3.710   4.757   1.241  0.1829 -0.1005 -0.3238
 2911TIP3    H1 8739   3.666   4.687   1.289  1.0033 -0.2692  0.1972
 2911TIP3    H2 8740   3.696   4.836   1.294 -0.4932  0.0865 -0.7641
 2912TIP3   OH2 8741   5.836   2.370   0.284  0.5700 -0.5184  0.1519
 2912TIP3    H1 8742   5.771   2.387   0.217 -0.2472  0.1624  1.0883
 2912TIP3    H2 8743   5.906   2.433   0.268  0.1316 -0.0042  0.2548
 2913TIP3   OH2 8744   2.355   5.607   2.985  0.5224  0.2147 -0.0094
 2913TIP3    H1 8745   2.295   5.625   3.057  1.1874  0.4071  0.5130
 2913TIP3    H2 8746   2.311   5.540   2.933  0.7281 -1.1551  1.4751
 2914TIP3   OH2 8747   4.453   2.954   1.169  0.0611 -0.4069 -0.6027
 2914TIP3    H1 8748   4.477   2.933   1.260 -0.7776 -3.0331 -0.8977
 2914TIP3    H2 8749   4.379   3.014   1.177  0.0634 -0.5144  0.4403
 2915TIP3   OH2 8750   2.871   1.748   3.992 -0.1224  0.9029 -0.2603
 2915TIP3    H1 8751   2.851   1.825   3.939 -1.2064  0.5902 -0.3448
 2915TIP3    H2 8752   2.855   1.776   4.082 -4.6348 -0.2448 -0.4666
 2916TIP3   OH2 8753   2.427   0.568   0.123  0.0777 -0.0171  0.3659
 2916TIP3    H1 8754   2.468   0.609   0.047 -0.1434  0.3345  0.4340
 2916TIP3    H2 8755   2.373   0.497   0.086 -0.1326  0.2358  0.1853
 2917TIP3   OH2 8756   6.087   2.134   4.252 -0.1364 -0.1449  0.3993
 2917TIP3    H1 8757   6.060   2.044   4.270  0.0396 -0.3073 -0.1260
 2917TIP3    H2 8758   6.172   2.142   4.294  0.3403 -0.5682 -0.4577
 2918TIP3   OH2 8759   6.265   2.073   0.060  0.2242 -0.2026  0.0381
 2918TIP3    H1 8760   6.311   2.037  -0.016  0.7443  1.9332 -0.7199
 2918TIP3    H2 8761   6.334   2.114   0.113 -0.3773 -0.0181  0.7034
 2919TIP3   OH2 8762   3.249   2.640   3.785  0.2890 -0.3157  0.0517
 2919TIP3    H1 8763   3.202   2.701   3.729 -1.3253 -1.5192  0.0250
 2919TIP3    H2 8764   3.314   2.693   3.830 -0.5885  1.2701 -0.4971
 2920TIP3   OH2 8765   3.678   2.278   4.606  0.1657  0.3669  0.2103
 2920TIP3    H1 8766   3.639   2.245   4.687 -2.0862  0.1497 -0.8916
 2920TIP3    H2 8767   3.701   2.200   4.556  0.0552  0.4959 -0.0423
 2921TIP3   OH2 8768   0.364   0.408   2.882  0.6130 -0.6913  0.2730
 2921TIP3    H1 8769   0.282   0.432   2.839  0.6632 -0.0401  0.5257
 2921TIP3    H2 8770   0.374   0.472   2.952  2.0944  0.1810 -0.6921
 2922TIP3   OH2 8771   5.152   0.884   1.352  0.1965  0.1565  0.2247
 2922TIP3    H1 8772   5.146   0.789   1.343 -0.6202  0.3369 -1.5019
 2922TIP3    H2 8773   5.062   0.914   1.341  0.4047  1.1200  1.0792
 2923TIP3   OH2 8774   0.832   3.386   1.045 -0.1522 -0.1071  0.3319
 2923TIP3    H1 8775   0.764   3.413   0.984  1.4420 -0.1977 -1.6012
 2923TIP3    H2 8776   0.866   3.468   1.081  0.7721  0.1677 -1.0925
 2924TIP3   OH2 8777   1.621   2.869   4.606 -0.0832 -0.3199 -0.1475
 2924TIP3    H1 8778   1.576   2.844   4.687 -2.5148 -1.3644 -1.7050
 2924TIP3    H2 8779   1.611   2.964   4.601 -0.3079 -0.2986  0.5495
 2925TIP3   OH2 8780   1.815   5.384   2.406 -0.1488  0.0374  0.3503
 2925TIP3    H1 8781   1.818   5.289   2.415  0.8337 -0.0272 -0.5024
 2925TIP3    H2 8782   1.722   5.406   2.416 -0.4135 -1.0175  0.3565
 2926TIP3   OH2 8783   2.706   3.662   1.254  0.4672  0.2114  0.9175
 2926TIP3    H1 8784   2.639   3.686   1.191  0.9891  0.1236  0.3217
 2926TIP3    H2 8785   2.711   3.736   1.314  1.6788  1.3839 -0.5775
 2927TIP3   OH2 8786   3.753   1.776   3.824  0.1745  0.2728 -0.2252
 2927TIP3    H1 8787   3.844   1.763   3.850 -0.1501  0.6171  1.1918
 2927TIP3    H2 8788   3.703   1.724   3.887 -0.7314  2.3914  0.9192
 2928TIP3   OH2 8789   2.509   4.474   2.769 -0.1628 -0.0733 -0.6144
 2928TIP3    H1 8790   2.427   4.512   2.799  0.6040  1.1963 -0.0007
 2928TIP3    H2 8791   2.522   4.397   2.823 -1.1047 -0.4701 -0.9453
 2929TIP3   OH2 8792   4.261   5.394   4.993 -0.4717  0.4664  0.8258
 2929TIP3    H1 8793   4.299   5.347   4.919 -1.6759 -1.0265  1.1054
 2929TIP3    H2 8794   4.330   5.454   5.022  0.4570  0.1906 -0.7090
 2930TIP3   OH2 8795   2.499   1.699   2.090  0.3020  0.0107 -0.1957
 2930TIP3    H1 8796   2.576   1.683   2.035  0.1804  0.6743 -0.5677
 2930TIP3    H2 8797   2.511   1.640   2.165  0.6580 -0.6219 -0.7425
 2931TIP3   OH2 8798   5.878   5.354   3.092 -0.2413  0.0406  0.0822
 2931TIP3    H1 8799   5.859   5.260   3.084  0.9735 -0.2835  0.7886
 2931TIP3    H2 8800   5.972   5.361   3.072 -0.2768  1.0858  0.2307
 2932TIP3   OH2 8801   5.606   5.351   1.238  0.3331 -0.0900 -0.1374
 2932TIP3    H1 8802   5.646   5.323   1.320  0.4862  1.8843  0.5201
 2932TIP3    H2 8803   5.613   5.275   1.180 -1.1031 -2.0538  2.0837
 2933TIP3   OH2 8804   1.567   5.530   1.023  0.0896 -0.0743 -0.1694
 2933TIP3    H1 8805   1.584   5.474   0.948  0.4342 -0.0502 -0.1090
 2933TIP3    H2 8806   1.475   5.515   1.044  0.2400 -0.7806 -0.0182
 2934TIP3   OH2 8807   3.221   5.255   0.853 -0.8803 -0.3058  0.2031
 2934TIP3    H1 8808   3.267   5.319   0.907  1.3266 -1.2886 -0.4138
 2934TIP3    H2 8809   3.203   5.182   0.913  0.0663 -0.6924  0.0346
 2935TIP3   OH2 8810   5.248   5.050   0.570  1.0150  0.2713  0.4067
 2935TIP3    H1 8811   5.166   5.001   0.561  0.6481  0.8115  0.7916
 2935TIP3    H2 8812   5.316   4.984   0.554  0.5025  0.1073 -1.3628
 2936TIP3   OH2 8813   0.600   3.190   0.493  0.4458  0.5452  0.0059
 2936TIP3    H1 8814   0.623   3.100   0.516 -0.9733  0.1532 -0.0340
 2936TIP3    H2 8815   0.582   3.232   0.576 -0.5661  0.3048 -0.0850
 2937TIP3   OH2 8816   2.011   2.513   1.300 -0.5409  0.2156  0.1911
 2937TIP3    H1 8817   2.092   2.556   1.327 -0.9173  0.5999  0.7087
 2937TIP3    H2 8818   1.968   2.575   1.242 -0.3727 -0.0746 -0.2552
 2938TIP3   OH2 8819   2.654   3.944   4.150 -1.0851  0.0037 -0.2625
 2938TIP3    H1 8820   2.656   3.911   4.240 -0.8726 -1.3564 -0.7399
 2938TIP3    H2 8821   2.635   4.037   4.159  0.2860  0.1864  1.2666
 2939TIP3   OH2 8822   3.531   2.365   1.896  0.1874 -0.5636 -0.0611
 2939TIP3    H1 8823   3.583   2.321   1.963  0.9297  1.4434  0.7599
 2939TIP3    H2 8824   3.486   2.436   1.942  0.9652  1.0812 -1.6520
 2940TIP3   OH2 8825   3.754   5.113   1.991  0.4809 -0.2735 -0.1980
 2940TIP3    H1 8826   3.765   5.154   1.905  0.2398 -0.5582 -0.3699
 2940TIP3    H2 8827   3.792   5.175   2.053 -0.6853  0.6402 -0.3473
 2941TIP3   OH2 8828   5.366   0.904   3.526  0.5510  0.1294 -0.2693
 2941TIP3    H1 8829   5.298   0.971   3.524  0.3894 -0.0165  0.2068
 2941TIP3    H2 8830   5.438   0.943   3.577 -0.1456 -0.6008  1.3508
 2942TIP3   OH2 8831   4.091   1.156   4.426 -0.1194 -0.0651 -0.1132
 2942TIP3    H1 8832   4.070   1.191   4.340  0.2758 -0.0635 -0.2104
 2942TIP3    H2 8833   4.137   1.227   4.470 -3.2170  1.2179  1.3470
 2943TIP3   OH2 8834   1.363   1.367   2.403  0.2582 -0.1770  0.1323
 2943TIP3    H1 8835   1.282   1.404   2.368  0.3451  0.1673  0.2837
 2943TIP3    H2 8836   1.431   1.426   2.370  0.4270 -0.3508  0.1702
 2944TIP3   OH2 8837   5.197   1.936   1.789 -0.2397  0.2327 -0.8334
 2944TIP3    H1 8838   5.183   2.001   1.858  1.2682 -0.0428 -0.2366
 2944TIP3    H2 8839   5.246   1.983   1.721 -0.1352  0.0266 -0.9028
 2945TIP3   OH2 8840   1.880   1.665   1.997 -0.4535  0.2223  0.1205
 2945TIP3    H1 8841   1.939   1.731   2.032 -0.2966  0.3327 -0.3524
 2945TIP3    H2 8842   1.910   1.650   1.908 -0.1659 -0.8510  0.3712
 2946TIP3   OH2 8843   1.531   0.351   4.022  0.2882  0.1598  0.1774
 2946TIP3    H1 8844   1.450   0.368   4.070 -0.1601  0.0900 -0.5295
 2946TIP3    H2 8845   1.596   0.409   4.061  0.0739 -0.2904  1.2201
 2947TIP3   OH2 8846   6.225   2.937   1.176 -0.2322 -0.0408 -0.5226
 2947TIP3    H1 8847   6.253   3.010   1.120  0.0181 -0.5514 -1.0666
 2947TIP3    H2 8848   6.305   2.886   1.191 -0.3235  0.0136  0.1924
 2948TIP3   OH2 8849   1.861   2.216   0.026  0.5159 -0.1375  0.0044
 2948TIP3    H1 8850   1.830   2.307   0.019  1.3940  0.2014  0.3784
 2948TIP3    H2 8851   1.951   2.224   0.058  0.9232 -1.0968 -0.8448
 2949TIP3   OH2 8852   6.035   3.087   0.034 -0.1045  0.9469  0.2723
 2949TIP3    H1 8853   5.962   3.025   0.037 -0.2573  1.1512  0.8601
 2949TIP3    H2 8854   6.104   3.045   0.085  0.6038  0.2535 -1.1735
 2950TIP3   OH2 8855   1.111   1.600   0.278 -0.1599 -0.3659  0.1696
 2950TIP3    H1 8856   1.045   1.627   0.214  0.5344 -0.1449 -0.4689
 2950TIP3    H2 8857   1.068   1.612   0.363 -0.6163  0.6569 -0.1934
 2951TIP3   OH2 8858   2.652   2.355   0.764  0.0198  0.5019 -0.0996
 2951TIP3    H1 8859   2.697   2.383   0.684 -0.3694 -1.5100 -1.0990
 2951TIP3    H2 8860   2.571   2.315   0.733  0.5768 -1.7628  1.1328
 2952TIP3   OH2 8861   0.612   0.273   4.519  0.1537  0.1325 -0.3175
 2952TIP3    H1 8862   0.521   0.291   4.541  0.3054  1.5195 -0.7338
 2952TIP3    H2 8863   0.637   0.343   4.459  1.1506 -0.8896 -1.1501
 2953TIP3   OH2 8864   5.663   4.506   2.394  0.3104 -0.1799  0.1051
 2953TIP3    H1 8865   5.640   4.594   2.364  2.1540 -0.0143 -1.0446
 2953TIP3    H2 8866   5.634   4.448   2.323 -0.0035 -0.3868  0.4003
 2954TIP3   OH2 8867   2.072   5.797   3.056  0.9393 -0.2847  0.0469
 2954TIP3    H1 8868   2.015   5.725   3.081 -0.1719  1.1152  1.7689
 2954TIP3    H2 8869   2.117   5.823   3.137 -0.5225  2.4810  0.1063
 2955TIP3   OH2 8870   2.722   5.397   0.398 -0.2589  0.6849  0.2209
 2955TIP3    H1 8871   2.766   5.316   0.423  0.1483  0.6683 -0.5397
 2955TIP3    H2 8872   2.764   5.465   0.450  0.4389  0.6195 -0.2428
 2956TIP3   OH2 8873   0.774   1.840   4.765 -0.3548 -0.2072 -0.6551
 2956TIP3    H1 8874   0.765   1.844   4.860  1.8920  0.7516 -0.4071
 2956TIP3    H2 8875   0.720   1.911   4.732 -1.4946 -0.8206 -0.1474
 2957TIP3   OH2 8876   2.963   4.262   3.025 -0.7096  0.1367  0.2325
 2957TIP3    H1 8877   3.034   4.203   2.997 -2.6129 -1.7417 -0.9406
 2957TIP3    H2 8878   2.917   4.213   3.093 -2.3748  0.1994 -0.8046
 2958TIP3   OH2 8879   4.835   3.707   3.115  0.5432 -0.2082  0.3347
 2958TIP3    H1 8880   4.799   3.794   3.134 -1.1167 -0.9914  1.0105
 2958TIP3    H2 8881   4.905   3.696   3.179 -0.9673 -0.3685  2.0676
 2959TIP3   OH2 8882   2.974   1.133   3.147  0.2401 -0.2425  0.3533
 2959TIP3    H1 8883   3.069   1.134   3.162  0.3569  0.0267 -0.3601
 2959TIP3    H2 8884   2.937   1.176   3.224  0.7534  0.3886  0.2503
 2960TIP3   OH2 8885   0.230   5.368   0.926  0.0334  0.4937 -0.1506
 2960TIP3    H1 8886   0.140   5.336   0.913 -0.0829  0.3819  0.8126
 2960TIP3    H2 8887   0.273   5.299   0.975  0.1656  1.2356  0.8150
 2961TIP3   OH2 8888   2.012   2.599   1.634 -0.1395  0.2073 -0.4505
 2961TIP3    H1 8889   2.043   2.687   1.613 -0.4040  0.3607 -0.1989
 2961TIP3    H2 8890   2.059   2.542   1.573 -1.0070  0.6492 -1.5764
 2962TIP3   OH2 8891   3.958   2.264   2.332 -0.6669  0.0026  0.6950
 2962TIP3    H1 8892   3.923   2.235   2.248 -0.3777  0.2199  0.4968
 2962TIP3    H2 8893   3.949   2.188   2.389 -2.7443  0.4437  1.0539
 2963TIP3   OH2 8894   4.742   3.944   3.230 -0.2437  0.4574 -0.1664
 2963TIP3    H1 8895   4.672   3.975   3.287 -0.5011  0.1584 -0.3157
 2963TIP3    H2 8896   4.811   4.009   3.240 -0.1407  0.2188  0.7618
 2964TIP3   OH2 8897   2.530   4.240   0.686  0.3217 -0.4327 -0.0581
 2964TIP3    H1 8898   2.434   4.239   0.679  0.2533 -3.4681 -0.0037
 2964TIP3    H2 8899   2.548   4.188   0.764  2.0322  1.3332  0.7985
 2965TIP3   OH2 8900   5.998   0.294   3.480 -0.4956 -0.8991 -0.6013
 2965TIP3    H1 8901   6.003   0.236   3.556  0.2633  1.8231  1.6047
 2965TIP3    H2 8902   6.072   0.354   3.491 -1.3147  0.5956 -2.6213
 2966TIP3   OH2 8903   1.015   2.333   3.738  0.3765 -0.0440 -0.7546
 2966TIP3    H1 8904   1.071   2.269   3.696  0.4840  0.8715 -2.0482
 2966TIP3    H2 8905   0.931   2.288   3.749  1.2811 -1.4113  1.1752
 2967TIP3   OH2 8906   2.867   0.113   2.207  0.6183  0.0903  0.3028
 2967TIP3    H1 8907   2.953   0.154   2.219  0.0239  0.8243  2.8113
 2967TIP3    H2 8908   2.839   0.140   2.120  1.4570  2.8364  0.7657
 2968TIP3   OH2 8909   1.907   1.907   3.115 -0.2654 -0.6196  0.6577
 2968TIP3    H1 8910   1.914   1.945   3.027  1.0674 -1.0323  0.5629
 2968TIP3    H2 8911   1.822   1.937   3.147 -0.3952  0.2567 -0.4332
 2969TIP3   OH2 8912   4.150   4.230   0.656 -0.9391  0.2327  0.1065
 2969TIP3    H1 8913   4.224   4.279   0.692  0.7523 -2.7995  1.1455
 2969TIP3    H2 8914   4.089   4.220   0.729 -1.1402  0.5034 -0.0215
 2970TIP3   OH2 8915   2.772   1.086   3.727 -0.0185 -0.4975  0.0848
 2970TIP3    H1 8916   2.830   1.038   3.786  0.0868 -0.3354  0.1138
 2970TIP3    H2 8917   2.739   1.020   3.666  0.4936 -0.5198 -0.1649
 2971TIP3   OH2 8918   3.851   5.041   0.882 -0.3933  0.2872 -0.2636
 2971TIP3    H1 8919   3.882   4.963   0.927  0.4231  0.4896 -0.4527
 2971TIP3    H2 8920   3.756   5.035   0.886 -0.3339  0.1337  1.1663
 2972TIP3   OH2 8921   2.059   2.094   4.101  0.2305 -0.2536 -0.1224
 2972TIP3    H1 8922   2.113   2.170   4.123  0.8118 -0.8728  0.6658
 2972TIP3    H2 8923   2.000   2.084   4.175 -0.8358  0.2760 -0.8759
 2973TIP3   OH2 8924   3.681   3.888   0.150 -0.2290  0.2968 -0.0328
 2973TIP3    H1 8925   3.686   3.816   0.088 -1.7549  1.4090 -1.5346
 2973TIP3    H2 8926   3.648   3.962   0.099  1.8011  2.2598  1.3004
 2974TIP3   OH2 8927   3.189   4.416   3.883  0.2604  0.0172  0.0981
 2974TIP3    H1 8928   3.269   4.408   3.831 -0.9661  0.7867 -2.0615
 2974TIP3    H2 8929   3.175   4.510   3.891 -0.3339 -0.1073  0.5804
 2975TIP3   OH2 8930   4.277   2.741   2.032 -0.1209 -0.0898 -0.3122
 2975TIP3    H1 8931   4.233   2.795   1.967  0.7589  0.5447 -0.4044
 2975TIP3    H2 8932   4.307   2.664   1.983 -3.0605 -1.6868  0.1998
 2976TIP3   OH2 8933   4.507   0.849   4.006  0.1202  0.4872  0.4578
 2976TIP3    H1 8934   4.437   0.869   4.068  0.3234 -0.8806  1.1539
 2976TIP3    H2 8935   4.486   0.762   3.974  1.1504  0.3447  0.1613
 2977TIP3   OH2 8936   3.409   1.408   5.112 -0.0218 -0.1546 -0.3452
 2977TIP3    H1 8937   3.374   1.426   5.025 -0.7925 -0.3825 -0.0880
 2977TIP3    H2 8938   3.332   1.406   5.169  0.5709  1.0139  0.5262
 2978TIP3   OH2 8939   2.916   4.263   3.529  0.2280 -0.2172 -0.1083
 2978TIP3    H1 8940   2.891   4.355   3.517 -0.1491  0.0796  2.4254
 2978TIP3    H2 8941   2.982   4.265   3.598 -0.8842 -1.9441  1.0840
 2979TIP3   OH2 8942   3.267   2.050   2.726 -0.5675  0.2011  0.9210
 2979TIP3    H1 8943   3.255   2.115   2.657  2.5114  0.8793  0.9044
 2979TIP3    H2 8944   3.230   1.970   2.689 -1.2483  1.0998 -0.4645
 2980TIP3   OH2 8945   4.660   5.103   1.318  0.1742 -0.3726  0.1716
 2980TIP3    H1 8946   4.674   5.184   1.268 -0.0464  0.1026  0.8616
 2980TIP3    H2 8947   4.712   5.037   1.272 -1.2256 -0.3295 -1.5989
 2981TIP3   OH2 8948   5.987   1.668   1.673  0.2051 -0.5323 -0.3566
 2981TIP3    H1 8949   6.045   1.639   1.743  0.7052 -0.2784 -0.6613
 2981TIP3    H2 8950   6.014   1.758   1.655 -0.4721 -0.3098 -0.3125
 2982TIP3   OH2 8951   6.100   2.703   1.226  0.6207 -0.1283 -0.4465
 2982TIP3    H1 8952   6.171   2.642   1.243  0.9610 -0.0361 -1.4658
 2982TIP3    H2 8953   6.143   2.788   1.214  0.2828  0.0556 -0.3815
 2983TIP3   OH2 8954   3.508   3.661   2.018  0.1344  0.5658 -0.2340
 2983TIP3    H1 8955   3.601   3.661   2.042 -0.0776  0.6449  0.6245
 2983TIP3    H2 8956   3.478   3.573   2.038 -0.2089  0.8340  0.4432
 2984TIP3   OH2 8957   3.705   0.298   2.891 -0.0233 -0.2145 -0.1367
 2984TIP3    H1 8958   3.629   0.243   2.875  0.2156 -0.2567 -1.1618
 2984TIP3    H2 8959   3.690   0.333   2.980 -2.0809  1.1115 -0.9114
 2985TIP3   OH2 8960   3.179   4.686   3.060 -0.2652 -0.2294  0.4182
 2985TIP3    H1 8961   3.121   4.627   3.109  1.0507 -0.6722  1.5037
 2985TIP3    H2 8962   3.248   4.629   3.026 -0.3635  0.3110 -0.7454
 2986TIP3   OH2 8963   2.012   3.955   2.968 -0.4110  0.4898 -0.3233
 2986TIP3    H1 8964   1.931   3.905   2.964  0.2556 -0.7457  0.8613
 2986TIP3    H2 8965   2.041   3.961   2.877 -1.2911  0.0288 -0.6447
 2987TIP3   OH2 8966   5.230   4.422   2.295  0.6340  0.0714 -0.2755
 2987TIP3    H1 8967   5.184   4.348   2.336 -1.4054  0.9189 -0.9173
 2987TIP3    H2 8968   5.224   4.492   2.359  1.6202  0.0225 -0.1156
 2988TIP3   OH2 8969   1.610   4.029   0.828  0.3561  0.2542 -0.2733
 2988TIP3    H1 8970   1.648   3.963   0.770 -2.4753 -1.6742 -0.1612
 2988TIP3    H2 8971   1.535   4.063   0.778  0.8141  2.2456  0.3371
 2989TIP3   OH2 8972   1.754   0.495   4.141  0.1729 -0.6602 -0.0559
 2989TIP3    H1 8973   1.799   0.579   4.152 -0.5096 -0.0280 -1.8059
 2989TIP3    H2 8974   1.822   0.430   4.159  0.7061  0.2270  1.3757
 2990TIP3   OH2 8975   4.159   0.134   1.400 -0.3984  0.6375  0.0170
 2990TIP3    H1 8976   4.220   0.199   1.365 -0.4381  0.5238 -0.2721
 2990TIP3    H2 8977   4.210   0.087   1.467 -0.2538  0.7239 -0.0313
 2991TIP3   OH2 8978   5.973   5.775   2.145 -0.2245  0.3678  0.5384
 2991TIP3    H1 8979   5.960   5.680   2.146 -1.8886  0.5791  1.7980
 2991TIP3    H2 8980   5.888   5.812   2.167  1.1382  2.0578  3.5448
 2992TIP3   OH2 8981   6.267   0.221   2.336  0.3151  0.2108  0.1956
 2992TIP3    H1 8982   6.308   0.304   2.310  2.0434  0.1977  2.5260
 2992TIP3    H2 8983   6.179   0.246   2.364  0.1221  0.9324 -1.0029
 2993TIP3   OH2 8984   3.226   2.747   2.352 -0.7788 -0.3440 -0.3104
 2993TIP3    H1 8985   3.191   2.791   2.429 -0.5354 -0.5555 -0.0778
 2993TIP3    H2 8986   3.321   2.749   2.364 -0.7654 -0.9534 -0.2808
 2994TIP3   OH2 8987   2.516   2.146   0.087  0.3755  0.2849 -0.0641
 2994TIP3    H1 8988   2.597   2.124   0.042  0.7433 -0.9013  1.0937
 2994TIP3    H2 8989   2.504   2.240   0.072  0.9702  0.1161 -1.7791
 2995TIP3   OH2 8990   2.478   3.986   3.381  0.2798  0.2226 -0.3989
 2995TIP3    H1 8991   2.411   4.038   3.425  0.6193 -0.9490  1.6305
 2995TIP3    H2 8992   2.540   4.051   3.348 -1.0026  1.2400 -0.8977
 2996TIP3   OH2 8993   5.421   5.675   1.439  0.4057  0.3839 -0.5452
 2996TIP3    H1 8994   5.429   5.769   1.453  2.1153  0.3380 -0.9140
 2996TIP3    H2 8995   5.512   5.644   1.437 -0.1034 -1.6121  1.7270
 2997TIP3   OH2 8996   0.815   0.943   4.060  0.1665 -0.1281 -0.7427
 2997TIP3    H1 8997   0.790   0.873   4.119 -1.3799  1.7662  1.0043
 2997TIP3    H2 8998   0.763   0.928   3.981 -0.7640 -0.4966 -0.0736
 2998TIP3   OH2 8999   6.203   4.077   1.605 -0.2455 -0.3990 -0.3977
 2998TIP3    H1 9000   6.166   4.028   1.679  1.5152 -0.3651  0.5570
 2998TIP3    H2 9001   6.220   4.164   1.641  1.1565 -0.5519 -0.6591
 2999TIP3   OH2 9002   0.477   5.065   3.415 -0.0350 -0.4898 -0.3474
 2999TIP3    H1 9003   0.554   5.013   3.393  0.1880  0.0972 -0.9718
 2999TIP3    H2 9004   0.435   5.082   3.331  0.5784  1.4013 -0.3064
 3000TIP3   OH2 9005   1.298   4.980   3.038  0.1039  0.6268  0.0022
 3000TIP3    H1 9006   1.346   5.021   3.109 -0.9011 -0.4134  1.3248
 3000TIP3    H2 9007   1.266   4.897   3.074  0.6227 -0.5540 -2.0395
 3001TIP3   OH2 9008   2.441   3.499   1.237 -0.5373 -0.0198  0.1547
 3001TIP3    H1 9009   2.346   3.505   1.242 -0.5263 -0.5359  1.6293
 3001TIP3    H2 9010   2.471   3.531   1.322  0.6799  1.2078 -0.6956
 3002TIP3   OH2 9011   0.807   3.522   2.026 -0.0530  0.2087 -0.1519
 3002TIP3    H1 9012   0.732   3.580   2.028 -1.3465 -1.3949  0.1498
 3002TIP3    H2 9013   0.797   3.466   2.103  1.6675  0.1837  0.1102
 3003TIP3   OH2 9014   4.180   2.742   2.653  0.0539  0.6195 -0.2619
 3003TIP3    H1 9015   4.154   2.693   2.574 -2.1523  0.4474  0.4793
 3003TIP3    H2 9016   4.144   2.829   2.639 -0.0950  0.6698  0.4164
 3004TIP3   OH2 9017   5.061   3.572   2.541 -0.1751  0.1088 -0.0804
 3004TIP3    H1 9018   5.093   3.645   2.487 -0.5096  0.1899 -0.1686
 3004TIP3    H2 9019   5.139   3.542   2.588  0.2487 -0.3264 -1.0249
 3005TIP3   OH2 9020   0.471   4.901   2.904 -0.3061  0.1778 -0.0917
 3005TIP3    H1 9021   0.389   4.943   2.930  1.0204  1.6162  2.1292
 3005TIP3    H2 9022   0.469   4.817   2.949 -0.2155  0.5686  0.6602
 3006TIP3   OH2 9023   0.303   4.872   0.908  0.5248 -0.4544  0.8980
 3006TIP3    H1 9024   0.355   4.880   0.828 -0.9126  0.7698  0.0067
 3006TIP3    H2 9025   0.214   4.856   0.876  0.2467 -2.0363  2.3476
 3007TIP3   OH2 9026   0.045   0.207   1.850 -0.1627 -0.3056 -0.6566
 3007TIP3    H1 9027   0.116   0.160   1.893 -0.5466 -1.9968 -1.8029
 3007TIP3    H2 9028   0.072   0.299   1.855  1.3624 -0.7616  0.2780
 3008TIP3   OH2 9029   1.049   4.106   0.628  0.5069 -0.4643 -0.6272
 3008TIP3    H1 9030   1.006   4.021   0.629  0.3114 -0.3706 -0.8794
 3008TIP3    H2 9031   1.092   4.111   0.543  1.7253 -0.8957 -0.0731
 3009TIP3   OH2 9032   4.717   3.601   1.052  0.1846  0.2039  0.0901
 3009TIP3    H1 9033   4.771   3.663   1.100  0.7072 -0.0544 -0.1491
 3009TIP3    H2 9034   4.773   3.571   0.980  0.3480 -1.3528  0.8160
 3010TIP3   OH2 9035   0.409   0.089   4.098  0.4265  0.5019 -0.0819
 3010TIP3    H1 9036   0.336   0.075   4.159  0.4800  1.0594  0.1135
 3010TIP3    H2 9037   0.366   0.102   4.013  0.3389 -0.0032 -0.1162
 3011TIP3   OH2 9038   1.858   2.054   4.300 -0.1370 -0.1687  0.9916
 3011TIP3    H1 9039   1.783   2.035   4.244  0.6187 -0.6479  0.1108
 3011TIP3    H2 9040   1.827   2.122   4.360 -1.0813  0.0695  0.2519
 3012TIP3   OH2 9041   5.330   1.799   4.738  0.1221 -0.1473  0.2044
 3012TIP3    H1 9042   5.408   1.745   4.753  0.6626  0.7143  0.5246
 3012TIP3    H2 9043   5.265   1.764   4.800  0.3265 -0.7143  0.1028
 3013TIP3   OH2 9044   0.188   5.660   5.132  0.0468 -0.0403  0.0671
 3013TIP3    H1 9045   0.111   5.658   5.075  0.2719  0.2971 -0.2497
 3013TIP3    H2 9046   0.236   5.738   5.105  0.1065  0.1802  0.7866
 3014TIP3   OH2 9047   1.509   3.777   4.615 -0.0177 -0.0365 -0.9165
 3014TIP3    H1 9048   1.456   3.698   4.601 -0.2073  0.0933 -0.9288
 3014TIP3    H2 9049   1.523   3.811   4.526 -1.2875  0.8320 -0.8029
 3015TIP3   OH2 9050   6.131   1.630   4.805  0.2934 -0.3829 -0.7907
 3015TIP3    H1 9051   6.217   1.588   4.809  0.6304  0.3744  2.6245
 3015TIP3    H2 9052   6.148   1.718   4.772  0.9829  0.0111  0.5666
 3016TIP3   OH2 9053   5.504   5.434   4.236 -0.9975  0.3565  0.0317
 3016TIP3    H1 9054   5.490   5.420   4.142 -0.1986  1.1909 -0.2237
 3016TIP3    H2 9055   5.415   5.435   4.272 -1.2992 -0.3834 -0.6433
 3017TIP3   OH2 9056   2.868   0.659   0.843  0.1517 -0.7976 -0.4320
 3017TIP3    H1 9057   2.811   0.617   0.907  0.4696  0.4541  0.7067
 3017TIP3    H2 9058   2.943   0.599   0.836  0.2505 -0.8237  0.6039
 3018TIP3   OH2 9059   6.022   3.313   2.577  0.1300 -0.6670  0.5190
 3018TIP3    H1 9060   6.059   3.315   2.665  1.6033  1.0603 -0.0665
 3018TIP3    H2 9061   5.945   3.256   2.584  1.0281 -1.7246  2.5639
 3019TIP3   OH2 9062   0.161   4.350   4.652 -0.5145  0.7222 -0.0273
 3019TIP3    H1 9063   0.143   4.335   4.745 -0.8730 -1.5388 -0.3829
 3019TIP3    H2 9064   0.080   4.323   4.608  0.4018 -0.3945 -1.0994
 3020TIP3   OH2 9065   3.886   0.185   0.926  0.2804 -0.2689 -0.2778
 3020TIP3    H1 9066   3.952   0.142   0.979 -0.0273 -1.0019 -0.4705
 3020TIP3    H2 9067   3.804   0.168   0.972  0.1368 -0.0467 -0.4535
 3021TIP3   OH2 9068   4.414   1.447   3.405  0.4822  0.0493  0.6477
 3021TIP3    H1 9069   4.346   1.379   3.399 -0.6885  1.0502  1.7912
 3021TIP3    H2 9070   4.490   1.401   3.439 -0.1045 -0.8180  0.8284
 3022TIP3   OH2 9071   1.839   1.446   2.886 -0.3125 -0.2167 -0.2185
 3022TIP3    H1 9072   1.823   1.488   2.971 -0.7722 -0.8402  0.0108
 3022TIP3    H2 9073   1.931   1.463   2.867  0.1487 -1.1912  1.0373
 3023TIP3   OH2 9074   4.667   5.480   3.159 -0.2055  0.6096 -0.0492
 3023TIP3    H1 9075   4.699   5.459   3.072 -0.2230 -0.7427  0.2503
 3023TIP3    H2 9076   4.571   5.481   3.151 -0.2685 -0.9240  0.2281
 3024TIP3   OH2 9077   1.013   2.276   1.524  0.9062  0.7031  0.4494
 3024TIP3    H1 9078   0.953   2.350   1.520 -0.4986 -0.4372 -2.0809
 3024TIP3    H2 9079   0.974   2.216   1.587 -0.1499  0.3796 -0.4930
 3025TIP3   OH2 9080   3.858   5.045   5.024 -0.5700  0.2037 -0.0074
 3025TIP3    H1 9081   3.904   5.090   5.095 -0.7275  2.2031 -1.0889
 3025TIP3    H2 9082   3.852   4.954   5.053 -0.6567  0.9428  2.5329
 3026TIP3   OH2 9083   6.344   0.555   0.318  0.3709  0.7069 -0.0772
 3026TIP3    H1 9084   6.325   0.464   0.343 -0.2016  0.9921  0.5374
 3026TIP3    H2 9085   6.303   0.565   0.232  1.2457  0.1052 -0.5730
 3027TIP3   OH2 9086   3.732   1.625   2.749  0.6502  0.1390  0.3027
 3027TIP3    H1 9087   3.784   1.568   2.693  0.7800 -0.6852  1.2276
 3027TIP3    H2 9088   3.690   1.686   2.689  0.7322 -0.7529 -0.6928
 3028TIP3   OH2 9089   3.751   1.915   0.260 -0.3142 -0.1142  0.0758
 3028TIP3    H1 9090   3.719   1.898   0.349 -2.4470 -2.5145 -0.9920
 3028TIP3    H2 9091   3.764   1.828   0.223  0.5620  0.8253 -1.9680
 3029TIP3   OH2 9092   2.751   1.314   1.254 -0.3880 -0.3212  0.2605
 3029TIP3    H1 9093   2.787   1.237   1.299  0.5380  0.2024  0.4516
 3029TIP3    H2 9094   2.780   1.388   1.306  1.1056  0.3464 -1.3972
 3030TIP3   OH2 9095   4.163   0.085   2.329 -0.4570 -0.0370 -0.2408
 3030TIP3    H1 9096   4.113   0.006   2.309  1.6031 -1.7509  0.9510
 3030TIP3    H2 9097   4.177   0.126   2.244 -3.1311  0.1080 -0.6910
 3031TIP3   OH2 9098   3.747   1.022   0.640  0.5933 -0.2626 -0.1237
 3031TIP3    H1 9099   3.691   1.083   0.591  0.1485  0.4927  1.2818
 3031TIP3    H2 9100   3.805   0.985   0.573  0.4842  1.2558 -1.1149
 3032TIP3   OH2 9101   5.142   2.779   2.128 -0.1949  0.2010 -0.2536
 3032TIP3    H1 9102   5.087   2.851   2.157 -1.1982 -0.6672  0.0303
 3032TIP3    H2 9103   5.186   2.748   2.207 -0.5030 -0.1139 -0.2024
 3033TIP3   OH2 9104   1.589   1.662   4.975 -0.0651 -0.5937  0.0739
 3033TIP3    H1 9105   1.500   1.675   5.009 -0.1955  0.9650 -0.7667
 3033TIP3    H2 9106   1.596   1.568   4.959 -0.6376 -1.1448  2.5956
 3034TIP3   OH2 9107   4.819   2.807   1.631  0.1792  0.6925 -0.5000
 3034TIP3    H1 9108   4.773   2.885   1.599 -1.0711 -0.2605 -1.1110
 3034TIP3    H2 9109   4.751   2.740   1.635  1.6191 -0.9440 -1.9652
 3035TIP3   OH2 9110   4.412   1.819   4.613 -0.1920 -0.3114 -0.0023
 3035TIP3    H1 9111   4.462   1.888   4.570 -0.2380  0.1409  0.6652
 3035TIP3    H2 9112   4.322   1.831   4.580 -0.3132  0.2982  0.5288
 3036TIP3   OH2 9113   3.214   5.875   4.940  0.0654  0.2131 -0.1776
 3036TIP3    H1 9114   3.127   5.878   4.981  0.4261 -0.8803  0.7115
 3036TIP3    H2 9115   3.267   5.936   4.991  0.8017 -1.9309  1.7856
 3037TIP3   OH2 9116   4.718   1.577   3.561  0.0868  0.1271 -0.2017
 3037TIP3    H1 9117   4.671   1.640   3.507 -0.8370  1.4427  2.0187
 3037TIP3    H2 9118   4.672   1.494   3.546  0.1251  0.3380 -1.6889
 3038TIP3   OH2 9119   2.959   2.631   3.598 -0.2229 -0.1841 -0.1215
 3038TIP3    H1 9120   3.038   2.584   3.570  0.7456  1.4002 -0.2021
 3038TIP3    H2 9121   2.942   2.599   3.686  0.1110 -1.0441 -0.3596
 3039TIP3   OH2 9122   0.423   4.030   2.358  0.2581  0.3499 -0.5042
 3039TIP3    H1 9123   0.456   4.118   2.342 -0.5881  0.6835 -0.4618
 3039TIP3    H2 9124   0.365   4.012   2.284  0.5234 -0.2306 -0.5807
 3040TIP3   OH2 9125   3.074   2.186  -0.032 -0.1591  0.3580  0.1893
 3040TIP3    H1 9126   3.046   2.219   0.054 -0.2219  0.4241  0.1430
 3040TIP3    H2 9127   3.168   2.171  -0.022 -0.3780 -0.8902  0.6871
 3041TIP3   OH2 9128   1.424   5.022   1.506 -0.1964  0.3860 -0.3726
 3041TIP3    H1 9129   1.390   5.032   1.418 -0.3416  1.5245 -0.2131
 3041TIP3    H2 9130   1.362   5.070   1.561 -1.0090 -1.6343  0.5901
 3042TIP3   OH2 9131   4.815   2.320   0.686 -0.2228  0.0123 -0.0942
 3042TIP3    H1 9132   4.787   2.239   0.728 -0.5493  0.2138  0.0761
 3042TIP3    H2 9133   4.896   2.344   0.731 -0.3659  0.0225  0.1579
 3043TIP3   OH2 9134   5.558   3.887   4.714  0.1002  0.5354 -0.2189
 3043TIP3    H1 9135   5.495   3.957   4.734 -1.7176 -0.8128 -0.8525
 3043TIP3    H2 9136   5.508   3.806   4.729  1.3329 -0.5886 -1.8536
 3044TIP3   OH2 9137   0.374   4.353   4.472  0.5194 -0.0357 -0.5092
 3044TIP3    H1 9138   0.334   4.430   4.430 -2.0915 -0.1520  1.5175
 3044TIP3    H2 9139   0.337   4.352   4.561  2.7001 -2.0434  0.4847
 3045TIP3   OH2 9140   0.908   3.781   5.142  0.2082  0.4331  0.0098
 3045TIP3    H1 9141   0.913   3.819   5.054  1.3705 -0.1514 -0.1814
 3045TIP3    H2 9142   0.976   3.827   5.191  1.1176 -0.8591 -0.0212
 3046TIP3   OH2 9143   3.481   0.613   3.010 -0.1130 -0.8018  0.5051
 3046TIP3    H1 9144   3.481   0.633   3.103 -0.1065  2.0025 -0.0085
 3046TIP3    H2 9145   3.565   0.644   2.978 -0.8542  0.0669 -0.7141
 3047TIP3   OH2 9146   3.616   4.413   1.739 -0.4718 -0.5330 -0.0754
 3047TIP3    H1 9147   3.649   4.436   1.653 -0.8604  0.6894  0.0888
 3047TIP3    H2 9148   3.561   4.487   1.765  0.1755 -0.5573  1.5025
 3048TIP3   OH2 9149   0.517   3.084   4.188 -0.3390 -0.1382  0.0958
 3048TIP3    H1 9150   0.497   2.991   4.194  1.5003 -0.4638  2.7888
 3048TIP3    H2 9151   0.611   3.088   4.173 -0.5149  1.3351 -0.9189
 3049TIP3   OH2 9152   3.702   1.292   1.491  0.4030 -0.0986  0.0648
 3049TIP3    H1 9153   3.745   1.281   1.406 -0.3369  0.1544 -0.3490
 3049TIP3    H2 9154   3.625   1.346   1.473  0.8019  0.8638  1.0764
 3050TIP3   OH2 9155   2.290   4.157   4.099  0.2360  0.4219 -0.0581
 3050TIP3    H1 9156   2.262   4.100   4.028  0.2867 -0.3860  0.5583
 3050TIP3    H2 9157   2.382   4.135   4.114  0.2204  0.5675  0.2755
 3051TIP3   OH2 9158   0.103   2.422   1.667 -0.3805 -0.3227 -0.2031
 3051TIP3    H1 9159   0.016   2.402   1.701 -0.0090 -0.3867  0.7518
 3051TIP3    H2 9160   0.100   2.516   1.648 -1.3897 -0.7447 -2.4757
 3052TIP3   OH2 9161   5.630   2.099   4.556 -0.0257  0.0866 -0.0355
 3052TIP3    H1 9162   5.724   2.098   4.577  0.0638  2.3178 -0.1178
 3052TIP3    H2 9163   5.590   2.151   4.625 -1.3317 -1.2981  0.3039
 3053TIP3   OH2 9164   4.286   1.684   3.477  0.2303 -0.4204 -0.6623
 3053TIP3    H1 9165   4.303   1.592   3.456 -0.0458 -0.1441 -2.1856
 3053TIP3    H2 9166   4.373   1.722   3.491  0.3035 -1.1727  1.3458
 3054TIP3   OH2 9167   1.820   5.990   3.231 -0.3476  0.2845 -0.1916
 3054TIP3    H1 9168   1.876   5.912   3.229 -1.6614 -0.9138  2.9023
 3054TIP3    H2 9169   1.752   5.972   3.166 -0.1480 -0.7685 -0.1235
 3055TIP3   OH2 9170   1.835   5.923   4.325 -0.1728  0.2323  0.4084
 3055TIP3    H1 9171   1.877   5.957   4.245  0.1259  0.5338  0.6910
 3055TIP3    H2 9172   1.755   5.975   4.334  0.2731  0.8641  0.8290
 3056TIP3   OH2 9173   2.856   0.085   0.794  0.1035  0.6200  0.2959
 3056TIP3    H1 9174   2.866   0.035   0.713 -1.8179 -0.6765  0.7822
 3056TIP3    H2 9175   2.817   0.168   0.765 -0.9117  0.0256 -0.1048
 3057TIP3   OH2 9176   4.126   2.815   3.097 -0.0201 -0.2561  0.3740
 3057TIP3    H1 9177   4.168   2.891   3.057 -1.8201 -0.0240 -1.1817
 3057TIP3    H2 9178   4.035   2.840   3.108 -0.0459 -1.1307  2.7161
 3058TIP3   OH2 9179   5.410   2.498   0.119 -0.0612  0.3346 -0.2224
 3058TIP3    H1 9180   5.340   2.558   0.143 -0.6616 -0.4253 -0.0128
 3058TIP3    H2 9181   5.398   2.423   0.179  0.3570 -0.2009 -0.8023
 3059TIP3   OH2 9182   2.188   2.828   0.496  0.2946  0.1711  0.0890
 3059TIP3    H1 9183   2.266   2.877   0.522  0.5658 -1.1570  2.0516
 3059TIP3    H2 9184   2.221   2.741   0.475 -0.7270 -0.8442  2.3422
 3060TIP3   OH2 9185   2.965   3.351   4.800  0.5053 -0.2007  0.2865
 3060TIP3    H1 9186   3.007   3.398   4.728 -1.0561  0.4126 -0.2713
 3060TIP3    H2 9187   3.025   3.360   4.874  0.0546  3.1314  0.3694
 3061TIP3   OH2 9188   5.738   0.445   4.448  0.2581 -0.2665 -0.0438
 3061TIP3    H1 9189   5.766   0.353   4.444 -0.6302 -0.5266 -0.4631
 3061TIP3    H2 9190   5.667   0.445   4.511 -0.4693 -0.0646 -0.8484
 3062TIP3   OH2 9191   0.402   3.861   4.219 -0.4297 -0.2042 -0.7399
 3062TIP3    H1 9192   0.423   3.909   4.139 -0.3781 -0.6213 -0.9839
 3062TIP3    H2 9193   0.309   3.838   4.209 -0.7154  0.6854 -0.1733
 3063TIP3   OH2 9194   2.705   2.512   4.266 -0.0215 -0.4969 -0.1829
 3063TIP3    H1 9195   2.700   2.455   4.343 -1.3565  0.7268  0.6863
 3063TIP3    H2 9196   2.793   2.497   4.232  1.0237 -0.3217  2.2101
 3064TIP3   OH2 9197   0.859   4.809   3.867 -0.1017 -0.8042 -0.1432
 3064TIP3    H1 9198   0.822   4.785   3.782 -0.5976  2.4900 -0.9968
 3064TIP3    H2 9199   0.787   4.800   3.929 -1.2081  1.3492 -1.0173
 3065TIP3   OH2 9200   0.351   5.829   3.949 -0.1865  0.7682 -0.2315
 3065TIP3    H1 9201   0.395   5.886   4.013 -1.7886  1.8488 -0.0287
 3065TIP3    H2 9202   0.258   5.840   3.968 -0.5735 -1.9117 -0.2496
 3066TIP3   OH2 9203   3.443   3.638   0.235  0.5268 -0.4537 -0.3258
 3066TIP3    H1 9204   3.439   3.543   0.225 -1.3474 -0.2800 -2.0563
 3066TIP3    H2 9205   3.364   3.660   0.284  1.4567  0.1668  0.9478
 3067TIP3   OH2 9206   1.352   0.147   1.469  0.2908 -0.4153 -0.0687
 3067TIP3    H1 9207   1.362   0.241   1.452  1.0339 -0.2094  1.3741
 3067TIP3    H2 9208   1.423   0.107   1.419  1.3082  0.0154  0.9655
 3068TIP3   OH2 9209   3.045   2.916   0.596  0.2632  0.8969  0.0053
 3068TIP3    H1 9210   3.022   2.970   0.672  0.2958 -1.0609  1.4821
 3068TIP3    H2 9211   2.974   2.853   0.589  1.5618 -0.6544  0.1446
 3069TIP3   OH2 9212   2.170   5.454   4.283  0.1999 -0.3249 -0.1232
 3069TIP3    H1 9213   2.097   5.515   4.289  1.2331  0.8653  1.4466
 3069TIP3    H2 9214   2.244   5.502   4.322  2.1153 -1.0380 -2.6104
 3070TIP3   OH2 9215   6.355   3.738   4.623 -0.3295  0.6477  0.3572
 3070TIP3    H1 9216   6.324   3.827   4.607 -0.6894  0.9581  2.5070
 3070TIP3    H2 9217   6.307   3.685   4.559 -1.2160  1.8201  0.0083
 3071TIP3   OH2 9218   4.818   1.914   1.915  0.0535  0.5364  0.0164
 3071TIP3    H1 9219   4.726   1.894   1.929 -0.5637  1.9960 -1.6068
 3071TIP3    H2 9220   4.848   1.951   1.998 -0.8702  0.2092  0.5057
 3072TIP3   OH2 9221   1.788   0.738   1.933  0.1310 -0.4013  0.2454
 3072TIP3    H1 9222   1.854   0.675   1.904 -0.3860  0.5697 -3.5786
 3072TIP3    H2 9223   1.838   0.817   1.955  0.4015 -0.1550 -1.1623
 3073TIP3   OH2 9224   1.700   3.351   2.642  0.0193 -0.0215  0.0126
 3073TIP3    H1 9225   1.607   3.360   2.621 -0.5396 -0.1986  2.1322
 3073TIP3    H2 9226   1.731   3.441   2.650 -0.5604  0.0740  1.4969
 3074TIP3   OH2 9227   6.230   3.562   3.418 -0.0108 -0.1083 -0.3738
 3074TIP3    H1 9228   6.261   3.591   3.504  0.7925 -0.7793 -0.4215
 3074TIP3    H2 9229   6.309   3.533   3.373 -0.3779  0.6311 -1.5089
 3075TIP3   OH2 9230   2.036   3.595   4.810  0.4998  0.1525  0.1837
 3075TIP3    H1 9231   2.099   3.664   4.790  1.1951 -0.2070  1.0117
 3075TIP3    H2 9232   2.013   3.558   4.725  3.0675 -1.1040 -0.0848
 3076TIP3   OH2 9233   1.500   4.687   0.946  0.0157 -0.7430  0.1126
 3076TIP3    H1 9234   1.454   4.664   0.865  0.0258 -1.2182  0.2399
 3076TIP3    H2 9235   1.466   4.625   1.011 -0.4403  0.0258  0.6153
 3077TIP3   OH2 9236   5.768   4.668   3.587 -0.2155 -0.1130 -0.0902
 3077TIP3    H1 9237   5.675   4.646   3.582 -0.0299 -0.8170 -0.5974
 3077TIP3    H2 9238   5.798   4.629   3.668 -0.4932  0.6653  0.4017
 3078TIP3   OH2 9239   1.415   4.068   3.009  0.3628 -0.3321 -0.5928
 3078TIP3    H1 9240   1.458   4.098   2.929 -0.2542 -0.5868 -1.0259
 3078TIP3    H2 9241   1.398   3.975   2.993  0.2070 -0.3775 -0.1722
 3079TIP3   OH2 9242   1.273   3.294   0.893  0.9243  0.3266 -0.1483
 3079TIP3    H1 9243   1.284   3.385   0.921  0.3710  0.7127 -1.1489
 3079TIP3    H2 9244   1.259   3.245   0.975  1.4493  1.0945  0.4144
 3080TIP3   OH2 9245   0.882   1.709   2.615  0.6159 -0.6310  0.0769
 3080TIP3    H1 9246   0.964   1.750   2.589  1.0967 -1.0121  0.9414
 3080TIP3    H2 9247   0.908   1.629   2.662 -0.2099 -0.4126  0.9610
 3081TIP3   OH2 9248   0.738   0.530   3.165  0.3100 -0.1903  0.6001
 3081TIP3    H1 9249   0.705   0.476   3.093  1.6813  0.2491 -0.3923
 3081TIP3    H2 9250   0.811   0.481   3.201  0.8623  0.4933  0.4247
 3082TIP3   OH2 9251   4.134   1.683   0.570 -0.2678 -0.9189 -0.2546
 3082TIP3    H1 9252   4.159   1.687   0.477  0.2757  1.8155 -0.0818
 3082TIP3    H2 9253   4.217   1.687   0.617 -0.6498  1.6092  0.3080
 3083TIP3   OH2 9254   4.320   2.518   4.759 -0.3599 -0.0834 -0.8759
 3083TIP3    H1 9255   4.294   2.527   4.667 -0.4513 -0.9990 -0.9504
 3083TIP3    H2 9256   4.411   2.487   4.755 -0.1227  0.5637 -0.6441
 3084TIP3   OH2 9257   3.214   0.553   1.376 -0.1178  0.1792 -0.7219
 3084TIP3    H1 9258   3.165   0.537   1.457 -1.3034  0.2730 -1.3891
 3084TIP3    H2 9259   3.225   0.648   1.373  0.3776  0.1342 -0.4264
 3085TIP3   OH2 9260   5.665   4.308   1.573  0.2365 -0.4055  0.8245
 3085TIP3    H1 9261   5.691   4.217   1.560  2.8280  0.5965 -1.9577
 3085TIP3    H2 9262   5.712   4.335   1.652  0.4163 -1.1144  0.9657
 3086TIP3   OH2 9263   2.474   2.998   3.917 -0.6176 -0.4852 -0.6274
 3086TIP3    H1 9264   2.502   3.017   4.007 -1.6492  1.7744 -0.7395
 3086TIP3    H2 9265   2.461   2.903   3.917 -1.0095 -0.5011  1.7366
 3087TIP3   OH2 9266   5.822   2.938   1.145 -0.4540 -0.3582 -0.2559
 3087TIP3    H1 9267   5.729   2.953   1.133 -0.4570 -0.0621  0.1249
 3087TIP3    H2 9268   5.861   3.026   1.147 -0.1784 -0.4763 -0.3163
 3088TIP3   OH2 9269   2.447   4.259   2.486 -0.3828  0.4596  0.4132
 3088TIP3    H1 9270   2.542   4.252   2.476 -0.3017  0.1328  1.2548
 3088TIP3    H2 9271   2.414   4.269   2.397  0.3839 -0.1928  0.0398
 3089TIP3   OH2 9272   4.970   2.162   3.054  0.5084  0.0312  0.3710
 3089TIP3    H1 9273   4.974   2.096   3.123 -0.1596  0.4464  0.8061
 3089TIP3    H2 9274   4.917   2.122   2.986 -2.5217  1.2189  1.8762
 3090TIP3   OH2 9275   6.140   1.399   3.318 -0.3422 -0.8602  0.7033
 3090TIP3    H1 9276   6.167   1.344   3.244  2.1790  1.6666 -0.4562
 3090TIP3    H2 9277   6.052   1.429   3.294  0.2926 -0.3390 -1.2150
 3091TIP3   OH2 9278   0.927   3.283   4.660  0.4953 -0.0343  0.6600
 3091TIP3    H1 9279   0.937   3.271   4.565  0.0226 -0.6636  0.6832
 3091TIP3    H2 9280   0.987   3.354   4.681 -1.2144  1.8737 -0.5203
 3092TIP3   OH2 9281   3.447   1.366   4.384  0.0476 -0.9291 -1.1149
 3092TIP3    H1 9282   3.360   1.333   4.406 -0.1691 -1.5931 -2.7712
 3092TIP3    H2 9283   3.449   1.363   4.288  1.3237  0.5879 -1.1636
 3093TIP3   OH2 9284   1.872   4.208   4.395  0.1957  0.5438 -0.2269
 3093TIP3    H1 9285   1.800   4.144   4.395 -1.3104  2.0521 -2.6131
 3093TIP3    H2 9286   1.951   4.155   4.393 -0.9903 -1.3237 -2.0441
 3094TIP3   OH2 9287   3.989   2.714   0.780  0.4861 -0.2784 -0.4416
 3094TIP3    H1 9288   3.980   2.652   0.707 -1.2549 -0.5826 -0.0233
 3094TIP3    H2 9289   4.084   2.726   0.790  0.7850 -0.7493 -2.2922
 3095TIP3   OH2 9290   2.371   2.015   2.677 -0.5689  0.4612  0.2453
 3095TIP3    H1 9291   2.361   1.957   2.752  0.6130 -0.3916 -0.2201
 3095TIP3    H2 9292   2.348   1.961   2.601 -2.4577  1.5182 -0.0026
 3096TIP3   OH2 9293   5.387   2.649   2.257 -0.1811 -0.1430  0.2760
 3096TIP3    H1 9294   5.456   2.715   2.257 -0.9797  0.8026 -2.0083
 3096TIP3    H2 9295   5.402   2.598   2.177 -1.3551 -0.7307  0.4015
 3097TIP3   OH2 9296   0.970   5.003   1.837  0.4852 -0.3588  0.1073
 3097TIP3    H1 9297   0.882   5.015   1.872 -0.4260 -2.3576 -1.3060
 3097TIP3    H2 9298   1.024   4.980   1.912 -0.4579 -0.2559  0.8262
 3098TIP3   OH2 9299   1.082   5.691   4.593 -0.0976  0.0916 -0.1934
 3098TIP3    H1 9300   1.169   5.728   4.579 -0.6086  1.2401 -0.3689
 3098TIP3    H2 9301   1.056   5.656   4.507  0.3198 -0.5691 -0.0609
 3099TIP3   OH2 9302   0.124   2.959   1.676 -0.3078  0.1181 -0.2523
 3099TIP3    H1 9303   0.146   3.040   1.723  1.4677 -0.0173 -0.7809
 3099TIP3    H2 9304   0.104   2.989   1.587  1.6821 -0.0811 -0.8243
 3100TIP3   OH2 9305   4.622   2.738   4.618 -0.5715  0.0637 -0.3243
 3100TIP3    H1 9306   4.658   2.681   4.686 -0.4701  1.9747  1.3341
 3100TIP3    H2 9307   4.670   2.820   4.628 -3.1098  1.6465 -0.1644
 3101TIP3   OH2 9308   4.539   5.010   4.261 -0.2127  0.0289  0.4643
 3101TIP3    H1 9309   4.627   5.012   4.299 -0.3489 -0.0388  0.7855
 3101TIP3    H2 9310   4.546   4.948   4.187  0.2528  0.7730 -0.1325
 3102TIP3   OH2 9311   5.890   5.839   3.560  0.0886  0.2888 -0.6384
 3102TIP3    H1 9312   5.825   5.841   3.631  0.8631  0.4549  0.0862
 3102TIP3    H2 9313   5.919   5.748   3.557 -0.0106  0.2625 -0.8096
 3103TIP3   OH2 9314   2.601   1.698   3.803 -0.1997  0.2123  0.2889
 3103TIP3    H1 9315   2.593   1.794   3.804 -1.2767  0.1599 -0.7465
 3103TIP3    H2 9316   2.516   1.667   3.836 -0.5634 -0.3775 -1.1307
 3104TIP3   OH2 9317   2.183   1.545   2.222  0.3452 -0.4130 -0.1731
 3104TIP3    H1 9318   2.234   1.470   2.191 -1.3094 -2.1283  1.0305
 3104TIP3    H2 9319   2.199   1.547   2.317 -0.9860 -0.3757  0.0692
 3105TIP3   OH2 9320   5.449   5.605   0.788 -0.2972  0.3031  0.1902
 3105TIP3    H1 9321   5.430   5.626   0.696  0.3955 -0.4146 -0.1315
 3105TIP3    H2 9322   5.372   5.635   0.836 -0.6863  0.6511 -0.6334
 3106TIP3   OH2 9323   1.191   1.400   4.405 -0.2273  0.6159  0.3978
 3106TIP3    H1 9324   1.169   1.401   4.498  1.6067  0.4806  0.8690
 3106TIP3    H2 9325   1.224   1.312   4.389  2.4620  1.5262  0.4267
 3107TIP3   OH2 9326   0.139   0.154   1.063 -0.3730  0.8925 -0.2063
 3107TIP3    H1 9327   0.170   0.065   1.082  1.0045  1.1495 -1.0653
 3107TIP3    H2 9328   0.213   0.210   1.085 -0.6353  1.6679 -1.2334
 3108TIP3   OH2 9329   5.466   0.653   1.070 -0.2655 -0.1946 -0.1778
 3108TIP3    H1 9330   5.387   0.707   1.066  0.3229  0.6352 -2.9931
 3108TIP3    H2 9331   5.538   0.715   1.074  0.3300 -0.8811  0.1309
 3109TIP3   OH2 9332   1.432   2.656   0.526 -0.0491  0.5909 -0.2083
 3109TIP3    H1 9333   1.467   2.680   0.441 -1.2042  0.4795 -0.7340
 3109TIP3    H2 9334   1.498   2.597   0.564  0.3478  0.4241 -1.1408
 3110TIP3   OH2 9335   4.248   2.011   2.602 -0.1613 -0.3647 -0.4043
 3110TIP3    H1 9336   4.286   2.095   2.628 -0.3040  0.1989 -1.9096
 3110TIP3    H2 9337   4.266   2.004   2.508 -1.6719 -1.2007 -0.6731
 3111TIP3   OH2 9338   5.047   2.610   0.026  0.2478  0.0021  0.6383
 3111TIP3    H1 9339   5.113   2.574  -0.033 -1.9498  0.6915 -2.5334
 3111TIP3    H2 9340   5.087   2.691   0.060  0.9627  0.6257 -1.5097
 3112TIP3   OH2 9341   3.453   2.524   2.356 -0.0039  0.5982 -0.5638
 3112TIP3    H1 9342   3.447   2.566   2.270 -1.8643  2.2801  0.2986
 3112TIP3    H2 9343   3.457   2.597   2.418 -1.3169 -0.4969  0.8939
 3113TIP3   OH2 9344   5.205   1.124   3.501 -0.1118  0.1811 -0.0773
 3113TIP3    H1 9345   5.165   1.192   3.446  0.1455  0.4737  0.0915
 3113TIP3    H2 9346   5.223   1.169   3.584  2.6470  0.7289 -0.8709
 3114TIP3   OH2 9347   0.730   1.891   4.105  0.1414  0.1231 -0.6602
 3114TIP3    H1 9348   0.693   1.968   4.148  0.5344 -0.9087  1.6818
 3114TIP3    H2 9349   0.819   1.918   4.080 -1.1730  1.8215 -4.1040
 3115TIP3   OH2 9350   1.021   4.870   4.083 -0.9352  0.0219  0.3354
 3115TIP3    H1 9351   0.974   4.859   4.000  1.0454  0.6798 -0.9429
 3115TIP3    H2 9352   1.014   4.964   4.103  1.5562  0.5929 -1.0492
 3116TIP3   OH2 9353   1.925   3.815   4.651 -0.2948  0.3370  0.3850
 3116TIP3    H1 9354   1.934   3.753   4.579  0.5187  0.4442  0.3872
 3116TIP3    H2 9355   2.014   3.829   4.682 -0.4608  1.4960  0.3935
 3117TIP3   OH2 9356   5.248   4.305   2.040  0.9250  0.2150  0.3059
 3117TIP3    H1 9357   5.221   4.336   2.127 -1.4408  0.7932 -0.5717
 3117TIP3    H2 9358   5.232   4.211   2.042 -0.9163  0.4792 -0.0436
 3118TIP3   OH2 9359   5.213   3.737   1.519  0.1276  0.5664 -0.0526
 3118TIP3    H1 9360   5.168   3.822   1.511  0.5991  0.7039 -1.4853
 3118TIP3    H2 9361   5.257   3.725   1.435  1.5119 -0.2930  0.7570
 3119TIP3   OH2 9362   4.407   0.822   3.318 -0.1528 -0.4182 -0.2206
 3119TIP3    H1 9363   4.367   0.849   3.235 -1.6541 -0.9600  0.2954
 3119TIP3    H2 9364   4.357   0.870   3.384  0.5832 -0.5228  0.4192
 3120TIP3   OH2 9365   6.083   5.881   0.140 -0.0682  0.2342  0.0853
 3120TIP3    H1 9366   6.085   5.797   0.185  1.2273  0.1321 -0.1342
 3120TIP3    H2 9367   6.168   5.888   0.096  0.0806  1.9103  0.5557
 3121TIP3   OH2 9368   1.376   0.904   0.429 -0.1787  0.3993 -0.1318
 3121TIP3    H1 9369   1.386   0.847   0.506 -1.0093  0.2685 -0.1100
 3121TIP3    H2 9370   1.331   0.849   0.365  1.0883  0.2924 -0.9729
 3122TIP3   OH2 9371   3.112   3.266   2.300  0.3925  0.2952 -0.3769
 3122TIP3    H1 9372   3.182   3.220   2.348 -0.3796 -0.2644  0.2345
 3122TIP3    H2 9373   3.044   3.200   2.288  0.0967  0.7522 -1.2514
 3123TIP3   OH2 9374   4.564   2.430   4.689 -0.3387  0.1353  0.0679
 3123TIP3    H1 9375   4.632   2.486   4.727 -0.8383  0.7013  0.1548
 3123TIP3    H2 9376   4.589   2.423   4.597  0.2692 -0.3199  0.2631
 3124TIP3   OH2 9377   0.355   5.623   2.858  0.2301  0.1202 -0.0002
 3124TIP3    H1 9378   0.308   5.683   2.800  0.6293 -0.7668 -1.3034
 3124TIP3    H2 9379   0.306   5.625   2.940 -0.0385  1.8193 -0.1797
 3125TIP3   OH2 9380   2.575   5.038   5.136  0.1116  0.3820  0.0243
 3125TIP3    H1 9381   2.587   5.123   5.179  1.7497 -0.6980  1.9011
 3125TIP3    H2 9382   2.659   4.993   5.148 -1.0266 -1.8907  0.0485
 3126TIP3   OH2 9383   0.642   5.144   2.539  0.2381 -0.2689 -0.1636
 3126TIP3    H1 9384   0.702   5.098   2.597  1.9308  3.4513  1.3913
 3126TIP3    H2 9385   0.556   5.132   2.580  1.0535  0.2483  1.8250
 3127TIP3   OH2 9386   4.812   0.231   3.949  0.1309 -0.0629  0.7087
 3127TIP3    H1 9387   4.750   0.230   4.021 -1.5505  0.9978 -0.6470
 3127TIP3    H2 9388   4.891   0.270   3.986 -0.9097  1.0973  1.8233
 3128TIP3   OH2 9389   2.853   2.018   1.652 -0.1286 -0.1167  0.1831
 3128TIP3    H1 9390   2.935   2.043   1.695  1.2409  1.0607 -2.7966
 3128TIP3    H2 9391   2.807   1.964   1.716  1.3371  2.0733  3.2917
 3129TIP3   OH2 9392   1.677   4.947   1.513 -0.3022 -0.1515 -0.0495
 3129TIP3    H1 9393   1.680   4.904   1.599  0.5722 -1.3548 -0.6600
 3129TIP3    H2 9394   1.601   5.005   1.518  0.7757  1.2214  2.1975
 3130TIP3   OH2 9395   5.600   4.668   0.563 -0.2764  0.0067  0.1523
 3130TIP3    H1 9396   5.558   4.596   0.609 -1.9575  0.4082 -0.7027
 3130TIP3    H2 9397   5.631   4.630   0.481 -0.6766  0.1285 -0.0572
 3131TIP3   OH2 9398   5.861   0.369   2.871 -0.4206  0.4576  0.4661
 3131TIP3    H1 9399   5.937   0.418   2.840  0.8501 -1.1907  0.8200
 3131TIP3    H2 9400   5.829   0.418   2.946  1.3463  0.3436  1.3525
 3132TIP3   OH2 9401   3.531   2.825   3.851  0.1007  0.0150  0.3088
 3132TIP3    H1 9402   3.627   2.827   3.848  0.2436 -2.8618 -0.5097
 3132TIP3    H2 9403   3.510   2.815   3.944  0.6125  0.3958  0.4685
 3133TIP3   OH2 9404   6.108   2.772   3.588  0.7761  0.5456 -0.1678
 3133TIP3    H1 9405   6.138   2.862   3.574 -0.3104  1.1560  1.1421
 3133TIP3    H2 9406   6.154   2.744   3.667 -0.6149  0.8275  0.7809
 3134TIP3   OH2 9407   0.360   4.137   2.821 -0.5367  0.0710  0.3211
 3134TIP3    H1 9408   0.436   4.191   2.800 -0.5843  0.1781  0.4250
 3134TIP3    H2 9409   0.309   4.135   2.740 -0.3850 -0.0658  0.2272
 3135TIP3   OH2 9410   2.392   3.242   4.934 -0.0034 -0.0580  0.0484
 3135TIP3    H1 9411   2.486   3.224   4.940 -0.0176 -0.3853 -0.6239
 3135TIP3    H2 9412   2.370   3.285   5.017  0.3368 -1.7528  1.0654
 3136TIP3   OH2 9413   1.916   0.801   1.570 -0.4337  0.8516 -0.2139
 3136TIP3    H1 9414   1.831   0.811   1.612  0.1077  0.8344  0.9154
 3136TIP3    H2 9415   1.922   0.707   1.551 -1.3598  1.0829 -1.8623
 3137TIP3   OH2 9416   0.368   0.606   1.212  0.1983 -0.2207 -0.4191
 3137TIP3    H1 9417   0.292   0.664   1.222  0.2507 -0.4768  1.9658
 3137TIP3    H2 9418   0.372   0.589   1.118 -1.7152  1.1029 -0.8123
 3138TIP3   OH2 9419   2.819   4.898   4.616 -0.4030 -0.1965 -0.0259
 3138TIP3    H1 9420   2.725   4.877   4.615 -0.4724  0.1020 -0.7810
 3138TIP3    H2 9421   2.827   4.969   4.679 -0.7134 -0.1219 -0.0665
 3139TIP3   OH2 9422   1.836   0.665   4.935  0.1073  0.4466  0.2628
 3139TIP3    H1 9423   1.847   0.649   5.028  0.6361  1.3418  0.3688
 3139TIP3    H2 9424   1.924   0.655   4.898  0.4015  2.5533  0.2757
 3140TIP3   OH2 9425   1.208   1.837   2.862 -0.2851 -0.6912 -0.7935
 3140TIP3    H1 9426   1.150   1.895   2.813  0.5594  1.5693  0.7043
 3140TIP3    H2 9427   1.296   1.856   2.827 -0.0313 -1.3113 -0.5060
 3141TIP3   OH2 9428   2.214   3.136   4.650 -0.1146 -0.5506 -0.0974
 3141TIP3    H1 9429   2.163   3.180   4.583  0.2236  0.7279  0.4371
 3141TIP3    H2 9430   2.239   3.053   4.611 -1.1134 -0.4489 -1.0096
 3142TIP3   OH2 9431   5.305   4.206   3.017  0.0057 -0.2681  0.0324
 3142TIP3    H1 9432   5.257   4.137   3.062  0.0134  0.1876  0.7690
 3142TIP3    H2 9433   5.238   4.266   2.985 -0.0524 -1.0638 -1.4013
 3143TIP3   OH2 9434   1.812   1.046   2.496 -0.3377 -0.2031  0.5824
 3143TIP3    H1 9435   1.875   0.977   2.515 -0.3235 -0.3447  0.0388
 3143TIP3    H2 9436   1.831   1.072   2.406  0.1512  1.0344  1.0165
 3144TIP3   OH2 9437   5.177   5.313   0.725  0.0235 -0.2047 -0.3911
 3144TIP3    H1 9438   5.131   5.316   0.641 -1.7681 -1.4219  0.4689
 3144TIP3    H2 9439   5.257   5.264   0.707  0.0578  0.2582 -1.5515
 3145TIP3   OH2 9440   3.944   3.470   1.705 -0.0228 -0.8365  0.5873
 3145TIP3    H1 9441   3.959   3.483   1.799  0.3078  0.8279  0.3348
 3145TIP3    H2 9442   4.020   3.419   1.676  0.5134 -0.2871  0.9947
 3146TIP3   OH2 9443   1.597   1.945   4.462  0.1274 -1.0697 -0.2590
 3146TIP3    H1 9444   1.505   1.934   4.484 -0.2615 -1.0551 -1.8008
 3146TIP3    H2 9445   1.605   1.911   4.373  1.3711 -0.0046 -0.5841
 3147TIP3   OH2 9446   3.545   0.366   0.505  0.2012  0.1170 -0.5148
 3147TIP3    H1 9447   3.606   0.327   0.568 -1.1208  0.8924  1.3416
 3147TIP3    H2 9448   3.560   0.318   0.423  2.3247 -0.6030  0.2440
 3148TIP3   OH2 9449   0.294   4.631   4.762  0.6694 -0.4649  0.4344
 3148TIP3    H1 9450   0.388   4.649   4.768  0.9144 -1.1544 -0.9532
 3148TIP3    H2 9451   0.287   4.537   4.778  0.3090 -0.5615 -0.2729
 3149TIP3   OH2 9452   3.015   3.936   4.033  0.1145 -0.2209 -0.0604
 3149TIP3    H1 9453   3.098   3.912   3.992  0.3714 -0.4935  0.6073
 3149TIP3    H2 9454   3.027   3.914   4.126 -0.3582  0.6394  0.2084
 3150TIP3   OH2 9455   5.427   3.468   3.112 -0.6565  0.6494 -0.0796
 3150TIP3    H1 9456   5.472   3.527   3.052 -1.8896  2.2040  0.4633
 3150TIP3    H2 9457   5.401   3.393   3.058  0.4321  0.8424 -0.9085
 3151TIP3   OH2 9458   3.709   3.080   4.112  0.6525  0.0064 -0.2993
 3151TIP3    H1 9459   3.790   3.123   4.138  0.7618 -0.7128  0.6174
 3151TIP3    H2 9460   3.737   3.005   4.060  0.5852 -0.3026  0.1068
 3152TIP3   OH2 9461   3.881   5.988   2.761 -0.0652 -0.5182  0.0281
 3152TIP3    H1 9462   3.819   5.983   2.833 -0.5690 -1.8470 -0.4654
 3152TIP3    H2 9463   3.832   5.958   2.685  0.2760  1.4154 -1.0237
 3153TIP3   OH2 9464   5.942   2.977   0.839  0.2168  0.0047  0.1089
 3153TIP3    H1 9465   6.026   2.930   0.840 -0.1267 -0.6421 -0.4831
 3153TIP3    H2 9466   5.964   3.066   0.812  0.6359 -0.3228 -0.6472
 3154TIP3   OH2 9467   4.772   4.916   2.196 -0.0845 -0.8308  0.1160
 3154TIP3    H1 9468   4.710   4.986   2.215  0.1123 -0.5139 -0.3741
 3154TIP3    H2 9469   4.828   4.952   2.126  0.4540 -1.2196  0.3404
 3155TIP3   OH2 9470   0.041   1.171   3.734  0.2988  0.1758 -0.0829
 3155TIP3    H1 9471   0.010   1.175   3.644  0.1477  1.9450  0.0121
 3155TIP3    H2 9472   0.072   1.259   3.753  1.3296 -0.4357  1.2614
 3156TIP3   OH2 9473   4.154   1.489   0.870  0.7260 -0.2316 -0.1753
 3156TIP3    H1 9474   4.090   1.559   0.865 -0.2294 -1.1182 -0.5976
 3156TIP3    H2 9475   4.217   1.509   0.800  0.3330  0.0719 -0.4460
 3157TIP3   OH2 9476   3.496   2.787   2.383 -0.7641 -0.0463  0.2825
 3157TIP3    H1 9477   3.551   2.852   2.340  1.5150 -2.6663 -1.0844
 3157TIP3    H2 9478   3.488   2.818   2.474  1.2303  1.5117 -0.0125
 3158TIP3   OH2 9479   5.809   2.033   3.322  0.0854 -0.2189  0.4642
 3158TIP3    H1 9480   5.744   1.989   3.377 -0.6257  0.5845  0.2840
 3158TIP3    H2 9481   5.758   2.082   3.258  0.8307  1.1798  0.8979
 3159TIP3   OH2 9482   4.128   1.542   0.021  0.0401 -0.0383 -0.0278
 3159TIP3    H1 9483   4.223   1.553   0.018 -0.0533  0.4750 -2.1963
 3159TIP3    H2 9484   4.111   1.504   0.108  2.3060 -0.9791  0.0612
 3160TIP3   OH2 9485   5.749   1.307   3.119 -0.4280  0.0106 -0.2142
 3160TIP3    H1 9486   5.760   1.390   3.165  0.2330 -0.7811  1.1098
 3160TIP3    H2 9487   5.697   1.253   3.179 -0.4402 -0.6990 -0.8484
 3161TIP3   OH2 9488   4.474   2.243   3.015 -0.4449 -0.3218 -0.3459
 3161TIP3    H1 9489   4.500   2.335   3.012 -0.7387 -0.2595 -1.4723
 3161TIP3    H2 9490   4.476   2.215   2.923 -1.6433 -1.0689 -0.1617
 3162TIP3   OH2 9491   4.664   0.532   5.005 -0.5528 -0.1237  0.7811
 3162TIP3    H1 9492   4.621   0.493   5.082  1.2758 -0.7257  1.5529
 3162TIP3    H2 9493   4.637   0.623   5.006 -2.8249 -0.7269  0.4633
 3163TIP3   OH2 9494   3.957   4.340   4.259  0.2974 -0.5495 -0.5255
 3163TIP3    H1 9495   3.901   4.291   4.319  2.3159  0.4123  2.4013
 3163TIP3    H2 9496   3.901   4.359   4.184 -2.2119 -2.4488  0.7042
 3164TIP3   OH2 9497   4.000   3.770   1.557 -0.1762 -0.3046 -0.1908
 3164TIP3    H1 9498   4.043   3.755   1.472  0.7100 -2.6850  0.5872
 3164TIP3    H2 9499   3.945   3.692   1.569 -0.9091  0.3846  1.0749
 3165TIP3   OH2 9500   4.946   3.104   0.222  0.3591  0.0419  0.0981
 3165TIP3    H1 9501   4.900   3.046   0.284 -0.2526  0.8342  0.3988
 3165TIP3    H2 9502   4.997   3.163   0.278 -1.5474  1.9122 -0.0202
 3166TIP3   OH2 9503   1.429   3.193   2.913 -0.5987 -0.0135 -0.3852
 3166TIP3    H1 9504   1.413   3.150   2.996  1.5759 -0.4847 -0.1336
 3166TIP3    H2 9505   1.362   3.159   2.854 -1.0260 -1.1121  0.6953
 3167TIP3   OH2 9506   3.129   0.809   1.699  0.9418 -0.1856 -0.4425
 3167TIP3    H1 9507   3.044   0.766   1.691  1.6735 -1.8225  0.0202
 3167TIP3    H2 9508   3.149   0.805   1.793  0.7053  1.9134 -0.2641
 3168TIP3   OH2 9509   5.457   1.416   3.852  0.5100  0.0174 -0.4520
 3168TIP3    H1 9510   5.415   1.472   3.918  0.3212 -0.3872 -0.2232
 3168TIP3    H2 9511   5.532   1.467   3.821 -0.4666  0.9844 -1.2698
 3169TIP3   OH2 9512   3.463   3.247   5.006  0.4959  0.0776  0.3922
 3169TIP3    H1 9513   3.386   3.302   4.988  1.2490  1.1336  0.3009
 3169TIP3    H2 9514   3.427   3.160   5.021 -0.5588  0.0862 -1.7221
 3170TIP3   OH2 9515   4.016   2.178   4.575  0.2035  0.2708  0.0166
 3170TIP3    H1 9516   3.937   2.129   4.556  0.5987 -0.6309  0.5929
 3170TIP3    H2 9517   4.032   2.163   4.669  0.9148  0.6395 -0.0311
 3171TIP3   OH2 9518   0.680   4.008   5.082  0.4435 -0.2316  0.6424
 3171TIP3    H1 9519   0.606   3.947   5.081 -0.3305  0.6766 -0.0061
 3171TIP3    H2 9520   0.746   3.965   5.028  0.0722 -0.6872  0.5384
 3172TIP3   OH2 9521   0.168   2.084   3.131 -0.2208 -0.2705  0.0908
 3172TIP3    H1 9522   0.203   1.995   3.135 -1.4749 -0.7465  1.1197
 3172TIP3    H2 9523   0.090   2.082   3.187 -0.5835  1.3363 -0.3020
 3173TIP3   OH2 9524   5.670   2.864   4.452 -0.2785 -0.6258  0.1286
 3173TIP3    H1 9525   5.728   2.940   4.449  0.5125 -1.1927 -3.8361
 3173TIP3    H2 9526   5.588   2.898   4.488  1.1681  1.1256  2.0363
 3174TIP3   OH2 9527   2.334   3.064   2.596  0.2576 -0.1474 -0.9971
 3174TIP3    H1 9528   2.370   3.148   2.626 -0.1791  0.2260 -1.4949
 3174TIP3    H2 9529   2.411   3.013   2.570  0.5371  0.0439 -0.5571
 3175TIP3   OH2 9530   3.045   1.552   0.789  0.0518  0.4674 -0.3429
 3175TIP3    H1 9531   3.000   1.593   0.863  0.1719  0.0506 -0.0313
 3175TIP3    H2 9532   3.136   1.541   0.818  0.5371  1.9098 -1.2146
 3176TIP3   OH2 9533   3.387   0.658   3.271 -0.0099 -0.2620  0.2102
 3176TIP3    H1 9534   3.334   0.732   3.243 -0.5971 -0.9517 -0.5297
 3176TIP3    H2 9535   3.345   0.626   3.350  0.7689  0.7365  1.0604
 3177TIP3   OH2 9536   5.953   4.000   4.856  0.6389 -0.3681  0.5193
 3177TIP3    H1 9537   5.970   3.913   4.821  0.1008  0.3461 -1.7126
 3177TIP3    H2 9538   5.931   3.986   4.948 -1.2366 -2.7763 -0.2035
 3178TIP3   OH2 9539   2.467   1.815   4.100 -0.3052  0.2435  0.2305
 3178TIP3    H1 9540   2.553   1.818   4.060  0.2067  0.2191  1.2825
 3178TIP3    H2 9541   2.478   1.760   4.178 -1.5538 -0.7284 -0.2425
 3179TIP3   OH2 9542   6.214   1.887   4.971 -0.2765 -0.5777  0.1570
 3179TIP3    H1 9543   6.170   1.812   5.010 -1.7363  0.0822 -0.1726
 3179TIP3    H2 9544   6.175   1.964   5.014 -0.9358  0.1065 -1.5749
 3180TIP3   OH2 9545   2.965   3.799   5.157  0.2897 -0.4910  0.0632
 3180TIP3    H1 9546   2.999   3.824   5.243 -1.3512  1.3907  0.2340
 3180TIP3    H2 9547   2.957   3.882   5.109 -0.7004 -1.2637 -1.1767
 3181TIP3   OH2 9548   0.338   5.977   3.047  0.0656  0.2954  0.7363
 3181TIP3    H1 9549   0.305   5.892   3.076 -0.8157  0.0210 -1.0017
 3181TIP3    H2 9550   0.338   5.972   2.952  0.0690  2.2273  0.6025
 3182TIP3   OH2 9551   4.751   2.145   2.341 -0.2750 -0.7896 -0.0648
 3182TIP3    H1 9552   4.729   2.205   2.413  2.0215 -1.3775  1.2353
 3182TIP3    H2 9553   4.745   2.199   2.262 -0.7480  0.4525  0.7801
 3183TIP3   OH2 9554   3.526   0.462   5.167  0.2691 -0.1224  0.1669
 3183TIP3    H1 9555   3.612   0.496   5.193 -0.3602  0.6355  1.3388
 3183TIP3    H2 9556   3.545   0.405   5.092  2.0431 -1.4619  1.5250
 3184TIP3   OH2 9557   5.114   5.276   2.380 -0.5879 -0.0531 -0.0251
 3184TIP3    H1 9558   5.072   5.192   2.362 -0.9293 -1.1527  4.7301
 3184TIP3    H2 9559   5.207   5.261   2.362 -0.5579 -1.7050  1.3823
 3185TIP3   OH2 9560   3.871   0.459   0.680 -0.4736  0.0827  0.5857
 3185TIP3    H1 9561   3.804   0.433   0.617 -1.6419  1.5324  1.1712
 3185TIP3    H2 9562   3.824   0.509   0.746  0.9383 -0.2790  1.9205
 3186TIP3   OH2 9563   2.713   4.767   0.853  0.2802 -0.6700  0.0141
 3186TIP3    H1 9564   2.733   4.765   0.759  1.7279 -1.7829  0.3121
 3186TIP3    H2 9565   2.702   4.674   0.876  0.8419 -0.4748  1.1141
 3187TIP3   OH2 9566   2.563   4.467   1.797 -0.0333 -0.1759 -0.1258
 3187TIP3    H1 9567   2.521   4.383   1.816 -0.8056  0.2322  0.0090
 3187TIP3    H2 9568   2.643   4.466   1.848  0.4965 -1.2751 -0.9510
 3188TIP3   OH2 9569   4.433   3.554   2.849 -0.6201 -0.4974 -0.2864
 3188TIP3    H1 9570   4.360   3.602   2.888 -2.1216 -2.9013  0.0655
 3188TIP3    H2 9571   4.499   3.550   2.919  0.2232  2.1797 -0.7886
 3189TIP3   OH2 9572   5.162   4.985   2.878  0.1515 -0.3335  0.0585
 3189TIP3    H1 9573   5.172   4.936   2.959  0.7222  0.1006  0.2610
 3189TIP3    H2 9574   5.080   5.033   2.888  1.2556  1.4132  1.3145
 3190TIP3   OH2 9575   5.446   3.356   1.187  0.4569  0.5086  0.2841
 3190TIP3    H1 9576   5.506   3.381   1.257 -0.8515 -0.0566  1.6519
 3190TIP3    H2 9577   5.461   3.262   1.175 -0.6090  0.2201  1.1122
 3191TIP3   OH2 9578   0.776   2.198   3.855  0.2596  0.3778  0.1134
 3191TIP3    H1 9579   0.729   2.194   3.938 -0.7773  0.8395 -0.4266
 3191TIP3    H2 9580   0.729   2.138   3.797 -0.2820  1.5673 -0.7202
 3192TIP3   OH2 9581   0.287   2.914   5.065 -0.2760 -0.3883  0.3158
 3192TIP3    H1 9582   0.279   2.952   5.152  0.2362  0.7782 -0.1275
 3192TIP3    H2 9583   0.280   2.988   5.005  0.3281 -1.0403 -0.5941
 3193TIP3   OH2 9584   3.842   0.934   4.720 -0.4676  0.0959 -0.4057
 3193TIP3    H1 9585   3.894   0.949   4.641 -0.6189  1.2078 -0.3066
 3193TIP3    H2 9586   3.883   0.857   4.761  0.2095  0.0958 -1.0548
 3194TIP3   OH2 9587   6.200   4.440   4.687  0.8292 -0.2268 -0.3818
 3194TIP3    H1 9588   6.187   4.412   4.777 -2.6607  0.8934 -0.3940
 3194TIP3    H2 9589   6.213   4.535   4.693  0.4765 -0.1290 -1.0545
 3195TIP3   OH2 9590   2.917   2.424   1.206 -0.2604  0.0931 -0.0928
 3195TIP3    H1 9591   2.842   2.452   1.154 -0.7193  0.0271  0.5153
 3195TIP3    H2 9592   2.993   2.446   1.153 -0.7450 -1.1450 -1.3632
 3196TIP3   OH2 9593   6.112   5.362   2.594  0.4043  0.2649 -0.5951
 3196TIP3    H1 9594   6.171   5.330   2.526  0.8829  1.2842 -0.6784
 3196TIP3    H2 9595   6.093   5.285   2.648  1.4291 -0.1796 -0.8537
 3197TIP3   OH2 9596   1.111   0.283   3.411 -0.2959 -0.4194  0.3011
 3197TIP3    H1 9597   1.145   0.311   3.326 -1.8410  3.6133  0.7823
 3197TIP3    H2 9598   1.188   0.282   3.468  0.5052 -1.5756 -0.7613
 3198TIP3   OH2 9599   3.303   3.540   4.366 -0.1031  0.3302  0.3879
 3198TIP3    H1 9600   3.301   3.470   4.301  2.3334  2.1938 -1.8945
 3198TIP3    H2 9601   3.250   3.610   4.328 -1.9028  0.0993  2.2988
 3199TIP3   OH2 9602   2.761   3.400   3.636  0.4843 -0.3625 -0.4549
 3199TIP3    H1 9603   2.839   3.359   3.674 -0.3278  0.0656  1.8763
 3199TIP3    H2 9604   2.693   3.386   3.702 -0.9492  0.8422 -1.6160
 3200TIP3   OH2 9605   1.974   0.990   1.946  0.0991  0.1334 -0.0362
 3200TIP3    H1 9606   1.953   1.083   1.941 -0.5036 -0.0629 -1.9104
 3200TIP3    H2 9607   2.046   0.978   1.884 -0.1536 -0.7251 -0.1803
 3201TIP3   OH2 9608   2.974   4.126   1.986 -0.2162  0.0158 -0.0640
 3201TIP3    H1 9609   3.011   4.061   2.045 -1.5877 -0.8513 -0.1031
 3201TIP3    H2 9610   2.990   4.210   2.028 -1.4010 -0.5926  1.7080
 3202TIP3   OH2 9611   2.310   5.775   3.221  0.0875  0.2793  0.2286
 3202TIP3    H1 9612   2.283   5.835   3.290 -0.2655  0.2706  0.0997
 3202TIP3    H2 9613   2.402   5.797   3.204 -0.2369  1.2277 -0.2938
 3203TIP3   OH2 9614   1.750   3.252   2.909 -0.3632 -0.1506  0.5028
 3203TIP3    H1 9615   1.699   3.284   2.835 -0.0566 -1.2210 -0.1881
 3203TIP3    H2 9616   1.829   3.306   2.909 -0.9118  0.6750  0.8186
 3204TIP3   OH2 9617   4.693   5.870   5.006  0.2187 -0.1610 -0.3944
 3204TIP3    H1 9618   4.735   5.929   4.943 -0.6159  0.6035 -0.2588
 3204TIP3    H2 9619   4.661   5.797   4.952 -0.7064  0.6092 -0.9081
 3205TIP3   OH2 9620   2.607   1.409   4.798 -0.3589 -0.3816  0.3954
 3205TIP3    H1 9621   2.681   1.453   4.840 -0.4063 -0.0047  0.0968
 3205TIP3    H2 9622   2.605   1.446   4.709 -1.1951 -0.0291  0.5467
 3206TIP3   OH2 9623   2.850   1.064   1.339 -0.1046  0.5719  0.0393
 3206TIP3    H1 9624   2.870   1.036   1.429  2.0813  0.3699 -0.4567
 3206TIP3    H2 9625   2.865   0.986   1.286 -1.2662  0.7239 -0.5337
 3207TIP3   OH2 9626   5.493   4.379   2.174 -0.6334  0.1294  0.1224
 3207TIP3    H1 9627   5.508   4.305   2.115  1.2412 -1.2590  2.2105
 3207TIP3    H2 9628   5.403   4.368   2.203 -0.2891 -1.5654  0.6441
 3208TIP3   OH2 9629   4.215   5.105   2.325 -0.2075 -0.1791  0.4325
 3208TIP3    H1 9630   4.214   5.192   2.285 -0.0280 -0.5491 -0.4052
 3208TIP3    H2 9631   4.147   5.108   2.393 -1.0702  0.2288 -0.4323
 3209TIP3   OH2 9632   4.127   0.078   4.157  0.0741  0.1960  0.2477
 3209TIP3    H1 9633   4.079   0.153   4.191 -0.7858 -0.7529  1.1610
 3209TIP3    H2 9634   4.197   0.117   4.104 -1.5794  1.6038 -0.9894
 3210TIP3   OH2 9635   3.392   0.825   2.353  0.0585 -0.3871 -0.4584
 3210TIP3    H1 9636   3.417   0.803   2.443 -0.5120  1.4481  0.1775
 3210TIP3    H2 9637   3.474   0.820   2.304  0.7540  0.4786  0.5624
 3211TIP3   OH2 9638   5.629   3.580   5.011  0.0588 -0.8949 -0.2700
 3211TIP3    H1 9639   5.649   3.534   4.929  0.9140 -0.7464 -0.1551
 3211TIP3    H2 9640   5.627   3.511   5.077 -0.2495 -0.9644 -0.3472
 3212TIP3   OH2 9641   4.025   1.312   2.708 -0.8022  0.3952 -0.3216
 3212TIP3    H1 9642   3.969   1.234   2.701 -3.0968  1.9581 -0.7513
 3212TIP3    H2 9643   4.028   1.330   2.802 -0.2977 -0.1720 -0.2228
 3213TIP3   OH2 9644   4.034   4.601   2.215  0.1758 -0.6287  0.5099
 3213TIP3    H1 9645   3.956   4.574   2.167 -1.4436  0.1982  2.5246
 3213TIP3    H2 9646   4.049   4.691   2.188  1.6574 -1.3569 -1.3076
 3214TIP3   OH2 9647   1.470   4.928   0.623 -0.3097 -0.1023  0.7470
 3214TIP3    H1 9648   1.445   4.845   0.663 -1.1090 -0.4157 -0.3532
 3214TIP3    H2 9649   1.395   4.985   0.637 -0.8777 -0.4162 -0.8170
 3215TIP3   OH2 9650   1.075   3.459   3.926 -0.0179 -0.8224  0.6882
 3215TIP3    H1 9651   1.005   3.499   3.977  0.1752 -0.8866  1.0031
 3215TIP3    H2 9652   1.045   3.370   3.909 -0.8156 -0.3200 -0.7042
 3216TIP3   OH2 9653   2.472   5.651   4.100 -0.0387  0.0364  0.2308
 3216TIP3    H1 9654   2.490   5.744   4.087 -0.8903 -0.0784 -2.4550
 3216TIP3    H2 9655   2.558   5.609   4.095  0.1593  0.5208 -0.8942
 3217TIP3   OH2 9656   6.105   2.705   4.625  0.4575  0.0147 -0.1418
 3217TIP3    H1 9657   6.095   2.801   4.622 -1.7232 -0.0305  2.1063
 3217TIP3    H2 9658   6.119   2.685   4.717 -1.7702 -1.9433 -0.1156
 3218TIP3   OH2 9659   4.129   5.563   1.653 -0.6717 -0.3156  0.4270
 3218TIP3    H1 9660   4.196   5.544   1.587  0.0492  0.4405  0.9138
 3218TIP3    H2 9661   4.081   5.638   1.618 -0.8019 -0.4120  0.4000
 3219TIP3   OH2 9662   2.039   4.600   1.980 -0.1109  0.6551 -0.0165
 3219TIP3    H1 9663   2.075   4.634   2.062 -0.3501 -0.2899  0.4923
 3219TIP3    H2 9664   2.016   4.679   1.930  2.5859  1.3413 -0.3653
 3220TIP3   OH2 9665   1.265   2.950   5.008  0.3210 -0.1167  0.6981
 3220TIP3    H1 9666   1.256   3.025   4.949  2.1965  0.7218  1.4306
 3220TIP3    H2 9667   1.190   2.894   4.986 -0.3736  1.3136 -0.7879
 3221TIP3   OH2 9668   5.778   4.054   1.597 -0.3780  0.0719 -0.2724
 3221TIP3    H1 9669   5.773   3.965   1.562  1.3883 -0.4289  0.6331
 3221TIP3    H2 9670   5.745   4.046   1.687  0.6173  0.1390  0.1059
 3222TIP3   OH2 9671   6.196   0.221   3.027 -0.3211  0.5209 -0.2779
 3222TIP3    H1 9672   6.205   0.126   3.032 -0.7387  0.5192  1.1142
 3222TIP3    H2 9673   6.269   0.254   3.080 -2.1742  0.8202  2.2700
 3223TIP3   OH2 9674   1.097   0.497   0.721  0.5732  0.0543  0.2585
 3223TIP3    H1 9675   1.141   0.415   0.699  1.5822  0.8808 -0.9669
 3223TIP3    H2 9676   1.167   0.553   0.754  0.0781  0.7616  0.1286
 3224TIP3   OH2 9677   4.963   3.538   4.488  0.3010  0.5304 -0.2868
 3224TIP3    H1 9678   4.898   3.571   4.426  0.9380  0.1102 -1.2042
 3224TIP3    H2 9679   4.976   3.609   4.550 -0.6645  0.8029 -0.3863
 3225TIP3   OH2 9680   1.969   5.083   3.226  0.2508  0.6618 -0.3494
 3225TIP3    H1 9681   2.056   5.053   3.250 -0.1396 -0.0270  0.2474
 3225TIP3    H2 9682   1.981   5.174   3.200  0.7582  1.5461  2.5370
 3226TIP3   OH2 9683   1.428   5.309   0.540 -0.1763 -0.0232 -0.0296
 3226TIP3    H1 9684   1.340   5.286   0.509 -0.0959  1.6269 -1.6721
 3226TIP3    H2 9685   1.412   5.374   0.609 -0.2476 -1.0799  0.9933
 3227TIP3   OH2 9686   1.106   1.969   1.497  0.0354  0.0530 -0.3833
 3227TIP3    H1 9687   1.031   2.004   1.545 -0.3761  1.5131 -1.9982
 3227TIP3    H2 9688   1.134   1.892   1.548 -0.9508  0.9576  1.6300
 3228TIP3   OH2 9689   5.382   1.080   2.050 -0.5433  0.5196 -0.1173
 3228TIP3    H1 9690   5.438   1.128   2.110  0.9231  2.6595 -2.9683
 3228TIP3    H2 9691   5.438   1.012   2.013 -0.7698  0.6296 -0.6741
 3229TIP3   OH2 9692   4.762   1.982   1.560  0.4954  0.7337  0.5248
 3229TIP3    H1 9693   4.799   1.898   1.585 -1.4377 -1.0910 -2.2343
 3229TIP3    H2 9694   4.823   2.018   1.496  0.5190  0.6569  0.5042
 3230TIP3   OH2 9695   1.161   5.086   3.855  0.2397 -0.0140  0.3259
 3230TIP3    H1 9696   1.180   5.173   3.889 -1.3438  0.0233  1.1921
 3230TIP3    H2 9697   1.176   5.027   3.928  0.0728 -0.3174  0.1211
 3231TIP3   OH2 9698   4.819   1.093   1.572  0.2031 -0.5050  0.2219
 3231TIP3    H1 9699   4.850   1.063   1.657  2.5037 -0.6954 -0.6166
 3231TIP3    H2 9700   4.812   1.188   1.582  2.2524 -0.3088  0.1383
 3232TIP3   OH2 9701   2.314   4.855   1.321  0.0006  0.2011 -0.0290
 3232TIP3    H1 9702   2.337   4.923   1.384 -2.0952  1.1503 -0.1916
 3232TIP3    H2 9703   2.356   4.882   1.240 -0.6617  1.2345 -0.0408
 3233TIP3   OH2 9704   3.281   4.315   2.035 -0.3712 -0.6346  0.0997
 3233TIP3    H1 9705   3.286   4.356   1.948 -0.6410  1.4464  0.9927
 3233TIP3    H2 9706   3.197   4.343   2.070  0.2678 -0.3628  1.5081
 3234TIP3   OH2 9707   1.602   5.647   5.079  0.0324  0.5668 -0.1403
 3234TIP3    H1 9708   1.600   5.735   5.116  1.1490  0.9724 -0.9934
 3234TIP3    H2 9709   1.586   5.660   4.986 -3.2041 -0.4703  0.1541
 3235TIP3   OH2 9710   3.672   5.421   2.236  0.6671  0.0741 -0.2210
 3235TIP3    H1 9711   3.678   5.516   2.238 -0.5411  0.1808 -0.9464
 3235TIP3    H2 9712   3.641   5.397   2.324 -1.1124  0.5470 -0.6789
 3236TIP3   OH2 9713   6.193   5.451   1.376  0.4428  0.0833  0.5761
 3236TIP3    H1 9714   6.193   5.458   1.281 -1.2146 -1.6451  0.3900
 3236TIP3    H2 9715   6.110   5.491   1.403 -0.9487 -2.6942  0.8682
 3237TIP3   OH2 9716   3.515   1.817   3.010 -0.1269  0.0992 -0.1997
 3237TIP3    H1 9717   3.464   1.807   3.090 -0.1391 -1.8735 -0.3876
 3237TIP3    H2 9718   3.502   1.908   2.984 -1.6441  0.2789  1.0300
 3238TIP3   OH2 9719   2.321   3.542   0.920  0.1380  0.3062  0.4882
 3238TIP3    H1 9720   2.320   3.450   0.944 -0.5744  0.5951  1.6416
 3238TIP3    H2 9721   2.402   3.553   0.869  0.1831 -0.9549  0.2682
 3239TIP3   OH2 9722   4.383   3.343   5.156 -0.1919 -0.3048  0.0122
 3239TIP3    H1 9723   4.306   3.352   5.212 -1.4215  1.2613 -1.7962
 3239TIP3    H2 9724   4.368   3.261   5.108 -1.3711  0.5577 -1.1610
 3240TIP3   OH2 9725   3.332   5.542   4.970 -0.4749 -0.4395 -0.3385
 3240TIP3    H1 9726   3.255   5.556   5.025 -0.4281 -0.3822 -0.2872
 3240TIP3    H2 9727   3.299   5.547   4.881 -0.6232 -0.9372 -0.3172
 3241TIP3   OH2 9728   6.046   2.757   4.030  0.4245 -0.4926  0.4602
 3241TIP3    H1 9729   6.083   2.803   4.105  0.7601  1.4672 -0.8333
 3241TIP3    H2 9730   6.118   2.704   3.997  0.6355 -0.4254  0.8044
 3242TIP3   OH2 9731   1.170   4.257   2.426 -0.6971 -0.1598  0.2715
 3242TIP3    H1 9732   1.173   4.206   2.507  0.5170 -0.2259  0.2113
 3242TIP3    H2 9733   1.207   4.198   2.360 -1.3849  0.0061 -0.2647
 3243TIP3   OH2 9734   5.188   4.053   2.102 -0.3200 -0.4474  0.4997
 3243TIP3    H1 9735   5.148   3.992   2.040 -0.6153  1.4725 -1.3234
 3243TIP3    H2 9736   5.120   4.069   2.167 -0.4450 -1.5832  0.6666
 3244TIP3   OH2 9737   3.628   5.432   3.811  1.0164  0.5593 -0.2056
 3244TIP3    H1 9738   3.574   5.461   3.885 -0.1740  2.3124 -1.6692
 3244TIP3    H2 9739   3.644   5.339   3.828 -0.8875  0.4337  1.2650
 3245TIP3   OH2 9740   3.856   5.896   4.402 -0.7110 -0.3597 -0.0872
 3245TIP3    H1 9741   3.889   5.815   4.365  0.4900 -0.4591  1.0875
 3245TIP3    H2 9742   3.907   5.965   4.359 -2.1104 -0.1597 -1.4814
 3246TIP3   OH2 9743   1.364   5.057   4.147 -0.1619 -0.0281  0.2570
 3246TIP3    H1 9744   1.291   5.115   4.126 -1.5083 -1.7502 -0.0498
 3246TIP3    H2 9745   1.439   5.116   4.161 -1.3758  1.7248 -0.3338
 3247TIP3   OH2 9746   3.087   1.704   4.588 -0.1606 -0.0826  0.1555
 3247TIP3    H1 9747   3.160   1.644   4.605 -0.0403 -0.2726 -0.9544
 3247TIP3    H2 9748   3.119   1.761   4.517 -0.7223  0.4850  0.3517
 3248TIP3   OH2 9749   1.840   0.042   4.409  0.4844 -0.1515  0.5063
 3248TIP3    H1 9750   1.935   0.054   4.410  0.2580  2.0714  1.0779
 3248TIP3    H2 9751   1.821   0.007   4.323  1.7867 -0.0873  0.1724
 3249TIP3   OH2 9752   6.118   1.245   2.071  0.6981  0.1013 -0.1664
 3249TIP3    H1 9753   6.066   1.165   2.078  1.5159 -0.2797  3.0509
 3249TIP3    H2 9754   6.204   1.216   2.041  0.1509  0.2728 -2.0468
 3250TIP3   OH2 9755   2.123   1.107   1.267 -0.5871  0.1707 -0.0615
 3250TIP3    H1 9756   2.135   1.105   1.362  2.5722  1.1921 -0.3141
 3250TIP3    H2 9757   2.119   1.015   1.241  1.0052 -0.1908  0.8653
 3251TIP3   OH2 9758   4.255   2.815   0.840  0.5993  0.0511  0.7012
 3251TIP3    H1 9759   4.318   2.839   0.908  1.0436  2.9352 -0.5361
 3251TIP3    H2 9760   4.309   2.801   0.762 -0.0943  0.1118  0.1997
 3252TIP3   OH2 9761   1.590   5.962   3.090 -0.3939  0.0317 -0.1097
 3252TIP3    H1 9762   1.596   5.891   3.026  0.2035  0.2959 -0.3557
 3252TIP3    H2 9763   1.548   6.033   3.043  1.3431  0.7366 -0.6998
 3253TIP3   OH2 9764   3.400   3.049   1.168 -0.0477 -0.3127  0.0566
 3253TIP3    H1 9765   3.377   3.065   1.077 -0.5331  2.0875  0.5425
 3253TIP3    H2 9766   3.399   3.136   1.209  3.3319 -0.8738  1.6382
 3254TIP3   OH2 9767   4.147   2.087   2.083  0.2671  0.1057 -0.4529
 3254TIP3    H1 9768   4.197   2.098   2.164  2.6019  2.3287 -2.0086
 3254TIP3    H2 9769   4.206   2.038   2.025 -0.6209  0.0786 -1.3560
 3255TIP3   OH2 9770   3.349   1.974   2.027  0.0324  0.8051  0.5513
 3255TIP3    H1 9771   3.328   1.882   2.009  1.1344  0.6836 -0.2465
 3255TIP3    H2 9772   3.396   2.003   1.949 -0.3870  2.0832  0.7597
 3256TIP3   OH2 9773   4.040   1.421   0.252 -0.3536 -0.6570 -0.7034
 3256TIP3    H1 9774   4.020   1.442   0.343 -4.3566 -2.4635 -0.9807
 3256TIP3    H2 9775   4.109   1.354   0.258  1.5714  1.2876  0.7175
 3257TIP3   OH2 9776   2.222   1.882   5.035 -0.1733  0.6647 -0.3478
 3257TIP3    H1 9777   2.200   1.925   5.118  0.6012 -1.4670  1.0686
 3257TIP3    H2 9778   2.138   1.852   5.001 -0.4353  1.0184 -0.0228
 3258TIP3   OH2 9779   1.404   0.454   4.709 -0.0092 -0.0279 -0.0812
 3258TIP3    H1 9780   1.470   0.523   4.713 -0.3829  0.4147 -1.2036
 3258TIP3    H2 9781   1.435   0.388   4.770 -0.1557  1.5725  1.8400
 3259TIP3   OH2 9782   2.658   3.353   5.074  0.3783  0.1256 -0.0720
 3259TIP3    H1 9783   2.680   3.291   5.004  0.0064  0.0327 -0.1100
 3259TIP3    H2 9784   2.725   3.421   5.068  0.2031  0.2490 -0.6893
 3260TIP3   OH2 9785   2.053   1.546   0.140 -0.0512  0.3259 -0.5415
 3260TIP3    H1 9786   2.029   1.460   0.175  0.4792  0.4593  0.1676
 3260TIP3    H2 9787   2.055   1.533   0.045 -0.7567 -0.2393 -0.4933
 3261TIP3   OH2 9788   6.176   2.530   0.900 -0.0145 -0.3251 -0.3370
 3261TIP3    H1 9789   6.169   2.443   0.939 -0.3701  0.5590  1.7057
 3261TIP3    H2 9790   6.091   2.570   0.917  0.4075  0.6897 -0.5479
 3262TIP3   OH2 9791   1.133   4.984   0.983  0.1019 -0.3621 -0.5623
 3262TIP3    H1 9792   1.147   4.907   1.038  2.6037 -0.5556 -1.3580
 3262TIP3    H2 9793   1.100   4.949   0.900  1.8869 -0.7091 -1.1639
 3263TIP3   OH2 9794   2.028   4.141   4.715  0.3723  0.1131 -0.4751
 3263TIP3    H1 9795   2.089   4.102   4.653  0.3215  0.5022 -0.7740
 3263TIP3    H2 9796   2.012   4.072   4.780 -0.0455 -0.5142 -1.2182
 3264TIP3   OH2 9797   6.290   2.050   3.493  0.0620 -0.4174 -0.3789
 3264TIP3    H1 9798   6.355   2.060   3.563 -0.3301  0.1220 -0.0813
 3264TIP3    H2 9799   6.223   1.993   3.529 -1.0332  1.2511  0.3674
 3265TIP3   OH2 9800   2.138   0.011   0.462 -0.0983  0.2882  0.5488
 3265TIP3    H1 9801   2.142   0.106   0.448 -0.6044  0.5442  2.0082
 3265TIP3    H2 9802   2.213  -0.023   0.412 -0.2546  1.3765 -0.4731
 3266TIP3   OH2 9803   6.153   3.949   1.095 -0.4520 -0.2215  0.2873
 3266TIP3    H1 9804   6.219   4.009   1.061 -1.3337  0.1688 -0.8007
 3266TIP3    H2 9805   6.157   3.960   1.190  0.3288  0.5424  0.1769
 3267TIP3   OH2 9806   5.888   4.224   0.318  0.5016 -0.3188 -0.1401
 3267TIP3    H1 9807   5.934   4.205   0.236 -0.9131 -1.8481 -0.6397
 3267TIP3    H2 9808   5.866   4.317   0.312  0.8029 -0.3056 -1.3057
 3268TIP3   OH2 9809   0.575   4.024   1.265  0.1708 -0.1421 -0.6554
 3268TIP3    H1 9810   0.493   4.022   1.216  0.1467  0.9699 -0.6723
 3268TIP3    H2 9811   0.570   3.948   1.323 -1.5343  0.7459  0.4100
 3269TIP3   OH2 9812   3.884   3.193   0.658  0.5551 -0.4251  0.1275
 3269TIP3    H1 9813   3.816   3.207   0.724 -1.0745  1.3928 -1.7668
 3269TIP3    H2 9814   3.944   3.130   0.697 -0.0540  0.8892  3.4878
 3270TIP3   OH2 9815   5.944   4.332   5.023  0.6424 -0.3404 -0.2587
 3270TIP3    H1 9816   5.951   4.343   5.118 -0.8104  1.3861 -0.3172
 3270TIP3    H2 9817   6.031   4.357   4.990  1.4944 -1.9348  0.6367
 3271TIP3   OH2 9818   2.894   2.491   2.500 -0.4939 -0.2449 -0.6145
 3271TIP3    H1 9819   2.868   2.492   2.592 -2.3339  1.6197 -1.0714
 3271TIP3    H2 9820   2.884   2.399   2.473 -0.2543 -0.7561  0.9399
 3272TIP3   OH2 9821   4.687   1.035   4.166  0.0396 -0.2224 -0.0855
 3272TIP3    H1 9822   4.643   0.999   4.089 -0.1325  1.3145 -0.7399
 3272TIP3    H2 9823   4.737   0.961   4.202 -1.1180 -1.3675 -0.7401
 3273TIP3   OH2 9824   0.364   1.826   4.088 -0.1253  0.1206 -0.4177
 3273TIP3    H1 9825   0.286   1.777   4.063 -1.2937  1.7055 -0.0637
 3273TIP3    H2 9826   0.427   1.809   4.018 -0.9653 -0.7789 -0.9856
 3274TIP3   OH2 9827   3.923   1.068   0.037  0.2854  0.0975  0.7011
 3274TIP3    H1 9828   3.989   1.001   0.024  1.1629  1.0629  0.0911
 3274TIP3    H2 9829   3.849   1.021   0.076 -0.2261 -1.7964 -2.2208
 3275TIP3   OH2 9830   5.374   3.949   2.852  0.0867 -0.0552  0.9140
 3275TIP3    H1 9831   5.467   3.954   2.876  0.0775  0.6721  0.8207
 3275TIP3    H2 9832   5.335   4.028   2.891  0.0726  1.1842 -1.4751
 3276TIP3   OH2 9833   2.493   1.086   4.796 -0.1493  0.1077  0.3528
 3276TIP3    H1 9834   2.471   0.996   4.818  1.7803 -0.5849 -0.3744
 3276TIP3    H2 9835   2.529   1.122   4.876  0.7365 -0.3438  0.1663
 3277TIP3   OH2 9836   5.031   5.898   1.815 -0.0711  0.4233  0.2603
 3277TIP3    H1 9837   4.956   5.925   1.763  0.3168 -0.2431 -0.6880
 3277TIP3    H2 9838   5.107   5.928   1.765  0.3773 -2.1200 -0.7852
 3278TIP3   OH2 9839   0.448   0.496   4.975  0.4132  0.3958 -0.6845
 3278TIP3    H1 9840   0.531   0.516   4.932  1.2666 -1.0656  0.1810
 3278TIP3    H2 9841   0.406   0.432   4.917  0.1569  0.7008 -0.8365
 3279TIP3   OH2 9842   3.928   4.242   1.626 -0.6701 -0.4078 -0.0013
 3279TIP3    H1 9843   3.849   4.296   1.622  0.1905  0.8581 -0.9695
 3279TIP3    H2 9844   3.942   4.226   1.719 -0.9958  1.0375  0.3221
 3280TIP3   OH2 9845   0.089   3.998   1.284  0.1732 -0.3655 -0.4022
 3280TIP3    H1 9846   0.181   3.982   1.260 -0.3347 -1.7549 -1.5381
 3280TIP3    H2 9847   0.091   4.082   1.331  2.2666 -1.2274  1.2192
 3281TIP3   OH2 9848   5.455   1.109   4.389  0.4208  0.2379  0.0213
 3281TIP3    H1 9849   5.526   1.170   4.410 -1.1692  1.8869  0.8302
 3281TIP3    H2 9850   5.477   1.076   4.302  2.3210  0.4500  0.3594
 3282TIP3   OH2 9851   6.297   4.169   1.994  0.0387 -0.6632  0.3672
 3282TIP3    H1 9852   6.268   4.221   1.919 -0.3604 -1.5904 -0.1423
 3282TIP3    H2 9853   6.389   4.192   2.005  0.6081 -1.7992 -1.5411
 3283TIP3   OH2 9854   4.116   2.535   4.140 -0.5596  0.3539 -0.2631
 3283TIP3    H1 9855   4.049   2.508   4.078 -2.2023  0.6412  1.2883
 3283TIP3    H2 9856   4.076   2.606   4.190  0.6313  0.0982  1.1507
 3284TIP3   OH2 9857   4.768   1.358   1.641 -0.9317  0.0540 -0.1774
 3284TIP3    H1 9858   4.686   1.404   1.622 -1.3121  0.0330  1.2999
 3284TIP3    H2 9859   4.836   1.426   1.634 -1.2961  0.4789  0.3969
 3285TIP3   OH2 9860   4.041   0.411   3.502 -0.3306  0.0771  0.0636
 3285TIP3    H1 9861   4.114   0.472   3.510 -1.0646  1.1262 -1.0329
 3285TIP3    H2 9862   3.963   0.462   3.525 -0.7877 -0.9353  0.8900
 3286TIP3   OH2 9863   2.042   1.915   2.573 -0.4874 -0.3259 -0.2216
 3286TIP3    H1 9864   2.113   1.876   2.521 -0.7694  1.5617 -2.1527
 3286TIP3    H2 9865   2.086   1.950   2.651  0.6630  0.4038 -1.1674
 3287TIP3   OH2 9866   2.587   4.641   0.340  0.0298  0.3371  0.6855
 3287TIP3    H1 9867   2.590   4.559   0.390  1.6639 -0.2769 -0.3299
 3287TIP3    H2 9868   2.575   4.613   0.249 -0.7015  1.3128  0.4670
 3288TIP3   OH2 9869   3.776   1.627   5.176 -0.6998 -0.0480 -0.2719
 3288TIP3    H1 9870   3.808   1.537   5.163  1.3146  0.6304 -0.3462
 3288TIP3    H2 9871   3.845   1.683   5.141 -1.5380  1.5616  0.5187
 3289TIP3   OH2 9872   1.892   1.742   2.288 -0.2019  0.2702  0.2257
 3289TIP3    H1 9873   1.889   1.693   2.207  0.2475  2.7257 -1.3959
 3289TIP3    H2 9874   1.981   1.776   2.293 -0.0916 -0.1501  1.9901
 3290TIP3   OH2 9875   2.570   0.185   5.028 -0.0466 -0.1381  0.4574
 3290TIP3    H1 9876   2.632   0.257   5.042 -0.2468  0.6844 -2.3515
 3290TIP3    H2 9877   2.523   0.179   5.111 -0.0302  3.0341  0.8353
 3291TIP3   OH2 9878   3.858   1.186   3.591 -0.9721  0.2239 -0.0280
 3291TIP3    H1 9879   3.866   1.266   3.642 -2.4788  1.3862 -1.5298
 3291TIP3    H2 9880   3.911   1.203   3.513 -3.4605  0.9357 -1.6596
 3292TIP3   OH2 9881   3.687   2.585   2.764 -0.1393 -0.1685  0.0837
 3292TIP3    H1 9882   3.726   2.504   2.732 -0.5513  0.3261 -1.8131
 3292TIP3    H2 9883   3.736   2.606   2.843  1.5225 -1.0660 -0.6545
 3293TIP3   OH2 9884   2.375   4.448   3.617 -0.5855 -0.0620  0.2856
 3293TIP3    H1 9885   2.297   4.396   3.635  0.6012 -1.8549  0.5559
 3293TIP3    H2 9886   2.447   4.395   3.652  0.8073  1.2015 -0.5680
 3294TIP3   OH2 9887   0.950   2.078   1.690  0.2038  0.1688 -0.7675
 3294TIP3    H1 9888   0.858   2.058   1.670 -0.5056 -0.5327  2.6397
 3294TIP3    H2 9889   0.963   2.045   1.779  2.9394  2.9295  0.0089
 3295TIP3   OH2 9890   4.428   4.873   1.952 -0.1522  0.1998  0.0167
 3295TIP3    H1 9891   4.425   4.876   2.048  0.6622 -1.2003  0.1172
 3295TIP3    H2 9892   4.370   4.801   1.928  0.0695  0.1920 -0.5086
 3296TIP3   OH2 9893   3.665   3.323   1.888  0.3813  0.6331  0.4331
 3296TIP3    H1 9894   3.739   3.275   1.925 -0.1211  0.5331  1.3271
 3296TIP3    H2 9895   3.703   3.373   1.815  1.6634  1.8044  1.8272
 3297TIP3   OH2 9896   3.860   1.378   2.946  0.1476  0.0241  0.1212
 3297TIP3    H1 9897   3.810   1.443   2.995 -1.3643 -0.5091 -0.6465
 3297TIP3    H2 9898   3.794   1.327   2.898  1.4716 -0.1894 -1.5939
 3298TIP3   OH2 9899   1.342   2.448   0.740  0.1998  0.3994 -0.2849
 3298TIP3    H1 9900   1.360   2.521   0.800  0.8255  0.7466 -0.8832
 3298TIP3    H2 9901   1.253   2.421   0.762  1.1437 -0.9320  2.2906
 3299TIP3   OH2 9902   2.024   1.994   1.502  0.2917  0.3847  0.0274
 3299TIP3    H1 9903   1.968   1.934   1.552  2.2382  0.1829  2.1473
 3299TIP3    H2 9904   2.025   2.074   1.555  0.5930  1.0135 -0.9159
 3300TIP3   OH2 9905   0.977   4.548   1.842 -0.0355 -0.0283 -0.1692
 3300TIP3    H1 9906   0.899   4.541   1.897  0.0549 -1.9639 -0.2184
 3300TIP3    H2 9907   0.989   4.460   1.806  2.2509  0.1675 -0.0412
 3301TIP3   OH2 9908   3.742   3.881   2.991 -0.2845 -0.0991  0.0257
 3301TIP3    H1 9909   3.779   3.944   2.929 -0.8302 -0.7042 -0.9495
 3301TIP3    H2 9910   3.647   3.895   2.985 -0.3556 -0.3779  0.4798
 3302TIP3   OH2 9911   0.495   0.034   4.760  0.7320 -0.0495 -0.0286
 3302TIP3    H1 9912   0.401   0.048   4.745  0.6347  0.8378  1.2557
 3302TIP3    H2 9913   0.534   0.120   4.748  1.1935 -0.1466  0.7111
 3303TIP3   OH2 9914   3.719   0.439   0.108 -0.1427 -0.0981  0.1725
 3303TIP3    H1 9915   3.672   0.521   0.098 -1.1782 -0.7971 -0.9576
 3303TIP3    H2 9916   3.811   0.461   0.090 -0.4105  0.8028 -0.1145
 3304TIP3   OH2 9917   1.364   4.468   1.825  0.7044 -0.4199  0.4361
 3304TIP3    H1 9918   1.442   4.524   1.831  1.7592 -1.5034 -1.8614
 3304TIP3    H2 9919   1.356   4.429   1.911  3.1459 -0.7987  0.5732
 3305TIP3   OH2 9920   2.523   2.808   1.317  0.3104  0.4584 -0.4791
 3305TIP3    H1 9921   2.445   2.854   1.351 -2.2277 -2.9717 -1.1258
 3305TIP3    H2 9922   2.557   2.866   1.249 -2.3530  1.7021 -0.9022
 3306TIP3   OH2 9923   5.991   2.275   3.758 -0.1706  0.3731  0.8841
 3306TIP3    H1 9924   5.933   2.205   3.728  1.0083 -0.2013 -0.1823
 3306TIP3    H2 9925   5.959   2.353   3.713  0.5417 -0.1615 -0.6316
 3307TIP3   OH2 9926   3.584   5.243   1.729 -0.4625  0.5294  0.0173
 3307TIP3    H1 9927   3.638   5.166   1.711 -0.3296  0.6897 -0.2831
 3307TIP3    H2 9928   3.630   5.315   1.685 -0.1018  0.9483  1.0622
 3308TIP3   OH2 9929   4.358   2.126   4.630 -0.5380 -0.3576  0.1783
 3308TIP3    H1 9930   4.373   2.219   4.614 -0.5856 -0.4197 -0.2282
 3308TIP3    H2 9931   4.402   2.109   4.714  0.5156 -0.2502 -0.3437
 3309TIP3   OH2 9932   1.064   4.545   3.683 -0.0389 -1.0296  0.3538
 3309TIP3    H1 9933   1.089   4.511   3.769 -1.4680  0.5597  1.4699
 3309TIP3    H2 9934   0.994   4.486   3.655  1.0312 -2.0909 -0.1762
 3310TIP3   OH2 9935   5.602   5.614   2.776  0.3556 -0.6203 -0.0854
 3310TIP3    H1 9936   5.622   5.690   2.721 -1.2419  0.0193  0.1697
 3310TIP3    H2 9937   5.589   5.651   2.863  2.1209 -1.5391  0.6107
 3311TIP3   OH2 9938   4.958   4.691   3.787 -0.0749 -0.0158 -0.5161
 3311TIP3    H1 9939   4.985   4.783   3.791  0.6118 -0.2353  1.5654
 3311TIP3    H2 9940   5.034   4.646   3.752 -0.6864  0.2570 -2.2849
 3312TIP3   OH2 9941   5.293   2.075   3.404  0.0189  0.2009  0.3242
 3312TIP3    H1 9942   5.247   2.127   3.338  0.8509  0.3279 -0.1789
 3312TIP3    H2 9943   5.285   2.125   3.485 -0.9925  0.0551  0.3295
 3313TIP3   OH2 9944   0.142   1.824   0.193 -0.0270 -0.1972  0.5610
 3313TIP3    H1 9945   0.235   1.826   0.169 -0.0617  0.7373  0.4676
 3313TIP3    H2 9946   0.109   1.742   0.155 -0.1068  1.2324 -2.7773
 3314TIP3   OH2 9947   3.098   3.686   3.657 -0.2821  0.0291  0.1899
 3314TIP3    H1 9948   3.035   3.641   3.602  0.3833 -0.7606  0.0476
 3314TIP3    H2 9949   3.060   3.684   3.745 -1.2271  1.0700 -0.1714
 3315TIP3   OH2 9950   3.323   5.069   2.653 -0.0609  0.4602 -0.0934
 3315TIP3    H1 9951   3.385   5.037   2.588  0.8674 -0.1879  1.0806
 3315TIP3    H2 9952   3.239   5.029   2.628  0.2137  0.4678 -1.0554
 3316TIP3   OH2 9953   6.089   3.211   5.097  0.1228 -0.4804 -0.1731
 3316TIP3    H1 9954   6.078   3.283   5.159  1.8325 -1.7541  1.7591
 3316TIP3    H2 9955   6.086   3.252   5.011  0.4268  1.8042  0.8372
 3317TIP3   OH2 9956   1.707   3.217   4.893 -0.0986 -0.2791 -0.9372
 3317TIP3    H1 9957   1.643   3.280   4.861  0.7958  0.1492 -1.9654
 3317TIP3    H2 9958   1.751   3.262   4.965 -1.2434 -0.7540  0.0885
 3318TIP3   OH2 9959   5.807   3.158   2.549 -0.1830  0.1442 -0.1908
 3318TIP3    H1 9960   5.736   3.094   2.558 -1.7075  1.8099  0.2114
 3318TIP3    H2 9961   5.864   3.122   2.482 -0.4649 -2.0735  0.6721
 3319TIP3   OH2 9962   5.951   1.543   3.962  0.0232  0.5810 -0.3701
 3319TIP3    H1 9963   6.028   1.503   3.922 -0.3918  0.0699 -0.6724
 3319TIP3    H2 9964   5.940   1.627   3.917  1.3243  1.3943  0.7629
 3320TIP3   OH2 9965   2.630   5.263   3.628 -0.6131 -0.3887 -0.2131
 3320TIP3    H1 9966   2.562   5.287   3.690 -0.8078  0.8115 -0.8631
 3320TIP3    H2 9967   2.638   5.167   3.636 -2.0951 -0.5006  0.1420
 3321TIP3   OH2 9968   2.177   2.922   4.089 -0.2951  0.5441 -0.1328
 3321TIP3    H1 9969   2.167   3.000   4.035 -0.2962  0.1395 -0.7406
 3321TIP3    H2 9970   2.243   2.870   4.043  0.7409  0.8144  1.0193
 3322TIP3   OH2 9971   3.651   0.825   3.295  0.8666 -0.0830 -0.2871
 3322TIP3    H1 9972   3.682   0.860   3.212 -2.0501  3.6775 -0.0745
 3322TIP3    H2 9973   3.586   0.759   3.271  0.5783  0.4471 -0.9748
 3323TIP3   OH2 9974   3.140   2.335   2.881  0.6705  0.1289 -0.2423
 3323TIP3    H1 9975   3.108   2.249   2.854  0.0230  0.1895  0.3240
 3323TIP3    H2 9976   3.191   2.366   2.806  1.9763 -1.2797  0.0044
 3324TIP3   OH2 9977   4.119   5.927   5.011 -0.1043  0.2017 -0.7328
 3324TIP3    H1 9978   4.102   6.020   4.994 -1.1195  0.2931  0.5714
 3324TIP3    H2 9979   4.171   5.928   5.092 -1.8271 -0.3886  0.4381
 3325TIP3   OH2 9980   3.239   5.495   2.422 -0.1543 -0.1023  0.7616
 3325TIP3    H1 9981   3.233   5.448   2.338  0.0992  1.2793 -0.0714
 3325TIP3    H2 9982   3.294   5.440   2.477  0.7989 -0.4175 -0.4504
 3326TIP3   OH2 9983   0.765   3.839   4.144  0.7695 -0.7546 -0.0599
 3326TIP3    H1 9984   0.781   3.923   4.186 -0.4028 -0.2612 -0.5678
 3326TIP3    H2 9985   0.694   3.799   4.194 -0.6259 -0.1715 -1.4991
 3327TIP3   OH2 9986   3.363   0.575   3.978  0.0554  0.3326  0.6331
 3327TIP3    H1 9987   3.346   0.481   3.980  0.7321  0.1417 -1.0908
 3327TIP3    H2 9988   3.299   0.610   3.916 -0.1215  1.0071  1.1797
 3328TIP3   OH2 9989   0.101   5.100   1.197  0.5959  0.0553  0.1246
 3328TIP3    H1 9990   0.166   5.103   1.127 -0.7988  1.1092 -1.2108
 3328TIP3    H2 9991   0.032   5.042   1.164 -0.5518  1.3415  0.1326
 3329TIP3   OH2 9992   3.176   1.932   4.440 -0.0879  0.9166  0.1676
 3329TIP3    H1 9993   3.208   2.023   4.446  2.0609  0.2414 -0.0891
 3329TIP3    H2 9994   3.193   1.906   4.350 -0.3974  0.1525  0.3193
 3330TIP3   OH2 9995   6.111   1.891   4.016 -0.0191 -0.0570 -0.3207
 3330TIP3    H1 9996   6.158   1.829   4.071 -1.4180 -1.3350 -0.5093
 3330TIP3    H2 9997   6.040   1.924   4.071 -0.8968 -0.6769 -1.0593
 3331TIP3   OH2 9998   4.888   5.760   0.837 -0.3704  0.2607 -0.0160
 3331TIP3    H1 9999   4.921   5.844   0.804 -1.1105  0.9906  1.0435
 3331TIP3    H210000   4.909   5.697   0.768  3.8369  0.4806  0.8214
 3332TIP3   OH210001   0.843   1.598   3.404 -0.2121  0.0181  0.0913
 3332TIP3    H110002   0.809   1.527   3.349  1.1093 -0.8066  0.3009
 3332TIP3    H210003   0.859   1.558   3.489  0.1643  0.6704  0.3388
 3333TIP3   OH210004   0.459   2.873   3.936 -0.4743 -0.3913  0.6732
 3333TIP3    H110005   0.395   2.922   3.988 -0.7338  2.2598 -1.8712
 3333TIP3    H210006   0.540   2.925   3.943 -0.2036 -0.6168 -0.6079
 3334TIP3   OH210007   5.354   5.410   1.325  0.1304 -0.0283 -0.1122
 3334TIP3    H110008   5.429   5.368   1.284  0.2055 -0.6275  0.6036
 3334TIP3    H210009   5.387   5.494   1.357  0.3833 -0.1052 -0.1746
 3335TIP3   OH210010   4.946   2.342   4.407 -0.6340  0.2567  0.1536
 3335TIP3    H110011   4.933   2.381   4.320 -0.8192 -0.4171 -0.1335
 3335TIP3    H210012   4.969   2.415   4.464  0.1886  0.6248 -0.6155
 3336TIP3   OH210013   0.803   4.156   0.849  0.2155  0.6329  0.4423
 3336TIP3    H110014   0.737   4.191   0.790  0.8806 -0.0766 -0.7797
 3336TIP3    H210015   0.758   4.085   0.896 -0.0726  0.5998  0.1186
 3337TIP3   OH210016   1.547   0.307   0.873 -0.1737 -0.0581  0.1134
 3337TIP3    H110017   1.534   0.303   0.778  5.2077 -2.4388 -0.9032
 3337TIP3    H210018   1.502   0.230   0.906 -0.1742 -0.5089 -0.8889
 3338TIP3   OH210019   2.177   3.673   2.653  0.6448 -0.2732  0.0653
 3338TIP3    H110020   2.200   3.618   2.728 -1.0957 -1.5479 -0.2802
 3338TIP3    H210021   2.168   3.761   2.689 -0.3303 -0.8874  1.3889
 3339TIP3   OH210022   4.504   2.399   1.508 -0.0829 -0.1288  0.0814
 3339TIP3    H110023   4.432   2.337   1.497 -0.4879  0.4372 -0.5047
 3339TIP3    H210024   4.578   2.358   1.462 -0.5437  0.1521 -0.9205
 3340TIP3   OH210025   4.536   3.109   4.754  0.0916  0.5167  0.2208
 3340TIP3    H110026   4.545   3.182   4.814  1.3261  0.1299  0.5204
 3340TIP3    H210027   4.504   3.037   4.808  1.6681  0.0315  0.5390
 3341TIP3   OH210028   2.770   0.372   3.980 -0.3728  0.0449  0.3310
 3341TIP3    H110029   2.685   0.416   3.983 -1.0701 -1.1682 -0.3754
 3341TIP3    H210030   2.810   0.389   4.065 -0.7334  1.7519  0.1805
 3342TIP3   OH210031   0.822   4.080   0.385  0.2212  0.0742 -0.0210
 3342TIP3    H110032   0.769   4.131   0.447 -0.2238  0.3340 -0.6044
 3342TIP3    H210033   0.912   4.094   0.414 -0.0391 -0.7484  1.2633
 3343TIP3   OH210034   0.122   3.311   2.530  0.4952  0.1901  0.0255
 3343TIP3    H110035   0.197   3.342   2.478 -0.4552  1.3756 -0.7009
 3343TIP3    H210036   0.057   3.284   2.465 -0.8553  2.0298  0.5062
 3344TIP3   OH210037   0.643   5.418   3.277  0.1345  0.1324 -0.6942
 3344TIP3    H110038   0.698   5.352   3.319 -0.2279  0.3874  0.2109
 3344TIP3    H210039   0.675   5.423   3.187  0.1457 -1.3051 -0.7958
 3345TIP3   OH210040   5.996   4.886   4.595 -0.4467 -0.5401 -0.0468
 3345TIP3    H110041   5.921   4.901   4.652 -1.9074 -1.2210 -1.6813
 3345TIP3    H210042   6.043   4.969   4.594 -1.6959  0.1976  0.3196
 3346TIP3   OH210043   1.527   2.928   4.870 -0.0824 -0.7175 -0.1964
 3346TIP3    H110044   1.565   2.961   4.952  0.6482  0.4552 -0.9942
 3346TIP3    H210045   1.438   2.902   4.895  0.6273 -1.9102  1.3225
 3347TIP3   OH210046   0.217   2.065   4.126  0.0307  0.5612 -0.2689
 3347TIP3    H110047   0.287   2.130   4.133  0.3626  0.4273 -1.9496
 3347TIP3    H210048   0.259   1.990   4.085 -0.3486 -0.7546  1.5959
 3348TIP3   OH210049   1.026   5.763   2.891  0.7409 -0.0552 -0.0324
 3348TIP3    H110050   1.095   5.741   2.954  0.7440  2.3005  0.8761
 3348TIP3    H210051   0.959   5.807   2.943 -1.4223 -2.0314 -0.9328
 3349TIP3   OH210052   1.542   4.831   4.858 -0.3537  0.1282  0.2783
 3349TIP3    H110053   1.462   4.883   4.848 -1.3889 -1.0539  1.8549
 3349TIP3    H210054   1.573   4.817   4.769 -2.2747  0.0566 -0.4223
 3350TIP3   OH210055   0.775   5.607   1.971 -0.1055 -0.4250 -0.1577
 3350TIP3    H110056   0.837   5.654   2.026 -1.7440  1.1536  0.4370
 3350TIP3    H210057   0.816   5.521   1.957  1.4777 -0.0020  1.4645
 3351TIP3   OH210058   1.194   4.153   1.566 -0.1650 -1.0098  0.6453
 3351TIP3    H110059   1.256   4.212   1.524  0.0605 -3.2721 -2.5455
 3351TIP3    H210060   1.225   4.146   1.656  1.6596  1.1718  0.2817
 3352TIP3   OH210061   3.758   1.483   1.795  0.1541  0.3180  0.0962
 3352TIP3    H110062   3.767   1.577   1.777 -1.1608  0.2450 -1.0824
 3352TIP3    H210063   3.823   1.442   1.737 -0.3490  0.4174 -0.5479
 3353TIP3   OH210064   4.582   1.729   4.266 -0.4733  0.1631  0.0028
 3353TIP3    H110065   4.550   1.804   4.214  0.4619  1.1822  0.8451
 3353TIP3    H210066   4.673   1.718   4.238 -0.2358  0.1502  0.7631
 3354TIP3   OH210067   6.213   1.290   4.567 -0.5262 -0.2454 -0.2327
 3354TIP3    H110068   6.141   1.347   4.541  0.0345  1.3304  1.5100
 3354TIP3    H210069   6.169   1.212   4.603 -1.3940  0.5207  0.4445
 3355TIP3   OH210070   0.782   2.741   5.112 -0.0682 -0.3884 -0.3241
 3355TIP3    H110071   0.827   2.663   5.082  1.2894  0.7515 -1.4059
 3355TIP3    H210072   0.720   2.710   5.178  2.6282 -2.0113  1.6205
 3356TIP3   OH210073   4.846   2.454   2.745  0.2164  0.0663  0.5647
 3356TIP3    H110074   4.880   2.441   2.834 -0.4650  0.0628  0.8260
 3356TIP3    H210075   4.815   2.545   2.745 -1.5628 -0.5125  0.9388
 3357TIP3   OH210076   2.343   2.770   2.886  0.1307  0.1155 -0.2358
 3357TIP3    H110077   2.408   2.839   2.898 -0.2130  0.4233 -0.1271
 3357TIP3    H210078   2.394   2.689   2.886  0.8547  0.4954 -2.9814
 3358TIP3   OH210079   5.149   3.634   4.968  0.0689  0.0010  0.5605
 3358TIP3    H110080   5.178   3.714   4.924 -0.1473 -1.0903 -1.7593
 3358TIP3    H210081   5.055   3.647   4.981 -0.0357  0.0172 -0.1356
 3359TIP3   OH210082   1.410   3.954   0.578  0.0855 -0.0986  0.1758
 3359TIP3    H110083   1.423   4.018   0.507  1.3250  2.5540  2.5679
 3359TIP3    H210084   1.463   3.879   0.552  1.1137  1.0786 -1.3763
 3360TIP3   OH210085   1.291   2.800   2.969  0.2513  0.3988  0.0351
 3360TIP3    H110086   1.313   2.876   3.022  0.4260  0.0294  0.4946
 3360TIP3    H210087   1.353   2.803   2.896  0.6948  0.3180  0.4087
 3361TIP3   OH210088   0.774   5.749   1.691 -0.0176  0.0052  0.1956
 3361TIP3    H110089   0.797   5.689   1.762 -1.9736 -2.9332 -1.4829
 3361TIP3    H210090   0.837   5.730   1.622 -0.3202  0.2690 -0.1582
 3362TIP3   OH210091   3.900   5.931   2.263 -0.3568  0.2221 -0.1398
 3362TIP3    H110092   3.946   6.010   2.233 -1.6263  1.3537  0.7455
 3362TIP3    H210093   3.902   5.872   2.188 -1.1918  1.9334 -1.5868
 3363TIP3   OH210094   0.876   3.563   4.448 -0.1098  0.3358  0.5593
 3363TIP3    H110095   0.787   3.566   4.412 -0.1892  0.6519  0.7723
 3363TIP3    H210096   0.866   3.597   4.537  0.4379  1.7477  0.1174
 3364TIP3   OH210097   2.820   5.849   3.133 -0.0576 -0.5379  0.3892
 3364TIP3    H110098   2.825   5.754   3.124 -1.0343 -0.4727 -1.7355
 3364TIP3    H210099   2.883   5.871   3.201 -0.8364 -2.8258  1.9513
 3365TIP3   OH210100   1.646   3.624   0.048  0.1474  0.1761 -0.1033
 3365TIP3    H110101   1.651   3.530   0.030 -0.2965  0.3724 -1.3307
 3365TIP3    H210102   1.725   3.660   0.008 -0.1395  0.4431 -0.4300
 3366TIP3   OH210103   3.814   1.300   0.119  0.1987 -0.0928  0.4850
 3366TIP3    H110104   3.884   1.344   0.168  0.6164 -1.5431  1.2308
 3366TIP3    H210105   3.844   1.210   0.110 -1.0120 -0.4351 -0.3104
 3367TIP3   OH210106   5.443   0.448   3.016  0.1342 -0.1045 -0.2676
 3367TIP3    H110107   5.500   0.520   2.989  0.2150  0.3325  0.9971
 3367TIP3    H210108   5.472   0.374   2.963 -0.1294  0.8417 -1.7753
 3368TIP3   OH210109   4.499   5.036   3.759  0.3117 -0.0254  0.4003
 3368TIP3    H110110   4.545   4.952   3.759 -1.4355 -1.0686  2.0918
 3368TIP3    H210111   4.492   5.059   3.852  1.2308  2.3108 -0.0483
 3369TIP3   OH210112   2.787   3.874   3.914 -0.1467 -0.0298 -0.3787
 3369TIP3    H110113   2.873   3.910   3.934  0.1506  0.0542 -1.7259
 3369TIP3    H210114   2.741   3.873   3.998  1.7652 -1.7596  0.7452
 3370TIP3   OH210115   3.958   5.047   2.939  0.0898 -0.4418  0.4096
 3370TIP3    H110116   3.965   5.117   2.874 -0.3545 -2.3575 -1.8418
 3370TIP3    H210117   4.049   5.020   2.955  0.1871 -0.0935  0.4545
 3371TIP3   OH210118   4.179   5.668   2.819  0.8754  0.1556  0.9321
 3371TIP3    H110119   4.116   5.680   2.748  0.1675 -1.0133  1.3398
 3371TIP3    H210120   4.211   5.579   2.809  0.9276  0.0422  1.9442
 3372TIP3   OH210121   2.302   3.291   3.674 -0.3566 -0.2646  0.3396
 3372TIP3    H110122   2.274   3.382   3.676  1.7607  0.4423  0.0070
 3372TIP3    H210123   2.304   3.268   3.581 -0.6710 -0.6003  0.4102
 3373TIP3   OH210124   3.419   2.818   0.653 -0.7478  0.5921  0.0999
 3373TIP3    H110125   3.394   2.855   0.569 -2.4001  1.5961  0.9905
 3373TIP3    H210126   3.501   2.862   0.675 -0.6524  0.8140 -0.6630
 3374TIP3   OH210127   0.618   2.639   0.471  0.1966  0.2711 -0.1299
 3374TIP3    H110128   0.575   2.724   0.469  1.2497  0.8261 -1.7935
 3374TIP3    H210129   0.702   2.655   0.514  0.7273  0.2869 -1.1293
 3375TIP3   OH210130   5.075   1.118   0.528  0.5560  0.2652  0.4266
 3375TIP3    H110131   5.002   1.069   0.566  0.4989 -0.1747 -0.2391
 3375TIP3    H210132   5.117   1.159   0.604  0.4959 -0.6714  0.9966
 3376TIP3   OH210133   0.360   4.073   1.094 -1.0734  0.0582  0.0647
 3376TIP3    H110134   0.300   4.146   1.104 -1.0786  0.0662 -0.0231
 3376TIP3    H210135   0.324   4.022   1.022 -0.3144  0.7244 -0.8076
 3377TIP3   OH210136   5.669   2.252   0.955  0.1624 -0.2988  0.2415
 3377TIP3    H110137   5.711   2.183   1.007 -1.3976  1.2973  4.0349
 3377TIP3    H210138   5.742   2.298   0.913  1.6528 -1.3994  1.5178
 3378TIP3   OH210139   1.304   0.749   0.227 -0.1064 -0.1623  0.0541
 3378TIP3    H110140   1.282   0.655   0.228 -0.6877 -0.0414 -0.6528
 3378TIP3    H210141   1.388   0.753   0.181 -0.9610 -0.1827 -1.5942
 3379TIP3   OH210142   4.333   4.699   4.281 -0.0019 -0.1636  0.3558
 3379TIP3    H110143   4.399   4.715   4.349 -0.2056 -2.4353  1.1366
 3379TIP3    H210144   4.249   4.712   4.325 -0.1247 -0.5763  0.2409
 3380TIP3   OH210145   2.260   5.697   2.554 -0.3437  0.3780 -0.0150
 3380TIP3    H110146   2.179   5.649   2.536 -1.2159  0.7966  2.4418
 3380TIP3    H210147   2.231   5.777   2.598  1.3285  1.4637 -0.7807
 3381TIP3   OH210148   3.784   0.427   1.393 -0.1156  0.0910 -0.0048
 3381TIP3    H110149   3.745   0.379   1.466 -0.2021 -1.1476 -0.8465
 3381TIP3    H210150   3.725   0.413   1.320  1.2193 -0.7861 -0.9718
 3382TIP3   OH210151   1.276   2.645   3.376  0.3593  0.1387  0.0951
 3382TIP3    H110152   1.317   2.599   3.303  0.6122 -0.3480  0.5342
 3382TIP3    H210153   1.230   2.577   3.425  1.4798  0.1751  1.2514
 3383TIP3   OH210154   2.088   2.600   2.148 -0.0782  0.3084 -0.0204
 3383TIP3    H110155   2.046   2.677   2.187  2.2092  1.7088 -0.1242
 3383TIP3    H210156   2.101   2.624   2.057  1.6806  0.3149  0.1973
 3384TIP3   OH210157   5.107   4.557   1.976 -0.2241  0.1506 -0.2726
 3384TIP3    H110158   5.163   4.480   1.965  0.6295  0.6445  0.5224
 3384TIP3    H210159   5.024   4.522   2.007  0.1724 -0.4472  0.1266
 3385TIP3   OH210160   0.127   2.095   3.712  0.0853  0.2307 -0.1104
 3385TIP3    H110161   0.094   2.032   3.776  0.1246  0.3671  0.0442
 3385TIP3    H210162   0.054   2.154   3.696  0.0451  0.1420 -0.2637
 3386TIP3   OH210163   0.272   0.700   2.318  0.2281 -0.6438  0.1383
 3386TIP3    H110164   0.213   0.685   2.391  1.2499  2.2292  1.7000
 3386TIP3    H210165   0.257   0.791   2.293  3.6927  0.1457  0.4153
 3387TIP3   OH210166   1.606   5.863   3.722 -0.0469  0.1956  0.3349
 3387TIP3    H110167   1.583   5.900   3.807 -0.3175 -0.3475  0.5007
 3387TIP3    H210168   1.697   5.889   3.709 -0.1604  0.7208  0.5505
 3388TIP3   OH210169   4.681   4.147   2.021  0.1410 -0.0935 -0.4176
 3388TIP3    H110170   4.658   4.159   2.113 -0.2240 -1.6869 -0.2661
 3388TIP3    H210171   4.608   4.098   1.984  0.0536  0.9313 -1.6944
 3389TIP3   OH210172   2.065   4.677   4.083 -0.8059  0.5920 -0.2062
 3389TIP3    H110173   1.969   4.682   4.078 -0.7343  1.0769 -1.7704
 3389TIP3    H210174   2.086   4.703   4.172 -2.1368  0.2435  0.2379
 3390TIP3   OH210175   1.375   0.098   1.746 -0.5019 -0.5840  0.1242
 3390TIP3    H110176   1.374   0.006   1.770 -1.0695 -0.8964 -1.0044
 3390TIP3    H210177   1.389   0.098   1.651  0.5352  0.5325  0.2468
 3391TIP3   OH210178   5.955   1.108   1.155  0.2852 -0.0006 -0.3966
 3391TIP3    H110179   5.907   1.124   1.236  0.8232 -0.1281 -0.0493
 3391TIP3    H210180   5.910   1.160   1.089 -1.5039 -1.5351 -0.4813
 3392TIP3   OH210181   3.977   2.093   4.850  0.8518  0.6351  0.0674
 3392TIP3    H110182   3.910   2.130   4.908  1.5901  1.6697  0.2823
 3392TIP3    H210183   3.990   2.004   4.882 -0.1194  0.5577  0.2818
 3393TIP3   OH210184   4.466   0.302   0.838  0.3836  0.1410  0.4788
 3393TIP3    H110185   4.448   0.293   0.745  0.2505 -0.4827  0.5634
 3393TIP3    H210186   4.560   0.319   0.843  0.5675 -0.7580  0.2792
 3394TIP3   OH210187   0.799   5.864   2.322 -0.3697 -0.1178 -0.0269
 3394TIP3    H110188   0.758   5.947   2.297 -0.6529 -0.7195 -1.6819
 3394TIP3    H210189   0.743   5.829   2.391 -0.0047  1.2522  0.9984
 3395TIP3   OH210190   5.440   2.560   4.058  0.2410 -0.1186  0.1600
 3395TIP3    H110191   5.490   2.576   4.139  1.1796  0.9694 -0.5930
 3395TIP3    H210192   5.498   2.591   3.989 -0.0907 -2.0293 -1.0420
 3396TIP3   OH210193   1.187   0.055   4.912 -0.4696 -0.2242  0.3727
 3396TIP3    H110194   1.155   0.066   5.002 -1.5681 -0.2187 -0.0102
 3396TIP3    H210195   1.119   0.094   4.857  0.0314 -0.5315 -0.4880
 3397TIP3   OH210196   4.057   2.436   4.519 -0.4216  0.0749 -0.6083
 3397TIP3    H110197   4.061   2.341   4.528  2.0519 -0.0788 -2.3866
 3397TIP3    H210198   3.992   2.464   4.585 -0.3105 -2.6928  0.8107
 3398TIP3   OH210199   4.524   4.810   1.518  0.0139 -0.3908  0.5055
 3398TIP3    H110200   4.525   4.901   1.547  0.1639 -0.3092  0.2497
 3398TIP3    H210201   4.456   4.768   1.570 -0.1024 -0.1151  0.5736
 3399TIP3   OH210202   2.205   3.761   2.993 -0.0857 -0.4908 -0.5392
 3399TIP3    H110203   2.275   3.810   2.949  0.7958  1.4333  2.6670
 3399TIP3    H210204   2.139   3.827   3.014 -0.0303 -1.0644  1.7155
 3400TIP3   OH210205   3.687   3.646   3.510  0.2654  0.2332 -0.1089
 3400TIP3    H110206   3.662   3.653   3.602  0.8296 -2.7856  0.3676
 3400TIP3    H210207   3.608   3.669   3.462 -1.2781 -1.8527  1.2498
 3401TIP3   OH210208   2.647   5.481   4.605  0.5527  0.2830  0.6508
 3401TIP3    H110209   2.734   5.500   4.569  0.5932 -0.4575  0.3494
 3401TIP3    H210210   2.614   5.410   4.551 -0.5581  1.0611  0.2644
 3402TIP3   OH210211   5.202   2.533   2.768 -0.1215 -1.1812 -0.2314
 3402TIP3    H110212   5.136   2.509   2.703 -1.2004  1.9241 -0.4365
 3402TIP3    H210213   5.283   2.543   2.717 -0.6903  0.0590 -0.9349
 3403TIP3   OH210214   1.289   2.019   2.426  0.8754 -0.6490  0.1585
 3403TIP3    H110215   1.363   2.049   2.479 -1.5432  0.2789  3.3153
 3403TIP3    H210216   1.278   2.087   2.359  2.7045 -0.7421 -0.3034
 3404TIP3   OH210217   5.316   5.467   5.049 -0.2468 -0.1690 -0.3463
 3404TIP3    H110218   5.225   5.475   5.021 -0.5929 -0.3718  0.6841
 3404TIP3    H210219   5.367   5.490   4.971 -1.1723  0.3383 -0.8225
 3405TIP3   OH210220   0.665   0.292   4.840  0.7912  0.2465  0.3595
 3405TIP3    H110221   0.695   0.379   4.868 -0.9804  0.6834  1.0831
 3405TIP3    H210222   0.689   0.287   4.747  1.5559  1.2166  0.4860
 3406TIP3   OH210223   3.346   2.145   3.869  0.4882  0.2450 -0.5049
 3406TIP3    H110224   3.380   2.072   3.818  1.1570 -0.1760  0.5199
 3406TIP3    H210225   3.321   2.210   3.804 -1.2085 -1.3312 -1.4993
 3407TIP3   OH210226   1.894   3.403   4.027  0.0150 -0.3405  0.3812
 3407TIP3    H110227   1.833   3.445   3.966  0.4534 -0.2098  0.0298
 3407TIP3    H210228   1.839   3.379   4.102 -0.7078 -1.3128 -0.4271
 3408TIP3   OH210229   4.624   5.583   0.769  0.0495 -0.1949  0.2353
 3408TIP3    H110230   4.555   5.582   0.835 -0.6430  3.9930 -0.1328
 3408TIP3    H210231   4.698   5.627   0.812  0.3795  0.5723 -1.0636
 3409TIP3   OH210232   0.488   4.644   0.153 -0.0344  0.3304 -0.2510
 3409TIP3    H110233   0.458   4.735   0.143 -0.9135  0.0911  0.1052
 3409TIP3    H210234   0.459   4.601   0.072 -0.3538  0.1739 -0.0528
 3410TIP3   OH210235   4.153   0.322   2.986 -0.6085  0.3798 -0.4268
 3410TIP3    H110236   4.165   0.230   2.962 -1.3354  0.5449 -1.4916
 3410TIP3    H210237   4.115   0.319   3.074  0.3358 -0.3011 -0.0326
 3411TIP3   OH210238   2.262   3.275   3.395 -0.6010 -0.3126  0.3964
 3411TIP3    H110239   2.310   3.354   3.370  0.0101 -0.0349  2.3167
 3411TIP3    H210240   2.193   3.268   3.329 -0.6491  1.8069  0.1330
 3412TIP3   OH210241   3.783   0.849   3.539 -0.6621 -0.0081 -0.2837
 3412TIP3    H110242   3.763   0.827   3.448 -5.1006 -3.4821  1.1820
 3412TIP3    H210243   3.709   0.901   3.568 -0.6620 -1.1490  1.9451
 3413TIP3   OH210244   1.370   0.623   2.079 -0.0245 -0.2395 -0.1681
 3413TIP3    H110245   1.324   0.695   2.122  0.7808  0.4225 -0.3769
 3413TIP3    H210246   1.428   0.666   2.016 -0.3575 -1.1371 -1.1097
 3414TIP3   OH210247   3.097   3.053   5.175  0.2633 -0.1608 -0.0878
 3414TIP3    H110248   3.051   2.995   5.115 -0.9431 -1.2168  1.7699
 3414TIP3    H210249   3.033   3.120   5.199  0.6833  0.1737  0.1239
 3415TIP3   OH210250   5.359   2.418   5.178  0.2134  0.0416 -0.4438
 3415TIP3    H110251   5.383   2.484   5.113 -0.6251  0.5192 -0.2841
 3415TIP3    H210252   5.362   2.335   5.130  1.2274  0.1876 -0.6595
 3416TIP3   OH210253   0.697   2.444   1.909 -0.2359 -1.0995 -0.0961
 3416TIP3    H110254   0.632   2.414   1.846 -0.8572 -1.4219  0.6787
 3416TIP3    H210255   0.726   2.529   1.876 -2.0677 -0.2950  0.2527
 3417TIP3   OH210256   0.208   0.585   4.194 -0.0177  0.0084 -0.1546
 3417TIP3    H110257   0.267   0.515   4.219  0.1533  0.7781  1.7556
 3417TIP3    H210258   0.265   0.660   4.175 -0.1962 -0.3010 -2.1493
 3418TIP3   OH210259   4.370   0.694   0.338  0.0400  0.1377 -1.0465
 3418TIP3    H110260   4.357   0.688   0.432  0.0649  0.8752 -0.9911
 3418TIP3    H210261   4.390   0.604   0.310 -1.4526 -0.3685 -0.5803
 3419TIP3   OH210262   1.653   0.809   0.955 -0.2052  0.0151  0.1309
 3419TIP3    H110263   1.609   0.810   0.870  0.4348  1.5811 -0.2209
 3419TIP3    H210264   1.672   0.717   0.972 -0.0912 -0.2969 -1.5624
 3420TIP3   OH210265   5.649   0.191   3.703 -0.2148 -0.0125 -0.3395
 3420TIP3    H110266   5.670   0.255   3.635  1.6468  0.4994  0.6537
 3420TIP3    H210267   5.580   0.233   3.755 -1.2723 -0.1904 -1.5601
 3421TIP3   OH210268   2.716   4.442   2.581 -0.0615 -0.3259  0.0947
 3421TIP3    H110269   2.634   4.441   2.629  0.2009 -3.1548  0.6508
 3421TIP3    H210270   2.742   4.534   2.579 -2.4999  0.4597  1.1211
 3422TIP3   OH210271  -0.002   5.676   4.871 -0.2714 -0.1015  0.2815
 3422TIP3    H110272   0.061   5.742   4.900 -1.0093 -0.0576  1.8558
 3422TIP3    H210273   0.052   5.606   4.835  0.5316  1.3422 -1.5097
 3423TIP3   OH210274   3.159   2.124   3.158 -0.1735  0.0476 -0.4593
 3423TIP3    H110275   3.237   2.180   3.158  0.0185 -0.2113 -1.0470
 3423TIP3    H210276   3.143   2.106   3.065 -0.7229 -0.1982 -0.3199
 3424TIP3   OH210277   2.853   4.264   1.459  0.8111 -0.8935  0.1932
 3424TIP3    H110278   2.887   4.266   1.548  1.2476  0.3417  0.0263
 3424TIP3    H210279   2.763   4.295   1.467  0.4182 -2.0484  0.3589
 3425TIP3   OH210280   5.466   3.991   3.204  0.3261 -0.3094 -0.2896
 3425TIP3    H110281   5.539   4.045   3.172  1.7784 -0.9427  1.7020
 3425TIP3    H210282   5.435   4.037   3.282 -0.9677 -0.4326 -0.7076
 3426TIP3   OH210283   4.217   3.008   2.497  0.0664 -0.0649  0.9408
 3426TIP3    H110284   4.195   3.087   2.448  0.9419 -0.0274  0.5879
 3426TIP3    H210285   4.239   2.944   2.430  1.2523 -0.0214  1.2645
 3427TIP3   OH210286   3.930   3.135   3.823 -0.1808 -0.1852 -0.1786
 3427TIP3    H110287   3.878   3.205   3.863 -1.4266 -0.4123 -1.3350
 3427TIP3    H210288   3.978   3.178   3.752  1.0914 -0.0210  0.7450
 3428TIP3   OH210289   4.929   2.833   3.349  0.1903 -0.2509  0.3501
 3428TIP3    H110290   4.981   2.908   3.379  1.1288 -0.1929 -1.2954
 3428TIP3    H210291   4.985   2.757   3.362 -0.5425 -0.6286  1.4781
 3429TIP3   OH210292   6.025   0.997   0.851 -0.5513  0.4672 -0.1001
 3429TIP3    H110293   6.071   1.067   0.805 -0.5793 -0.4594 -1.6155
 3429TIP3    H210294   5.932   1.018   0.839 -0.5615  0.8425  0.5644
 3430TIP3   OH210295   6.308   3.013   5.105  0.2238  0.8250 -0.2412
 3430TIP3    H110296   6.360   3.057   5.038  0.2961 -0.4122 -1.0439
 3430TIP3    H210297   6.219   3.049   5.094  0.0866  0.1696 -1.4740
 3431TIP3   OH210298   1.841   5.182   4.532  0.2496  0.4105  0.0586
 3431TIP3    H110299   1.831   5.274   4.557 -0.9926  0.1672  0.5328
 3431TIP3    H210300   1.848   5.184   4.436  1.0189  1.0544  0.1220
 3432TIP3   OH210301   0.840   2.510   5.032  0.4370 -0.3542  0.2836
 3432TIP3    H110302   0.770   2.508   4.967 -0.0929 -0.5254  0.8540
 3432TIP3    H210303   0.911   2.459   4.993  0.7674  0.9183 -0.8728
 3433TIP3   OH210304   0.442   1.414   1.128 -0.0863 -0.1509 -0.1240
 3433TIP3    H110305   0.398   1.480   1.075 -0.8908 -0.9834 -0.5196
 3433TIP3    H210306   0.520   1.458   1.161  0.8479  0.1929 -2.5878
 3434TIP3   OH210307   0.429   0.586   3.678 -0.3609 -0.0126  0.1622
 3434TIP3    H110308   0.425   0.532   3.757  0.3791 -0.5246 -0.1357
 3434TIP3    H210309   0.478   0.532   3.615  1.3902  1.4298  0.1970
 3435TIP3   OH210310   5.893   5.516   2.108  0.1368 -0.1932 -1.0361
 3435TIP3    H110311   5.802   5.513   2.080  0.3105 -0.3127 -1.6052
 3435TIP3    H210312   5.904   5.439   2.164 -0.5291  0.6893  0.3815
 3436TIP3   OH210313   2.625   3.026   2.489  0.4071  0.0712 -0.5863
 3436TIP3    H110314   2.667   3.069   2.564  1.9355  1.1567 -1.9979
 3436TIP3    H210315   2.696   2.977   2.447 -0.3940 -0.3857 -1.4423
 3437TIP3   OH210316   5.826   3.214   1.532  0.1324 -0.4217 -0.2367
 3437TIP3    H110317   5.837   3.218   1.437 -2.9196 -0.6958 -0.7130
 3437TIP3    H210318   5.896   3.156   1.562  0.9031 -0.6824 -2.3870
 3438TIP3   OH210319   1.575   1.418   1.559 -0.0422 -0.0138 -0.3014
 3438TIP3    H110320   1.622   1.347   1.602  0.7197  1.1881  0.9271
 3438TIP3    H210321   1.568   1.486   1.626 -1.7061  0.6654 -1.0991
 3439TIP3   OH210322   5.385   0.076   1.313  0.9940  0.2503  0.3686
 3439TIP3    H110323   5.466   0.119   1.287  0.6995 -0.1198 -1.2586
 3439TIP3    H210324   5.414  -0.006   1.353  1.4495  0.4449  0.4465
 3440TIP3   OH210325   1.476   2.358   2.119  0.3851 -0.0001 -0.1607
 3440TIP3    H110326   1.437   2.419   2.055  1.2649  0.4098 -0.3135
 3440TIP3    H210327   1.569   2.357   2.099  0.3393 -1.7365 -0.4195
 3441TIP3   OH210328   2.724   3.424   0.395  0.0798 -0.2615  0.4691
 3441TIP3    H110329   2.817   3.450   0.398 -0.5052  2.7964 -2.3334
 3441TIP3    H210330   2.717   3.370   0.317 -0.5745 -0.0601  0.3852
 3442TIP3   OH210331   5.819   4.913   0.758 -0.1706  0.0773 -0.1650
 3442TIP3    H110332   5.837   4.836   0.813 -1.6410 -0.6694 -0.6631
 3442TIP3    H210333   5.877   4.981   0.791 -0.1331 -0.7231  1.4945
 3443TIP3   OH210334   0.294   4.553   4.304 -0.0740 -0.0413 -0.2714
 3443TIP3    H110335   0.214   4.505   4.287 -0.5068  0.2559  0.8399
 3443TIP3    H210336   0.308   4.606   4.225  0.1172 -1.5352 -1.2793
 3444TIP3   OH210337   1.122   3.357   2.731  0.5640 -0.2260 -0.1350
 3444TIP3    H110338   1.135   3.424   2.663  1.5162  0.3381  0.5880
 3444TIP3    H210339   1.191   3.293   2.715  0.2868 -0.5122 -0.1915
 3445TIP3   OH210340   0.841   2.727   3.954  0.1580 -0.3773 -0.3536
 3445TIP3    H110341   0.788   2.679   4.018  0.0576  0.7401  0.4325
 3445TIP3    H210342   0.790   2.806   3.936  0.9595  0.0921 -0.5742
 3446TIP3   OH210343   0.620   4.665   5.026 -0.0239 -0.1693  0.5911
 3446TIP3    H110344   0.609   4.666   4.931 -0.2273 -0.5072  0.6092
 3446TIP3    H210345   0.703   4.711   5.041 -1.6993  3.2161  0.5191
 3447TIP3   OH210346   5.726   5.399   1.667  0.0609  0.1247 -0.1250
 3447TIP3    H110347   5.772   5.469   1.713  1.6309 -0.9782  0.0787
 3447TIP3    H210348   5.643   5.391   1.713  0.1860  1.3256  0.3402
 3448TIP3   OH210349   5.869   0.221   3.234  0.0860  0.0243 -0.0859
 3448TIP3    H110350   5.927   0.241   3.307 -0.4267  3.0588 -0.3746
 3448TIP3    H210351   5.791   0.275   3.249 -0.3569  0.1665 -2.4380
 3449TIP3   OH210352   5.821   1.321   1.975 -0.1114 -0.4864  0.2940
 3449TIP3    H110353   5.762   1.246   1.967  2.2396 -2.3209 -0.6855
 3449TIP3    H210354   5.862   1.310   2.061 -0.7498  0.5223  0.7604
 3450TIP3   OH210355   2.471   0.620   2.310  0.5903 -0.2299  0.2683
 3450TIP3    H110356   2.403   0.608   2.377  1.2419 -1.0964  0.7993
 3450TIP3    H210357   2.553   0.604   2.357  1.1652  0.7106 -0.3865
 3451TIP3   OH210358   2.638   5.482   1.552 -0.2648  0.4542 -0.1530
 3451TIP3    H110359   2.630   5.533   1.632 -0.7041  2.2572 -1.2719
 3451TIP3    H210360   2.550   5.446   1.538 -0.3465  0.6545 -0.1522
 3452TIP3   OH210361   6.134   5.101   2.706 -0.5115 -0.5146 -0.2786
 3452TIP3    H110362   6.204   5.036   2.704 -0.9458 -1.0081  0.4496
 3452TIP3    H210363   6.057   5.055   2.674 -0.4645  0.1046 -1.3502
 3453TIP3   OH210364   6.036   1.693   3.233  0.3065 -0.1248 -0.4942
 3453TIP3    H110365   6.082   1.657   3.157 -1.1055 -0.6579 -1.1298
 3453TIP3    H210366   6.044   1.788   3.223 -0.3994 -0.1667 -1.6800
 3454TIP3   OH210367   5.704   1.542   3.822  0.1337 -0.2301 -0.5039
 3454TIP3    H110368   5.770   1.495   3.872 -0.7622 -0.1645  0.7974
 3454TIP3    H210369   5.753   1.602   3.766  1.1751 -0.2485  0.3608
 3455TIP3   OH210370   5.042   2.532   3.798 -0.1584  0.4427  0.7138
 3455TIP3    H110371   5.056   2.539   3.703  0.4778 -0.0941  0.7641
 3455TIP3    H210372   5.122   2.568   3.836 -0.2914  0.3862  1.0454
 3456TIP3   OH210373   4.599   3.608   4.770  0.4325  0.0378  0.9855
 3456TIP3    H110374   4.694   3.618   4.762  0.5137 -0.8720  0.6910
 3456TIP3    H210375   4.567   3.696   4.789  1.2694  0.4673  0.4493
 3457TIP3   OH210376   4.663   3.960   4.921  0.1111  0.4195 -0.5827
 3457TIP3    H110377   4.641   3.955   5.014 -0.0722  1.5599 -0.5462
 3457TIP3    H210378   4.756   3.982   4.920  0.3642 -0.6299 -0.6890
 3458TIP3   OH210379   0.624   2.963   0.656  0.3822  0.2685 -0.0316
 3458TIP3    H110380   0.678   3.026   0.703  0.1397 -0.6845  1.6392
 3458TIP3    H210381   0.678   2.884   0.650 -0.2680 -0.2347  0.4017
 3459TIP3   OH210382   0.303   5.202   0.468  0.0895 -0.0371  0.1441
 3459TIP3    H110383   0.389   5.167   0.443  1.0258  1.4558  1.1358
 3459TIP3    H210384   0.299   5.189   0.562 -0.5993  0.3123  0.1654
 3460TIP3   OH210385   3.452   3.916   1.456 -0.0937  0.5916 -0.2260
 3460TIP3    H110386   3.535   3.960   1.475 -0.5580  0.7814  1.5510
 3460TIP3    H210387   3.454   3.836   1.508  0.2013 -0.9438 -2.4655
 3461TIP3   OH210388   0.431   4.539   2.250 -0.0193  0.1102  0.2291
 3461TIP3    H110389   0.471   4.570   2.332 -1.5162  0.6866  0.7797
 3461TIP3    H210390   0.338   4.554   2.262 -0.1614  1.7779 -2.2501
 3462TIP3   OH210391   5.499   5.444   2.261  0.1105  0.2659  0.1433
 3462TIP3    H110392   5.551   5.365   2.247 -1.1241 -0.4048 -0.8891
 3462TIP3    H210393   5.524   5.502   2.189  0.6008  0.6068  0.5788
 3463TIP3   OH210394   0.650   4.107   1.610 -0.4532  0.9127  0.1308
 3463TIP3    H110395   0.740   4.122   1.583 -0.6617 -0.2915 -1.3870
 3463TIP3    H210396   0.643   4.012   1.619 -0.8470  1.1237  3.0655
 3464TIP3   OH210397   0.633   4.918   1.408 -0.5352  0.0607  0.6676
 3464TIP3    H110398   0.644   4.860   1.333  0.8058  2.4105 -1.0803
 3464TIP3    H210399   0.688   4.880   1.476  0.4603 -0.6207 -0.4777
 3465TIP3   OH210400   2.532   2.761   3.334 -0.1987  0.0260 -0.2874
 3465TIP3    H110401   2.592   2.704   3.381 -1.7131 -0.4947  1.1276
 3465TIP3    H210402   2.588   2.815   3.277  1.5406 -0.5627  0.8088
 3466TIP3   OH210403   2.212   2.597   3.862 -0.3382 -0.3656 -0.8384
 3466TIP3    H110404   2.271   2.534   3.821 -0.4219 -0.1250 -1.3266
 3466TIP3    H210405   2.132   2.547   3.878  0.3835 -1.0628  0.9901
 3467TIP3   OH210406   1.652   0.239   2.193  0.0849  0.6511 -0.0281
 3467TIP3    H110407   1.682   0.291   2.269  2.6097  0.6505 -0.9077
 3467TIP3    H210408   1.729   0.189   2.167 -0.6954  0.6173 -2.5704
 3468TIP3   OH210409   4.635   1.604   0.654 -0.7071  0.3671  0.8689
 3468TIP3    H110410   4.660   1.588   0.563 -2.3731 -0.1322  0.4588
 3468TIP3    H210411   4.674   1.689   0.676 -0.7519  0.7575 -0.4862
 3469TIP3   OH210412   1.660   4.354   3.404 -0.4573 -0.1688 -0.1076
 3469TIP3    H110413   1.597   4.393   3.343  2.4899  0.5944 -2.9460
 3469TIP3    H210414   1.729   4.420   3.412  0.6912 -1.5020  1.7774
 3470TIP3   OH210415   3.188   2.076   2.264 -0.0949  0.1310 -0.3466
 3470TIP3    H110416   3.241   2.153   2.243 -0.6302  0.4651 -0.4912
 3470TIP3    H210417   3.235   2.003   2.224  1.5083  0.0719  1.4807
 3471TIP3   OH210418   5.068   3.942   2.892 -0.2003  0.0634 -0.1384
 3471TIP3    H110419   5.120   3.868   2.861 -1.8395 -1.9079  1.4884
 3471TIP3    H210420   5.103   3.962   2.978  0.3450  1.3501 -0.6383
 3472TIP3   OH210421   1.303   2.797   0.746 -0.1933 -0.3778  0.1174
 3472TIP3    H110422   1.324   2.877   0.698  0.5275  0.1739  1.3259
 3472TIP3    H210423   1.346   2.727   0.695 -0.9297 -0.0411 -1.0073
 3473TIP3   OH210424   0.896   5.677   2.650 -0.1169 -0.1134  0.1346
 3473TIP3    H110425   0.918   5.679   2.744 -0.2507  2.8057  0.1943
 3473TIP3    H210426   0.926   5.762   2.617 -0.0839 -1.0634 -2.5033
 3474TIP3   OH210427   1.055   5.203   4.543  0.1702 -0.0021  0.6536
 3474TIP3    H110428   1.091   5.145   4.610  2.7527  0.0962 -0.5410
 3474TIP3    H210429   1.034   5.283   4.591 -1.1143 -1.0292  1.8800
 3475TIP3   OH210430   3.106   0.265   1.703 -0.1590  0.1616 -0.4609
 3475TIP3    H110431   3.021   0.308   1.701  0.7229  1.9386 -1.1705
 3475TIP3    H210432   3.108   0.213   1.622  0.0667  1.4340 -1.2978
 3476TIP3   OH210433   1.835   5.151   1.676  0.1097 -0.3817 -0.1704
 3476TIP3    H110434   1.776   5.088   1.718 -0.1543  0.6670  1.0866
 3476TIP3    H210435   1.778   5.225   1.654  0.7846  0.2708  0.2453
 3477TIP3   OH210436   3.625   1.035   3.687 -0.2806 -0.5857  0.0866
 3477TIP3    H110437   3.640   0.998   3.774  0.6261  1.3995  0.8356
 3477TIP3    H210438   3.705   1.084   3.668 -0.6940 -0.5267 -1.6382
 3478TIP3   OH210439   0.267   5.116   2.473 -0.5574 -0.5590  0.1528
 3478TIP3    H110440   0.323   5.130   2.550 -0.1875 -1.0380 -0.0267
 3478TIP3    H210441   0.178   5.120   2.508 -0.4011 -0.3374  0.5357
 3479TIP3   OH210442   0.675   2.480   4.802 -0.4309 -0.5483 -0.3044
 3479TIP3    H110443   0.702   2.536   4.730 -0.0745  0.0493  0.2878
 3479TIP3    H210444   0.716   2.395   4.783 -0.0859 -0.3071 -0.6405
 3480TIP3   OH210445   1.949   0.593   3.214  0.1806  0.4005  0.3873
 3480TIP3    H110446   1.923   0.582   3.305 -0.9840  4.1004  0.6499
 3480TIP3    H210447   2.045   0.590   3.215  0.1478 -0.8589  1.4849
 3481TIP3   OH210448   5.294   5.523   1.809 -0.6988  0.0621  0.1722
 3481TIP3    H110449   5.214   5.574   1.827 -0.6549 -0.3388  1.6897
 3481TIP3    H210450   5.314   5.481   1.893 -0.8246 -2.6097 -1.0601
 3482TIP3   OH210451   3.567   1.205   2.102  0.5481 -0.5680  0.2575
 3482TIP3    H110452   3.557   1.241   2.014 -1.7721 -1.6943 -0.0160
 3482TIP3    H210453   3.590   1.113   2.088  0.2112 -0.7437  0.8196
 3483TIP3   OH210454   4.824   3.697   0.539 -0.0621 -0.2583  0.1066
 3483TIP3    H110455   4.845   3.614   0.581  0.9669  0.0874  0.3168
 3483TIP3    H210456   4.742   3.681   0.492 -0.1793 -1.2147  0.6191
 3484TIP3   OH210457   4.215   3.063   1.251  0.6065  0.3435 -0.0766
 3484TIP3    H110458   4.144   3.077   1.188 -0.3127  1.5471  1.1620
 3484TIP3    H210459   4.193   2.980   1.294 -0.1375  0.7781  0.3933
 3485TIP3   OH210460   4.725   4.194   4.645 -0.2142 -0.2239 -0.5635
 3485TIP3    H110461   4.801   4.202   4.703 -0.7352 -1.2936  0.3168
 3485TIP3    H210462   4.750   4.124   4.584 -0.0407  0.2420 -1.0326
 3486TIP3   OH210463   3.659   0.931   2.093  0.4846  0.1106  0.4638
 3486TIP3    H110464   3.668   0.872   2.167 -1.6324 -2.0522 -0.8691
 3486TIP3    H210465   3.733   0.910   2.037  2.4741  2.2080  2.1032
 3487TIP3   OH210466   4.372   1.587   0.733  0.5635 -0.0669  0.4672
 3487TIP3    H110467   4.401   1.647   0.802 -1.8633 -0.4369  1.9145
 3487TIP3    H210468   4.448   1.579   0.675  2.3848  1.0298  2.5491
 3488TIP3   OH210469   1.081   3.042   1.650  0.1311  0.3505 -0.0767
 3488TIP3    H110470   1.114   3.093   1.724  0.3582 -2.2868  1.8139
 3488TIP3    H210471   1.143   3.058   1.579 -0.6508  3.7709 -0.1679
 3489TIP3   OH210472   3.901   1.351   3.824 -0.4456  0.1557  0.3488
 3489TIP3    H110473   3.830   1.323   3.882 -1.2705  0.6013 -0.4365
 3489TIP3    H210474   3.958   1.274   3.818 -1.1038 -0.3680  0.6015
 3490TIP3   OH210475   0.598   1.174   0.316 -0.4893 -0.2668 -0.3665
 3490TIP3    H110476   0.589   1.083   0.287 -0.6000 -0.1642 -0.6607
 3490TIP3    H210477   0.583   1.170   0.411 -1.6121 -0.4059 -0.5272
 3491TIP3   OH210478   1.908   5.089   3.848  0.1515 -0.4067 -0.3206
 3491TIP3    H110479   1.882   5.101   3.939 -2.4941  0.2770 -1.0675
 3491TIP3    H210480   1.861   5.011   3.820  0.8434 -0.5388 -1.1435
 3492TIP3   OH210481   5.974   2.542   4.439 -0.3891 -0.6191 -0.6021
 3492TIP3    H110482   6.030   2.546   4.361 -0.9222  2.3757 -0.9495
 3492TIP3    H210483   6.018   2.597   4.503 -2.3348  0.9574 -0.5276
 3493TIP3   OH210484   1.082   5.219   1.140 -0.2847 -0.2559  0.2017
 3493TIP3    H110485   1.001   5.191   1.182 -1.0704 -0.2310 -1.2397
 3493TIP3    H210486   1.090   5.164   1.062  1.2618 -0.4777  0.4897
 3494TIP3   OH210487   0.721   5.453   4.085 -0.0174  0.1419 -0.7367
 3494TIP3    H110488   0.800   5.439   4.032  0.2829 -0.3059 -0.1883
 3494TIP3    H210489   0.735   5.539   4.125  0.0675  0.1825 -0.8510
 3495TIP3   OH210490   4.172   0.239   2.609  0.0809  0.2328  0.6476
 3495TIP3    H110491   4.229   0.208   2.679  0.2568  0.8503  0.7873
 3495TIP3    H210492   4.177   0.171   2.541 -2.1780 -1.7293  2.2903
 3496TIP3   OH210493   4.474   3.390   0.333 -0.4762 -0.0418  0.2006
 3496TIP3    H110494   4.422   3.314   0.359  0.7825 -1.1376 -0.3577
 3496TIP3    H210495   4.444   3.411   0.245 -1.0907  0.3631  0.5014
 3497TIP3   OH210496   4.109   1.677   2.703  0.2163 -0.6544  0.3731
 3497TIP3    H110497   4.071   1.764   2.702 -0.7847 -1.0480  1.7806
 3497TIP3    H210498   4.121   1.656   2.796 -0.7908 -2.5203  0.1417
 3498TIP3   OH210499   1.105   3.063   4.804  0.3562 -0.0810 -0.9150
 3498TIP3    H110500   1.013   3.086   4.789 -0.0091  0.4239  1.6413
 3498TIP3    H210501   1.154   3.136   4.765 -0.5127  1.4047  0.6140
 3499TIP3   OH210502   2.712   5.843   2.542  0.0480 -0.6573 -0.0463
 3499TIP3    H110503   2.618   5.863   2.535  0.4286  1.6714  0.5744
 3499TIP3    H210504   2.729   5.843   2.636  1.1597  2.0189 -0.1521
 3500TIP3   OH210505   5.338   3.415   4.782 -0.0714 -0.1137 -0.1170
 3500TIP3    H110506   5.287   3.415   4.700 -0.1788  1.0437 -0.0647
 3500TIP3    H210507   5.277   3.448   4.848  0.7872  1.5351 -0.0965
 3501TIP3   OH210508   3.691   5.848   3.068 -0.2598  0.8140 -0.2615
 3501TIP3    H110509   3.607   5.852   3.112 -0.7598  0.9005 -1.2079
 3501TIP3    H210510   3.698   5.931   3.021 -0.4584  0.0985 -1.6093
 3502TIP3   OH210511   0.467   1.403   4.808  0.3106  0.3631  0.1674
 3502TIP3    H110512   0.457   1.313   4.776 -0.4124  0.6036 -0.2939
 3502TIP3    H210513   0.412   1.407   4.886  0.0217  0.5146 -0.0409
 3503TIP3   OH210514   1.760   2.791   4.121  0.0145 -0.3960  0.2976
 3503TIP3    H110515   1.766   2.847   4.199 -0.4841  0.5090 -0.3021
 3503TIP3    H210516   1.667   2.779   4.107  0.0921 -0.3154 -0.3181
 3504TIP3   OH210517   3.895   5.031   1.314 -0.0657 -0.1900  0.6087
 3504TIP3    H110518   3.965   5.085   1.277  0.9302 -1.6164  0.3029
 3504TIP3    H210519   3.934   4.995   1.394 -0.2572 -1.3821  0.1852
 3505TIP3   OH210520   5.045   3.961   1.431 -0.2571  0.5678 -0.5922
 3505TIP3    H110521   4.983   3.969   1.503  1.8577 -1.6846  1.7244
 3505TIP3    H210522   5.018   3.882   1.385  1.8276 -1.7001  1.7269
 3506TIP3   OH210523   1.966   5.397   2.997 -0.2645 -0.3059 -0.3494
 3506TIP3    H110524   1.912   5.475   2.989 -1.0137 -0.9835 -2.6737
 3506TIP3    H210525   1.976   5.384   3.091 -1.4475  1.6712  0.0988
 3507TIP3   OH210526   4.099   2.877   1.879 -0.0515 -0.0847 -0.2451
 3507TIP3    H110527   4.116   2.963   1.841  0.2333  0.1435  0.3835
 3507TIP3    H210528   4.005   2.877   1.897 -0.4594 -0.7091 -2.1708
 3508TIP3   OH210529   3.616   3.747   5.194 -0.0386  0.5394  0.5316
 3508TIP3    H110530   3.545   3.712   5.141  0.6748 -1.2157  0.6639
 3508TIP3    H210531   3.684   3.771   5.130  1.1543 -2.3287  0.5352
 3509TIP3   OH210532   5.695   5.013   1.245 -0.1159  0.0817  0.2217
 3509TIP3    H110533   5.771   5.050   1.290  0.5829 -0.6566 -0.2994
 3509TIP3    H210534   5.716   4.920   1.236 -0.6952  0.0264 -0.7063
 3510TIP3   OH210535   3.148   5.090   4.983  0.6066  1.1821  0.5337
 3510TIP3    H110536   3.230   5.043   4.997 -0.8063 -0.6924  3.5949
 3510TIP3    H210537   3.147   5.158   5.051 -1.0982 -0.0497  1.8314
 3511TIP3   OH210538   5.742   3.766   3.081 -0.1345  0.6992 -0.0771
 3511TIP3    H110539   5.750   3.814   3.163  1.6325  0.5797 -0.1405
 3511TIP3    H210540   5.805   3.807   3.022  0.8883 -1.1607 -0.3728
 3512TIP3   OH210541   6.200   5.792   4.105  0.1546 -0.2008 -0.0721
 3512TIP3    H110542   6.129   5.856   4.098 -0.8353 -1.2550  0.0267
 3512TIP3    H210543   6.275   5.835   4.064 -0.6551  0.7784 -0.5715
 3513TIP3   OH210544   0.539   0.726   3.222 -0.1231  0.1528 -0.4187
 3513TIP3    H110545   0.607   0.658   3.221 -1.2203 -0.9812 -1.2211
 3513TIP3    H210546   0.551   0.773   3.139  0.3880  0.6820 -0.0449
 3514TIP3   OH210547   6.224   2.653   0.499  0.1401 -0.0359 -0.1305
 3514TIP3    H110548   6.296   2.688   0.552 -0.5685  0.3599  0.6097
 3514TIP3    H210549   6.200   2.571   0.542 -1.2562  0.8938  0.9568
 3515TIP3   OH210550   4.081   1.522   1.462 -0.1832 -0.6436  0.5119
 3515TIP3    H110551   4.152   1.465   1.433 -1.2353 -0.9188 -1.7517
 3515TIP3    H210552   4.014   1.461   1.494 -0.0465 -0.4744  1.1326
 3516TIP3   OH210553   0.922   0.230   3.212 -0.1378  0.1890 -0.0784
 3516TIP3    H110554   0.962   0.143   3.207  0.1067  0.3009 -0.0431
 3516TIP3    H210555   0.963   0.271   3.287  1.4697  1.2030 -1.4342
 3517TIP3   OH210556   0.726   2.902   0.324  0.3073  0.1162 -0.1800
 3517TIP3    H110557   0.801   2.852   0.355  0.4005  0.1473 -0.3568
 3517TIP3    H210558   0.761   2.990   0.306  0.3227  0.0121 -0.6772
 3518TIP3   OH210559   5.561   5.258   0.529 -0.4286  0.3644  0.2994
 3518TIP3    H110560   5.572   5.304   0.612  0.7527 -0.9554  0.9128
 3518TIP3    H210561   5.640   5.204   0.521  0.2572  1.6209 -2.4460
 3519TIP3   OH210562   4.202   3.338   2.077 -0.4518  0.3776 -0.0071
 3519TIP3    H110563   4.160   3.418   2.046 -1.5043  0.6304  1.8830
 3519TIP3    H210564   4.231   3.293   1.998 -1.0501  1.9711 -1.1793
 3520TIP3   OH210565   3.824   3.879   5.033  0.2294 -0.2624  0.4631
 3520TIP3    H110566   3.738   3.896   4.993  0.2735  0.4884  0.6672
 3520TIP3    H210567   3.887   3.920   4.973  0.4497 -0.8341  0.3015
 3521TIP3   OH210568   3.423   4.905   1.688  0.0583  0.3406  0.0965
 3521TIP3    H110569   3.341   4.955   1.692 -0.4668 -0.3987 -0.9648
 3521TIP3    H210570   3.428   4.876   1.597  0.5275 -1.2453  0.6051
 3522TIP3   OH210571   1.802   4.216   2.759  0.3055  0.4153  0.0684
 3522TIP3    H110572   1.753   4.143   2.797  0.5790  0.4125  0.4194
 3522TIP3    H210573   1.784   4.290   2.816  0.5890  0.4496  0.1163
 3523TIP3   OH210574   4.639   3.056   4.079  0.2890  0.9345  0.6788
 3523TIP3    H110575   4.593   3.024   4.157 -0.6004 -0.5751 -0.4068
 3523TIP3    H210576   4.731   3.058   4.104  0.1932 -1.0431  1.3196
 3524TIP3   OH210577   3.145   0.164   1.949 -0.4613  0.1820 -0.0766
 3524TIP3    H110578   3.136   0.202   1.862  0.6556 -0.7499 -0.6327
 3524TIP3    H210579   3.143   0.070   1.934 -0.9724  0.0080  1.0051
 3525TIP3   OH210580   1.074   1.129   4.726  0.3884  0.0861  0.2126
 3525TIP3    H110581   1.114   1.044   4.709 -0.5193 -0.0831 -1.1994
 3525TIP3    H210582   0.987   1.109   4.759  0.5236  0.4732  0.8224
 3526TIP3   OH210583   3.529   2.003   4.175 -0.8146  0.8788 -0.0453
 3526TIP3    H110584   3.511   1.973   4.086  2.7313 -0.2743 -0.5350
 3526TIP3    H210585   3.515   2.098   4.171 -0.8922  0.8315 -1.8034
 3527TIP3   OH210586   1.664   0.761   1.639  0.6913 -0.0512 -0.1237
 3527TIP3    H110587   1.671   0.856   1.634 -1.1784  0.1253 -0.0722
 3527TIP3    H210588   1.613   0.745   1.719 -1.0741 -0.9369 -1.3592
 3528TIP3   OH210589   5.631   5.355   4.903  0.2725  0.2677 -0.2530
 3528TIP3    H110590   5.688   5.364   4.826 -1.0550  3.7954 -1.0264
 3528TIP3    H210591   5.633   5.261   4.924  1.2870 -0.7483 -4.1112
 3529TIP3   OH210592   5.563   3.037   2.586  0.1235 -0.0736 -0.0090
 3529TIP3    H110593   5.478   3.016   2.546 -0.7073  0.4268  1.4171
 3529TIP3    H210594   5.550   3.020   2.679  1.3655  0.7107  0.3241
 3530TIP3   OH210595   3.387   4.228   1.746  0.1464  0.3086 -0.4122
 3530TIP3    H110596   3.394   4.160   1.813  1.6961  1.5392  0.7632
 3530TIP3    H210597   3.472   4.273   1.749 -0.6517  1.9876 -1.4651
 3531TIP3   OH210598   1.103   0.213   4.688 -0.2400  0.6298  0.4265
 3531TIP3    H110599   1.096   0.139   4.628 -0.7942  1.3306 -0.3840
 3531TIP3    H210600   1.177   0.264   4.656  0.7764 -0.0617  1.5618
 3532TIP3   OH210601   2.472   5.935   3.984 -0.7337 -0.4385 -0.2903
 3532TIP3    H110602   2.452   5.954   4.076  1.2129 -2.6153  0.7070
 3532TIP3    H210603   2.566   5.918   3.984 -0.6390 -0.1952 -2.7820
 3533TIP3   OH210604   4.190   3.854   5.027 -0.1091 -0.2400 -0.1224
 3533TIP3    H110605   4.103   3.880   4.997 -0.4451 -0.8552  0.2943
 3533TIP3    H210606   4.242   3.933   5.020 -0.5355 -0.0211 -0.9833
 3534TIP3   OH210607   5.672   5.220   2.216 -0.3711 -0.1234 -0.3211
 3534TIP3    H110608   5.663   5.152   2.150  1.2809 -0.6831 -0.0115
 3534TIP3    H210609   5.766   5.238   2.219 -0.6398  1.2893  0.4964
 3535TIP3   OH210610   1.248   5.067   0.674 -0.4132  0.3409  0.1979
 3535TIP3    H110611   1.202   5.110   0.602  0.3850  0.9861  0.0674
 3535TIP3    H210612   1.183   5.006   0.710 -0.4480 -0.9060 -1.8422
 3536TIP3   OH210613   0.973   2.899   3.156  0.7446  0.5661 -0.6593
 3536TIP3    H110614   0.898   2.852   3.192  0.4484  1.9654  0.6718
 3536TIP3    H210615   0.996   2.851   3.077 -0.8493 -0.5472 -0.4927
 3537TIP3   OH210616   5.845   5.632   3.928  0.1093  0.0886  0.0918
 3537TIP3    H110617   5.824   5.539   3.926 -2.3910  0.5911 -1.3613
 3537TIP3    H210618   5.938   5.636   3.909  0.3401 -2.1085  0.5212
 3538TIP3   OH210619   5.136   1.393   4.348 -0.0452 -0.2468 -0.2416
 3538TIP3    H110620   5.210   1.432   4.396  2.2659 -1.1930 -2.7625
 3538TIP3    H210621   5.080   1.357   4.417  0.7991  2.1999  1.8788
 3539TIP3   OH210622   1.731   4.831   1.000  0.8738 -0.1161 -0.0234
 3539TIP3    H110623   1.799   4.776   0.961  1.7686  0.8503  0.1369
 3539TIP3    H210624   1.649   4.788   0.976  1.5350 -1.4243 -0.0436
 3540TIP3   OH210625   5.172   3.460   0.384 -0.5759  0.7021 -0.1317
 3540TIP3    H110626   5.157   3.535   0.327  0.1506  0.2128 -0.9997
 3540TIP3    H210627   5.185   3.498   0.471 -0.9514  1.5187 -0.4270
 3541TIP3   OH210628   3.771   4.096   2.834 -0.1763  0.5201 -0.4497
 3541TIP3    H110629   3.813   4.162   2.779 -0.1128  0.7357 -0.1424
 3541TIP3    H210630   3.704   4.057   2.778 -2.4100  2.9994  0.2927
 3542TIP3   OH210631   6.330   3.499   0.049 -0.2356 -0.5141  0.3012
 3542TIP3    H110632   6.264   3.501  -0.021 -0.6349 -0.8900  0.6598
 3542TIP3    H210633   6.278   3.496   0.129  0.2242 -1.0153  0.5793
 3543TIP3   OH210634   5.292   1.906   0.123 -0.2873 -0.1934 -0.7566
 3543TIP3    H110635   5.383   1.878   0.133 -1.3576 -3.1672  2.4383
 3543TIP3    H210636   5.251   1.835   0.072 -1.3329 -0.2170  0.0961
 3544TIP3   OH210637   3.709   1.323   0.707 -0.2117 -0.3395  0.0511
 3544TIP3    H110638   3.696   1.326   0.612 -0.8147  1.6704  0.1665
 3544TIP3    H210639   3.747   1.236   0.722  1.5341 -0.0963 -2.2317
 3545TIP3   OH210640   4.698   3.195   1.819 -0.6795  0.2046 -0.4326
 3545TIP3    H110641   4.773   3.218   1.873 -0.4783 -0.9499 -0.1764
 3545TIP3    H210642   4.701   3.254   1.744  1.1788 -0.5997 -1.0372
 3546TIP3   OH210643   4.104   4.894   1.097  0.2905 -0.8105  0.2050
 3546TIP3    H110644   4.118   4.800   1.115 -0.2086 -1.2470 -1.5268
 3546TIP3    H210645   4.017   4.912   1.133 -0.2926 -1.4260 -0.8551
 3547TIP3   OH210646   4.074   3.708   1.278 -0.0403 -0.0828 -0.4217
 3547TIP3    H110647   4.001   3.727   1.219 -0.3447 -0.7019 -0.2545
 3547TIP3    H210648   4.139   3.775   1.258 -0.5797  0.3716 -0.6993
 3548TIP3   OH210649   4.775   2.014   5.069 -0.0122 -0.5486 -0.2304
 3548TIP3    H110650   4.745   2.061   4.991 -0.0468 -1.3865 -0.7383
 3548TIP3    H210651   4.737   2.063   5.142 -0.3620 -0.0132 -0.7573
 3549TIP3   OH210652   4.526   1.961   1.414  0.3132  0.9282 -0.0899
 3549TIP3    H110653   4.484   1.995   1.493 -0.0417 -1.8714  1.0248
 3549TIP3    H210654   4.618   1.952   1.437  0.0458 -0.8268  0.4025
 3550TIP3   OH210655   6.325   5.869   0.716 -0.2191 -0.5496  0.4051
 3550TIP3    H110656   6.368   5.915   0.644  0.2177 -1.8132 -0.1679
 3550TIP3    H210657   6.235   5.858   0.687  0.1702 -1.8624 -0.3837
 3551TIP3   OH210658   2.991   4.393   2.075  0.0217 -0.4930  0.4080
 3551TIP3    H110659   2.918   4.447   2.045 -0.0069 -1.0266 -0.5235
 3551TIP3    H210660   2.961   4.357   2.159 -0.7966 -0.7200  0.0301
 3552TIP3   OH210661   5.562   5.267   1.879 -0.8033 -0.2020 -0.2606
 3552TIP3    H110662   5.611   5.191   1.848  0.5002  0.9011 -1.0089
 3552TIP3    H210663   5.491   5.230   1.931  0.3710 -1.8910  0.2265
 3553TIP3   OH210664   4.120   4.553   5.039 -0.5216  0.0089 -0.2498
 3553TIP3    H110665   4.100   4.477   4.984 -0.7273  0.8110 -1.3386
 3553TIP3    H210666   4.131   4.625   4.976  0.0845  0.7929  0.7198
 3554TIP3   OH210667   0.065   5.019   2.695  0.1000  0.5362  0.5211
 3554TIP3    H110668   0.139   4.973   2.734  0.9618  0.5094 -1.0588
 3554TIP3    H210669   0.077   5.110   2.721  1.0872  0.6479 -0.2468
 3555TIP3   OH210670   2.541   3.528   1.716  0.4247 -0.4335 -0.1332
 3555TIP3    H110671   2.621   3.483   1.742 -1.0489 -3.0186  0.2908
 3555TIP3    H210672   2.501   3.555   1.798  1.2164  1.6697 -0.3774
 3556TIP3   OH210673   2.445   0.623   4.605 -0.2520 -0.0320 -0.2573
 3556TIP3    H110674   2.472   0.534   4.625  0.7954  0.4845  0.7159
 3556TIP3    H210675   2.357   0.614   4.568 -1.9014 -1.1655  3.5116
 3557TIP3   OH210676   4.369   4.043   3.599 -0.3318 -0.1361 -0.0006
 3557TIP3    H110677   4.339   4.131   3.573 -0.3928 -0.3476 -0.6702
 3557TIP3    H210678   4.456   4.058   3.637 -0.3072  0.2085 -0.1857
 3558TIP3   OH210679   1.479   1.764   0.388  0.0678  0.6700 -0.1701
 3558TIP3    H110680   1.436   1.784   0.305 -2.1628  0.3192  0.8098
 3558TIP3    H210681   1.432   1.687   0.421  2.5650 -0.7795  0.2681
 3559TIP3   OH210682   0.287   3.784   3.340 -0.1869  0.3152 -0.3879
 3559TIP3    H110683   0.306   3.795   3.434 -0.3870  0.6354 -0.3850
 3559TIP3    H210684   0.192   3.771   3.336 -0.3824  1.6619 -0.6600
 3560TIP3   OH210685   1.029   4.105   4.046 -0.1089 -0.8263 -0.0334
 3560TIP3    H110686   1.041   4.086   4.139 -1.3370  0.3051  0.3890
 3560TIP3    H210687   1.118   4.116   4.012  0.3698 -1.5741  0.9218
 3561TIP3   OH210688   2.274   1.596   0.666  0.1295 -0.0440  0.0153
 3561TIP3    H110689   2.215   1.523   0.645  0.3655  0.3956 -2.4107
 3561TIP3    H210690   2.267   1.655   0.591  1.3392  1.5557  1.0965
 3562TIP3   OH210691   4.420   4.668   0.024  0.1417 -0.1622 -0.0207
 3562TIP3    H110692   4.460   4.737  -0.029 -0.8469  1.1122  0.8084
 3562TIP3    H210693   4.334   4.703   0.048 -0.9047 -2.2228 -0.5801
 3563TIP3   OH210694   2.721   3.218   4.103 -0.0495  0.1886  0.0853
 3563TIP3    H110695   2.792   3.157   4.086 -0.0480  0.1689  0.1661
 3563TIP3    H210696   2.642   3.165   4.095 -0.1351  0.4724 -1.3380
 3564TIP3   OH210697   4.357   2.226   0.020 -0.1496 -0.1149  0.2490
 3564TIP3    H110698   4.303   2.153   0.051  1.0122 -1.8580 -1.5539
 3564TIP3    H210699   4.353   2.291   0.090 -0.9113 -2.0734  2.1322
 3565TIP3   OH210700   4.610   2.179   1.891 -0.6193 -0.0999  0.6094
 3565TIP3    H110701   4.672   2.231   1.839 -0.8566 -1.5099 -1.1754
 3565TIP3    H210702   4.626   2.207   1.981  1.0324  1.2025 -0.0220
 3566TIP3   OH210703   2.527   4.327   4.930 -0.8320  0.2381  0.4170
 3566TIP3    H110704   2.466   4.256   4.907 -0.7967  0.0197  0.9872
 3566TIP3    H210705   2.503   4.351   5.019  0.3758 -0.3383  0.9174
 3567TIP3   OH210706   5.449   5.897   0.200 -0.6093  0.1175  0.4205
 3567TIP3    H110707   5.449   5.992   0.210 -1.9702  0.1830  0.0120
 3567TIP3    H210708   5.519   5.867   0.258  1.0920  1.4828 -0.8245
 3568TIP3   OH210709   1.592   1.509   2.018 -0.1960  0.6006  0.2323
 3568TIP3    H110710   1.525   1.442   2.007  0.6344 -0.1452 -0.3838
 3568TIP3    H210711   1.548   1.591   1.993 -1.1455  0.2756  0.7663
 3569TIP3   OH210712   1.046   4.067   4.305  0.1779  0.6480 -0.6959
 3569TIP3    H110713   0.989   3.993   4.323  0.2201  0.4866 -1.2145
 3569TIP3    H210714   0.995   4.144   4.332 -0.1257  0.4792 -0.7958
 3570TIP3   OH210715   0.641   2.059   4.653 -0.6173 -0.4231  0.4264
 3570TIP3    H110716   0.555   2.077   4.691 -0.7195  1.4782 -0.5672
 3570TIP3    H210717   0.699   2.124   4.693  0.0240 -0.6901 -0.0524
 3571TIP3   OH210718   0.263   3.463   0.974  0.1901  0.3199  0.3244
 3571TIP3    H110719   0.292   3.374   0.957 -0.8920 -0.5119  2.4688
 3571TIP3    H210720   0.178   3.470   0.932 -0.9614 -0.6175  2.3808
 3572TIP3   OH210721   3.238   1.638   3.384 -0.1078 -0.4949  0.5099
 3572TIP3    H110722   3.206   1.558   3.426 -0.4871  0.2199  1.6280
 3572TIP3    H210723   3.195   1.709   3.431 -0.7885  0.3656 -1.2890
 3573TIP3   OH210724   1.679   1.614   1.767  0.0898  0.0544  0.3713
 3573TIP3    H110725   1.592   1.645   1.743  0.5568  1.0073 -0.1499
 3573TIP3    H210726   1.691   1.644   1.857 -0.1861 -0.2196  0.4995
 3574TIP3   OH210727   4.891   5.672   3.812  0.6167 -0.5247  0.0210
 3574TIP3    H110728   4.903   5.577   3.811  0.5390 -0.5328 -0.1975
 3574TIP3    H210729   4.823   5.686   3.878 -0.4743 -0.7636 -0.9975
 3575TIP3   OH210730   4.924   0.515   0.753 -0.0403 -0.1084  0.3257
 3575TIP3    H110731   4.925   0.607   0.726 -0.6801  0.0542  0.8091
 3575TIP3    H210732   4.981   0.512   0.830 -0.9176  0.1339  1.0106
 3576TIP3   OH210733   1.273   4.756   2.641  0.3383 -0.2276 -0.0521
 3576TIP3    H110734   1.339   4.778   2.575  0.4572  0.4930  0.2991
 3576TIP3    H210735   1.196   4.730   2.590  0.0029  1.5350 -0.5310
 3577TIP3   OH210736   4.779   5.513   2.887  0.0240  0.2994 -0.0330
 3577TIP3    H110737   4.831   5.446   2.841 -1.1499 -0.8689  0.2909
 3577TIP3    H210738   4.708   5.534   2.826  0.8931  2.0224 -0.5437
 3578TIP3   OH210739   2.354   2.267   3.459 -0.0719 -0.4951  0.4343
 3578TIP3    H110740   2.308   2.253   3.376  1.3275 -1.2432 -0.2459
 3578TIP3    H210741   2.295   2.232   3.525 -1.7564  1.1918 -0.0719
 3579TIP3   OH210742   2.175   0.308   3.671 -0.3126  0.1826  0.3911
 3579TIP3    H110743   2.081   0.329   3.671 -0.3187  0.6382  3.3543
 3579TIP3    H210744   2.218   0.393   3.683  0.3821 -0.1749  0.4616
 3580TIP3   OH210745   1.552   4.596   2.183 -0.4346  0.1727  0.3550
 3580TIP3    H110746   1.515   4.684   2.185 -0.8481  0.1421 -2.0932
 3580TIP3    H210747   1.479   4.538   2.203 -0.2278  0.3611  1.6883
 3581TIP3   OH210748   0.629   3.534   2.785  0.0561 -0.4670 -0.1631
 3581TIP3    H110749   0.554   3.505   2.734 -0.9034 -0.4817  1.1999
 3581TIP3    H210750   0.646   3.623   2.755 -0.5466 -0.4444 -0.4511
 3582TIP3   OH210751   4.315   0.434   4.871 -0.4025 -0.0734 -0.5136
 3582TIP3    H110752   4.228   0.452   4.904  0.0428  0.3101  0.4920
 3582TIP3    H210753   4.346   0.518   4.835  0.1948  0.2502  0.6941
 3583TIP3   OH210754   6.267   5.304   3.507  0.4323 -0.3459  0.4143
 3583TIP3    H110755   6.339   5.264   3.556  2.5359  0.1692 -2.0572
 3583TIP3    H210756   6.224   5.361   3.571  2.5400 -0.3014  1.9105
 3584TIP3   OH210757   0.091   2.999   2.605  0.0257 -0.1559 -0.3747
 3584TIP3    H110758   0.137   3.060   2.663 -0.4467 -0.2718  0.1296
 3584TIP3    H210759   0.107   2.912   2.643  0.7453 -0.3614 -1.1223
 3585TIP3   OH210760   1.253   4.024   2.320 -0.2622  0.2266 -0.6056
 3585TIP3    H110761   1.178   3.968   2.340  0.7392 -0.5956  1.1234
 3585TIP3    H210762   1.283   3.995   2.235 -1.7577  0.4400 -1.2471
 3586TIP3   OH210763   0.186   2.441   2.748 -0.3679  0.6034  0.4333
 3586TIP3    H110764   0.183   2.515   2.808  3.1817  0.5642  0.8526
 3586TIP3    H210765   0.217   2.368   2.801 -2.3803 -0.8909 -0.3186
 3587TIP3   OH210766   2.452   1.551   2.581  0.4723  0.0671  0.1447
 3587TIP3    H110767   2.508   1.536   2.505  1.0819 -1.3369  0.8395
 3587TIP3    H210768   2.502   1.518   2.656 -1.0313 -0.7310  0.8667
 3588TIP3   OH210769   5.763   1.049   0.753  0.2843  0.3361 -0.2277
 3588TIP3    H110770   5.743   1.083   0.666  0.4384  2.6476  0.5571
 3588TIP3    H210771   5.694   1.085   0.809  0.3710 -0.8336  0.6688
 3589TIP3   OH210772   5.799   3.214   3.398  0.3937  0.1793 -0.4046
 3589TIP3    H110773   5.891   3.190   3.387  0.9420  1.8793  0.1550
 3589TIP3    H210774   5.762   3.142   3.450  1.7834  0.1791  0.6640
 3590TIP3   OH210775   5.021   5.651   4.275  0.5369  0.2786  0.3079
 3590TIP3    H110776   4.965   5.576   4.255  1.2131 -0.1070 -0.2024
 3590TIP3    H210777   5.025   5.653   4.371  0.5102 -0.3365  0.3252
 3591TIP3   OH210778   4.486   0.499   3.610 -0.3305  0.4186  0.1427
 3591TIP3    H110779   4.554   0.564   3.600  0.1999 -0.2728 -0.9101
 3591TIP3    H210780   4.526   0.430   3.663  0.5358 -0.9233 -2.1083
 3592TIP3   OH210781   5.973   4.636   2.230 -0.9684 -0.2235  0.6851
 3592TIP3    H110782   5.997   4.599   2.315  1.2698  0.8568  0.6016
 3592TIP3    H210783   5.954   4.728   2.249 -1.1653 -0.1402  0.1082
 3593TIP3   OH210784   2.659   0.702   1.493  0.2473 -0.0770 -0.2607
 3593TIP3    H110785   2.703   0.707   1.578  1.1312  0.7243 -0.7532
 3593TIP3    H210786   2.617   0.616   1.493  2.4647 -1.2106 -0.0783
 3594TIP3   OH210787   4.000   5.398   0.529 -0.9662 -0.4857  0.5838
 3594TIP3    H110788   4.006   5.490   0.557 -0.3636 -0.1875 -0.4452
 3594TIP3    H210789   4.028   5.348   0.606  2.4868  0.3781  0.0729
 3595TIP3   OH210790   5.869   5.058   2.540  0.4275 -0.3326  0.5474
 3595TIP3    H110791   5.794   5.117   2.536  0.0821 -0.8220 -1.0663
 3595TIP3    H210792   5.837   4.980   2.586  0.1682 -0.2338  0.5332
 3596TIP3   OH210793   1.835   1.185   4.308 -0.2230  0.1336 -0.5576
 3596TIP3    H110794   1.803   1.137   4.385 -2.5921 -0.1805 -1.6542
 3596TIP3    H210795   1.801   1.274   4.319  0.5847  0.4670 -0.6192
 3597TIP3   OH210796   1.777   3.904   3.689  0.6507 -0.4984  0.4064
 3597TIP3    H110797   1.693   3.871   3.722  0.1570  0.5871  0.2570
 3597TIP3    H210798   1.754   3.960   3.615  1.6486 -1.6875 -0.8711
 3598TIP3   OH210799   4.806   3.554   2.675 -0.0008  0.2084  0.0076
 3598TIP3    H110800   4.896   3.540   2.645  1.0975  2.3024  2.0062
 3598TIP3    H210801   4.801   3.506   2.757 -0.4993  0.6225  0.2215
 3599TIP3   OH210802   3.820   5.820   3.852 -0.6530  0.3193  0.3025
 3599TIP3    H110803   3.859   5.904   3.828 -0.1853  0.1057  0.3152
 3599TIP3    H210804   3.893   5.769   3.887 -0.6544 -0.5772 -0.9557
 3600TIP3   OH210805   4.819   3.154   0.672 -0.0064 -0.4749  0.4817
 3600TIP3    H110806   4.867   3.228   0.634  1.0223 -0.8154  1.0765
 3600TIP3    H210807   4.759   3.194   0.735  0.5006 -0.1301  0.7575
 3601TIP3   OH210808   5.979   2.276   4.485  0.3104 -0.1967 -0.5031
 3601TIP3    H110809   6.048   2.277   4.419 -1.4441  0.5073 -2.4236
 3601TIP3    H210810   5.937   2.362   4.477 -2.3434 -1.4483 -1.1661
 3602TIP3   OH210811   1.292   4.578   4.673  0.1057 -0.3863 -0.8362
 3602TIP3    H110812   1.227   4.600   4.739 -1.1055 -3.0207 -0.9965
 3602TIP3    H210813   1.366   4.543   4.722 -0.5854 -1.8535 -0.7814
 3603TIP3   OH210814   6.083   0.521   3.679  0.3385  0.3875  0.4000
 3603TIP3    H110815   6.121   0.552   3.597  0.1386 -1.6375 -0.5190
 3603TIP3    H210816   6.159   0.503   3.735  0.5016  1.2314  0.4561
 3604TIP3   OH210817   0.634   3.539   1.499 -0.6123  0.6196 -0.1712
 3604TIP3    H110818   0.620   3.545   1.593 -2.2150 -1.8026 -0.1534
 3604TIP3    H210819   0.704   3.475   1.489 -2.4989 -1.5351 -0.5632
 3605TIP3   OH210820   0.690   3.254   0.043 -0.4377 -0.8103  0.1463
 3605TIP3    H110821   0.632   3.244   0.118 -1.4929 -0.4035 -0.5853
 3605TIP3    H210822   0.647   3.205  -0.027 -0.2161 -0.0017 -0.5726
 3606TIP3   OH210823   2.643   1.022   3.111 -0.5146  0.1264 -0.2837
 3606TIP3    H110824   2.623   1.066   3.194 -0.8634 -0.6972  0.0787
 3606TIP3    H210825   2.729   1.055   3.087 -0.6940  0.8722  0.0712
 3607TIP3   OH210826   2.702   5.115   0.524 -0.5419  0.0239  0.6919
 3607TIP3    H110827   2.722   5.064   0.603  2.1688 -0.2642 -0.1065
 3607TIP3    H210828   2.645   5.058   0.472  0.1697 -1.0483  1.0658
 3608TIP3   OH210829   0.008   3.912   3.538 -0.0970 -0.3656 -0.0013
 3608TIP3    H110830   0.077   3.970   3.568 -0.7268  0.2902  0.1977
 3608TIP3    H210831   0.028   3.828   3.578 -1.3783  0.6530  3.0347
 3609TIP3   OH210832   3.691   0.303   4.174  0.1481  0.4235 -0.0936
 3609TIP3    H110833   3.703   0.395   4.198  1.1785  0.2462  0.1192
 3609TIP3    H210834   3.759   0.286   4.109 -0.0188 -0.1977 -0.1079
 3610TIP3   OH210835   0.316   0.185   1.654  0.5561 -0.3193  0.1158
 3610TIP3    H110836   0.275   0.123   1.714  0.4838  1.0141  1.5232
 3610TIP3    H210837   0.283   0.161   1.568 -0.7113 -1.2325  0.8245
 3611TIP3   OH210838   3.584   0.286   4.958 -0.8393  0.0649 -0.3442
 3611TIP3    H110839   3.532   0.209   4.982  0.2636 -0.2873  1.0379
 3611TIP3    H210840   3.534   0.328   4.888 -3.1547 -0.0551  1.1585
 3612TIP3   OH210841   5.264   4.108   0.178 -0.2105  0.6273 -0.6141
 3612TIP3    H110842   5.359   4.099   0.173 -0.2453 -2.0557  1.3784
 3612TIP3    H210843   5.250   4.183   0.236  0.7993 -0.3270  0.9511
 3613TIP3   OH210844   0.885   3.951   4.922  0.2913  0.8162  0.5751
 3613TIP3    H110845   0.858   3.956   4.830 -1.0261  2.4398  1.0089
 3613TIP3    H210846   0.981   3.955   4.919  0.3305 -0.3780 -0.7655
 3614TIP3   OH210847   3.365   1.170   1.368 -0.2009  0.1816 -0.3389
 3614TIP3    H110848   3.436   1.137   1.312  0.2538  1.3159 -0.4644
 3614TIP3    H210849   3.288   1.170   1.311 -0.1373 -0.3321 -0.4325
 3615TIP3   OH210850   5.028   1.808   2.573  0.2496  0.5378 -0.7273
 3615TIP3    H110851   5.053   1.822   2.664 -2.7443  2.9955 -0.1025
 3615TIP3    H210852   5.022   1.713   2.564 -1.9390  0.2251  2.5124
 3616TIP3   OH210853   3.239   1.650   2.387  0.7570  0.0321  0.1551
 3616TIP3    H110854   3.332   1.668   2.369  1.0311  0.0801  1.5319
 3616TIP3    H210855   3.239   1.559   2.417  1.0176  1.2085  4.2394
 3617TIP3   OH210856   5.782   4.386   3.413 -0.4957  0.4259 -0.5583
 3617TIP3    H110857   5.771   4.294   3.391  1.2065  0.3497 -1.2509
 3617TIP3    H210858   5.759   4.392   3.505  0.3985 -0.9167 -0.2153
 3618TIP3   OH210859   2.703   4.668   3.862 -0.3609 -0.9219  0.7102
 3618TIP3    H110860   2.654   4.674   3.780  3.1288  0.7131 -1.4570
 3618TIP3    H210861   2.731   4.577   3.867 -0.9513 -1.1295  0.3684
 3619TIP3   OH210862   3.934   1.051   2.727 -0.1845 -0.2384  0.2247
 3619TIP3    H110863   4.018   1.005   2.721  0.9304  1.6253  0.8349
 3619TIP3    H210864   3.873   0.996   2.678  1.0818 -2.3135  0.8562
 3620TIP3   OH210865   2.697   1.627   0.194 -0.3285 -0.0331  0.0133
 3620TIP3    H110866   2.636   1.699   0.208  1.3112  1.9759 -2.3200
 3620TIP3    H210867   2.772   1.648   0.250  0.2046  0.1831 -0.7623
 3621TIP3   OH210868   5.206   3.171   1.105 -0.4787  0.0310 -0.5071
 3621TIP3    H110869   5.287   3.165   1.154  0.5848  1.5796 -1.9775
 3621TIP3    H210870   5.184   3.080   1.084  1.0507 -0.3975 -0.3660
 3622TIP3   OH210871   2.468   1.958   1.725  0.4285 -0.2476  0.3667
 3622TIP3    H110872   2.511   2.043   1.717 -0.3168  0.0994  0.0363
 3622TIP3    H210873   2.411   1.952   1.649 -0.6369 -0.4052  1.1531
 3623TIP3   OH210874   4.798   2.041   3.418  0.8111 -0.1205 -0.0252
 3623TIP3    H110875   4.810   2.113   3.480  1.2157 -0.3179  0.1333
 3623TIP3    H210876   4.742   2.077   3.350  1.8410  0.6775 -0.4763
 3624TIP3   OH210877   0.619   4.776   4.586 -0.1346  0.1015 -0.4270
 3624TIP3    H110878   0.551   4.765   4.519  0.2223  0.1332 -0.8034
 3624TIP3    H210879   0.590   4.851   4.638 -0.3329  0.1848 -0.6541
 3625TIP3   OH210880   1.191   0.083   2.660  0.0893 -0.3372  0.0144
 3625TIP3    H110881   1.173   0.147   2.592  0.3907 -2.0466 -1.7388
 3625TIP3    H210882   1.268   0.118   2.706  0.3902  0.4394 -1.0423
 3626TIP3   OH210883   3.320   4.412   0.067 -0.0829 -0.4038 -0.0476
 3626TIP3    H110884   3.376   4.335   0.055 -0.9723 -1.0149 -0.4495
 3626TIP3    H210885   3.346   4.448   0.152  3.1683  1.2815 -1.5932
 3627TIP3   OH210886   4.442   3.760   5.069  0.2258  1.3045 -0.0120
 3627TIP3    H110887   4.373   3.790   5.009  0.5020 -0.7737 -1.5013
 3627TIP3    H210888   4.398   3.751   5.153 -1.5979 -0.6617 -1.0813
 3628TIP3   OH210889   1.342   0.163   3.833 -0.1867  0.1706 -0.2778
 3628TIP3    H110890   1.357   0.186   3.742 -0.0317 -1.7537 -0.7834
 3628TIP3    H210891   1.430   0.155   3.871 -0.2564  1.7123  0.2786
 3629TIP3   OH210892   5.458   3.743   3.112 -0.0656  0.3346  0.8071
 3629TIP3    H110893   5.470   3.834   3.141  0.2944  0.2211  1.0279
 3629TIP3    H210894   5.544   3.717   3.080  0.2852 -0.4614  2.2935
 3630TIP3   OH210895   6.250   4.804   1.705  0.3807 -0.0287  0.3361
 3630TIP3    H110896   6.201   4.850   1.637 -0.5257 -0.4252  0.7041
 3630TIP3    H210897   6.339   4.837   1.696  0.0834  0.6175 -0.4344
 3631TIP3   OH210898   0.937   4.368   1.026  0.0858 -0.6469 -0.8723
 3631TIP3    H110899   0.854   4.407   1.000 -0.5147 -0.7556  0.7879
 3631TIP3    H210900   0.948   4.292   0.969 -0.5537 -0.1883 -1.6215
 3632TIP3   OH210901   2.007   4.436   1.304 -0.2260 -0.0389 -0.2182
 3632TIP3    H110902   1.925   4.411   1.346  0.1658 -0.6220  0.2116
 3632TIP3    H210903   2.032   4.519   1.345  0.8983 -1.2907  1.8101
 3633TIP3   OH210904   5.693   1.501   0.346 -0.5754 -0.1489  0.3698
 3633TIP3    H110905   5.705   1.512   0.252 -1.4672 -0.3195  0.2312
 3633TIP3    H210906   5.698   1.590   0.381 -3.6243  0.3934 -0.2627
 3634TIP3   OH210907   4.604   3.862   3.675 -0.0326 -0.4065 -0.4193
 3634TIP3    H110908   4.635   3.812   3.750 -1.6346 -2.2728 -0.9516
 3634TIP3    H210909   4.583   3.797   3.608 -2.3876  0.8982 -1.0848
 3635TIP3   OH210910   2.630   4.491   0.852 -0.0188 -0.5254 -0.1457
 3635TIP3    H110911   2.590   4.461   0.933  1.2478 -0.6610  0.4553
 3635TIP3    H210912   2.596   4.432   0.784 -0.8358 -0.6105  0.3332
 3636TIP3   OH210913   2.533   2.216   1.723  0.0841  0.1047 -0.3114
 3636TIP3    H110914   2.564   2.224   1.633 -1.4371 -2.0170 -1.1151
 3636TIP3    H210915   2.473   2.290   1.735 -1.1755 -0.6365 -1.7488
 3637TIP3   OH210916   4.585   4.539   3.491  0.3325  0.2255  0.0319
 3637TIP3    H110917   4.491   4.539   3.508  0.5380 -0.0906  1.2653
 3637TIP3    H210918   4.598   4.468   3.428 -0.2788  0.4260 -0.3302
 3638TIP3   OH210919   2.000   2.274   4.476  0.1938  0.4337 -0.0783
 3638TIP3    H110920   2.028   2.365   4.480  1.4897  0.0976 -1.0749
 3638TIP3    H210921   1.915   2.277   4.431  0.2962  1.1315 -0.2333
 3639TIP3   OH210922   5.921   2.783   2.915 -0.2569 -0.5835  0.2405
 3639TIP3    H110923   5.908   2.692   2.943  0.0512 -1.0167 -0.9586
 3639TIP3    H210924   5.834   2.816   2.896 -0.3045 -0.9021 -0.1066
 3640TIP3   OH210925   0.869  -0.021   3.578 -0.0809  0.5701 -0.0588
 3640TIP3    H110926   0.815   0.057   3.569 -0.1035  0.5169 -0.3818
 3640TIP3    H210927   0.943   0.007   3.632 -0.7283  0.4917  0.9068
 3641TIP3   OH210928   5.682   5.036   1.798 -0.6052 -0.1273 -0.1579
 3641TIP3    H110929   5.715   4.972   1.862  1.1764 -0.1240 -1.0282
 3641TIP3    H210930   5.619   4.987   1.746 -0.8588 -0.5775  0.5506
 3642TIP3   OH210931   2.543   2.598   3.718  0.0883 -0.1162  0.4858
 3642TIP3    H110932   2.478   2.529   3.732 -0.9282  0.9342  1.1825
 3642TIP3    H210933   2.491   2.678   3.706  1.1101  0.2528 -2.5419
 3643TIP3   OH210934   1.050   3.329   2.318  0.1409 -0.4829 -0.3577
 3643TIP3    H110935   0.996   3.327   2.398  0.9776 -1.0882  0.2083
 3643TIP3    H210936   1.003   3.389   2.260 -0.3309  0.2223  0.7010
 3644TIP3   OH210937   4.053   1.982   4.027 -0.1331 -0.3889  0.5553
 3644TIP3    H110938   4.013   2.026   4.102 -0.8621  1.2941 -0.7356
 3644TIP3    H210939   4.141   1.960   4.056 -1.2008 -2.1494  2.7362
 3645TIP3   OH210940   5.898   0.997   4.433 -0.2794 -0.1396  0.3248
 3645TIP3    H110941   5.845   0.923   4.464  1.5480 -1.6538 -0.0322
 3645TIP3    H210942   5.875   1.004   4.340 -1.8259  1.0048  0.7405
 3646TIP3   OH210943   5.147   4.145   2.675 -0.2860 -0.0852  0.0184
 3646TIP3    H110944   5.157   4.141   2.580  0.6195 -0.8919  0.1312
 3646TIP3    H210945   5.181   4.061   2.706 -1.0884 -0.0530  1.0151
 3647TIP3   OH210946   4.647   3.572   1.394 -0.3010  0.1977  1.0481
 3647TIP3    H110947   4.710   3.613   1.335 -0.2905 -2.5777 -1.0104
 3647TIP3    H210948   4.570   3.629   1.390  0.2882  0.9379 -0.3808
 3648TIP3   OH210949   0.259   3.404   2.327 -0.0879 -0.0331 -0.3329
 3648TIP3    H110950   0.296   3.490   2.346  0.9555 -0.1170 -1.8909
 3648TIP3    H210951   0.202   3.419   2.251 -1.1454 -0.4350  0.3611
 3649TIP3   OH210952   0.333   1.353   5.051  0.0937  0.5592 -0.5572
 3649TIP3    H110953   0.349   1.271   5.098  0.6926  1.2214  0.4410
 3649TIP3    H210954   0.254   1.389   5.093 -0.2821  0.4034 -1.1249
 3650TIP3   OH210955   6.269   5.268   2.375 -0.5877 -0.0155 -1.2147
 3650TIP3    H110956   6.363   5.254   2.377 -0.7573 -1.2473 -0.1828
 3650TIP3    H210957   6.241   5.233   2.290  0.0674  2.0274 -2.3355
 3651TIP3   OH210958   3.500   1.526   1.442 -0.0544  0.0346 -0.2146
 3651TIP3    H110959   3.445   1.586   1.492 -2.3873 -0.7499 -1.6666
 3651TIP3    H210960   3.561   1.583   1.395 -1.0843  1.1481 -0.2451
 3652TIP3   OH210961   0.938   0.671   1.755  0.6926  0.4032  0.4599
 3652TIP3    H110962   0.991   0.605   1.711  0.2505 -0.0339  0.5727
 3652TIP3    H210963   0.944   0.748   1.700 -1.1827 -0.5962 -1.2942
 3653TIP3   OH210964   0.696   2.880   4.321 -0.1524 -0.1419 -0.7258
 3653TIP3    H110965   0.727   2.945   4.258  2.0063 -1.4415 -1.0867
 3653TIP3    H210966   0.737   2.906   4.404 -2.6109  1.2889  0.1558
 3654TIP3   OH210967   5.310   5.541   2.734  0.0207 -0.2224 -0.1667
 3654TIP3    H110968   5.329   5.537   2.827  1.0824  2.7093 -0.1220
 3654TIP3    H210969   5.385   5.589   2.697 -1.8917  1.5865 -1.9443
 3655TIP3   OH210970   5.765   3.701   1.999  0.4250 -0.0509  0.2161
 3655TIP3    H110971   5.759   3.761   2.073 -1.7806 -0.5036  0.4764
 3655TIP3    H210972   5.829   3.636   2.025  0.9828  0.7829  0.9733
 3656TIP3   OH210973   4.959   5.122   3.688 -0.5629 -0.0202  0.0737
 3656TIP3    H110974   4.946   5.119   3.593 -3.3869 -1.6398  0.3771
 3656TIP3    H210975   4.942   5.032   3.717  1.0553  0.2353  2.0820
 3657TIP3   OH210976   2.100   4.162   3.288 -0.2071  0.4275 -0.0368
 3657TIP3    H110977   2.056   4.207   3.360 -0.2399 -0.5635  0.5953
 3657TIP3    H210978   2.059   4.196   3.209 -1.3180  0.3708  0.4973
 3658TIP3   OH210979   2.652   1.729   3.211 -0.1486  0.2077  0.7442
 3658TIP3    H110980   2.673   1.752   3.121 -0.1840  0.6600  0.8521
 3658TIP3    H210981   2.733   1.690   3.245  0.0902  0.7033  0.7422
 3659TIP3   OH210982   4.532   5.630   0.219  0.4727 -0.1472  0.2853
 3659TIP3    H110983   4.596   5.595   0.281 -1.0196 -0.4451  1.7292
 3659TIP3    H210984   4.447   5.616   0.262 -0.4688  1.5255 -0.9307
 3660TIP3   OH210985   1.672   1.247   1.168 -0.0644 -0.1020  0.2741
 3660TIP3    H110986   1.766   1.242   1.150 -0.1033 -0.0990  0.0719
 3660TIP3    H210987   1.649   1.339   1.153 -0.6836 -0.6333 -2.5936
 3661TIP3   OH210988   0.377   2.637   2.899 -0.6274  0.6239  0.5789
 3661TIP3    H110989   0.451   2.657   2.956 -0.6856  0.5011  0.6976
 3661TIP3    H210990   0.313   2.706   2.917  0.2706  1.9739 -1.0245
 3662TIP3   OH210991   4.191   5.796   3.667 -0.2630  0.5041 -0.2001
 3662TIP3    H110992   4.170   5.851   3.592  0.3326  0.8268 -0.1336
 3662TIP3    H210993   4.286   5.794   3.669 -0.2764 -0.4528 -0.1447
 3663TIP3   OH210994   2.760   3.826   4.910  0.3427 -0.6105 -0.0618
 3663TIP3    H110995   2.793   3.790   4.993  0.1315  1.4782  1.0041
 3663TIP3    H210996   2.838   3.858   4.865  0.1822  1.5747  1.0729
 3664TIP3   OH210997   6.301   2.874   3.771  0.0626 -0.2524 -0.4156
 3664TIP3    H110998   6.236   2.927   3.818 -0.4871 -0.4752 -0.9154
 3664TIP3    H210999   6.338   2.934   3.706 -0.1819 -0.3378 -0.6322
 3665TIP3   OH211000   3.886   1.189   2.107  0.0950  0.2299 -0.1146
 3665TIP3    H111001   3.810   1.168   2.161  1.0888 -1.1779  0.8043
 3665TIP3    H211002   3.883   1.127   2.034  1.5192 -1.3682  1.1117
 3666TIP3   OH211003   3.959   3.442   2.234 -0.6157  0.2056  0.3788
 3666TIP3    H111004   3.969   3.381   2.307 -1.5764  1.0290  1.2174
 3666TIP3    H211005   4.041   3.493   2.234  0.0314 -0.7913 -0.0964
 3667TIP3   OH211006   1.843   3.691   2.884  0.4104  0.4133  0.1445
 3667TIP3    H111007   1.758   3.677   2.841  0.3701  1.2418 -0.0562
 3667TIP3    H211008   1.883   3.604   2.886 -0.1349  0.1401 -0.4085
 3668TIP3   OH211009   2.377   3.277   0.957  0.5902  0.3217 -0.1116
 3668TIP3    H111010   2.340   3.232   0.881 -0.6448  1.1503 -0.0280
 3668TIP3    H211011   2.412   3.207   1.012  0.2362 -0.3966 -0.7826
 3669TIP3   OH211012   4.943   3.399   1.255  0.1656 -0.0343 -0.5769
 3669TIP3    H111013   4.903   3.486   1.254  1.7659  0.7375 -1.2193
 3669TIP3    H211014   5.036   3.415   1.273  0.5178 -1.6078 -0.8161
 3670TIP3   OH211015   1.076   3.123   2.892  0.3256  0.0725 -0.0156
 3670TIP3    H111016   1.056   3.053   2.830 -0.0909 -0.5392  0.8036
 3670TIP3    H211017   1.094   3.199   2.836  2.2019 -1.0040 -0.9996
 3671TIP3   OH211018   0.531   2.339   0.071  0.0453  0.7469  0.6436
 3671TIP3    H111019   0.483   2.303   0.145  0.2573  0.4309  0.6316
 3671TIP3    H211020   0.568   2.421   0.104 -0.8897  1.2266  0.5040
 3672TIP3   OH211021   3.337   4.087   1.115 -0.0021 -0.6360  0.0354
 3672TIP3    H111022   3.277   4.015   1.093 -1.9589  1.2859 -1.3265
 3672TIP3    H211023   3.384   4.105   1.034 -3.2157  2.8016 -1.3763
 3673TIP3   OH211024   2.954   5.297   1.869  0.0113  0.1142  0.3601
 3673TIP3    H111025   3.038   5.277   1.912  0.8226 -0.2311 -1.3156
 3673TIP3    H211026   2.902   5.218   1.880  0.6028 -0.3555 -0.1891
 3674TIP3   OH211027   2.268   5.455   4.036 -0.0457 -0.5281 -0.2230
 3674TIP3    H111028   2.348   5.507   4.045 -0.2168 -0.0486 -1.2572
 3674TIP3    H211029   2.224   5.462   4.120  0.7652 -0.3943  0.1947
 3675TIP3   OH211030   3.086   0.386   4.107  0.2802  0.1232  0.7823
 3675TIP3    H111031   3.120   0.427   4.186  1.2847  1.4767 -0.3079
 3675TIP3    H211032   3.102   0.292   4.120 -2.3280 -0.0984  3.4526
 3676TIP3   OH211033   5.622   1.559   4.213  0.3114  0.3014 -0.0120
 3676TIP3    H111034   5.547   1.611   4.184  0.6988  0.8320 -0.0681
 3676TIP3    H211035   5.601   1.469   4.186 -0.3680  0.4228  0.1100
 3677TIP3   OH211036   2.210   3.219   0.754 -0.2211 -0.4217 -0.2476
 3677TIP3    H111037   2.143   3.288   0.754 -1.6012 -1.7006  0.6412
 3677TIP3    H211038   2.246   3.221   0.665 -0.5912  1.0767 -0.3926
 3678TIP3   OH211039   2.104   1.514   5.005 -0.2727  0.2473 -0.2090
 3678TIP3    H111040   2.114   1.563   5.087  1.9694 -0.8795  0.2532
 3678TIP3    H211041   2.102   1.422   5.032 -0.7190 -0.0873 -1.3379
 3679TIP3   OH211042   0.033   4.615   3.948  0.0320  0.4082 -0.1058
 3679TIP3    H111043   0.023   4.659   4.033  0.6317  0.7727 -0.2192
 3679TIP3    H211044   0.090   4.674   3.897 -0.9411  0.5692 -1.0332
 3680TIP3   OH211045   1.437   4.931   1.120  0.2037  0.3492 -0.3908
 3680TIP3    H111046   1.471   4.876   1.050  0.5982 -1.0225  0.8415
 3680TIP3    H211047   1.415   4.871   1.191  0.4647  1.7308  0.9440
 3681TIP3   OH211048   0.055   2.773   2.261  0.6027  0.0260  0.0736
 3681TIP3    H111049   0.122   2.835   2.290  0.3200  0.1659  0.4383
 3681TIP3    H211050   0.016   2.740   2.342  0.5650 -0.4257 -0.1253
 3682TIP3   OH211051   0.705   2.637   4.552  0.6614  0.0131 -0.4084
 3682TIP3    H111052   0.652   2.714   4.576  1.1012  0.3393 -0.4640
 3682TIP3    H211053   0.647   2.584   4.498 -0.2001 -0.4941  0.9499
 3683TIP3   OH211054   2.244   5.540   0.456  0.0770 -0.4473  0.2329
 3683TIP3    H111055   2.301   5.536   0.532 -0.2271 -0.2679  0.4725
 3683TIP3    H211056   2.170   5.482   0.478 -0.2310 -0.0495  0.2622
 3684TIP3   OH211057   1.731   1.899   0.058 -0.2498  0.1163  0.0907
 3684TIP3    H111058   1.644   1.938   0.052 -1.0239 -1.2650  1.6375
 3684TIP3    H211059   1.772   1.942   0.133  0.0595  0.1116 -0.0735
 3685TIP3   OH211060   3.662   3.158   3.406  0.7891 -0.2859 -0.2135
 3685TIP3    H111061   3.652   3.189   3.496  2.5482 -1.1935  0.3338
 3685TIP3    H211062   3.607   3.079   3.402  0.8540 -0.3488  0.1223
 3686TIP3   OH211063   1.851   2.403   3.166  0.2379 -0.1242  0.0891
 3686TIP3    H111064   1.829   2.421   3.257 -1.2878 -1.0766 -0.0474
 3686TIP3    H211065   1.942   2.374   3.168 -0.4483 -2.4309  1.6755
 3687TIP3   OH211066   4.174   1.184   0.525  0.1497  0.7140  0.6774
 3687TIP3    H111067   4.114   1.233   0.580 -0.0044  0.9306  0.3162
 3687TIP3    H211068   4.118   1.131   0.468  0.2434  2.0952 -0.7548
 3688TIP3   OH211069   6.123   2.292   2.176 -0.0006  0.0493  0.0365
 3688TIP3    H111070   6.123   2.307   2.081 -1.4047 -0.0954 -0.0014
 3688TIP3    H211071   6.109   2.198   2.185 -1.5870  0.2875  0.3784
 3689TIP3   OH211072   1.472   1.372   4.548  0.4590  0.0100 -0.8075
 3689TIP3    H111073   1.502   1.286   4.517 -0.6537 -0.1539 -1.4832
 3689TIP3    H211074   1.395   1.352   4.602  0.6070  0.5352 -0.3963
 3690TIP3   OH211075   1.635   4.018   4.449 -0.0921 -0.4737  0.8642
 3690TIP3    H111076   1.678   3.986   4.528 -0.6729 -2.5539  0.3986
 3690TIP3    H211077   1.542   4.020   4.471  0.0220  2.7921  1.4586
 3691TIP3   OH211078   2.611   3.770   0.117 -0.3017 -0.2269  0.3025
 3691TIP3    H111079   2.649   3.841   0.169 -1.2798 -2.3732  4.3188
 3691TIP3    H211080   2.518   3.771   0.139 -0.3570 -2.6161  0.4033
 3692TIP3   OH211081   2.290   2.547   2.335 -0.2800 -0.0673  0.1233
 3692TIP3    H111082   2.203   2.544   2.296 -0.1816 -1.9037 -0.0278
 3692TIP3    H211083   2.345   2.587   2.267 -0.4648 -1.5607 -0.9410
 3693TIP3   OH211084   2.969   2.027   3.805 -0.0026 -0.3462 -0.3171
 3693TIP3    H111085   3.005   2.019   3.894 -2.2802 -0.9311  0.6234
 3693TIP3    H211086   2.877   2.003   3.814 -0.0405 -1.7097 -3.0869
 3694TIP3   OH211087   5.126   0.413   3.766 -0.6157  0.0376 -0.7891
 3694TIP3    H111088   5.045   0.459   3.786  0.5632  2.2620 -0.8365
 3694TIP3    H211089   5.099   0.323   3.749 -2.9674  0.5555 -0.1138
 3695TIP3   OH211090   2.498   4.230   1.932  0.1007 -0.3363 -0.3804
 3695TIP3    H111091   2.457   4.145   1.945 -0.0156 -0.0303  1.5349
 3695TIP3    H211092   2.538   4.251   2.017 -2.2554  2.7651  0.1271
 3696TIP3   OH211093   2.967   5.632   2.655  0.0101  0.0148 -0.0927
 3696TIP3    H111094   2.982   5.660   2.745  0.5945  0.2032 -0.2447
 3696TIP3    H211095   3.003   5.544   2.651  2.9552  1.1270 -0.9416
 3697TIP3   OH211096   0.933   1.531   2.839  0.2161  0.5346 -0.5266
 3697TIP3    H111097   0.997   1.461   2.855  1.2158  1.5247 -0.1148
 3697TIP3    H211098   0.848   1.487   2.846  0.6842 -0.1086  2.6936
 3698TIP3   OH211099   4.540   5.274   3.592  0.1285  0.2544 -0.0508
 3698TIP3    H111100   4.544   5.345   3.655  2.1470 -0.5074  0.7433
 3698TIP3    H211101   4.599   5.300   3.521  0.7109 -0.4980  0.1389
 3699TIP3   OH211102   4.240   0.250   2.111  0.0308 -0.4241 -0.3594
 3699TIP3    H111103   4.253   0.316   2.179 -3.2724 -0.3541  0.3667
 3699TIP3    H211104   4.328   0.217   2.093  1.3141  1.1938  2.2833
 3700TIP3   OH211105   2.281   0.022   1.777 -0.3908  0.4559  0.1051
 3700TIP3    H111106   2.306  -0.064   1.744  0.6159  0.7919 -0.0592
 3700TIP3    H211107   2.242   0.067   1.702 -0.5132  0.3003  0.0748
 3701TIP3   OH211108   0.068   2.111   0.282 -0.3344 -0.4655 -0.4638
 3701TIP3    H111109   0.097   2.020   0.276 -0.0574 -0.4290  0.2595
 3701TIP3    H211110  -0.024   2.105   0.306 -0.6836 -0.5689 -1.7848
 3702TIP3   OH211111   3.048   2.668   2.743  0.3532  0.4323 -0.2421
 3702TIP3    H111112   2.964   2.632   2.772  0.3962  0.6948  0.2269
 3702TIP3    H211113   3.096   2.593   2.709  0.5749 -0.0226  1.0332
 3703TIP3   OH211114   0.696   1.952   1.854  0.0354 -0.3559  0.6092
 3703TIP3    H111115   0.606   1.920   1.847 -0.3698  0.5498  1.5561
 3703TIP3    H211116   0.705   1.982   1.944  1.0117  0.3995  0.2846
 3704TIP3   OH211117   4.012   2.500   3.603 -0.1920 -0.3882 -0.3012
 3704TIP3    H111118   4.091   2.454   3.630  0.3617  1.6201  1.7938
 3704TIP3    H211119   3.941   2.441   3.625  0.4600 -0.1825  2.7511
 3705TIP3   OH211120   6.287   0.714   4.203 -0.3726 -0.3155  0.5996
 3705TIP3    H111121   6.377   0.687   4.222 -0.1680  0.1201  0.2555
 3705TIP3    H211122   6.295   0.786   4.141 -0.9709 -0.4855  0.3063
 3706TIP3   OH211123   0.178   3.119   4.905 -0.2037 -0.3840  0.2204
 3706TIP3    H111124   0.135   3.111   4.820 -0.1120 -1.0222  0.2280
 3706TIP3    H211125   0.230   3.198   4.899 -0.5100 -0.2138 -0.1797
 3707TIP3   OH211126   5.679   2.540   4.631 -0.3417  0.0542 -0.0208
 3707TIP3    H111127   5.701   2.536   4.538 -3.0145  0.3819 -0.7689
 3707TIP3    H211128   5.732   2.611   4.666  1.8719 -1.0785 -0.8623
 3708TIP3   OH211129   5.932   0.106   3.710 -0.3053 -0.1069 -0.5808
 3708TIP3    H111130   5.935   0.182   3.767  0.5784 -1.1093  0.7571
 3708TIP3    H211131   5.840   0.098   3.686 -0.6768  0.4180  0.6058
 3709TIP3   OH211132   4.619   1.039   1.210 -0.7427 -0.5616  0.5067
 3709TIP3    H111133   4.586   1.124   1.239 -0.1900 -0.0041 -0.4546
 3709TIP3    H211134   4.690   1.019   1.270 -0.4848 -0.0604  0.3706
 3710TIP3   OH211135   4.874   1.079   1.843 -0.2273  0.0303  0.1530
 3710TIP3    H111136   4.847   1.108   1.930 -0.2126  1.1507 -0.2047
 3710TIP3    H211137   4.962   1.044   1.855 -0.3358 -0.0796  0.6329
 3711TIP3   OH211138   1.089   5.893   5.057 -0.0699  0.0057 -0.1977
 3711TIP3    H111139   1.025   5.943   5.108 -1.5473 -1.3302 -0.6403
 3711TIP3    H211140   1.143   5.849   5.123 -0.8415 -0.3346  0.2208
 3712TIP3   OH211141   2.787   0.116   3.920  0.6639  0.4332 -0.2713
 3712TIP3    H111142   2.786   0.211   3.931 -3.0749  0.9017 -2.7150
 3712TIP3    H211143   2.702   0.087   3.955  1.7958 -2.0895  0.6224
 3713TIP3   OH211144   0.520   5.135   1.529  0.8738 -0.6482  0.3072
 3713TIP3    H111145   0.451   5.125   1.464  0.6902 -1.4479  0.6187
 3713TIP3    H211146   0.590   5.078   1.498  1.6665  0.6282 -0.3435
 3714TIP3   OH211147   5.337   4.353   1.400  0.3558 -0.3976  0.3049
 3714TIP3    H111148   5.363   4.280   1.344  0.3773 -0.2155  0.0753
 3714TIP3    H211149   5.244   4.337   1.418  0.0004  0.2128 -0.8358
 3715TIP3   OH211150   0.517   5.630   4.990  0.0893 -0.0072  0.0246
 3715TIP3    H111151   0.454   5.613   4.919 -1.6973  1.4173  1.1903
 3715TIP3    H211152   0.517   5.550   5.042 -0.2272 -0.2698 -0.3749
 3716TIP3   OH211153   3.257   2.190   4.477  0.2984  0.5421  0.1428
 3716TIP3    H111154   3.283   2.260   4.417 -1.4689  1.4700  0.3734
 3716TIP3    H211155   3.181   2.226   4.523 -0.4582 -1.4232  0.5136
 3717TIP3   OH211156   3.652   5.373   2.503 -0.4411 -0.0276 -0.2118
 3717TIP3    H111157   3.660   5.408   2.592  0.8301 -1.8272  0.4299
 3717TIP3    H211158   3.697   5.288   2.506 -1.9274 -0.9626 -2.1084
 3718TIP3   OH211159   3.098   4.628   3.383  0.4620 -0.1987  0.2252
 3718TIP3    H111160   3.054   4.562   3.329 -0.1560 -0.1726  0.6876
 3718TIP3    H211161   3.191   4.606   3.376  0.3199 -0.6953 -0.1838
 3719TIP3   OH211162   2.111   1.979   2.839 -0.0978  0.0780  0.0271
 3719TIP3    H111163   2.186   1.992   2.897 -0.3546  0.9529  0.1746
 3719TIP3    H211164   2.048   2.047   2.865 -0.5152  0.0131 -0.7871
 3720TIP3   OH211165   3.660   0.304   1.630  0.5598  0.3614  0.3181
 3720TIP3    H111166   3.580   0.332   1.673  0.6089  1.2258 -0.1423
 3720TIP3    H211167   3.650   0.209   1.620  0.8020  0.0094  2.7664
 3721TIP3   OH211168   3.322   5.186   0.050 -0.0439  0.1658 -0.0406
 3721TIP3    H111169   3.244   5.237   0.030  0.2860 -0.2940 -2.9834
 3721TIP3    H211170   3.395   5.239   0.017  0.4023 -1.5529 -2.0044
 3722TIP3   OH211171   4.866   3.310   4.611 -0.3692 -0.2805 -0.6999
 3722TIP3    H111172   4.848   3.247   4.541  0.3340 -0.7122 -0.4960
 3722TIP3    H211173   4.905   3.385   4.565 -0.6726 -0.2225 -0.8684
 3723TIP3   OH211174   5.603   2.917   3.195  0.2853 -0.4677 -0.5042
 3723TIP3    H111175   5.597   2.919   3.099 -0.5296 -1.2669 -0.4742
 3723TIP3    H211176   5.600   2.824   3.217 -0.9487 -0.2299  0.3827
 3724TIP3   OH211177   5.551   4.460   3.288 -0.4599 -0.2965  0.5579
 3724TIP3    H111178   5.534   4.543   3.331 -0.7142  0.7332 -1.4002
 3724TIP3    H211179   5.632   4.428   3.329 -0.0750  1.1666  1.0102
 3725TIP3   OH211180   5.178   5.697   0.512 -0.1892 -0.3669 -0.0356
 3725TIP3    H111181   5.264   5.725   0.544 -0.4527 -1.0827  1.4028
 3725TIP3    H211182   5.196   5.626   0.451  0.3802  1.6088 -2.3227
 3726TIP3   OH211183   1.567   5.166   0.192  0.2464 -0.2114 -0.9051
 3726TIP3    H111184   1.536   5.174   0.102  0.5802  2.0925 -0.8831
 3726TIP3    H211185   1.661   5.151   0.184  0.2387 -0.2349 -0.9492
 3727TIP3   OH211186   2.480   4.172   4.474  0.0126 -0.1219 -0.3070
 3727TIP3    H111187   2.520   4.228   4.540 -0.0505  0.4245 -0.7225
 3727TIP3    H211188   2.512   4.207   4.390  0.4375 -1.0725 -0.5535
 3728TIP3   OH211189   3.072   3.529   0.288  0.3528  0.3128 -0.0815
 3728TIP3    H111190   3.013   3.463   0.249 -0.5636  0.0533  1.6400
 3728TIP3    H211191   3.160   3.496   0.270 -0.0002  0.1779 -1.8192
 3729TIP3   OH211192   2.203   5.261   0.688 -0.3174 -0.2911  0.0507
 3729TIP3    H111193   2.195   5.176   0.732  0.8780 -0.0697  0.7386
 3729TIP3    H211194   2.157   5.322   0.745 -1.1075 -0.4528 -0.4031
 3730TIP3   OH211195   1.662   4.972   1.800 -0.2823 -0.7760 -0.4025
 3730TIP3    H111196   1.694   4.909   1.864  1.8613  1.7645  1.2065
 3730TIP3    H211197   1.592   5.018   1.845  1.2187  1.0097  0.2134
 3731TIP3   OH211198   3.571   5.446   4.221  0.1383  0.0483 -0.2307
 3731TIP3    H111199   3.547   5.390   4.147  1.3575 -0.4402 -0.2773
 3731TIP3    H211200   3.488   5.464   4.265 -0.6905  0.8513 -2.0519
 3732TIP3   OH211201   2.582   0.257   4.300 -0.4903 -0.3852 -0.2409
 3732TIP3    H111202   2.634   0.279   4.376 -1.0138  0.7133 -0.1817
 3732TIP3    H211203   2.530   0.335   4.282 -1.5952 -1.1891 -0.7254
 3733TIP3   OH211204   2.176   2.350   1.585 -0.1524 -0.3058  0.4582
 3733TIP3    H111205   2.202   2.360   1.677  0.3198  0.8845  0.2179
 3733TIP3    H211206   2.099   2.295   1.588 -1.4016  1.3900  1.7741
 3734TIP3   OH211207   2.555   2.863   2.026  0.5904  0.0625 -0.4211
 3734TIP3    H111208   2.490   2.906   1.970 -2.0191  0.1530  2.4052
 3734TIP3    H211209   2.578   2.929   2.092 -0.4402 -1.4670  1.6091
 3735TIP3   OH211210   1.283   5.493   4.191 -0.2520 -0.0624  0.5026
 3735TIP3    H111211   1.270   5.432   4.118  1.9619 -1.3123  1.0494
 3735TIP3    H211212   1.293   5.436   4.268  0.4088  1.0658  1.2823
 3736TIP3   OH211213   5.170   3.898   4.864 -0.5131  0.2031  0.3308
 3736TIP3    H111214   5.111   3.957   4.911  0.9101  2.0513 -0.0424
 3736TIP3    H211215   5.252   3.947   4.858  0.4367 -1.4273 -0.9513
 3737TIP3   OH211216   2.865   1.150   2.102  0.5351 -0.7867  0.4403
 3737TIP3    H111217   2.952   1.140   2.142  0.5028 -1.2922  0.3878
 3737TIP3    H211218   2.834   1.060   2.089  0.9258 -0.6753 -1.5679
 3738TIP3   OH211219   3.086   5.499   3.512 -0.8338 -0.2461 -0.1757
 3738TIP3    H111220   3.025   5.568   3.487 -1.4388 -0.0369  1.7098
 3738TIP3    H211221   3.034   5.440   3.567  0.1149 -1.2610 -0.3381
 3739TIP3   OH211222   1.570   5.497   2.463 -0.6696  0.1787 -0.7871
 3739TIP3    H111223   1.519   5.532   2.390 -0.7391  1.7385 -0.0287
 3739TIP3    H211224   1.506   5.455   2.519 -0.7457 -0.1828 -1.1408
 3740TIP3   OH211225   6.175   2.534   3.871 -0.5549 -0.1431  0.4480
 3740TIP3    H111226   6.190   2.444   3.901 -0.0494 -0.5509 -0.9418
 3740TIP3    H211227   6.255   2.556   3.823 -0.3133  1.3787  1.5020
 3741TIP3   OH211228   5.204   3.412   1.298 -0.6094  0.0383  0.0314
 3741TIP3    H111229   5.198   3.341   1.362 -0.2595 -1.1108 -1.1747
 3741TIP3    H211230   5.296   3.414   1.273 -1.0548 -0.7624 -1.7708
 3742TIP3   OH211231   2.450   5.874   2.863  0.3821  0.0536 -0.0530
 3742TIP3    H111232   2.402   5.803   2.906 -0.0651  0.7722  0.6748
 3742TIP3    H211233   2.426   5.867   2.771  1.2056 -1.4028 -0.1822
 3743TIP3   OH211234   1.146   3.640   4.853  0.4893 -0.3151 -0.0777
 3743TIP3    H111235   1.154   3.734   4.866  0.3555 -0.4205  0.8251
 3743TIP3    H211236   1.179   3.625   4.764  1.4969  0.4520  0.1442
 3744TIP3   OH211237   4.244   0.600   3.510 -0.0614  0.2886  0.2443
 3744TIP3    H111238   4.273   0.613   3.420 -1.5679  0.5009 -0.2414
 3744TIP3    H211239   4.322   0.570   3.557  0.8737  0.6921 -1.0029
 3745TIP3   OH211240   0.117   1.320   2.356  0.0801 -0.5325 -0.5470
 3745TIP3    H111241   0.088   1.235   2.323  1.2884 -1.3982  0.5148
 3745TIP3    H211242   0.177   1.298   2.427  1.4529  1.2096 -1.1265
 3746TIP3   OH211243   4.834   2.958   0.894  0.5451  0.5818  0.6725
 3746TIP3    H111244   4.809   2.998   0.977 -1.3888 -0.0660  0.4693
 3746TIP3    H211245   4.821   3.027   0.829  2.3203  1.1705  0.9139
 3747TIP3   OH211246   1.745   2.322   4.738 -0.0242  0.1757 -0.1129
 3747TIP3    H111247   1.825   2.371   4.717 -1.2370  1.6661 -1.5379
 3747TIP3    H211248   1.775   2.232   4.753  1.9881  0.8392  0.1377
 3748TIP3   OH211249   5.109   4.019   0.983 -0.0584 -0.2496 -0.0530
 3748TIP3    H111250   5.119   4.098   0.930 -1.0661 -0.1274 -0.0802
 3748TIP3    H211251   5.133   3.948   0.924 -0.4205 -0.0609 -0.4332
 3749TIP3   OH211252   6.114   3.409   3.620  0.7497 -0.3157 -0.3958
 3749TIP3    H111253   6.192   3.360   3.644  0.1271 -2.0818 -1.7589
 3749TIP3    H211254   6.130   3.437   3.529  0.3081  0.3837 -0.2680
 3750TIP3   OH211255   2.394   3.505   4.791  0.2062 -0.1805 -0.0713
 3750TIP3    H111256   2.445   3.476   4.715 -0.4527 -2.2146  0.2075
 3750TIP3    H211257   2.375   3.425   4.840 -1.5349  0.7520  0.8990
 3751TIP3   OH211258   6.010   5.235   4.445 -0.4244 -0.5594 -0.1039
 3751TIP3    H111259   6.089   5.214   4.395  0.1412  0.6118  0.2592
 3751TIP3    H211260   6.033   5.217   4.536 -0.5417 -0.1496  0.0105
 3752TIP3   OH211261   4.667   5.739   4.534  0.0070  0.0173 -0.3485
 3752TIP3    H111262   4.619   5.817   4.564  1.4003  0.2634  1.4226
 3752TIP3    H211263   4.642   5.671   4.597  0.4563 -0.3728 -0.5868
 3753TIP3   OH211264   5.318   4.657   2.101  0.2896 -0.4354  0.1085
 3753TIP3    H111265   5.321   4.591   2.170  0.1177 -0.6365 -0.0743
 3753TIP3    H211266   5.240   4.635   2.050 -0.3013  0.4781  0.6003
 3754TIP3   OH211267   5.182   5.347   4.682 -0.1212 -0.0670 -0.0147
 3754TIP3    H111268   5.215   5.436   4.669 -0.2994 -0.1558 -1.2645
 3754TIP3    H211269   5.259   5.296   4.707  0.2866  0.1522 -0.7869
 3755TIP3   OH211270   0.216   4.066   5.126 -0.3565 -0.7037  0.2973
 3755TIP3    H111271   0.301   4.055   5.084 -0.0784  1.9887 -0.0062
 3755TIP3    H211272   0.223   4.015   5.207  0.9357 -1.8174 -0.4672
 3756TIP3   OH211273   1.080   1.778   4.727  0.1609 -0.9128  0.5991
 3756TIP3    H111274   1.061   1.839   4.798  0.5492 -0.5918  0.4300
 3756TIP3    H211275   1.121   1.703   4.770 -0.5553 -1.1791  0.8400
 3757TIP3   OH211276   1.963   2.108   4.878 -0.3900  0.0166 -0.1556
 3757TIP3    H111277   1.933   2.076   4.793 -0.9242 -0.5352  0.2284
 3757TIP3    H211278   1.883   2.117   4.930 -0.0655  0.2985  0.3052
 3758TIP3   OH211279   2.502   1.815   2.926  0.0010  0.1085  0.6263
 3758TIP3    H111280   2.585   1.858   2.906  0.0466 -0.0334  0.5123
 3758TIP3    H211281   2.514   1.725   2.897 -0.9188  0.5824 -1.3488
 3759TIP3   OH211282   4.077   2.509   1.719 -0.0996  0.0126  0.3872
 3759TIP3    H111283   4.056   2.461   1.639  0.8787 -1.3934  0.9446
 3759TIP3    H211284   4.021   2.471   1.786  1.5330 -1.2932  1.0996
 3760TIP3   OH211285   4.294   1.355   0.215 -0.3819 -0.4528 -0.3201
 3760TIP3    H111286   4.318   1.428   0.272 -1.5684  0.2918 -0.7436
 3760TIP3    H211287   4.347   1.366   0.137 -2.1332  1.2933 -1.3357
 3761TIP3   OH211288   4.421   3.556   3.772 -0.1558  0.1879 -0.2188
 3761TIP3    H111289   4.446   3.491   3.838 -2.2399  0.3803  0.8463
 3761TIP3    H211290   4.438   3.513   3.688 -2.5676 -2.2535  0.4239
 3762TIP3   OH211291   3.702   2.789   0.575 -0.3878  0.1591  0.2126
 3762TIP3    H111292   3.699   2.704   0.619 -4.1472  0.3986  0.7282
 3762TIP3    H211293   3.708   2.853   0.647  1.5993  0.4231 -0.1338
 3763TIP3   OH211294   1.699   3.403   1.484 -1.0888 -0.9952  0.1926
 3763TIP3    H111295   1.692   3.311   1.510 -2.5001 -0.6779  1.0888
 3763TIP3    H211296   1.614   3.441   1.509 -0.3191  0.6823  0.3966
 3764TIP3   OH211297   5.317   1.092   2.562  0.0322  0.8515  0.0173
 3764TIP3    H111298   5.410   1.091   2.582 -0.3437 -1.6359  2.0212
 3764TIP3    H211299   5.277   1.136   2.636 -0.5736 -0.0392  0.2256
 3765TIP3   OH211300   0.152   3.224   2.781 -0.2906  0.3709 -0.3962
 3765TIP3    H111301   0.206   3.285   2.831 -0.3593  0.4932 -0.4683
 3765TIP3    H211302   0.166   3.250   2.689  1.1410 -0.9089 -0.5777
 3766TIP3   OH211303   2.950   1.478   1.519 -0.4148  0.5221  0.2665
 3766TIP3    H111304   2.925   1.564   1.485 -0.3909  0.4586  0.0860
 3766TIP3    H211305   3.019   1.448   1.460 -1.2725 -0.1544 -0.4114
 3767TIP3   OH211306   5.632   4.784   2.349  0.2178 -0.2766  0.1978
 3767TIP3    H111307   5.583   4.857   2.384 -1.0379  0.3779 -2.6340
 3767TIP3    H211308   5.723   4.815   2.345  0.0450  0.3371  0.9070
 3768TIP3   OH211309   5.569   2.348   2.521 -0.7241 -0.0677  0.8528
 3768TIP3    H111310   5.475   2.345   2.508 -0.7265 -0.5447  0.9581
 3768TIP3    H211311   5.598   2.257   2.507 -0.1939  0.1966  0.1361
 3769TIP3   OH211312   4.452   3.881   0.616 -0.0106 -0.5210  0.2077
 3769TIP3    H111313   4.483   3.936   0.544  0.9901  0.5887  1.4444
 3769TIP3    H211314   4.437   3.941   0.688 -2.4773 -1.3951  0.5390
 3770TIP3   OH211315   2.971   2.964   4.961  0.3472  0.5868  0.2987
 3770TIP3    H111316   2.962   2.870   4.944 -0.9924  0.9139 -1.0290
 3770TIP3    H211317   3.052   2.989   4.915  0.6587  0.1070  0.5814
 3771TIP3   OH211318   6.206   0.135   1.117 -0.4196  0.1634 -0.5831
 3771TIP3    H111319   6.301   0.138   1.109 -0.4603  0.3746 -1.0587
 3771TIP3    H211320   6.187   0.046   1.147 -0.0636  0.1676 -0.3442
 3772TIP3   OH211321   3.561   1.285   1.850 -0.0627  0.0979  0.2249
 3772TIP3    H111322   3.630   1.344   1.820  1.1944 -1.1625  0.5644
 3772TIP3    H211323   3.507   1.270   1.771 -0.0667  1.2154  0.0009
 3773TIP3   OH211324   4.270   3.028   3.867 -0.0744  0.3290 -0.1368
 3773TIP3    H111325   4.218   2.967   3.919 -3.1082  1.3567 -1.7220
 3773TIP3    H211326   4.247   3.114   3.902  0.9822  0.7927 -0.5634
 3774TIP3   OH211327   6.349   0.498   4.500 -0.3411 -0.0346 -0.1952
 3774TIP3    H111328   6.376   0.441   4.428 -0.3365 -0.1137 -0.1312
 3774TIP3    H211329   6.266   0.535   4.472 -0.9669 -1.0242  0.2824
 3775TIP3   OH211330   4.461   5.828   3.694  0.5361 -0.4366  0.0351
 3775TIP3    H111331   4.512   5.765   3.643  0.7967 -1.3312  1.3483
 3775TIP3    H211332   4.490   5.814   3.784 -3.1986 -2.1828  1.1569
 3776TIP3   OH211333   3.764   3.563   2.066  0.5316 -0.0787  0.0657
 3776TIP3    H111334   3.801   3.509   1.997 -0.0398  0.5251 -0.7335
 3776TIP3    H211335   3.816   3.542   2.144 -0.1821 -2.3599 -0.0004
 3777TIP3   OH211336   0.306   0.299   4.826  0.5823  0.5045 -0.2217
 3777TIP3    H111337   0.234   0.314   4.765  1.8215  1.8085 -1.4483
 3777TIP3    H211338   0.275   0.229   4.883 -1.4511  0.6928 -1.0087
 3778TIP3   OH211339   5.644   5.198   4.089 -0.8155  0.1518  0.3017
 3778TIP3    H111340   5.664   5.104   4.092 -2.6695 -0.2605  1.7082
 3778TIP3    H211341   5.668   5.230   4.176 -0.8838  0.8292  0.0714
 3779TIP3   OH211342   2.882   4.975   2.401  0.7904 -0.5244  0.1304
 3779TIP3    H111343   2.904   4.930   2.482  2.9542  1.6129  0.8522
 3779TIP3    H211344   2.853   5.062   2.429 -0.1106 -0.3180 -1.3273
 3780TIP3   OH211345   3.798   0.591   5.010  0.1322  0.0766 -0.2023
 3780TIP3    H111346   3.739   0.659   4.979  0.1268  0.2904  0.2649
 3780TIP3    H211347   3.787   0.591   5.105  0.0713 -0.6365 -0.2089
 3781TIP3   OH211348   1.107   3.834   0.622  0.4559 -0.2852  0.3723
 3781TIP3    H111349   1.079   3.742   0.619  0.8855 -0.3962 -0.5321
 3781TIP3    H211350   1.166   3.844   0.547 -0.2782  0.9599 -0.0742
 3782TIP3   OH211351   5.981   3.377   0.964 -0.2148  0.1135 -0.6321
 3782TIP3    H111352   6.014   3.462   0.994  0.3701 -0.7395  1.3155
 3782TIP3    H211353   5.886   3.385   0.970 -0.2995  1.3686 -2.7390
 3783TIP3   OH211354   2.299   1.428   0.380  0.1167  0.5654 -0.3593
 3783TIP3    H111355   2.380   1.439   0.430  0.9949 -0.0033 -1.5857
 3783TIP3    H211356   2.230   1.422   0.446  1.0239  1.4000  0.7122
 3784TIP3   OH211357   0.638   3.521   1.773 -0.9956  0.0027  0.0827
 3784TIP3    H111358   0.614   3.431   1.795 -1.1521  0.3971  1.6540
 3784TIP3    H211359   0.634   3.568   1.856  2.1246  0.8176 -0.1320
 3785TIP3   OH211360   5.750   3.483   1.180 -0.1278 -0.3172 -0.7881
 3785TIP3    H111361   5.701   3.561   1.206 -0.3865 -0.8333  0.2953
 3785TIP3    H211362   5.705   3.452   1.101 -0.8429 -0.1393 -0.4505
 3786TIP3   OH211363   5.002   4.414   1.148  0.4311  0.2643  0.0005
 3786TIP3    H111364   4.947   4.336   1.150 -0.0387  0.5865  0.0683
 3786TIP3    H211365   4.988   4.454   1.234  0.6398  0.4379 -0.0472
 3787TIP3   OH211366   2.259   4.788   4.530  0.4035  0.5060  0.0382
 3787TIP3    H111367   2.207   4.715   4.496  2.0330 -0.3058 -0.7928
 3787TIP3    H211368   2.197   4.861   4.535 -0.5680 -0.1228 -1.9650
 3788TIP3   OH211369   1.240   0.522   2.701 -0.4060 -0.0258  0.8323
 3788TIP3    H111370   1.275   0.504   2.614 -0.6240  0.8432  0.5534
 3788TIP3    H211371   1.154   0.561   2.685 -0.1002  0.9250  1.4034
 3789TIP3   OH211372   4.701   0.464   4.299  0.0864 -0.2141  0.5060
 3789TIP3    H111373   4.759   0.420   4.361 -1.6499 -1.2407  1.4915
 3789TIP3    H211374   4.628   0.496   4.352 -0.9837 -0.2645 -0.8516
 3790TIP3   OH211375   0.814   0.203   0.923  0.3584  0.1232  0.1283
 3790TIP3    H111376   0.844   0.191   1.013 -1.7862  2.0970  1.1959
 3790TIP3    H211377   0.813   0.298   0.910 -0.5957 -0.0721 -1.5333
 3791TIP3   OH211378   0.681   1.861   4.473  0.0277  0.0507 -0.1608
 3791TIP3    H111379   0.679   1.936   4.533 -0.1338 -0.4782  0.5000
 3791TIP3    H211380   0.622   1.887   4.401 -0.3646  0.3796  0.2724
 3792TIP3   OH211381   2.751   0.187   1.971 -0.4370 -0.4894  0.1263
 3792TIP3    H111382   2.748   0.216   1.880  2.5878 -1.8173 -0.5402
 3792TIP3    H211383   2.720   0.096   1.968  0.2140 -0.7229  0.2857
 3793TIP3   OH211384   2.626   3.986   0.395 -0.8738  0.0922 -0.3162
 3793TIP3    H111385   2.560   4.055   0.395 -0.5658  0.4223  0.8625
 3793TIP3    H211386   2.597   3.924   0.462  0.1384  0.3939  0.4371
 3794TIP3   OH211387   4.824   2.523   3.940  0.2258  0.1953 -0.2595
 3794TIP3    H111388   4.905   2.527   3.890  0.1799  0.3246 -0.3230
 3794TIP3    H211389   4.853   2.523   4.032  0.2849  0.6407 -0.2727
 3795TIP3   OH211390   5.542   0.928   4.970 -0.0666 -0.4548 -0.2643
 3795TIP3    H111391   5.584   0.936   4.884  0.5219  0.2768  0.0763
 3795TIP3    H211392   5.551   1.015   5.009  0.0683 -0.8956  0.7131
 3796TIP3   OH211393   2.091   1.759   0.852  0.9867  0.4387 -0.5151
 3796TIP3    H111394   2.004   1.720   0.857  1.3358 -0.2542  1.1002
 3796TIP3    H211395   2.147   1.689   0.818  1.5618 -0.5161  2.1190
 3797TIP3   OH211396   3.841   2.180   1.706 -0.1954 -0.5018 -0.2765
 3797TIP3    H111397   3.854   2.258   1.760 -0.8048 -0.4653 -0.1770
 3797TIP3    H211398   3.919   2.127   1.722  1.5813  1.2619 -2.4030
 3798TIP3   OH211399   1.862   4.468   3.648  0.4882  0.1557  0.1271
 3798TIP3    H111400   1.799   4.493   3.716  1.2616  1.1880  0.4839
 3798TIP3    H211401   1.941   4.517   3.670  1.1874 -0.5687 -0.7335
 3799TIP3   OH211402   5.260   1.665   0.722 -0.0918 -0.2668  0.1456
 3799TIP3    H111403   5.293   1.702   0.804  0.4646  0.0788 -0.2275
 3799TIP3    H211404   5.188   1.723   0.697  0.7612  0.5793 -0.4223
 3800TIP3   OH211405   4.477   2.833   0.335 -0.1541  0.3483 -0.1766
 3800TIP3    H111406   4.390   2.795   0.325  0.4530 -0.8521 -1.4336
 3800TIP3    H211407   4.522   2.810   0.253  1.3371  0.9243  0.4447
 3801TIP3   OH211408   1.337   3.245   0.112  0.0983  0.2757  0.4012
 3801TIP3    H111409   1.347   3.333   0.149 -0.1759  0.7148 -0.5375
 3801TIP3    H211410   1.383   3.248   0.029 -0.4124 -0.2951  0.0864
 3802TIP3   OH211411   2.520   1.377   3.772 -0.3273  0.7193  0.0065
 3802TIP3    H111412   2.459   1.431   3.821  0.2854  1.1816  0.2813
 3802TIP3    H211413   2.470   1.344   3.698 -1.8180 -1.5323  1.8889
 3803TIP3   OH211414   3.103   2.124   3.548 -0.3153  0.0848 -0.0947
 3803TIP3    H111415   3.079   2.092   3.635  1.0396  0.1361  0.3366
 3803TIP3    H211416   3.022   2.121   3.498 -1.1147 -0.0305  1.1427
 3804TIP3   OH211417   0.318   4.623   3.521 -0.9957  0.4578 -0.3517
 3804TIP3    H111418   0.371   4.617   3.441  1.1815 -1.7026  1.1068
 3804TIP3    H211419   0.382   4.640   3.590 -2.1833 -1.8239  1.4567
 3805TIP3   OH211420   2.988   4.872   1.741 -0.0960 -0.2485  0.5899
 3805TIP3    H111421   2.892   4.867   1.733 -0.0099 -0.8625 -0.1730
 3805TIP3    H211422   3.010   4.958   1.705 -0.2999 -0.4189  0.0406
 3806TIP3   OH211423   3.485   1.876   1.146  0.1554  0.0468 -0.4804
 3806TIP3    H111424   3.449   1.823   1.075 -1.5767  0.4584  0.0578
 3806TIP3    H211425   3.418   1.941   1.164  1.0738  0.6871  0.7479
 3807TIP3   OH211426   4.623   4.042   0.147  0.7846 -0.9536  0.0864
 3807TIP3    H111427   4.673   4.121   0.168  0.4791 -1.2349  2.0855
 3807TIP3    H211428   4.641   4.026   0.055 -0.2464  2.2456 -0.8201
 3808TIP3   OH211429   3.580   4.549   4.865 -0.1875 -0.3864  0.5522
 3808TIP3    H111430   3.538   4.471   4.829 -1.2340  0.9826 -1.3565
 3808TIP3    H211431   3.662   4.558   4.815 -0.5859  0.2949 -0.0039
 3809TIP3   OH211432   6.159   2.775   0.200  0.7165 -0.1381  0.0264
 3809TIP3    H111433   6.193   2.687   0.216  2.6397  0.5117 -0.2796
 3809TIP3    H211434   6.206   2.830   0.262  0.3538  0.8446 -0.5556
 3810TIP3   OH211435   3.061   5.043   2.619 -0.6419  0.9728 -0.0653
 3810TIP3    H111436   3.021   5.035   2.705 -0.6978 -0.6737 -0.1995
 3810TIP3    H211437   3.031   5.127   2.586 -1.5298  1.1249  1.0647
 3811TIP3   OH211438   3.895   2.904   2.684 -0.0186 -0.8078 -0.9432
 3811TIP3    H111439   3.823   2.876   2.740  2.0471 -2.5011  1.0684
 3811TIP3    H211440   3.898   2.999   2.693 -1.4810 -0.7864 -0.4556
 3812TIP3   OH211441   3.285   1.394   2.464  0.8351  0.2210  0.0839
 3812TIP3    H111442   3.216   1.379   2.529 -1.0764 -0.1757 -1.9486
 3812TIP3    H211443   3.308   1.306   2.433  1.9330  0.3908  0.3623
 3813TIP3   OH211444   3.765   1.840   0.544 -0.1673  0.6289 -0.3992
 3813TIP3    H111445   3.695   1.870   0.602 -0.7211  0.3064 -0.8880
 3813TIP3    H211446   3.843   1.885   0.575 -0.2579 -0.2620  1.2171
 3814TIP3   OH211447   0.503   0.549   2.026 -0.2098 -0.3186 -0.0397
 3814TIP3    H111448   0.426   0.523   1.976 -0.3897  0.1084  0.0045
 3814TIP3    H211449   0.467   0.587   2.106  0.0761 -1.2041  0.5244
 3815TIP3   OH211450   0.861   3.517   0.095 -0.1397 -0.1868 -0.2153
 3815TIP3    H111451   0.938   3.507   0.151  0.4593  0.3479 -0.9233
 3815TIP3    H211452   0.812   3.435   0.105  1.3509 -1.2059 -0.9999
 3816TIP3   OH211453   2.898   5.103   1.119 -0.2826 -0.1301 -0.5716
 3816TIP3    H111454   2.834   5.173   1.128  1.8539  1.9190 -0.5566
 3816TIP3    H211455   2.884   5.048   1.196 -0.1168  1.9539  1.0203
 3817TIP3   OH211456   4.313   2.544   4.453  0.0770  0.4659 -0.0035
 3817TIP3    H111457   4.345   2.522   4.365  1.1862  0.0947  0.4788
 3817TIP3    H211458   4.221   2.518   4.452  0.2331 -0.1038 -0.8570
 3818TIP3   OH211459   1.799   3.843   3.321 -0.0647  0.0504  0.3752
 3818TIP3    H111460   1.765   3.932   3.328 -1.0075 -0.4237  2.5892
 3818TIP3    H211461   1.894   3.854   3.321 -0.0766  1.0148  3.3835
 3819TIP3   OH211462   4.978   1.529   1.625 -0.1519 -0.5424  0.1704
 3819TIP3    H111463   5.017   1.496   1.544 -0.7236 -2.7636  0.7296
 3819TIP3    H211464   5.043   1.591   1.660  2.0010 -2.6013  0.0564
 3820TIP3   OH211465   3.598   2.117   0.053 -0.2995 -0.0388  0.6199
 3820TIP3    H111466   3.614   2.028   0.023 -0.4291 -0.3641  1.4936
 3820TIP3    H211467   3.681   2.146   0.090  0.5013  1.1405 -1.8970
 3821TIP3   OH211468   1.537   0.668   1.861  0.1786 -0.0384  0.3681
 3821TIP3    H111469   1.622   0.665   1.903  0.0010  0.8481  0.8111
 3821TIP3    H211470   1.506   0.577   1.864  0.3848 -0.0933  1.7181
 3822TIP3   OH211471   0.472   1.442   3.546  0.5498 -0.2472  0.3600
 3822TIP3    H111472   0.431   1.437   3.633 -1.5511  2.0778 -0.3603
 3822TIP3    H211473   0.566   1.435   3.564  0.2232  0.5270  2.9043
 3823TIP3   OH211474   4.602   1.320   3.584  0.1182  0.1825 -0.5624
 3823TIP3    H111475   4.645   1.236   3.571 -2.2790 -0.9950 -1.3509
 3823TIP3    H211476   4.524   1.301   3.635 -0.0682  2.0684 -0.0581
 3824TIP3   OH211477   1.617   2.571   3.048  0.4801 -0.0716  0.0049
 3824TIP3    H111478   1.601   2.608   2.961 -0.8640 -1.0740 -0.2123
 3824TIP3    H211479   1.683   2.503   3.033 -1.7075 -2.1291 -0.7817
 3825TIP3   OH211480   2.237   2.879   4.341  0.1190  0.1227  0.4390
 3825TIP3    H111481   2.328   2.860   4.315  0.1905 -1.1535  1.4772
 3825TIP3    H211482   2.194   2.903   4.259  1.2484  0.1344 -0.1855
 3826TIP3   OH211483   6.116   4.543   2.452  0.2384 -0.2346 -0.1967
 3826TIP3    H111484   6.129   4.485   2.527  0.9098 -0.9319 -0.8282
 3826TIP3    H211485   6.169   4.620   2.471 -1.0578  0.4439  0.8848
 3827TIP3   OH211486   3.787   4.897   4.717 -0.6005  0.1983 -0.0796
 3827TIP3    H111487   3.776   4.907   4.622  1.4487  0.0666 -0.3664
 3827TIP3    H211488   3.750   4.978   4.753 -0.7171  0.5940 -1.0463
 3828TIP3   OH211489   1.481   3.953   4.871  0.3198 -0.4692 -0.1298
 3828TIP3    H111490   1.512   3.937   4.782  0.3975  2.1091 -0.6451
 3828TIP3    H211491   1.503   4.044   4.888 -1.0305 -0.4657  1.9903
 3829TIP3   OH211492   5.954   4.012   2.671 -0.8140 -0.3272 -0.6854
 3829TIP3    H111493   5.913   4.080   2.725 -1.0963  0.3690 -1.7462
 3829TIP3    H211494   6.046   4.036   2.667 -0.6860 -0.6967 -0.0597
 3830TIP3   OH211495   3.821   4.689   0.423 -0.1617  0.0813 -0.0163
 3830TIP3    H111496   3.882   4.759   0.444  0.3168 -0.5897  0.9004
 3830TIP3    H211497   3.828   4.628   0.496 -0.6932 -0.8425 -0.7117
 3831TIP3   OH211498   1.771   4.583   3.161 -0.0586 -0.1557  0.6592
 3831TIP3    H111499   1.771   4.600   3.256 -1.0429 -1.5237  0.9175
 3831TIP3    H211500   1.710   4.647   3.126  1.3712  1.3223  0.7293
 3832TIP3   OH211501   4.847   1.883   0.318  0.1356  0.3288 -0.0403
 3832TIP3    H111502   4.803   1.883   0.232 -2.6372 -0.2782  1.2483
 3832TIP3    H211503   4.923   1.940   0.306 -0.8819  1.3191 -2.5542
 3833TIP3   OH211504   0.954   2.130   0.600 -0.0519  0.5758 -0.2192
 3833TIP3    H111505   0.986   2.123   0.690  0.3722  1.4708 -0.2924
 3833TIP3    H211506   0.867   2.168   0.608  0.0433  0.7879 -0.1987
 3834TIP3   OH211507   1.225   2.721   2.673  0.1390 -0.1691 -0.0735
 3834TIP3    H111508   1.156   2.787   2.663  0.6808  0.9500  2.6055
 3834TIP3    H211509   1.180   2.645   2.708  0.0638  0.1354  0.5059
 3835TIP3   OH211510   5.277   2.276   4.497  0.1416  0.5648  0.4235
 3835TIP3    H111511   5.348   2.224   4.459  0.1231  1.0050 -0.2189
 3835TIP3    H211512   5.248   2.225   4.573  0.0246 -0.4362 -0.2860
 3836TIP3   OH211513   5.768   1.783   1.188  0.4608 -0.7371  0.4745
 3836TIP3    H111514   5.752   1.773   1.282  0.7814 -1.5379  0.4496
 3836TIP3    H211515   5.681   1.792   1.150  0.3741  1.1601  1.0001
 3837TIP3   OH211516   3.238   3.016   0.036 -0.2993  0.2835 -0.2557
 3837TIP3    H111517   3.193   3.009   0.120 -1.3608 -2.0643 -0.9576
 3837TIP3    H211518   3.272   2.928   0.019  2.0334  1.2746 -1.1805
 3838TIP3   OH211519   1.287   2.396   0.450 -0.2044  0.5680 -0.2499
 3838TIP3    H111520   1.321   2.419   0.536  2.2653 -2.1647 -0.3631
 3838TIP3    H211521   1.328   2.459   0.390  0.4799  0.5783  0.2291
 3839TIP3   OH211522   2.373   4.616   0.821  0.0181  0.1946  0.0796
 3839TIP3    H111523   2.453   4.647   0.864 -0.6491  0.4782  1.1346
 3839TIP3    H211524   2.331   4.560   0.885 -0.4231 -0.3051 -0.6332
 3840TIP3   OH211525   2.802   0.610   3.566 -0.3562 -0.1975  0.4362
 3840TIP3    H111526   2.796   0.515   3.552  0.3921 -0.3342  1.0113
 3840TIP3    H211527   2.844   0.619   3.651 -0.8022  0.6530  0.5744
 3841TIP3   OH211528   0.946   5.874   4.750  0.5265 -0.0637 -0.0496
 3841TIP3    H111529   0.915   5.836   4.832  0.2953 -0.0446 -0.1280
 3841TIP3    H211530   0.991   5.802   4.706 -0.0245 -0.2902 -0.2575
 3842TIP3   OH211531   1.870   3.463   2.232  0.5938  0.1398 -0.0773
 3842TIP3    H111532   1.793   3.408   2.220  2.1999 -3.1648  2.8107
 3842TIP3    H211533   1.844   3.528   2.298 -0.2240  0.3365 -0.5839
 3843TIP3   OH211534   1.308   1.800   4.049  0.3130  0.1842 -0.1466
 3843TIP3    H111535   1.361   1.732   4.008 -1.3790 -2.3395  1.5392
 3843TIP3    H211536   1.301   1.773   4.141 -2.6318  1.1471  0.0330
 3844TIP3   OH211537   0.312   2.898   3.034  0.7787  0.1684  0.0487
 3844TIP3    H111538   0.399   2.923   3.002  1.9343 -1.8239  1.4068
 3844TIP3    H211539   0.304   2.942   3.119  1.6816 -1.7355  1.1877
 3845TIP3   OH211540   0.981   1.411   2.022 -0.3614 -0.0384 -0.0041
 3845TIP3    H111541   0.992   1.336   1.964  1.1844  0.3269 -0.2178
 3845TIP3    H211542   1.070   1.437   2.046 -0.8573  1.7504  0.0449
 3846TIP3   OH211543   2.702   1.303   3.564  0.3674  0.1405 -0.5890
 3846TIP3    H111544   2.702   1.394   3.595 -1.0639  0.4629 -1.4188
 3846TIP3    H211545   2.675   1.251   3.639  1.7915  0.3067  0.0677
 3847TIP3   OH211546   4.143   0.848   0.293 -0.4288  0.0786 -0.3583
 3847TIP3    H111547   4.224   0.806   0.321 -0.5410 -0.3528 -0.6716
 3847TIP3    H211548   4.137   0.830   0.199 -0.7317  0.3675 -0.3991
 3848TIP3   OH211549   2.668   3.742   4.657  0.0146  0.8952  0.3807
 3848TIP3    H111550   2.761   3.749   4.674  0.7539 -0.5513 -2.4159
 3848TIP3    H211551   2.647   3.651   4.679 -0.4183  0.8420 -0.2207
 3849TIP3   OH211552   0.870   2.452   4.135 -0.5744 -0.8150 -0.6944
 3849TIP3    H111553   0.915   2.489   4.211  1.1157  0.0648 -2.0565
 3849TIP3    H211554   0.791   2.505   4.125 -1.5317 -1.7662  1.1579
 3850TIP3   OH211555   3.306   5.395   3.994 -0.1021 -0.2004  0.7132
 3850TIP3    H111556   3.278   5.386   3.903  1.0733 -0.8348  0.3904
 3850TIP3    H211557   3.301   5.489   4.012 -1.3666 -0.1826  0.3492
 3851TIP3   OH211558   5.428   1.210   0.627 -0.2062  0.0943  0.1262
 3851TIP3    H111559   5.377   1.257   0.693 -3.2373  0.9615 -2.6034
 3851TIP3    H211560   5.375   1.134   0.604  0.9944 -0.4455 -1.0099
 3852TIP3   OH211561   2.634   4.847   2.748 -0.0476 -0.0063  0.0605
 3852TIP3    H111562   2.687   4.911   2.796 -0.5176  1.8472 -1.7300
 3852TIP3    H211563   2.585   4.801   2.816  0.5190  1.3417  1.4522
 3853TIP3   OH211564   0.943   2.178   1.061  0.0676  0.0471 -0.2726
 3853TIP3    H111565   0.957   2.111   1.128 -1.3494  0.6196  0.6441
 3853TIP3    H211566   0.925   2.258   1.111 -1.8768  0.3016 -1.2956
 3854TIP3   OH211567   5.206   4.116   2.408 -0.2926  0.4216  0.3826
 3854TIP3    H111568   5.279   4.056   2.425 -1.2148 -0.5902  0.8812
 3854TIP3    H211569   5.203   4.123   2.313 -0.7635 -1.1204  0.2475
 3855TIP3   OH211570   2.493   1.030  -0.014 -0.7742 -0.0306  0.8445
 3855TIP3    H111571   2.446   0.986   0.057 -1.8006 -0.5588 -0.1229
 3855TIP3    H211572   2.540   1.101   0.029 -0.2558 -1.1669  2.2394
 3856TIP3   OH211573   1.745   4.573   0.370  0.6501 -0.2122 -0.4414
 3856TIP3    H111574   1.775   4.517   0.298 -0.5918  0.0158 -1.1797
 3856TIP3    H211575   1.790   4.539   0.447  0.4380 -1.8132 -0.9780
 3857TIP3   OH211576   2.901   1.161   0.147 -0.1366  0.3159 -0.2504
 3857TIP3    H111577   2.897   1.152   0.242  1.8606  1.1900 -0.0381
 3857TIP3    H211578   2.835   1.227   0.126 -1.4734 -0.7777  0.3421
 3858TIP3   OH211579   5.934   1.707   3.721  0.2420  0.2817  0.3577
 3858TIP3    H111580   5.987   1.664   3.654 -0.4793  0.3066 -0.2422
 3858TIP3    H211581   5.985   1.784   3.746 -0.9140  2.2512 -2.6592
 3859TIP3   OH211582   1.735   0.291   4.409  0.3875 -0.3928  0.7881
 3859TIP3    H111583   1.747   0.196   4.417 -1.0470 -0.5151  1.8663
 3859TIP3    H211584   1.649   0.308   4.448  0.0837  1.2065 -0.4483
 3860TIP3   OH211585   1.176   3.879   3.762  0.5446  0.4896 -0.0340
 3860TIP3    H111586   1.155   3.972   3.773  0.4848  0.6377 -1.2952
 3860TIP3    H211587   1.093   3.833   3.778  0.7466  0.5647  1.3908
 3861TIP3   OH211588   0.679   0.282   0.407  0.0887  0.7400  0.2926
 3861TIP3    H111589   0.718   0.252   0.490  1.4805  0.1154 -0.5542
 3861TIP3    H211590   0.747   0.267   0.342 -1.4251  0.0231 -1.1896
 3862TIP3   OH211591   1.640   0.528   1.022  0.7478  0.3999  0.2077
 3862TIP3    H111592   1.582   0.464   0.982  2.1544 -1.3569  0.8513
 3862TIP3    H211593   1.718   0.528   0.967  0.8385  1.4665  0.3089
 3863TIP3   OH211594   0.495   3.766   1.427 -0.7827  0.0763 -0.2650
 3863TIP3    H111595   0.550   3.693   1.456 -1.2569 -0.2794 -0.2379
 3863TIP3    H211596   0.419   3.762   1.484 -1.9764 -0.9385 -1.8193
 3864TIP3   OH211597   5.243   3.166   3.687  0.0406 -0.3463  0.2369
 3864TIP3    H111598   5.270   3.226   3.757  1.8820 -0.9917  0.1460
 3864TIP3    H211599   5.148   3.168   3.689  0.0215 -0.5874  2.9760
 3865TIP3   OH211600   1.452   2.830   5.194  0.0496  0.1880  0.3129
 3865TIP3    H111601   1.372   2.852   5.147  0.1722 -0.0962 -0.0314
 3865TIP3    H211602   1.516   2.896   5.167 -0.4677  1.3163  1.7171
 3866TIP3   OH211603   6.167   0.805   0.306  0.1444  0.1165  0.3991
 3866TIP3    H111604   6.155   0.714   0.333 -0.7660 -0.0951 -0.6395
 3866TIP3    H211605   6.241   0.837   0.359 -1.0451 -0.4834  2.5355
 3867TIP3   OH211606   5.834   4.510   3.850  0.3368 -0.6140  0.1791
 3867TIP3    H111607   5.907   4.473   3.900  0.8305 -0.3985 -0.3594
 3867TIP3    H211608   5.794   4.574   3.909  0.7873 -0.5056  0.3760
 3868TIP3   OH211609   6.253   2.148   5.133 -0.0993  0.1319 -0.0578
 3868TIP3    H111610   6.258   2.239   5.104  0.8309  0.3141  0.6427
 3868TIP3    H211611   6.339   2.129   5.169 -0.5469 -0.7592  0.5889
 3869TIP3   OH211612   2.356   2.839   0.989  0.5031  0.3341 -0.3460
 3869TIP3    H111613   2.270   2.856   0.948  1.2117  2.8067 -0.9752
 3869TIP3    H211614   2.337   2.776   1.059 -1.8466  0.9137 -0.3707
 3870TIP3   OH211615   3.423   2.139   0.258 -0.2948  0.3623 -0.0669
 3870TIP3    H111616   3.393   2.221   0.219  1.0580 -0.1022 -2.2940
 3870TIP3    H211617   3.501   2.116   0.207 -0.1344 -1.8626  1.0674
 3871TIP3   OH211618   5.568   1.166   0.908 -0.0388  0.6692  0.4829
 3871TIP3    H111619   5.503   1.112   0.863  0.5715  0.3328 -0.0117
 3871TIP3    H211620   5.581   1.121   0.992 -0.2851  0.6199  0.4971
 3872TIP3   OH211621   2.876   2.101   4.489  0.4013  0.4944 -0.3454
 3872TIP3    H111622   2.874   2.005   4.489 -0.7866  0.4893  1.3457
 3872TIP3    H211623   2.890   2.124   4.397 -0.0851 -1.2794 -0.9090
 3873TIP3   OH211624   2.462   1.033   4.518 -0.1099  0.6355  0.0804
 3873TIP3    H111625   2.544   1.036   4.469 -0.3661  0.8565 -0.3401
 3873TIP3    H211626   2.488   1.015   4.608  0.2604 -1.4322 -0.3984
 3874TIP3   OH211627   3.494   0.057   4.149  0.0884  0.2388  0.1691
 3874TIP3    H111628   3.496   0.099   4.235 -0.2786  0.5349  0.0384
 3874TIP3    H211629   3.496  -0.037   4.168  0.8025  0.3061  0.4675
 3875TIP3   OH211630   4.689   1.355   0.080 -0.5928  0.2743 -0.0372
 3875TIP3    H111631   4.615   1.412   0.101 -1.0852 -0.2144 -0.3745
 3875TIP3    H211632   4.683   1.284   0.144  0.3577  0.8760  0.7472
 3876TIP3   OH211633   2.612   3.701   0.561  0.3443 -0.8465  0.9241
 3876TIP3    H111634   2.707   3.694   0.569  0.9228  3.6196  0.3421
 3876TIP3    H211635   2.591   3.653   0.481  2.3128 -0.6874  0.2683
 3877TIP3   OH211636   5.497   2.913   0.365  0.1255 -0.1838  0.8263
 3877TIP3    H111637   5.560   2.964   0.416 -0.7616  0.6611  1.0944
 3877TIP3    H211638   5.511   2.822   0.394  2.4055 -0.2823 -0.3903
 3878TIP3   OH211639   0.284   4.165   3.869 -0.3806  0.3193  0.1878
 3878TIP3    H111640   0.316   4.135   3.783 -1.2644 -0.6491  0.1748
 3878TIP3    H211641   0.193   4.188   3.854 -0.6898 -0.3615  0.9763
 3879TIP3   OH211642   3.731   4.925   4.390 -0.9536  0.0502  0.4094
 3879TIP3    H111643   3.817   4.967   4.394 -0.8896 -0.1383  1.0788
 3879TIP3    H211644   3.747   4.840   4.350 -1.3582  1.3349 -2.7730
 3880TIP3   OH211645   4.025   5.790   0.237 -0.4511  0.0292 -0.0906
 3880TIP3    H111646   3.959   5.859   0.237 -0.4513  0.0338 -0.4995
 3880TIP3    H211647   4.108   5.836   0.219 -0.0241  0.2859  2.2165
 3881TIP3   OH211648   3.255   5.852   0.128 -0.6636  0.2322 -0.3573
 3881TIP3    H111649   3.268   5.817   0.216 -0.7359 -0.0924 -0.4759
 3881TIP3    H211650   3.179   5.910   0.136 -1.5156 -0.8353 -0.4910
 3882TIP3   OH211651   3.378   4.359   0.767 -0.8932 -0.3057 -0.3205
 3882TIP3    H111652   3.397   4.308   0.689 -0.0636  0.6762 -0.7901
 3882TIP3    H211653   3.368   4.449   0.735  1.8567  0.5575  0.9253
 3883TIP3   OH211654   6.159   0.080   1.967 -0.5119 -0.3655  0.2114
 3883TIP3    H111655   6.111   0.153   2.006 -0.5428  0.0683 -0.6154
 3883TIP3    H211656   6.241   0.118   1.937  0.2023 -1.0249  1.2564
 3884TIP3   OH211657   5.451   5.739   1.966  1.0159  0.0081 -0.6778
 3884TIP3    H111658   5.368   5.698   1.946  0.4000  1.3765 -1.0680
 3884TIP3    H211659   5.433   5.793   2.044  1.6361  0.0160 -0.5316
 3885TIP3   OH211660   5.269   2.519   1.005  0.8169  0.0050  0.3840
 3885TIP3    H111661   5.196   2.523   1.066  1.8426  0.5596  1.6137
 3885TIP3    H211662   5.344   2.552   1.054  1.9189 -0.5870 -0.8268
 3886TIP3   OH211663   4.880   4.462   2.073  0.5549  0.2476  0.3965
 3886TIP3    H111664   4.869   4.439   2.166  1.0483  1.9289  0.9102
 3886TIP3    H211665   4.807   4.521   2.054  2.5175  3.0316  0.8760
 3887TIP3   OH211666   1.418   3.768   4.354 -0.5419  0.4663 -0.4714
 3887TIP3    H111667   1.388   3.690   4.399 -0.8381  1.1750  0.5925
 3887TIP3    H211668   1.472   3.735   4.282  1.4331 -0.7058  1.4300
 3888TIP3   OH211669   5.130   4.285   3.224  0.3560 -0.2477  0.0050
 3888TIP3    H111670   5.087   4.370   3.238  2.2281  0.6641  0.5963
 3888TIP3    H211671   5.061   4.221   3.237 -0.5790  1.0692  2.2211
 3889TIP3   OH211672   6.237   4.314   1.344  0.1798  0.3817 -0.3060
 3889TIP3    H111673   6.302   4.278   1.404  0.1014  1.9488  0.7875
 3889TIP3    H211674   6.158   4.263   1.361  0.2022  0.6925  0.8649
 3890TIP3   OH211675   0.062   5.981   1.323 -0.3803 -0.2376  0.4841
 3890TIP3    H111676   0.110   5.898   1.333 -1.4004 -0.8495  0.5020
 3890TIP3    H211677   0.015   5.971   1.240  1.3980  1.3551 -0.8103
 3891TIP3   OH211678   0.290   1.224   0.971  0.1070  0.6251  0.0605
 3891TIP3    H111679   0.347   1.300   0.983 -0.5228  0.9317  1.2634
 3891TIP3    H211680   0.208   1.260   0.937  0.5656  0.1898 -1.6267
 3892TIP3   OH211681   4.207   5.653   3.901  0.4704  0.5958 -0.1033
 3892TIP3    H111682   4.118   5.665   3.934  0.3641  0.7267 -0.4300
 3892TIP3    H211683   4.204   5.688   3.812  0.5265 -0.5614 -0.5801
 3893TIP3   OH211684   4.547   0.212   4.724 -0.4226  0.2540 -0.3262
 3893TIP3    H111685   4.526   0.132   4.773 -0.7092  0.8832  0.6082
 3893TIP3    H211686   4.630   0.242   4.762 -1.4182  1.5886  0.8905
 3894TIP3   OH211687   2.405   5.614   5.118 -0.0296 -0.4294  0.1114
 3894TIP3    H111688   2.435   5.608   5.208 -2.0647 -0.1144  0.8599
 3894TIP3    H211689   2.450   5.690   5.082 -0.7629  0.7061  1.5310
 3895TIP3   OH211690   1.719   1.308   2.545  0.5029  0.1285 -0.0160
 3895TIP3    H111691   1.753   1.327   2.457 -2.2250 -1.6516 -1.6091
 3895TIP3    H211692   1.739   1.216   2.559 -0.6117 -0.0463  0.4842
 3896TIP3   OH211693   3.959   4.357   4.946 -0.0576 -0.1559 -0.0426
 3896TIP3    H111694   4.033   4.296   4.945  0.0589 -0.1276  1.8172
 3896TIP3    H211695   3.902   4.325   5.016 -1.6759  0.0073 -1.2199
 3897TIP3   OH211696   2.899   2.806   1.739  0.0524 -0.0148  0.2425
 3897TIP3    H111697   2.899   2.775   1.830  0.3116  0.9404  0.5768
 3897TIP3    H211698   2.820   2.768   1.701 -1.0715  1.0611  1.3950
 3898TIP3   OH211699   4.616   2.686   0.147 -0.6315 -0.3779  0.1621
 3898TIP3    H111700   4.638   2.596   0.171  1.7849  0.0195 -0.2200
 3898TIP3    H211701   4.546   2.678   0.083 -1.4902 -1.8844  1.2417
 3899TIP3   OH211702   3.999   4.786   1.875  0.0568  0.0547  0.3199
 3899TIP3    H111703   4.080   4.779   1.824  0.5627  0.6024  1.0275
 3899TIP3    H211704   3.993   4.878   1.899 -2.0349  0.5579 -1.6996
 3900TIP3   OH211705   4.304   3.884   1.137 -0.0420 -0.4335  0.2966
 3900TIP3    H111706   4.229   3.915   1.085 -1.8380 -1.6186  2.0207
 3900TIP3    H211707   4.369   3.859   1.072 -1.5168 -0.2959 -1.3270
 3901TIP3   OH211708   2.522   3.724   2.134  0.8123  0.0310  0.1318
 3901TIP3    H111709   2.617   3.731   2.131  0.8268  1.0701  1.8460
 3901TIP3    H211710   2.504   3.660   2.203  0.2465  0.3758  0.3131
 3902TIP3   OH211711   0.227   2.185   1.730 -0.2995  0.4922  0.3753
 3902TIP3    H111712   0.317   2.201   1.761  0.1738 -1.2753  0.0151
 3902TIP3    H211713   0.196   2.272   1.703  1.6183  1.0209 -0.3309
 3903TIP3   OH211714   5.515   5.402   3.308  0.6253  0.2874 -0.1046
 3903TIP3    H111715   5.423   5.429   3.311  0.6507  0.4520 -0.5996
 3903TIP3    H211716   5.521   5.346   3.231  0.8309 -0.1616  0.2361
 3904TIP3   OH211717   0.881   4.103   1.970 -0.4772  0.3447 -0.2636
 3904TIP3    H111718   0.907   4.168   1.905  0.1663 -0.6167 -0.9977
 3904TIP3    H211719   0.958   4.047   1.981 -1.2488 -0.7477 -0.2155
 3905TIP3   OH211720   1.569   4.059   3.948 -0.3241 -0.5059 -0.9645
 3905TIP3    H111721   1.581   4.071   4.043  1.1711  1.2864 -1.3089
 3905TIP3    H211722   1.592   3.967   3.932 -0.3790 -0.7704  0.3635
 3906TIP3   OH211723   2.286   5.320   3.622 -0.8191 -0.4879 -0.1527
 3906TIP3    H111724   2.233   5.399   3.625 -1.2430 -0.7535 -0.5661
 3906TIP3    H211725   2.320   5.311   3.711 -1.1582 -0.1094  0.0206
 3907TIP3   OH211726   0.904   0.312   1.691 -0.3774 -0.7556  0.2664
 3907TIP3    H111727   0.901   0.319   1.595  0.2648 -2.0769  0.1393
 3907TIP3    H211728   0.815   0.336   1.719 -0.7257 -0.8832 -0.6911
 3908TIP3   OH211729   1.593   1.964   0.552  0.5441 -0.1171  0.1336
 3908TIP3    H111730   1.555   1.916   0.479  0.8542 -0.3336  0.1108
 3908TIP3    H211731   1.530   1.953   0.623 -0.4526  1.3013 -0.5080
 3909TIP3   OH211732   2.573   5.053   1.686 -0.0213  0.5151  0.2370
 3909TIP3    H111733   2.522   5.086   1.760 -0.3151  1.5326 -0.3946
 3909TIP3    H211734   2.621   4.978   1.721 -0.3777  0.8012  1.3767
 3910TIP3   OH211735   3.786   4.614   4.525  0.0764  0.5344 -0.1809
 3910TIP3    H111736   3.690   4.615   4.526  0.0499  2.1407  1.7416
 3910TIP3    H211737   3.811   4.569   4.605  0.9565  0.2040 -0.6205
 3911TIP3   OH211738   3.404   4.979   3.474  0.0896 -0.2588 -0.5343
 3911TIP3    H111739   3.435   4.977   3.565  0.4409  0.6033 -0.6212
 3911TIP3    H211740   3.399   4.887   3.449  1.0784 -0.4807  0.0018
 3912TIP3   OH211741   6.271   4.277   4.484 -0.2109  0.2294 -0.4013
 3912TIP3    H111742   6.235   4.327   4.558  0.2114 -0.6677  0.4449
 3912TIP3    H211743   6.310   4.342   4.427  0.1463  0.8922  0.5677
 3913TIP3   OH211744   0.759   5.407   4.758  0.2972 -0.4190  0.4333
 3913TIP3    H111745   0.712   5.462   4.696  0.5919 -2.2145 -1.4782
 3913TIP3    H211746   0.837   5.457   4.780 -1.2081  1.5172  1.7287
 3914TIP3   OH211747   4.235   4.861   2.713 -0.8002  0.0509 -0.1543
 3914TIP3    H111748   4.288   4.835   2.788 -0.1419 -0.9275 -0.9382
 3914TIP3    H211749   4.196   4.780   2.681 -0.7285  0.3803 -1.1186
 3915TIP3   OH211750   3.570   3.857   1.832 -0.3177  0.5897  0.1059
 3915TIP3    H111751   3.563   3.812   1.748  0.4626 -0.8596  0.7814
 3915TIP3    H211752   3.552   3.789   1.897  2.4930  0.7727  1.2255
 3916TIP3   OH211753   4.667   0.155   2.821 -0.1404 -0.1446 -0.1033
 3916TIP3    H111754   4.754   0.178   2.853  0.2715  1.3264 -2.0657
 3916TIP3    H211755   4.663   0.060   2.827  2.3579 -0.4374 -1.6815
 3917TIP3   OH211756   3.584   1.941   0.716  0.3126 -0.2113 -0.2559
 3917TIP3    H111757   3.534   2.011   0.674  0.7454  0.8950  1.0056
 3917TIP3    H211758   3.522   1.901   0.777 -0.2409 -1.6504 -1.6909
 3918TIP3   OH211759   3.397   1.557   3.635  0.1003  0.6511  0.1658
 3918TIP3    H111760   3.432   1.500   3.567 -1.9223 -1.2849  0.6380
 3918TIP3    H211761   3.434   1.643   3.615  2.4691 -0.5669 -1.1824
 3919TIP3   OH211762   2.624   4.964   3.640  0.1056 -0.2642 -0.1902
 3919TIP3    H111763   2.662   5.003   3.718 -1.9351  0.1490  0.6607
 3919TIP3    H211764   2.596   4.876   3.667  1.6299 -1.1051 -1.1819
 3920TIP3   OH211765   4.836   1.693   3.148 -0.0855 -0.6990  0.2724
 3920TIP3    H111766   4.829   1.598   3.158 -0.6536 -0.5781  1.0191
 3920TIP3    H211767   4.813   1.708   3.056  1.5974 -1.4307 -0.3279
 3921TIP3   OH211768   0.465   0.831   2.003  0.6796 -0.3193 -0.2283
 3921TIP3    H111769   0.460   0.831   1.907  0.1127 -1.1099 -0.2084
 3921TIP3    H211770   0.532   0.765   2.023  1.7244  0.7437 -0.1010
 3922TIP3   OH211771   1.582   1.871   3.878 -0.2312 -0.8286  0.1391
 3922TIP3    H111772   1.589   1.796   3.936  0.5204  0.2005  1.4132
 3922TIP3    H211773   1.582   1.833   3.790  0.3722 -2.2877  0.7415
 3923TIP3   OH211774   6.309   5.121   3.814  0.9033  0.0239 -0.2586
 3923TIP3    H111775   6.238   5.060   3.795 -1.1276  2.7583 -2.2859
 3923TIP3    H211776   6.273   5.179   3.882  1.5621  0.8607 -0.6095
 3924TIP3   OH211777   0.468   5.658   0.634 -0.3248 -0.0596 -0.5025
 3924TIP3    H111778   0.435   5.729   0.689  1.7799  1.4269 -1.0167
 3924TIP3    H211779   0.436   5.679   0.546 -0.2982 -0.1310 -0.5292
 3925TIP3   OH211780   2.439   2.527   4.199  0.4378  0.2748 -0.1928
 3925TIP3    H111781   2.417   2.509   4.290  0.9727 -0.8688 -0.2755
 3925TIP3    H211782   2.534   2.518   4.195  0.4907  1.0180 -0.7157
 3926TIP3   OH211783   3.234   3.894   3.365  0.3536 -0.0553  0.5910
 3926TIP3    H111784   3.286   3.823   3.402  0.3136  0.1037  0.9497
 3926TIP3    H211785   3.149   3.888   3.410  0.2134 -0.0284  0.3355
 3927TIP3   OH211786   5.816   1.346   5.013  0.7961 -0.1332 -0.1443
 3927TIP3    H111787   5.810   1.439   4.990  2.3058  0.4776  1.7285
 3927TIP3    H211788   5.897   1.339   5.063  1.4606 -2.7476 -1.4125
 3928TIP3   OH211789   5.309   1.796   3.447 -0.5199  0.3518  0.1841
 3928TIP3    H111790   5.288   1.890   3.453 -1.7832  0.0593  0.8015
 3928TIP3    H211791   5.245   1.754   3.505 -0.7026 -0.9974 -0.9508
 3929TIP3   OH211792   4.804   1.735   1.693  0.3798 -0.1592  0.3418
 3929TIP3    H111793   4.832   1.799   1.759 -0.0656  0.8318 -0.4008
 3929TIP3    H211794   4.871   1.666   1.697  0.3774 -0.0983  1.7810
 3930TIP3   OH211795   0.420   5.119   2.696  0.2421 -0.1330  0.4445
 3930TIP3    H111796   0.374   5.180   2.754 -0.9464 -1.6893  1.2101
 3930TIP3    H211797   0.470   5.062   2.756 -0.4634 -1.3328 -0.0741
 3931TIP3   OH211798   5.846   2.392   4.020 -0.0832  0.0776  1.2043
 3931TIP3    H111799   5.818   2.481   4.000 -0.1170 -0.1807  0.0152
 3931TIP3    H211800   5.870   2.355   3.935 -1.3705 -1.4994  1.4913
 3932TIP3   OH211801   0.133   1.433   3.825 -0.5377  0.1763  0.3715
 3932TIP3    H111802   0.152   1.484   3.746 -2.2026 -1.5187 -1.2369
 3932TIP3    H211803   0.219   1.403   3.855  0.0349 -2.2426 -3.0534
 3933TIP3   OH211804   1.015   5.563   4.361 -0.0925  0.6514  0.1033
 3933TIP3    H111805   0.958   5.489   4.382  0.2482  0.6723  1.1327
 3933TIP3    H211806   1.078   5.527   4.299 -0.5893  0.3645 -0.2464
 3934TIP3   OH211807   0.118   3.232   4.462  0.0231 -0.1275  0.6839
 3934TIP3    H111808   0.166   3.238   4.379 -0.9395 -0.9766  0.0372
 3934TIP3    H211809   0.063   3.311   4.463  0.6790  0.3306  0.9406
 3935TIP3   OH211810   0.191   2.703   2.028  0.1680 -0.1848 -0.1046
 3935TIP3    H111811   0.134   2.701   1.952  1.0135 -0.2147 -0.7485
 3935TIP3    H211812   0.133   2.681   2.102 -0.5220 -0.8155 -0.8117
 3936TIP3   OH211813   0.712   1.741   0.271 -0.1213 -0.7586 -0.5018
 3936TIP3    H111814   0.751   1.684   0.205 -0.0299 -1.1262 -0.1397
 3936TIP3    H211815   0.689   1.821   0.224  1.3211 -0.4155 -0.6887
 3937TIP3   OH211816   6.071   5.641   4.918  0.4169  0.3565 -0.0524
 3937TIP3    H111817   6.026   5.662   5.000 -0.7959  1.6715 -1.0153
 3937TIP3    H211818   6.163   5.660   4.935  0.3599 -0.4557  1.3300
 3938TIP3   OH211819   5.282   1.234   3.731  0.4532 -0.5953  0.1059
 3938TIP3    H111820   5.204   1.225   3.786  0.6623 -0.1430  0.4814
 3938TIP3    H211821   5.339   1.293   3.779  0.7609 -0.4117 -0.4685
 3939TIP3   OH211822   5.603   5.155   4.576  0.0111 -0.6220 -0.7219
 3939TIP3    H111823   5.584   5.117   4.661  3.6064 -0.4628  0.3238
 3939TIP3    H211824   5.557   5.239   4.575 -0.2796 -0.7420  0.9974
 3940TIP3   OH211825   0.209   1.855   4.611  0.0336 -0.3393 -0.6332
 3940TIP3    H111826   0.252   1.777   4.576 -0.2807 -0.2012 -1.3347
 3940TIP3    H211827   0.203   1.838   4.705  3.3337  0.4417 -0.1708
 3941TIP3   OH211828   1.280   4.308   5.140  0.6799 -0.1375  0.0008
 3941TIP3    H111829   1.333   4.302   5.219 -0.0009 -2.2735  0.3856
 3941TIP3    H211830   1.192   4.280   5.168 -0.0222  0.8331 -1.1308
 3942TIP3   OH211831   0.195   0.874   1.705 -0.3013  0.2845 -0.0277
 3942TIP3    H111832   0.189   0.891   1.799  1.6982 -2.8268  0.8107
 3942TIP3    H211833   0.275   0.919   1.677  0.7207 -1.1631  0.4684
 3943TIP3   OH211834   0.527   2.092   5.081  0.2211  0.2037  0.3290
 3943TIP3    H111835   0.539   2.136   5.166  0.0546  0.3882  0.2601
 3943TIP3    H211836   0.520   2.164   5.018 -1.0720  0.1253  0.3459
 3944TIP3   OH211837   1.249   5.782   0.846  0.7999 -0.1992  0.3771
 3944TIP3    H111838   1.205   5.808   0.765  2.9531  2.2331 -0.1410
 3944TIP3    H211839   1.215   5.695   0.864 -1.9469  0.3238 -1.5189
 3945TIP3   OH211840   1.984   2.415   3.990 -0.5181 -0.0741 -0.1068
 3945TIP3    H111841   1.976   2.483   4.057 -0.7160 -0.5777  0.3855
 3945TIP3    H211842   2.070   2.376   4.006 -1.5459 -1.8592  1.4691
 3946TIP3   OH211843   5.866   2.542   3.076  0.3059  0.1781 -0.1409
 3946TIP3    H111844   5.777   2.515   3.096  0.0845  0.1764 -1.0981
 3946TIP3    H211845   5.917   2.514   3.152 -0.3463 -0.6554  0.0041
 3947TIP3   OH211846   1.223   2.482   1.041  0.4461  0.2043 -0.3461
 3947TIP3    H111847   1.220   2.402   1.093  0.2299 -0.1624 -0.9148
 3947TIP3    H211848   1.200   2.552   1.103 -0.7037 -0.3298 -0.1452
 3948TIP3   OH211849   4.023   2.150   1.058  0.4245 -0.6672 -0.3033
 3948TIP3    H111850   4.014   2.056   1.070 -1.0207 -0.4813  0.2532
 3948TIP3    H211851   3.933   2.184   1.062  0.5203  0.3794 -3.7767
 3949TIP3   OH211852   1.725   1.031   1.648 -0.7910  0.1457 -0.4791
 3949TIP3    H111853   1.669   1.077   1.585 -1.4106  1.3571  0.8882
 3949TIP3    H211854   1.762   1.101   1.702  1.8347 -0.6448 -1.1131
 3950TIP3   OH211855   5.081   2.976   3.520  0.0242  0.6906  0.0632
 3950TIP3    H111856   5.159   3.032   3.525 -1.0373  2.1669  0.7170
 3950TIP3    H211857   5.098   2.906   3.583  0.6495  1.2152  0.4901
 3951TIP3   OH211858   5.839   5.654   1.732  0.4864 -0.1449  0.5685
 3951TIP3    H111859   5.826   5.691   1.820  1.5800 -0.3480  0.8342
 3951TIP3    H211860   5.924   5.690   1.704  0.6608 -0.9466  0.0457
 3952TIP3   OH211861   1.703   0.361   2.777 -0.3976  0.2050  0.4807
 3952TIP3    H111862   1.679   0.447   2.811 -0.3995  0.0576  0.8552
 3952TIP3    H211863   1.730   0.311   2.854 -0.9718 -0.3210  0.3488
 3953TIP3   OH211864   3.866   2.477   4.709  0.1544 -0.1717 -0.3100
 3953TIP3    H111865   3.796   2.418   4.682  1.1163 -2.4660  1.8302
 3953TIP3    H211866   3.852   2.489   4.803  0.6314  2.2178 -0.4911
 3954TIP3   OH211867   2.395   3.680   3.538 -0.0687  0.7488 -0.1790
 3954TIP3    H111868   2.306   3.658   3.511  0.7060 -2.5096 -0.4302
 3954TIP3    H211869   2.424   3.745   3.474 -1.0029 -0.9416 -2.4690
 3955TIP3   OH211870   2.331   0.182   2.170 -0.3139  0.1329 -0.1491
 3955TIP3    H111871   2.339   0.173   2.265  1.9116 -1.9387 -0.4035
 3955TIP3    H211872   2.256   0.127   2.147  0.4884 -1.2155  0.2878
 3956TIP3   OH211873   0.214   0.079   3.549  0.0046  0.4108 -0.2592
 3956TIP3    H111874   0.209   0.005   3.610 -1.6039 -1.3872 -2.4024
 3956TIP3    H211875   0.292   0.062   3.497  1.7836  2.3169  1.5842
 3957TIP3   OH211876   1.210   3.847   1.688 -0.1961 -0.0557  0.7531
 3957TIP3    H111877   1.133   3.901   1.667 -0.1707 -1.2096 -3.1400
 3957TIP3    H211878   1.219   3.788   1.613  3.6339 -1.0349  1.7543
 3958TIP3   OH211879   5.630   4.940   2.113 -0.0007  0.2060  0.5587
 3958TIP3    H111880   5.592   4.866   2.161 -1.3948  0.6917  0.2476
 3958TIP3    H211881   5.724   4.922   2.112 -0.3458 -1.8631 -0.0035
 3959TIP3   OH211882   0.683   0.137   1.501 -0.2235 -0.1526 -0.1052
 3959TIP3    H111883   0.660   0.123   1.593  0.5439  0.6202  0.2122
 3959TIP3    H211884   0.729   0.057   1.476  1.8139  0.6360  0.9400
 3960TIP3   OH211885   6.007   0.542   1.294  0.1475 -0.1230  0.0039
 3960TIP3    H111886   6.099   0.564   1.276 -0.1717  0.4541 -1.0498
 3960TIP3    H211887   5.998   0.553   1.389  1.0113  0.4468  0.0363
 3961TIP3   OH211888   5.751   0.008   3.356  0.6234 -0.3917 -0.0794
 3961TIP3    H111889   5.789   0.074   3.298  0.1047  0.1178  0.1527
 3961TIP3    H211890   5.656   0.018   3.346  0.5372 -0.9340  0.1462
 3962TIP3   OH211891   4.277   4.220   0.197 -0.6831 -0.4898 -0.2159
 3962TIP3    H111892   4.313   4.139   0.162  2.5786  1.7921 -2.7749
 3962TIP3    H211893   4.224   4.256   0.126 -1.7434 -0.1267  0.7258
 3963TIP3   OH211894   4.292   4.204   2.082  0.4873  0.1701 -0.1084
 3963TIP3    H111895   4.268   4.112   2.070  1.6219 -0.1751  0.1761
 3963TIP3    H211896   4.349   4.224   2.008 -0.1908  0.8103 -0.4657
 3964TIP3   OH211897   4.320   1.523   3.040  0.1357 -0.2663 -0.0855
 3964TIP3    H111898   4.363   1.608   3.032  0.2457 -0.0801  1.9428
 3964TIP3    H211899   4.231   1.544   3.068  0.2745 -0.8012  0.8015
 3965TIP3   OH211900   3.910   0.372   2.689  0.2328  0.5660 -0.6781
 3965TIP3    H111901   3.853   0.313   2.737 -0.3664  0.7274 -1.1658
 3965TIP3    H211902   3.996   0.333   2.694  0.0051  0.1146 -0.2487
 3966TIP3   OH211903   3.188   0.113   4.120  0.0777  0.0317  0.0623
 3966TIP3    H111904   3.175   0.059   4.042  0.6103 -1.2480  0.8247
 3966TIP3    H211905   3.242   0.059   4.178  1.7164  1.8885  0.3642
 3967TIP3   OH211906   5.474   2.803   0.074  0.2571 -0.6845 -0.3288
 3967TIP3    H111907   5.427   2.750   0.138 -0.4946  0.4894  0.1230
 3967TIP3    H211908   5.564   2.772   0.078  0.4263 -0.0656  1.9419
 3968TIP3   OH211909   3.652   4.810   4.965  0.3976  0.7545  0.6350
 3968TIP3    H111910   3.704   4.850   4.895  0.1294  3.6053  1.9019
 3968TIP3    H211911   3.626   4.725   4.930 -1.4613  2.7486 -3.6380
 3969TIP3   OH211912   3.913   1.336   1.626 -0.3049 -0.4468 -0.2038
 3969TIP3    H111913   3.955   1.249   1.629 -0.7733 -0.6517  0.6253
 3969TIP3    H211914   3.848   1.328   1.557  1.3405  0.0446 -1.9146
 3970TIP3   OH211915   5.889   5.673   2.682 -0.6415  0.1400  0.0598
 3970TIP3    H111916   5.852   5.652   2.767 -1.5564  1.7966  0.1234
 3970TIP3    H211917   5.828   5.737   2.645 -0.5263 -0.8881 -2.0514
 3971TIP3   OH211918   4.697   0.577   1.141  0.1435  0.3494 -0.2445
 3971TIP3    H111919   4.758   0.646   1.165  1.7761 -0.9181 -0.6203
 3971TIP3    H211920   4.698   0.576   1.045 -2.1961  1.7424 -0.3882
 3972TIP3   OH211921   6.250   1.660   1.157 -0.0663 -0.6736 -0.5632
 3972TIP3    H111922   6.192   1.723   1.116  1.6234  1.3067 -0.0914
 3972TIP3    H211923   6.232   1.577   1.112 -1.3154  0.4507 -2.2438
 3973TIP3   OH211924   4.798   4.689   3.429  0.6822  0.1831  0.3401
 3973TIP3    H111925   4.721   4.647   3.466  1.2646 -2.3110 -1.0879
 3973TIP3    H211926   4.785   4.685   3.335  1.9854  0.8865  0.1018
 3974TIP3   OH211927   2.925   5.041   0.047  0.0053 -0.2910  0.0902
 3974TIP3    H111928   2.863   5.012   0.114 -0.3809  1.0247  0.3190
 3974TIP3    H211929   2.950   5.130   0.073  1.2492 -0.4346 -0.5279
 3975TIP3   OH211930   4.875   5.051   1.988 -0.0043  0.6277  0.6187
 3975TIP3    H111931   4.912   4.998   1.918 -0.3410 -1.3395  1.8466
 3975TIP3    H211932   4.948   5.105   2.019  0.4074  0.7444 -0.4987
 3976TIP3   OH211933   3.285   0.453   2.429 -0.7079 -0.3398  0.3531
 3976TIP3    H111934   3.309   0.491   2.344 -0.4640 -0.2379  0.4662
 3976TIP3    H211935   3.192   0.472   2.439 -0.8073 -0.6131 -0.0283
 3977TIP3   OH211936   6.233   2.447   1.294  0.1634 -0.4383  0.1897
 3977TIP3    H111937   6.166   2.409   1.237 -1.0938  2.4341 -0.4399
 3977TIP3    H211938   6.316   2.418   1.256 -0.6656  0.2341 -2.3513
 3978TIP3   OH211939   1.455   4.795   3.294  0.2528  0.5333 -0.0369
 3978TIP3    H111940   1.439   4.887   3.271  1.2945  0.1701 -2.5329
 3978TIP3    H211941   1.496   4.758   3.216  0.3864 -1.9333  1.1244
 3979TIP3   OH211942   0.140   4.206   1.495  0.8943  0.0583 -0.1164
 3979TIP3    H111943   0.234   4.213   1.514  0.5537 -0.5060  2.1648
 3979TIP3    H211944   0.099   4.196   1.582 -1.1899 -0.6392 -1.1062
 3980TIP3   OH211945   2.628   1.296   2.058 -0.0915  0.0217  0.1222
 3980TIP3    H111946   2.672   1.366   2.011 -0.0970  1.6575  2.3796
 3980TIP3    H211947   2.696   1.230   2.072  0.1166 -0.0957 -1.3573
 3981TIP3   OH211948   0.343   2.379   2.504 -0.3312 -0.4512 -0.3594
 3981TIP3    H111949   0.306   2.333   2.579 -1.6346 -0.9171 -1.2617
 3981TIP3    H211950   0.364   2.466   2.538  0.0095 -0.9475  0.7767
 3982TIP3   OH211951   5.099   0.989   2.391 -0.9241  0.3390 -0.3005
 3982TIP3    H111952   5.156   1.031   2.455 -3.1564  2.7372  0.3178
 3982TIP3    H211953   5.057   0.917   2.438  0.6401 -0.6718 -0.4128
 3983TIP3   OH211954   4.329   4.244   1.008  0.5667 -0.4632 -0.5502
 3983TIP3    H111955   4.262   4.176   1.020  0.8551 -0.5897  0.4288
 3983TIP3    H211956   4.361   4.261   1.096 -0.2332  1.7147 -0.6315
 3984TIP3   OH211957   0.514   2.009   2.658  0.1064  0.9110  0.3537
 3984TIP3    H111958   0.523   1.937   2.596  0.1896  0.7668  0.5317
 3984TIP3    H211959   0.437   2.058   2.628 -1.0766 -0.3143  1.2977
 3985TIP3   OH211960   5.353   3.498   0.946 -0.2362 -0.0629  0.1566
 3985TIP3    H111961   5.351   3.432   1.015 -0.7041  0.4732  0.6684
 3985TIP3    H211962   5.264   3.535   0.946  0.2266  1.0942  0.4077
 3986TIP3   OH211963   4.831   1.682   2.308  0.7323  0.3072 -0.6457
 3986TIP3    H111964   4.910   1.731   2.330  0.5860  0.9398 -1.4784
 3986TIP3    H211965   4.834   1.606   2.366  1.6227  0.6411 -0.2209
 3987TIP3   OH211966   2.141   1.240   1.971  0.1970  0.0006  0.2888
 3987TIP3    H111967   2.147   1.316   1.913  1.5797  0.0689  0.4809
 3987TIP3    H211968   2.204   1.258   2.040  1.1735 -1.6847 -0.1130
 3988TIP3   OH211969   3.468   4.232   4.941  0.5032 -0.1317 -0.1192
 3988TIP3    H111970   3.555   4.216   4.905  0.3819 -0.0682 -0.4437
 3988TIP3    H211971   3.474   4.205   5.033  0.6152 -0.9734 -0.3692
 3989TIP3   OH211972   4.419   1.508   0.405  0.1153  0.3600 -0.3705
 3989TIP3    H111973   4.437   1.577   0.341  2.2324 -1.3541 -1.7799
 3989TIP3    H211974   4.502   1.495   0.451 -0.7986  0.0915  1.3039
 3990TIP3   OH211975   3.019   4.079   4.741 -0.0146  0.1913 -0.4527
 3990TIP3    H111976   3.034   4.169   4.768  0.8443  0.4653 -1.7856
 3990TIP3    H211977   3.095   4.030   4.774 -0.4642 -0.0550  0.2441
 3991TIP3   OH211978   1.279   3.723   0.384 -0.6422  0.4007  0.0628
 3991TIP3    H111979   1.300   3.630   0.394 -0.0372  0.5308  0.0081
 3991TIP3    H211980   1.363   3.765   0.365 -0.8576  1.0034  0.4109
 3992TIP3   OH211981   4.122   0.413   1.495  0.1186 -0.4436  0.0114
 3992TIP3    H111982   4.093   0.322   1.491 -2.0183  0.2136 -1.1818
 3992TIP3    H211983   4.078   0.448   1.573 -0.4247 -0.0192 -0.4811
 3993TIP3   OH211984   6.217   2.068   1.948 -0.0201 -0.3508 -1.0460
 3993TIP3    H111985   6.201   2.036   2.037 -2.0710 -0.8967 -1.5653
 3993TIP3    H211986   6.311   2.058   1.936  0.2572 -0.5588  0.9480
 3994TIP3   OH211987   6.247   0.289   0.232  0.4234  0.4002 -0.7319
 3994TIP3    H111988   6.164   0.242   0.229  1.5345 -1.6265 -1.4441
 3994TIP3    H211989   6.296   0.247   0.303  1.0065  1.3419 -0.5516
 3995TIP3   OH211990   3.867   5.461   5.151 -0.0902  0.1429  0.0874
 3995TIP3    H111991   3.902   5.489   5.066 -1.9982  0.9618 -0.4746
 3995TIP3    H211992   3.795   5.403   5.129 -0.3007 -0.0317  1.1790
 3996TIP3   OH211993   4.073   3.679   4.428 -0.5137 -0.0726  0.2904
 3996TIP3    H111994   4.155   3.711   4.389 -1.1653  0.5654 -0.6203
 3996TIP3    H211995   4.032   3.628   4.358 -1.4235  0.5843  0.3251
 3997TIP3   OH211996   2.469   5.293   1.289  0.3246 -0.1763  0.4894
 3997TIP3    H111997   2.430   5.298   1.202  1.7057 -2.7823 -0.4044
 3997TIP3    H211998   2.552   5.341   1.281  0.2163  0.0140  0.5121
 3998TIP3   OH211999   1.699   1.292   0.398 -0.6251 -0.1167  0.7834
 3998TIP3    H112000   1.712   1.210   0.351 -1.3535  0.5308 -0.6061
 3998TIP3    H212001   1.619   1.329   0.361  1.0408  2.4646 -0.5434
 3999TIP3   OH212002   5.927   2.883   1.543 -0.3974 -0.3882  0.7997
 3999TIP3    H112003   5.858   2.875   1.478 -0.2949  1.5829  0.3941
 3999TIP3    H212004   6.001   2.919   1.496  0.3372 -0.7749  1.6160
 4000TIP3   OH212005   3.315   0.739   0.954 -0.2091  0.0358  0.7482
 4000TIP3    H112006   3.232   0.758   0.997 -0.2672 -1.8825  1.5944
 4000TIP3    H212007   3.348   0.824   0.926 -2.6170  0.8196  0.0707
 4001TIP3   OH212008   1.845   0.080   2.090 -0.0830 -0.5861 -0.1053
 4001TIP3    H112009   1.808   0.004   2.044 -0.4457  0.0355 -0.8515
 4001TIP3    H212010   1.939   0.069   2.082 -0.1395 -0.6516 -0.7373
 4002TIP3   OH212011   2.355   1.297   2.134 -0.2180  0.1402  0.0838
 4002TIP3    H112012   2.343   1.213   2.178 -0.3977  0.8444  1.4280
 4002TIP3    H212013   2.449   1.302   2.116 -0.1117 -0.0641  0.5844
 4003TIP3   OH212014   0.199   0.839   1.251 -0.1960 -0.1501  0.2031
 4003TIP3    H112015   0.242   0.924   1.254  0.9960 -0.6920 -0.7386
 4003TIP3    H212016   0.107   0.859   1.233  0.0889  0.9312 -0.1240
 4004TIP3   OH212017   3.577   4.276   0.337  0.5127 -0.0844 -0.3198
 4004TIP3    H112018   3.672   4.271   0.348  0.5203 -0.8859 -0.7155
 4004TIP3    H212019   3.560   4.226   0.258 -0.3253 -0.5838  0.1727
 4005TIP3   OH212020   2.154   3.105   5.111 -0.1266  0.4134  0.0844
 4005TIP3    H112021   2.170   3.044   5.183 -2.7760 -1.2745 -0.6023
 4005TIP3    H212022   2.188   3.189   5.143 -0.5976 -0.3842  3.0260
 4006TIP3   OH212023   2.507   0.473   4.009  0.5599  0.1256  0.0373
 4006TIP3    H112024   2.483   0.489   4.100 -2.6250 -1.8545 -0.2990
 4006TIP3    H212025   2.453   0.533   3.959 -0.1174 -1.0076 -0.6260
 4007TIP3   OH212026   2.521   4.954   4.051 -0.0506  0.3746  0.2863
 4007TIP3    H112027   2.431   4.927   4.035 -0.6441  1.9062  0.8422
 4007TIP3    H212028   2.554   4.893   4.117  0.0606 -1.5015 -1.3909
 4008TIP3   OH212029   5.484  -0.011   3.295  0.0650 -0.1312  0.1595
 4008TIP3    H112030   5.449  -0.013   3.384  0.9715 -0.0850  0.5328
 4008TIP3    H212031   5.457   0.073   3.260  1.0475  0.5522  0.9733
 4009TIP3   OH212032   2.026   3.223   3.570 -0.4338 -0.2524  0.3346
 4009TIP3    H112033   2.111   3.266   3.565 -0.6984  0.1279 -2.2358
 4009TIP3    H212034   1.970   3.274   3.510 -1.8234 -1.8727  0.1833
 4010TIP3   OH212035   1.511   3.437   3.081 -0.0790  0.3731 -0.1649
 4010TIP3    H112036   1.603   3.439   3.107 -0.8647 -0.5944  3.2696
 4010TIP3    H212037   1.501   3.358   3.029  1.0366  0.6484 -0.8310
 4011TIP3   OH212038   3.098   3.753   4.463 -0.3978  0.5133 -0.1799
 4011TIP3    H112039   3.089   3.727   4.372 -2.1050  0.8582 -0.1519
 4011TIP3    H212040   3.078   3.846   4.464  0.5535  0.7235  0.4186
 4012TIP3   OH212041   2.788  -0.025   1.049  0.2934 -0.4226  0.1107
 4012TIP3    H112042   2.824  -0.004   0.963  0.0627 -3.4916 -0.8643
 4012TIP3    H212043   2.760   0.059   1.085  1.4417  1.0914 -2.3102
 4013TIP3   OH212044   1.807   4.025   0.502 -1.0656 -0.2639 -0.3447
 4013TIP3    H112045   1.807   4.103   0.558 -1.1030  0.0789 -0.8194
 4013TIP3    H212046   1.740   4.043   0.436 -0.0577 -0.0527 -1.3447
 4014TIP3   OH212047   4.506   1.003   4.978  0.2549 -0.1528  0.0003
 4014TIP3    H112048   4.443   1.030   4.912  1.7612  1.2040 -0.9830
 4014TIP3    H212049   4.532   1.085   5.021  1.7859 -0.5693 -0.0759
 4015TIP3   OH212050   0.355   0.426   1.825  0.9182  0.5183  0.0877
 4015TIP3    H112051   0.322   0.369   1.756  0.1337 -0.8284  1.5161
 4015TIP3    H212052   0.277   0.464   1.865  1.4394  3.2454 -1.2811
 4016TIP3   OH212053   4.163   1.687   1.677 -0.5821  0.2505  0.6394
 4016TIP3    H112054   4.084   1.682   1.624  0.5694 -1.1620 -1.0746
 4016TIP3    H212055   4.150   1.624   1.747 -0.0414 -1.9228 -1.0966
 4017TIP3   OH212056   3.127   3.283   2.881  1.3142 -0.2643  0.1343
 4017TIP3    H112057   3.191   3.261   2.949  2.0403  2.5917  0.4998
 4017TIP3    H212058   3.141   3.376   2.864 -0.8345 -0.2147 -1.8654
 4018TIP3   OH212059   4.417   3.092   0.394  0.4410 -0.1898 -0.2908
 4018TIP3    H112060   4.434   2.998   0.393  0.4471 -0.2025  0.4042
 4018TIP3    H212061   4.423   3.116   0.486 -1.0800  0.2130 -0.2655
 4019TIP3   OH212062   5.559   1.049   2.648 -0.6957  0.3025  0.1374
 4019TIP3    H112063   5.643   1.093   2.642 -0.4014 -0.2966 -0.3869
 4019TIP3    H212064   5.551   1.023   2.740 -0.1361  0.0549  0.1238
 4020TIP3   OH212065   4.672   5.270   0.158 -0.1385 -0.0482 -0.4126
 4020TIP3    H112066   4.633   5.310   0.236  1.0360 -0.3816  0.3752
 4020TIP3    H212067   4.628   5.185   0.150  0.3308 -0.3819  0.4107
 4021TIP3   OH212068   1.028   2.919   2.675 -0.3605  0.6446  0.0805
 4021TIP3    H112069   1.019   2.967   2.593  0.5689  0.8425  0.0748
 4021TIP3    H212070   0.939   2.909   2.707 -0.8107 -0.0459 -1.2939
 4022TIP3   OH212071   3.090   3.144   3.707  0.9324 -0.5103  0.2737
 4022TIP3    H112072   3.000   3.126   3.734  0.5520  0.3865 -0.3493
 4022TIP3    H212073   3.140   3.145   3.788  0.1740  0.0933  0.7458
 4023TIP3   OH212074   4.990   5.852   1.436 -0.6532  0.1841 -0.9649
 4023TIP3    H112075   5.001   5.825   1.345  2.4142 -1.7951 -0.1540
 4023TIP3    H212076   5.054   5.800   1.485 -1.4205  1.9377  2.2142
 4024TIP3   OH212077   0.405   4.907   0.138  0.3488 -0.3105  0.0467
 4024TIP3    H112078   0.364   4.891   0.053  0.3319 -1.0234  0.1797
 4024TIP3    H212079   0.414   5.002   0.143 -0.8655 -0.1678 -0.1818
 4025TIP3   OH212080   0.454   3.237   2.685 -0.2367 -0.2023  0.0001
 4025TIP3    H112081   0.442   3.251   2.779  1.4071  1.0912  0.0698
 4025TIP3    H212082   0.427   3.319   2.645  0.6383 -0.1451 -0.4983
 4026TIP3   OH212083   1.582   2.215   0.249 -0.7044  0.3596  0.2141
 4026TIP3    H112084   1.634   2.208   0.328 -1.4839  0.4944  0.7488
 4026TIP3    H212085   1.497   2.176   0.272 -1.3321  1.4498 -0.1797
 4027TIP3   OH212086  -0.015   0.259   4.176 -0.3720  0.3878 -0.0222
 4027TIP3    H112087   0.042   0.190   4.208  0.6351  1.3037  0.2215
 4027TIP3    H212088   0.020   0.281   4.089 -0.8598  0.4008 -0.2201
 4028TIP3   OH212089   0.999   0.681   4.894 -0.1363 -0.3912 -0.6821
 4028TIP3    H112090   1.088   0.711   4.914 -0.3352 -0.0403 -0.3256
 4028TIP3    H212091   1.012   0.610   4.831  0.3840 -0.1696 -0.8303
 4029TIP3   OH212092   2.150   2.887   2.426 -0.4620  0.7765  0.2432
 4029TIP3    H112093   2.212   2.941   2.475 -1.7433  1.3638  1.2654
 4029TIP3    H212094   2.143   2.807   2.478  2.0527 -0.8593 -1.6731
 4030TIP3   OH212095   1.962   4.228   3.535  0.2709 -0.3808  0.0469
 4030TIP3    H112096   1.912   4.302   3.567  0.5687  0.3941 -1.2149
 4030TIP3    H212097   2.050   4.240   3.572  0.1559 -0.4456  0.3409
 4031TIP3   OH212098   0.256   0.992   2.340  0.0961  0.2828 -0.3106
 4031TIP3    H112099   0.285   0.995   2.431 -0.9397  1.0264  0.0150
 4031TIP3    H212100   0.307   1.060   2.296  0.0926  0.4022 -0.1301
 4032TIP3   OH212101   5.199   3.913   3.148 -0.4735  0.2709 -0.8220
 4032TIP3    H112102   5.175   3.822   3.131 -0.2848 -0.1261  0.8738
 4032TIP3    H212103   5.288   3.908   3.183 -0.5099  1.0987 -0.5985
 4033TIP3   OH212104   4.174   3.322   4.080  0.2011 -0.2926  0.1793
 4033TIP3    H112105   4.234   3.360   4.016  0.2507 -0.3018  0.2205
 4033TIP3    H212106   4.230   3.293   4.152  0.0548  0.6712  0.7102
 4034TIP3   OH212107   3.556   3.438   4.497 -0.1044 -0.1643  0.1471
 4034TIP3    H112108   3.467   3.455   4.465 -0.2180  1.1604  1.0923
 4034TIP3    H212109   3.608   3.511   4.462  0.7810 -1.2844 -0.9627
 4035TIP3   OH212110   4.733   0.357   0.895  0.0478  0.7133 -0.7186
 4035TIP3    H112111   4.815   0.308   0.905 -0.7478 -0.5886 -0.4336
 4035TIP3    H212112   4.762   0.447   0.880  1.5971 -0.0760 -3.0415
 4036TIP3   OH212113   2.219   4.927   3.328  0.6903 -0.3251  0.1263
 4036TIP3    H112114   2.300   4.877   3.319  0.3873 -0.9256  0.6396
 4036TIP3    H212115   2.247   5.018   3.336  1.2808 -0.4716 -0.2621
 4037TIP3   OH212116   1.738   4.126   2.366 -0.5933 -1.0391  0.1329
 4037TIP3    H112117   1.643   4.130   2.359 -0.4462 -0.4170 -2.8007
 4037TIP3    H212118   1.762   4.202   2.419 -1.7016 -0.8653  0.4014
 4038TIP3   OH212119   5.631   1.708   3.394 -0.5076  0.2989  0.6076
 4038TIP3    H112120   5.637   1.728   3.488 -0.2527 -0.4894  0.7638
 4038TIP3    H212121   5.538   1.689   3.379 -0.4466 -0.1985  0.8355
 4039TIP3   OH212122   5.857   2.652   3.481 -0.0130 -0.2020 -1.0278
 4039TIP3    H112123   5.831   2.712   3.412  0.1171 -0.8225 -1.6197
 4039TIP3    H212124   5.930   2.696   3.525 -0.1484  0.2244 -1.2293
 4040TIP3   OH212125   5.835   1.767   4.687  0.6607 -0.6745  0.2456
 4040TIP3    H112126   5.852   1.824   4.613 -1.5565 -1.3293 -0.8498
 4040TIP3    H212127   5.852   1.821   4.764  0.2632  0.9322 -0.7581
 4041TIP3   OH212128   0.250   0.897   0.953  0.1227 -0.3491 -0.6355
 4041TIP3    H112129   0.256   0.896   1.048  2.0963 -3.6342 -0.6365
 4041TIP3    H212130   0.156   0.904   0.935 -0.2877  0.4418  1.5041
 4042TIP3   OH212131   2.071   0.938   3.133  0.1992 -0.1123  0.1879
 4042TIP3    H112132   1.982   0.906   3.120  0.0621  0.5900 -0.6400
 4042TIP3    H212133   2.073   0.964   3.225 -0.2681 -0.6579  0.3636
 4043TIP3   OH212134   2.555   5.987   4.907  0.0206 -0.3962 -0.4506
 4043TIP3    H112135   2.571   5.916   4.969  1.3602 -0.0368 -0.3509
 4043TIP3    H212136   2.570   5.948   4.821 -0.8769 -0.6456 -0.5004
 4044TIP3   OH212137   1.674   3.729   3.101 -0.3187 -0.2065 -0.0203
 4044TIP3    H112138   1.718   3.747   3.184  0.6581 -0.1200 -0.5484
 4044TIP3    H212139   1.742   3.736   3.035 -1.3374  1.0431 -0.9916
 4045TIP3   OH212140   6.294   0.053   2.572  0.1848 -0.1260 -0.3694
 4045TIP3    H112141   6.266   0.089   2.488 -2.8281  0.3717  0.7282
 4045TIP3    H212142   6.238   0.095   2.637  1.5776 -1.3814  1.8043
 4046TIP3   OH212143   6.032   0.128   0.312  0.3487  0.1679 -0.2453
 4046TIP3    H112144   5.951   0.088   0.281 -0.5806  0.5266  1.5769
 4046TIP3    H212145   6.027   0.121   0.407  2.9747 -0.7455 -0.1015
 4047TIP3   OH212146   3.950   4.161   3.940  0.1499 -0.1200 -0.3076
 4047TIP3    H112147   4.022   4.216   3.908  0.4134 -0.2843 -0.0045
 4047TIP3    H212148   3.871   4.206   3.911  0.3832 -0.2052 -1.0893
 4048TIP3   OH212149   2.933   0.207   4.308  0.2271  0.4424  0.4645
 4048TIP3    H112150   2.893   0.293   4.296  0.3724  0.6705  1.5240
 4048TIP3    H212151   2.987   0.195   4.231 -1.1300  0.5432 -0.5416
 4049TIP3   OH212152   1.281   4.565   1.587  0.1001 -0.2876 -0.1497
 4049TIP3    H112153   1.294   4.515   1.668 -1.0047 -0.1080  0.1566
 4049TIP3    H212154   1.331   4.645   1.600 -0.5624  0.0132  0.6198
 4050TIP3   OH212155   5.819   0.329   0.357  0.1789 -0.1220  0.1526
 4050TIP3    H112156   5.777   0.279   0.427  0.3097  0.0414  0.3514
 4050TIP3    H212157   5.897   0.366   0.398 -0.0842  0.5083  0.0958
 4051TIP3   OH212158   1.505   5.720   1.272  0.1923  0.5183 -0.0099
 4051TIP3    H112159   1.419   5.746   1.239 -0.7432 -2.6035 -0.3188
 4051TIP3    H212160   1.538   5.659   1.206  1.9562  0.4719  0.8853
 4052TIP3   OH212161   3.124   4.941   1.971 -0.1207  0.1529 -0.9748
 4052TIP3    H112162   3.058   4.927   1.902 -2.2283  1.0372  0.7266
 4052TIP3    H212163   3.087   4.896   2.047  1.5393  0.2457 -0.0912
 4053TIP3   OH212164   1.030   1.753   3.266 -0.3350  0.4389  0.1311
 4053TIP3    H112165   1.026   1.740   3.172 -0.8377 -1.8388  0.4033
 4053TIP3    H212166   0.992   1.673   3.303 -0.9625  1.6258  2.2607
 4054TIP3   OH212167   5.179   0.383   2.974  0.6370 -0.5175 -0.1630
 4054TIP3    H112168   5.261   0.431   2.986  0.4275 -0.6506  2.5829
 4054TIP3    H212169   5.119   0.446   2.936  1.1850  0.5451  0.6762
 4055TIP3   OH212170   5.119   3.769   0.527 -0.1040  0.7011  0.5043
 4055TIP3    H112171   5.154   3.704   0.588 -2.1572 -0.2450  0.7555
 4055TIP3    H212172   5.196   3.802   0.480  1.4038  0.6531  2.7963
 4056TIP3   OH212173   2.232   0.185   0.862  0.0814  0.2184 -0.2537
 4056TIP3    H112174   2.226   0.091   0.874  0.2276  0.2924  0.4643
 4056TIP3    H212175   2.148   0.211   0.826 -0.3353 -0.0540  0.5025
 4057TIP3   OH212176   4.095   4.050   1.058 -0.0296  0.5205 -0.1229
 4057TIP3    H112177   4.035   4.044   1.132 -0.8329 -1.2696 -0.8697
 4057TIP3    H212178   4.039   4.054   0.981  0.7673 -0.6437 -0.8008
 4058TIP3   OH212179   1.333   0.830   1.745 -0.3082 -0.2048  0.2843
 4058TIP3    H112180   1.398   0.778   1.791 -1.1558  0.4209  2.2728
 4058TIP3    H212181   1.268   0.852   1.811 -1.6953  0.5909 -1.2613
 4059TIP3   OH212182   3.401   2.568   2.020 -0.0082 -0.1782  0.1637
 4059TIP3    H112183   3.447   2.652   2.025  1.7396 -1.1675  1.3808
 4059TIP3    H212184   3.308   2.593   2.017  0.3235  1.7779  2.7260
 4060TIP3   OH212185   1.411   0.016   3.118 -0.5418 -0.1422  0.1528
 4060TIP3    H112186   1.315   0.017   3.115 -0.6431  2.5624  1.9463
 4060TIP3    H212187   1.434   0.048   3.205  2.0618 -2.6396  0.5541
 4061TIP3   OH212188   5.716   4.955   3.788  0.0585 -0.3328 -0.5293
 4061TIP3    H112189   5.783   4.950   3.719  2.7458  0.0467  1.8611
 4061TIP3    H212190   5.746   5.026   3.845 -3.6378  1.3732 -0.4079
 4062TIP3   OH212191   0.291   0.957   4.680 -0.2558  0.4888 -0.0575
 4062TIP3    H112192   0.336   0.894   4.736  0.8990  0.6023 -0.8225
 4062TIP3    H212193   0.207   0.916   4.659  0.1064 -0.3833  0.1922
 4063TIP3   OH212194   4.879   4.834   5.126  0.2895  0.1354  0.7037
 4063TIP3    H112195   4.819   4.776   5.080  0.2971  0.9316 -0.3623
 4063TIP3    H212196   4.965   4.817   5.086  0.4733  0.1503  1.0922
 4064TIP3   OH212197   0.729   4.699   3.251  0.0173 -0.3281 -0.3041
 4064TIP3    H112198   0.750   4.786   3.286 -1.1750  0.4900 -1.5299
 4064TIP3    H212199   0.770   4.698   3.165 -0.7015 -0.6355 -0.6514
 4065TIP3   OH212200   4.872   5.062   3.383 -0.1612  0.5635  0.6984
 4065TIP3    H112201   4.827   5.018   3.311  0.4242 -0.8079  1.1337
 4065TIP3    H212202   4.825   5.145   3.393 -1.5192 -0.0834  0.0555
 4066TIP3   OH212203   2.113   0.564   4.934  0.1827 -0.2583 -0.2444
 4066TIP3    H112204   2.072   0.489   4.976  1.1830 -0.2883  0.7149
 4066TIP3    H212205   2.184   0.589   4.993 -0.0281  1.3385 -0.6238
 4067TIP3   OH212206   4.796   2.240   4.082 -0.1220 -0.9608  0.5686
 4067TIP3    H112207   4.759   2.258   3.996  1.2902  2.0278  0.4570
 4067TIP3    H212208   4.891   2.236   4.067  0.1422 -0.4933  1.9596
 4068TIP3   OH212209   3.735   2.549   2.042 -0.8333 -0.0186  0.7760
 4068TIP3    H112210   3.721   2.642   2.060  1.8882  1.1387 -2.1351
 4068TIP3    H212211   3.810   2.526   2.097 -0.6690 -0.1278  0.5034
 4069TIP3   OH212212   3.858   2.146   3.405 -0.1259  0.1028  0.5458
 4069TIP3    H112213   3.905   2.199   3.340 -2.6506  1.9671  0.0853
 4069TIP3    H212214   3.896   2.173   3.489 -1.0940  2.4756  0.2852
 4070TIP3   OH212215   3.827   5.767   1.343 -0.5020 -0.6664  0.2402
 4070TIP3    H112216   3.793   5.708   1.276 -2.4030  0.1474  0.4318
 4070TIP3    H212217   3.886   5.826   1.296 -0.7211 -0.9864 -0.4407
 4071TIP3   OH212218   3.291   4.182   3.554 -0.0676 -0.1057  0.2387
 4071TIP3    H112219   3.273   4.157   3.464  0.2149  0.1437  0.1117
 4071TIP3    H212220   3.272   4.103   3.605 -3.3366  0.6303  0.3806
 4072TIP3   OH212221   1.295   3.097   0.656 -0.5085  0.3565  0.5530
 4072TIP3    H112222   1.362   3.106   0.589 -1.1002 -1.0885 -0.2892
 4072TIP3    H212223   1.333   3.136   0.735  0.7502  0.8149 -0.2679
 4073TIP3   OH212224   0.193   0.896   2.023 -0.2086 -0.0808 -0.2198
 4073TIP3    H112225   0.280   0.857   2.033  0.1329  0.5797 -0.5688
 4073TIP3    H212226   0.208   0.990   2.032 -0.9495  0.0079  0.1125
 4074TIP3   OH212227   2.899   5.493   1.694 -0.1771 -0.6133  0.1205
 4074TIP3    H112228   2.924   5.415   1.743 -0.0892 -1.6221 -1.4606
 4074TIP3    H212229   2.935   5.479   1.606 -2.0795  0.1439 -0.8368
 4075TIP3   OH212230   6.214   3.636   2.821  0.1301 -0.5353 -0.1857
 4075TIP3    H112231   6.294   3.594   2.789  0.3256 -0.4484  0.1826
 4075TIP3    H212232   6.189   3.696   2.751  0.3346 -0.6336 -0.3441
 4076TIP3   OH212233   0.080   1.627   0.614  0.0016  0.0214  0.1107
 4076TIP3    H112234   0.065   1.623   0.708 -1.9120  1.0060 -0.1111
 4076TIP3    H212235   0.000   1.593   0.574  0.0715  1.1914 -1.1459
 4077TIP3   OH212236   1.605   4.303   1.701 -0.1652  0.7288 -0.4233
 4077TIP3    H112237   1.677   4.246   1.729 -2.2126 -2.1658 -0.5433
 4077TIP3    H212238   1.589   4.361   1.776  0.5626 -0.4364  0.6699
 4078TIP3   OH212239   2.077   2.833   0.939  0.7087 -0.0910  0.3097
 4078TIP3    H112240   2.053   2.814   0.849  1.0238  1.1314 -0.0551
 4078TIP3    H212241   2.038   2.919   0.956  0.9447 -0.1548  1.2231
 4079TIP3   OH212242   1.556   1.747   3.310 -0.2038 -0.3615 -0.1723
 4079TIP3    H112243   1.598   1.811   3.368 -0.1762 -0.7362  0.2234
 4079TIP3    H212244   1.465   1.744   3.339 -0.6295  0.7525 -1.2916
 4080TIP3   OH212245   0.478   1.769   0.427  0.3238 -0.6257 -0.0187
 4080TIP3    H112246   0.441   1.839   0.374  0.0443  0.2305  1.2768
 4080TIP3    H212247   0.563   1.751   0.387  0.2256  0.1651 -0.6007
 4081TIP3   OH212248   2.912   1.295   2.856 -0.2653 -0.0592 -0.2431
 4081TIP3    H112249   2.952   1.277   2.942 -1.3715  1.3984  0.6187
 4081TIP3    H212250   2.885   1.209   2.824 -0.2858 -0.5807  1.1109
 4082TIP3   OH212251   1.042   2.333   0.171 -0.3921  0.1016  0.3042
 4082TIP3    H112252   1.047   2.416   0.218  0.9949  0.3742 -0.2634
 4082TIP3    H212253   0.980   2.349   0.100 -0.7430  0.3980  0.6707
 4083TIP3   OH212254   4.992   5.785   2.488  0.2871  0.0713  0.5806
 4083TIP3    H112255   5.046   5.706   2.487  0.6766  0.3234  1.3086
 4083TIP3    H212256   5.043   5.849   2.537 -0.1066  0.7256  0.1619
 4084TIP3   OH212257   2.756   1.369   5.088 -0.0236  0.2675  0.0625
 4084TIP3    H112258   2.702   1.425   5.143 -1.4232  0.2232 -1.1907
 4084TIP3    H212259   2.781   1.425   5.014 -0.4111 -0.3865 -0.5835
 4085TIP3   OH212260   4.434   2.750   1.677  0.2001  0.1270  0.3448
 4085TIP3    H112261   4.452   2.689   1.748  1.0053  0.9325  0.8474
 4085TIP3    H212262   4.397   2.827   1.720 -2.1498 -0.4955 -0.4046
 4086TIP3   OH212263   3.595   2.116   3.130  0.2158  0.0631 -0.4115
 4086TIP3    H112264   3.567   2.088   3.043 -0.0507 -2.4774  0.4075
 4086TIP3    H212265   3.683   2.152   3.117  0.0174  0.0835 -1.7827
 4087TIP3   OH212266   5.359   3.640   3.351  0.1296  0.3166 -0.8038
 4087TIP3    H112267   5.366   3.716   3.408  0.7019 -0.6137  0.4338
 4087TIP3    H212268   5.391   3.670   3.266  2.1781  0.9963  0.1350
 4088TIP3   OH212269   0.208   0.135   2.582  0.4189 -0.9114 -0.4700
 4088TIP3    H112270   0.255   0.124   2.665  1.0343 -0.1386 -0.7079
 4088TIP3    H212271   0.124   0.090   2.597 -0.5467  1.3197  1.4585
 4089TIP3   OH212272   4.829   3.823   4.709 -0.1124  0.1843 -0.0322
 4089TIP3    H112273   4.787   3.858   4.630  1.5459  0.5490 -0.7937
 4089TIP3    H212274   4.917   3.860   4.707  0.4980 -1.1509  1.1079
 4090TIP3   OH212275   5.116   0.807   3.759  0.0279  0.2939 -0.8294
 4090TIP3    H112276   5.159   0.885   3.793  0.0609 -0.9767  2.4151
 4090TIP3    H212277   5.096   0.828   3.668  1.8061  3.2853 -0.6528
 4091TIP3   OH212278   4.032   3.202   3.174 -0.1215 -0.2921 -0.5383
 4091TIP3    H112279   3.993   3.118   3.151 -0.1888 -1.2440  2.5334
 4091TIP3    H212280   4.066   3.237   3.092 -2.5820 -1.9582 -2.3989
 4092TIP3   OH212281   3.920   0.492   1.115 -0.2613  0.1286  0.1714
 4092TIP3    H112282   3.905   0.445   1.197  0.9939  1.1107  1.0038
 4092TIP3    H212283   3.936   0.422   1.051  1.0997 -0.6276  1.2743
 4093TIP3   OH212284   3.838   1.516   3.586  0.0467 -0.3667 -0.2549
 4093TIP3    H112285   3.869   1.606   3.583 -3.1535  0.9174  0.9313
 4093TIP3    H212286   3.854   1.488   3.676  0.6790 -0.8762 -0.5172
 4094TIP3   OH212287   3.511   4.147   0.913 -0.7080 -0.6270 -0.1462
 4094TIP3    H112288   3.548   4.082   0.853  1.7607  1.0512 -0.6029
 4094TIP3    H212289   3.480   4.218   0.856  2.0348  1.1754  0.3986
 4095TIP3   OH212290   1.569   2.903   1.094  0.6687 -0.3855 -0.4336
 4095TIP3    H112291   1.630   2.967   1.131  0.3765 -0.8438  0.8754
 4095TIP3    H212292   1.603   2.818   1.124 -0.3362 -0.6751 -0.0984
 4096TIP3   OH212293   3.165   0.030   3.815  0.3317  0.1146 -0.5545
 4096TIP3    H112294   3.196   0.111   3.775 -0.8119  2.2219  2.4814
 4096TIP3    H212295   3.073   0.024   3.789  0.1288  0.3976  0.0774
 4097TIP3   OH212296   2.809   1.685   1.437 -1.1167 -0.2035  0.4673
 4097TIP3    H112297   2.799   1.768   1.483  2.6118  1.4031 -1.2200
 4097TIP3    H212298   2.788   1.705   1.346 -0.3182 -1.0936  0.0622
 4098TIP3   OH212299   1.945   0.545   1.449  0.1848 -0.1285  0.0957
 4098TIP3    H112300   1.896   0.495   1.514 -1.5219  0.2137 -0.8627
 4098TIP3    H212301   1.945   0.490   1.371 -0.8350  0.9019 -0.6637
 4099TIP3   OH212302   4.494   1.285   2.802 -0.0893 -0.5457 -0.1126
 4099TIP3    H112303   4.580   1.305   2.767 -0.8219 -0.5378 -2.0171
 4099TIP3    H212304   4.442   1.260   2.726 -2.0161  0.2866  0.8582
 4100TIP3   OH212305   6.035   1.384   0.885 -0.0244  0.4183 -0.2713
 4100TIP3    H112306   6.037   1.379   0.789  0.4217 -1.4445 -0.2058
 4100TIP3    H212307   5.953   1.341   0.909 -0.2942  1.1732  0.1824
 4101TIP3   OH212308   0.686   1.194   4.440  0.1050  0.0401 -0.4103
 4101TIP3    H112309   0.770   1.150   4.438  0.1410  0.0007  0.9047
 4101TIP3    H212310   0.624   1.126   4.467  0.0952  0.6345  1.1987
 4102TIP3   OH212311   1.865   3.303   4.647 -0.0440  0.3608  0.2996
 4102TIP3    H112312   1.836   3.386   4.608 -1.3622 -0.5721 -0.8553
 4102TIP3    H212313   1.803   3.287   4.718 -0.1399  0.1368  0.1714
 4103TIP3   OH212314   0.741   1.401   1.866 -0.6192 -0.2849 -0.5763
 4103TIP3    H112315   0.829   1.397   1.903  1.0254 -0.6725 -4.1210
 4103TIP3    H212316   0.733   1.490   1.832 -1.1249 -0.6027 -1.3058
 4104TIP3   OH212317   5.765   0.174   1.636 -0.3443 -0.4154 -0.1469
 4104TIP3    H112318   5.765   0.163   1.541  0.7539  0.9342 -0.3467
 4104TIP3    H212319   5.846   0.133   1.665 -0.1687  0.0612  0.0596
 4105TIP3   OH212320   0.909   4.043   3.119  0.5295  0.2758  0.0723
 4105TIP3    H112321   0.873   3.959   3.147  0.2187  0.6765  0.9064
 4105TIP3    H212322   0.996   4.023   3.086  0.1273 -0.4941 -0.5583
 4106TIP3   OH212323   5.250   4.623   3.765  0.2524  0.4839  0.4517
 4106TIP3    H112324   5.258   4.538   3.722 -1.8046  0.1814  0.5389
 4106TIP3    H212325   5.312   4.619   3.838  0.0128 -1.0527  0.6135
 4107TIP3   OH212326   5.778   4.350   1.817 -0.3081 -0.7770 -0.4193
 4107TIP3    H112327   5.695   4.304   1.831  0.4654 -2.1122 -0.0488
 4107TIP3    H212328   5.834   4.320   1.888  0.0549  1.2531  0.2104
 4108TIP3   OH212329   0.132   3.498   2.097 -0.6818  0.4949 -0.0043
 4108TIP3    H112330   0.095   3.415   2.068 -0.4330  0.2156  0.4758
 4108TIP3    H212331   0.057   3.546   2.134 -1.1412  1.1197 -1.6422
 4109TIP3   OH212332   5.746   5.587   1.153 -0.3302 -0.6788  0.5176
 4109TIP3    H112333   5.698   5.651   1.206 -2.0697 -0.3892 -1.2728
 4109TIP3    H212334   5.692   5.508   1.157  0.1819 -1.0496  0.2013
 4110TIP3   OH212335   6.305   0.714   2.009  0.1465  0.1439  0.0047
 4110TIP3    H112336   6.305   0.742   1.917  0.6788 -0.5542 -0.2150
 4110TIP3    H212337   6.377   0.762   2.049  0.1547  0.1656 -0.0363
 4111TIP3   OH212338   0.156   1.549   1.257  0.1839 -0.3144  0.0930
 4111TIP3    H112339   0.080   1.578   1.207  1.4424 -1.4253 -2.6897
 4111TIP3    H212340   0.201   1.631   1.280 -0.9602  0.2693  0.3325
 4112TIP3   OH212341   1.175   1.926   3.857  0.8886  0.1726 -0.1312
 4112TIP3    H112342   1.238   1.989   3.822  0.8677  0.2725  0.0106
 4112TIP3    H212343   1.220   1.884   3.930  0.3130  1.2363  0.8776
 4113TIP3   OH212344   0.423   0.301   3.213  0.6559 -0.1940 -0.8421
 4113TIP3    H112345   0.377   0.218   3.232 -0.0626  0.6274  1.3188
 4113TIP3    H212346   0.509   0.274   3.183 -0.1187 -1.7442 -1.8303
 4114TIP3   OH212347   0.644   3.298   4.425  0.0083 -0.0490  0.0629
 4114TIP3    H112348   0.579   3.228   4.426  0.4440 -0.4573  0.4603
 4114TIP3    H212349   0.595   3.377   4.401 -0.4977 -0.4766 -0.3253
 4115TIP3   OH212350   3.991   4.997   4.406  0.2116 -0.0137 -0.0407
 4115TIP3    H112351   3.978   5.064   4.338  0.4251  0.7482  0.6470
 4115TIP3    H212352   4.045   5.041   4.472 -0.8902 -0.3773  1.1400
 4116TIP3   OH212353   1.657   2.661   1.171  0.2469 -0.0167  0.2164
 4116TIP3    H112354   1.626   2.617   1.092  0.9611 -0.3425  0.1122
 4116TIP3    H212355   1.752   2.670   1.159  0.4517 -0.5610  1.2592
 4117TIP3   OH212356   5.291   5.469   2.079  0.0106  0.5123  0.4246
 4117TIP3    H112357   5.351   5.429   2.142 -0.9136  0.7695  1.5285
 4117TIP3    H212358   5.256   5.545   2.126  1.5510  2.5507 -1.5178
 4118TIP3   OH212359   1.375   1.925   4.759  0.3672  0.5369 -0.1838
 4118TIP3    H112360   1.279   1.922   4.763  0.3788  0.4993  0.1536
 4118TIP3    H212361   1.401   1.957   4.845  0.8549 -4.5159  1.9117
 4119TIP3   OH212362   2.055   1.899   1.765  1.0656 -0.0608 -0.1504
 4119TIP3    H112363   2.006   1.968   1.811 -0.3322 -1.8461  1.1874
 4119TIP3    H212364   2.135   1.889   1.816  1.0229  0.1810 -0.0313
 4120TIP3   OH212365   1.798   5.774   2.577  0.0713 -0.6552  0.0793
 4120TIP3    H112366   1.711   5.815   2.583  0.4195 -0.0232  1.1070
 4120TIP3    H212367   1.818   5.775   2.484  0.2011  1.9173  0.0588
 4121TIP3   OH212368   6.254   4.871   2.121 -0.0068  0.2591  0.0096
 4121TIP3    H112369   6.294   4.938   2.066 -0.1048  1.0648  0.9018
 4121TIP3    H212370   6.305   4.872   2.202 -1.1168  0.5183  0.7280
 4122TIP3   OH212371   1.840   4.390   1.560 -0.3668  0.4055  0.2304
 4122TIP3    H112372   1.848   4.484   1.577 -0.5003 -0.0005  2.9002
 4122TIP3    H212373   1.767   4.361   1.614 -1.3295 -1.0112 -1.7111
 4123TIP3   OH212374   6.210   5.406   1.815  0.6381 -0.4229  0.3149
 4123TIP3    H112375   6.286   5.425   1.870 -0.0974  0.4814  1.0646
 4123TIP3    H212376   6.241   5.414   1.725  1.7470 -1.4346  0.5792
 4124TIP3   OH212377   1.384   2.802   3.805  0.4743  0.0341  0.0441
 4124TIP3    H112378   1.324   2.752   3.749 -1.0011  0.6047  1.0545
 4124TIP3    H212379   1.347   2.890   3.806  0.0680 -0.1184  2.4402
 4125TIP3   OH212380   2.238   4.982   2.278  0.0857 -0.2459 -0.5380
 4125TIP3    H112381   2.332   4.970   2.291  0.0035 -0.8694 -0.4661
 4125TIP3    H212382   2.210   4.900   2.237 -0.5569 -0.3848  0.1667
 4126TIP3   OH212383   4.986   3.120   1.928 -0.3977  0.2959  0.0304
 4126TIP3    H112384   4.969   3.119   2.022  0.0314 -1.0885  0.1199
 4126TIP3    H212385   4.983   3.028   1.903  2.2553  0.3590 -0.8124
 4127TIP3   OH212386   0.912   3.117   3.587  0.6811 -0.3075  0.3709
 4127TIP3    H112387   0.928   3.126   3.681  0.0472  3.0388  0.2675
 4127TIP3    H212388   0.819   3.092   3.581  0.7544 -0.6490  0.6065
 4128TIP3   OH212389   2.734   5.853   2.815 -0.1431 -0.3542 -0.2753
 4128TIP3    H112390   2.652   5.870   2.862 -0.1350  1.1532 -0.7603
 4128TIP3    H212391   2.801   5.893   2.870  0.0022  0.3535 -0.9528
 4129TIP3   OH212392   0.540   4.312   3.590  0.7058  0.5521  0.1321
 4129TIP3    H112393   0.452   4.274   3.585 -0.2220  2.6468 -0.7375
 4129TIP3    H212394   0.561   4.336   3.500  1.5606  1.3623  0.5367
 4130TIP3   OH212395   0.412   2.570   4.805  0.0017 -0.0220 -0.5589
 4130TIP3    H112396   0.359   2.617   4.869 -0.6033 -0.9044 -0.3997
 4130TIP3    H212397   0.500   2.568   4.843 -0.1654  0.2152 -0.1644
 4131TIP3   OH212398   3.629   2.663   1.484 -0.1878 -0.0609 -0.0413
 4131TIP3    H112399   3.652   2.589   1.541  0.6082  0.2041 -0.0036
 4131TIP3    H212400   3.635   2.739   1.542  0.0653  0.1483 -0.3440
 4132TIP3   OH212401   0.557   1.107   0.579  0.4931 -0.3710 -0.1042
 4132TIP3    H112402   0.497   1.040   0.613  0.8821 -0.9057 -0.4595
 4132TIP3    H212403   0.634   1.100   0.635 -0.8983  2.4627  2.4725
 4133TIP3   OH212404   5.095   1.887   0.651  0.7628  0.3937  0.4541
 4133TIP3    H112405   5.081   1.968   0.700 -0.7293 -0.2171  1.0962
 4133TIP3    H212406   5.047   1.900   0.569 -2.2005 -0.9735  1.8561
 4134TIP3   OH212407   3.934   4.597   0.661  0.1114 -0.0600  0.2455
 4134TIP3    H112408   3.999   4.656   0.698 -2.1928  2.8720 -0.0283
 4134TIP3    H212409   3.885   4.565   0.736 -0.4827  0.7404  0.2067
 4135TIP3   OH212410   2.236   0.998   1.849  0.8057  0.2768  0.3838
 4135TIP3    H112411   2.219   1.071   1.908  0.7963  0.6259 -0.0420
 4135TIP3    H212412   2.280   1.038   1.774 -2.7309  0.5450 -1.7338
 4136TIP3   OH212413   4.744   4.884   0.195 -0.0662 -0.3425  0.3232
 4136TIP3    H112414   4.656   4.920   0.187  0.1512  0.1207 -0.0978
 4136TIP3    H212415   4.751   4.856   0.286 -0.2532  0.6729  0.6581
 4137TIP3   OH212416   4.189   4.648   3.399 -0.2997 -0.1776  0.2883
 4137TIP3    H112417   4.262   4.604   3.356 -0.6892 -0.3765 -0.1883
 4137TIP3    H212418   4.151   4.704   3.331 -0.4964  0.0357  0.5715
 4138TIP3   OH212419   4.266   2.240   1.547  0.1582  0.2189 -0.4984
 4138TIP3    H112420   4.255   2.151   1.515  0.0189  0.2030 -0.4078
 4138TIP3    H212421   4.197   2.291   1.504 -0.7307 -0.0187  0.5910
 4139TIP3   OH212422   3.343   2.187   1.786 -0.8690  0.0148  0.1411
 4139TIP3    H112423   3.286   2.229   1.722 -0.1570  1.5842  0.4918
 4139TIP3    H212424   3.410   2.252   1.805  0.4954 -1.4321  0.4660
 4140TIP3   OH212425   0.743   3.803   0.490  0.0047 -0.0728 -0.0486
 4140TIP3    H112426   0.707   3.890   0.472  0.6464 -0.0836 -1.5528
 4140TIP3    H212427   0.726   3.753   0.410  1.2784 -0.7745  0.0971
 4141TIP3   OH212428   4.703   5.825   1.468  0.5120 -0.0255  1.0339
 4141TIP3    H112429   4.661   5.808   1.384  0.4999  0.0015  1.0345
 4141TIP3    H212430   4.796   5.808   1.453  0.7203  1.3223  0.6370
 4142TIP3   OH212431   1.993   4.726   4.388 -0.6795 -0.4000  0.1005
 4142TIP3    H112432   1.939   4.650   4.370  1.9593 -2.7999  1.4869
 4142TIP3    H212433   1.952   4.768   4.464 -2.1573 -0.4277 -0.6644
 4143TIP3   OH212434   0.479   5.378   2.609  0.0496  0.4551  0.4313
 4143TIP3    H112435   0.544   5.410   2.545 -0.2301 -0.1222 -0.1438
 4143TIP3    H212436   0.395   5.393   2.567 -0.0757 -2.9046 -0.8055
 4144TIP3   OH212437   5.064   4.999   2.364  0.3983  0.4441  0.1025
 4144TIP3    H112438   5.028   4.932   2.306  1.5888 -1.1883  1.1570
 4144TIP3    H212439   5.159   4.990   2.357  0.6136  2.2048  0.1110
 4145TIP3   OH212440   3.042   0.511   0.313 -0.3355 -0.3040 -0.0912
 4145TIP3    H112441   3.113   0.486   0.253 -1.2181 -0.7977 -0.9691
 4145TIP3    H212442   3.087   0.545   0.390  0.8540 -0.3344 -0.7367
 4146TIP3   OH212443   3.624   3.844   4.140 -0.1838  0.4572  0.1572
 4146TIP3    H112444   3.634   3.933   4.106  2.9408  0.0455 -0.2547
 4146TIP3    H212445   3.577   3.855   4.223  0.9761  2.6267  0.5981
 4147TIP3   OH212446   1.053   5.220   5.033 -0.2923 -0.4168  0.2461
 4147TIP3    H112447   0.985   5.153   5.046  0.3715 -1.2027 -0.2106
 4147TIP3    H212448   1.073   5.250   5.122 -3.1828  1.8975  0.2639
 4148TIP3   OH212449   5.725   3.747   3.473  0.3808 -0.1719 -0.3802
 4148TIP3    H112450   5.694   3.684   3.537 -0.0831  0.3930 -0.0342
 4148TIP3    H212451   5.765   3.694   3.404 -0.7590 -0.8942 -0.5157
 4149TIP3   OH212452   2.854   1.978   0.170 -0.0320  0.1492 -0.1344
 4149TIP3    H112453   2.862   1.914   0.099  1.3404  0.9981 -0.7931
 4149TIP3    H212454   2.894   1.935   0.246  1.4371  0.3988 -0.7277
 4150TIP3   OH212455   5.919   1.926   5.141 -0.0067 -0.1329  0.0199
 4150TIP3    H112456   5.947   1.975   5.218  0.2675  0.5700 -0.5074
 4150TIP3    H212457   5.947   1.836   5.157  0.1686  0.0336  0.6742
 4151TIP3   OH212458   5.418   2.610   4.678  0.4059 -0.1035 -0.0305
 4151TIP3    H112459   5.402   2.601   4.584  0.1998  0.9683 -0.1095
 4151TIP3    H212460   5.510   2.583   4.689  0.0236 -1.6105 -0.3025
 4152TIP3   OH212461   5.667   2.078   2.515  0.4853  0.3929 -0.1341
 4152TIP3    H112462   5.757   2.103   2.532  0.4835  0.4200 -0.1644
 4152TIP3    H212463   5.672   1.985   2.491  0.8783  1.0719 -3.0677
 4153TIP3   OH212464   3.692   5.781   1.568  0.1525 -0.1024 -0.4334
 4153TIP3    H112465   3.752   5.783   1.493  0.5159 -1.0585 -0.1847
 4153TIP3    H212466   3.696   5.870   1.604 -0.9245  0.7269 -2.2201
 4154TIP3   OH212467   2.142   5.127   2.563  0.0531  0.0656 -0.1879
 4154TIP3    H112468   2.134   5.036   2.592  1.5188 -0.3245 -0.9063
 4154TIP3    H212469   2.106   5.179   2.635  2.0019 -0.9586  1.6548
 4155TIP3   OH212470   0.177   2.254   1.339  0.1303 -0.0519  0.1573
 4155TIP3    H112471   0.086   2.250   1.368 -0.3619  0.3360 -1.2566
 4155TIP3    H212472   0.215   2.171   1.369 -0.1487  0.5660  2.3946
 4156TIP3   OH212473   5.361   5.469   1.039  0.5900  0.1014  0.1065
 4156TIP3    H112474   5.440   5.436   0.995  0.2684 -0.6483  0.0699
 4156TIP3    H212475   5.307   5.391   1.052  0.4817  0.3681  1.4399
 4157TIP3   OH212476   4.187   2.147   5.007  0.6305 -0.2281 -0.1711
 4157TIP3    H112477   4.150   2.177   4.924 -0.7636 -0.3751  0.3765
 4157TIP3    H212478   4.123   2.173   5.073  1.6748 -0.1988  0.8611
 4158TIP3   OH212479   4.544   1.840   2.706  0.3291 -0.1039  0.8114
 4158TIP3    H112480   4.550   1.842   2.610 -0.2632  0.9120  0.7802
 4158TIP3    H212481   4.463   1.792   2.724  0.2485  0.0201  0.7852
 4159TIP3   OH212482   0.378   4.653   5.148  0.5288 -0.2641  0.1309
 4159TIP3    H112483   0.414   4.735   5.181  0.8794 -1.1311  1.9977
 4159TIP3    H212484   0.452   4.609   5.107  0.1798  0.6299 -1.5680
 4160TIP3   OH212485   5.451   0.020   0.538  0.8952 -0.3718  0.6942
 4160TIP3    H112486   5.502   0.072   0.475 -0.3820  1.7370  1.3085
 4160TIP3    H212487   5.494   0.036   0.622 -1.6746  3.0678  1.5939
 4161TIP3   OH212488   0.615   1.014   1.006 -0.2675 -0.3935 -0.5918
 4161TIP3    H112489   0.614   0.964   0.924  0.4203 -1.2175 -0.1159
 4161TIP3    H212490   0.620   1.105   0.978  1.2809 -0.7080 -1.4937
 4162TIP3   OH212491   1.658   2.631   2.278 -0.2533  0.0290  0.0753
 4162TIP3    H112492   1.658   2.720   2.243  2.2630 -0.5116 -1.6274
 4162TIP3    H212493   1.639   2.576   2.202  1.6082 -1.0014  0.3029
 4163TIP3   OH212494   5.762   4.756   1.913 -0.3701 -0.2040 -0.3394
 4163TIP3    H112495   5.701   4.709   1.970 -0.7089  2.4606  1.7185
 4163TIP3    H212496   5.849   4.729   1.944 -0.4555 -2.0263 -1.5400
 4164TIP3   OH212497   2.271   3.520   2.870  0.4482 -0.1131  0.0363
 4164TIP3    H112498   2.226   3.551   2.949 -0.6581  0.9805 -0.9856
 4164TIP3    H212499   2.243   3.429   2.861 -1.4502  0.4743 -0.4503
 4165TIP3   OH212500   3.401   4.692   3.404  0.0129  0.4046 -0.5395
 4165TIP3    H112501   3.477   4.653   3.361 -1.1082 -0.7071 -1.5691
 4165TIP3    H212502   3.374   4.628   3.469  0.2995  1.0709  0.2587
 4166TIP3   OH212503   2.827   5.753   3.661 -0.0134 -0.6565  0.3256
 4166TIP3    H112504   2.743   5.726   3.624  0.2589 -0.4412 -0.4942
 4166TIP3    H212505   2.818   5.848   3.674  0.0522 -0.6558  0.3649
 4167TIP3   OH212506   2.405   2.604   0.613 -0.4358  0.0461  0.2169
 4167TIP3    H112507   2.432   2.612   0.521 -2.5113 -1.0920 -0.5547
 4167TIP3    H212508   2.463   2.664   0.660  1.2698  0.0160 -1.6959
 4168TIP3   OH212509   2.743   1.792   4.766  0.0685  0.1822  0.2949
 4168TIP3    H112510   2.655   1.758   4.783  0.7373 -0.8846  1.8558
 4168TIP3    H212511   2.798   1.749   4.831  1.7679  0.7816 -0.6859
 4169TIP3   OH212512   5.448   5.053   3.159 -0.2364 -0.3566  0.0780
 4169TIP3    H112513   5.498   5.111   3.101  0.2996 -0.5588  0.3303
 4169TIP3    H212514   5.365   5.098   3.171  0.1944  0.3947  0.3193
 4170TIP3   OH212515   3.875   2.433   3.162 -0.4222  0.2379 -0.1729
 4170TIP3    H112516   3.951   2.432   3.220  0.0314 -3.2418 -0.6474
 4170TIP3    H212517   3.858   2.341   3.143 -1.7458  1.1149 -4.0498
 4171TIP3   OH212518   2.702   3.337   2.577  0.3034 -0.2918  0.4039
 4171TIP3    H112519   2.757   3.411   2.550  0.6240 -1.0984 -1.2695
 4171TIP3    H212520   2.764   3.272   2.609  0.2082 -0.6507 -0.1355
 4172TIP3   OH212521   1.169   5.790   0.584  0.0296 -0.1502 -0.1415
 4172TIP3    H112522   1.110   5.858   0.551 -1.3629 -1.1547  0.1741
 4172TIP3    H212523   1.132   5.708   0.551  0.9258 -0.8582  0.5625
 4173TIP3   OH212524   1.772   2.434   3.462  0.2017  0.3792 -0.3646
 4173TIP3    H112525   1.857   2.410   3.500  0.1891  1.1553  0.1829
 4173TIP3    H212526   1.763   2.527   3.481 -0.0690  0.6725 -1.7879
 4174TIP3   OH212527   2.018   0.924   4.284 -0.2092 -0.0715  0.2483
 4174TIP3    H112528   2.110   0.911   4.261  0.1811 -0.0040  1.6476
 4174TIP3    H212529   2.021   0.974   4.366 -1.5132  0.5107 -0.0356
 4175TIP3   OH212530   4.019   0.338   4.236  0.5156  0.1310 -0.3100
 4175TIP3    H112531   3.983   0.427   4.241 -2.1692 -0.8728 -0.3061
 4175TIP3    H212532   4.061   0.325   4.321 -0.0011  1.0262  0.0990
 4176TIP3   OH212533   0.345   3.573   4.311 -0.0311 -0.1194  0.2393
 4176TIP3    H112534   0.332   3.627   4.389 -2.7688 -1.1744  0.6325
 4176TIP3    H212535   0.275   3.600   4.252  1.5512  0.1306 -1.6131
 4177TIP3   OH212536   0.145   0.004   2.326 -0.3013 -0.6479 -0.1088
 4177TIP3    H112537   0.183   0.049   2.401 -1.0066 -0.0201 -0.1191
 4177TIP3    H212538   0.089   0.069   2.285 -1.8109 -1.6989  0.2240
 4178TIP3   OH212539   5.075   3.267  -0.010  0.3923 -0.5992 -0.3186
 4178TIP3    H112540   5.019   3.190  -0.020  0.3400 -0.7202  0.7611
 4178TIP3    H212541   5.137   3.242   0.059  1.1451 -0.1102 -0.8156
 4179TIP3   OH212542   5.669   2.190   5.126 -0.3371  0.4270 -0.0557
 4179TIP3    H112543   5.639   2.106   5.092  1.8422 -0.2883 -0.3571
 4179TIP3    H212544   5.736   2.219   5.064  3.4264 -0.6614  3.1357
 4180TIP3   OH212545   1.768   3.078   1.988 -0.4239  0.0303  0.3104
 4180TIP3    H112546   1.854   3.087   2.028 -0.6619 -0.1744  0.8843
 4180TIP3    H212547   1.782   3.017   1.916  0.1985  1.1359 -0.5244
 4181TIP3   OH212548   3.898   2.918   3.387  0.2458  0.5126 -0.0988
 4181TIP3    H112549   3.944   2.929   3.304  0.2981 -0.6361 -0.2291
 4181TIP3    H212550   3.838   2.993   3.391 -0.5537 -0.0073 -1.6898
 4182TIP3   OH212551   1.746   1.976   2.058 -0.1089 -0.5187  0.1696
 4182TIP3    H112552   1.797   1.896   2.044  0.7701  0.2640 -1.3621
 4182TIP3    H212553   1.678   1.951   2.120  0.3675 -2.3533 -0.0035
 4183TIP3   OH212554   4.261   3.638   1.716 -0.1206  0.2271 -0.3694
 4183TIP3    H112555   4.330   3.703   1.728  0.2688 -0.0847 -0.8503
 4183TIP3    H212556   4.212   3.669   1.640  0.0335 -0.0035 -0.5666
 4184TIP3   OH212557   4.836   0.762   1.809  0.6020  0.1463 -0.1338
 4184TIP3    H112558   4.764   0.802   1.858  1.2435 -0.9121  1.8080
 4184TIP3    H212559   4.796   0.687   1.764  0.7732 -1.9891  2.9444
 4185TIP3   OH212560   3.149   2.856   3.601  0.4165 -0.2718 -0.0169
 4185TIP3    H112561   3.108   2.814   3.526 -0.7996 -0.1411  0.5625
 4185TIP3    H212562   3.081   2.860   3.668  1.0721  0.8703  0.6168
 4186TIP3   OH212563   1.029   2.985   4.518 -0.4310  0.3102  0.3996
 4186TIP3    H112564   0.937   2.967   4.537 -0.2139  0.9457  2.2549
 4186TIP3    H212565   1.060   2.905   4.477 -1.2802 -0.8211  1.8231
 4187TIP3   OH212566   2.928   0.982   3.917  0.1509  0.3880 -0.2365
 4187TIP3    H112567   2.868   0.918   3.955 -0.8340  2.8060  2.7376
 4187TIP3    H212568   3.013   0.960   3.955 -0.3360  1.2060  1.4344
 4188TIP3   OH212569   5.462   5.360   3.966  0.1364 -0.0377  0.2301
 4188TIP3    H112570   5.517   5.298   4.015  0.2664 -0.0170  0.1131
 4188TIP3    H212571   5.374   5.325   3.973  0.4008 -1.0466 -1.0621
 4189TIP3   OH212572   0.004   5.220   1.443 -0.1881 -0.2246  0.2876
 4189TIP3    H112573   0.059   5.204   1.366  0.6133 -0.7766  0.9480
 4189TIP3    H212574  -0.059   5.285   1.415  0.5506  0.1178 -0.6322
 4190TIP3   OH212575   6.320   0.875   4.645 -0.1056 -0.4109  0.0914
 4190TIP3    H112576   6.370   0.834   4.575 -0.5947 -0.1262 -0.4419
 4190TIP3    H212577   6.254   0.928   4.599 -0.1903  0.0835  0.7653
 4191TIP3   OH212578   1.299   1.242   3.108  0.5476 -0.0948  0.2584
 4191TIP3    H112579   1.351   1.171   3.070 -1.4847 -1.5099  0.0147
 4191TIP3    H212580   1.274   1.210   3.194 -1.3688 -0.2038 -0.3104
 4192TIP3   OH212581   5.805   1.643   2.244  0.3342 -0.1445  0.2865
 4192TIP3    H112582   5.766   1.691   2.318 -2.3475  0.3137 -1.2732
 4192TIP3    H212583   5.739   1.577   2.222  0.2322  0.8168 -2.6729
 4193TIP3   OH212584   0.525   2.817   4.634 -0.1273  0.1240  0.2043
 4193TIP3    H112585   0.525   2.828   4.729 -0.3165  1.0040  0.1097
 4193TIP3    H212586   0.436   2.839   4.608  0.2601  1.1478 -0.3063
 4194TIP3   OH212587   4.762   5.365   1.964 -0.0253  0.4040  0.0385
 4194TIP3    H112588   4.718   5.442   1.927  2.6835  1.8497 -0.4655
 4194TIP3    H212589   4.763   5.381   2.058  0.6328  1.0808 -0.0735
 4195TIP3   OH212590   6.012   4.509   4.269 -0.3468 -0.6052  0.2106
 4195TIP3    H112591   5.982   4.529   4.181  1.1461  1.9945  0.1682
 4195TIP3    H212592   6.019   4.595   4.312  3.3474 -1.2758  1.3259
 4196TIP3   OH212593   2.170   3.561   1.297  0.3731  0.0863 -0.3619
 4196TIP3    H112594   2.076   3.569   1.308  0.3580 -0.6124  0.0763
 4196TIP3    H212595   2.204   3.547   1.386  0.8124 -0.3509 -0.5923
 4197TIP3   OH212596   0.421   4.127   0.469 -0.3061  0.3180 -0.8417
 4197TIP3    H112597   0.361   4.168   0.530  0.8195 -0.0328  0.5512
 4197TIP3    H212598   0.384   4.040   0.454 -0.2341  0.1543 -0.1036
 4198TIP3   OH212599   4.074   5.051   3.520 -0.0910  0.0642  0.2602
 4198TIP3    H112600   3.983   5.019   3.520 -0.6420  1.3171 -2.4480
 4198TIP3    H212601   4.068   5.139   3.557  0.1217 -0.0490  0.5656
 4199TIP3   OH212602   3.652   0.706   2.278 -0.4399  0.1169  0.2935
 4199TIP3    H112603   3.639   0.611   2.282  2.7667 -0.6054 -1.9721
 4199TIP3    H212604   3.707   0.725   2.354 -2.4973  0.6021  1.7587
 4200TIP3   OH212605   6.242   0.212   3.786  0.2234  0.0470 -0.0300
 4200TIP3    H112606   6.319   0.166   3.820 -0.5433  0.6137  2.7457
 4200TIP3    H212607   6.168   0.175   3.836 -0.8866  1.6171 -0.4300
 4201TIP3   OH212608   1.560   3.712   0.511 -0.4639 -0.6045 -0.0566
 4201TIP3    H112609   1.563   3.738   0.419  0.3659  0.3062  0.2152
 4201TIP3    H212610   1.651   3.691   0.533 -0.8442 -2.0463  0.2259
 4202TIP3   OH212611   5.849   3.325   3.021  0.3179  0.3970  0.0361
 4202TIP3    H112612   5.924   3.367   2.978  1.2737 -0.6710  0.5835
 4202TIP3    H212613   5.888   3.250   3.067 -1.2008 -0.6103 -0.2649
 4203TIP3   OH212614   1.705   5.786   2.040 -0.0916  0.1030 -0.5476
 4203TIP3    H112615   1.719   5.848   1.969  1.4986 -0.0681 -0.4145
 4203TIP3    H212616   1.685   5.703   1.996  1.0233 -0.0335 -0.8142
 4204TIP3   OH212617   5.667   4.704   3.049 -0.1529 -0.1626 -0.2370
 4204TIP3    H112618   5.721   4.642   3.098 -0.1266  0.5498  0.6684
 4204TIP3    H212619   5.721   4.783   3.044 -0.4592  0.0205 -0.7776
 4205TIP3   OH212620   6.326   2.183   2.428  0.0345 -0.1208  0.4928
 4205TIP3    H112621   6.405   2.203   2.377  0.0531 -1.2946  0.0228
 4205TIP3    H212622   6.254   2.192   2.366  0.0728 -1.7299  0.1482
 4206TIP3   OH212623   5.980   4.464   1.636 -0.0948  0.5384 -0.0229
 4206TIP3    H112624   5.894   4.467   1.678 -0.6897  3.5046 -1.2089
 4206TIP3    H212625   6.040   4.500   1.701 -0.5451  2.4721 -0.6037
 4207TIP3   OH212626   3.116   1.662   4.025  0.2556  0.1059  0.1338
 4207TIP3    H112627   3.026   1.693   4.012  0.6950  0.8938 -1.2455
 4207TIP3    H212628   3.137   1.614   3.945  1.1804  0.2387  0.2806
 4208TIP3   OH212629   2.240   0.327   4.493  0.2551  0.0691 -0.0870
 4208TIP3    H112630   2.149   0.355   4.504 -0.1302 -0.8671 -0.6634
 4208TIP3    H212631   2.285   0.404   4.458 -0.6547  0.1288 -1.1965
 4209TIP3   OH212632   4.043   4.978   1.547  0.4007 -0.1852 -0.1012
 4209TIP3    H112633   4.090   4.894   1.546  0.1526 -0.4130  2.4828
 4209TIP3    H212634   4.105   5.039   1.587 -0.5397  0.1147  0.9350
 4210TIP3   OH212635   1.376   5.882   0.432  0.1887 -0.0963 -0.1895
 4210TIP3    H112636   1.294   5.852   0.471  0.1426  1.4893  1.0127
 4210TIP3    H212637   1.387   5.826   0.355 -1.4314 -1.0918  0.2465
 4211TIP3   OH212638   4.502   3.436   3.270  0.2612 -0.3181  0.4741
 4211TIP3    H112639   4.455   3.356   3.245  1.7478 -0.9083 -0.5465
 4211TIP3    H212640   4.539   3.469   3.189 -0.7497  1.7598  0.7835
 4212TIP3   OH212641   4.748   5.772   0.140  0.0820 -0.2339  0.2091
 4212TIP3    H112642   4.671   5.727   0.175 -0.5885  0.4293 -0.3772
 4212TIP3    H212643   4.713   5.828   0.070  0.7783  1.6951  1.3386
 4213TIP3   OH212644   0.077   5.512   2.877  0.3537 -0.2514  0.4644
 4213TIP3    H112645   0.037   5.561   2.949  0.2048  1.5061 -0.7437
 4213TIP3    H212646   0.021   5.529   2.802  1.8243  0.0159 -0.6340
 4214TIP3   OH212647   0.310   1.548   0.465 -0.7599  0.2979 -0.6899
 4214TIP3    H112648   0.228   1.579   0.505  0.2943  0.2146  1.7128
 4214TIP3    H212649   0.364   1.626   0.456 -1.1367  0.3861 -2.4717
 4215TIP3   OH212650   4.901   1.204   4.320 -0.2356 -0.2906  0.2984
 4215TIP3    H112651   4.985   1.159   4.311 -0.0367  0.3341 -1.3472
 4215TIP3    H212652   4.838   1.144   4.280 -0.5697 -0.6809  1.3750
 4216TIP3   OH212653   3.171   5.701   1.663  0.1043  0.0323 -0.2947
 4216TIP3    H112654   3.112   5.648   1.609  0.7393 -1.9221  0.8414
 4216TIP3    H212655   3.241   5.641   1.689  1.1537  1.5773  0.6511
 4217TIP3   OH212656   1.588   5.313   0.830  0.4788  0.1863 -0.4285
 4217TIP3    H112657   1.522   5.263   0.879  0.8160 -1.5785 -1.6867
 4217TIP3    H212658   1.537   5.366   0.769  0.0886  1.9085  1.2880
 4218TIP3   OH212659   0.995   5.114   3.294 -0.2579  0.5566 -0.0153
 4218TIP3    H112660   1.007   5.111   3.389 -0.3891 -0.6651 -0.0247
 4218TIP3    H212661   1.042   5.193   3.266 -1.1170  1.5160  1.1857
 4219TIP3   OH212662   3.213   3.397   0.999 -0.5233 -0.2473 -0.5661
 4219TIP3    H112663   3.282   3.462   0.984 -0.2253  0.2989  2.4942
 4219TIP3    H212664   3.133   3.439   0.966 -0.1219  1.1317  0.1255
 4220TIP3   OH212665   1.049   3.812   0.274 -0.2115 -0.1783 -0.1864
 4220TIP3    H112666   1.115   3.766   0.327  1.2582  2.4571  0.4091
 4220TIP3    H212667   0.968   3.803   0.325  0.3297 -0.9468  0.5787
 4221TIP3   OH212668   2.056   1.362   1.694  0.4906  0.0666 -0.1706
 4221TIP3    H112669   2.150   1.367   1.707  0.5086  0.6063 -0.4910
 4221TIP3    H212670   2.024   1.449   1.717  0.1313  0.0368 -0.5448
 4222TIP3   OH212671   4.468   2.884   1.444  0.9642 -0.1263 -0.4004
 4222TIP3    H112672   4.410   2.908   1.516  2.2749 -0.3979  0.7695
 4222TIP3    H212673   4.553   2.922   1.467  1.0798  1.0383 -2.5246
 4223TIP3   OH212674   3.028   1.072   1.615  0.5594 -0.3740 -0.0176
 4223TIP3    H112675   3.041   0.978   1.624  0.5635 -0.4960 -1.1499
 4223TIP3    H212676   2.948   1.091   1.664  0.1588 -1.0850 -0.3860
 4224TIP3   OH212677   4.812   2.975   3.149 -0.7663 -0.0262 -0.0698
 4224TIP3    H112678   4.844   2.960   3.060  2.3526  0.6955  0.7767
 4224TIP3    H212679   4.866   2.917   3.204 -2.5796 -0.4272  1.3851
 4225TIP3   OH212680   0.501   0.180   2.414 -0.3077  0.6410 -0.1725
 4225TIP3    H112681   0.500   0.088   2.388 -1.8709  0.2039  1.1937
 4225TIP3    H212682   0.408   0.204   2.420  0.0282  1.7204  1.3503
 4226TIP3   OH212683   2.586   5.948   1.594  0.0607 -0.2866  0.0901
 4226TIP3    H112684   2.649   5.976   1.527  0.7678 -2.0953 -0.0446
 4226TIP3    H212685   2.507   5.927   1.545  0.3706 -0.9899 -0.1224
 4227TIP3   OH212686   4.267   3.791   3.902 -0.4123  0.5392  0.1475
 4227TIP3    H112687   4.319   3.865   3.933 -0.6189  0.9339 -0.4191
 4227TIP3    H212688   4.331   3.722   3.884 -0.3458 -0.0244  2.2285
 4228TIP3   OH212689   3.273   4.150   3.266  0.3115  0.7013 -0.1045
 4228TIP3    H112690   3.271   4.055   3.254  0.5490  0.8280 -1.1838
 4228TIP3    H212691   3.210   4.184   3.203  1.2523  1.3484 -0.7239
 4229TIP3   OH212692   2.710   2.319   3.938 -0.0233  0.3791 -0.0935
 4229TIP3    H112693   2.710   2.266   3.859 -0.4369 -0.5598  0.5125
 4229TIP3    H212694   2.741   2.405   3.910 -1.1009  0.3412 -1.4490
 4230TIP3   OH212695   0.631   0.527   0.492 -0.2727  0.1996  0.1799
 4230TIP3    H112696   0.635   0.453   0.431  0.5104  0.0465  0.4065
 4230TIP3    H212697   0.545   0.565   0.478 -0.5996 -0.6266 -0.0965
 4231TIP3   OH212698   4.647   4.855   4.606 -0.0015  0.4402  0.5927
 4231TIP3    H112699   4.635   4.940   4.564 -1.2343 -0.2713 -0.5695
 4231TIP3    H212700   4.711   4.810   4.550  0.0678  0.3143  0.7725
 4232TIP3   OH212701   1.283   2.201   1.008 -0.1845 -0.0560 -0.1588
 4232TIP3    H112702   1.298   2.111   1.037  1.2035  0.2736  0.1985
 4232TIP3    H212703   1.362   2.225   0.960 -0.3522  1.1221  0.1190
 4233TIP3   OH212704   6.183   1.919   1.694 -0.2134 -0.2576 -0.3113
 4233TIP3    H112705   6.102   1.962   1.668  1.9894  4.4572 -0.4602
 4233TIP3    H212706   6.195   1.944   1.786  0.3923 -2.2172  0.1931
 4234TIP3   OH212707   6.297   1.676   3.682 -0.5046  0.3962  0.2529
 4234TIP3    H112708   6.234   1.639   3.620 -1.0186 -0.0192  0.9959
 4234TIP3    H212709   6.383   1.658   3.643 -0.7731 -0.8666  0.1773
 4235TIP3   OH212710   4.651   5.797   4.263  0.3121 -0.1092  0.7613
 4235TIP3    H112711   4.582   5.855   4.295  1.4808  0.2716  2.7079
 4235TIP3    H212712   4.703   5.776   4.340  1.3061 -1.8772 -0.3265
 4236TIP3   OH212713   5.305   0.032   2.817  1.0644  0.4457 -0.4682
 4236TIP3    H112714   5.246   0.034   2.741  0.5126  1.3117 -0.0420
 4236TIP3    H212715   5.353  -0.050   2.808 -1.3168 -1.1293 -0.0291
 4237TIP3   OH212716   1.566   1.573   2.291  0.4634  0.2440 -0.4145
 4237TIP3    H112717   1.493   1.635   2.283  0.2962  0.0339 -0.5640
 4237TIP3    H212718   1.602   1.568   2.202  0.7948  0.5069 -0.2960
 4238TIP3   OH212719   6.354   0.840   2.958 -0.0973  0.2430 -0.0782
 4238TIP3    H112720   6.266   0.877   2.964 -1.4637 -2.7602  0.0223
 4238TIP3    H212721   6.366   0.824   2.864  1.0929  2.1327 -0.3021
 4239TIP3   OH212722   5.668   4.067   4.533  0.3183  0.4143  0.3509
 4239TIP3    H112723   5.654   3.975   4.555 -0.0111  0.4137  0.1493
 4239TIP3    H212724   5.645   4.073   4.440  1.4556  0.4572  0.0474
 4240TIP3   OH212725   2.154   4.501   3.919  0.1385  0.4559 -0.0938
 4240TIP3    H112726   2.120   4.565   3.982  0.3181 -0.8134  1.3632
 4240TIP3    H212727   2.099   4.512   3.842 -0.7150  1.4201  0.6161
 4241TIP3   OH212728   5.506   4.267   0.324  0.2903  0.0246 -0.0363
 4241TIP3    H112729   5.442   4.303   0.262  0.3199  0.9658  0.4739
 4241TIP3    H212730   5.586   4.256   0.272 -0.0145 -0.3164 -0.4502
 4242TIP3   OH212731   3.171  -0.020   0.394  0.1192 -0.2943  0.0576
 4242TIP3    H112732   3.241   0.037   0.362 -0.7110  1.7702  1.6355
 4242TIP3    H212733   3.091   0.034   0.385 -1.0187 -1.9394 -0.1343
 4243TIP3   OH212734   1.157   0.575   2.970  0.6876 -0.0056 -0.7425
 4243TIP3    H112735   1.154   0.575   2.874  2.7040 -0.4499 -0.8534
 4243TIP3    H212736   1.068   0.597   2.997 -0.0918 -0.5700 -2.7018
 4244TIP3   OH212737   4.075   0.618   2.585  0.0891  0.1082 -0.8134
 4244TIP3    H112738   4.166   0.641   2.564  0.0229  2.3033  0.9386
 4244TIP3    H212739   4.073   0.615   2.681 -1.8334  0.8125 -0.7895
 4245TIP3   OH212740   1.942   0.334   5.017  0.8144 -0.4282  0.5918
 4245TIP3    H112741   1.862   0.291   4.987  0.3966  0.2364  0.7433
 4245TIP3    H212742   2.009   0.266   5.010  0.2659 -0.9567  0.3475
 4246TIP3   OH212743   3.095   0.392   4.594  0.6858 -0.6266  0.1337
 4246TIP3    H112744   3.022   0.337   4.623 -1.5127  1.1838 -1.6389
 4246TIP3    H212745   3.140   0.339   4.528 -0.0167 -1.1542  0.0670
 4247TIP3   OH212746   0.757   0.443   2.154  0.4307 -0.6215  0.0237
 4247TIP3    H112747   0.683   0.424   2.097  0.4679 -0.4479 -0.0837
 4247TIP3    H212748   0.832   0.405   2.109  0.2829 -1.5863  0.5664
 4248TIP3   OH212749   5.375   4.813   1.269 -0.1430  0.5739 -0.0561
 4248TIP3    H112750   5.299   4.811   1.211 -0.1292  0.4119 -0.0669
 4248TIP3    H212751   5.413   4.726   1.262  0.5777  0.9314 -0.7655
 4249TIP3   OH212752   4.896   4.277   3.918 -0.3163  0.0863  0.8506
 4249TIP3    H112753   4.845   4.355   3.941 -2.0441 -0.4243 -0.9040
 4249TIP3    H212754   4.930   4.295   3.830  0.8838 -0.3923  1.1968
 4250TIP3   OH212755   3.549   5.969   4.607  1.1667 -0.2212 -0.3399
 4250TIP3    H112756   3.469   6.016   4.629  1.6450  1.1615 -1.3569
 4250TIP3    H212757   3.523   5.877   4.601  0.5496 -0.4175  3.4380
 4251TIP3   OH212758   3.262   0.709   4.223 -0.0835 -0.1207 -0.0069
 4251TIP3    H112759   3.318   0.653   4.168 -0.2822  0.1010 -0.4415
 4251TIP3    H212760   3.189   0.733   4.166  0.5101  1.4231 -0.1585
 4252TIP3   OH212761   0.325   0.242   2.134  0.0037  0.0297  0.4389
 4252TIP3    H112762   0.409   0.262   2.094 -1.2518  3.5791 -0.7514
 4252TIP3    H212763   0.295   0.163   2.088  1.3445  0.4566 -1.2678
 4253TIP3   OH212764   2.987   4.855   4.426  0.6491 -0.2953 -0.1061
 4253TIP3    H112765   3.077   4.839   4.456  0.5546 -1.9566 -0.6106
 4253TIP3    H212766   2.939   4.875   4.507  1.6291  1.6007  0.0602
 4254TIP3   OH212767   2.372   5.505   2.155  0.5855  0.0363 -0.7321
 4254TIP3    H112768   2.383   5.410   2.154  1.1257  0.0993 -1.3634
 4254TIP3    H212769   2.371   5.530   2.062  0.0846  0.6081 -0.5824
 4255TIP3   OH212770   1.689   4.001   1.083  0.3984  0.1772 -0.2027
 4255TIP3    H112771   1.648   4.007   0.996 -1.5124  2.0354  0.7296
 4255TIP3    H212772   1.686   3.908   1.104 -0.2738 -0.1567 -1.6003
 4256TIP3   OH212773   4.931   1.564   3.384  0.5306 -0.1476 -0.1548
 4256TIP3    H112774   4.877   1.559   3.306 -0.2988 -0.0799  0.4073
 4256TIP3    H212775   4.870   1.579   3.456  1.1572 -1.2725  0.6606
 4257TIP3   OH212776   3.671   3.876   4.625 -0.1118  0.1373 -0.1397
 4257TIP3    H112777   3.736   3.808   4.611 -0.4733 -0.0644 -0.9058
 4257TIP3    H212778   3.720   3.958   4.616 -0.2667  0.0288 -2.6003
 4258TIP3   OH212779   0.057   2.346   4.020 -0.0636  0.4085 -0.2730
 4258TIP3    H112780   0.052   2.353   4.115  1.7809  2.2880 -0.2214
 4258TIP3    H212781  -0.029   2.316   3.993  0.1368 -2.7753  2.1325
 4259TIP3   OH212782   4.906   4.436   2.338 -0.0526 -0.1559 -0.3238
 4259TIP3    H112783   4.841   4.412   2.404 -0.4907  0.9254 -0.3458
 4259TIP3    H212784   4.924   4.528   2.354  1.3217 -0.3853 -0.4735
 4260TIP3   OH212785   4.935   4.165   1.927 -0.3397  0.3629  0.4119
 4260TIP3    H112786   4.842   4.172   1.949 -0.3415  0.4471  0.3783
 4260TIP3    H212787   4.980   4.195   2.007 -0.3672  2.7025 -0.3766
 4261TIP3   OH212788   5.885   1.590   4.224 -0.9805 -0.4986 -0.3994
 4261TIP3    H112789   5.793   1.569   4.210 -1.2694  0.3573  0.1527
 4261TIP3    H212790   5.912   1.634   4.144 -1.5187  0.7496  0.0896
 4262TIP3   OH212791   2.496   4.221   3.894 -0.2440  0.0320 -0.1437
 4262TIP3    H112792   2.476   4.128   3.884 -0.1446  0.0318 -0.3510
 4262TIP3    H212793   2.589   4.228   3.873 -0.1187  0.0949  0.4151
 4263TIP3   OH212794   3.656   5.736   5.193 -0.0076  0.1501  0.1120
 4263TIP3    H112795   3.602   5.765   5.120  0.0820  0.3028  0.1052
 4263TIP3    H212796   3.736   5.703   5.152  0.3614  0.9391  0.1772
 4264TIP3   OH212797   0.049   1.217   1.979  0.1595  0.1967 -0.5222
 4264TIP3    H112798   0.094   1.287   2.025  2.5663 -0.6391 -1.4548
 4264TIP3    H212799   0.063   1.236   1.886  1.2044 -1.6807 -0.7929
 4265TIP3   OH212800   1.262   3.500   2.498  0.3119 -0.6714 -0.3702
 4265TIP3    H112801   1.246   3.538   2.411  0.2030  0.2604  0.0426
 4265TIP3    H212802   1.341   3.545   2.529  1.1497 -1.9752 -0.5259
 4266TIP3   OH212803   6.089   3.335   4.627  0.0908  0.4670  0.1803
 4266TIP3    H112804   6.093   3.401   4.696 -0.0260  0.8408 -0.1653
 4266TIP3    H212805   5.999   3.303   4.628 -0.0457  0.8262 -0.1174
 4267TIP3   OH212806   4.948   4.975   4.753 -0.2108  0.5978  0.1462
 4267TIP3    H112807   4.971   5.018   4.835  0.4023 -0.3033  0.4711
 4267TIP3    H212808   4.900   4.896   4.780 -0.6325  0.6686 -0.3886
 4268TIP3   OH212809   3.324   3.069   2.978 -0.1598 -0.1568  0.9530
 4268TIP3    H112810   3.406   3.025   3.003 -0.3512 -0.0926  1.7117
 4268TIP3    H212811   3.280   3.006   2.921 -0.6585 -1.1741  2.4187
 4269TIP3   OH212812   4.261   4.969   0.627 -0.1297  0.1215 -0.4300
 4269TIP3    H112813   4.278   5.063   0.629 -1.6980  0.4374 -1.1657
 4269TIP3    H212814   4.296   4.937   0.711 -0.0342  1.4363  0.0519
 4270TIP3   OH212815   3.585   1.254   2.761  0.7922 -0.4347 -0.6240
 4270TIP3    H112816   3.529   1.305   2.819  2.6639 -0.5943  1.4722
 4270TIP3    H212817   3.527   1.186   2.724 -0.5665 -0.0441  0.7100
 4271TIP3   OH212818   1.643   3.296   2.279 -0.2201 -0.1911 -0.1134
 4271TIP3    H112819   1.678   3.221   2.328 -0.2644 -0.6958 -0.8475
 4271TIP3    H212820   1.586   3.258   2.213  0.7074  0.3999 -1.3075
 4272TIP3   OH212821   2.408   3.840   4.396 -0.0347 -0.4341 -0.3706
 4272TIP3    H112822   2.492   3.852   4.442  0.4740  0.0941 -1.4155
 4272TIP3    H212823   2.433   3.821   4.306 -1.0528 -0.3049 -0.6825
 4273TIP3   OH212824   1.749   0.362   2.406  0.4588 -0.4786  0.2888
 4273TIP3    H112825   1.798   0.293   2.452  1.0237 -0.1189  0.2309
 4273TIP3    H212826   1.815   0.428   2.384 -0.2389  0.6126  1.3163
 4274TIP3   OH212827   5.651   4.765   1.484 -0.1848  0.2860  0.1326
 4274TIP3    H112828   5.726   4.768   1.545  0.3205 -1.6833 -0.3141
 4274TIP3    H212829   5.680   4.706   1.415 -1.2661  1.4351 -1.3542
 4275TIP3   OH212830   4.681   5.661   2.204  0.0367  0.2419 -0.1045
 4275TIP3    H112831   4.606   5.660   2.144 -0.7586 -0.9303  0.8704
 4275TIP3    H212832   4.677   5.747   2.246 -0.9670  0.0534  0.1963
 4276TIP3   OH212833   4.017   2.175   3.641 -0.1907  0.3840  0.2307
 4276TIP3    H112834   4.090   2.211   3.691 -0.8355  0.7780  0.9019
 4276TIP3    H212835   3.968   2.122   3.704 -0.9507  0.7958  0.0031
 4277TIP3   OH212836   5.409   0.931   0.532 -0.2600 -0.0308  0.3512
 4277TIP3    H112837   5.338   0.884   0.488  1.2695 -0.8021 -1.4250
 4277TIP3    H212838   5.388   0.924   0.625 -3.2923  1.1083 -0.1584
 4278TIP3   OH212839   2.345   5.216   4.879 -0.2328 -0.0630 -0.1600
 4278TIP3    H112840   2.411   5.275   4.916 -0.4530  3.5838 -4.5816
 4278TIP3    H212841   2.262   5.262   4.893 -0.9744 -1.3383 -0.2596
 4279TIP3   OH212842   4.399   2.362   0.864 -0.1293  0.4608  0.2738
 4279TIP3    H112843   4.333   2.426   0.836  1.1987  1.7206 -0.0994
 4279TIP3    H212844   4.480   2.391   0.821  1.0004 -0.1736  1.8906
 4280TIP3   OH212845   1.739   3.111   2.472 -0.0062  0.3010  0.0289
 4280TIP3    H112846   1.767   3.039   2.528 -0.5753  0.4258  0.4915
 4280TIP3    H212847   1.737   3.187   2.531  0.1729  0.6057 -0.3523
 4281TIP3   OH212848   0.575   4.676   1.274 -0.0277 -0.0820  0.4913
 4281TIP3    H112849   0.489   4.677   1.232 -1.2241  1.0989  2.7563
 4281TIP3    H212850   0.573   4.601   1.333  1.3255 -1.2692 -0.9078
 4282TIP3   OH212851   0.065   5.193   4.499  0.2939  0.3235 -0.0084
 4282TIP3    H112852   0.038   5.186   4.591 -0.7337 -0.3134 -0.3308
 4282TIP3    H212853   0.089   5.285   4.488 -0.3674  0.6004  0.6956
 4283TIP3   OH212854   4.532   2.002   2.264 -0.3785 -0.6491 -0.1049
 4283TIP3    H112855   4.556   1.923   2.313 -2.9623 -0.4797  1.6256
 4283TIP3    H212856   4.598   2.067   2.291  0.5391 -1.6310  0.0923
 4284TIP3   OH212857   5.220   0.188   0.581 -0.6318 -0.0706  0.0383
 4284TIP3    H112858   5.158   0.114   0.582  1.1854 -1.6782  0.9549
 4284TIP3    H212859   5.303   0.149   0.609  0.3284  2.4196  0.8507
 4285TIP3   OH212860   4.166   0.405   0.264  0.2280  0.0567 -0.2969
 4285TIP3    H112861   4.253   0.444   0.265  0.5891 -0.7135 -0.8021
 4285TIP3    H212862   4.176   0.327   0.210 -0.2125 -1.3392  1.5607
 4286TIP3   OH212863   1.328   4.659   2.929  0.7351  0.0806 -0.4154
 4286TIP3    H112864   1.244   4.618   2.952  0.1969  1.0596 -0.5677
 4286TIP3    H212865   1.311   4.702   2.845  1.3776  0.3285 -0.4230
 4287TIP3   OH212866   2.097   1.148   2.509  0.0906 -0.2879 -0.1724
 4287TIP3    H112867   2.107   1.063   2.467 -0.1262 -0.5144  0.2291
 4287TIP3    H212868   2.173   1.199   2.479 -1.1698  0.3176 -2.6237
 4288TIP3   OH212869   5.511   5.572   0.265  0.0981  0.2488  0.0710
 4288TIP3    H112870   5.476   5.599   0.180  2.1562  1.7066 -0.3898
 4288TIP3    H212871   5.592   5.526   0.244  0.5988  0.5639  1.2375
 4289TIP3   OH212872   5.267   1.247   1.569 -0.1192 -0.2644  0.0774
 4289TIP3    H112873   5.342   1.277   1.621 -0.7837  0.9830  0.3651
 4289TIP3    H212874   5.267   1.152   1.579  0.5631 -0.1601  1.2727
 4290TIP3   OH212875   0.972   4.418   2.575  0.4332 -0.0210 -0.2503
 4290TIP3    H112876   0.941   4.472   2.503 -0.6692  0.3104  0.4409
 4290TIP3    H212877   1.045   4.368   2.538  0.0017  0.2559 -1.5327
 4291TIP3   OH212878   1.509   3.111   4.666 -0.0499  0.2712 -0.5968
 4291TIP3    H112879   1.548   3.072   4.744 -0.4427 -0.2293 -0.6458
 4291TIP3    H212880   1.438   3.166   4.701 -0.3357 -0.0854 -0.6040
 4292TIP3   OH212881   1.822   5.629   2.956 -0.1587  0.2197 -0.2129
 4292TIP3    H112882   1.752   5.606   2.895 -0.8526 -0.2522  0.7349
 4292TIP3    H212883   1.790   5.707   3.001  0.0093  0.1190  0.0845
 4293TIP3   OH212884   5.134   3.312   0.786 -0.1695  0.2755 -0.1794
 4293TIP3    H112885   5.126   3.284   0.877 -0.0143  1.3376  0.1748
 4293TIP3    H212886   5.181   3.240   0.742 -0.7037 -0.4676  0.4544
 4294TIP3   OH212887   0.605   5.123   3.058  0.0842  0.7073 -0.1267
 4294TIP3    H112888   0.616   5.185   2.987 -1.2403  2.0760  0.8165
 4294TIP3    H212889   0.556   5.050   3.020  1.0701  0.5062 -1.0650
 4295TIP3   OH212890   2.595   5.662   3.508 -0.0859 -0.5240  0.0825
 4295TIP3    H112891   2.643   5.612   3.443 -1.0903 -0.9552 -0.3556
 4295TIP3    H212892   2.530   5.711   3.457 -0.6565 -0.6011  0.7220
 4296TIP3   OH212893   3.521   4.942   2.488 -0.5853  0.0311 -0.2034
 4296TIP3    H112894   3.528   4.982   2.401  0.7074  0.3168  0.0237
 4296TIP3    H212895   3.519   4.848   2.471  1.5885 -0.0001 -0.4576
 4297TIP3   OH212896   5.933   2.826   0.353  0.4868 -0.4181  0.3807
 4297TIP3    H112897   5.902   2.916   0.347  0.6401 -0.2812  1.4837
 4297TIP3    H212898   6.011   2.824   0.297  0.3937  0.0850  0.2255
 4298TIP3   OH212899   0.757   4.756   1.881  0.0792  0.3134 -0.3359
 4298TIP3    H112900   0.753   4.852   1.886  0.7314  0.3836 -0.8812
 4298TIP3    H212901   0.690   4.725   1.942  1.2104  1.0867  1.3528
 4299TIP3   OH212902   1.905   1.218   3.514 -0.3892  0.0166 -0.2713
 4299TIP3    H112903   1.958   1.283   3.559 -2.5077  0.4243  1.8318
 4299TIP3    H212904   1.903   1.248   3.423  2.9724 -0.1241 -0.5259
 4300TIP3   OH212905   0.864   5.107   1.335 -0.3877 -0.4698 -0.4634
 4300TIP3    H112906   0.879   5.017   1.306  0.5335 -0.3351 -0.4348
 4300TIP3    H212907   0.878   5.105   1.430  0.3792 -0.1677 -0.5561
 4301TIP3   OH212908   4.233   1.771   3.213  0.5011 -0.2413 -0.0453
 4301TIP3    H112909   4.155   1.819   3.185  1.5717 -0.1000 -3.1409
 4301TIP3    H212910   4.223   1.763   3.308 -1.9740  2.0259  0.0050
 4302TIP3   OH212911   3.888   0.253   2.222  0.7236  0.6879 -0.0793
 4302TIP3    H112912   3.928   0.296   2.297 -1.7598  0.4725  1.5049
 4302TIP3    H212913   3.852   0.171   2.258  2.0910 -0.9505 -2.2050
 4303TIP3   OH212914   5.382   4.228   3.327 -0.8084  0.2641  0.4642
 4303TIP3    H112915   5.434   4.308   3.320 -1.2183  0.6302  1.3701
 4303TIP3    H212916   5.300   4.249   3.282 -0.9091  0.3499  0.6868
 4304TIP3   OH212917   0.176   4.470   1.810 -0.0638 -0.5243 -0.0453
 4304TIP3    H112918   0.267   4.483   1.785  0.4629 -2.5627  0.6653
 4304TIP3    H212919   0.159   4.538   1.875  0.1506  1.4541 -1.9605
 4305TIP3   OH212920   3.483   1.425   3.209 -0.6941 -0.6490  0.2979
 4305TIP3    H112921   3.539   1.487   3.162 -0.8840 -1.1981 -0.6662
 4305TIP3    H212922   3.449   1.476   3.283  0.1646  0.0232  0.2533
 4306TIP3   OH212923   5.995   0.450   0.513  0.6382 -0.0526 -0.0014
 4306TIP3    H112924   6.071   0.398   0.536 -0.5053 -2.3561 -1.1331
 4306TIP3    H212925   5.945   0.458   0.595  0.1517 -1.9732 -0.0787
 4307TIP3   OH212926   3.129   5.577   0.799 -0.0293 -0.5025 -0.2451
 4307TIP3    H112927   3.195   5.543   0.739 -0.2198  0.8939 -1.3027
 4307TIP3    H212928   3.085   5.646   0.750 -0.8804  0.0047  1.1598
 4308TIP3   OH212929   3.000   0.434   2.440  0.0537 -0.3565  0.1616
 4308TIP3    H112930   2.926   0.494   2.439  1.4794  1.5154  0.8488
 4308TIP3    H212931   3.005   0.401   2.350  0.2397  1.9056 -0.7168
 4309TIP3   OH212932  -0.032   3.545   1.207 -0.3907 -0.2675  0.0019
 4309TIP3    H112933   0.015   3.464   1.229  1.3360  1.2573  2.4033
 4309TIP3    H212934   0.033   3.599   1.163 -1.2630  0.1781 -0.7701
 4310TIP3   OH212935   0.444   4.719   1.525  0.2016 -0.0113 -0.1299
 4310TIP3    H112936   0.490   4.757   1.451  0.6689 -0.2991  0.0059
 4310TIP3    H212937   0.396   4.645   1.488  0.0303  0.1549 -0.2360
 4311TIP3   OH212938   3.842   3.360   3.298  0.4695 -0.2081  0.6130
 4311TIP3    H112939   3.904   3.333   3.230 -1.1969  0.7210 -1.3932
 4311TIP3    H212940   3.785   3.284   3.310 -0.7413  0.4248 -0.8837
 4312TIP3   OH212941   5.744   2.653   4.009 -0.0910  0.3995 -0.1251
 4312TIP3    H112942   5.833   2.687   3.999  0.2251 -0.1433  0.7105
 4312TIP3    H212943   5.702   2.715   4.069  0.4157 -0.5076  1.2178
 4313TIP3   OH212944   1.524   3.787   0.230 -0.0066 -0.0197 -0.6852
 4313TIP3    H112945   1.606   3.750   0.200  1.1582  1.2123  0.8393
 4313TIP3    H212946   1.481   3.817   0.149  2.4348  2.0410 -1.3560
 4314TIP3   OH212947   3.691   0.799   0.395  0.2649  0.6888  0.3287
 4314TIP3    H112948   3.783   0.822   0.382  0.6136  0.8726  2.7668
 4314TIP3    H212949   3.690   0.704   0.403  0.4433  0.7818  1.5681
 4315TIP3   OH212950   3.176   4.003   1.383  0.6890 -0.0759 -0.2153
 4315TIP3    H112951   3.265   4.003   1.350  0.9278  1.7677  0.3454
 4315TIP3    H212952   3.174   4.072   1.449 -1.6258  1.3610 -1.6250
 4316TIP3   OH212953   4.521   0.821   2.272 -0.2265  0.1259  0.7509
 4316TIP3    H112954   4.476   0.736   2.274  0.6437 -0.5323 -2.4151
 4316TIP3    H212955   4.597   0.809   2.329  0.3235 -1.5294 -0.2696
 4317TIP3   OH212956   4.321   4.874   3.555 -0.4397  0.4348  0.4147
 4317TIP3    H112957   4.261   4.840   3.490  0.1418  0.4106 -0.1229
 4317TIP3    H212958   4.284   4.846   3.639  0.3844 -2.2216 -0.0092
 4318TIP3   OH212959   2.900   1.697   3.338  0.2872 -0.0228  0.0972
 4318TIP3    H112960   2.976   1.720   3.284  0.2919  0.6253  0.3586
 4318TIP3    H212961   2.938   1.667   3.420  0.2827 -1.1329 -0.2931
 4319TIP3   OH212962   4.804   4.327   5.030  0.0278 -0.0565  0.2330
 4319TIP3    H112963   4.766   4.280   5.105 -0.5997  0.1203  0.0302
 4319TIP3    H212964   4.866   4.388   5.069  0.6581 -0.8507  0.5225
 4320TIP3   OH212965   0.080   1.307   0.825 -0.5210 -0.0040  0.1864
 4320TIP3    H112966   0.136   1.266   0.759  1.7025  0.8229  1.4280
 4320TIP3    H212967   0.081   1.400   0.804  0.3326  0.2889  1.3979
 4321TIP3   OH212968   5.634   2.256   3.188  0.0644 -0.0327 -0.0206
 4321TIP3    H112969   5.672   2.302   3.262 -0.1052 -4.1016  2.9277
 4321TIP3    H212970   5.542   2.280   3.189  0.5195  1.8825 -0.6171
 4322TIP3   OH212971   4.573   3.865   2.342  0.4089  0.1154 -0.2316
 4322TIP3    H112972   4.483   3.889   2.318  0.1909 -0.0667  0.3821
 4322TIP3    H212973   4.575   3.770   2.331  0.2617  0.0088  0.5827
 4323TIP3   OH212974   2.707   2.698   2.448  0.6928  0.0712 -0.2295
 4323TIP3    H112975   2.753   2.635   2.504  0.4622 -1.3890 -1.6288
 4323TIP3    H212976   2.774   2.762   2.424  0.7039  1.0308  2.0316
 4324TIP3   OH212977   3.234   2.282   0.775  0.0037 -0.4573  1.0166
 4324TIP3    H112978   3.297   2.239   0.833  1.6478  1.3357  0.6730
 4324TIP3    H212979   3.262   2.374   0.773 -1.1703 -0.0794 -1.0495
 4325TIP3   OH212980   2.288   0.702   0.308  0.1677  0.3914 -0.7718
 4325TIP3    H112981   2.363   0.665   0.262 -1.4037 -0.6033 -2.7018
 4325TIP3    H212982   2.213   0.653   0.273 -1.3435  1.0311  1.3925
 4326TIP3   OH212983   1.829   0.304   3.393  0.2368 -0.0195  0.5266
 4326TIP3    H112984   1.751   0.356   3.374  1.7204  1.5664 -1.7335
 4326TIP3    H212985   1.847   0.320   3.485 -1.7162  0.0723  0.9395
 4327TIP3   OH212986   2.944   4.192   0.342 -0.2123  0.1152 -0.6292
 4327TIP3    H112987   2.961   4.226   0.255 -0.2581  0.0331 -0.6701
 4327TIP3    H212988   2.924   4.270   0.395  1.8674  0.4103 -0.1942
 4328TIP3   OH212989   4.873   4.719   1.033  0.0341 -0.3663  0.2513
 4328TIP3    H112990   4.858   4.696   0.942 -0.8898  0.1528  0.2664
 4328TIP3    H212991   4.968   4.718   1.042  0.1228 -0.8095 -0.6085
 4329TIP3   OH212992   6.078   1.008   4.876 -0.0598 -0.4072 -0.0254
 4329TIP3    H112993   6.059   1.053   4.794  0.3024 -0.6694 -0.2549
 4329TIP3    H212994   6.016   0.935   4.879  0.5933 -1.0034 -0.5638
 4330TIP3   OH212995   0.620   1.779   1.164 -0.4005 -0.4971  1.1189
 4330TIP3    H112996   0.608   1.867   1.200 -2.8789 -0.2473 -0.1469
 4330TIP3    H212997   0.603   1.789   1.071  0.7162 -2.0972  0.7059
 4331TIP3   OH212998   6.063   0.337   4.107  0.1611 -0.4756  0.3388
 4331TIP3    H112999   6.070   0.310   4.016 -1.1387  2.1372 -0.6346
 4331TIP3    H213000   6.153   0.351   4.135  0.5183  1.4320 -1.5180
 4332TIP3   OH213001   2.595   3.994   1.691  0.5388  0.1442 -0.1338
 4332TIP3    H113002   2.539   4.071   1.678  0.9817  0.1649 -2.3933
 4332TIP3    H213003   2.534   3.922   1.707 -0.0036  0.5838 -0.1978
 4333TIP3   OH213004   5.130   3.577   4.251  0.1715 -0.1930 -0.6220
 4333TIP3    H113005   5.063   3.577   4.319 -0.7021  2.9223 -1.2855
 4333TIP3    H213006   5.149   3.485   4.235 -2.9826 -1.1671  0.5582
 4334TIP3   OH213007   0.939   1.126   2.348 -0.0765 -0.5549  0.1902
 4334TIP3    H113008   1.027   1.128   2.386 -0.0518  0.9781  0.1333
 4334TIP3    H213009   0.945   1.181   2.270 -0.6691 -1.8873 -0.8321
 4335TIP3   OH213010   0.590   4.434   2.949  0.3566  0.7499 -0.4192
 4335TIP3    H113011   0.603   4.394   2.862  0.9617 -0.3812  0.1705
 4335TIP3    H213012   0.617   4.366   3.011 -0.8870  1.2336  0.6919
 4336TIP3   OH213013   3.276   0.397   3.718 -0.3882  0.1844  0.3323
 4336TIP3    H113014   3.189   0.392   3.756 -0.0875 -0.6455  0.9457
 4336TIP3    H213015   3.264   0.444   3.635 -1.5301 -0.5577  0.0592
 4337TIP3   OH213016   5.012   2.303   2.575 -0.3296 -0.1129  0.0349
 4337TIP3    H113017   4.970   2.226   2.537 -0.7799 -0.0711  0.4404
 4337TIP3    H213018   4.951   2.332   2.643 -1.2574  1.8899 -1.5410
 4338TIP3   OH213019   2.425   5.728   1.779  0.1453 -0.4120  0.0604
 4338TIP3    H113020   2.521   5.725   1.770  0.3551  2.9731 -0.0837
 4338TIP3    H213021   2.394   5.757   1.693 -0.9277 -0.6074  0.3688
 4339TIP3   OH213022   0.443   2.611   2.634  0.2994 -0.0508 -0.2989
 4339TIP3    H113023   0.440   2.703   2.610  1.0452 -0.0195 -0.3003
 4339TIP3    H213024   0.423   2.609   2.727 -0.4566  0.0353 -0.4532
 4340TIP3   OH213025   5.670   4.457   4.448 -0.1322  0.2900 -0.1256
 4340TIP3    H113026   5.669   4.553   4.453 -0.6483  0.2110  2.2154
 4340TIP3    H213027   5.746   4.431   4.499  1.0687 -0.5619 -2.2206
 4341TIP3   OH213028   2.768   3.909   0.843  0.4309  0.5588 -0.1259
 4341TIP3    H113029   2.841   3.926   0.903  0.3381 -1.5836  0.6668
 4341TIP3    H213030   2.697   3.965   0.876  0.2172 -0.9176  2.1397
 4342TIP3   OH213031   2.449   1.480   5.080 -0.1754  0.3128  0.2889
 4342TIP3    H113032   2.409   1.456   4.997  0.1073 -1.2894  0.5928
 4342TIP3    H213033   2.388   1.542   5.120 -0.9637  0.0411 -0.4871
 4343TIP3   OH213034   4.053   2.421   0.201 -0.3923 -0.0161 -0.5060
 4343TIP3    H113035   4.048   2.505   0.247 -0.5569 -1.1449  1.6444
 4343TIP3    H213036   4.146   2.396   0.206 -0.7308 -1.0721  1.0279
 4344TIP3   OH213037   2.572   1.701   4.368 -0.3281 -0.7105 -0.4264
 4344TIP3    H113038   2.557   1.682   4.461 -4.5151  1.6576 -0.3804
 4344TIP3    H213039   2.604   1.791   4.367  3.0683 -1.7943 -1.3051
 4345TIP3   OH213040   5.552   5.772   0.995  0.4690  0.5018 -0.7466
 4345TIP3    H113041   5.518   5.721   0.922 -1.0313 -1.5961  1.3080
 4345TIP3    H213042   5.476   5.790   1.050  1.8068  0.4736  1.1982
 4346TIP3   OH213043   6.172   4.601   0.585  0.1447  0.3728 -0.2934
 4346TIP3    H113044   6.141   4.587   0.495  0.7339 -0.9812 -0.3067
 4346TIP3    H213045   6.210   4.517   0.611  0.3896  0.8780  1.0716
 4347TIP3   OH213046   0.462   2.419   1.045  0.0738 -0.0391 -0.3601
 4347TIP3    H113047   0.435   2.466   0.965  1.4770 -1.2582 -1.5946
 4347TIP3    H213048   0.417   2.466   1.116  0.8450  2.7392 -1.5741
 4348TIP3   OH213049   4.840   3.869   1.997 -0.0463  0.8254  0.0023
 4348TIP3    H113050   4.932   3.854   1.975 -0.1692  1.5198 -1.0406
 4348TIP3    H213051   4.837   3.959   2.029 -0.3975  0.8943 -0.2198
 4349TIP3   OH213052   1.737   2.927   0.812  0.0980 -0.5250  0.2034
 4349TIP3    H113053   1.664   2.986   0.831 -0.1302 -0.3121 -1.2412
 4349TIP3    H213054   1.810   2.963   0.863 -0.6446 -0.4345  1.2462
 4350TIP3   OH213055   5.238   0.136   2.471 -0.2185 -0.1060  0.4592
 4350TIP3    H113056   5.174   0.096   2.529  1.7750 -2.7977  1.0045
 4350TIP3    H213057   5.231   0.086   2.390 -0.5580  1.3051 -0.4123
 4351TIP3   OH213058   0.017   1.562   1.849  0.0454 -0.0360  0.3558
 4351TIP3    H113059  -0.046   1.497   1.817  1.6883 -0.1815 -3.0021
 4351TIP3    H213060   0.035   1.536   1.939 -3.5152 -0.8297  0.9530
 4352TIP3   OH213061   2.448   1.051   0.713  0.4621  0.1558  0.4826
 4352TIP3    H113062   2.446   1.092   0.799  0.0980 -1.5486  1.3204
 4352TIP3    H213063   2.507   0.976   0.723  1.0102  0.3603 -0.9572
 4353TIP3   OH213064   1.953   5.584   1.936  0.2330 -0.6465 -0.3856
 4353TIP3    H113065   2.009   5.567   2.011  0.6639  2.5503  0.1610
 4353TIP3    H213066   1.864   5.575   1.969  0.4239  0.3141  0.4197
 4354TIP3   OH213067   2.071   5.866   3.392  0.3687  0.3439  0.4427
 4354TIP3    H113068   2.147   5.862   3.451  0.9208  2.2981 -0.0653
 4354TIP3    H213069   2.050   5.959   3.386 -0.9724  0.0023 -0.8502
 4355TIP3   OH213070   1.495   2.959   0.410 -0.0995 -0.4818 -0.1668
 4355TIP3    H113071   1.491   2.881   0.355 -0.7452 -0.5291 -0.0593
 4355TIP3    H213072   1.585   2.960   0.444  0.8095  0.3490 -2.3854
 4356TIP3   OH213073   4.704   0.386   3.315  0.1779  0.0383 -0.5689
 4356TIP3    H113074   4.759   0.339   3.378 -1.4176  0.4583  1.2552
 4356TIP3    H213075   4.686   0.322   3.246  0.6575 -0.9816  0.2166
 4357TIP3   OH213076   5.922   4.155   4.540  0.2219  0.6632 -0.1987
 4357TIP3    H113077   5.964   4.126   4.621  0.4831  1.2733 -0.1120
 4357TIP3    H213078   5.830   4.133   4.552  0.3134  0.4377  0.1186
 4358TIP3   OH213079   5.352   4.085   4.764  0.5954  0.4511 -0.2063
 4358TIP3    H113080   5.424   4.148   4.759 -0.7745  2.7159  3.8499
 4358TIP3    H213081   5.288   4.116   4.700  0.7472  2.1308  0.4090
 4359TIP3   OH213082   2.118   3.948   2.717  0.1536 -0.3871 -0.4330
 4359TIP3    H113083   2.169   4.029   2.710 -0.0564 -0.1407  0.6731
 4359TIP3    H213084   2.055   3.953   2.646  0.1532  0.4170 -0.3815
 4360TIP3   OH213085   3.300   3.374   0.224  0.2003 -0.2602 -0.5625
 4360TIP3    H113086   3.364   3.316   0.265  0.6145 -0.3483 -1.3159
 4360TIP3    H213087   3.268   3.326   0.148 -1.5039 -0.6196  0.3398
 4361TIP3   OH213088   6.148   5.498   3.043 -0.3156  0.1702  0.1230
 4361TIP3    H113089   6.188   5.450   3.115 -2.1096  0.6787  1.5319
 4361TIP3    H213090   6.124   5.430   2.980 -0.3533 -0.4803  0.8233
 4362TIP3   OH213091   3.670   0.124   1.109  0.2194 -0.1229  0.2783
 4362TIP3    H113092   3.644   0.214   1.132 -0.4608 -0.4277  0.7330
 4362TIP3    H213093   3.620   0.104   1.031  1.2228  0.2869 -0.4910
 4363TIP3   OH213094   2.682   1.420   4.477 -0.1515 -0.3579 -0.1299
 4363TIP3    H113095   2.747   1.476   4.519 -0.3931 -1.5318  1.9484
 4363TIP3    H213096   2.702   1.425   4.384  1.4080  1.1527  0.2426
 4364TIP3   OH213097   4.431   2.899   4.903  0.2308 -0.3001 -0.0049
 4364TIP3    H113098   4.467   2.829   4.957 -0.4426 -1.4214 -0.9433
 4364TIP3    H213099   4.370   2.945   4.961  1.1022 -0.1226  0.7863
 4365TIP3   OH213100   5.112   1.899   0.340 -0.2960  0.4997 -0.0153
 4365TIP3    H113101   5.175   1.885   0.269 -1.8751  1.5471 -1.7108
 4365TIP3    H213102   5.131   1.987   0.372  0.3321  0.0768  0.8130
 4366TIP3   OH213103   1.102   2.255   3.300 -0.1615  0.0072 -0.1711
 4366TIP3    H113104   1.056   2.172   3.290 -2.6433  1.1488  0.6654
 4366TIP3    H213105   1.106   2.291   3.211  0.1034 -0.6104 -0.4100
 4367TIP3   OH213106   2.285   5.586   3.446  0.1756 -0.2153  0.8877
 4367TIP3    H113107   2.303   5.675   3.415 -0.5976  0.2633  1.7687
 4367TIP3    H213108   2.201   5.593   3.491 -0.5918 -1.6724 -0.2110
 4368TIP3   OH213109   3.830   2.764   2.245 -0.6158  0.2772 -0.3090
 4368TIP3    H113110   3.832   2.741   2.337  0.3320  1.3208 -0.0425
 4368TIP3    H213111   3.911   2.727   2.209  0.4409  2.1899 -0.0804
 4369TIP3   OH213112   0.138   1.234   4.412  0.4930 -0.1008 -0.6998
 4369TIP3    H113113   0.100   1.148   4.395  2.6132 -1.7686  2.0849
 4369TIP3    H213114   0.071   1.281   4.462  1.1300 -2.3375  2.6317
 4370TIP3   OH213115   5.046   0.244   3.207  0.5506  0.4052  0.2807
 4370TIP3    H113116   5.059   0.291   3.290 -0.0238  0.6423  0.2349
 4370TIP3    H213117   5.057   0.310   3.139  1.0550  0.2034  0.1626
 4371TIP3   OH213118   1.719   3.073   1.213  0.1944 -0.2473  0.4710
 4371TIP3    H113119   1.772   3.018   1.270  0.4332 -1.7480 -1.1163
 4371TIP3    H213120   1.758   3.160   1.220 -0.2047 -0.2032  3.0479
 4372TIP3   OH213121   4.282   3.313   3.808 -0.2699 -0.2373 -0.2548
 4372TIP3    H113122   4.236   3.258   3.744 -1.2072  0.4215 -0.1639
 4372TIP3    H213123   4.259   3.403   3.784  0.8868  0.1135 -0.1262
 4373TIP3   OH213124   2.350   1.345   4.801  0.0602 -0.2947 -0.4772
 4373TIP3    H113125   2.438   1.380   4.810  0.8215 -2.2947  0.6598
 4373TIP3    H213126   2.360   1.251   4.816 -2.0647 -0.7990 -1.7380
 4374TIP3   OH213127   3.228   1.537   4.253  0.2953 -0.7477 -0.3204
 4374TIP3    H113128   3.143   1.522   4.295  0.4137 -2.2374 -0.5722
 4374TIP3    H213129   3.206   1.573   4.166 -0.0730 -1.0340 -0.3459
 4375TIP3   OH213130   4.891   5.429   1.112  0.0469 -0.3874  0.1652
 4375TIP3    H113131   4.972   5.419   1.161  1.0904 -0.5689 -1.4893
 4375TIP3    H213132   4.915   5.404   1.022 -1.9924 -1.0133 -0.2437
 4376TIP3   OH213133   0.522   1.964   4.271  0.3882 -0.2135  0.2917
 4376TIP3    H113134   0.501   2.050   4.233  0.1116 -0.1031  0.6842
 4376TIP3    H213135   0.467   1.903   4.222  1.4993 -0.3398 -0.8414
 4377TIP3   OH213136   3.404   0.527   0.711 -0.1537 -0.1956  0.5011
 4377TIP3    H113137   3.417   0.476   0.631 -2.1337 -0.5078  0.3264
 4377TIP3    H213138   3.325   0.579   0.694  1.1491  2.1004  1.1078
 4378TIP3   OH213139   0.452   5.775   2.515  0.2158  0.4867  0.2149
 4378TIP3    H113140   0.480   5.860   2.484  1.2830  0.7283  1.7233
 4378TIP3    H213141   0.530   5.720   2.511 -0.3598 -0.3231 -0.3611
 4379TIP3   OH213142   1.962   3.427   2.889  0.6936  0.7061  0.4059
 4379TIP3    H113143   1.976   3.445   2.982 -0.2530 -1.3511  0.9883
 4379TIP3    H213144   2.047   3.397   2.857  0.3487 -1.4279  1.3543
 4380TIP3   OH213145   3.638   5.053   2.749  0.3554 -0.2335  0.6231
 4380TIP3    H113146   3.596   5.039   2.664 -0.4298 -0.8536  1.0927
 4380TIP3    H213147   3.570   5.030   2.813  0.5978  1.1695  1.4302
 4381TIP3   OH213148   4.873   3.410   0.579  0.0794  0.1077  0.6307
 4381TIP3    H113149   4.779   3.399   0.565  0.0410  0.1982  0.8147
 4381TIP3    H213150   4.912   3.402   0.492  0.0616 -1.4804  0.7420
 4382TIP3   OH213151   1.655   0.683   3.911 -0.1615 -0.2287  0.5993
 4382TIP3    H113152   1.662   0.599   3.955 -0.4945 -1.5616 -1.7395
 4382TIP3    H213153   1.740   0.725   3.925  0.9917 -2.1230 -0.3914
 4383TIP3   OH213154   5.818   3.074   0.259 -0.3283 -0.0729  0.2531
 4383TIP3    H113155   5.782   3.107   0.341  1.1639  0.8116  0.5943
 4383TIP3    H213156   5.793   3.139   0.193 -1.3105 -0.6541  0.0364
 4384TIP3   OH213157   3.319   3.010   1.476  0.1436 -0.2312 -0.4914
 4384TIP3    H113158   3.247   3.011   1.414  0.4990 -2.4675 -1.0265
 4384TIP3    H213159   3.315   2.924   1.517  1.8542 -0.0125  0.2587
 4385TIP3   OH213160   3.975   3.709   3.067 -0.3172 -0.2379 -0.2523
 4385TIP3    H113161   3.945   3.671   3.150  1.7307 -0.5018  0.4280
 4385TIP3    H213162   3.905   3.769   3.042 -1.0865 -0.2917  1.5727
 4386TIP3   OH213163   0.661   3.027   3.579 -0.0884 -0.0031 -0.0028
 4386TIP3    H113164   0.647   3.047   3.487  0.1060  0.8802  0.1417
 4386TIP3    H213165   0.574   3.016   3.616 -0.1299 -1.8749 -0.5871
 4387TIP3   OH213166   2.462   5.647   3.743  0.3515 -0.1172 -0.4279
 4387TIP3    H113167   2.494   5.652   3.653 -1.8442 -1.5803 -1.3735
 4387TIP3    H213168   2.470   5.555   3.767  0.7769  0.2267  0.8566
 4388TIP3   OH213169   2.703   3.849   2.387 -0.3934  0.5911 -1.1866
 4388TIP3    H113170   2.779   3.846   2.329  0.5371  2.4164 -0.1471
 4388TIP3    H213171   2.629   3.863   2.328 -0.0878 -1.7759 -2.2749
 4389TIP3   OH213172   6.185   3.044   1.470  0.1953  0.1231 -0.5895
 4389TIP3    H113173   6.226   2.985   1.406 -2.0875  0.4135 -2.4271
 4389TIP3    H213174   6.155   3.118   1.419 -1.3494  0.5838  0.8951
 4390TIP3   OH213175   4.489   5.036   0.159 -0.3237 -0.3600  0.0597
 4390TIP3    H113176   4.438   4.967   0.201 -0.2863 -0.9701 -0.8675
 4390TIP3    H213177   4.426   5.107   0.145 -0.1017  0.2859  2.0675
 4391TIP3   OH213178   5.959   2.035   0.564 -0.4979 -0.1024 -0.0038
 4391TIP3    H113179   5.955   2.010   0.472 -3.2178 -1.0189  0.2992
 4391TIP3    H213180   5.899   2.109   0.572 -2.2569 -1.5883  1.4183
 4392TIP3   OH213181   2.183   2.142   3.624  0.0374  0.3525 -0.4823
 4392TIP3    H113182   2.108   2.200   3.614  0.3222  0.6559 -0.9116
 4392TIP3    H213183   2.149   2.066   3.672 -0.5407  0.4839 -0.6741
 4393TIP3   OH213184   1.059   1.696   2.203  0.1952  0.3397  0.3199
 4393TIP3    H113185   1.015   1.699   2.118  1.1619  2.7596 -0.1805
 4393TIP3    H213186   1.002   1.746   2.262  0.4698  0.3245  0.6008
 4394TIP3   OH213187   2.629   4.645   1.611  0.1111 -0.2509  0.2061
 4394TIP3    H113188   2.594   4.573   1.664  0.5066  0.2823  1.2323
 4394TIP3    H213189   2.702   4.606   1.563 -3.2666 -2.1043 -4.0605
 4395TIP3   OH213190   1.934   2.286   3.678 -0.1579  0.2047 -0.0102
 4395TIP3    H113191   1.879   2.279   3.756 -0.4873  0.0006 -0.2584
 4395TIP3    H213192   1.900   2.220   3.618 -0.2024  0.6700 -0.5095
 4396TIP3   OH213193   3.857   3.613   0.755  0.1864  0.2820  0.1211
 4396TIP3    H113194   3.918   3.633   0.826  0.9393  0.3136 -0.5191
 4396TIP3    H213195   3.897   3.654   0.678  0.9041 -2.1721 -0.9036
 4397TIP3   OH213196   4.884   1.874   0.893  0.7605  0.1876  0.1315
 4397TIP3    H113197   4.835   1.799   0.927 -1.0517  1.5743  0.6904
 4397TIP3    H213198   4.976   1.848   0.903  0.1974 -1.5873  1.1512
 4398TIP3   OH213199   0.207   5.360   2.269  0.4630 -0.7641 -0.5478
 4398TIP3    H113200   0.228   5.417   2.195 -0.5559 -2.0619 -1.8965
 4398TIP3    H213201   0.271   5.289   2.263 -0.6295 -1.7279 -1.2177
 4399TIP3   OH213202   3.424   3.648   1.265  0.4116  0.0201 -0.2793
 4399TIP3    H113203   3.463   3.701   1.196  2.0225 -1.2012 -0.3677
 4399TIP3    H213204   3.460   3.560   1.252 -0.7196 -0.6745  0.9780
 4400TIP3   OH213205   0.545   2.728   3.697  0.1744  0.1889 -0.3860
 4400TIP3    H113206   0.640   2.719   3.691  0.2510  0.9765 -0.4571
 4400TIP3    H213207   0.531   2.772   3.781 -0.1626 -0.4129 -0.1254
 4401TIP3   OH213208   4.281   2.333   2.298 -0.1770  0.0688 -0.5818
 4401TIP3    H113209   4.259   2.413   2.346 -1.2659 -0.9773  0.7398
 4401TIP3    H213210   4.362   2.354   2.252  0.1498  1.5712  0.6054
 4402TIP3   OH213211  -0.004   0.615   3.811 -0.2607  0.5226  0.2968
 4402TIP3    H113212  -0.053   0.697   3.807  0.2242  0.8120  0.1348
 4402TIP3    H213213   0.060   0.623   3.740 -1.0445 -0.5472 -0.5620
 4403TIP3   OH213214   2.859   4.752   0.627 -0.3386 -0.2950  0.8202
 4403TIP3    H113215   2.946   4.740   0.666 -1.0117 -0.2625  2.4377
 4403TIP3    H213216   2.875   4.760   0.534  1.5845  1.6161  1.2404
 4404TIP3   OH213217   1.368   3.923   2.102 -0.7293  0.2040  0.1717
 4404TIP3    H113218   1.426   3.938   2.028 -1.3436 -0.5040 -0.4727
 4404TIP3    H213219   1.419   3.868   2.162 -1.0339 -1.2871 -0.8558
 4405TIP3   OH213220   3.367   2.536   0.707 -0.2254  0.1980 -0.6852
 4405TIP3    H113221   3.409   2.621   0.719 -0.1865 -0.0530  1.3471
 4405TIP3    H213222   3.274   2.553   0.723 -0.2501 -0.0707 -0.5277
 4406TIP3   OH213223   2.242   0.572   3.696  0.2068  0.4156 -0.7543
 4406TIP3    H113224   2.181   0.645   3.680 -1.4934 -1.1232 -1.7755
 4406TIP3    H213225   2.288   0.596   3.776  0.3982  3.0129 -1.5419
 4407TIP3   OH213226   2.370   3.870   0.215 -0.1891  0.7041 -0.1891
 4407TIP3    H113227   2.283   3.900   0.188  0.2719  1.1684 -1.2257
 4407TIP3    H213228   2.419   3.951   0.229 -0.1720  0.4600  1.3152
 4408TIP3   OH213229   5.058   5.693   3.371  0.3746 -0.4618 -0.2877
 4408TIP3    H113230   5.028   5.780   3.396 -1.0371 -1.0872  0.3660
 4408TIP3    H213231   5.014   5.676   3.288 -0.8968 -1.2660  0.5190
 4409TIP3   OH213232   1.346   1.157   0.032 -0.3469  0.1157  0.3546
 4409TIP3    H113233   1.310   1.068   0.023  0.5052 -0.0285 -2.3148
 4409TIP3    H213234   1.270   1.211   0.054 -1.1947 -0.9970  0.3042
 4410TIP3   OH213235   2.976   4.976   4.169 -0.1948 -0.3035 -0.4438
 4410TIP3    H113236   2.971   4.948   4.260  0.7646  0.3559 -0.1662
 4410TIP3    H213237   2.944   4.902   4.119 -2.7126  0.0364  0.5095
 4411TIP3   OH213238   1.616   3.609   2.754 -0.2470  0.0211 -0.5821
 4411TIP3    H113239   1.574   3.659   2.684  2.3079  0.7412 -1.7002
 4411TIP3    H213240   1.548   3.549   2.785 -1.5777 -0.0962 -3.4449
 4412TIP3   OH213241   1.891   4.975   2.671 -0.0507  0.3567  0.2046
 4412TIP3    H113242   1.914   4.966   2.763 -0.4349 -1.8242  0.1245
 4412TIP3    H213243   1.806   5.019   2.672 -1.2592 -1.8403  1.0745
 4413TIP3   OH213244   5.432   5.772   3.252 -0.1948  0.0262  0.1712
 4413TIP3    H113245   5.385   5.841   3.299 -0.8005 -0.0157 -0.3500
 4413TIP3    H213246   5.391   5.691   3.281  0.6183 -0.1384  0.8957
 4414TIP3   OH213247   0.921   4.778   2.115  0.1758  0.0191  0.2245
 4414TIP3    H113248   1.007   4.808   2.083  0.9616 -1.1582  1.1481
 4414TIP3    H213249   0.878   4.743   2.037 -0.3755  2.5022 -0.6890
 4415TIP3   OH213250   5.394   1.860   0.822 -0.0093 -0.5937 -0.6441
 4415TIP3    H113251   5.484   1.828   0.814  1.2197  2.4457 -0.2045
 4415TIP3    H213252   5.379   1.907   0.740 -0.8430 -0.2346 -0.2876
 4416TIP3   OH213253   0.116   4.245   4.914 -0.2589  0.1140 -0.4046
 4416TIP3    H113254   0.033   4.206   4.886 -0.1333 -0.4093 -0.0716
 4416TIP3    H213255   0.144   4.191   4.988 -0.2512  1.0606  0.3042
 4417TIP3   OH213256   5.284   3.225   0.258  0.2105  0.0265  0.7931
 4417TIP3    H113257   5.374   3.217   0.228 -0.1573  3.1794 -1.5755
 4417TIP3    H213258   5.273   3.317   0.280 -2.1475 -0.4822  2.1654
 4418TIP3   OH213259   6.124   2.350   0.069 -0.5405  0.1199  0.3740
 4418TIP3    H113260   6.196   2.286   0.068  1.2874  2.0527  0.3584
 4418TIP3    H213261   6.138   2.400   0.150 -1.4972  0.9456  0.0491
 4419TIP3   OH213262   3.971   0.330   4.726  0.2905  0.3768 -0.1085
 4419TIP3    H113263   4.001   0.416   4.697 -0.2165  0.4181 -0.5200
 4419TIP3    H213264   3.883   0.345   4.761  0.2627  0.0562 -0.0316
 4420TIP3   OH213265   4.945   5.491   3.510  0.4562 -0.2630  0.4694
 4420TIP3    H113266   4.987   5.501   3.596 -0.0175 -0.6450  0.7566
 4420TIP3    H213267   4.974   5.566   3.459 -0.3106  0.7050  1.4140
 4421TIP3   OH213268   6.072   3.382   2.895 -0.2548 -0.3933  0.5761
 4421TIP3    H113269   6.123   3.301   2.906 -0.3517 -0.5879 -0.3498
 4421TIP3    H213270   6.136   3.447   2.866 -0.3510 -0.3889  0.3720
 4422TIP3   OH213271   6.253   4.078   4.853  0.4422 -0.1646  0.3503
 4422TIP3    H113272   6.164   4.076   4.889  0.1774  0.7281 -0.2186
 4422TIP3    H213273   6.300   4.011   4.902 -0.7353 -1.1728  0.1371
 4423TIP3   OH213274   1.659   1.164   4.794 -0.4524  0.2349  0.2555
 4423TIP3    H113275   1.631   1.254   4.813 -1.2349  0.1901 -0.5649
 4423TIP3    H213276   1.614   1.111   4.859 -1.6656  0.2521 -0.5311
 4424TIP3   OH213277   2.017   3.361   1.584 -0.5643  0.3652  0.2987
 4424TIP3    H113278   1.963   3.391   1.657  0.0923  1.1555  0.4728
 4424TIP3    H213279   2.059   3.441   1.550  0.0819 -0.1552 -0.1590
 4425TIP3   OH213280   4.928   1.354   0.414 -0.0287 -0.2697 -0.2827
 4425TIP3    H113281   4.958   1.271   0.453 -1.0753 -0.9415 -0.8656
 4425TIP3    H213282   5.006   1.410   0.415  0.5605 -1.0664  0.6259
 4426TIP3   OH213283   3.869   4.902   2.728  0.0321 -0.0477 -0.1404
 4426TIP3    H113284   3.935   4.946   2.781 -1.8468  0.4984  1.8789
 4426TIP3    H213285   3.805   4.970   2.707  0.0073 -0.5784 -1.9932
 4427TIP3   OH213286   3.270   2.410   4.301  0.0596 -0.6345  0.8235
 4427TIP3    H113287   3.354   2.432   4.261  0.5305 -2.1269  0.9269
 4427TIP3    H213288   3.205   2.437   4.236  0.5443  1.2730  1.0857
 4428TIP3   OH213289   4.838   0.058   3.701 -0.2729 -0.6427  0.3015
 4428TIP3    H113290   4.832   0.070   3.796  0.8779 -2.7684  0.7018
 4428TIP3    H213291   4.930   0.072   3.681 -0.0615 -2.3526 -0.1079
 4429TIP3   OH213292   3.150   0.258   3.313  0.2031 -0.0998 -0.1894
 4429TIP3    H113293   3.202   0.248   3.393  0.5932  0.2466 -0.3891
 4429TIP3    H213294   3.089   0.185   3.314  0.4903 -0.3392  0.2116
 4430TIP3   OH213295   0.663   3.870   1.754 -0.0981 -0.3724  0.3974
 4430TIP3    H113296   0.604   3.800   1.781 -0.2191  0.0908  1.3946
 4430TIP3    H213297   0.722   3.881   1.829  0.4164  0.0593 -0.0636
 4431TIP3   OH213298   0.384   4.381   4.836 -0.4080  0.3263  0.0404
 4431TIP3    H113299   0.467   4.417   4.804 -0.5397  1.5708  1.0489
 4431TIP3    H213300   0.410   4.307   4.890  0.2057  1.7940  1.8362
 4432TIP3   OH213301   0.571   0.518   4.391  0.1108  0.1479  0.2794
 4432TIP3    H113302   0.529   0.601   4.368 -0.1999 -0.1751 -0.3315
 4432TIP3    H213303   0.637   0.542   4.456 -0.3576  0.7975  0.5243
 4433TIP3   OH213304   5.247   2.331   1.735 -0.1658  0.4981 -0.1961
 4433TIP3    H113305   5.195   2.382   1.673  0.1209  0.0513 -0.8119
 4433TIP3    H213306   5.188   2.317   1.809 -1.0611 -0.3015 -1.0256
 4434TIP3   OH213307   5.075   2.600   0.505 -0.0371 -0.1832  0.3585
 4434TIP3    H113308   5.079   2.556   0.590  2.1019  0.5927  0.7090
 4434TIP3    H213309   5.077   2.693   0.525 -0.8840  0.0532 -0.5218
 4435TIP3   OH213310   2.167   5.037   5.010 -0.3590  0.1402  0.2405
 4435TIP3    H113311   2.147   4.991   4.929 -0.1549 -1.5524  1.0942
 4435TIP3    H213312   2.232   5.103   4.986 -0.7970  0.1246 -1.0597
 4436TIP3   OH213313   3.808   2.871   0.973 -0.1540 -0.6914  0.3233
 4436TIP3    H113314   3.735   2.809   0.983  0.4807 -1.4450  0.3284
 4436TIP3    H213315   3.851   2.844   0.892  0.2428 -0.3724  0.4268
 4437TIP3   OH213316   2.763   2.826   2.905  0.2870 -0.4104 -0.0104
 4437TIP3    H113317   2.717   2.743   2.921  1.4416 -1.2832 -0.9683
 4437TIP3    H213318   2.695   2.886   2.876 -0.3093 -1.6369 -1.2982
 4438TIP3   OH213319   0.056   3.322   1.428  0.7480 -0.1480  0.0992
 4438TIP3    H113320   0.132   3.381   1.428 -0.8612  2.0753 -1.5726
 4438TIP3    H213321   0.040   3.303   1.521  1.8581  1.3497  0.6328
 4439TIP3   OH213322   0.617   1.578   0.837 -0.2264 -0.2863  0.0357
 4439TIP3    H113323   0.572   1.550   0.757  1.1285 -0.9233 -0.5210
 4439TIP3    H213324   0.671   1.652   0.810  0.0080 -0.3080  0.4424
 4440TIP3   OH213325   4.919   4.417   1.777  0.0177  0.4985 -0.7532
 4440TIP3    H113326   4.957   4.331   1.794 -0.3577  0.4024 -0.3972
 4440TIP3    H213327   4.878   4.443   1.859 -0.9552  0.4603 -1.2038
 4441TIP3   OH213328   3.963   4.569   1.349 -0.5253  0.0509  0.0102
 4441TIP3    H113329   3.989   4.624   1.275 -0.7336 -0.2315 -0.2762
 4441TIP3    H213330   4.022   4.594   1.419 -0.6913  0.7241 -0.0827
 4442TIP3   OH213331   4.125   2.986   2.160  0.0081 -0.0137 -0.2173
 4442TIP3    H113332   4.210   3.029   2.146  0.7151 -1.6825 -1.4106
 4442TIP3    H213333   4.116   2.927   2.086 -2.3058  0.2215 -0.1830
 4443TIP3   OH213334   2.109   4.059   4.338  0.4660 -0.3388 -0.1604
 4443TIP3    H113335   2.180   4.076   4.276  0.5433 -1.6895 -0.4693
 4443TIP3    H213336   2.154   4.029   4.418  0.3025  0.1980  0.1411
 4444TIP3   OH213337   5.194   0.423   0.845 -0.5500  0.3737 -0.1340
 4444TIP3    H113338   5.223   0.479   0.773  0.6604 -0.8868 -0.6650
 4444TIP3    H213339   5.151   0.349   0.802 -1.2321  0.3817  0.5183
 4445TIP3   OH213340   1.492   2.893   2.789 -0.2347 -0.3381 -0.9019
 4445TIP3    H113341   1.526   2.805   2.777  0.1547  0.0199 -2.7572
 4445TIP3    H213342   1.495   2.932   2.702 -2.7086  0.7001 -0.6052
 4446TIP3   OH213343   2.156   2.909   1.888 -0.1606  0.1242  0.4476
 4446TIP3    H113344   2.116   2.847   1.948 -4.3184 -0.3282 -2.4078
 4446TIP3    H213345   2.129   2.995   1.920  1.3509  0.2399  1.5426
 4447TIP3   OH213346   2.680   5.581   2.770 -0.7759 -0.0720  0.1477
 4447TIP3    H113347   2.723   5.666   2.778  0.1297 -0.5984  1.1908
 4447TIP3    H213348   2.739   5.520   2.815 -1.1079 -1.3568 -1.0890
 4448TIP3   OH213349   4.091   4.148   0.389 -0.1768  0.0789 -0.5672
 4448TIP3    H113350   4.103   4.192   0.473 -0.5001  0.3088 -0.6368
 4448TIP3    H213351   4.163   4.179   0.334 -1.1215  1.5723 -1.0415
 4449TIP3   OH213352   4.914   3.126   4.137 -0.2354 -0.1942 -0.4419
 4449TIP3    H113353   4.943   3.125   4.046  1.8955 -0.1861  0.1681
 4449TIP3    H213354   4.923   3.035   4.166 -0.7368 -0.1678 -0.1962
 4450TIP3   OH213355   0.636   5.897   1.509 -0.4870  0.0724 -0.2874
 4450TIP3    H113356   0.703   5.947   1.462 -0.4415 -0.8748 -1.2803
 4450TIP3    H213357   0.684   5.851   1.577 -0.5802  1.6035  0.8759
 4451TIP3   OH213358   2.093   5.778   0.974  0.0131  0.4874  0.2140
 4451TIP3    H113359   2.154   5.841   1.012  0.6773 -1.3193  2.3306
 4451TIP3    H213360   2.035   5.754   1.046  0.5732 -2.2035 -0.1379
 4452TIP3   OH213361   4.604   2.695   2.328 -0.0993 -0.2968 -0.3745
 4452TIP3    H113362   4.694   2.714   2.302 -0.3408  1.0417 -0.2903
 4452TIP3    H213363   4.590   2.749   2.406 -1.2107  0.0999 -0.8325
 4453TIP3   OH213364   0.568   5.720   3.833  0.7222  0.1875  0.1788
 4453TIP3    H113365   0.482   5.740   3.871 -0.1843 -0.7545 -1.2503
 4453TIP3    H213366   0.577   5.782   3.761  1.2654  0.2973  0.3402
 4454TIP3   OH213367   6.036   5.637   4.631  0.6230 -0.4427  0.3402
 4454TIP3    H113368   6.114   5.679   4.596  0.2732  0.0562  0.1656
 4454TIP3    H213369   6.044   5.648   4.726  1.1901 -1.1394  0.3828
 4455TIP3   OH213370   1.505   3.456   1.109  0.3016 -0.8949 -0.5414
 4455TIP3    H113371   1.553   3.526   1.153 -1.1720 -1.3798  2.0583
 4455TIP3    H213372   1.435   3.501   1.061 -0.5317 -0.5025  0.9703
 4456TIP3   OH213373   3.664   4.458   4.196  0.5877 -0.3125  0.0031
 4456TIP3    H113374   3.654   4.363   4.187  1.3067 -0.4726  0.7504
 4456TIP3    H213375   3.619   4.494   4.120 -0.7029 -1.2007  0.3084
 4457TIP3   OH213376   2.170   0.273   0.419  0.3604 -0.4708  0.2469
 4457TIP3    H113377   2.105   0.321   0.471  0.1727  0.4787 -0.8321
 4457TIP3    H213378   2.254   0.300   0.457  0.3244  1.6249 -1.0082
 4458TIP3   OH213379   2.676   0.378   4.536 -0.2291  1.0389  0.2133
 4458TIP3    H113380   2.725   0.446   4.582 -1.0456  0.7846  1.5338
 4458TIP3    H213381   2.664   0.309   4.602 -0.6808  0.2661 -0.6592
 4459TIP3   OH213382   4.604   4.479   3.083 -0.1383 -0.5334 -0.3501
 4459TIP3    H113383   4.699   4.467   3.072  0.1964  0.4931  1.0682
 4459TIP3    H213384   4.566   4.395   3.060  1.0383 -0.7230 -1.7485
 4460TIP3   OH213385   0.470   4.142   4.294  0.5379  0.0660 -0.2793
 4460TIP3    H113386   0.408   4.207   4.327 -1.6478 -1.4745 -1.0781
 4460TIP3    H213387   0.427   4.104   4.217  1.3688 -2.7578  0.5043
 4461TIP3   OH213388   2.335   5.870   3.485 -0.1255 -0.3720  0.3095
 4461TIP3    H113389   2.419   5.890   3.443  0.1422 -2.1491 -0.0678
 4461TIP3    H213390   2.339   5.915   3.569  0.5627  0.8080 -0.3252
 4462TIP3   OH213391   3.800   1.863   3.408 -0.3174 -0.5105 -0.8107
 4462TIP3    H113392   3.798   1.956   3.388  0.9109 -0.6218 -1.6043
 4462TIP3    H213393   3.889   1.848   3.442  0.2351 -1.7212 -2.6220
 4463TIP3   OH213394   0.158   4.361   3.229 -0.5732 -0.6290 -0.3205
 4463TIP3    H113395   0.140   4.427   3.296 -0.6452  0.0464 -0.9934
 4463TIP3    H213396   0.112   4.283   3.258  0.1726 -0.6390  0.9103
 4464TIP3   OH213397   0.453   5.427   1.353  0.0132 -0.3885  0.2720
 4464TIP3    H113398   0.496   5.352   1.310 -1.0271 -1.2643  0.7162
 4464TIP3    H213399   0.360   5.416   1.333 -0.4537 -0.5772  2.3216
 4465TIP3   OH213400   0.529   2.822   4.913  0.8592  0.4493 -0.7414
 4465TIP3    H113401   0.486   2.832   4.998  0.8597  1.4660 -0.8402
 4465TIP3    H213402   0.622   2.815   4.934  1.0307  2.3473 -0.7085
 4466TIP3   OH213403   6.295   2.286   2.679  0.2074 -0.0746  0.1527
 4466TIP3    H113404   6.309   2.247   2.593  0.1162  3.3517 -1.5940
 4466TIP3    H213405   6.379   2.326   2.701 -0.6941  2.1237 -0.1258
 4467TIP3   OH213406   6.237   5.180   4.263  0.1031  0.6135 -0.0887
 4467TIP3    H113407   6.289   5.182   4.343  0.4808 -2.0816 -0.1911
 4467TIP3    H213408   6.295   5.143   4.196 -1.1767 -0.1693 -0.8115
 4468TIP3   OH213409   3.065   2.042   2.913 -0.4916 -0.0479 -0.6432
 4468TIP3    H113410   3.015   2.008   2.839 -0.5876 -1.6272  0.1038
 4468TIP3    H213411   3.156   2.043   2.883 -0.5863 -0.2296 -0.9364
 4469TIP3   OH213412   1.136   4.735   4.928 -0.3491 -0.2210 -0.2690
 4469TIP3    H113413   1.185   4.817   4.937 -1.2336  0.6139 -2.4703
 4469TIP3    H213414   1.201   4.666   4.945  0.1708  0.8455  2.7723
 4470TIP3   OH213415   1.104   0.045   0.892  0.6300  0.1677 -0.9604
 4470TIP3    H113416   1.078  -0.037   0.934  0.1803  0.9104  0.2532
 4470TIP3    H213417   1.022   0.083   0.859  0.5038  1.1692  0.4222
 4471TIP3   OH213418   2.390   0.601   3.456 -0.1714 -0.0786  0.3215
 4471TIP3    H113419   2.350   0.688   3.460  1.3544  0.6762 -0.0677
 4471TIP3    H213420   2.371   0.562   3.541  0.5755  1.3259  1.1717
 4472TIP3   OH213421   1.954   1.182   3.113 -0.0906  0.0543 -0.9001
 4472TIP3    H113422   1.995   1.166   3.028 -0.1176  0.0907 -0.9203
 4472TIP3    H213423   2.000   1.259   3.147  0.5892 -0.5437 -0.4476
 4473TIP3   OH213424   4.660   4.466   2.763  0.0414  0.0763 -0.0765
 4473TIP3    H113425   4.676   4.530   2.693 -0.4274 -1.5474 -1.7509
 4473TIP3    H213426   4.564   4.457   2.765  0.1264 -0.9571 -0.2396
 4474TIP3   OH213427   1.265   4.055   0.800 -0.1734 -0.3161 -0.1089
 4474TIP3    H113428   1.309   4.019   0.723  0.3936  0.8457 -0.3545
 4474TIP3    H213429   1.201   4.116   0.764  1.6080  1.9437  0.3156
 4475TIP3   OH213430   5.014   1.152   0.126  0.5043  0.1160  0.5229
 4475TIP3    H113431   4.935   1.156   0.179  0.7427  2.5383  0.8043
 4475TIP3    H213432   4.984   1.126   0.039 -0.2218 -1.3989  1.1841
 4476TIP3   OH213433   0.215   5.820   4.836 -0.1607 -0.2046 -0.0004
 4476TIP3    H113434   0.283   5.804   4.771 -0.0673  0.0852  0.0211
 4476TIP3    H213435   0.260   5.868   4.906 -0.3868 -0.0093  0.0125
 4477TIP3   OH213436   0.795   3.094   4.166 -0.8956  0.3849  0.1204
 4477TIP3    H113437   0.846   3.137   4.234  0.8446 -2.7712  1.0008
 4477TIP3    H213438   0.839   3.116   4.084  0.0391  0.1939  0.5644
 4478TIP3   OH213439   2.791   4.233   4.886 -0.0831  0.2328  0.3281
 4478TIP3    H113440   2.827   4.284   4.813  1.5087 -1.2933 -0.0308
 4478TIP3    H213441   2.696   4.237   4.874  0.1325 -0.3476 -2.1333
 4479TIP3   OH213442   2.107   3.344   4.923  0.0162 -0.0081 -0.3930
 4479TIP3    H113443   2.026   3.329   4.972  0.2820 -1.7139 -0.3830
 4479TIP3    H213444   2.094   3.427   4.878 -1.1866  0.4142  0.6840
 4480TIP3   OH213445   1.083   5.941   1.278  0.0663  0.3330  0.2068
 4480TIP3    H113446   1.091   6.010   1.212  0.4037  1.4201  1.3326
 4480TIP3    H213447   0.991   5.915   1.275  0.4717 -1.0223 -1.9955
 4481TIP3   OH213448   0.573   3.602   4.005  0.0572  0.4893  0.0834
 4481TIP3    H113449   0.486   3.639   3.989  1.0518  2.3645 -1.3918
 4481TIP3    H213450   0.617   3.607   3.920  1.6477 -0.3108  0.8167
 4482TIP3   OH213451   1.642   2.818   3.195  0.3799 -0.3713  0.0250
 4482TIP3    H113452   1.625   2.733   3.155 -0.0725 -0.3389  0.1405
 4482TIP3    H213453   1.630   2.881   3.125 -0.7792 -0.2831  0.2744
 4483TIP3   OH213454   0.535   2.002   1.324  0.2961  0.7513 -0.0232
 4483TIP3    H113455   0.481   2.000   1.402  1.6122  1.2638  0.9322
 4483TIP3    H213456   0.491   2.064   1.266  0.0080  1.3827  0.8555
 4484TIP3   OH213457   0.872   4.157   3.382  0.0276 -0.2423  0.2713
 4484TIP3    H113458   0.898   4.131   3.294 -0.8243 -1.0546  0.2433
 4484TIP3    H213459   0.906   4.087   3.438  0.9534  0.4961  0.6536
 4485TIP3   OH213460   1.938   1.402   4.573  0.6867 -0.0093  0.5069
 4485TIP3    H113461   1.892   1.485   4.583  0.8913  0.3541 -1.2862
 4485TIP3    H213462   2.020   1.425   4.530  2.5647 -0.6619  3.4744
 4486TIP3   OH213463   2.922   2.136   2.257 -0.0871  0.4920 -0.2956
 4486TIP3    H113464   3.005   2.090   2.264 -0.3549  0.0751  0.1730
 4486TIP3    H213465   2.907   2.144   2.162  0.4012  0.4192 -0.3790
 4487TIP3   OH213466   2.007   1.442   0.950 -0.0695  0.3267 -0.0459
 4487TIP3    H113467   1.974   1.365   0.997  2.0816 -0.8820 -0.4026
 4487TIP3    H213468   2.100   1.446   0.972  0.3792  1.4241 -1.9029
 4488TIP3   OH213469   3.441   3.203   2.656  0.2515 -0.0733  0.7985
 4488TIP3    H113470   3.530   3.197   2.623 -0.0287 -1.0628  0.1655
 4488TIP3    H213471   3.450   3.218   2.750  1.0763 -0.1036  0.7243
 4489TIP3   OH213472   4.313   1.888   4.862 -0.0906 -0.3451  0.2610
 4489TIP3    H113473   4.222   1.908   4.884  0.0425 -0.2256  0.6995
 4489TIP3    H213474   4.317   1.897   4.767 -0.2760  0.7134  0.3463
 4490TIP3   OH213475   6.283   3.865   3.223  0.3007  0.5491  0.3732
 4490TIP3    H113476   6.327   3.950   3.212  1.4086 -0.0372  0.1798
 4490TIP3    H213477   6.216   3.882   3.289  0.1097  1.7194 -0.0927
 4491TIP3   OH213478   4.834   4.649   0.766  0.5811 -0.3274  0.0030
 4491TIP3    H113479   4.762   4.588   0.781  0.1785  0.3276  0.8489
 4491TIP3    H213480   4.805   4.702   0.691 -0.2271  0.4970  0.8712
 4492TIP3   OH213481   0.883   0.840   4.412 -0.6186 -0.5066  0.2172
 4492TIP3    H113482   0.896   0.929   4.379 -0.6394 -0.7448 -0.4344
 4492TIP3    H213483   0.862   0.788   4.335  0.3898 -1.2778  0.4425
 4493TIP3   OH213484   1.353   5.690   0.235  0.5068 -0.1922 -0.1121
 4493TIP3    H113485   1.364   5.603   0.274 -0.6275  0.1473  1.0106
 4493TIP3    H213486   1.264   5.690   0.200  0.6793  0.3522 -0.5702
 4494TIP3   OH213487   3.514   5.502   3.048 -0.0790  0.3596  0.4127
 4494TIP3    H113488   3.499   5.578   3.105 -0.5645 -1.2557  2.5664
 4494TIP3    H213489   3.607   5.482   3.059  0.1567  0.8982 -0.5238
 4495TIP3   OH213490   4.409   2.796   4.488 -0.7110 -0.5202  0.9669
 4495TIP3    H113491   4.368   2.709   4.490 -1.2476 -0.3029 -0.2014
 4495TIP3    H213492   4.486   2.786   4.544 -0.5359 -1.8733  0.5355
 4496TIP3   OH213493   1.950   4.072   1.311  0.0874  0.0422 -0.2573
 4496TIP3    H113494   1.897   4.131   1.258  1.5286  0.9817 -0.7065
 4496TIP3    H213495   1.886   4.021   1.362 -1.2420  0.6323 -1.2872
 4497TIP3   OH213496   2.465   1.578   1.102  0.3475 -0.3964 -0.3525
 4497TIP3    H113497   2.459   1.493   1.146  2.8560 -1.5580 -2.0576
 4497TIP3    H213498   2.401   1.633   1.147  1.0792 -2.1512  3.1747
 4498TIP3   OH213499   3.748   4.156   0.559 -0.1144  0.3490 -0.7055
 4498TIP3    H113500   3.704   4.086   0.512 -0.4294 -1.0584  1.5152
 4498TIP3    H213501   3.823   4.114   0.600  0.0874  1.4571  0.1160
 4499TIP3   OH213502   0.899   1.848   0.474  0.0845  0.0209  0.2683
 4499TIP3    H113503   0.862   1.842   0.386  0.9190  1.6231 -0.2341
 4499TIP3    H213504   0.936   1.936   0.479  1.9499 -0.7632  1.4790
 4500TIP3   OH213505   4.842   0.730   0.365  0.7605  0.0173 -0.2494
 4500TIP3    H113506   4.860   0.642   0.397 -0.4136 -1.0766 -2.3934
 4500TIP3    H213507   4.773   0.763   0.423  0.4531 -0.8978 -0.0775
 4501TIP3   OH213508   2.361   0.794   1.190 -0.3382  0.2068 -0.3808
 4501TIP3    H113509   2.314   0.782   1.272 -1.6669  1.3427 -0.9508
 4501TIP3    H213510   2.301   0.844   1.134 -0.1724 -1.9336 -2.6611
 4502TIP3   OH213511   1.123   5.879   4.327 -0.1138 -0.2685  0.4610
 4502TIP3    H113512   1.181   5.838   4.392 -1.0551 -0.2867  1.3220
 4502TIP3    H213513   1.054   5.919   4.379  0.8017  2.5601 -0.3313
 4503TIP3   OH213514   0.604   1.099   3.070 -0.8294  0.4345 -0.7468
 4503TIP3    H113515   0.579   1.011   3.041 -0.7209 -0.3829  1.4414
 4503TIP3    H213516   0.539   1.121   3.137  1.4229  0.2426  1.6619
 4504TIP3   OH213517   0.593   3.414   5.107 -0.1299 -0.9362  0.2778
 4504TIP3    H113518   0.683   3.446   5.095 -1.7686  5.8252  1.7373
 4504TIP3    H213519   0.585   3.396   5.200  0.2097 -4.5449 -0.2510
 4505TIP3   OH213520   1.434   0.674   5.012 -0.1271  0.0510 -0.5660
 4505TIP3    H113521   1.413   0.766   4.998 -1.4810 -0.3582 -1.3902
 4505TIP3    H213522   1.493   0.674   5.087  1.6050  1.7680 -1.8224
 4506TIP3   OH213523   2.470   0.119   1.923  0.3915 -0.5149 -0.1377
 4506TIP3    H113524   2.445   0.118   2.016 -0.6402  1.8521 -0.3165
 4506TIP3    H213525   2.394   0.082   1.878  0.3158 -0.3543 -0.1417
 4507TIP3   OH213526   0.710   0.016   2.983 -0.2466  0.1160  0.6150
 4507TIP3    H113527   0.701  -0.073   2.948 -2.0583  1.2003 -2.0548
 4507TIP3    H213528   0.775   0.057   2.927 -0.3106  0.7978  1.0379
 4508TIP3   OH213529   1.606   5.516   4.284  0.6717 -0.1187 -0.7829
 4508TIP3    H113530   1.657   5.591   4.252  4.3965 -0.5677  3.2041
 4508TIP3    H213531   1.551   5.552   4.354  0.0137 -0.6492 -1.0144
 4509TIP3   OH213532   3.015   5.904   4.079  0.4380 -0.1372  0.5415
 4509TIP3    H113533   3.103   5.916   4.115  0.8567 -1.3260 -0.0214
 4509TIP3    H213534   3.026   5.914   3.985 -0.2079  0.6041  0.5347
 4510TIP3   OH213535   4.141   5.221   0.317  0.1806 -0.0737 -0.0692
 4510TIP3    H113536   4.067   5.184   0.268  0.8979 -0.0419 -1.2084
 4510TIP3    H213537   4.104   5.299   0.358 -0.3624  0.0988 -0.8514
 4511TIP3   OH213538   5.774   2.362   2.120  0.2886  0.1761  0.2562
 4511TIP3    H113539   5.861   2.395   2.145  0.6897 -1.6253  1.3996
 4511TIP3    H213540   5.783   2.267   2.120 -1.1547 -0.0344 -1.7124
 4512TIP3   OH213541   1.566   0.852   1.302  0.6268  0.1419 -0.2313
 4512TIP3    H113542   1.660   0.867   1.317  0.3677  0.1933  1.5178
 4512TIP3    H213543   1.543   0.912   1.231  1.5886  1.2884  0.3940
 4513TIP3   OH213544   3.163   4.999   4.635  0.4037  0.0103 -0.3048
 4513TIP3    H113545   3.221   5.069   4.666  1.0945 -0.8696  0.4440
 4513TIP3    H213546   3.075   5.036   4.642  0.3948 -0.3656  3.6742
 4514TIP3   OH213547   1.237   3.047   3.820 -0.5983  0.2785 -0.2079
 4514TIP3    H113548   1.168   3.109   3.844 -1.8409 -0.9420 -0.4679
 4514TIP3    H213549   1.227   3.037   3.725 -2.2974 -2.3643  0.1484
 4515TIP3   OH213550   6.169   2.837   2.081 -0.0717  0.0966 -0.1884
 4515TIP3    H113551   6.220   2.789   2.147  0.7182  1.2694  0.0965
 4515TIP3    H213552   6.134   2.770   2.024 -1.1697 -1.0171  1.6844
 4516TIP3   OH213553   6.066   5.309   2.894 -0.4553  0.3045  0.3044
 4516TIP3    H113554   6.005   5.347   2.830  0.8520  0.9995 -0.5849
 4516TIP3    H213555   6.087   5.222   2.859  0.5434  0.8251 -0.4613
 4517TIP3   OH213556   6.119   4.782   0.766  0.0051  0.0245 -0.2796
 4517TIP3    H113557   6.045   4.761   0.824  1.3434  0.4876  1.6968
 4517TIP3    H213558   6.133   4.702   0.716  0.5276 -1.4212  2.0360
 4518TIP3   OH213559   6.041   4.404   2.672 -0.2615 -0.4690  0.1387
 4518TIP3    H113560   6.016   4.371   2.758  0.7816 -1.0185  0.2467
 4518TIP3    H213561   5.969   4.462   2.647 -0.4367 -0.0581  1.5054
 4519TIP3   OH213562   4.398   3.792   2.685 -0.6046  0.1890  0.1838
 4519TIP3    H113563   4.445   3.723   2.732  1.2949  0.8745 -0.6267
 4519TIP3    H213564   4.432   3.788   2.596 -1.8786  0.9361 -0.3625
 4520TIP3   OH213565   2.832   0.713   5.123  0.1425 -0.5593 -0.3801
 4520TIP3    H113566   2.922   0.721   5.156 -0.1563  1.2159  0.1676
 4520TIP3    H213567   2.784   0.780   5.172 -1.2855 -0.8700 -1.3086
 4521TIP3   OH213568   0.682   4.818   4.279  0.0068  0.0766  0.5452
 4521TIP3    H113569   0.607   4.778   4.324 -0.9072  2.4665  1.3208
 4521TIP3    H213570   0.656   4.824   4.188 -0.8951  1.0887  0.8469
 4522TIP3   OH213571   4.521   3.732   1.787 -0.2681 -0.3901  0.5030
 4522TIP3    H113572   4.602   3.742   1.737 -1.4500  0.6812 -1.3005
 4522TIP3    H213573   4.498   3.822   1.812 -1.5006 -0.5616  0.0055
 4523TIP3   OH213574   1.133   4.003   1.982  0.1577  0.2170 -0.0989
 4523TIP3    H113575   1.191   4.060   1.932 -1.5393  2.1233  0.0021
 4523TIP3    H213576   1.192   3.956   2.041  1.7552  0.8642 -1.1075
 4524TIP3   OH213577   2.628   2.463   2.289  0.2025 -0.6605 -0.4344
 4524TIP3    H113578   2.583   2.505   2.216  0.3883  0.0961 -0.1275
 4524TIP3    H213579   2.658   2.536   2.344 -1.3920 -1.2248  1.3042
 4525TIP3   OH213580   2.816   1.937   2.742 -0.1821  0.3786 -0.0350
 4525TIP3    H113581   2.866   1.882   2.682 -0.4281  1.3274 -1.1419
 4525TIP3    H213582   2.770   1.999   2.685  0.0638  1.7060  1.1575
 4526TIP3   OH213583   5.101   0.346   0.385  0.4147  0.2474  0.3009
 4526TIP3    H113584   5.016   0.380   0.414  1.3260  2.3163  0.7224
 4526TIP3    H213585   5.139   0.306   0.464 -1.0163 -2.7942 -0.3837
 4527TIP3   OH213586   0.074   0.254   4.646  0.9526 -0.7055 -0.0891
 4527TIP3    H113587   0.012   0.183   4.654  0.9895 -1.2757 -3.3738
 4527TIP3    H213588   0.027   0.323   4.600  2.0699 -0.2271 -0.5709
 4528TIP3   OH213589   2.952   2.449   4.921  0.1236 -0.1683 -0.0283
 4528TIP3    H113590   2.928   2.370   4.872 -0.5429 -0.9054  1.4426
 4528TIP3    H213591   3.034   2.428   4.963  0.6824  0.4582 -0.7647
 4529TIP3   OH213592   0.381   1.733   1.363  0.3294  0.1467  0.3908
 4529TIP3    H113593   0.461   1.753   1.314 -1.6778  0.8564 -2.9510
 4529TIP3    H213594   0.328   1.812   1.355 -1.0975 -0.6367  1.6675
 4530TIP3   OH213595   3.569   4.640   2.570 -0.7596 -0.4417 -0.1592
 4530TIP3    H113596   3.484   4.629   2.529 -0.7268  1.4346 -0.8579
 4530TIP3    H213597   3.552   4.696   2.646 -0.6117 -2.7744  1.6908
 4531TIP3   OH213598   0.913  -0.010   2.641 -0.3321 -0.5757 -0.0551
 4531TIP3    H113599   0.894   0.022   2.729  2.3985 -0.6327  0.6574
 4531TIP3    H213600   1.002   0.021   2.623  0.4007 -3.2218 -1.4924
 4532TIP3   OH213601   2.546   3.723   1.021 -0.0284  0.3282  0.3885
 4532TIP3    H113602   2.611   3.781   0.981 -0.9863  0.0432 -1.7004
 4532TIP3    H213603   2.552   3.642   0.971 -1.3597 -0.0166  0.7629
 4533TIP3   OH213604   5.211   3.743   2.431 -0.1798 -0.4731  0.3314
 4533TIP3    H113605   5.301   3.730   2.401  0.2784  3.5091 -0.5867
 4533TIP3    H213606   5.221   3.784   2.517 -1.1629 -0.7558  0.5917
 4534TIP3   OH213607   3.263   2.609   4.544 -0.2554 -0.8487 -0.2285
 4534TIP3    H113608   3.230   2.682   4.492  0.3806 -0.3261  0.0838
 4534TIP3    H213609   3.219   2.532   4.509  0.8845 -0.6607 -2.1909
 4535TIP3   OH213610   0.927   4.695   5.168 -0.2318 -0.2932 -0.1104
 4535TIP3    H113611   0.901   4.741   5.088 -1.0725 -1.0197 -0.2737
 4535TIP3    H213612   0.981   4.622   5.138 -1.5921 -1.3264 -0.1641
 4536TIP3   OH213613   6.183   1.468   3.835  0.3779 -0.2142  0.0344
 4536TIP3    H113614   6.262   1.414   3.841  0.3226 -0.5217 -1.4809
 4536TIP3    H213615   6.216   1.558   3.837  0.5962 -0.3051  1.1728
 4537TIP3   OH213616   6.124   1.580   3.015  0.9574 -0.1136  0.4040
 4537TIP3    H113617   6.126   1.486   3.031  0.8489 -0.1626  0.1402
 4537TIP3    H213618   6.105   1.588   2.921  2.0673  0.1591  0.1914
 4538TIP3   OH213619   5.997   0.251   0.964  0.4812  0.1087  0.0346
 4538TIP3    H113620   5.978   0.314   1.034 -0.4834 -0.8450  0.6679
 4538TIP3    H213621   6.026   0.172   1.010 -0.7085 -0.7171 -0.5647
 4539TIP3   OH213622   0.517   0.644   0.038  0.3817  0.5185  0.0046
 4539TIP3    H113623   0.430   0.621   0.073 -1.0595  2.3091 -2.1131
 4539TIP3    H213624   0.506   0.643  -0.057  2.3327  2.0246 -0.3075
 4540TIP3   OH213625   1.438   4.303   1.497  0.4847  0.1266 -0.1539
 4540TIP3    H113626   1.412   4.395   1.488  1.1170  0.4168  0.7933
 4540TIP3    H213627   1.499   4.302   1.572  0.1694 -1.1260  0.1193
 4541TIP3   OH213628   3.350   5.553   4.325  0.0074  0.0688 -0.2891
 4541TIP3    H113629   3.261   5.522   4.340 -0.0996  1.0432  1.3557
 4541TIP3    H213630   3.339   5.643   4.293  0.3011  1.5119  3.1233
 4542TIP3   OH213631   2.477   1.602   4.640  0.5973  0.4655 -0.3620
 4542TIP3    H113632   2.413   1.629   4.706  1.5269  0.0298  0.7393
 4542TIP3    H213633   2.428   1.545   4.582 -0.5224  1.7388 -0.7303
 4543TIP3   OH213634   0.562   5.697   1.069 -0.6852 -0.4375  0.4672
 4543TIP3    H113635   0.573   5.683   0.975 -0.8042  1.2583  0.1552
 4543TIP3    H213636   0.587   5.789   1.082  1.5785 -1.2266  2.4722
 4544TIP3   OH213637   5.071   5.399   3.036 -0.2137 -0.3734 -0.1227
 4544TIP3    H113638   5.105   5.345   3.108  0.6143 -0.3234 -0.4660
 4544TIP3    H213639   5.017   5.465   3.080  2.1110  1.0988  0.7131
 4545TIP3   OH213640   6.144   3.280   1.307  0.4125  0.2970 -0.2964
 4545TIP3    H113641   6.209   3.331   1.356  1.3320 -1.4017  0.3301
 4545TIP3    H213642   6.069   3.339   1.298  1.2867  1.6173  0.7075
 4546TIP3   OH213643   1.730   5.246   0.612  0.2218  0.1735  0.4236
 4546TIP3    H113644   1.773   5.161   0.621 -1.2674 -0.6496  0.0906
 4546TIP3    H213645   1.704   5.270   0.701  3.5383  1.9651  1.1036
 4547TIP3   OH213646   4.317   5.056   4.446 -0.1455 -0.0394  0.2669
 4547TIP3    H113647   4.383   5.019   4.387 -1.1208  0.1566 -1.0007
 4547TIP3    H213648   4.316   5.150   4.425  0.4746  0.2896  1.6071
 4548TIP3   OH213649   1.303   4.287   3.645  0.8476 -0.1917  0.0919
 4548TIP3    H113650   1.290   4.232   3.568 -0.4082  0.4820 -0.2017
 4548TIP3    H213651   1.331   4.372   3.611  2.4057 -0.5033  0.5206
 4549TIP3   OH213652   6.107   5.129   4.685  0.0058 -0.4164  0.5186
 4549TIP3    H113653   6.194   5.134   4.725 -0.1492 -1.6576  1.0400
 4549TIP3    H213654   6.050   5.175   4.747  0.7090  3.3245 -1.3204
 4550TIP3   OH213655   5.302   5.623   4.574 -0.3215 -0.1561  0.2435
 4550TIP3    H113656   5.214   5.661   4.569 -0.3435 -0.1927  0.3700
 4550TIP3    H213657   5.335   5.647   4.660 -0.5988 -0.9897  0.5989
 4551TIP3   OH213658   1.108   1.763   1.697  0.2077  0.3351 -0.1155
 4551TIP3    H113659   1.058   1.773   1.778  0.7197  1.3991  0.0914
 4551TIP3    H213660   1.149   1.677   1.704  0.1966  0.3917  0.7393
 4552TIP3   OH213661   0.058   5.025   1.932 -0.0049  0.0324 -0.2332
 4552TIP3    H113662   0.144   5.060   1.952  0.2034 -0.5958  0.0052
 4552TIP3    H213663   0.074   4.963   1.860  0.0380 -1.3954  0.9603
 4553TIP3   OH213664   3.954   4.361   1.145 -0.2756  0.1837 -0.1147
 4553TIP3    H113665   3.880   4.302   1.130  0.2165 -0.5523  0.2800
 4553TIP3    H213666   3.927   4.414   1.221 -0.3526 -0.1559  0.0983
 4554TIP3   OH213667   6.180   0.490   0.856  0.6289 -0.1257 -0.3082
 4554TIP3    H113668   6.116   0.451   0.797  0.7496  0.0831 -0.5809
 4554TIP3    H213669   6.252   0.427   0.859  0.4422 -0.3281 -0.0568
 4555TIP3   OH213670   3.248   4.623   1.195  0.4958 -0.0112  0.1532
 4555TIP3    H113671   3.168   4.572   1.182 -0.1365  0.4939  1.7913
 4555TIP3    H213672   3.228   4.708   1.155  0.7105 -0.2967 -0.5775
 4556TIP3   OH213673   0.944   4.793   0.486 -0.3713  0.2988  0.3223
 4556TIP3    H113674   0.923   4.700   0.478  0.0648  0.1364  0.9458
 4556TIP3    H213675   0.942   4.826   0.396  1.5484 -0.7905 -0.1853
 4557TIP3   OH213676   2.503   2.805   4.373  0.5982  0.4175 -0.2912
 4557TIP3    H113677   2.541   2.749   4.441 -0.4792 -0.2997 -0.2551
 4557TIP3    H213678   2.565   2.878   4.365  1.4751 -0.2201  0.4346
 4558TIP3   OH213679   5.583   1.283   3.524 -0.4700 -0.1278  0.0499
 4558TIP3    H113680   5.544   1.215   3.578 -1.6925  0.6912  0.2368
 4558TIP3    H213681   5.538   1.363   3.550  1.6561  0.9719  0.5974
 4559TIP3   OH213682   1.970   2.480   4.746 -0.4115 -0.7783 -0.1460
 4559TIP3    H113683   1.950   2.559   4.697 -1.1537 -1.3819 -0.8573
 4559TIP3    H213684   2.063   2.466   4.731 -0.5985 -0.8955 -1.3458
 4560TIP3   OH213685   5.608   1.424   0.704 -0.6328  0.3091 -0.1349
 4560TIP3    H113686   5.529   1.401   0.752 -1.5881  0.5626 -1.5152
 4560TIP3    H213687   5.630   1.345   0.654 -0.4545  0.4778 -0.3308
 4561TIP3   OH213688   1.377   2.507   1.914  0.0550 -0.2331 -0.1075
 4561TIP3    H113689   1.429   2.530   1.837 -0.6162 -0.7468 -0.7353
 4561TIP3    H213690   1.298   2.466   1.878 -0.9622  0.8330  0.7811
 4562TIP3   OH213691   3.541   5.518   0.204  0.3105  0.0703  0.0253
 4562TIP3    H113692   3.612   5.476   0.156  0.3784 -1.2184  1.2099
 4562TIP3    H213693   3.582   5.596   0.242  0.1458  1.3870 -2.2995
 4563TIP3   OH213694   2.845   0.570   1.258 -0.1123 -0.3769  0.0684
 4563TIP3    H113695   2.772   0.513   1.231  0.7810 -1.2182 -0.6438
 4563TIP3    H213696   2.852   0.556   1.353 -1.8675  0.9348  0.4570
 4564TIP3   OH213697   2.455   3.297   2.438 -0.1905  0.2298 -0.0408
 4564TIP3    H113698   2.540   3.281   2.479  0.4797 -0.0275 -1.4614
 4564TIP3    H213699   2.457   3.389   2.413  0.0266  0.0205 -0.8247
 4565TIP3   OH213700   2.079   0.981   3.406  0.2428 -0.2842 -0.0621
 4565TIP3    H113701   2.026   0.912   3.443 -0.9427  0.5334 -0.1866
 4565TIP3    H213702   2.046   1.062   3.445 -0.2032  0.4814 -1.8831
 4566TIP3   OH213703   2.587   3.234   2.015  0.8412  0.3447  0.2008
 4566TIP3    H113704   2.502   3.278   2.009  1.2559  1.1036 -0.3081
 4566TIP3    H213705   2.575   3.166   2.080 -0.8625 -1.1326 -1.5331
 4567TIP3   OH213706   3.794   1.225   4.787  0.4282 -0.7701 -0.4466
 4567TIP3    H113707   3.798   1.135   4.757 -1.3871 -0.8551 -0.5935
 4567TIP3    H213708   3.817   1.220   4.880  1.3095 -1.2287 -0.6833
 4568TIP3   OH213709   0.514   0.574   1.581 -0.3764  0.0134 -0.3861
 4568TIP3    H113710   0.566   0.653   1.566 -0.4453 -0.3033 -2.4651
 4568TIP3    H213711   0.425   0.606   1.593 -0.4148  0.2637 -1.2822
 4569TIP3   OH213712   5.150   2.297   3.322  0.0064 -0.1341 -0.1255
 4569TIP3    H113713   5.108   2.368   3.273  1.0947  0.0748 -0.7841
 4569TIP3    H213714   5.147   2.325   3.413 -0.8224  0.1025 -0.2172
 4570TIP3   OH213715   3.568   5.678   3.681 -0.3112  1.1040 -0.2647
 4570TIP3    H113716   3.617   5.757   3.701  0.8721  0.4541 -0.5205
 4570TIP3    H213717   3.556   5.635   3.766 -0.2905  1.1723 -0.2268
 4571TIP3   OH213718   0.062   5.586   0.720  0.1205  0.3121 -0.0214
 4571TIP3    H113719   0.040   5.678   0.735  0.7794  0.7108 -1.2681
 4571TIP3    H213720   0.119   5.588   0.642  1.1015 -1.0373  0.6172
 4572TIP3   OH213721   4.524   3.367   4.902  0.1576  0.0137 -0.0893
 4572TIP3    H113722   4.456   3.388   4.967  0.3792 -0.6017  0.3407
 4572TIP3    H213723   4.522   3.442   4.842 -0.4251  0.3332  0.3127
 4573TIP3   OH213724   4.075   5.831   1.626 -0.5278 -0.0426  0.2085
 4573TIP3    H113725   4.145   5.895   1.617  0.0296 -0.3524  1.9115
 4573TIP3    H213726   3.995   5.880   1.608  0.0502  0.4288 -1.2995
 4574TIP3   OH213727   3.385   0.111   0.306 -0.1746  0.2314 -0.0104
 4574TIP3    H113728   3.451   0.175   0.278  0.4714 -0.8677 -1.0901
 4574TIP3    H213729   3.434   0.050   0.361 -0.2889 -0.5690 -0.7891
 4575TIP3   OH213730   6.224   3.666   0.627  0.6645 -0.0821  0.3444
 4575TIP3    H113731   6.220   3.571   0.620  1.8708 -0.0652 -1.2174
 4575TIP3    H213732   6.156   3.688   0.690 -0.4975 -1.8878 -0.1857
 4576TIP3   OH213733   4.017   1.247   3.358 -0.1118  0.1569 -0.4661
 4576TIP3    H113734   4.000   1.339   3.337 -0.7252  0.6848  2.0097
 4576TIP3    H213735   4.108   1.246   3.387 -0.8483  0.5789  2.0764
 4577TIP3   OH213736   4.560   1.585   4.544  0.5558 -0.2088 -0.1922
 4577TIP3    H113737   4.502   1.661   4.556  0.6494 -0.3559  1.4975
 4577TIP3    H213738   4.642   1.622   4.512  1.0253  0.6388  1.7939
 4578TIP3   OH213739   4.905   4.712   4.778  0.2733  0.3596 -0.4404
 4578TIP3    H113740   4.877   4.698   4.687 -0.4562 -0.8826 -0.0368
 4578TIP3    H213741   4.971   4.645   4.794  0.6983  0.8359 -0.1652
 4579TIP3   OH213742   2.234   2.423   4.699 -0.1767  0.0765 -0.0446
 4579TIP3    H113743   2.266   2.459   4.782  1.8514  0.5300 -0.9539
 4579TIP3    H213744   2.249   2.329   4.707 -1.5461 -0.1004  0.7112
 4580TIP3   OH213745   1.787   1.749   4.131 -0.2271  0.4970  0.4044
 4580TIP3    H113746   1.722   1.680   4.124 -1.1776  1.3521  0.5766
 4580TIP3    H213747   1.870   1.703   4.141 -0.8692 -0.6133  0.8152
 4581TIP3   OH213748   0.712   1.339   3.644 -0.4021 -0.8952  0.0107
 4581TIP3    H113749   0.790   1.392   3.659  0.2479 -1.1509 -2.1458
 4581TIP3    H213750   0.654   1.361   3.717  0.0349  2.4081 -0.4970
 4582TIP3   OH213751   3.544   2.912   3.398  0.1578 -0.1263  0.3146
 4582TIP3    H113752   3.619   2.868   3.358 -0.2787 -0.7310  0.1523
 4582TIP3    H213753   3.497   2.842   3.443  0.6224  0.5304  1.8807
 4583TIP3   OH213754   3.668   3.123   2.532  0.4360 -0.0487  0.3725
 4583TIP3    H113755   3.706   3.073   2.459  0.6247  1.9068 -0.9703
 4583TIP3    H213756   3.744   3.153   2.582  0.4300  0.1518  0.2663
 4584TIP3   OH213757   0.268   3.487   1.461  0.6957 -0.0195 -0.0172
 4584TIP3    H113758   0.327   3.452   1.394  1.5388  0.5449  0.4172
 4584TIP3    H213759   0.325   3.539   1.518 -0.1976  0.3847  0.5162
 4585TIP3   OH213760   5.873   1.836   0.781 -0.6027  0.6138  0.0822
 4585TIP3    H113761   5.796   1.779   0.781 -0.3804  0.3158  0.5567
 4585TIP3    H213762   5.849   1.908   0.722 -0.4119 -0.6046 -1.5728
 4586TIP3   OH213763   4.023   5.609   0.978  0.1526  0.4165  0.3423
 4586TIP3    H113764   3.939   5.619   0.934 -0.8428 -2.7495  1.2874
 4586TIP3    H213765   4.079   5.565   0.915  0.0384 -0.3742  0.7761
 4587TIP3   OH213766   1.000   0.463   1.137  0.6146 -0.1816  1.1101
 4587TIP3    H113767   0.974   0.374   1.160 -0.0398  0.1108  1.5290
 4587TIP3    H213768   1.096   0.464   1.146  0.8439 -1.3220 -0.6176
 4588TIP3   OH213769   0.496   5.528   1.852  0.0119 -0.1405  0.1047
 4588TIP3    H113770   0.484   5.549   1.759  0.2319 -0.4188  0.0110
 4588TIP3    H213771   0.588   5.504   1.859  0.0271  0.0034  0.4211
 4589TIP3   OH213772   3.655   5.746   0.387  0.2672  0.3098  0.6726
 4589TIP3    H113773   3.706   5.709   0.459  1.8832  0.4284 -0.3641
 4589TIP3    H213774   3.630   5.834   0.418 -1.4149 -0.6000  2.1228
 4590TIP3   OH213775   5.802   3.671   3.891 -0.0183  0.1619  0.3475
 4590TIP3    H113776   5.802   3.681   3.795 -1.8399 -2.0254  0.0219
 4590TIP3    H213777   5.875   3.612   3.908 -0.4884 -0.5006  0.1216
 4591TIP3   OH213778   2.718   3.555   3.129 -0.6202  0.1264  0.5257
 4591TIP3    H113779   2.765   3.478   3.100 -1.6890  0.1036 -1.3193
 4591TIP3    H213780   2.716   3.548   3.225  1.1614 -0.9755  0.5154
 4592TIP3   OH213781   0.313   2.784   1.568 -0.0330  0.1339  0.0226
 4592TIP3    H113782   0.255   2.831   1.508 -1.2871 -0.5216  0.6735
 4592TIP3    H213783   0.342   2.850   1.630  0.5422  0.6261 -0.7473
 4593TIP3   OH213784   5.862   5.959   1.501 -0.0442  0.0883  0.3606
 4593TIP3    H113785   5.925   5.947   1.430  0.0568  0.8440  0.3146
 4593TIP3    H213786   5.910   5.932   1.580 -0.7632 -2.6286 -0.0225
 4594TIP3   OH213787   0.820   2.889   1.232  0.4873 -0.0980  0.2904
 4594TIP3    H113788   0.906   2.870   1.271  1.1998  0.9435 -0.6985
 4594TIP3    H213789   0.801   2.979   1.259  0.3555  0.1530 -0.5981
 4595TIP3   OH213790   2.196   4.176   0.806  0.1841  0.6039  0.3483
 4595TIP3    H113791   2.200   4.211   0.717  0.2925 -0.5695 -0.1299
 4595TIP3    H213792   2.105   4.188   0.833  0.1609  1.0078  0.0970
 4596TIP3   OH213793   6.192   4.576   2.065  0.1214  0.1392  0.5366
 4596TIP3    H113794   6.244   4.656   2.073 -0.1537  0.6472 -1.9400
 4596TIP3    H213795   6.112   4.595   2.113  0.7662  0.6872  1.4207
 4597TIP3   OH213796   2.479   0.154   0.395 -0.3341 -0.2503 -0.1661
 4597TIP3    H113797   2.526   0.213   0.336  0.7999 -1.5002 -0.5675
 4597TIP3    H213798   2.444   0.211   0.463 -0.8185  1.0934 -1.4942
 4598TIP3   OH213799   5.832   1.171   2.906 -0.1903 -0.2951  0.1549
 4598TIP3    H113800   5.893   1.115   2.953 -0.1573 -0.1113  0.3322
 4598TIP3    H213801   5.794   1.228   2.974  0.7731  0.8284 -0.2118
 4599TIP3   OH213802   2.565   1.500   2.301  0.2866 -0.8598  0.0165
 4599TIP3    H113803   2.608   1.440   2.240  0.1913 -0.5693 -0.3382
 4599TIP3    H213804   2.616   1.580   2.296 -0.4142 -0.4393 -0.5714
 4600TIP3   OH213805   5.752   1.475   2.889 -0.4810 -0.0537  0.2870
 4600TIP3    H113806   5.661   1.480   2.861 -0.0847 -0.9241 -1.2654
 4600TIP3    H213807   5.749   1.435   2.976 -1.4962 -1.3623 -0.3305
 4601TIP3   OH213808   2.597   5.366   4.340 -0.5133 -0.0983  0.0366
 4601TIP3    H113809   2.521   5.356   4.282 -1.3514 -0.2287  1.1186
 4601TIP3    H213810   2.653   5.291   4.318 -1.8273 -1.3602  0.8474
 4602TIP3   OH213811   5.845   5.254   0.327 -0.1746  0.7238 -0.6087
 4602TIP3    H113812   5.819   5.194   0.397  0.9480  0.7784 -0.1241
 4602TIP3    H213813   5.941   5.250   0.326 -0.1652  0.2526 -2.5519
 4603TIP3   OH213814   2.317   5.452   4.655  0.6410 -0.1582 -0.3872
 4603TIP3    H113815   2.326   5.489   4.567  1.6371  0.9194  0.1437
 4603TIP3    H213816   2.351   5.519   4.713 -1.7883 -0.0171  1.0263
 4604TIP3   OH213817   5.284   1.277   0.120  0.1977 -0.3413 -0.0750
 4604TIP3    H113818   5.191   1.265   0.103  0.2745 -1.4300  0.1805
 4604TIP3    H213819   5.290   1.287   0.215  0.3878 -0.8680 -0.0259
 4605TIP3   OH213820   3.578   2.058   2.280  0.1538  0.2940 -0.2676
 4605TIP3    H113821   3.575   2.151   2.257  0.8188 -0.1309 -2.2761
 4605TIP3    H213822   3.486   2.030   2.276 -0.0431  0.8440  0.3002
 4606TIP3   OH213823   5.112   4.892   4.994 -0.2771 -0.2073  0.2465
 4606TIP3    H113824   5.177   4.850   4.937  0.1920 -0.1076  0.6951
 4606TIP3    H213825   5.149   4.978   5.013 -1.0955  0.3063 -0.4286
 4607TIP3   OH213826   3.651   1.704   1.320 -0.0807  0.1952 -0.4185
 4607TIP3    H113827   3.715   1.737   1.384 -0.5332  0.1407  0.0724
 4607TIP3    H213828   3.600   1.781   1.295 -1.0399 -0.0698  0.6144
 4608TIP3   OH213829   3.576   0.831   0.755 -0.2721  0.3685  0.2398
 4608TIP3    H113830   3.645   0.894   0.733 -0.3307  0.4527  0.2964
 4608TIP3    H213831   3.622   0.749   0.768 -0.4581 -0.2615 -2.5535
 4609TIP3   OH213832   3.551   5.663   3.397  0.2996  0.2523 -0.3847
 4609TIP3    H113833   3.553   5.657   3.492 -0.0188 -0.9060 -0.4323
 4609TIP3    H213834   3.577   5.753   3.377  1.6731  0.1301  0.7474
 4610TIP3   OH213835   6.032   5.867   1.703  0.4422  0.6886 -0.0769
 4610TIP3    H113836   6.068   5.813   1.774 -0.7528  0.1235  0.1219
 4610TIP3    H213837   6.055   5.957   1.727  2.0958  0.3255 -0.1912
 4611TIP3   OH213838   3.593   2.804   4.148 -0.3154  0.4297  0.2595
 4611TIP3    H113839   3.664   2.741   4.141  0.2309  1.0402  0.2432
 4611TIP3    H213840   3.569   2.804   4.240  0.6105  1.1838  0.5218
 4612TIP3   OH213841   5.521   1.396   1.571 -0.1550 -0.7246  0.5427
 4612TIP3    H113842   5.506   1.388   1.665 -0.2039  0.8845  0.7036
 4612TIP3    H213843   5.608   1.434   1.563 -0.7625  0.6393  0.0223
 4613TIP3   OH213844   4.352   1.483   1.063 -0.3076 -0.0035 -0.0491
 4613TIP3    H113845   4.279   1.452   1.011  0.8855 -0.4078 -1.5609
 4613TIP3    H213846   4.360   1.576   1.040 -1.8394  0.7267  2.0120
 4614TIP3   OH213847   4.832   3.397   2.906 -0.2989 -0.3101  0.1276
 4614TIP3    H113848   4.917   3.388   2.949  0.2041 -0.0446 -0.7988
 4614TIP3    H213849   4.826   3.320   2.849 -0.3335  0.0831 -0.4006
 4615TIP3   OH213850   1.749   0.722   2.219 -0.2302 -0.1611  0.3059
 4615TIP3    H113851   1.753   0.695   2.127  0.2959 -1.6346  0.7287
 4615TIP3    H213852   1.693   0.800   2.219  0.6200  0.5131 -1.3982
 4616TIP3   OH213853   4.412   1.751   0.210  0.2983  0.2970  0.4318
 4616TIP3    H113854   4.411   1.817   0.279  1.3735  1.7136 -0.8553
 4616TIP3    H213855   4.505   1.737   0.190  0.1026 -1.6084  0.6430
 4617TIP3   OH213856   3.175   2.416   5.107  0.1452  0.4267  0.2791
 4617TIP3    H113857   3.246   2.357   5.129 -1.2567 -1.3229  0.3956
 4617TIP3    H213858   3.202   2.501   5.140  2.4006 -0.0469 -0.2018
 4618TIP3   OH213859   2.020   2.367   0.232  0.1820 -0.1375  0.4012
 4618TIP3    H113860   2.033   2.282   0.273 -1.6178 -0.8400 -0.3624
 4618TIP3    H213861   2.042   2.431   0.300 -0.8955 -1.2297  1.8322
 4619TIP3   OH213862   2.421   4.358   0.155  0.1802  0.0706  0.1034
 4619TIP3    H113863   2.473   4.434   0.128  0.3411 -0.1318 -0.1634
 4619TIP3    H213864   2.466   4.283   0.116 -0.7697 -0.0414 -0.8200
 4620TIP3   OH213865   3.468   1.499   2.274  0.4307  0.2980 -0.0507
 4620TIP3    H113866   3.541   1.442   2.250 -0.9604 -1.6718  0.2391
 4620TIP3    H213867   3.437   1.465   2.358 -1.6965  0.2124 -0.8270
 4621TIP3   OH213868   2.099   2.350   2.930 -0.1026  0.0711  0.2828
 4621TIP3    H113869   2.158   2.329   2.857  0.0600 -0.4656  0.5588
 4621TIP3    H213870   2.109   2.445   2.942 -0.5688  0.2635 -0.7569
 4622TIP3   OH213871   0.795   2.931   0.948  0.6388  0.4821 -0.8775
 4622TIP3    H113872   0.848   2.872   0.896  1.8284  0.8010 -0.0722
 4622TIP3    H213873   0.823   2.917   1.038 -0.2386  1.0778 -0.4854
 4623TIP3   OH213874   1.555   3.781   2.205 -0.3239 -0.2265 -0.2161
 4623TIP3    H113875   1.649   3.797   2.193  0.4280 -0.5404  3.9167
 4623TIP3    H213876   1.529   3.734   2.126  3.1063 -0.5557 -1.3127
 4624TIP3   OH213877   6.003   4.218   3.957  0.7709 -0.4428  0.2737
 4624TIP3    H113878   6.021   4.207   3.863 -1.0713 -0.1537 -0.1510
 4624TIP3    H213879   5.979   4.130   3.987 -0.3873 -0.2170  0.0469
 4625TIP3   OH213880   2.211   0.021   2.637  0.5198  0.4275  0.1734
 4625TIP3    H113881   2.180   0.082   2.570  0.2295 -0.2464 -0.3099
 4625TIP3    H213882   2.228  -0.060   2.590 -0.9175 -0.4621  1.1055
 4626TIP3   OH213883   6.203   1.158   0.718 -0.2732 -0.2289 -0.8143
 4626TIP3    H113884   6.282   1.197   0.756 -0.2543 -0.6769 -0.3770
 4626TIP3    H213885   6.168   1.226   0.660  1.1751 -0.5080 -2.0772
 4627TIP3   OH213886   3.153   5.589   0.430 -0.0672 -0.3676 -0.2473
 4627TIP3    H113887   3.097   5.662   0.455 -0.7651 -0.8843 -0.2649
 4627TIP3    H213888   3.241   5.627   0.425 -0.3765  0.4087 -0.0102
 4628TIP3   OH213889   4.294   1.722   1.965 -0.0564 -0.0055 -0.0181
 4628TIP3    H113890   4.292   1.634   1.928 -0.5959 -0.3502  0.8269
 4628TIP3    H213891   4.225   1.723   2.030  0.2820  0.8878  0.3429
 4629TIP3   OH213892   3.364   5.821   2.114 -0.1245  0.1994  0.2270
 4629TIP3    H113893   3.325   5.845   2.030 -1.3470  1.9405  1.2350
 4629TIP3    H213894   3.458   5.819   2.097 -0.3455  0.4828 -1.1868
 4630TIP3   OH213895   5.175   5.705   3.794  0.0301 -0.2491  0.5222
 4630TIP3    H113896   5.160   5.715   3.888  0.8672  0.5232  0.5895
 4630TIP3    H213897   5.105   5.754   3.752 -0.3340 -0.5797  0.7424
 4631TIP3   OH213898   0.254   0.672   0.772 -0.2291  0.1980  0.1297
 4631TIP3    H113899   0.292   0.759   0.778  1.1626 -0.4508  1.4034
 4631TIP3    H213900   0.161   0.687   0.758  0.3100  1.8592 -2.3235
 4632TIP3   OH213901   0.320   2.229   0.231 -0.3079  0.6414  0.3452
 4632TIP3    H113902   0.245   2.173   0.250  0.5279 -1.0574 -1.0870
 4632TIP3    H213903   0.281   2.313   0.205 -1.5688  0.9210  2.8064
 4633TIP3   OH213904   4.773   4.890   3.128 -0.1187 -0.1633  0.4862
 4633TIP3    H113905   4.801   4.904   3.038 -0.6786 -0.8151  0.2072
 4633TIP3    H213906   4.685   4.853   3.121  0.2634 -1.2754  1.2636
 4634TIP3   OH213907   2.453   5.377   3.846  0.2598 -0.1217 -0.2962
 4634TIP3    H113908   2.386   5.392   3.912 -0.7432  0.0081 -1.3034
 4634TIP3    H213909   2.532   5.356   3.896 -0.8678 -1.7248  0.9267
 4635TIP3   OH213910   3.200   0.588   3.478 -0.2611  0.0757 -0.4712
 4635TIP3    H113911   3.155   0.673   3.471  0.3018  0.3869 -0.4025
 4635TIP3    H213912   3.137   0.525   3.443  0.4412  0.8899 -3.5237
 4636TIP3   OH213913   4.751   2.171   4.860  0.0386 -0.0123  0.0819
 4636TIP3    H113914   4.757   2.242   4.924  0.0906 -1.2392  1.4893
 4636TIP3    H213915   4.718   2.213   4.780  0.5385  1.6662  0.7222
 4637TIP3   OH213916   3.960   3.550   3.790 -0.4984 -0.4587  0.2958
 4637TIP3    H113917   3.922   3.510   3.868 -0.2020 -0.2872  0.5328
 4637TIP3    H213918   3.961   3.480   3.725  1.0764 -1.2020  1.0600
 4638TIP3   OH213919   0.017   1.709   1.615 -0.4382  0.4374 -0.1623
 4638TIP3    H113920   0.042   1.659   1.693  1.0157  1.7655  0.2798
 4638TIP3    H213921  -0.029   1.785   1.649  1.5641  1.8365 -0.4174
 4639TIP3   OH213922   2.122   1.009   1.531  0.3150 -0.1183 -0.0838
 4639TIP3    H113923   2.063   0.935   1.546  0.9020 -0.6076 -0.1783
 4639TIP3    H213924   2.201   0.970   1.495  0.0587  0.7128 -1.6273
 4640TIP3   OH213925   5.132   4.891   3.134 -0.0629 -0.5264  0.2793
 4640TIP3    H113926   5.224   4.875   3.158 -0.3564 -1.2723  0.9488
 4640TIP3    H213927   5.103   4.808   3.095  0.0310  0.2465 -1.5553
 4641TIP3   OH213928   5.653   1.314   4.463  0.5173  0.0026 -0.2710
 4641TIP3    H113929   5.638   1.408   4.472 -1.1153 -0.2990  0.4528
 4641TIP3    H213930   5.666   1.283   4.552  2.1106 -0.3274 -0.5888
 4642TIP3   OH213931   4.906   0.583   4.133  0.1961 -0.0067  0.2134
 4642TIP3    H113932   4.854   0.544   4.203 -0.1541 -0.6065 -0.3713
 4642TIP3    H213933   4.984   0.528   4.129 -0.1435 -0.4509 -0.3879
 4643TIP3   OH213934   2.694   5.782   0.136 -0.0981  0.3178  0.1096
 4643TIP3    H113935   2.613   5.772   0.185  0.1462 -2.9952  0.0714
 4643TIP3    H213936   2.701   5.876   0.120 -2.5534  1.0070  2.3418
 4644TIP3   OH213937   1.618   2.003   4.168 -0.1776 -0.4341 -0.6198
 4644TIP3    H113938   1.572   1.953   4.100 -0.6559 -1.4348  0.4059
 4644TIP3    H213939   1.614   2.093   4.138 -0.8655 -0.7914 -1.6532
 4645TIP3   OH213940   4.713   4.304   2.519 -0.0711  0.8883 -0.0985
 4645TIP3    H113941   4.714   4.357   2.599 -2.4494  1.8824 -0.6603
 4645TIP3    H213942   4.665   4.225   2.543 -2.4407  1.9910 -0.9276
 4646TIP3   OH213943   0.659   4.729   0.352  0.2962  0.4057 -0.2492
 4646TIP3    H113944   0.709   4.759   0.276 -0.7600  0.3077 -1.0048
 4646TIP3    H213945   0.591   4.673   0.315 -0.4660  0.6555  0.7411
 4647TIP3   OH213946   0.383   5.880   0.768  0.1491  0.0657  0.1597
 4647TIP3    H113947   0.393   5.966   0.811 -0.2135  0.0222  0.3362
 4647TIP3    H213948   0.303   5.844   0.806  1.8588 -1.6760  2.3892
 4648TIP3   OH213949   3.052   3.002   1.372 -0.2480 -0.0981  0.3841
 4648TIP3    H113950   3.049   3.079   1.429  0.4928 -0.1010  0.4366
 4648TIP3    H213951   2.984   2.944   1.406  0.7006 -0.4483  1.7884
 4649TIP3   OH213952   6.133   1.381   1.800  0.0581 -0.2454 -0.7455
 4649TIP3    H113953   6.100   1.375   1.710 -0.5543 -0.8026 -0.4969
 4649TIP3    H213954   6.073   1.326   1.851 -0.4757  1.2250  0.2602
 4650TIP3   OH213955   6.022   0.503   4.525 -0.1365 -0.2411 -0.3370
 4650TIP3    H113956   6.056   0.587   4.495 -1.5202  0.6181  0.3652
 4650TIP3    H213957   5.927   0.515   4.526 -0.2815 -1.1004  1.7596
 4651TIP3   OH213958   5.546   1.633   4.742 -0.1782  0.4866  0.1706
 4651TIP3    H113959   5.593   1.608   4.663  0.2024 -0.6303  0.7328
 4651TIP3    H213960   5.497   1.554   4.767 -0.8006  1.0237  0.6934
 4652TIP3   OH213961   2.623   4.861   2.100  0.0277 -0.2105  0.2081
 4652TIP3    H113962   2.615   4.868   2.195 -1.7286  1.7598 -0.0085
 4652TIP3    H213963   2.549   4.911   2.066  0.1859 -1.4931 -2.2182
 4653TIP3   OH213964   1.990   0.568   1.873  0.3013  0.3589  0.5568
 4653TIP3    H113965   1.934   0.546   1.799 -0.5196  0.4650  1.1278
 4653TIP3    H213966   2.078   0.575   1.836 -0.3120  2.0924 -0.7504
 4654TIP3   OH213967   5.772   0.090   2.057 -0.6505 -0.3222 -0.5869
 4654TIP3    H113968   5.856   0.134   2.069 -0.0140 -1.4093 -0.8700
 4654TIP3    H213969   5.729   0.097   2.143  1.5805 -3.3825  1.0114
 4655TIP3   OH213970   1.292   4.469   2.275 -0.2050  0.3199  0.1048
 4655TIP3    H113971   1.261   4.543   2.328 -0.6097 -0.7494  1.4060
 4655TIP3    H213972   1.253   4.392   2.316  1.8298 -0.8242  0.0473
 4656TIP3   OH213973   0.429   4.943   1.709 -0.1046 -0.2145  0.3789
 4656TIP3    H113974   0.454   4.868   1.655  1.1478  1.0278 -0.8356
 4656TIP3    H213975   0.460   5.019   1.660 -1.2049  1.1036  1.6518
 4657TIP3   OH213976   2.188   2.689   2.640  0.3619 -0.2294  0.0684
 4657TIP3    H113977   2.282   2.700   2.652  0.1330  0.8776  0.9934
 4657TIP3    H213978   2.151   2.699   2.727 -0.6037 -0.9019 -0.2418
 4658TIP3   OH213979   1.959   0.443   4.478 -0.4653 -0.3826  1.0011
 4658TIP3    H113980   1.958   0.434   4.573 -0.7727  0.0272  1.0374
 4658TIP3    H213981   1.887   0.387   4.448 -1.9975  1.4071  1.1883
 4659TIP3   OH213982   1.610   2.446   3.701  0.0367  0.4107  0.2197
 4659TIP3    H113983   1.547   2.490   3.643 -0.4668 -0.4657  0.0743
 4659TIP3    H213984   1.650   2.379   3.645 -1.0542 -1.0109  1.0698
 4660TIP3   OH213985   1.766   2.305   2.715  0.0740 -0.2396  0.5331
 4660TIP3    H113986   1.772   2.245   2.640 -1.0606 -0.3258  0.5005
 4660TIP3    H213987   1.843   2.361   2.707  0.0278 -0.3235 -0.6328
 4661TIP3   OH213988   4.477   0.946   2.853  0.1079  0.1954  0.2721
 4661TIP3    H113989   4.561   0.908   2.827 -0.0330  0.3360 -0.3937
 4661TIP3    H213990   4.498   1.038   2.873 -0.1582  0.6500 -1.4270
 4662TIP3   OH213991   1.011   0.497   3.593  0.2959  0.1989 -0.4969
 4662TIP3    H113992   0.989   0.467   3.681 -1.3307  1.2958 -0.4975
 4662TIP3    H213993   1.090   0.447   3.570  0.8520 -0.0077  1.6221
 4663TIP3   OH213994   2.419   3.682   3.810  0.3962  0.1199  0.3917
 4663TIP3    H113995   2.416   3.706   3.718 -0.6406  3.0753  1.0839
 4663TIP3    H213996   2.333   3.643   3.828  0.4204 -0.0138  0.2153
 4664TIP3   OH213997   2.783   4.501   2.286 -0.3524  0.1124  0.1316
 4664TIP3    H113998   2.718   4.503   2.216 -2.1565  1.4171  1.7266
 4664TIP3    H213999   2.738   4.458   2.359  1.7585 -2.0229  0.3073
 4665TIP3   OH214000   1.307   0.861   1.433 -0.4710  0.4830 -0.3782
 4665TIP3    H114001   1.317   0.860   1.528  0.5646  2.3909 -0.4323
 4665TIP3    H214002   1.396   0.867   1.399 -0.8862  1.0073 -1.4285
 4666TIP3   OH214003   2.767   0.905   2.069  0.0756 -0.5404  0.2160
 4666TIP3    H114004   2.815   0.822   2.069 -1.3642 -1.5137 -2.5075
 4666TIP3    H214005   2.695   0.892   2.132  1.2545 -0.3832  1.6399
 4667TIP3   OH214006   0.668   1.285   0.987  0.3818  0.2393 -0.3298
 4667TIP3    H114007   0.702   1.374   0.997 -1.9488  1.3199 -1.3346
 4667TIP3    H214008   0.652   1.276   0.893  0.0546 -1.0608 -0.1698
 4668TIP3   OH214009   5.365   0.527   5.091  0.2121  0.5284 -0.4616
 4668TIP3    H114010   5.324   0.444   5.065  0.4820  0.7486 -1.6776
 4668TIP3    H214011   5.420   0.505   5.166 -0.0018 -0.3255 -0.5473
 4669TIP3   OH214012   5.207   0.100   1.943  0.2637 -0.1831 -0.1017
 4669TIP3    H114013   5.239   0.037   1.879 -1.3496 -1.3514  0.1745
 4669TIP3    H214014   5.201   0.051   2.025 -0.0945  0.5952  0.3551
 4670TIP3   OH214015   4.172   1.582   2.449 -0.6036  0.1170 -0.7083
 4670TIP3    H114016   4.122   1.520   2.396  0.3758 -3.1984  1.8686
 4670TIP3    H214017   4.113   1.606   2.520 -0.4116  0.8818 -0.7971
 4671TIP3   OH214018   2.790   5.075   1.954 -0.4326  0.1709  0.3277
 4671TIP3    H114019   2.725   5.004   1.950 -2.1782  1.7283 -0.7844
 4671TIP3    H214020   2.758   5.133   2.024  1.7485 -0.7534  2.2172
 4672TIP3   OH214021   4.383   1.613   1.516  0.3142 -0.9294  0.4390
 4672TIP3    H114022   4.356   1.608   1.425  0.8104 -1.1432  0.2966
 4672TIP3    H214023   4.302   1.610   1.566  0.0232 -0.4910 -0.0048
 4673TIP3   OH214024   4.973   4.157   2.226 -0.2187  0.0981 -0.3172
 4673TIP3    H114025   4.935   4.071   2.244  0.0546  0.0845  0.2095
 4673TIP3    H214026   4.906   4.220   2.255 -1.2775  0.1010 -2.4894
 4674TIP3   OH214027   1.964   1.833   4.393  0.9296  0.2814  0.3062
 4674TIP3    H114028   1.910   1.904   4.357  0.6992 -1.4843 -3.3049
 4674TIP3    H214029   2.007   1.795   4.316  1.9306 -2.7804  2.2190
 4675TIP3   OH214030   1.513   1.013   1.089 -0.2235  0.1570  0.1878
 4675TIP3    H114031   1.559   1.095   1.109 -0.8408  0.0272  2.4419
 4675TIP3    H214032   1.573   0.965   1.032  0.0558  2.2314 -1.4202
 4676TIP3   OH214033   2.009   5.328   0.498  0.6073  0.1617 -0.1884
 4676TIP3    H114034   2.055   5.296   0.575 -0.4424  1.5460  1.0620
 4676TIP3    H214035   1.916   5.315   0.518  0.3287 -0.5386 -1.7414
 4677TIP3   OH214036   5.703   0.734   2.952  0.1859  0.1875  0.0182
 4677TIP3    H114037   5.772   0.718   3.016 -0.4635 -1.5523  0.3477
 4677TIP3    H214038   5.750   0.764   2.873  1.4212 -1.5033  0.0379
 4678TIP3   OH214039   0.979   3.338   0.784  0.0184 -0.4718 -0.1729
 4678TIP3    H114040   1.035   3.300   0.852  1.3130  0.1011 -0.8915
 4678TIP3    H214041   0.995   3.433   0.790  0.8822 -0.4753 -1.8758
 4679TIP3   OH214042   4.533   2.890   3.063 -0.4975  0.0031  0.5124
 4679TIP3    H114043   4.504   2.823   3.125  0.0592 -0.7929 -0.0654
 4679TIP3    H214044   4.601   2.938   3.109 -2.1730  1.4139  1.6134
 4680TIP3   OH214045   0.293   5.039   1.402 -0.1740 -0.0938  0.2580
 4680TIP3    H114046   0.330   4.962   1.359 -0.5852 -0.2206  0.1213
 4680TIP3    H214047   0.227   5.071   1.340 -1.6930 -1.0349  1.3184
 4681TIP3   OH214048   5.434   3.866   2.061 -0.1795  0.1627  0.4844
 4681TIP3    H114049   5.378   3.939   2.091 -0.2004 -0.1042  1.1212
 4681TIP3    H214050   5.419   3.862   1.967 -0.1989  0.9690  0.4452
 4682TIP3   OH214051   3.701   0.434   3.138  0.2018 -0.0195  0.4782
 4682TIP3    H114052   3.726   0.504   3.078  0.5266 -0.2353  0.3572
 4682TIP3    H214053   3.781   0.413   3.186  0.0510 -0.1502  0.6770
 4683TIP3   OH214054   5.474   4.045   0.541 -0.0716 -0.6512 -0.3737
 4683TIP3    H114055   5.449   4.047   0.449 -0.5018 -0.5610 -0.2561
 4683TIP3    H214056   5.525   4.125   0.554 -0.6142 -0.3050 -0.3634
 4684TIP3   OH214057   2.293   4.703   0.102  0.2968  0.6983  0.7425
 4684TIP3    H114058   2.250   4.725   0.185 -0.3635  2.2696  0.0384
 4684TIP3    H214059   2.320   4.788   0.066  0.7682  0.0360 -0.5436
 4685TIP3   OH214060   3.942   3.160   1.512 -0.2041  0.0741 -0.1042
 4685TIP3    H114061   3.988   3.201   1.440 -0.8087  2.9055  0.9969
 4685TIP3    H214062   3.850   3.181   1.498 -0.4147  0.0879  1.1120
 4686TIP3   OH214063   1.034   5.451   4.712  0.5700 -0.2233 -0.1980
 4686TIP3    H114064   1.046   5.541   4.682 -0.1446  0.5476  1.6738
 4686TIP3    H214065   1.113   5.432   4.763 -0.5548  0.4583  1.8936
 4687TIP3   OH214066   1.349   4.264   1.232 -0.2905 -0.5181  0.2283
 4687TIP3    H114067   1.405   4.205   1.183 -0.4945  0.7524 -1.6161
 4687TIP3    H214068   1.384   4.263   1.321  2.1821 -0.3601 -0.6827
 4688TIP3   OH214069   1.649   2.664   0.833 -0.2542 -0.6499  0.0556
 4688TIP3    H114070   1.720   2.615   0.793  1.2100  1.0516  0.4788
 4688TIP3    H214071   1.673   2.756   0.823 -2.1294 -0.0305  0.6891
 4689TIP3   OH214072   5.129   2.349   3.591  0.0223 -0.1918 -0.2682
 4689TIP3    H114073   5.221   2.375   3.597 -0.0775  0.5138 -1.4382
 4689TIP3    H214074   5.128   2.258   3.620  0.9439  0.0509  0.5855
 4690TIP3   OH214075   4.267   1.972   0.105  0.1712 -0.3270 -0.5660
 4690TIP3    H114076   4.201   1.971   0.174  0.7012 -0.2016 -0.0499
 4690TIP3    H214077   4.325   1.900   0.125  0.8121  0.2262 -0.3955
 4691TIP3   OH214078   5.090   3.602   0.995 -0.4095 -0.0985 -0.3786
 4691TIP3    H114079   5.024   3.555   0.944 -0.1799 -0.6747 -0.1622
 4691TIP3    H214080   5.042   3.638   1.069 -0.1952 -2.1478  0.8319
 4692TIP3   OH214081   3.131   0.841   3.487  0.4463 -0.6402 -0.2091
 4692TIP3    H114082   3.177   0.921   3.513 -0.8002  0.2935 -0.7573
 4692TIP3    H214083   3.141   0.839   3.391 -2.1072  0.6060 -0.6025
 4693TIP3   OH214084   3.609   0.435   2.381 -0.5795  0.0107 -0.1832
 4693TIP3    H114085   3.612   0.342   2.363  1.2733  0.3275 -1.8404
 4693TIP3    H214086   3.645   0.443   2.470 -1.8550 -0.8960  0.4493
 4694TIP3   OH214087   5.514   1.564   3.025  0.1512  0.5763 -0.0162
 4694TIP3    H114088   5.552   1.647   3.055 -0.2182  0.6060  0.3739
 4694TIP3    H214089   5.449   1.543   3.091  0.7788 -0.4312  0.3006
 4695TIP3   OH214090   0.320   4.081   4.719 -0.7716  0.2224 -0.8449
 4695TIP3    H114091   0.319   4.056   4.627 -2.0841 -0.6952 -0.6059
 4695TIP3    H214092   0.275   4.165   4.721 -0.4976  0.3779 -1.0638
 4696TIP3   OH214093   1.347   0.700   3.808  0.4176 -0.1452  0.8041
 4696TIP3    H114094   1.335   0.611   3.841 -0.6863  0.2662  1.5937
 4696TIP3    H214095   1.441   0.715   3.812  0.4851 -0.7731  2.0516
 4697TIP3   OH214096   2.567   5.010   3.107  0.2464  0.2336  0.0683
 4697TIP3    H114097   2.568   4.922   3.069  0.9256  0.0366  0.5206
 4697TIP3    H214098   2.586   4.995   3.200 -0.6576  0.7696  0.3439
 4698TIP3   OH214099   2.043   4.188   1.583 -0.2791  0.0247  0.4121
 4698TIP3    H114100   2.054   4.142   1.500 -0.2069 -0.8223  0.8721
 4698TIP3    H214101   1.981   4.258   1.564 -0.8960 -0.6643 -0.1681
 4699TIP3   OH214102   2.976   1.743   1.964  0.0853  0.2859  0.1189
 4699TIP3    H114103   3.050   1.687   1.944  0.2177 -1.1431  3.8568
 4699TIP3    H214104   3.007   1.832   1.945  1.3879 -0.5268 -1.8142
 4700TIP3   OH214105   5.137   4.225   1.692  0.6767 -0.0758 -0.0383
 4700TIP3    H114106   5.193   4.292   1.731  3.6002 -2.6375  0.5706
 4700TIP3    H214107   5.145   4.150   1.751 -0.0495 -1.9328 -2.1603
 4701TIP3   OH214108   5.194   1.019   0.293  0.6496  0.2824  0.2442
 4701TIP3    H114109   5.149   1.069   0.362  0.1210  0.9760 -0.5854
 4701TIP3    H214110   5.159   1.054   0.211  2.1175  0.2668 -0.4127
 4702TIP3   OH214111   2.318   0.826   3.100  0.2044 -0.2359 -0.2366
 4702TIP3    H114112   2.238   0.879   3.099 -0.1442 -0.7498 -0.0042
 4702TIP3    H214113   2.388   0.889   3.086 -0.0995  0.4883  1.3111
 4703TIP3   OH214114   2.360   3.798   2.520 -0.4984  0.1910  0.3408
 4703TIP3    H114115   2.430   3.775   2.582  2.6350  2.5450 -2.0011
 4703TIP3    H214116   2.289   3.737   2.540  2.1939 -2.4166  2.9061
 4704TIP3   OH214117   1.460   1.943   0.019 -0.4940  0.4843  0.1606
 4704TIP3    H114118   1.468   1.888  -0.058  0.6824  2.4604 -1.2124
 4704TIP3    H214119   1.389   1.904   0.070 -1.5162 -0.6978 -2.0729
 4705TIP3   OH214120   6.212   5.367   1.113 -0.2891  0.5291 -0.4227
 4705TIP3    H114121   6.171   5.282   1.132 -0.2859  0.6787  0.2488
 4705TIP3    H214122   6.208   5.374   1.017  2.2326 -1.5124 -0.7927
 4706TIP3   OH214123   2.959   2.493   0.766  0.6877 -0.1630  0.2226
 4706TIP3    H114124   2.911   2.523   0.689 -0.4980 -1.0857  0.5596
 4706TIP3    H214125   2.958   2.567   0.826  0.3199  0.0702 -0.0738
 4707TIP3   OH214126   0.469   4.929   0.685  0.1774  0.5909 -0.3358
 4707TIP3    H114127   0.558   4.944   0.653 -0.8689  2.2291 -2.8140
 4707TIP3    H214128   0.431   4.867   0.621 -1.1273  1.7296 -0.7216
 4708TIP3   OH214129   2.674   2.792   4.146  0.4251  0.6510  0.2286
 4708TIP3    H114130   2.614   2.850   4.193  1.1542  1.5229  0.1196
 4708TIP3    H214131   2.676   2.712   4.198 -2.1874 -0.1359 -0.6930
 4709TIP3   OH214132   1.081   1.466   2.357  0.3404  0.3495  0.5687
 4709TIP3    H114133   1.026   1.406   2.308 -2.0091  1.4181  1.7369
 4709TIP3    H214134   1.090   1.543   2.300  0.4501  0.2593  0.4641
 4710TIP3   OH214135   3.856   4.248   0.278  0.0059  0.4045 -0.1277
 4710TIP3    H114136   3.873   4.340   0.257 -0.8941  0.7833  0.7260
 4710TIP3    H214137   3.937   4.218   0.320 -0.1263  1.1672  0.7036
 4711TIP3   OH214138   1.937   0.241   4.170 -0.0151 -0.1442  0.0111
 4711TIP3    H114139   1.939   0.187   4.091 -1.5642  0.6995 -0.6531
 4711TIP3    H214140   1.866   0.204   4.222 -1.1180  1.2123 -0.4658
 4712TIP3   OH214141   0.709   2.650   2.634  0.5217 -0.9738  0.5205
 4712TIP3    H114142   0.750   2.563   2.627  1.7185 -0.3928 -0.0341
 4712TIP3    H214143   0.616   2.633   2.624  0.8109 -2.1109 -0.5315
 4713TIP3   OH214144   0.685   3.193   2.575 -0.2158  0.1243 -0.1366
 4713TIP3    H114145   0.594   3.206   2.601 -0.3514 -1.9247  0.5887
 4713TIP3    H214146   0.692   3.099   2.556  1.4166  0.4760 -1.5410
 4714TIP3   OH214147   2.476   0.517   5.170 -0.0804  0.1067  0.0015
 4714TIP3    H114148   2.477   0.594   5.113 -2.1211  0.9855  1.0543
 4714TIP3    H214149   2.557   0.470   5.148  2.4417  3.6490  0.8455
 4715TIP3   OH214150   0.615   0.353   2.612 -0.2316  0.1516  0.0839
 4715TIP3    H114151   0.535   0.405   2.618 -0.2780  0.1716 -0.6643
 4715TIP3    H214152   0.602   0.298   2.535 -0.2313 -1.0504  0.9150
 4716TIP3   OH214153   2.113   1.405   0.589 -0.2725  0.4285 -0.1705
 4716TIP3    H114154   2.112   1.318   0.628  0.2669  0.7089  0.4823
 4716TIP3    H214155   2.027   1.441   0.610 -0.0271  0.5406  0.7046
 4717TIP3   OH214156   4.580   1.327   1.078 -0.1851 -0.4398  0.1399
 4717TIP3    H114157   4.514   1.396   1.074 -1.1978 -1.3876  0.1715
 4717TIP3    H214158   4.617   1.335   1.166  0.0484  0.3482 -0.0137
 4718TIP3   OH214159   2.383   0.391   1.990 -0.4008 -0.3825 -0.1807
 4718TIP3    H114160   2.355   0.335   2.062 -2.0202  0.6966  0.0874
 4718TIP3    H214161   2.396   0.331   1.917 -0.9248 -1.2494  0.4086
 4719TIP3   OH214162   1.559   0.014   2.889  0.1402 -0.5743  0.4607
 4719TIP3    H114163   1.645   0.050   2.911 -0.4520  1.3364 -0.1732
 4719TIP3    H214164   1.509   0.023   2.970  0.0533 -0.0990  0.3603
 4720TIP3   OH214165   4.558   1.757   3.434  0.1648  0.1233  0.1363
 4720TIP3    H114166   4.530   1.841   3.470  0.6433 -0.1203  1.1186
 4720TIP3    H214167   4.536   1.762   3.342 -2.3375  0.2569  0.6800
 4721TIP3   OH214168   5.820   3.197   1.269 -0.0456  0.2021  0.1724
 4721TIP3    H114169   5.786   3.265   1.210  0.5588  1.1242  0.8585
 4721TIP3    H214170   5.754   3.127   1.265 -0.0354  0.2412 -1.5576
 4722TIP3   OH214171   3.157   4.668   0.540 -0.2048  0.0595  0.4824
 4722TIP3    H114172   3.200   4.725   0.604 -1.6034  2.7148 -0.7659
 4722TIP3    H214173   3.138   4.588   0.587 -0.0981  1.4449  3.0348
 4723TIP3   OH214174   0.918   1.146   3.359  0.7493  0.2073  0.0641
 4723TIP3    H114175   0.977   1.219   3.340  1.3907 -0.7840 -1.9634
 4723TIP3    H214176   0.833   1.188   3.374  1.7275  1.5867  2.2078
 4724TIP3   OH214177   0.434   1.418   4.066  0.3494  0.1237  0.4820
 4724TIP3    H114178   0.381   1.473   4.123  1.4376 -2.1073  3.9941
 4724TIP3    H214179   0.522   1.420   4.105  1.5642 -0.4627 -2.0117
 4725TIP3   OH214180   4.092   4.250   2.858 -0.0829  0.2539  0.7222
 4725TIP3    H114181   4.130   4.277   2.774  0.6915 -1.0863  0.6143
 4725TIP3    H214182   4.001   4.279   2.854  0.0890  0.6894 -0.3450
 4726TIP3   OH214183   5.537   4.586   1.789 -0.2382  0.2792  0.3550
 4726TIP3    H114184   5.605   4.556   1.729 -1.2163 -2.5801  0.5068
 4726TIP3    H214185   5.576   4.581   1.876 -0.2921 -0.2963  0.3486
 4727TIP3   OH214186   0.391   3.334   4.945 -0.5595 -0.4049  0.5253
 4727TIP3    H114187   0.404   3.358   4.853 -0.0712 -1.6191  0.2585
 4727TIP3    H214188   0.477   3.343   4.985 -0.7450  0.0030  0.8413
 4728TIP3   OH214189   0.325   3.725   2.130  0.1560 -0.1507  0.6530
 4728TIP3    H114190   0.259   3.794   2.134  0.5640  0.2553  0.4818
 4728TIP3    H214191   0.278   3.648   2.097 -0.0897  0.3039 -0.0577
 4729TIP3   OH214192   5.392   1.875   2.309  0.1605 -0.2576  0.0043
 4729TIP3    H114193   5.377   1.861   2.216 -0.5079 -0.0405  0.0750
 4729TIP3    H214194   5.305   1.889   2.346  0.2782 -1.5668  0.8706
 4730TIP3   OH214195   4.573   3.382   3.913 -0.7393 -0.6370 -0.1919
 4730TIP3    H114196   4.642   3.340   3.862  1.1841  1.4204  0.5227
 4730TIP3    H214197   4.502   3.318   3.914 -0.6408 -1.1459 -4.6864
 4731TIP3   OH214198   2.700   5.480   2.507 -0.4396 -0.0755 -0.4525
 4731TIP3    H114199   2.634   5.517   2.447  1.1995  1.7194 -1.2603
 4731TIP3    H214200   2.712   5.548   2.573  0.8850 -0.1926 -0.5591
 4732TIP3   OH214201   5.755   5.778   5.043  0.7023  0.2276 -0.4327
 4732TIP3    H114202   5.746   5.691   5.081 -0.7426  0.3872 -0.3841
 4732TIP3    H214203   5.741   5.838   5.117  0.2941  0.5150 -0.7421
 4733TIP3   OH214204   5.474   1.256   2.922  0.4628  0.2463  0.0493
 4733TIP3    H114205   5.513   1.169   2.926 -1.1501 -0.5134 -0.0010
 4733TIP3    H214206   5.423   1.264   3.003 -1.3116  0.1512 -0.9881
 4734TIP3   OH214207   4.967   1.537   2.572  0.0093  0.0008 -0.4777
 4734TIP3    H114208   4.915   1.542   2.652  0.6092  0.4865 -0.1113
 4734TIP3    H214209   4.941   1.454   2.532  0.3339 -0.6756  0.6605
 4735TIP3   OH214210   4.781   2.716   4.380 -0.1034  0.2654 -0.6171
 4735TIP3    H114211   4.834   2.657   4.434 -1.2327 -2.1084 -1.9249
 4735TIP3    H214212   4.712   2.747   4.438  0.0977 -0.2922 -0.0750
 4736TIP3   OH214213   5.054   2.973   2.311 -0.1991 -0.2762  0.0491
 4736TIP3    H114214   5.003   2.896   2.333 -1.0919 -0.9194 -3.6386
 4736TIP3    H214215   4.991   3.034   2.274  1.3205 -0.3699 -2.9472
 4737TIP3   OH214216   1.913   2.520   5.041 -0.4729  0.2196 -0.2341
 4737TIP3    H114217   1.927   2.480   4.955  0.3073  1.2469 -0.6152
 4737TIP3    H214218   1.912   2.614   5.023 -1.5237  0.4052  0.7299
 4738TIP3   OH214219   5.342   1.869   3.749 -0.0877 -0.4103 -0.2785
 4738TIP3    H114220   5.265   1.818   3.773  0.6153 -0.9237  0.9645
 4738TIP3    H214221   5.384   1.890   3.832  0.9253  0.1876 -0.9144
 4739TIP3   OH214222   0.391   4.086   0.788 -0.4679 -0.4264 -0.1736
 4739TIP3    H114223   0.341   4.025   0.734  0.6655 -1.4258 -0.1491
 4739TIP3    H214224   0.344   4.169   0.783 -2.5274 -1.5007  0.4381
 4740TIP3   OH214225   5.321   3.792   3.565  0.1039  0.3476  0.4115
 4740TIP3    H114226   5.356   3.740   3.637  0.0155  0.6211  0.6546
 4740TIP3    H214227   5.228   3.802   3.585 -0.0501 -0.0897 -0.0585
 4741TIP3   OH214228   0.878   0.994   3.761 -0.7822  0.1886  0.5103
 4741TIP3    H114229   0.884   0.904   3.793 -0.2077 -0.9294 -2.4408
 4741TIP3    H214230   0.968   1.016   3.734 -1.2654  0.8736 -0.6322
 4742TIP3   OH214231   1.954   3.396   0.416  0.3877  0.3430  0.2943
 4742TIP3    H114232   1.930   3.388   0.508 -0.3441  0.2997  0.1063
 4742TIP3    H214233   1.943   3.308   0.380 -0.2584  0.5462 -0.0388
 4743TIP3   OH214234   2.543   3.944   4.829 -0.1891  0.2683 -0.1652
 4743TIP3    H114235   2.541   3.907   4.741 -0.1647  1.0439 -0.5069
 4743TIP3    H214236   2.611   3.895   4.875 -0.9325 -0.8656 -0.2373
 4744TIP3   OH214237   2.587   0.210   4.757  0.6848 -0.5497  0.3079
 4744TIP3    H114238   2.496   0.233   4.736  0.8196 -0.2367  0.0537
 4744TIP3    H214239   2.589   0.203   4.852  1.0399  2.3340  0.5906
 4745TIP3   OH214240   6.199   2.420   5.026 -0.2485  0.1302  0.0191
 4745TIP3    H114241   6.188   2.511   5.000  2.9218  1.7698  3.4442
 4745TIP3    H214242   6.239   2.378   4.950 -2.3930  1.3130 -1.8744
 4746TIP3   OH214243   0.688   1.950   3.108  0.3368 -0.4327 -0.5217
 4746TIP3    H114244   0.692   2.039   3.072 -2.2860  0.0615  0.1859
 4746TIP3    H214245   0.664   1.895   3.034  1.9061 -0.5784 -0.9485
 4747TIP3   OH214246   3.813   0.533   3.794  0.7116  0.2606 -0.1137
 4747TIP3    H114247   3.867   0.454   3.805  2.3038  1.2716 -0.3137
 4747TIP3    H214248   3.783   0.529   3.704 -1.1107 -1.2080  0.4822
 4748TIP3   OH214249   2.312   2.382   1.821 -0.2885 -0.2246  0.0251
 4748TIP3    H114250   2.306   2.335   1.904 -0.4464 -0.3238 -0.0419
 4748TIP3    H214251   2.364   2.460   1.841  0.2069 -0.5673  0.0731
 4749TIP3   OH214252   4.390   0.410   2.907  1.0775 -0.2791  0.2202
 4749TIP3    H114253   4.383   0.499   2.942 -0.6932 -0.1123 -0.4223
 4749TIP3    H214254   4.307   0.369   2.931  2.1787 -2.0424  1.1837
 4750TIP3   OH214255   3.908   3.929   2.463  0.0305  0.4664 -0.5810
 4750TIP3    H114256   3.839   3.967   2.517 -1.0975 -0.5503 -1.2480
 4750TIP3    H214257   3.961   4.004   2.435  0.4731  1.0598  1.6260
 4751TIP3   OH214258   2.724   1.615   1.933  0.2915 -0.2277  0.3296
 4751TIP3    H114259   2.750   1.551   1.867  1.3028  1.3271 -0.8313
 4751TIP3    H214260   2.806   1.644   1.972 -0.1858  0.1148  1.0979
 4752TIP3   OH214261   4.030   4.362   2.359 -0.9822  0.0314  0.1292
 4752TIP3    H114262   4.086   4.370   2.437  0.6222  0.5584 -1.0416
 4752TIP3    H214263   4.048   4.440   2.308 -0.8522 -1.0190 -1.5059
 4753TIP3   OH214264   0.660   3.973   3.279  0.2825  0.0657  0.1192
 4753TIP3    H114265   0.654   3.982   3.374  0.6208  1.7929  0.0133
 4753TIP3    H214266   0.659   3.879   3.263 -0.9821 -0.2352  1.7472
 4754TIP3   OH214267   1.149   2.336   1.812  0.1114  0.1282 -0.0282
 4754TIP3    H114268   1.063   2.351   1.849  0.6600  0.9215  0.9678
 4754TIP3    H214269   1.140   2.254   1.763 -1.0956 -0.0066  0.3875
 4755TIP3   OH214270   1.568   2.262  -0.014  0.1994 -0.3540 -0.1897
 4755TIP3    H114271   1.624   2.195  -0.054  1.1974 -1.1900  2.4153
 4755TIP3    H214272   1.570   2.243   0.080 -1.6563  1.7476  0.3747
 4756TIP3   OH214273   4.037   2.365   1.415  0.2074 -0.1206 -0.0860
 4756TIP3    H114274   4.091   2.420   1.359 -1.9752  2.2214 -0.1163
 4756TIP3    H214275   3.959   2.347   1.363 -0.3998 -0.7472  0.9939
 4757TIP3   OH214276   2.456   0.506   4.286 -0.4543 -0.4736  0.7250
 4757TIP3    H114277   2.365   0.529   4.304 -1.0481 -2.3687  0.3504
 4757TIP3    H214278   2.507   0.569   4.337 -1.9515  0.8983  0.5976
 4758TIP3   OH214279   0.822   0.289   0.046  0.2956  0.0926  0.3653
 4758TIP3    H114280   0.766   0.336  -0.016 -0.1283 -1.7315 -0.7137
 4758TIP3    H214281   0.898   0.346   0.057  1.3030 -0.2543 -3.3440
 4759TIP3   OH214282   4.547   4.660   1.108  0.1521  0.2080 -0.2649
 4759TIP3    H114283   4.597   4.641   1.187 -0.5432  0.0133  0.1319
 4759TIP3    H214284   4.507   4.745   1.123 -0.1167  0.0958 -0.3399
 4760TIP3   OH214285   2.716   3.595   2.847  0.0174  0.0698  0.1530
 4760TIP3    H114286   2.699   3.589   2.942 -2.7915 -1.2800 -0.3320
 4760TIP3    H214287   2.783   3.530   2.830  0.0965 -0.1204  1.1252
 4761TIP3   OH214288   4.357   2.427   0.212  0.3358  0.0085 -0.5093
 4761TIP3    H114289   4.348   2.521   0.196 -1.3124 -0.2061 -0.9591
 4761TIP3    H214290   4.451   2.410   0.201  0.6384  1.5612 -0.5791
 4762TIP3   OH214291   3.422   1.949   3.678 -0.0164 -0.0677  0.4378
 4762TIP3    H114292   3.368   1.976   3.604 -0.2033 -2.1268 -0.2371
 4762TIP3    H214293   3.464   1.868   3.649  0.5006 -0.5275  2.3261
 4763TIP3   OH214294   2.288   1.656   3.622 -0.0029 -0.0781  0.3653
 4763TIP3    H114295   2.201   1.661   3.582  0.5016 -1.7287 -1.0219
 4763TIP3    H214296   2.349   1.649   3.549  1.2422  0.2006  1.3353
 4764TIP3   OH214297   3.552   0.138   3.431  0.0677 -0.3397  0.2107
 4764TIP3    H114298   3.526   0.180   3.350  0.2276 -1.3374 -0.3710
 4764TIP3    H214299   3.646   0.157   3.439 -0.2550  1.0572  0.9732
 4765TIP3   OH214300   3.688   3.702   2.426 -0.1275  0.0802  0.0016
 4765TIP3    H114301   3.713   3.659   2.507 -0.5060 -0.9761 -0.4344
 4765TIP3    H214302   3.746   3.779   2.421 -0.2210  0.2623  1.3420
 4766TIP3   OH214303   3.698   4.402   3.609 -0.1167  0.2135 -0.2184
 4766TIP3    H114304   3.691   4.498   3.606 -1.8306  0.1179  0.0254
 4766TIP3    H214305   3.711   4.376   3.518  0.7057  0.6780 -0.2479
 4767TIP3   OH214306   3.175   3.185   3.987  0.2272 -0.0713  0.3170
 4767TIP3    H114307   3.264   3.155   4.008  0.6347  1.7439  1.3988
 4767TIP3    H214308   3.118   3.116   4.021  1.1872 -0.9886  0.1277
 4768TIP3   OH214309   2.344   4.709   4.920 -0.0763 -0.2702 -0.1327
 4768TIP3    H114310   2.283   4.643   4.955 -0.5730  0.7550  1.0254
 4768TIP3    H214311   2.287   4.776   4.882  0.4427 -0.8099 -1.9472
 4769TIP3   OH214312   3.697   4.191   3.808 -0.2195  0.4281 -0.0121
 4769TIP3    H114313   3.674   4.271   3.761 -0.6267 -0.0453 -0.6431
 4769TIP3    H214314   3.637   4.125   3.773 -0.0543 -0.0945  0.6787
 4770TIP3   OH214315   1.917   3.755   3.884  0.3306 -0.3447  0.1523
 4770TIP3    H114316   1.850   3.805   3.838  1.0178 -0.4888 -1.0688
 4770TIP3    H214317   1.878   3.669   3.899 -0.1695 -0.0563  0.5367
 4771TIP3   OH214318   2.350   3.264   2.191 -0.2989 -0.6152 -0.1562
 4771TIP3    H114319   2.258   3.242   2.204 -0.3848  0.2250  0.8029
 4771TIP3    H214320   2.385   3.276   2.279  0.7070 -0.8196 -0.5100
 4772TIP3   OH214321   5.597   1.784   3.693  0.4463  0.6580 -0.3447
 4772TIP3    H114322   5.621   1.746   3.778  0.8055  1.7106  0.0465
 4772TIP3    H214323   5.506   1.811   3.704  0.5157  0.8627 -0.2597
 4773TIP3   OH214324   4.801   3.457   4.913  0.7739  0.3142 -0.2115
 4773TIP3    H114325   4.725   3.407   4.883  0.3769 -0.0042  1.2585
 4773TIP3    H214326   4.873   3.394   4.913  0.4603 -0.0644  0.8216
 4774TIP3   OH214327   3.782   1.613   4.642  0.4887 -0.5010 -0.6069
 4774TIP3    H114328   3.728   1.596   4.565  0.2224  0.4638 -0.6532
 4774TIP3    H214329   3.729   1.585   4.716 -1.1459  2.5014 -0.4504
 4775TIP3   OH214330   2.990   0.757   2.717  0.1690 -0.4033  0.1223
 4775TIP3    H114331   2.943   0.699   2.658  2.1415  0.4532 -2.4895
 4775TIP3    H214332   2.958   0.844   2.695  0.4420 -0.1212  0.8248
 4776TIP3   OH214333   4.237   1.743   4.084  0.4264  0.1333  0.2460
 4776TIP3    H114334   4.149   1.705   4.089  0.9343 -1.0451  0.4843
 4776TIP3    H214335   4.269   1.717   3.997  0.8447 -0.1353  0.4782
 4777TIP3   OH214336   4.330   0.907   1.007  0.1369 -1.1268  0.0369
 4777TIP3    H114337   4.423   0.909   0.985  0.0517  1.3118 -0.4610
 4777TIP3    H214338   4.285   0.900   0.923 -0.1018  0.8126 -0.0577
 4778TIP3   OH214339   3.856   4.056   4.553 -0.0480  0.1908 -0.0498
 4778TIP3    H114340   3.867   3.998   4.478  2.1923  0.4966 -0.0130
 4778TIP3    H214341   3.822   4.138   4.515 -1.6282 -0.5441 -0.3100
 4779TIP3   OH214342   0.214   0.426   2.492  1.0899  0.4593 -0.4543
 4779TIP3    H114343   0.186   0.340   2.523  2.1332  0.6180  0.9991
 4779TIP3    H214344   0.151   0.447   2.422 -1.0953 -0.1159  1.2173
 4780TIP3   OH214345   5.890   4.457   4.639  0.2342 -0.4941  0.0276
 4780TIP3    H114346   5.985   4.459   4.629  0.1001 -0.6490 -1.3979
 4780TIP3    H214347   5.871   4.371   4.676  0.4711 -1.4859 -2.0405
 4781TIP3   OH214348   2.501   4.921   2.372 -0.2562  0.3738  0.2471
 4781TIP3    H114349   2.494   4.848   2.433  0.0372  0.5401  0.4814
 4781TIP3    H214350   2.525   4.996   2.426  0.9517  0.3223 -0.1993
 4782TIP3   OH214351   3.032   2.535   3.084 -0.4278  0.6728  0.2185
 4782TIP3    H114352   3.068   2.486   3.010 -0.6180  0.9688 -0.0730
 4782TIP3    H214353   3.021   2.470   3.153 -0.5865  0.3240 -0.1318
 4783TIP3   OH214354   5.015   4.753   1.380  0.2956 -0.0244  0.5275
 4783TIP3    H114355   4.991   4.679   1.325 -0.2778 -1.5256  2.6382
 4783TIP3    H214356   4.932   4.783   1.418  0.6241  1.2187  0.3247
 4784TIP3   OH214357   0.077   4.093   3.162 -0.0154 -0.6043  0.3441
 4784TIP3    H114358   0.055   4.096   3.069 -1.2709  0.1778  0.6464
 4784TIP3    H214359   0.170   4.074   3.164  0.7072  2.2268 -1.1521
 4785TIP3   OH214360   1.019   0.003   3.343 -0.4519 -0.2059 -0.0642
 4785TIP3    H114361   0.959  -0.034   3.408 -1.2291 -0.3515 -0.8483
 4785TIP3    H214362   1.057   0.080   3.386 -2.7642  1.1222 -0.2788
 4786TIP3   OH214363   5.868   3.021   4.776 -0.0807  0.1237  0.4606
 4786TIP3    H114364   5.882   3.055   4.865  0.7669  1.2204 -0.0574
 4786TIP3    H214365   5.850   3.099   4.724  1.0934 -0.2992 -0.6292
 4787TIP3   OH214366   5.065   3.784   2.209 -0.1018  0.3852  0.5504
 4787TIP3    H114367   4.996   3.847   2.229 -0.1036  0.7161 -0.4435
 4787TIP3    H214368   5.111   3.773   2.292 -0.8368  0.7875  1.0267
 4788TIP3   OH214369   4.445   2.806   0.616  0.0298  0.5567 -0.2800
 4788TIP3    H114370   4.446   2.824   0.522  2.6866  1.8432 -0.0930
 4788TIP3    H214371   4.535   2.824   0.645 -0.9160  1.1137  2.6628
 4789TIP3   OH214372   1.731   1.050   4.088 -0.0499  0.4835 -0.0609
 4789TIP3    H114373   1.706   1.039   4.180 -1.5585 -0.0446 -0.5148
 4789TIP3    H214374   1.820   1.087   4.092  1.2515 -2.4440  1.6081
 4790TIP3   OH214375   0.750   0.781   3.577  0.6440  0.2104  0.7232
 4790TIP3    H114376   0.719   0.691   3.579 -0.9471  0.7419  1.2272
 4790TIP3    H214377   0.809   0.788   3.652  1.8225 -0.7265 -0.0640
 4791TIP3   OH214378   2.743   3.651   1.578  0.1314 -0.1467  0.2857
 4791TIP3    H114379   2.724   3.726   1.522  1.0430 -2.3225 -3.3293
 4791TIP3    H214380   2.657   3.615   1.599 -0.2687  0.0277 -0.9309
 4792TIP3   OH214381   6.233   3.221   2.383 -0.1456 -0.4113  0.3302
 4792TIP3    H114382   6.149   3.184   2.412 -0.2195 -0.4312  0.0912
 4792TIP3    H214383   6.228   3.219   2.287 -0.0788  0.0579  0.3167
 4793TIP3   OH214384   2.934   0.118   3.067  0.6304  0.5288 -0.2369
 4793TIP3    H114385   2.865   0.174   3.102  0.8711  1.2003 -0.8035
 4793TIP3    H214386   2.980   0.085   3.144 -0.3192  0.0577  0.1500
 4794TIP3   OH214387   0.885   3.939   1.153  0.4128 -0.0455 -0.1067
 4794TIP3    H114388   0.790   3.930   1.158  0.3317  1.1622  0.8089
 4794TIP3    H214389   0.906   3.922   1.061 -0.4428 -2.2868  0.0541
 4795TIP3   OH214390   0.885   3.380   2.576  0.3648 -0.1148  0.0921
 4795TIP3    H114391   0.809   3.322   2.584  0.7856 -1.1750 -2.5406
 4795TIP3    H214392   0.946   3.349   2.643  0.8131 -3.2387 -1.5697
 4796TIP3   OH214393   5.438   3.730   5.175 -0.7299 -0.1227 -0.2663
 4796TIP3    H114394   5.506   3.695   5.118 -0.5497  0.1676 -0.2308
 4796TIP3    H214395   5.388   3.653   5.203  0.3954 -0.5068  0.7728
 4797TIP3   OH214396   2.863   0.567   3.012  0.2409  0.3928 -0.2753
 4797TIP3    H114397   2.798   0.505   2.978 -0.2742 -0.4140  2.0007
 4797TIP3    H214398   2.912   0.517   3.077  1.2605  1.7874  0.0694
 4798TIP3   OH214399   2.323   2.666   5.133  0.0793  0.2186 -0.0833
 4798TIP3    H114400   2.344   2.636   5.222 -1.1452 -0.4796 -0.0097
 4798TIP3    H214401   2.404   2.651   5.083  0.2405 -1.0172  0.5192
 4799TIP3   OH214402   1.197   5.687   3.423 -0.2826  0.4071  0.4991
 4799TIP3    H114403   1.267   5.752   3.426 -0.8298  1.0318  0.0520
 4799TIP3    H214404   1.126   5.726   3.475 -0.0143 -0.5834  1.6555
 4800TIP3   OH214405   5.846   0.796   3.945 -0.1964  0.4219  0.0294
 4800TIP3    H114406   5.886   0.712   3.968  3.8650  1.9208 -0.6985
 4800TIP3    H214407   5.879   0.815   3.857 -0.8915  2.8019  0.2185
 4801TIP3   OH214408   6.222   2.633   1.575  0.1265  0.2295  0.4473
 4801TIP3    H114409   6.237   2.539   1.575  2.1653  0.5088  0.3847
 4801TIP3    H214410   6.218   2.657   1.482 -0.1433  0.2312  0.4603
 4802TIP3   OH214411   0.979   5.751   2.160 -0.4480 -0.1842 -0.1722
 4802TIP3    H114412   0.909   5.787   2.214 -0.0139  0.1827  0.1650
 4802TIP3    H214413   1.002   5.668   2.202  1.3568  1.0798  1.5584
 4803TIP3   OH214414   0.463   5.799   1.993  0.0404 -0.2312 -0.7250
 4803TIP3    H114415   0.528   5.831   1.931 -0.5936 -0.4518 -1.5262
 4803TIP3    H214416   0.392   5.765   1.938 -0.8607  0.2300  0.1205
 4804TIP3   OH214417   4.587   0.866   4.497 -0.0524 -0.0136  0.8024
 4804TIP3    H114418   4.641   0.870   4.418 -0.2476  0.4417  0.6881
 4804TIP3    H214419   4.624   0.795   4.548  0.0347 -0.3557  0.2667
 4805TIP3   OH214420   1.574   0.591   2.412 -0.4474 -0.2825 -0.0143
 4805TIP3    H114421   1.613   0.507   2.436  0.9758  0.8110  1.7609
 4805TIP3    H214422   1.642   0.636   2.362 -0.3789  0.6310  0.8804
 4806TIP3   OH214423   0.027   0.759   0.504  0.5639 -0.1149 -0.1341
 4806TIP3    H114424   0.017   0.671   0.467 -0.4308  0.0775 -0.3532
 4806TIP3    H214425   0.015   0.747   0.598 -0.4785 -0.1054 -0.2473
 4807TIP3   OH214426   2.411   1.844   4.836  0.1058 -0.1576  0.2666
 4807TIP3    H114427   2.347   1.887   4.894  0.4440  0.3292  0.2845
 4807TIP3    H214428   2.481   1.816   4.895  0.0930 -0.3376  0.1951
 4808TIP3   OH214429   1.075   5.143   0.453  0.1061 -0.3455  0.3622
 4808TIP3    H114430   0.990   5.150   0.497 -0.5280 -1.4125 -0.6594
 4808TIP3    H214431   1.079   5.219   0.396  0.0370 -0.0576  0.7364
 4809TIP3   OH214432   0.135   5.152   3.613 -0.1850  0.4397 -0.1355
 4809TIP3    H114433   0.097   5.128   3.698  1.3258  0.8270  0.6824
 4809TIP3    H214434   0.225   5.178   3.633  0.0892  0.9166 -1.8136
 4810TIP3   OH214435   2.031   0.896   0.344  0.6468  0.4558 -0.0073
 4810TIP3    H114436   2.124   0.883   0.362  0.4969 -0.6158  0.0561
 4810TIP3    H214437   2.019   0.869   0.253  0.1947 -0.6149  0.3454
 4811TIP3   OH214438   2.606   4.816   4.292  0.2173 -0.1994  0.0467
 4811TIP3    H114439   2.563   4.741   4.333  0.2577 -1.0802 -1.4215
 4811TIP3    H214440   2.663   4.776   4.225  0.1020  1.1449 -0.8839
 4812TIP3   OH214441   3.846   1.672   0.904  0.0875 -0.4696  0.1179
 4812TIP3    H114442   3.773   1.667   0.843 -0.0681  0.4931  0.2149
 4812TIP3    H214443   3.887   1.756   0.886 -0.1948  0.0122  1.5995
 4813TIP3   OH214444   3.651   1.617   0.745  0.1674  0.2743 -0.0290
 4813TIP3    H114445   3.577   1.676   0.733 -0.9806 -0.8570  1.1347
 4813TIP3    H214446   3.611   1.532   0.761  1.6981 -0.2729  1.1303
 4814TIP3   OH214447   1.590   5.179   4.200 -0.1263  0.4498  0.9612
 4814TIP3    H114448   1.638   5.109   4.245 -0.6162 -2.1712 -2.2096
 4814TIP3    H214449   1.643   5.198   4.123 -0.5604  2.9138  1.1955
 4815TIP3   OH214450   5.801   0.982   2.405 -0.5034  0.1875  0.5936
 4815TIP3    H114451   5.822   1.048   2.339 -0.0570 -0.1675  0.3704
 4815TIP3    H214452   5.831   1.020   2.487 -2.5593  1.3335  0.8596
 4816TIP3   OH214453   5.316   4.165   3.917  0.5027 -0.0885  0.3997
 4816TIP3    H114454   5.236   4.181   3.866  0.9231  0.5326 -0.0699
 4816TIP3    H214455   5.374   4.237   3.894  1.8165 -1.3632 -0.4708
 4817TIP3   OH214456   5.107   0.430   2.242 -0.5669 -0.0940  0.0650
 4817TIP3    H114457   5.081   0.466   2.157  0.3370 -0.5298 -0.4141
 4817TIP3    H214458   5.049   0.355   2.255 -0.4589 -0.2569 -0.3588
 4818TIP3   OH214459   0.934   0.856   3.330  0.4943 -0.4166 -0.0696
 4818TIP3    H114460   0.862   0.823   3.383  0.7607  0.4064  0.8310
 4818TIP3    H214461   0.912   0.947   3.313  0.8082 -0.4512 -0.6952
 4819TIP3   OH214462   1.502   1.182   2.248 -0.6767  0.1162  0.0554
 4819TIP3    H114463   1.455   1.203   2.328 -0.0941  2.3626 -0.0997
 4819TIP3    H214464   1.594   1.195   2.271 -0.4567  0.0219 -0.7480
 4820TIP3   OH214465   5.453   4.017   5.078  0.6201 -0.4469 -0.4484
 4820TIP3    H114466   5.380   4.012   5.017  1.0107 -1.1177 -0.8754
 4820TIP3    H214467   5.471   3.925   5.101  0.0649 -0.1850  1.1717
 4821TIP3   OH214468   5.210   2.667   3.966 -0.0582 -0.6806 -0.0823
 4821TIP3    H114469   5.182   2.687   4.056  1.1135 -1.9516  0.6018
 4821TIP3    H214470   5.303   2.644   3.975 -0.6422 -3.9329 -1.1158
 4822TIP3   OH214471   3.992   5.159   4.193 -0.1141  0.2275  0.1121
 4822TIP3    H114472   4.017   5.127   4.107 -0.4745 -0.2669  0.1806
 4822TIP3    H214473   3.896   5.163   4.190 -0.0526  2.6407 -0.3496
 4823TIP3   OH214474   5.555   5.354   0.805  0.1695 -0.7613 -0.0718
 4823TIP3    H114475   5.512   5.438   0.789 -0.3772 -0.7436  1.4229
 4823TIP3    H214476   5.648   5.374   0.805  0.0281 -0.1089  0.5511
 4824TIP3   OH214477   0.333   0.955   2.611  0.0067  0.5926 -0.3100
 4824TIP3    H114478   0.349   0.893   2.682  0.9237  1.2540  0.0818
 4824TIP3    H214479   0.312   1.037   2.655  0.4520  0.9759 -0.7999
 4825TIP3   OH214480   6.154   4.740   5.002 -0.6712  0.0840 -0.0656
 4825TIP3    H114481   6.222   4.681   5.036  0.7377  1.4121 -0.4417
 4825TIP3    H214482   6.169   4.740   4.907 -0.4544  1.2239 -0.0489
 4826TIP3   OH214483   3.911   3.542   5.003 -0.1594  0.0821 -0.1843
 4826TIP3    H114484   4.004   3.535   5.026 -0.1970 -0.8899 -0.3158
 4826TIP3    H214485   3.865   3.529   5.086 -0.1660  2.4706  0.2661
 4827TIP3   OH214486   2.031   4.665   3.673 -0.4261  0.1800 -0.2226
 4827TIP3    H114487   1.955   4.720   3.656 -0.2129  1.1973  1.7785
 4827TIP3    H214488   2.101   4.727   3.694  0.4542 -0.7909 -0.2286
 4828TIP3   OH214489   3.393   5.357   2.593  1.1443  0.5716  0.5885
 4828TIP3    H114490   3.369   5.278   2.641 -0.1280  0.6787  0.1533
 4828TIP3    H214491   3.476   5.334   2.549  0.7532 -0.5518  0.4028
 4829TIP3   OH214492   1.860   5.096   5.005 -0.2009 -0.0927  0.1418
 4829TIP3    H114493   1.937   5.098   5.062 -0.9901  0.9133  1.1974
 4829TIP3    H214494   1.853   5.185   4.970 -0.4429 -0.3802 -0.5770
 4830TIP3   OH214495   0.479   5.624   1.577  0.6987 -0.0314  0.3557
 4830TIP3    H114496   0.462   5.544   1.527 -0.4734 -0.4247  1.3452
 4830TIP3    H214497   0.545   5.671   1.525  0.1164 -0.7989 -1.1394
 4831TIP3   OH214498   3.909   1.741   1.515 -0.1713  0.2152 -0.3317
 4831TIP3    H114499   3.921   1.819   1.462  1.5674 -0.2487 -0.6649
 4831TIP3    H214500   3.963   1.674   1.473  3.8072  0.5330  3.5595
 4832TIP3   OH214501   4.452   0.434   0.564  0.1865 -0.8208  0.0870
 4832TIP3    H114502   4.365   0.397   0.549  0.2760 -0.5872 -1.0284
 4832TIP3    H214503   4.509   0.388   0.502  0.6106 -0.0013 -0.1383
 4833TIP3   OH214504   2.672   3.839   3.069  0.3317  0.5378  0.1456
 4833TIP3    H114505   2.732   3.785   3.121  0.1333 -0.5316 -0.6925
 4833TIP3    H214506   2.668   3.794   2.984 -1.0716  1.0033 -0.0544
 4834TIP3   OH214507   0.188   4.776   4.984 -0.1446 -0.1183  0.1305
 4834TIP3    H114508   0.254   4.724   5.030  1.4656  0.3721 -1.5079
 4834TIP3    H214509   0.184   4.737   4.897 -1.4456  0.3939 -0.0640
 4835TIP3   OH214510   1.458   2.173   3.584 -0.2767  0.2404 -0.2431
 4835TIP3    H114511   1.534   2.128   3.621  0.5754  2.3244  0.7052
 4835TIP3    H214512   1.437   2.124   3.504  2.0854 -0.3523 -0.5549
 4836TIP3   OH214513   5.126   3.715   4.651  0.1840  0.1271  0.0759
 4836TIP3    H114514   5.205   3.662   4.659  0.3886  0.2598 -0.9388
 4836TIP3    H214515   5.131   3.778   4.722  0.4828 -0.5146  0.6279
 4837TIP3   OH214516   2.507   2.446   1.573 -0.1909  0.4673 -0.4333
 4837TIP3    H114517   2.412   2.443   1.576 -0.1789  0.7143  1.5243
 4837TIP3    H214518   2.528   2.459   1.481 -2.0769  1.3298 -0.7785
 4838TIP3   OH214519   0.038   4.870   0.830  0.1466  0.0391  0.2005
 4838TIP3    H114520  -0.047   4.826   0.821  0.9347 -1.5489  0.0877
 4838TIP3    H214521   0.025   4.956   0.791 -2.0607  0.7700  2.3069
 4839TIP3   OH214522   3.115   5.386   0.063 -0.1018 -0.4225  0.0931
 4839TIP3    H114523   3.176   5.457   0.081  1.6035 -1.8003 -0.0196
 4839TIP3    H214524   3.057   5.421  -0.005  0.9577  0.7146 -0.2589
 4840TIP3   OH214525   5.893   2.001   4.842  0.3549 -0.1041 -0.2474
 4840TIP3    H114526   5.882   1.990   4.937  0.0955  1.2155 -0.0919
 4840TIP3    H214527   5.939   2.085   4.834  1.6094 -0.8669 -1.2564
 4841TIP3   OH214528   2.892   0.142   0.268  0.2622  0.0292  0.2869
 4841TIP3    H114529   2.905   0.190   0.350  1.3594 -2.3880  1.6268
 4841TIP3    H214530   2.814   0.088   0.284  0.1670 -0.0791 -0.4847
 4842TIP3   OH214531   0.228   4.657   2.635 -0.0141  0.1827 -0.2021
 4842TIP3    H114532   0.226   4.632   2.727 -0.4539  1.1724  0.0786
 4842TIP3    H214533   0.269   4.583   2.591 -1.3148 -1.0324  0.5462
 4843TIP3   OH214534   0.464   1.631   1.980  0.3169  0.3529 -0.4151
 4843TIP3    H114535   0.499   1.652   1.893 -0.8810  1.3925 -0.6758
 4843TIP3    H214536   0.379   1.676   1.983  0.7845  1.1910  1.6815
 4844TIP3   OH214537   0.855   4.507   0.465 -0.3707 -0.2640  0.4410
 4844TIP3    H114538   0.818   4.470   0.385 -0.4109  0.9859 -0.1433
 4844TIP3    H214539   0.832   4.444   0.534 -1.9194 -0.4614 -0.2232
 4845TIP3   OH214540   5.799   3.353   1.950 -0.1414  0.1619 -0.1773
 4845TIP3    H114541   5.710   3.364   1.918  0.0779  0.7020 -0.6079
 4845TIP3    H214542   5.795   3.274   2.004 -1.3492  1.3309  1.5601
 4846TIP3   OH214543   4.434   3.992   1.850  0.4894  0.0162  0.1000
 4846TIP3    H114544   4.443   4.087   1.852 -1.7490  0.2688  1.4641
 4846TIP3    H214545   4.364   3.973   1.912 -0.4373 -2.3658 -1.5204
 4847TIP3   OH214546   3.722   5.480   1.651 -0.3975  0.3610  0.8034
 4847TIP3    H114547   3.716   5.566   1.693 -0.2972 -0.7498  3.2135
 4847TIP3    H214548   3.813   5.453   1.663 -0.2485  0.1844 -0.5588
 4848TIP3   OH214549   4.765   5.621   2.602 -0.0559  0.2571  0.3017
 4848TIP3    H114550   4.724   5.707   2.605 -0.4961  0.1594 -1.7270
 4848TIP3    H214551   4.846   5.634   2.553  0.1924 -0.3584  0.5391
 4849TIP3   OH214552   5.676   1.105   1.863 -0.1445  0.8847  0.0585
 4849TIP3    H114553   5.733   1.099   1.786  0.2645  0.7703  0.3630
 4849TIP3    H214554   5.636   1.019   1.872  1.4149  0.2224  1.1741
 4850TIP3   OH214555   3.334   2.345   0.099  0.5807 -0.2900  0.1569
 4850TIP3    H114556   3.313   2.371   0.010 -0.1513 -1.4230 -0.0249
 4850TIP3    H214557   3.286   2.407   0.154  1.1924  0.5322 -0.2182
 4851TIP3   OH214558   0.402   3.010   2.424 -0.3527 -0.6372 -0.2581
 4851TIP3    H114559   0.436   2.984   2.509 -0.0782 -0.7628 -0.4032
 4851TIP3    H214560   0.451   2.957   2.361 -1.7197 -1.7616 -0.4205
 4852TIP3   OH214561   0.425   0.873   4.312 -0.4345 -0.1112  0.1641
 4852TIP3    H114562   0.449   0.829   4.230  0.2250 -0.8081  0.7215
 4852TIP3    H214563   0.422   0.966   4.289  0.5690 -0.2175 -0.4667
 4853TIP3   OH214564   4.639   4.056   2.974 -0.3938 -0.6344 -0.2187
 4853TIP3    H114565   4.660   3.983   3.033  0.7412 -1.3394 -1.4376
 4853TIP3    H214566   4.665   4.024   2.887 -0.8151  0.8638 -0.9202
 4854TIP3   OH214567   1.875   5.730   0.000 -0.1788 -0.1666  0.3430
 4854TIP3    H114568   1.959   5.720   0.046  0.5010  1.5053 -0.4521
 4854TIP3    H214569   1.848   5.819   0.021 -1.7005 -0.6289  0.4349
 4855TIP3   OH214570   5.997   4.315   2.337 -0.3533 -0.3396 -0.2256
 4855TIP3    H114571   5.952   4.396   2.360 -1.2533 -0.1703 -2.3469
 4855TIP3    H214572   5.943   4.246   2.376  0.2801  0.0096  1.3751
 4856TIP3   OH214573   2.099   2.905   0.128 -0.2224  0.3424 -0.6998
 4856TIP3    H114574   2.114   2.811   0.115 -0.7539 -0.1406  1.6624
 4856TIP3    H214575   2.018   2.909   0.180  0.8293  1.9709  0.9246
 4857TIP3   OH214576   3.304   3.620   3.314 -0.5665  0.1925  0.3378
 4857TIP3    H114577   3.220   3.574   3.318  0.4472 -1.7615  0.0824
 4857TIP3    H214578   3.369   3.553   3.331  0.9913  1.5870  0.0941
 4858TIP3   OH214579   4.271   0.461   2.289  0.1495  0.4850  0.2081
 4858TIP3    H114580   4.244   0.552   2.299 -0.9606  0.3278 -0.9834
 4858TIP3    H214581   4.267   0.425   2.377 -0.8677  1.2202  0.4879
 4859TIP3   OH214582   0.634   0.045   4.246 -0.3666 -0.0506 -0.1516
 4859TIP3    H114583   0.548   0.053   4.204  0.1007  2.1531 -0.8202
 4859TIP3    H214584   0.622  -0.023   4.312 -2.5814  0.0831 -0.3366
 4860TIP3   OH214585   2.863   1.813   4.506  0.4108 -0.4138  0.4664
 4860TIP3    H114586   2.795   1.810   4.574  1.6514 -0.7495  1.7493
 4860TIP3    H214587   2.936   1.765   4.545  0.8122 -1.5035 -1.5341
 4861TIP3   OH214588   3.581   5.882   2.811  0.5513 -0.0581  0.2894
 4861TIP3    H114589   3.507   5.845   2.858  1.1108 -0.7423  0.6493
 4861TIP3    H214590   3.554   5.882   2.719 -0.2750  0.6384  0.5155
 4862TIP3   OH214591   4.872   2.843   4.161  0.2105 -0.1634 -0.4672
 4862TIP3    H114592   4.856   2.801   4.245 -0.4899 -1.9806 -1.4762
 4862TIP3    H214593   4.950   2.799   4.127  1.3765  1.5652 -0.1701
 4863TIP3   OH214594   1.740   1.836   5.139 -0.4186  0.0882 -0.3905
 4863TIP3    H114595   1.685   1.834   5.217  0.4636  0.8625  0.2738
 4863TIP3    H214596   1.702   1.769   5.081 -1.9053  0.4412  0.1293
 4864TIP3   OH214597   4.175   4.978   0.096 -0.1393 -0.1411  0.6961
 4864TIP3    H114598   4.232   5.053   0.084  0.4581 -0.6497  0.2665
 4864TIP3    H214599   4.092   5.015   0.127  0.5800  0.5558  1.8596
 4865TIP3   OH214600   1.137   2.552   4.955  0.2817  0.1841 -0.5389
 4865TIP3    H114601   1.100   2.636   4.931  1.8975  0.8016 -1.0006
 4865TIP3    H214602   1.205   2.573   5.020  2.3500 -0.4396 -2.3660
 4866TIP3   OH214603   3.236   1.327   2.987  0.0151  0.4208 -0.1012
 4866TIP3    H114604   3.295   1.369   2.925  0.1073  1.0028  0.3710
 4866TIP3    H214605   3.261   1.363   3.073 -1.2271  0.9456  0.0737
 4867TIP3   OH214606   5.865   4.793   1.657  0.4836 -0.4103  0.2998
 4867TIP3    H114607   5.947   4.843   1.664 -0.9856  2.3958 -0.8914
 4867TIP3    H214608   5.832   4.788   1.747  1.0391  0.0990  0.5342
 4868TIP3   OH214609   3.462   3.216   0.394 -0.6931  0.0514  0.0112
 4868TIP3    H114610   3.399   3.154   0.429 -0.1208 -0.1556  0.6886
 4868TIP3    H214611   3.517   3.240   0.469  1.7215 -1.7770 -1.0554
 4869TIP3   OH214612   1.117   5.359   0.279  0.3749 -0.2952  0.2195
 4869TIP3    H114613   1.102   5.401   0.194 -0.4552 -0.0651  0.4664
 4869TIP3    H214614   1.202   5.317   0.271 -0.0174 -0.8947 -0.9802
 4870TIP3   OH214615   2.966   0.781   0.039  0.2211 -0.0036  0.0634
 4870TIP3    H114616   3.038   0.740  -0.009  0.8568  0.1873  0.8225
 4870TIP3    H214617   2.908   0.708   0.062  1.7649 -0.6881  2.1297
 4871TIP3   OH214618   2.693   5.562   1.136 -0.0061 -0.3021 -0.2872
 4871TIP3    H114619   2.736   5.514   1.206 -0.2726 -1.2337 -0.7416
 4871TIP3    H214620   2.764   5.607   1.090  0.3362 -0.7940 -0.2485
 4872TIP3   OH214621   6.013   0.811   2.490  0.0295  0.1809 -0.1503
 4872TIP3    H114622   5.940   0.858   2.450 -0.4156 -1.9323 -1.9998
 4872TIP3    H214623   6.091   0.852   2.455 -0.3033  0.8210 -0.1470
 4873TIP3   OH214624   1.769   4.273   0.710  0.2669  0.3825  0.3206
 4873TIP3    H114625   1.690   4.287   0.763 -0.9095 -2.5430 -0.4474
 4873TIP3    H214626   1.825   4.218   0.764  0.6628  0.3503 -0.1147
 4874TIP3   OH214627   1.760   1.045   4.555 -0.9719 -0.3712 -0.5017
 4874TIP3    H114628   1.732   1.100   4.629  0.9524  1.4311 -0.9947
 4874TIP3    H214629   1.784   0.962   4.595 -1.1218  0.1568  0.7408
 4875TIP3   OH214630   0.260   5.497   2.484 -0.2828 -0.2830 -0.1505
 4875TIP3    H114631   0.326   5.535   2.427 -0.6645 -0.5555 -0.7821
 4875TIP3    H214632   0.207   5.442   2.427 -0.6033 -0.6550  0.4854
 4876TIP3   OH214633   0.977   5.953   1.652  0.6093 -0.1998 -0.0163
 4876TIP3    H114634   0.927   5.932   1.732 -2.2596  0.5324 -1.4775
 4876TIP3    H214635   1.047   5.887   1.649 -0.2825 -1.3498  2.1538
 4877TIP3   OH214636   5.596   4.310   0.685  0.4179 -0.1596 -0.4189
 4877TIP3    H114637   5.532   4.380   0.692  0.1799 -0.5373  1.6616
 4877TIP3    H214638   5.679   4.354   0.667  0.3302  0.7083  1.1722
 4878TIP3   OH214639   2.639   1.866   2.422  0.2796 -0.4226 -0.1769
 4878TIP3    H114640   2.606   1.909   2.343 -2.6337  0.8705  1.5730
 4878TIP3    H214641   2.688   1.790   2.390 -0.2255  0.4118 -3.2065
 4879TIP3   OH214642   5.492   2.449   4.319  0.9505  0.0040  0.5369
 4879TIP3    H114643   5.417   2.496   4.356  0.5648  0.4237 -0.7259
 4879TIP3    H214644   5.565   2.511   4.326  1.2741 -0.5211  2.0547
 4880TIP3   OH214645   1.157   4.313   4.759 -0.5794 -0.6032 -0.2500
 4880TIP3    H114646   1.095   4.384   4.744 -1.9982 -1.6338  0.4400
 4880TIP3    H214647   1.168   4.310   4.854 -0.2319 -1.0568 -0.2980
 4881TIP3   OH214648   5.083   3.873   1.832  0.0452  0.4691 -0.5267
 4881TIP3    H114649   5.072   3.781   1.810 -0.7407  0.3167  0.4613
 4881TIP3    H214650   5.025   3.919   1.771 -0.5803  0.2049 -0.1373
 4882TIP3   OH214651   0.685   4.355   1.759  0.0471 -0.4025  0.3023
 4882TIP3    H114652   0.690   4.266   1.723  1.7168  0.0094 -0.5967
 4882TIP3    H214653   0.715   4.411   1.688  1.0473  0.6777  1.5305
 4883TIP3   OH214654   6.304   4.364   0.763 -0.1326 -0.2124 -0.4148
 4883TIP3    H114655   6.372   4.429   0.747 -1.9802  2.3193  1.2721
 4883TIP3    H214656   6.274   4.339   0.675  0.0922  1.8370 -1.1140
 4884TIP3   OH214657   6.270   5.577   3.689 -0.0207 -0.0592 -0.0843
 4884TIP3    H114658   6.366   5.575   3.689  0.0188  1.1600 -0.4834
 4884TIP3    H214659   6.247   5.633   3.615 -1.0432 -0.2188  0.1001
 4885TIP3   OH214660   2.464   0.508   2.664  0.0893  0.0383  0.2316
 4885TIP3    H114661   2.458   0.595   2.702  0.9405 -0.2337  1.0186
 4885TIP3    H214662   2.479   0.450   2.738 -2.0135 -1.0128 -0.0725
 4886TIP3   OH214663   2.666   0.217   3.657 -0.0153  0.3783 -0.3385
 4886TIP3    H114664   2.634   0.195   3.744  0.6045 -0.8723 -0.3985
 4886TIP3    H214665   2.588   0.214   3.601  0.0219 -1.9989 -0.3713
 4887TIP3   OH214666   2.783   5.045   2.846  0.1573 -0.1106 -0.0959
 4887TIP3    H114667   2.722   5.106   2.804  0.1402  0.0352  0.1393
 4887TIP3    H214668   2.784   5.072   2.938  1.6953  0.8506 -0.3416
 4888TIP3   OH214669   3.242   3.685   0.467  0.2626  0.0849 -0.1528
 4888TIP3    H114670   3.163   3.656   0.420 -0.5224 -0.7376  1.5752
 4888TIP3    H214671   3.209   3.748   0.532  1.1158  0.1795  0.1998
 4889TIP3   OH214672   4.297   1.346   1.332  0.7810 -0.1301  0.3384
 4889TIP3    H114673   4.312   1.382   1.245 -0.1042 -0.4259  0.0520
 4889TIP3    H214674   4.273   1.255   1.316  0.5179 -0.1606  0.8861
 4890TIP3   OH214675   1.400   1.160   2.733 -0.3785 -0.1694 -0.3980
 4890TIP3    H114676   1.398   1.068   2.709  1.8540 -0.2178 -0.6108
 4890TIP3    H214677   1.476   1.168   2.790 -0.9765  1.4122  0.2300
 4891TIP3   OH214678   2.164   1.282   4.252  0.5002 -0.4537 -0.3556
 4891TIP3    H114679   2.133   1.234   4.329  0.1435 -0.8021 -0.7137
 4891TIP3    H214680   2.195   1.366   4.287 -0.0702 -0.4335  0.1141
 4892TIP3   OH214681   0.639   4.037   2.728  0.7053  0.3831  0.4928
 4892TIP3    H114682   0.722   4.060   2.770 -0.3251  3.2744  1.2182
 4892TIP3    H214683   0.612   4.118   2.684 -1.5026 -0.5922 -0.0768
 4893TIP3   OH214684   5.635   1.441   2.172 -0.9281  0.5301 -0.5487
 4893TIP3    H114685   5.686   1.374   2.126 -0.8317 -0.4691  0.9203
 4893TIP3    H214686   5.544   1.413   2.162 -1.1590  1.7593 -2.3083
 4894TIP3   OH214687   4.549   1.848   2.004 -0.2313  0.4680  0.0169
 4894TIP3    H114688   4.537   1.871   2.096  0.4856 -0.6792  0.4249
 4894TIP3    H214689   4.469   1.800   1.980  0.0677 -0.2415  0.3978
 4895TIP3   OH214690   4.841   4.746   4.447 -0.4743  0.2848 -0.5192
 4895TIP3    H114691   4.840   4.765   4.353  3.1840 -0.0131 -0.7790
 4895TIP3    H214692   4.816   4.653   4.452  0.9597 -0.2011 -1.4759
 4896TIP3   OH214693   2.056   0.396   2.099  0.1448 -0.1775 -0.2397
 4896TIP3    H114694   2.018   0.310   2.079 -1.1352 -0.0255  1.3601
 4896TIP3    H214695   2.026   0.452   2.027 -0.9583 -0.5663 -0.1085
 4897TIP3   OH214696   1.877   0.838   3.954  0.7631  0.2869 -0.2502
 4897TIP3    H114697   1.934   0.900   3.908  1.5991 -0.2277  0.0662
 4897TIP3    H214698   1.813   0.893   3.999  0.4743  0.8422 -1.2914
 4898TIP3   OH214699   3.774   3.392   4.826  0.6870 -0.1152  0.4890
 4898TIP3    H114700   3.804   3.305   4.851 -0.8158 -0.4075  1.4149
 4898TIP3    H214701   3.826   3.452   4.881  0.5842 -0.5182  1.0301
 4899TIP3   OH214702   5.895   0.514   1.056 -0.7641  0.1350  0.0179
 4899TIP3    H114703   5.910   0.608   1.045 -0.4353 -0.0180 -0.9135
 4899TIP3    H214704   5.925   0.495   1.145 -1.3375  1.0019  0.4156
 4900TIP3   OH214705   5.990   5.368   4.824  0.3305 -0.0550  0.1997
 4900TIP3    H114706   5.914   5.396   4.773  0.1062 -0.6654  0.1890
 4900TIP3    H214707   6.024   5.449   4.862  0.1727  0.3375 -0.4651
 4901TIP3   OH214708   4.257   5.586   0.276 -0.5005 -0.0782 -0.3280
 4901TIP3    H114709   4.253   5.548   0.188 -0.7636 -0.0654 -0.3219
 4901TIP3    H214710   4.203   5.664   0.270  0.3386  0.5141 -0.4449
 4902TIP3   OH214711   4.851   1.002   0.699 -0.0942 -0.6627  0.0835
 4902TIP3    H114712   4.867   1.024   0.790  1.8196  0.4200 -0.4634
 4902TIP3    H214713   4.770   1.046   0.677 -0.5617 -0.9148  1.2375
 4903TIP3   OH214714   1.360   3.688   0.751 -0.2227 -0.3573  0.1588
 4903TIP3    H114715   1.281   3.730   0.717 -0.0159 -1.0674 -1.2515
 4903TIP3    H214716   1.418   3.679   0.676 -0.2788 -3.1997  0.3353
 4904TIP3   OH214717   1.703   1.103   3.142  0.1557 -0.0781 -0.2400
 4904TIP3    H114718   1.753   1.022   3.134 -0.2636 -0.1769 -3.0659
 4904TIP3    H214719   1.768   1.173   3.138  0.4163 -0.2147  1.0753
 4905TIP3   OH214720   1.011   5.885   3.543  0.3918 -0.6744  0.2086
 4905TIP3    H114721   0.939   5.917   3.598 -0.7703  0.3763 -1.8117
 4905TIP3    H214722   1.064   5.963   3.527  0.5230 -0.8951 -0.4364
 4906TIP3   OH214723   4.295   3.175   0.976  0.2742  0.4727 -0.2706
 4906TIP3    H114724   4.347   3.158   1.054  0.6589  2.5735 -0.0071
 4906TIP3    H214725   4.313   3.267   0.955 -1.3502  0.5165 -1.6724
 4907TIP3   OH214726   4.739   4.804   0.531  0.6560 -0.3646  0.2469
 4907TIP3    H114727   4.660   4.820   0.481  1.1479  0.8691 -0.1552
 4907TIP3    H214728   4.804   4.864   0.495  2.4188 -2.7926 -0.8953
 4908TIP3   OH214729   1.109   3.421   4.995 -0.2464  0.1603 -0.7703
 4908TIP3    H114730   1.142   3.344   4.949 -1.1709  0.5973 -2.2385
 4908TIP3    H214731   1.147   3.495   4.948 -0.5083  0.6273 -0.2600
 4909TIP3   OH214732   4.676   5.386   4.016 -0.6236  0.7192  0.3700
 4909TIP3    H114733   4.703   5.432   4.095  0.2253  0.7610  0.0670
 4909TIP3    H214734   4.723   5.302   4.020 -1.5856  0.1786  0.5565
 4910TIP3   OH214735   1.279   5.786   1.148  0.2023  0.3473  0.6089
 4910TIP3    H114736   1.224   5.844   1.201 -0.6842 -0.3770  0.5032
 4910TIP3    H214737   1.266   5.816   1.058  0.9515  0.9547  0.6899
 4911TIP3   OH214738   1.453   4.595   3.598 -0.7426 -0.0985 -0.1976
 4911TIP3    H114739   1.381   4.622   3.655  0.8471 -1.2199  2.5449
 4911TIP3    H214740   1.433   4.634   3.513 -3.0688  2.0258  1.2024
 4912TIP3   OH214741   1.444   3.846   1.246  0.1732 -0.0126 -0.0067
 4912TIP3    H114742   1.384   3.884   1.310  1.7924  0.7880  1.1039
 4912TIP3    H214743   1.446   3.909   1.174  0.5882  0.5596  0.4981
 4913TIP3   OH214744   1.281   3.309   4.763  0.1231  0.3806 -0.0167
 4913TIP3    H114745   1.366   3.318   4.807  0.6299  0.0454 -0.8991
 4913TIP3    H214746   1.289   3.364   4.685 -0.1011 -0.4404 -0.6291
 4914TIP3   OH214747   0.207   0.431   3.453 -0.2686  0.1389  0.6688
 4914TIP3    H114748   0.216   0.350   3.503  0.3835  1.0164  2.0665
 4914TIP3    H214749   0.297   0.459   3.437 -0.4732  1.0635  1.0507
 4915TIP3   OH214750   2.639   2.044   0.842 -0.1890  0.0521 -0.1911
 4915TIP3    H114751   2.689   2.124   0.826 -0.9905  0.6064 -0.0111
 4915TIP3    H214752   2.554   2.061   0.802 -1.1835  0.2337  1.8665
 4916TIP3   OH214753   5.694   2.917   2.917  0.2785  0.3354 -0.4454
 4916TIP3    H114754   5.607   2.915   2.876  0.5022  1.8401 -1.0560
 4916TIP3    H214755   5.732   3.000   2.889  1.9804 -0.3541 -0.2864
 4917TIP3   OH214756   1.096   1.175   0.620  0.1701  0.1079  0.0612
 4917TIP3    H114757   1.074   1.230   0.695  1.6726  0.0161  0.6110
 4917TIP3    H214758   1.094   1.086   0.654 -0.0676 -0.0042 -0.2473
 4918TIP3   OH214759   3.139   1.322   4.701 -0.1370  0.2282 -0.6294
 4918TIP3    H114760   3.047   1.348   4.687 -0.3919 -1.1558 -1.7590
 4918TIP3    H214761   3.160   1.269   4.624  0.8907 -1.4261  0.7347
 4919TIP3   OH214762   5.620   3.318   5.131  0.8970 -0.0567  0.1130
 4919TIP3    H114763   5.716   3.322   5.133  0.8719  0.4076  1.1674
 4919TIP3    H214764   5.599   3.232   5.165  0.9569 -0.8647 -1.7823
 4920TIP3   OH214765   5.890   3.626   0.391 -0.2097  0.4848 -0.8530
 4920TIP3    H114766   5.896   3.585   0.477  1.8510  0.0051 -1.1742
 4920TIP3    H214767   5.925   3.714   0.404 -0.4225  0.6069 -1.0939
 4921TIP3   OH214768   4.749   0.766   2.960 -0.2141 -0.0513 -0.0941
 4921TIP3    H114769   4.757   0.801   2.871 -0.3846 -2.0113 -0.9488
 4921TIP3    H214770   4.685   0.695   2.951  0.2362 -0.6805  1.4683
 4922TIP3   OH214771   0.670   4.380   5.090  0.2556 -0.5001  0.1033
 4922TIP3    H114772   0.586   4.363   5.131  0.5990 -1.8784  0.2701
 4922TIP3    H214773   0.656   4.461   5.039 -1.4375 -1.2334 -0.6613
 4923TIP3   OH214774   3.195   4.283   4.338  0.2239  0.0016  0.1247
 4923TIP3    H114775   3.224   4.373   4.326 -1.5859  0.5439 -0.4427
 4923TIP3    H214776   3.157   4.258   4.254 -0.2776 -0.9073  0.5998
 4924TIP3   OH214777   0.799   0.918   0.726  0.1345  0.6568 -0.1186
 4924TIP3    H114778   0.839   0.876   0.650  0.9877  0.9259  0.1663
 4924TIP3    H214779   0.751   0.848   0.770  1.0259  0.1120  0.0149
 4925TIP3   OH214780   4.831   0.548   2.684 -0.0695  0.5477  0.6614
 4925TIP3    H114781   4.782   0.470   2.658  0.0069  0.9152 -0.6403
 4925TIP3    H214782   4.914   0.513   2.718 -0.9659 -0.0413  2.3552
 4926TIP3   OH214783   5.141   1.170   2.194 -0.7609 -0.0595  0.0373
 4926TIP3    H114784   5.221   1.148   2.146 -1.0940 -0.1085 -0.4987
 4926TIP3    H214785   5.131   1.099   2.257 -0.1160  0.1992  0.4434
 4927TIP3   OH214786   2.964   3.671   3.878  0.0840  0.3780  0.1593
 4927TIP3    H114787   2.881   3.716   3.863 -0.2868 -0.4484 -0.3433
 4927TIP3    H214788   2.939   3.587   3.917  0.8262  1.0315  2.1997
 4928TIP3   OH214789   3.477   2.520   4.085  0.4852 -0.3110 -0.2012
 4928TIP3    H114790   3.476   2.442   4.029  1.7147  0.2897 -1.1050
 4928TIP3    H214791   3.569   2.537   4.101  0.2112 -1.3764  3.4021
 4929TIP3   OH214792   2.938   5.409   2.229 -0.0716  0.5371  0.1713
 4929TIP3    H114793   2.929   5.476   2.297  0.4954 -0.1751  0.9690
 4929TIP3    H214794   3.018   5.434   2.182 -1.1552  1.7787 -1.1348
 4930TIP3   OH214795   3.857   1.553   0.521 -0.0461 -0.1549  0.2857
 4930TIP3    H114796   3.795   1.603   0.573 -0.6676  1.6725 -2.0424
 4930TIP3    H214797   3.942   1.593   0.539 -0.2303  0.3452  0.0646
 4931TIP3   OH214798   5.466   5.726   0.520 -0.1549 -0.3465 -0.1015
 4931TIP3    H114799   5.535   5.781   0.557  0.4579 -0.8540 -0.4629
 4931TIP3    H214800   5.499   5.701   0.433 -1.9641  1.6278 -1.4561
 4932TIP3   OH214801   2.927   2.463   1.469  0.3721 -0.3577 -0.1161
 4932TIP3    H114802   2.910   2.557   1.481 -2.2661 -0.6060 -1.2422
 4932TIP3    H214803   2.924   2.450   1.374 -1.3591 -1.8430  0.0773
 4933TIP3   OH214804   3.406   0.377   2.688 -0.0321 -0.2806 -0.0788
 4933TIP3    H114805   3.346   0.422   2.746 -1.5711 -2.4448  0.1073
 4933TIP3    H214806   3.381   0.406   2.600 -2.3612 -2.1286 -0.1244
 4934TIP3   OH214807   2.637   3.039   4.410  0.0395 -0.1878 -0.0946
 4934TIP3    H114808   2.720   3.061   4.452 -0.7814  1.3774  0.7963
 4934TIP3    H214809   2.571   3.054   4.477 -1.0881 -0.0237 -1.2014
 4935TIP3   OH214810   4.077   3.569   2.829 -0.1956 -0.4626 -0.0973
 4935TIP3    H114811   4.045   3.625   2.759  0.4511  0.7942  0.5834
 4935TIP3    H214812   4.156   3.613   2.861 -0.0860 -1.3773  0.9517
 4936TIP3   OH214813   5.374   4.358   1.749 -0.3825  0.2880  0.7284
 4936TIP3    H114814   5.423   4.435   1.779  2.6273 -0.7646 -1.0802
 4936TIP3    H214815   5.414   4.336   1.665 -0.9112 -3.4311  1.3093
 4937TIP3   OH214816   1.155   0.213   0.137 -0.3332  0.2036 -0.0763
 4937TIP3    H114817   1.103   0.145   0.092 -0.0710 -0.5098  0.6774
 4937TIP3    H214818   1.150   0.288   0.078  0.1378 -0.7496 -1.4043
 4938TIP3   OH214819   5.046   3.033   1.504 -0.1376  0.1564  0.1609
 4938TIP3    H114820   5.066   3.104   1.566 -1.0860  0.9631 -0.4222
 4938TIP3    H214821   4.969   2.990   1.541  0.5975 -0.7758  0.6543
 4939TIP3   OH214822   1.711   1.672   0.496 -0.0581  0.3562  0.1029
 4939TIP3    H114823   1.623   1.704   0.477 -1.2184 -1.9073  1.2238
 4939TIP3    H214824   1.754   1.668   0.411 -1.1771  1.0796 -0.5269
 4940TIP3   OH214825   4.111   2.635   2.890  0.8887  0.3409 -0.1879
 4940TIP3    H114826   4.123   2.669   2.801 -2.1496  0.4064 -0.6471
 4940TIP3    H214827   4.120   2.712   2.946  2.4668  0.3586 -0.3992
 4941TIP3   OH214828   2.695   4.829   1.812  0.4192 -0.8288 -0.5901
 4941TIP3    H114829   2.671   4.818   1.905 -2.1204  0.5501 -0.9840
 4941TIP3    H214830   2.677   4.744   1.773  2.7262 -1.8277  0.3293
 4942TIP3   OH214831   5.538   3.156   1.466  0.6356 -0.1852 -0.1726
 4942TIP3    H114832   5.529   3.137   1.373 -1.0916 -1.7692  0.2404
 4942TIP3    H214833   5.632   3.162   1.481  0.9040  1.7807 -2.2774
 4943TIP3   OH214834   2.796   3.132   3.768 -0.4922 -1.0003 -0.0324
 4943TIP3    H114835   2.746   3.061   3.727 -0.3965 -2.1382  1.7290
 4943TIP3    H214836   2.731   3.182   3.817  0.0254 -2.9118  2.8675
 4944TIP3   OH214837   4.944   5.863   4.709 -0.0579  0.1699  0.3511
 4944TIP3    H114838   4.972   5.932   4.649 -1.0318  1.4928  1.3630
 4944TIP3    H214839   4.851   5.882   4.725 -0.6040 -1.9186 -0.0565
 4945TIP3   OH214840   0.973   1.204   0.375  0.3751  0.1144  0.4816
 4945TIP3    H114841   1.019   1.214   0.458 -1.4697  2.1233  1.3551
 4945TIP3    H214842   1.040   1.221   0.308  1.7150 -0.8126  1.5421
 4946TIP3   OH214843   2.734   3.849   2.670 -0.4307 -0.3141 -0.2823
 4946TIP3    H114844   2.731   3.754   2.683 -1.0103 -0.3187 -0.4363
 4946TIP3    H214845   2.714   3.862   2.578 -1.3787  0.0091 -0.0454
 4947TIP3   OH214846   1.512   4.310   4.192  0.0323  0.3601 -0.8077
 4947TIP3    H114847   1.596   4.264   4.188  0.1436  0.6307 -2.0560
 4947TIP3    H214848   1.510   4.364   4.113 -1.0337  0.8620 -0.4614
 4948TIP3   OH214849   6.100   0.472   2.939 -0.5254 -0.2328  0.9520
 4948TIP3    H114850   6.186   0.488   2.898  0.1114  1.5264  2.8433
 4948TIP3    H214851   6.119   0.414   3.012 -1.1814 -0.8435  0.6542
 4949TIP3   OH214852   2.716   0.410   5.086 -0.1030  0.2518  0.6259
 4949TIP3    H114853   2.801   0.385   5.123 -0.5900 -0.2615  1.4396
 4949TIP3    H214854   2.734   0.491   5.038  0.9706 -0.1967  0.2406
 4950TIP3   OH214855   3.935   0.855   0.447 -0.1309 -0.4146  0.0213
 4950TIP3    H114856   3.976   0.794   0.508 -0.5665 -1.2079 -0.4655
 4950TIP3    H214857   4.004   0.874   0.383 -0.9166 -3.0868 -1.7922
 4951TIP3   OH214858   4.043   4.656   2.484  0.0854  0.1811  0.2014
 4951TIP3    H114859   4.029   4.613   2.400 -0.9897  1.0934 -0.1111
 4951TIP3    H214860   3.955   4.677   2.515  0.5615  2.0058  0.3992
 4952TIP3   OH214861   5.562   2.003   1.782  0.5274  0.8529 -0.0801
 4952TIP3    H114862   5.621   2.077   1.796 -0.2400  1.3302  0.7502
 4952TIP3    H214863   5.609   1.927   1.817  0.7672  1.1756  0.3075
 4953TIP3   OH214864   6.189   1.227   3.091 -0.1243  0.2065 -0.1960
 4953TIP3    H114865   6.254   1.208   3.023 -0.9111 -2.4913 -0.3147
 4953TIP3    H214866   6.168   1.141   3.128 -2.3790  1.2018  0.9810
 4954TIP3   OH214867   4.674   2.813   2.032 -0.2583 -0.1740 -0.4629
 4954TIP3    H114868   4.674   2.758   2.110 -0.3322  1.1418  0.4983
 4954TIP3    H214869   4.760   2.798   1.992  0.7548  0.8977  1.1927
 4955TIP3   OH214870   3.004   5.610   3.821  0.1982 -0.4656  0.7822
 4955TIP3    H114871   2.915   5.626   3.789  0.3537  0.5992  0.8260
 4955TIP3    H214872   3.014   5.515   3.820  0.0984 -0.5455 -2.1061
 4956TIP3   OH214873   4.780   3.171   2.749 -0.4808  0.2388 -0.2698
 4956TIP3    H114874   4.713   3.186   2.682  0.8375  2.1812 -1.2451
 4956TIP3    H214875   4.857   3.144   2.700  0.2783  0.8912  0.5320
 4957TIP3   OH214876   1.433   5.742   4.142  0.0773  0.0808 -0.3204
 4957TIP3    H114877   1.395   5.763   4.058  0.8247 -0.7686 -0.8938
 4957TIP3    H214878   1.384   5.666   4.173  1.4420 -1.2444 -1.2280
 4958TIP3   OH214879   4.824   1.753   2.845  0.0822  0.3045  0.0902
 4958TIP3    H114880   4.911   1.788   2.868  0.4620 -0.0265 -0.8081
 4958TIP3    H214881   4.792   1.811   2.777  0.8053 -1.1528 -1.5715
 4959TIP3   OH214882   1.986   1.327   0.327 -0.1352 -0.8045  0.1957
 4959TIP3    H114883   1.891   1.326   0.326 -0.3500  2.5024 -2.8533
 4959TIP3    H214884   2.009   1.371   0.408 -1.3069 -0.2845  0.2584
 4960TIP3   OH214885   6.040   2.220   3.078 -0.1298  0.0633 -0.0261
 4960TIP3    H114886   5.951   2.188   3.091 -0.0129 -0.0305  0.5804
 4960TIP3    H214887   6.078   2.222   3.166  0.8827 -1.1119 -0.3964
 4961TIP3   OH214888   4.291   5.252   0.638  0.4001 -0.1955  0.0431
 4961TIP3    H114889   4.306   5.346   0.629 -1.0169  0.0897  0.4186
 4961TIP3    H214890   4.258   5.225   0.552 -0.6372 -0.0302  0.3701
 4962TIP3   OH214891   5.716   5.853   3.833  0.3690  0.2269  0.6291
 4962TIP3    H114892   5.760   5.777   3.871  1.0984  0.5062  0.3606
 4962TIP3    H214893   5.777   5.926   3.847  0.5555  0.3850 -0.8302
 4963TIP3   OH214894   3.262   2.112   4.930  0.5088  0.2536 -0.2721
 4963TIP3    H114895   3.255   2.061   4.850  0.8186 -1.4470  0.7331
 4963TIP3    H214896   3.279   2.202   4.901  1.2003 -0.4299 -2.0728
 4964TIP3   OH214897   5.074   0.716   1.648  0.1853 -0.3026 -0.2709
 4964TIP3    H114898   5.016   0.733   1.723  0.3157 -0.5030 -0.1228
 4964TIP3    H214899   5.015   0.696   1.576  0.0555 -0.0326 -0.2404
 4965TIP3   OH214900   1.484   0.264   4.489  0.3368 -0.3928 -0.0009
 4965TIP3    H114901   1.430   0.191   4.458  0.0515  0.0735 -0.6108
 4965TIP3    H214902   1.427   0.311   4.550  0.6944 -0.9607  0.7977
 4966TIP3   OH214903   5.395   2.861   3.804  0.0570  0.2948 -0.1781
 4966TIP3    H114904   5.436   2.852   3.718  1.0403 -0.4586  0.3408
 4966TIP3    H214905   5.325   2.795   3.803 -0.2177  0.5836 -0.5432
 4967TIP3   OH214906   1.216   3.961   1.375  0.6837  1.0581 -0.3487
 4967TIP3    H114907   1.131   3.923   1.396  1.8423 -1.9774 -0.6352
 4967TIP3    H214908   1.231   4.026   1.444 -0.4663 -0.6967  1.6623
 4968TIP3   OH214909   0.411   0.539   2.607 -0.0769 -0.6712 -0.0517
 4968TIP3    H114910   0.335   0.481   2.601  0.4460 -1.3307 -0.4911
 4968TIP3    H214911   0.416   0.582   2.522 -0.0827 -0.4646  0.0507
 4969TIP3   OH214912   5.579   5.298   0.244 -0.2719 -0.4672  0.2915
 4969TIP3    H114913   5.533   5.324   0.324 -0.0625  1.5326 -0.1868
 4969TIP3    H214914   5.671   5.293   0.269 -0.1175  0.8432  0.0549
 4970TIP3   OH214915   1.245   5.835   1.607 -0.5775 -0.1711  0.1650
 4970TIP3    H114916   1.281   5.747   1.621 -1.2338 -0.4948 -0.1430
 4970TIP3    H214917   1.255   5.850   1.513 -0.5615  0.0415  0.2010
 4971TIP3   OH214918   1.074   0.889   0.718 -0.3180  0.3806  0.3707
 4971TIP3    H114919   1.031   0.864   0.800 -1.0974 -0.0549 -0.1641
 4971TIP3    H214920   1.047   0.823   0.655  2.7843 -1.1604  0.4537
 4972TIP3   OH214921   5.770   0.039   0.217 -0.1955 -0.1669 -0.4695
 4972TIP3    H114922   5.704  -0.022   0.184  0.5860  0.2131 -2.9348
 4972TIP3    H214923   5.719   0.111   0.255 -1.1571 -0.7888 -0.5536
 4973TIP3   OH214924   6.110   5.092   1.153  0.1825  0.1746  0.5091
 4973TIP3    H114925   6.044   5.104   1.085  0.8385  1.3636  0.0558
 4973TIP3    H214926   6.166   5.021   1.120 -0.8489 -0.8751  0.9168
 4974TIP3   OH214927   3.761   4.189   1.047  0.1419  0.8976 -0.0813
 4974TIP3    H114928   3.816   4.145   0.982 -1.2337 -1.9985  0.5810
 4974TIP3    H214929   3.672   4.163   1.026 -0.4365  0.6552  2.3573
 4975TIP3   OH214930   4.026   4.290   2.055 -0.0661  0.8242 -0.0228
 4975TIP3    H114931   4.043   4.357   1.989  0.8286  2.2813  1.6126
 4975TIP3    H214932   4.112   4.251   2.073 -0.1185  1.1768  1.0323
 4976TIP3   OH214933   4.741   5.289   4.907 -0.6840 -0.4603 -0.0888
 4976TIP3    H114934   4.662   5.236   4.908  0.2547 -2.0085  2.7138
 4976TIP3    H214935   4.780   5.276   4.993  2.6199  0.2598 -1.3255
 4977TIP3   OH214936   0.433   3.853   5.111 -0.1332  0.0642 -0.7802
 4977TIP3    H114937   0.476   3.871   5.195 -0.0837 -0.1296 -0.7618
 4977TIP3    H214938   0.492   3.790   5.068 -0.1408  0.1904 -0.9751
 4978TIP3   OH214939   0.470   1.558   5.204 -0.4344 -0.4894  0.0221
 4978TIP3    H114940   0.549   1.559   5.150  0.2864  2.0401  1.0166
 4978TIP3    H214941   0.409   1.617   5.160 -1.2883 -1.3643 -0.0098
 4979TIP3   OH214942   0.975   1.440   1.229 -0.3420  0.1889 -0.2300
 4979TIP3    H114943   1.060   1.426   1.188 -0.4787 -0.9676 -0.1406
 4979TIP3    H214944   0.989   1.423   1.322 -0.6382  0.1644 -0.1875
 4980TIP3   OH214945   3.573   1.103   1.207  0.6512 -0.6252 -0.4282
 4980TIP3    H114946   3.650   1.156   1.190 -1.2307  1.7994 -2.0922
 4980TIP3    H214947   3.525   1.102   1.124 -0.8319 -2.5667  0.3592
 4981TIP3   OH214948   5.526   4.384   3.026 -0.2689  0.3698 -0.0628
 4981TIP3    H114949   5.526   4.404   3.120 -1.6505 -0.5055  0.1611
 4981TIP3    H214950   5.468   4.308   3.018  1.5418 -0.9645 -1.3658
 4982TIP3   OH214951   1.543   3.616   2.471 -0.4881  0.0841  0.0267
 4982TIP3    H114952   1.630   3.580   2.456 -0.5729 -0.1516  0.0872
 4982TIP3    H214953   1.531   3.682   2.403 -1.1926 -1.5176 -1.4695
 4983TIP3   OH214954   0.941   0.395   4.070 -0.0039  0.5281  0.4065
 4983TIP3    H114955   0.861   0.355   4.036  0.4690 -0.2315  0.1808
 4983TIP3    H214956   1.010   0.332   4.051  0.6388  1.1284  0.6998
 4984TIP3   OH214957   0.446   4.454   1.830 -0.8582  0.2269  0.2388
 4984TIP3    H114958   0.436   4.442   1.736 -1.0369 -1.4161  0.4409
 4984TIP3    H214959   0.530   4.412   1.851 -0.9660  0.2996  0.8467
 4985TIP3   OH214960   4.349   5.903   0.859  0.1061 -0.0467 -0.0777
 4985TIP3    H114961   4.337   5.983   0.910  2.6912  0.0862  0.4609
 4985TIP3    H214962   4.425   5.920   0.804 -1.2792 -0.9898 -2.4382
 4986TIP3   OH214963   4.739   5.879   2.438 -0.2400 -0.1965 -0.0930
 4986TIP3    H114964   4.673   5.860   2.503 -0.2628  2.5161  0.8020
 4986TIP3    H214965   4.815   5.827   2.464  0.2135  1.7594  3.0256
 4987TIP3   OH214966   2.107   0.108   1.597 -0.6023 -0.5097  0.1347
 4987TIP3    H114967   2.089   0.057   1.518 -1.1341  1.5289 -1.1392
 4987TIP3    H214968   2.031   0.165   1.606 -0.8930 -1.1988  2.5905
 4988TIP3   OH214969   4.409   4.588   2.444 -0.3976  0.3727  0.0571
 4988TIP3    H114970   4.387   4.587   2.537 -1.4288 -0.1989 -0.1844
 4988TIP3    H214971   4.377   4.505   2.410  1.8703 -0.3757 -0.4121
 4989TIP3   OH214972   5.538   0.392   1.320 -0.6964 -0.3059 -0.3557
 4989TIP3    H114973   5.616   0.346   1.289 -1.3687 -0.3989 -1.9980
 4989TIP3    H214974   5.497   0.331   1.381  0.2463 -0.4514  0.1540
 4990TIP3   OH214975   0.379   2.594   0.233 -0.2947  0.1252  0.0198
 4990TIP3    H114976   0.474   2.582   0.226 -0.1729  0.4761  0.9938
 4990TIP3    H214977   0.366   2.640   0.316 -1.4262 -1.1371  0.5711
 4991TIP3   OH214978   2.744   0.753   4.066 -0.2609  0.6766 -0.0607
 4991TIP3    H114979   2.799   0.696   4.012  0.3908  0.2516  1.0423
 4991TIP3    H214980   2.713   0.698   4.137 -2.2013  0.8837 -0.6572
 4992TIP3   OH214981   1.780   1.661   0.879 -0.2827  0.3028 -0.6789
 4992TIP3    H114982   1.695   1.629   0.850 -0.4789 -0.9989  1.1551
 4992TIP3    H214983   1.816   1.590   0.933  1.3163  1.3986 -0.2042
 4993TIP3   OH214984   0.770   1.195   0.728 -0.1844  0.8669  0.2212
 4993TIP3    H114985   0.770   1.099   0.732 -0.8208  0.7730 -1.4609
 4993TIP3    H214986   0.857   1.220   0.758  0.3774 -0.3040 -0.3560
 4994TIP3   OH214987   3.812   1.652   4.228 -0.5120  0.3194  0.2138
 4994TIP3    H114988   3.753   1.619   4.296 -0.3688  1.2953  0.8417
 4994TIP3    H214989   3.820   1.746   4.247 -0.5611  0.6447 -1.2299
 4995TIP3   OH214990   5.549   5.284   2.649 -0.1352 -0.2059 -0.2674
 4995TIP3    H114991   5.500   5.222   2.703 -0.0066  0.2095  0.3461
 4995TIP3    H214992   5.519   5.370   2.680  3.4860  0.2529  2.7134
 4996TIP3   OH214993   0.768   0.516   4.660  0.4759  0.3052 -0.1022
 4996TIP3    H114994   0.676   0.529   4.684  0.2029  0.5651 -1.1988
 4996TIP3    H214995   0.813   0.500   4.743 -0.5077  0.4745  0.4814
 4997TIP3   OH214996   5.203   4.922   1.509  0.1948  0.1307  0.0071
 4997TIP3    H114997   5.215   4.993   1.446 -1.8892  1.4661  1.0222
 4997TIP3    H214998   5.142   4.862   1.466 -1.8881  1.4575  0.9723
 4998TIP3   OH214999   0.075   4.232   0.049 -0.4076  0.8288  0.1057
 4998TIP3    H115000   0.055   4.297  -0.018 -0.1734  0.1319 -0.6635
 4998TIP3    H215001   0.032   4.265   0.129 -0.4916  1.7865 -0.3233
 4999TIP3   OH215002   4.339   4.502   1.367 -0.1406  0.6600  0.4050
 4999TIP3    H115003   4.267   4.519   1.428 -0.2274 -0.8943  0.7881
 4999TIP3    H215004   4.338   4.407   1.355  1.7186  0.6164  0.2608
 5000TIP3   OH215005   0.662   2.221   1.613 -0.3763  0.3551  0.3485
 5000TIP3    H115006   0.664   2.203   1.519  1.2176 -1.3002  0.6527
 5000TIP3    H215007   0.713   2.302   1.623 -2.0346  1.5503 -0.3374
 5001TIP3   OH215008   1.034   0.073   1.707  0.5000  0.6750  0.0321
 5001TIP3    H115009   0.974   0.146   1.689 -0.0880  0.6903  1.7952
 5001TIP3    H215010   1.079   0.099   1.787 -2.2360 -2.2341  2.8360
 5002TIP3   OH215011   3.169   5.086   3.962  0.0030 -0.5521  0.5542
 5002TIP3    H115012   3.147   5.134   4.042  0.5433 -0.9586  0.9521
 5002TIP3    H215013   3.160   4.994   3.985  1.5445 -0.7259  0.5893
 5003TIP3   OH215014   5.911   2.605   2.030 -0.1607 -0.2422 -0.2779
 5003TIP3    H115015   5.818   2.591   2.014 -0.2129 -1.5208  1.0156
 5003TIP3    H215016   5.948   2.619   1.943 -1.4479 -0.3810 -0.8676
 5004TIP3   OH215017   3.684   3.489   0.348 -0.2161  0.1397 -0.6815
 5004TIP3    H115018   3.627   3.558   0.381 -0.3881  0.1361 -0.9624
 5004TIP3    H215019   3.741   3.467   0.421 -0.0797  0.6659 -0.6311
 5005TIP3   OH215020   3.473   0.987   0.972  0.1849 -0.1024  0.3016
 5005TIP3    H115021   3.504   0.911   1.021 -1.2970 -1.3527 -0.5874
 5005TIP3    H215022   3.532   0.994   0.897  1.3545  0.7051  1.2671
 5006TIP3   OH215023   0.797   2.083   2.089  0.5927 -0.2951 -0.4225
 5006TIP3    H115024   0.858   2.045   2.152 -0.6865 -0.0687  1.0206
 5006TIP3    H215025   0.852   2.136   2.031  1.7887 -0.2501  0.7074
 5007TIP3   OH215026   5.789   4.347   4.101  0.4147 -0.1389  0.0580
 5007TIP3    H115027   5.817   4.337   4.192 -0.6012 -0.1647  0.3834
 5007TIP3    H215028   5.860   4.309   4.050  1.4826  0.8215  0.7788
 5008TIP3   OH215029   5.326   5.969   1.232  0.0049  0.6730  0.2014
 5008TIP3    H115030   5.352   5.960   1.324  0.7148  1.3261  0.0772
 5008TIP3    H215031   5.324   5.880   1.198 -2.6812  0.1687  1.4756
 5009TIP3   OH215032   2.932   0.627   3.904  0.1859  0.4863 -0.1271
 5009TIP3    H115033   2.988   0.667   3.837  1.0463  0.4916  0.5764
 5009TIP3    H215034   2.951   0.533   3.899 -0.7190  0.3317 -0.7656
 5010TIP3   OH215035   4.810   1.741   4.480 -0.0317  0.4120 -0.1836
 5010TIP3    H115036   4.831   1.766   4.391  2.1249 -2.1296 -0.4853
 5010TIP3    H215037   4.871   1.791   4.534  0.1970  0.2697 -0.3103
 5011TIP3   OH215038   4.678   4.384   1.600 -0.0956  0.2959  0.0745
 5011TIP3    H115039   4.762   4.377   1.645 -0.0118  0.3300 -0.0731
 5011TIP3    H215040   4.648   4.473   1.620  0.1305  0.4501 -0.2585
 5012TIP3   OH215041   2.449   5.251   1.014 -0.3816 -0.3415  0.1341
 5012TIP3    H115042   2.428   5.248   0.921  0.7052  0.5806 -0.1585
 5012TIP3    H215043   2.543   5.272   1.017 -0.9592  2.5867  1.4161
 5013TIP3   OH215044   1.373   5.163   0.917 -0.2879 -0.7750  0.1098
 5013TIP3    H115045   1.366   5.083   0.968 -0.1650 -2.1349 -1.8805
 5013TIP3    H215046   1.316   5.148   0.841  0.9465  0.3481 -1.0938
 5014TIP3   OH215047   2.647   0.773   3.287  0.3399 -0.1099  0.2665
 5014TIP3    H115048   2.596   0.813   3.358 -0.1236  0.2625 -0.2711
 5014TIP3    H215049   2.708   0.842   3.260  0.8599 -0.4218  0.6398
 5015TIP3   OH215050   0.820   1.303   0.163  0.1978 -0.0479  0.2842
 5015TIP3    H115051   0.899   1.296   0.217 -0.6341  1.8642  1.8402
 5015TIP3    H215052   0.753   1.255   0.212 -0.3056  0.7973  0.4363
 5016TIP3   OH215053   5.702   5.070   4.930  0.3041 -0.0021  0.9670
 5016TIP3    H115054   5.797   5.074   4.934  0.2455  0.7608  1.8722
 5016TIP3    H215055   5.679   4.993   4.981  0.4430 -0.4105  0.4269
 5017TIP3   OH215056   6.068   0.769   5.083  0.3130 -0.9222 -0.7911
 5017TIP3    H115057   6.038   0.776   4.993 -0.2487  0.5947 -0.5139
 5017TIP3    H215058   6.158   0.800   5.081 -0.4712  1.6304 -0.4755
 5018TIP3   OH215059   1.797   2.234   3.893  0.0006  0.2791  0.2900
 5018TIP3    H115060   1.733   2.249   3.963 -1.9013  2.1436 -1.6733
 5018TIP3    H215061   1.877   2.276   3.924  0.3401 -1.8955  2.7184
 5019TIP3   OH215062   5.328   0.817   4.879 -0.2900 -0.0457  0.1172
 5019TIP3    H115063   5.277   0.826   4.959 -0.7015  1.6490 -0.3109
 5019TIP3    H215064   5.404   0.873   4.892 -0.1299 -0.1081 -0.5076
 5020TIP3   OH215065   3.249   1.847   1.676  0.3281  0.1514  0.3156
 5020TIP3    H115066   3.244   1.789   1.751  2.3026  0.7787  0.9866
 5020TIP3    H215067   3.338   1.837   1.643 -0.5221 -0.2091 -2.0639
 5021TIP3   OH215068   2.749   0.748   1.757 -0.2754  0.0056 -0.4569
 5021TIP3    H115069   2.731   0.842   1.762 -0.4569 -0.0589  0.3360
 5021TIP3    H215070   2.713   0.713   1.838 -0.1350 -0.7400 -0.7084
 5022TIP3   OH215071   3.167   3.125   3.451 -0.2281 -0.0690 -0.1118
 5022TIP3    H115072   3.181   3.039   3.411  2.4138  0.3153 -0.2127
 5022TIP3    H215073   3.121   3.107   3.532 -2.2698 -1.2513 -1.4532
 5023TIP3   OH215074   1.871   5.689   4.087 -0.0852  0.4213 -0.7217
 5023TIP3    H115075   1.846   5.684   3.995  0.8738 -0.5051 -0.9470
 5023TIP3    H215076   1.966   5.698   4.087 -0.0752  0.4600  0.1726
 5024TIP3   OH215077   0.900   0.365   4.441 -0.2449 -0.4660  0.3423
 5024TIP3    H115078   0.987   0.404   4.428 -1.0627  0.5604 -3.0369
 5024TIP3    H215079   0.864   0.412   4.516  0.7921  1.7547 -0.4367
 5025TIP3   OH215080   5.058   5.067   1.237 -0.2271  0.3276 -0.3386
 5025TIP3    H115081   5.087   5.135   1.177  0.8443  0.1723 -0.0088
 5025TIP3    H215082   5.137   5.038   1.282 -0.7877 -0.5655  0.1161
 5026TIP3   OH215083   0.974   2.086   3.486  0.7632 -0.3429  0.0459
 5026TIP3    H115084   0.957   1.998   3.518 -0.5157 -0.3733 -0.6374
 5026TIP3    H215085   1.057   2.111   3.526  0.1068 -1.0317  1.9489
 5027TIP3   OH215086   3.012   1.809   2.299  0.1639 -0.1822 -0.2096
 5027TIP3    H115087   3.008   1.817   2.204 -1.4502 -2.7668 -0.4409
 5027TIP3    H215088   3.074   1.738   2.315  1.4140  1.0712  0.7972
 5028TIP3   OH215089   0.319   1.062   4.067 -0.0133  0.0359 -0.1972
 5028TIP3    H115090   0.288   1.081   3.979 -2.4994  0.1347  0.6316
 5028TIP3    H215091   0.401   1.111   4.074 -0.4856  1.1787 -1.9590
 5029TIP3   OH215092   0.196   4.492   0.760 -0.3153 -0.0981  0.4214
 5029TIP3    H115093   0.218   4.524   0.848 -1.0856 -0.2746  0.6837
 5029TIP3    H215094   0.267   4.525   0.705 -0.1775  0.5943  0.9874
 5030TIP3   OH215095   2.089   5.726   0.278  0.3985 -0.7359 -0.3453
 5030TIP3    H115096   2.136   5.651   0.315  2.5658  0.2032 -1.0341
 5030TIP3    H215097   2.140   5.751   0.201  0.1326  1.8218  0.2166
 5031TIP3   OH215098   1.264   0.681   0.837  0.2693  0.0806 -0.2239
 5031TIP3    H115099   1.199   0.732   0.886  0.0057  0.2664 -0.7616
 5031TIP3    H215100   1.321   0.747   0.798  0.4614 -0.0676 -0.1934
 5032TIP3   OH215101   1.828   0.804   4.680  0.0427 -0.4289 -0.6949
 5032TIP3    H115102   1.793   0.761   4.758  0.0615  1.2104  0.2772
 5032TIP3    H215103   1.916   0.769   4.671 -0.3104 -1.3751 -0.5898
 5033TIP3   OH215104   5.147   0.948   3.304  0.4380  0.2934  0.5299
 5033TIP3    H115105   5.177   0.993   3.383  2.0937  0.8800 -0.3702
 5033TIP3    H215106   5.137   1.018   3.239  0.7630 -0.3458 -0.2358
 5034TIP3   OH215107   0.318   5.323   2.871 -0.5211 -0.3730 -0.2456
 5034TIP3    H115108   0.240   5.310   2.817 -1.3054 -0.4605  0.8820
 5034TIP3    H215109   0.331   5.418   2.872 -0.4679 -0.3742 -0.6248
 5035TIP3   OH215110   5.588   0.091   1.828  0.0897  0.3940  0.0714
 5035TIP3    H115111   5.640   0.145   1.770  0.6119  0.8265  0.9195
 5035TIP3    H215112   5.649   0.061   1.896 -0.4166 -0.4018  0.1998
 5036TIP3   OH215113   1.539   2.159   0.902  0.0575 -0.0004  0.8121
 5036TIP3    H115114   1.548   2.074   0.860 -2.9136  0.0916 -0.2837
 5036TIP3    H215115   1.577   2.221   0.840 -3.3219  0.0143 -1.5029
 5037TIP3   OH215116   1.643   5.231   5.119  0.0290  0.1352  0.7225
 5037TIP3    H115117   1.737   5.237   5.134 -0.1427  1.9998  1.2910
 5037TIP3    H215118   1.611   5.320   5.129 -1.3599  0.1610 -2.7433
 5038TIP3   OH215119   4.963   0.562   2.937 -0.3125 -0.2324  0.2524
 5038TIP3    H115120   4.885   0.508   2.921 -0.9160  0.5167  0.5755
 5038TIP3    H215121   4.928   0.647   2.963  0.5830  0.8687 -1.8690
 5039TIP3   OH215122   5.031   5.668   1.934 -0.4369  0.5318 -0.5868
 5039TIP3    H115123   5.050   5.746   1.883 -1.5136  2.0165  1.1590
 5039TIP3    H215124   4.989   5.701   2.014  1.1046 -1.6645  1.2573
 5040TIP3   OH215125   2.823   5.666   0.374 -0.3059 -0.2512 -0.4384
 5040TIP3    H115126   2.910   5.706   0.384 -1.0503  1.0756  1.2592
 5040TIP3    H215127   2.781   5.719   0.307 -1.3967  2.2610  2.0104
 5041TIP3   OH215128   4.511   4.506   0.236 -0.8092 -0.0803  0.6632
 5041TIP3    H115129   4.442   4.447   0.266 -2.2621  1.4945  0.5445
 5041TIP3    H215130   4.466   4.568   0.179  1.2177 -0.6914 -1.7285
 5042TIP3   OH215131   5.980   3.787   1.399 -0.3954 -0.2800 -0.0078
 5042TIP3    H115132   6.055   3.743   1.360  0.1270  0.0006  0.6455
 5042TIP3    H215133   5.989   3.770   1.493  0.7258  2.4658  0.4936
 5043TIP3   OH215134   3.182   2.804   4.391 -0.4727  0.3448 -0.2414
 5043TIP3    H115135   3.087   2.800   4.379 -0.2726  0.9244 -2.3293
 5043TIP3    H215136   3.203   2.897   4.386  0.3613  0.1155 -1.2563
 5044TIP3   OH215137   1.957   1.348   2.390 -0.2132 -0.5325  0.0201
 5044TIP3    H115138   2.014   1.293   2.443 -0.2347  0.2680  0.8948
 5044TIP3    H215139   1.969   1.436   2.425 -0.3865 -0.0161 -1.1809
 5045TIP3   OH215140   2.778   5.087   0.784  0.2810 -0.1031  0.5707
 5045TIP3    H115141   2.804   5.034   0.859  0.2286  0.2707  0.8523
 5045TIP3    H215142   2.853   5.146   0.769  0.3853 -0.3245  0.1919
 5046TIP3   OH215143   1.286   1.077   3.325 -0.6882  0.0453 -0.5061
 5046TIP3    H115144   1.223   1.078   3.397 -0.6392  0.5603 -0.4621
 5046TIP3    H215145   1.259   1.004   3.270 -0.0323 -1.0762  0.6380
 5047TIP3   OH215146   3.854   2.690   2.511 -0.0413 -0.6464  0.2518
 5047TIP3    H115147   3.880   2.772   2.553 -0.4242 -1.1026  1.4143
 5047TIP3    H215148   3.798   2.647   2.575  0.6038 -2.0840 -0.1204
 5048TIP3   OH215149   5.144   4.467   0.677  1.0527  0.1778  0.2550
 5048TIP3    H115150   5.097   4.529   0.733 -0.0447 -1.7317  1.5930
 5048TIP3    H215151   5.099   4.471   0.593 -1.2273 -1.1637  1.3295
 5049TIP3   OH215152   1.786   5.458   0.040  0.1760 -0.7008  0.4611
 5049TIP3    H115153   1.835   5.410  -0.026 -1.4574 -2.9065  0.7138
 5049TIP3    H215154   1.823   5.546   0.040  2.7044 -1.6895 -0.7174
 5050TIP3   OH215155   4.913   5.640   0.554  0.0917 -0.8640  0.4369
 5050TIP3    H115156   5.005   5.666   0.552  0.1981 -1.0797  1.7981
 5050TIP3    H215157   4.867   5.711   0.510  0.8503 -0.4910  0.2334
 5051TIP3   OH215158   1.482   2.296   5.141  0.6881  0.1565  0.9731
 5051TIP3    H115159   1.575   2.301   5.167  0.9046  2.0616  0.0287
 5051TIP3    H215160   1.483   2.305   5.046 -0.3608 -2.4798  0.6409
 5052TIP3   OH215161   0.088   2.618   0.925 -0.4971  0.0851 -0.3256
 5052TIP3    H115162   0.084   2.604   1.020  0.8633 -0.4342 -0.3293
 5052TIP3    H215163   0.008   2.577   0.891 -0.5738 -0.4597  0.5043
 5053TIP3   OH215164   3.951   1.934   2.752  0.3863  0.1658  0.0957
 5053TIP3    H115165   3.999   2.008   2.789  2.0585 -1.6588  1.7925
 5053TIP3    H215166   3.912   1.890   2.827 -0.1999 -0.9408 -0.8260
 5054TIP3   OH215167   3.179   5.156   2.869  0.6312  0.1444 -0.0182
 5054TIP3    H115168   3.171   5.095   2.943  2.0085  0.5041  0.4567
 5054TIP3    H215169   3.233   5.110   2.805 -0.3040 -0.0457 -0.6872
 5055TIP3   OH215170   2.690   2.147   3.716  0.4099 -0.5621 -0.0283
 5055TIP3    H115171   2.669   2.227   3.666 -1.4104 -1.6210 -1.0674
 5055TIP3    H215172   2.671   2.076   3.656  0.4652 -1.8356  1.4059
 5056TIP3   OH215173   2.787   3.169   4.908  0.8092  0.0747 -0.0832
 5056TIP3    H115174   2.830   3.091   4.943  2.0138  0.7970  0.1255
 5056TIP3    H215175   2.860   3.226   4.881 -0.0349  0.1193 -2.5415
 5057TIP3   OH215176   3.259   1.862   0.551  0.5889 -0.3119  0.1660
 5057TIP3    H115177   3.294   1.790   0.604 -0.3828 -0.9618 -0.0484
 5057TIP3    H215178   3.191   1.901   0.606  1.0593  0.4001  0.2491
 5058TIP3   OH215179   5.575   1.453   1.308 -0.2843 -0.0143 -0.4536
 5058TIP3    H115180   5.551   1.541   1.339  2.9570  0.2425  1.8588
 5058TIP3    H215181   5.546   1.394   1.378  0.0434 -0.4265 -0.6573
 5059TIP3   OH215182   6.045   0.083   4.817 -0.3649  0.2180  0.4659
 5059TIP3    H115183   6.053   0.171   4.780 -2.0628 -0.1725 -0.9611
 5059TIP3    H215184   6.084   0.026   4.751  0.8171 -0.1301  1.4303
 5060TIP3   OH215185   1.020   0.563   3.261  0.2187 -0.4254  0.4372
 5060TIP3    H115186   1.041   0.573   3.354 -1.4635 -0.0696  0.8284
 5060TIP3    H215187   1.049   0.645   3.221 -0.3985  0.0548  0.9472
 5061TIP3   OH215188   4.680   0.947   0.968  0.0093 -0.4278 -0.8750
 5061TIP3    H115189   4.721   1.026   0.932  2.0835 -1.4877 -0.9730
 5061TIP3    H215190   4.651   0.973   1.055  0.0055  0.6382 -1.1772
 5062TIP3   OH215191   4.837   5.942   3.779  0.8836 -0.2814  0.0604
 5062TIP3    H115192   4.860   5.849   3.783 -0.5128 -0.7054 -1.0774
 5062TIP3    H215193   4.918   5.988   3.803  1.5728 -1.7761  0.7029
 5063TIP3   OH215194   1.836   4.128   1.768 -0.1959 -0.1725  0.6129
 5063TIP3    H115195   1.914   4.102   1.719 -0.0282 -3.4146  2.3121
 5063TIP3    H215196   1.856   4.217   1.798  0.9605  0.7362 -2.4397
 5064TIP3   OH215197   4.330   0.846   4.227  0.1924 -0.1051 -0.2843
 5064TIP3    H115198   4.292   0.766   4.263  0.0012 -0.8155 -1.9660
 5064TIP3    H215199   4.333   0.906   4.301 -0.1470 -1.4839  0.9079
 5065TIP3   OH215200   3.931   5.581   3.934  0.5854 -0.0980 -0.1775
 5065TIP3    H115201   3.917   5.554   4.025 -0.6727 -0.0266 -0.3349
 5065TIP3    H215202   3.876   5.523   3.882 -1.6901  2.2033 -0.5697
 5066TIP3   OH215203   0.502   2.924   0.989 -0.0002  0.6123 -0.0061
 5066TIP3    H115204   0.452   2.859   0.940 -0.4639  1.2260 -0.3653
 5066TIP3    H215205   0.590   2.920   0.953  0.2987 -0.6592  0.8043
 5067TIP3   OH215206   2.406   5.565   4.393  0.3778 -0.1721  0.1251
 5067TIP3    H115207   2.481   5.507   4.404  0.5439  0.4356  2.7305
 5067TIP3    H215208   2.430   5.623   4.321  1.9175 -0.7101  0.1822
 5068TIP3   OH215209   3.115   4.647   1.542  0.0969 -0.0475 -0.1692
 5068TIP3    H115210   3.161   4.568   1.515 -0.7841 -1.3192  1.8889
 5068TIP3    H215211   3.149   4.666   1.630 -0.1228  1.5449 -0.3956
 5069TIP3   OH215212   1.483   1.644   4.508  0.2889 -0.0464 -0.0534
 5069TIP3    H115213   1.487   1.551   4.530  1.3841  0.0495  0.2020
 5069TIP3    H215214   1.542   1.687   4.570 -1.1384  0.9983  0.6439
 5070TIP3   OH215215   3.098   0.327   2.173  0.5314  0.1590 -0.4221
 5070TIP3    H115216   3.185   0.367   2.176  1.0664 -0.9531 -0.5425
 5070TIP3    H215217   3.097   0.278   2.090  0.1086 -0.4930 -0.0428
 5071TIP3   OH215218   1.017   4.562   1.462 -0.3112  0.4532 -0.2438
 5071TIP3    H115219   1.054   4.546   1.375  0.6330  0.6160  0.1184
 5071TIP3    H215220   1.093   4.579   1.518 -0.9175  0.4878  0.5875
 5072TIP3   OH215221   0.352   4.960   2.262 -0.8789  0.7777  0.2797
 5072TIP3    H115222   0.330   5.025   2.329  1.8060  0.0371  2.0343
 5072TIP3    H215223   0.421   5.001   2.211 -0.8379  0.1812 -0.1496
 5073TIP3   OH215224   4.831   2.087   2.848  0.0309  0.0712  0.2507
 5073TIP3    H115225   4.747   2.044   2.862  0.6766 -1.2512  0.2275
 5073TIP3    H215226   4.851   2.070   2.756 -0.7434  2.4094 -0.4180
 5074TIP3   OH215227   3.814   1.108   0.957  0.2506  0.0858  0.5365
 5074TIP3    H115228   3.836   1.079   0.868 -1.7214 -2.3264  0.7430
 5074TIP3    H215229   3.898   1.117   1.001  1.2004 -4.1670 -0.0006
 5075TIP3   OH215230   5.967   1.544   1.180 -0.2008 -1.1007  0.8644
 5075TIP3    H115231   6.012   1.543   1.265  0.5725 -0.6544  0.4697
 5075TIP3    H215232   6.015   1.480   1.127 -1.3705 -2.2144  1.0875
 5076TIP3   OH215233   1.370   5.606   3.777 -0.2338 -0.8058  0.1484
 5076TIP3    H115234   1.366   5.701   3.789  1.1244 -0.8037  0.7683
 5076TIP3    H215235   1.448   5.579   3.826  0.6998 -1.9285 -1.8335
 5077TIP3   OH215236   0.139   3.031   2.315 -0.2306  0.0029  0.9218
 5077TIP3    H115237   0.114   3.045   2.407 -0.3578 -1.0238  1.0543
 5077TIP3    H215238   0.234   3.026   2.317 -0.2893 -3.6399  1.6137
 5078TIP3   OH215239   0.577   0.173   5.072 -0.5624  0.4074  0.0681
 5078TIP3    H115240   0.618   0.212   4.995  0.5509  0.9774  0.9217
 5078TIP3    H215241   0.484   0.188   5.060 -0.2204  2.8539  0.1010
 5079TIP3   OH215242   1.573   3.029   3.369  0.3583 -0.2155 -0.4024
 5079TIP3    H115243   1.621   2.998   3.446  0.2036 -0.6346 -0.4736
 5079TIP3    H215244   1.563   2.951   3.314  1.6976  0.3280 -1.5041
 5080TIP3   OH215245   1.849   0.575   2.960 -0.3515  0.2307 -0.4774
 5080TIP3    H115246   1.900   0.554   3.038 -1.1280  0.3503  0.0652
 5080TIP3    H215247   1.873   0.666   2.939 -0.7979  0.4944  0.1390
 5081TIP3   OH215248   1.548   0.049   3.355  0.3990  0.2767 -0.1840
 5081TIP3    H115249   1.485   0.103   3.402  0.9372  0.8071 -0.0493
 5081TIP3    H215250   1.586  -0.008   3.422  0.3355  0.2217 -0.1945
 5082TIP3   OH215251   6.099   2.822   2.712  0.1663 -0.2632 -0.5760
 5082TIP3    H115252   6.022   2.807   2.766  0.1429  0.6515 -0.3383
 5082TIP3    H215253   6.173   2.803   2.770  0.1951  2.4945  0.4347
 5083TIP3   OH215254   4.324   2.412   3.330 -0.5743 -0.7555  0.3085
 5083TIP3    H115255   4.402   2.386   3.379 -0.9146 -1.4638  0.4897
 5083TIP3    H215256   4.348   2.495   3.289  0.7097 -1.5621 -0.6385
 5084TIP3   OH215257   5.341   1.409   0.844 -0.5928  1.0924 -0.5737
 5084TIP3    H115258   5.349   1.419   0.939 -0.3208  0.1886 -0.4931
 5084TIP3    H215259   5.311   1.495   0.813 -0.9736  1.3032  0.3576
 5085TIP3   OH215260   0.297   3.051   3.259  0.3182  0.0470 -0.2620
 5085TIP3    H115261   0.349   3.117   3.304  0.7718  0.1738 -0.9547
 5085TIP3    H215262   0.206   3.074   3.278  0.3927  1.9275 -1.9011
 5086TIP3   OH215263   5.476   4.619   3.902  0.1711 -0.4807  1.0781
 5086TIP3    H115264   5.563   4.640   3.936  0.1179 -0.2892  1.0938
 5086TIP3    H215265   5.492   4.554   3.834  0.3239 -0.4765  1.1111
 5087TIP3   OH215266   5.230   3.765   2.713  0.3799 -0.0117  0.2876
 5087TIP3    H115267   5.254   3.673   2.725  0.5771  0.2547  2.0777
 5087TIP3    H215268   5.294   3.814   2.763 -0.5024  1.0256  0.4386
 5088TIP3   OH215269   5.558   4.248   4.709 -0.5794 -0.1237 -0.3666
 5088TIP3    H115270   5.642   4.271   4.748 -0.7120 -0.7068  0.2819
 5088TIP3    H215271   5.581   4.190   4.636 -0.4700 -1.4385  0.6739
 5089TIP3   OH215272   0.385   3.520   2.637  0.5654  0.0189  0.2562
 5089TIP3    H115273   0.367   3.600   2.686  2.0798  1.0562 -0.7893
 5089TIP3    H215274   0.408   3.550   2.549  0.4599 -1.6215 -0.3690
 5090TIP3   OH215275   5.197   5.216   3.466  0.1527  0.1452 -0.1531
 5090TIP3    H115276   5.213   5.282   3.533  1.5741  0.3489 -0.6484
 5090TIP3    H215277   5.256   5.144   3.489 -0.6674 -0.5539 -0.1717
 5091TIP3   OH215278   1.293   5.098   2.500 -0.1913  0.0750  0.3838
 5091TIP3    H115279   1.366   5.128   2.446 -0.1929  0.1314  0.4123
 5091TIP3    H215280   1.332   5.082   2.586  0.0191 -1.0138  0.1035
 5092TIP3   OH215281   1.191   4.404   2.862  0.0530  0.2939  0.2090
 5092TIP3    H115282   1.137   4.434   2.789  0.8348 -1.5470 -1.2086
 5092TIP3    H215283   1.279   4.400   2.826  0.7199  0.7256  1.7181
 5093TIP3   OH215284   2.806   4.075   3.146  0.3887  0.1703  0.0519
 5093TIP3    H115285   2.804   4.065   3.051  0.5015  2.2823 -0.2125
 5093TIP3    H215286   2.800   3.986   3.180 -0.2445 -0.5711 -1.9216
 5094TIP3   OH215287   5.633   3.699   4.136 -0.8456 -0.0754 -0.5565
 5094TIP3    H115288   5.711   3.662   4.094 -0.8555 -1.4399  0.5381
 5094TIP3    H215289   5.642   3.794   4.124  0.9871 -0.2045 -0.4823
 5095TIP3   OH215290   1.272   3.070   3.088 -0.1789 -0.5419 -0.2875
 5095TIP3    H115291   1.234   3.065   3.176  0.2501  1.3427  0.0594
 5095TIP3    H215292   1.201   3.104   3.033  0.2224  0.5614 -0.1539
 5096TIP3   OH215293   3.154   2.356   1.640  0.4454 -0.2030 -0.0065
 5096TIP3    H115294   3.221   2.410   1.598  1.0494 -0.2416  0.8690
 5096TIP3    H215295   3.080   2.358   1.580  0.8005  0.8340 -0.4328
 5097TIP3   OH215296   2.694   1.432   0.739  0.5657  0.0481  0.0293
 5097TIP3    H115297   2.668   1.382   0.816 -0.2275 -0.1343 -0.3461
 5097TIP3    H215298   2.789   1.423   0.735  0.6236  0.1229  1.0234
 5098TIP3   OH215299   3.889   3.718   4.674  0.0105  0.1741  0.3819
 5098TIP3    H115300   3.909   3.653   4.741 -0.4516  1.5824  1.9259
 5098TIP3    H215301   3.971   3.727   4.624 -0.0653 -1.9310 -0.2193
 5099TIP3   OH215302   5.422   0.949   1.290 -0.7873  0.7347  0.2361
 5099TIP3    H115303   5.388   1.013   1.229 -0.2719 -0.7933 -1.7643
 5099TIP3    H215304   5.349   0.930   1.349 -1.4297  1.9486 -0.1476
 5100TIP3   OH215305   3.185   4.974   2.358 -0.0253 -0.1970  0.5150
 5100TIP3    H115306   3.149   4.905   2.303  0.6428  0.2665 -0.5321
 5100TIP3    H215307   3.119   4.986   2.426 -1.7780  0.4631 -1.1882
 5101TIP3   OH215308   4.045   2.866   1.381  0.0180  0.4377 -0.4398
 5101TIP3    H115309   4.098   2.787   1.393 -0.6883  0.0179 -0.0209
 5101TIP3    H215310   4.011   2.885   1.468 -0.7712  0.5151 -0.7589
 5102TIP3   OH215311   4.029   0.742   4.788  0.1129 -0.0904  0.0713
 5102TIP3    H115312   4.113   0.755   4.744 -1.0436  0.1605 -2.2212
 5102TIP3    H215313   4.003   0.653   4.763 -0.2283 -0.2459  0.9413
 5103TIP3   OH215314   5.409   2.691   2.652 -0.5310  0.5512 -0.5696
 5103TIP3    H115315   5.381   2.746   2.579  0.4763 -0.3809 -1.6867
 5103TIP3    H215316   5.504   2.688   2.645 -0.4951 -0.4561  0.1338
 5104TIP3   OH215317   2.634   4.306   3.623 -0.6406 -0.2187 -0.1367
 5104TIP3    H115318   2.659   4.244   3.691 -0.9494  0.8518  0.9773
 5104TIP3    H215319   2.671   4.269   3.542  2.3451 -0.0315  1.0290
 5105TIP3   OH215320   6.173   2.258   3.336  0.4191 -0.2173 -0.2641
 5105TIP3    H115321   6.211   2.198   3.401  2.0847  1.5866  0.5418
 5105TIP3    H215322   6.178   2.344   3.378  1.6768  1.0466 -2.7955
 5106TIP3   OH215323   4.276   1.175   4.655  0.3098 -0.3240 -0.1429
 5106TIP3    H115324   4.368   1.182   4.631  0.8950  1.7882  2.2355
 5106TIP3    H215325   4.244   1.099   4.607  2.6195  0.3197 -2.9585
 5107TIP3   OH215326   1.269   2.181   4.098 -0.2965  0.2974 -0.6700
 5107TIP3    H115327   1.327   2.167   4.023  2.1102  4.0327  0.1729
 5107TIP3    H215328   1.191   2.223   4.060  0.5187  1.3563 -1.2583
 5108TIP3   OH215329   2.349   5.189   4.537  0.3332 -0.1838 -0.1710
 5108TIP3    H115330   2.440   5.161   4.524  0.8391  0.8051  1.0831
 5108TIP3    H215331   2.353   5.251   4.609 -1.5958 -1.6145  1.2856
 5109TIP3   OH215332   6.210   5.702   3.432 -0.2635  0.3159 -0.2318
 5109TIP3    H115333   6.262   5.672   3.358  0.0624  1.0770 -0.3163
 5109TIP3    H215334   6.135   5.642   3.435  0.0166 -0.0631 -0.8228
 5110TIP3   OH215335   4.082   5.334   2.505 -0.2829 -0.3272 -0.0695
 5110TIP3    H115336   4.172   5.351   2.530 -0.5336 -0.5734  1.0371
 5110TIP3    H215337   4.066   5.393   2.431  0.5174  0.3128  0.2544
 5111TIP3   OH215338   4.870   2.066   4.392 -0.1218  0.4710  0.2637
 5111TIP3    H115339   4.900   2.157   4.397  0.9534  0.1462 -0.1446
 5111TIP3    H215340   4.864   2.048   4.298 -1.2743  0.4112  0.3337
 5112TIP3   OH215341   3.966   5.625   4.445  0.2889 -0.7917  0.5687
 5112TIP3    H115342   3.892   5.603   4.502 -0.1455 -0.4136  0.1634
 5112TIP3    H215343   4.028   5.553   4.457  0.5942 -0.3157  2.1546
 5113TIP3   OH215344   2.194   4.570   1.075 -0.3351  0.4471  0.3175
 5113TIP3    H115345   2.114   4.521   1.093  0.4858 -1.7146 -1.4897
 5113TIP3    H215346   2.253   4.547   1.147  0.4292 -2.2984 -1.0424
 5114TIP3   OH215347   5.703   5.742   1.392 -0.0089 -0.2492 -0.8776
 5114TIP3    H115348   5.753   5.735   1.473  0.7691  1.0192 -1.2172
 5114TIP3    H215349   5.693   5.837   1.378 -0.9427 -0.4578 -1.7676
 5115TIP3   OH215350   4.425   5.674   0.968 -0.3055 -0.6352 -0.0264
 5115TIP3    H115351   4.360   5.607   0.948 -1.0022 -0.0250  0.1502
 5115TIP3    H215352   4.400   5.749   0.915 -0.3030 -0.0749  0.7548
 5116TIP3   OH215353   2.542   0.479   0.347  0.8755  0.2133 -0.2484
 5116TIP3    H115354   2.563   0.557   0.399  0.6732  1.2136 -1.6280
 5116TIP3    H215355   2.528   0.512   0.258 -0.7564 -1.1813 -0.5619
 5117TIP3   OH215356   2.813   2.304   3.023 -0.6066  0.4968 -0.2219
 5117TIP3    H115357   2.819   2.371   3.091  0.0934  0.5429 -0.3188
 5117TIP3    H215358   2.863   2.230   3.058 -0.6608  0.3406 -0.4750
 5118TIP3   OH215359   3.468   5.251   0.631 -0.0078 -0.3641  0.3447
 5118TIP3    H115360   3.392   5.196   0.614 -0.7624  0.3123  1.4343
 5118TIP3    H215361   3.517   5.251   0.549 -0.3538 -2.0659  0.1012
 5119TIP3   OH215362   0.409   1.338   3.786  0.0726 -0.5304  0.3572
 5119TIP3    H115363   0.384   1.248   3.766  1.8560 -1.1215  0.6251
 5119TIP3    H215364   0.437   1.336   3.878  0.3975  0.2452  0.2842
 5120TIP3   OH215365   2.179   1.522   4.442  0.7505 -0.7318  0.4455
 5120TIP3    H115366   2.266   1.484   4.433  1.2293  0.6539 -1.2638
 5120TIP3    H215367   2.177   1.557   4.531  2.0364 -0.5423  0.4141
 5121TIP3   OH215368   5.263   2.903   1.401 -0.2780  0.3999  0.0178
 5121TIP3    H115369   5.268   2.902   1.306  0.4614 -0.4039  0.0501
 5121TIP3    H215370   5.181   2.948   1.421 -0.1519  1.0986 -0.9792
 5122TIP3   OH215371   3.322   5.262   1.772  0.3833  0.3200 -0.0853
 5122TIP3    H115372   3.418   5.264   1.768  0.6736 -4.7552 -1.2885
 5122TIP3    H215373   3.302   5.226   1.859 -0.1997 -1.3928 -0.8848
 5123TIP3   OH215374   2.478   4.065   3.085 -0.1602  0.5290 -0.7675
 5123TIP3    H115375   2.540   3.994   3.105  0.4516  1.6911  2.0170
 5123TIP3    H215376   2.434   4.037   3.005  1.4353 -2.0486 -0.8590
 5124TIP3   OH215377   5.017   0.836   0.917 -0.7808  0.4443  0.5590
 5124TIP3    H115378   5.031   0.796   0.831  0.3092 -1.5174  1.5862
 5124TIP3    H215379   4.953   0.780   0.960  0.4353  0.0124  1.8677
 5125TIP3   OH215380   3.134   2.978   0.274 -0.3768  0.0929 -0.2043
 5125TIP3    H115381   3.052   3.027   0.276  0.4244  1.5075 -0.4520
 5125TIP3    H215382   3.116   2.898   0.323 -1.3835  1.2104  1.3513
 5126TIP3   OH215383   6.240   5.081   5.047  0.2001 -0.4382  0.5629
 5126TIP3    H115384   6.278   5.005   5.091  1.4823 -0.1843 -0.0763
 5126TIP3    H215385   6.315   5.131   5.017 -0.6023  1.4491  1.5567
 5127TIP3   OH215386   0.595   3.686   2.016  0.1971  0.5160  0.0364
 5127TIP3    H115387   0.511   3.700   2.060  0.6577 -1.3589  1.6336
 5127TIP3    H215388   0.652   3.753   2.052  0.5778 -1.0033  2.4936
 5128TIP3   OH215389   3.912   3.044   2.359  0.2915  0.6924 -0.6227
 5128TIP3    H115390   3.982   3.030   2.296 -0.8245 -1.1507 -1.5493
 5128TIP3    H215391   3.951   3.022   2.444  1.0325  0.4186 -1.0334
 5129TIP3   OH215392   4.889   3.422   2.350  0.8373 -0.3371  0.2090
 5129TIP3    H115393   4.948   3.476   2.402  0.9274  0.3662 -0.5887
 5129TIP3    H215394   4.876   3.473   2.269  0.0077 -0.9858 -0.0761
 5130TIP3   OH215395   2.555   3.641   4.974  0.5565 -0.7044 -0.8340
 5130TIP3    H115396   2.608   3.698   4.918 -0.4218  0.2168 -0.8547
 5130TIP3    H215397   2.496   3.596   4.914  0.6577 -1.0051 -0.7114
 5131TIP3   OH215398   1.428   3.386   2.714  0.0926  0.2568 -0.1275
 5131TIP3    H115399   1.401   3.335   2.638 -2.7001 -1.7617  1.9899
 5131TIP3    H215400   1.456   3.320   2.778  1.9566  1.8428  0.8221
 5132TIP3   OH215401   2.698   2.664   4.520 -0.3619  0.1371 -0.6444
 5132TIP3    H115402   2.685   2.728   4.590 -0.4205 -0.3654 -0.1823
 5132TIP3    H215403   2.660   2.583   4.554 -1.2624  0.1114 -1.6578
 5133TIP3   OH215404   1.542   4.429   3.816  0.7646  0.5362 -0.3051
 5133TIP3    H115405   1.484   4.472   3.752 -0.2049 -0.4779 -0.1424
 5133TIP3    H215406   1.588   4.363   3.765  0.5867  0.2699 -0.1261
 5134TIP3   OH215407   2.781   5.131   1.469  0.1845 -0.2705 -0.2738
 5134TIP3    H115408   2.855   5.076   1.444  0.9788  0.4553  0.4348
 5134TIP3    H215409   2.746   5.089   1.548  0.1354 -0.3364 -0.3297
 5135TIP3   OH215410   4.165   5.352   2.185 -0.2597 -0.1363 -0.0787
 5135TIP3    H115411   4.080   5.316   2.210 -0.6024  1.5582  1.3432
 5135TIP3    H215412   4.160   5.444   2.207  2.3545 -0.2145  1.1805
 5136TIP3   OH215413   3.358   5.771   0.392  0.2223 -0.2196 -0.1382
 5136TIP3    H115414   3.436   5.724   0.421  1.2997  1.2063 -0.6039
 5136TIP3    H215415   3.353   5.846   0.451  0.2980  0.7044 -1.2753
 5137TIP3   OH215416   4.393   1.268   1.726  0.0337 -0.5858  0.1257
 5137TIP3    H115417   4.337   1.193   1.743 -0.1376 -0.9623 -1.8547
 5137TIP3    H215418   4.463   1.233   1.670  1.0938  0.3172  0.8436
 5138TIP3   OH215419   2.457   4.474   4.526  0.3863 -0.0286 -0.2377
 5138TIP3    H115420   2.374   4.431   4.506  0.3814 -0.6793  1.0221
 5138TIP3    H215421   2.454   4.487   4.621  1.4755  0.4622 -0.2629
 5139TIP3   OH215422   5.628   1.064   1.156  0.5232 -0.2730 -0.3785
 5139TIP3    H115423   5.676   1.116   1.220  1.6197 -0.7987 -0.7430
 5139TIP3    H215424   5.551   1.032   1.203  1.2701 -0.5987  0.6678
 5140TIP3   OH215425   0.920   0.142   2.866 -0.2100  0.0152 -0.3665
 5140TIP3    H115426   0.925   0.226   2.821 -0.1835 -0.1504 -0.6731
 5140TIP3    H215427   0.967   0.157   2.949  1.4540 -0.2258 -1.2289
 5141TIP3   OH215428   2.961   3.973   3.488  0.0742 -0.1756  0.4395
 5141TIP3    H115429   2.987   4.066   3.483 -1.1055  0.1313 -0.5827
 5141TIP3    H215430   2.874   3.975   3.527 -0.4413 -0.7375 -0.6474
 5142TIP3   OH215431   1.007   5.758   3.956 -0.3205  0.1813 -0.1276
 5142TIP3    H115432   1.003   5.845   3.917  0.3974 -0.0436 -0.7236
 5142TIP3    H215433   0.977   5.699   3.887  1.5106 -0.2819 -0.5921
 5143TIP3   OH215434   1.306   4.049   0.144 -0.1676 -0.0735  0.1205
 5143TIP3    H115435   1.371   4.035   0.213 -1.8654  0.3926  1.9123
 5143TIP3    H215436   1.355   4.091   0.073  1.9491 -1.8826  0.3979
 5144TIP3   OH215437   5.036   1.438   2.300  0.6314 -0.2230  0.0404
 5144TIP3    H115438   4.940   1.439   2.304  0.6507  1.0551  0.5507
 5144TIP3    H215439   5.056   1.362   2.245 -0.6664 -0.5381 -0.0454
 5145TIP3   OH215440   2.665   5.453   2.015  0.0429  0.3019  0.1555
 5145TIP3    H115441   2.702   5.382   2.068  0.7247 -0.5353 -1.3564
 5145TIP3    H215442   2.598   5.410   1.961  1.4447  0.4258 -1.8247
 5146TIP3   OH215443   4.656   5.271   1.099 -0.3907 -0.4525 -0.0269
 5146TIP3    H115444   4.725   5.337   1.102 -1.8527  1.0990  1.5130
 5146TIP3    H215445   4.675   5.220   1.021  0.3884  2.2545 -1.7184
 5147TIP3   OH215446   5.123   5.536   2.522 -0.1137 -0.5083  0.4725
 5147TIP3    H115447   5.087   5.450   2.498  0.9364 -1.4113  1.9217
 5147TIP3    H215448   5.185   5.516   2.592  0.0932  1.4693  0.8935
 5148TIP3   OH215449   6.062   0.597   0.138 -0.2811 -0.3964 -0.0370
 5148TIP3    H115450   6.116   0.596   0.059 -0.9579  1.5033 -0.5710
 5148TIP3    H215451   5.993   0.661   0.119 -0.3151  0.2918  2.1743
 5149TIP3   OH215452   2.202   2.130   4.677  0.2293 -0.3478  0.1740
 5149TIP3    H115453   2.124   2.177   4.650  1.0844  1.9956  1.5255
 5149TIP3    H215454   2.185   2.039   4.652 -1.4183  0.6371 -2.7348
 5150TIP3   OH215455   1.813   5.376   0.298  0.1431  0.1967 -0.6379
 5150TIP3    H115456   1.808   5.402   0.206  1.1620  1.7685 -0.3026
 5150TIP3    H215457   1.880   5.434   0.335 -1.6253  0.9702  1.5450
 5151TIP3   OH215458   1.485   5.546   4.538  0.1014 -0.0668  0.3970
 5151TIP3    H115459   1.490   5.594   4.620 -0.9961  0.5054  0.1482
 5151TIP3    H215460   1.530   5.463   4.556  1.6003  0.8313  0.9754
 5152TIP3   OH215461   5.490   3.464   0.732 -0.3538  0.0144  0.6691
 5152TIP3    H115462   5.565   3.523   0.721 -0.6520  0.0766 -1.6664
 5152TIP3    H215463   5.462   3.476   0.822  0.5582  2.2883  0.7086
 5153TIP3   OH215464   0.765   3.447   3.675 -0.4635  0.1760  0.0792
 5153TIP3    H115465   0.834   3.441   3.608 -1.2297 -2.7057 -0.6119
 5153TIP3    H215466   0.802   3.402   3.751 -1.3085 -0.8677 -0.0988
 5154TIP3   OH215467   5.077   2.165   0.470  0.1243 -0.2723  0.3258
 5154TIP3    H115468   5.118   2.241   0.429 -1.0905 -0.7205 -1.8567
 5154TIP3    H215469   5.012   2.202   0.530  1.0015  0.3775  0.9201
 5155TIP3   OH215470   3.851   5.291   1.082  0.1379 -0.2418 -0.0695
 5155TIP3    H115471   3.891   5.347   1.015 -0.9175  1.0040  0.2967
 5155TIP3    H215472   3.925   5.254   1.130  0.8790  0.1496 -0.8883
 5156TIP3   OH215473   2.278   1.990   1.940  0.1799 -0.3870 -0.0579
 5156TIP3    H115474   2.211   2.050   1.974 -0.1442 -1.5119  1.4088
 5156TIP3    H215475   2.276   2.003   1.845 -0.9397  0.8046  0.0944
 5157TIP3   OH215476   0.565   2.344   2.308  0.0497 -0.3115  0.0583
 5157TIP3    H115477   0.645   2.325   2.357  0.4763  1.7313  0.2422
 5157TIP3    H215478   0.507   2.384   2.373  0.1926  1.3781 -0.8195
 5158TIP3   OH215479   1.198   2.240   3.567  0.4512  0.4542  0.0484
 5158TIP3    H115480   1.177   2.253   3.475  1.3912  1.0772 -0.1012
 5158TIP3    H215481   1.289   2.211   3.567 -0.6583 -3.5408  0.5673
 5159TIP3   OH215482   3.659   2.325   2.191  0.2929 -0.4288 -0.3053
 5159TIP3    H115483   3.671   2.405   2.140 -0.0656 -1.0407 -1.3831
 5159TIP3    H215484   3.721   2.263   2.154  0.0853 -0.8654  0.0644
 5160TIP3   OH215485   4.363   0.702   2.942  0.4172 -0.3570  0.3314
 5160TIP3    H115486   4.414   0.775   2.908  1.2199 -1.5745 -1.2525
 5160TIP3    H215487   4.305   0.740   3.007  1.3494  1.5406  0.0960
 5161TIP3   OH215488   4.330   4.215   1.292 -0.3927  0.5114  0.0648
 5161TIP3    H115489   4.271   4.151   1.333 -0.7384  1.6964  1.5192
 5161TIP3    H215490   4.418   4.182   1.312 -0.5393 -0.3533 -0.6258
 5162TIP3   OH215491   1.642   1.099   0.169  0.4747 -0.4371 -0.5374
 5162TIP3    H115492   1.653   1.014   0.212 -0.4578 -0.0778  0.4267
 5162TIP3    H215493   1.555   1.095   0.129  0.6728 -0.1523 -1.0120
 5163TIP3   OH215494   3.565   5.583   1.078 -0.6199 -0.3233 -1.0502
 5163TIP3    H115495   3.573   5.579   1.173  0.8321 -0.6184 -1.1586
 5163TIP3    H215496   3.497   5.648   1.062 -0.4174  0.2152  0.1776
 5164TIP3   OH215497   1.882   5.718   2.305  0.7142 -0.7916 -1.1263
 5164TIP3    H115498   1.823   5.679   2.240 -2.4426  1.2346  0.2284
 5164TIP3    H215499   1.919   5.794   2.261 -1.4591  0.6082 -0.7240
 5165TIP3   OH215500   2.485   0.548   1.065  0.4626  0.1064  0.8482
 5165TIP3    H115501   2.450   0.622   1.115  2.8883  1.4489  0.6718
 5165TIP3    H215502   2.445   0.471   1.105 -1.7836  1.4328  1.3336
 5166TIP3   OH215503   5.754   1.807   0.455  0.0191  0.8616 -0.2103
 5166TIP3    H115504   5.828   1.754   0.483 -0.2394  1.5273  1.9511
 5166TIP3    H215505   5.791   1.894   0.440 -0.3349  1.2672  1.1562
 5167TIP3   OH215506   0.411   3.477   1.227  0.0573  0.4283 -0.5662
 5167TIP3    H115507   0.372   3.451   1.143  0.1841  1.9865 -1.1494
 5167TIP3    H215508   0.488   3.528   1.202 -0.3037  1.5221  0.4782
 5168TIP3   OH215509   1.455   1.594   3.955 -0.0121  0.4480 -0.6459
 5168TIP3    H115510   1.540   1.582   3.997 -0.4580  1.1241  0.4952
 5168TIP3    H215511   1.403   1.519   3.984 -1.2475  2.3401  2.5068
 5169TIP3   OH215512   0.889   2.678   1.952  0.1094  0.2956 -0.0250
 5169TIP3    H115513   0.981   2.689   1.931 -0.4024  1.2144 -2.0171
 5169TIP3    H215514   0.843   2.737   1.893 -1.6911  1.2053  2.1332
 5170TIP3   OH215515   1.815   4.874   4.596 -0.2266 -0.5965 -0.1027
 5170TIP3    H115516   1.839   4.858   4.687  0.3822  1.0950  0.0601
 5170TIP3    H215517   1.830   4.967   4.583  0.0943 -0.8807 -2.0680
 5171TIP3   OH215518   5.524   5.422   4.530 -0.3630  0.3885 -0.0172
 5171TIP3    H115519   5.449   5.481   4.541 -0.4133  0.2392  0.4335
 5171TIP3    H215520   5.546   5.431   4.437 -2.6729 -1.6442 -0.8689
 5172TIP3   OH215521   3.850   5.383   0.033 -0.3705 -0.1070  0.3517
 5172TIP3    H115522   3.911   5.408  -0.037 -0.0029 -1.1951  0.2601
 5172TIP3    H215523   3.881   5.430   0.110 -0.3378  0.5336 -0.0485
 5173TIP3   OH215524   2.632   2.343   3.538 -0.5930 -0.3093 -0.1876
 5173TIP3    H115525   2.549   2.335   3.490 -0.3046  0.2041 -0.7861
 5173TIP3    H215526   2.640   2.436   3.556 -1.1878 -0.5999  1.7782
 5174TIP3   OH215527   1.452   2.590   4.816  0.0559  0.1181 -0.2285
 5174TIP3    H115528   1.403   2.669   4.795  1.4474  0.6995 -1.5008
 5174TIP3    H215529   1.508   2.616   4.889  0.0030  0.1081 -0.1849
 5175TIP3   OH215530   0.935   0.683   0.589  0.3912  0.2863  0.9002
 5175TIP3    H115531   0.899   0.634   0.515  1.8523  0.2755  0.1531
 5175TIP3    H215532   0.982   0.617   0.640  1.9521  0.7817  0.1593
 5176TIP3   OH215533   0.356   5.963   3.692 -0.2458 -0.3178  0.4342
 5176TIP3    H115534   0.362   5.914   3.773  0.3746  0.8932  1.1426
 5176TIP3    H215535   0.328   6.051   3.718 -1.1862 -0.2189 -0.7820
 5177TIP3   OH215536   4.350   3.873   3.232 -0.1179 -0.0700 -0.1060
 5177TIP3    H115537   4.350   3.814   3.156 -1.3546 -0.3629  0.1148
 5177TIP3    H215538   4.325   3.818   3.306 -1.2274  0.7083  0.1144
 5178TIP3   OH215539   4.514   4.342   0.505  0.0791  0.9058 -0.2180
 5178TIP3    H115540   4.596   4.364   0.460  0.6682  0.3824  0.5595
 5178TIP3    H215541   4.472   4.426   0.520 -0.5360  1.0716 -2.4205
 5179TIP3   OH215542   6.073   2.493   4.183 -0.1575  0.2527 -0.5705
 5179TIP3    H115543   6.086   2.408   4.140  1.6400  0.3933 -0.3740
 5179TIP3    H215544   6.043   2.551   4.113  3.5248  0.6958 -1.9844
 5180TIP3   OH215545   5.000   1.563   1.318 -0.1701  0.2095 -0.5244
 5180TIP3    H115546   5.095   1.552   1.320 -0.0779  0.9858 -0.5234
 5180TIP3    H215547   4.985   1.642   1.267 -0.6611  1.6906  1.7696
 5181TIP3   OH215548   5.769   1.196   1.351  0.1879  0.2876 -0.0697
 5181TIP3    H115549   5.759   1.292   1.345  2.3100  0.5102 -0.9712
 5181TIP3    H215550   5.745   1.175   1.441  0.7841  1.8462  0.4860
 5182TIP3   OH215551   1.449   5.765   3.257 -0.3802  0.2954 -0.2154
 5182TIP3    H115552   1.505   5.826   3.209  0.0505  0.2618  0.2273
 5182TIP3    H215553   1.482   5.768   3.347  0.0799 -1.0617 -0.3053
 5183TIP3   OH215554   5.066   4.287   3.684  0.5207 -0.3931 -0.3573
 5183TIP3    H115555   5.067   4.352   3.613  0.8295 -0.7979 -0.7269
 5183TIP3    H215556   5.119   4.215   3.651 -0.5533 -1.2336 -0.3140
 5184TIP3   OH215557   4.328   2.498   3.613  0.3876  0.0425  0.1668
 5184TIP3    H115558   4.374   2.531   3.690  0.4146  1.3509 -0.3901
 5184TIP3    H215559   4.345   2.563   3.545  1.1243 -1.5243 -1.2299
 5185TIP3   OH215560   0.041   5.539   2.030 -0.1229  0.3599 -0.3456
 5185TIP3    H115561   0.130   5.573   2.038  1.1752 -2.5543 -0.8789
 5185TIP3    H215562   0.006   5.540   2.119  0.3899  1.6273 -0.1457
 5186TIP3   OH215563   0.739   4.948   0.580  0.1086 -0.5617  0.3930
 5186TIP3    H115564   0.803   4.882   0.555  1.5694 -0.0337  2.4346
 5186TIP3    H215565   0.777   5.031   0.550 -0.6922 -0.4275 -0.2877
 5187TIP3   OH215566   6.275   0.555   3.484  0.5588 -0.1247 -0.3548
 5187TIP3    H115567   6.347   0.604   3.443  2.0209  0.2219  2.3899
 5187TIP3    H215568   6.309   0.466   3.491  0.0669 -0.3223 -0.5056
 5188TIP3   OH215569   0.222   0.937   3.105  0.2998 -0.0546 -0.6641
 5188TIP3    H115570   0.190   0.993   3.177  0.7965  1.1322 -1.3346
 5188TIP3    H215571   0.144   0.920   3.052  0.2039  0.3236 -0.6527
 5189TIP3   OH215572   1.184   0.883   4.989 -0.1179 -0.2671 -0.6771
 5189TIP3    H115573   1.220   0.899   5.076 -1.5037 -2.5018  0.4152
 5189TIP3    H215574   1.106   0.938   4.984 -0.2926 -0.4774 -0.2983
 5190TIP3   OH215575   4.295   0.303   1.212 -0.0663 -1.0650 -0.2419
 5190TIP3    H115576   4.265   0.374   1.155 -0.7275 -1.0065  0.1710
 5190TIP3    H215577   4.378   0.335   1.248 -0.4108 -0.4490  0.0242
 5191TIP3   OH215578   2.599   4.123   1.138  0.3902  0.2679  0.1342
 5191TIP3    H115579   2.550   4.082   1.067  0.9228  0.1796 -0.1934
 5191TIP3    H215580   2.549   4.103   1.217 -0.5429  0.8997 -0.2818
 5192TIP3   OH215581   3.045   5.958   1.668  0.0073  0.9586  0.1170
 5192TIP3    H115582   3.069   5.874   1.628  2.7051  1.6918 -0.0204
 5192TIP3    H215583   2.984   5.934   1.738  1.7816 -1.3710  1.0544
 5193TIP3   OH215584   0.528   0.100   0.981  0.0203 -0.1173  0.1259
 5193TIP3    H115585   0.476   0.173   1.017  0.1585 -1.2636  2.8659
 5193TIP3    H215586   0.618   0.131   0.983 -0.1458  0.5394 -1.2112
 5194TIP3   OH215587   1.046   5.521   0.513 -0.1693 -0.0231  0.5043
 5194TIP3    H115588   0.950   5.514   0.509 -0.1277 -0.3829  0.1392
 5194TIP3    H215589   1.076   5.485   0.429  0.3021 -0.1722  0.7390
 5195TIP3   OH215590   2.292   3.742   0.455  0.3543 -0.4568  0.0403
 5195TIP3    H115591   2.336   3.791   0.386  0.9308  0.2338  0.8814
 5195TIP3    H215592   2.329   3.654   0.450  0.5201 -0.3626 -0.4100
 5196TIP3   OH215593   1.873   1.565   4.868 -0.0533 -0.4939  0.2803
 5196TIP3    H115594   1.957   1.553   4.911  0.3708 -0.9215 -0.6562
 5196TIP3    H215595   1.877   1.654   4.833  1.1783 -1.4460 -2.2108
 5197TIP3   OH215596   2.270   4.170   2.669 -0.0781 -0.1317  0.7542
 5197TIP3    H115597   2.200   4.236   2.667  0.1243  0.0656  0.1342
 5197TIP3    H215598   2.331   4.197   2.601  0.0337 -0.9379  0.5228
 5198TIP3   OH215599   3.155   3.126   2.659 -0.0179 -0.2799  0.0337
 5198TIP3    H115600   3.235   3.170   2.628  0.8735 -0.4777  1.9102
 5198TIP3    H215601   3.146   3.154   2.749 -1.5481 -1.0384  0.1393
 5199TIP3   OH215602   2.149   4.405   0.172  0.0746 -0.5031 -0.5492
 5199TIP3    H115603   2.242   4.409   0.148 -0.0108 -1.8336 -1.2120
 5199TIP3    H215604   2.135   4.482   0.227  1.8452 -0.8186  0.4432
 5200TIP3   OH215605   4.338   4.513   2.713  0.0355 -0.0791  0.4267
 5200TIP3    H115606   4.348   4.420   2.693 -0.3338 -0.2670  1.0835
 5200TIP3    H215607   4.248   4.522   2.745 -0.1686  0.6341 -0.3007
 5201TIP3   OH215608   1.239   2.212   0.017  0.2943  0.0839 -0.0695
 5201TIP3    H115609   1.301   2.182   0.083 -0.0348 -0.0191  0.1974
 5201TIP3    H215610   1.163   2.241   0.067 -0.2362 -0.6490 -0.4324
 5202TIP3   OH215611   3.172   4.108   2.967  0.4298 -0.5732  0.2098
 5202TIP3    H115612   3.159   4.014   2.954  0.2778 -0.2198 -3.2459
 5202TIP3    H215613   3.181   4.143   2.878  0.5264  2.6917  1.3744
 5203TIP3   OH215614   0.131   3.760   4.196  0.1128 -0.5979  0.9483
 5203TIP3    H115615   0.050   3.793   4.237 -1.1201 -2.5639  0.2520
 5203TIP3    H215616   0.129   3.795   4.107  1.3976  1.4210  1.6297
 5204TIP3   OH215617   1.616   5.376   4.814  0.5633 -0.0366 -0.5231
 5204TIP3    H115618   1.703   5.364   4.853  0.6213 -0.1857 -0.6945
 5204TIP3    H215619   1.585   5.287   4.799 -0.8860 -0.1012  2.2787
 5205TIP3   OH215620   6.120   5.696   1.905 -0.5015  0.2334  0.1751
 5205TIP3    H115621   6.087   5.715   1.993  0.5551  3.1872  0.0602
 5205TIP3    H215622   6.191   5.634   1.919 -0.0481  1.0156  1.4982
 5206TIP3   OH215623   1.321   5.784   4.475 -0.2728 -0.7488  0.1625
 5206TIP3    H115624   1.361   5.835   4.546 -0.3131 -0.6175  0.0914
 5206TIP3    H215625   1.375   5.706   4.467  0.5598 -0.1082 -0.6040
 5207TIP3   OH215626   1.623   1.352   3.544 -0.1565  0.4066  0.1266
 5207TIP3    H115627   1.627   1.279   3.483  3.2456 -0.4946  1.2153
 5207TIP3    H215628   1.682   1.418   3.507 -2.6714  2.4839 -0.5147
 5208TIP3   OH215629   5.564   2.293   4.741  0.3088 -0.0968  0.0065
 5208TIP3    H115630   5.637   2.320   4.797  1.3993 -1.3427 -0.7730
 5208TIP3    H215631   5.568   2.352   4.666  0.4958 -0.1524 -0.0271
 5209TIP3   OH215632   0.109   2.403   1.110 -0.0263  0.6996 -0.0748
 5209TIP3    H115633   0.166   2.364   1.175  0.3765 -0.2574 -0.9666
 5209TIP3    H215634   0.111   2.342   1.036 -0.8538  1.4978 -0.7946
 5210TIP3   OH215635   3.590   3.946   1.211 -0.2303 -0.1125 -0.7464
 5210TIP3    H115636   3.548   3.906   1.287  2.4332  1.5021  1.7936
 5210TIP3    H215637   3.520   3.994   1.168 -2.0714 -1.9709 -0.0187
 5211TIP3   OH215638   0.324   4.823   0.430 -0.2842 -0.6002 -0.4099
 5211TIP3    H115639   0.229   4.818   0.438 -0.1608 -1.4174  0.7770
 5211TIP3    H215640   0.339   4.855   0.341 -1.7316  2.5219  0.3209
 5212TIP3   OH215641   5.404   2.397   3.297  0.3915  0.0717 -0.0090
 5212TIP3    H115642   5.324   2.393   3.244  0.6531  0.8355 -0.4843
 5212TIP3    H215643   5.375   2.374   3.385 -0.3098  0.1040 -0.2201
 5213TIP3   OH215644   2.238   5.789   1.235 -0.0619  0.0377  0.2031
 5213TIP3    H115645   2.197   5.857   1.289 -0.7490  0.9658 -1.4301
 5213TIP3    H215646   2.168   5.725   1.221 -0.6980  1.0819 -1.6792
 5214TIP3   OH215647   4.942   5.344   4.123 -0.3508 -0.4816  0.1553
 5214TIP3    H115648   4.920   5.253   4.143  1.1274 -0.4238  2.3860
 5214TIP3    H215649   4.919   5.393   4.202  0.6131  0.7718 -0.2922
 5215TIP3   OH215650   4.219   5.024   3.035 -0.5390 -0.8508 -0.5044
 5215TIP3    H115651   4.224   5.119   3.051  0.4464 -0.9154 -0.3818
 5215TIP3    H215652   4.295   5.005   2.980 -0.7366 -1.5799 -0.5366
 5216TIP3   OH215653   0.792   1.059   1.442 -0.4474 -0.5493  0.3044
 5216TIP3    H115654   0.706   1.047   1.401  0.0317  1.3559 -1.3794
 5216TIP3    H215655   0.788   1.145   1.483  1.0310  0.0689 -0.7980
 5217TIP3   OH215656   4.807   3.883   2.821  0.1194 -0.2482  0.3911
 5217TIP3    H115657   4.794   3.791   2.842  1.0886 -0.8216 -1.3199
 5217TIP3    H215658   4.892   3.904   2.859 -0.6731  0.3549  1.9232
 5218TIP3   OH215659   5.323   3.877   0.343  0.1566  0.3777 -0.7804
 5218TIP3    H115660   5.363   3.793   0.322  2.6812  1.2639  0.0186
 5218TIP3    H215661   5.334   3.929   0.263  1.0430  0.7368 -0.4464
 5219TIP3   OH215662   2.399   5.227   2.200 -0.1761 -0.3411  0.0048
 5219TIP3    H115663   2.312   5.214   2.237 -0.8289 -1.5535 -1.8096
 5219TIP3    H215664   2.453   5.255   2.274 -1.8283 -0.7029  1.4058
 5220TIP3   OH215665   5.538   2.489   0.534 -0.3851  0.0323  0.6166
 5220TIP3    H115666   5.464   2.483   0.594 -0.3948  1.3538  0.7673
 5220TIP3    H215667   5.616   2.478   0.589 -0.4094 -2.9846  0.2505
 5221TIP3   OH215668   5.764   2.783   0.722  0.3168 -0.5298  0.0633
 5221TIP3    H115669   5.804   2.844   0.782 -0.4012 -1.0994  1.1580
 5221TIP3    H215670   5.689   2.831   0.686  0.4326 -0.3733  0.0283
 5222TIP3   OH215671   4.335   3.219   3.188 -0.0131  0.4467  0.2704
 5222TIP3    H115672   4.340   3.143   3.129  0.2869  0.9807 -0.4025
 5222TIP3    H215673   4.248   3.255   3.174  0.1440  0.7104 -0.0084
 5223TIP3   OH215674   4.817   3.183   1.359  0.1144 -0.0282 -0.0660
 5223TIP3    H115675   4.903   3.156   1.390 -0.2939  0.1752  1.3118
 5223TIP3    H215676   4.830   3.273   1.327  0.3154  0.2064  0.6506
 5224TIP3   OH215677   0.970   3.706   1.616 -0.3377  0.0764 -0.5701
 5224TIP3    H115678   0.923   3.623   1.604 -0.5015  0.1610 -0.5177
 5224TIP3    H215679   0.938   3.762   1.545  0.6488 -0.2945 -1.3258
 5225TIP3   OH215680   0.039   2.752   5.174  0.0122 -0.3555 -0.1549
 5225TIP3    H115681   0.131   2.726   5.168 -0.1373 -0.8015 -0.6068
 5225TIP3    H215682   0.027   2.815   5.103  0.7659  2.2610  1.8769
 5226TIP3   OH215683   0.755   4.994   3.269  0.6053 -0.3440  0.0022
 5226TIP3    H115684   0.842   5.032   3.258  0.8663 -1.0825 -0.6172
 5226TIP3    H215685   0.698   5.046   3.213  1.2296 -1.7268 -2.0194
 5227TIP3   OH215686   3.194   5.209   2.020 -0.1290 -0.6456  0.0914
 5227TIP3    H115687   3.188   5.115   2.005 -1.7994 -0.1843 -2.8820
 5227TIP3    H215688   3.208   5.217   2.114 -0.6122 -3.8207  0.5529
 5228TIP3   OH215689   5.540   4.278   1.015  0.2208 -0.1854 -0.2020
 5228TIP3    H115690   5.609   4.225   0.976  2.4230  2.3898 -0.1652
 5228TIP3    H215691   5.459   4.248   0.974  1.9580  0.1009 -4.3351
 5229TIP3   OH215692   0.455   4.849   1.986  0.1560  0.0362  0.1040
 5229TIP3    H115693   0.469   4.939   2.014  2.4004 -0.5138  0.9383
 5229TIP3    H215694   0.441   4.855   1.892  1.1947  1.2104  0.0006
 5230TIP3   OH215695   0.782   0.731   2.241 -0.2002  0.7983 -0.4551
 5230TIP3    H115696   0.806   0.643   2.213 -0.1645  0.9461 -0.8960
 5230TIP3    H215697   0.706   0.718   2.298 -0.0839  0.4696 -0.3723
 5231TIP3   OH215698   5.370   3.909   1.094 -0.2420 -0.1153 -0.5703
 5231TIP3    H115699   5.277   3.915   1.073 -0.0228  2.0982 -1.0769
 5231TIP3    H215700   5.374   3.845   1.165 -1.8990 -1.7750 -1.8558
 5232TIP3   OH215701   3.370   3.335   1.232  0.3123  0.3944  0.4655
 5232TIP3    H115702   3.307   3.392   1.188 -0.2474  0.3541  1.1839
 5232TIP3    H215703   3.349   3.344   1.325  1.3380  0.3314  0.7148
 5233TIP3   OH215704   4.630   0.781   5.099 -0.0590  0.0219  0.0860
 5233TIP3    H115705   4.602   0.871   5.079  1.0163  0.7992  1.7549
 5233TIP3    H215706   4.551   0.737   5.130 -0.0398  1.4458  2.4233
 5234TIP3   OH215707   5.370   4.135   1.239  0.0575 -0.4864 -0.5341
 5234TIP3    H115708   5.407   4.065   1.185 -1.5078 -1.7908 -0.0216
 5234TIP3    H215709   5.331   4.196   1.177 -1.1041 -1.6102 -0.9599
 5235TIP3   OH215710   5.115   5.660   0.165 -0.0430  0.0015 -0.1602
 5235TIP3    H115711   5.171   5.610   0.225 -0.1836  0.8228  0.6816
 5235TIP3    H215712   5.027   5.648   0.200 -0.3796 -1.0378 -1.3012
 5236TIP3   OH215713   4.587   4.570   0.759 -0.0190  0.1367  0.1426
 5236TIP3    H115714   4.509   4.589   0.707  0.8016  1.9125 -0.5228
 5236TIP3    H215715   4.568   4.608   0.845 -0.6548 -1.1986  0.6121
 5237TIP3   OH215716   6.165   2.689   4.911  0.4834  0.1267  0.3482
 5237TIP3    H115717   6.133   2.717   4.996 -0.7232  1.5275 -0.5226
 5237TIP3    H215718   6.250   2.731   4.902 -0.3034  1.7175  0.0280
 5238TIP3   OH215719   0.498   0.379   0.692  0.1799 -0.1469  0.2730
 5238TIP3    H115720   0.477   0.449   0.755 -2.2350 -0.4439 -0.1369
 5238TIP3    H215721   0.562   0.419   0.634 -0.5326  1.4809  0.5439
 5239TIP3   OH215722   3.095   4.258   4.099 -0.5267  0.1674 -0.0553
 5239TIP3    H115723   3.122   4.311   4.024 -2.5944  1.5781  0.1361
 5239TIP3    H215724   3.039   4.190   4.062 -0.0608 -0.2667  0.0204
 5240TIP3   OH215725   3.610   2.800   2.040  0.0967 -0.0232  0.0590
 5240TIP3    H115726   3.523   2.837   2.026  0.9002  1.9617 -0.0261
 5240TIP3    H215727   3.638   2.836   2.124  1.2715  0.2524 -0.4350
 5241TIP3   OH215728   0.109   1.894   0.469  0.2377  0.4086 -0.4942
 5241TIP3    H115729   0.166   1.838   0.417  0.8218  0.2656  0.2783
 5241TIP3    H215730   0.085   1.840   0.545  0.4276  1.0416  0.0248
 5242TIP3   OH215731   1.465   3.826   5.118  0.5394  0.0910  0.2283
 5242TIP3    H115732   1.386   3.835   5.171  1.4557  1.4467  1.4504
 5242TIP3    H215733   1.456   3.893   5.051 -0.6909 -1.7230 -1.5451
 5243TIP3   OH215734   0.031   3.979   0.749 -0.3461  0.2217  0.2210
 5243TIP3    H115735  -0.047   4.034   0.750 -1.8773 -1.8132  0.1363
 5243TIP3    H215736   0.018   3.917   0.820 -0.0663 -1.7305 -1.3320
 5244TIP3   OH215737   4.965   1.360   1.858  0.3496 -0.0962 -0.1355
 5244TIP3    H115738   4.924   1.325   1.778 -0.3377 -0.4258  0.3437
 5244TIP3    H215739   4.939   1.452   1.859 -0.0970 -0.2167 -0.0252
 5245TIP3   OH215740   5.918   3.944   3.599  0.4990  0.3454 -0.0174
 5245TIP3    H115741   5.916   3.848   3.608 -1.0932  0.4037  0.5419
 5245TIP3    H215742   5.968   3.959   3.519  0.5677 -0.9738 -0.2494
 5246TIP3   OH215743   3.446   0.868   1.906 -0.3100 -0.6223  0.4090
 5246TIP3    H115744   3.483   0.845   1.821 -1.3108 -0.7387 -0.0083
 5246TIP3    H215745   3.521   0.869   1.965  0.5118  0.1071 -0.5978
 5247TIP3   OH215746   4.155   1.925   4.522  0.0553 -0.2925  0.4562
 5247TIP3    H115747   4.177   1.989   4.591  0.4211  0.1533 -0.0655
 5247TIP3    H215748   4.066   1.896   4.544 -0.0057  0.1867  0.8620
 5248TIP3   OH215749   1.727   1.872   2.443 -0.1008 -0.2802 -0.0479
 5248TIP3    H115750   1.791   1.883   2.514 -0.5849 -1.3605  0.5865
 5248TIP3    H215751   1.776   1.824   2.376  0.7061  1.7467 -0.9787
 5249TIP3   OH215752   3.224   2.826   2.895 -0.1638  0.3388 -0.2264
 5249TIP3    H115753   3.158   2.775   2.849 -0.2120  0.2786 -0.0892
 5249TIP3    H215754   3.289   2.762   2.923 -0.7862  0.2015  0.9275
 5250TIP3   OH215755   3.800   4.250  -0.011 -0.3132  0.0380 -0.1143
 5250TIP3    H115756   3.840   4.263   0.074 -0.0206 -0.7257 -0.1243
 5250TIP3    H215757   3.719   4.202   0.008 -0.1271 -0.3468 -0.2828
 5251TIP3   OH215758   3.095   0.410   4.967  0.2961 -0.4460  0.6427
 5251TIP3    H115759   3.065   0.382   5.053  0.2488  0.3200  0.8774
 5251TIP3    H215760   3.071   0.338   4.909  1.1694 -1.4017  1.4130
 5252TIP3   OH215761   0.128   4.255   1.169 -0.0497  0.2842 -0.5004
 5252TIP3    H115762   0.066   4.242   1.097 -0.1438 -0.0390 -0.3569
 5252TIP3    H215763   0.074   4.261   1.247  0.0490  0.7046 -0.4594
 5253TIP3   OH215764   5.627   3.553   2.904 -0.3522 -0.0310 -0.1269
 5253TIP3    H115765   5.695   3.487   2.911  0.0016  0.3514  0.0728
 5253TIP3    H215766   5.671   3.636   2.924 -0.2045  0.5969 -2.7135
 5254TIP3   OH215767   0.506   0.465   3.444  0.1312 -0.4642 -0.4255
 5254TIP3    H115768   0.479   0.388   3.394  2.3754 -0.8108 -1.2027
 5254TIP3    H215769   0.596   0.447   3.470 -0.1429  0.8028  1.6515
 5255TIP3   OH215770   1.111   1.144   2.712 -0.2686  0.3252 -0.2043
 5255TIP3    H115771   1.166   1.187   2.778 -0.9034  0.2249  0.3911
 5255TIP3    H215772   1.151   1.170   2.629  0.9661 -0.1112  0.2229
 5256TIP3   OH215773   4.076   5.594   1.273  0.2748 -0.2954  0.2829
 5256TIP3    H115774   3.995   5.585   1.324  0.4559 -0.3021  0.5697
 5256TIP3    H215775   4.046   5.610   1.184 -0.0483 -1.4241  0.1725
 5257TIP3   OH215776   1.154  -0.022   1.487 -0.3970 -0.8086  0.3976
 5257TIP3    H115777   1.230   0.036   1.487  0.0406 -1.3688  0.7332
 5257TIP3    H215778   1.101   0.009   1.560  1.2535 -2.5915  2.5128
 5258TIP3   OH215779   4.513   0.441   1.897 -0.2983  0.0362 -0.2329
 5258TIP3    H115780   4.540   0.369   1.954  1.9838  0.8639 -0.1357
 5258TIP3    H215781   4.514   0.518   1.954 -0.8988  0.4207 -0.7361
 5259TIP3   OH215782   2.279   4.841   4.028  0.0441  0.1387  0.6289
 5259TIP3    H115783   2.240   4.860   4.113  0.0374 -0.9984  0.8977
 5259TIP3    H215784   2.235   4.760   3.999  1.9798 -1.0482  0.8218
 5260TIP3   OH215785   5.402   2.177   1.961  0.3043  0.0864 -0.1906
 5260TIP3    H115786   5.443   2.113   1.903 -2.5858 -1.4414 -0.7428
 5260TIP3    H215787   5.395   2.257   1.909 -0.5953 -0.7153 -1.3452
 5261TIP3   OH215788   5.771   4.958   3.087  0.1424  0.4968  0.2963
 5261TIP3    H115789   5.782   5.003   3.003  3.6257  0.3164  0.5043
 5261TIP3    H215790   5.830   5.005   3.146  0.4081 -1.5119  1.7152
 5262TIP3   OH215791   6.152   5.897   2.447  0.3259  0.4055  0.2707
 5262TIP3    H115792   6.094   5.826   2.475 -0.5725  1.5836  1.5010
 5262TIP3    H215793   6.190   5.865   2.365 -0.3315 -1.3332  0.5840
 5263TIP3   OH215794   4.011   5.553   4.916 -0.0516  0.2640 -0.0744
 5263TIP3    H115795   4.078   5.501   4.961  0.5382  2.3835  1.6823
 5263TIP3    H215796   4.047   5.568   4.829  2.1876  1.9125  1.0366
 5264TIP3   OH215797   2.087   5.311   2.345 -0.1814 -0.3995 -0.2105
 5264TIP3    H115798   2.080   5.395   2.389  0.9813 -0.7970  0.7989
 5264TIP3    H215799   2.111   5.249   2.414 -2.5902 -1.9021 -0.5943
 5265TIP3   OH215800   4.634   0.992   3.343 -0.5991 -0.5828  0.2159
 5265TIP3    H115801   4.582   0.912   3.343 -0.4434 -0.6885 -0.4423
 5265TIP3    H215802   4.663   1.001   3.434  1.1713 -2.4502 -0.0786
 5266TIP3   OH215803   3.072   5.177   1.371  0.1515  0.5040  0.2328
 5266TIP3    H115804   3.095   5.250   1.314  3.5410  1.5065  2.5924
 5266TIP3    H215805   3.136   5.109   1.351 -1.1897 -0.7566  0.0674
 5267TIP3   OH215806   2.371   3.816   1.774 -0.4074  0.0144 -0.7355
 5267TIP3    H115807   2.389   3.877   1.845  1.5048 -1.6437  0.3250
 5267TIP3    H215808   2.360   3.731   1.818  0.3900 -0.9846 -2.3838
 5268TIP3   OH215809   2.704   2.409   1.027 -0.2856 -0.1045  0.2675
 5268TIP3    H115810   2.689   2.395   0.933 -2.8583  1.4193  0.3554
 5268TIP3    H215811   2.637   2.357   1.070  1.2696 -1.2897  1.3518
 5269TIP3   OH215812   1.145   4.683   2.390  0.0893 -0.0899  0.4072
 5269TIP3    H115813   1.071   4.629   2.363  1.3625 -1.0159 -1.4016
 5269TIP3    H215814   1.147   4.754   2.326 -1.2048  1.9259  2.4070
 5270TIP3   OH215815   4.106   4.668   0.042 -0.0234 -0.3073 -0.0683
 5270TIP3    H115816   4.090   4.757   0.071  1.4604 -0.3937  1.1101
 5270TIP3    H215817   4.023   4.622   0.057 -0.3431  0.5097  0.7152
 5271TIP3   OH215818   2.833   4.521   3.541  0.4738  0.4425  0.0767
 5271TIP3    H115819   2.861   4.557   3.457  0.0638  0.3502 -0.1020
 5271TIP3    H215820   2.740   4.545   3.548 -0.0048 -1.1175 -0.3573
 5272TIP3   OH215821   0.891   4.693   3.023  0.5175 -0.1629  0.1175
 5272TIP3    H115822   0.888   4.599   3.006 -1.3048  0.1715 -1.8095
 5272TIP3    H215823   0.907   4.733   2.938  0.6770  1.3318  0.8063
 5273TIP3   OH215824   3.905   3.271   2.031 -0.0286 -0.4463 -0.1153
 5273TIP3    H115825   3.961   3.221   1.971  0.6419 -0.5462  0.5842
 5273TIP3    H215826   3.966   3.319   2.086 -0.5318 -1.8870  1.8207
 5274TIP3   OH215827   0.975   4.475   4.163 -0.2918 -0.8595 -0.4106
 5274TIP3    H115828   0.912   4.448   4.230 -0.1344 -0.0832  0.0724
 5274TIP3    H215829   1.047   4.515   4.212  0.7969 -2.1182 -0.9267
 5275TIP3   OH215830   0.691   0.554   3.958 -0.3226  0.3235 -0.3497
 5275TIP3    H115831   0.742   0.475   3.938 -1.6333 -1.0366  1.4008
 5275TIP3    H215832   0.600   0.528   3.942 -0.7790  1.4620  0.2937
 5276TIP3   OH215833   1.242   1.490   2.043 -0.0918  0.0047 -0.0194
 5276TIP3    H115834   1.298   1.421   2.010  0.4313 -0.2890  1.4115
 5276TIP3    H215835   1.294   1.570   2.036  0.5013 -0.2445  1.1646
 5277TIP3   OH215836   2.184   3.831   4.768  0.0940  0.3886 -0.0715
 5277TIP3    H115837   2.204   3.901   4.707 -0.8363  0.1362 -0.6825
 5277TIP3    H215838   2.203   3.868   4.854  0.3658  1.1125 -0.4370
 5278TIP3   OH215839   5.505   0.631   0.635  0.6646  0.2180  0.1652
 5278TIP3    H115840   5.563   0.598   0.703 -0.6032  0.0687  1.2265
 5278TIP3    H215841   5.543   0.715   0.608  0.1731  1.2577  2.4858
 5279TIP3   OH215842   5.056   2.128   0.854  0.0296  0.4125 -0.2524
 5279TIP3    H115843   5.094   2.052   0.896 -0.2718  0.2178 -0.3295
 5279TIP3    H215844   5.119   2.198   0.869  0.2649  0.1690 -0.1069
 5280TIP3   OH215845   5.779   2.807   5.192  0.0456 -0.0878  0.4555
 5280TIP3    H115846   5.721   2.738   5.224 -0.3744 -0.2169 -0.5406
 5280TIP3    H215847   5.813   2.773   5.109  2.5763 -0.5579  1.5962
 5281TIP3   OH215848   1.280   5.316   3.970  0.6405 -0.6442 -0.0773
 5281TIP3    H115849   1.244   5.386   3.915 -1.2753 -1.0820  0.5571
 5281TIP3    H215850   1.359   5.288   3.924  0.9526  1.2995 -0.8254
 5282TIP3   OH215851   0.750   4.823   0.094  0.2174 -0.1762 -0.0808
 5282TIP3    H115852   0.720   4.869   0.016 -1.1254 -1.1956 -0.2083
 5282TIP3    H215853   0.759   4.732   0.066 -0.0052 -0.5113  0.8781
 5283TIP3   OH215854   1.410   5.557   2.919 -0.2969  0.1921  0.2867
 5283TIP3    H115855   1.384   5.548   3.010  0.2533 -2.0057  0.2839
 5283TIP3    H215856   1.339   5.514   2.870  0.8433 -1.3780 -0.0585
 5284TIP3   OH215857   1.791   1.624   4.559 -0.3847 -0.1380  0.4254
 5284TIP3    H115858   1.811   1.686   4.489 -3.4173  0.0882 -0.4051
 5284TIP3    H215859   1.763   1.679   4.632 -1.5500 -0.4200  0.2227
 5285TIP3   OH215860   5.241   0.188   1.088 -0.7145  0.4805  0.5407
 5285TIP3    H115861   5.279   0.151   1.168  0.7875  0.1988 -0.2820
 5285TIP3    H215862   5.223   0.279   1.111  3.1156  1.4751  0.1819
 5286TIP3   OH215863   3.195   3.906   0.643 -0.2404  0.3685 -0.3664
 5286TIP3    H115864   3.207   3.836   0.707 -0.8509  0.5924 -0.0027
 5286TIP3    H215865   3.108   3.940   0.660 -0.1479  0.8839 -0.8790
 5287TIP3   OH215866   3.721   4.159   4.826  0.5642  0.0468  0.4212
 5287TIP3    H115867   3.673   4.077   4.835 -0.5271  0.3639 -1.8699
 5287TIP3    H215868   3.813   4.133   4.834  0.2144 -1.2938  0.4076
 5288TIP3   OH215869   0.899   1.123   1.087  0.5035 -0.1369 -0.3128
 5288TIP3    H115870   0.830   1.158   1.030  1.1168  1.1687 -0.2861
 5288TIP3    H215871   0.858   1.113   1.172  0.4058  0.8589 -0.2403
 5289TIP3   OH215872   4.680   1.032   3.887  0.1388 -0.2546 -0.7992
 5289TIP3    H115873   4.612   0.972   3.917  1.9625 -1.0595  2.1701
 5289TIP3    H215874   4.762   0.984   3.900  1.4486  1.4909 -2.1008
 5290TIP3   OH215875   0.831   1.724   2.343 -0.3005  0.4752  0.3446
 5290TIP3    H115876   0.817   1.706   2.436  0.9526  0.5792  0.5717
 5290TIP3    H215877   0.744   1.719   2.304 -0.6242 -1.5509  1.1884
 5291TIP3   OH215878   2.216   2.170   4.355  0.4345  0.4324  0.5346
 5291TIP3    H115879   2.196   2.099   4.416 -0.2309 -1.1981 -1.4519
 5291TIP3    H215880   2.141   2.229   4.361 -0.8336 -0.9813 -0.3696
 5292TIP3   OH215881   5.046   3.234   0.432  0.1186  0.6374 -0.4574
 5292TIP3    H115882   5.098   3.310   0.407  0.4198  1.0197  1.2667
 5292TIP3    H215883   5.084   3.203   0.514  0.2199 -1.6047 -1.2720
 5293TIP3   OH215884   1.873   4.829   0.306  0.3526 -0.2017  0.7851
 5293TIP3    H115885   1.838   4.740   0.310  0.2838 -0.2109  0.1131
 5293TIP3    H215886   1.820   4.878   0.370  0.8343 -0.7804  1.6448
 5294TIP3   OH215887   5.310   4.183   0.836 -0.0266 -0.3583 -0.5619
 5294TIP3    H115888   5.261   4.175   0.754 -0.9290 -2.5306  0.1185
 5294TIP3    H215889   5.371   4.109   0.836 -0.8715 -1.1218  1.2066
 5295TIP3   OH215890   0.974   3.618   0.810 -0.1492 -0.3378 -0.6245
 5295TIP3    H115891   0.950   3.605   0.718 -0.8447 -0.0686 -0.4848
 5295TIP3    H215892   0.933   3.701   0.834  0.9572  0.1564 -0.3809
 5296TIP3   OH215893   3.441   3.053   4.773 -0.1763  0.2164 -0.6806
 5296TIP3    H115894   3.428   3.010   4.858  2.7023 -0.3810 -0.4411
 5296TIP3    H215895   3.482   3.137   4.795 -0.5555  0.6175 -1.4481
 5297TIP3   OH215896   5.549   3.259   2.225  0.1749 -0.3703 -0.4899
 5297TIP3    H115897   5.557   3.194   2.156 -0.1774  0.3950 -1.2663
 5297TIP3    H215898   5.498   3.215   2.293 -0.3825 -0.7768 -1.1637
 5298TIP3   OH215899   0.264   5.851   4.444  0.1947 -0.3113  0.2106
 5298TIP3    H115900   0.302   5.900   4.517  0.4471  1.1546 -0.8543
 5298TIP3    H215901   0.306   5.888   4.366 -0.3463 -1.5681 -0.7107
 5299TIP3   OH215902   4.872   0.384   4.508 -0.1851 -0.2463 -0.1955
 5299TIP3    H115903   4.924   0.304   4.506  1.6873  0.8429  1.2740
 5299TIP3    H215904   4.811   0.371   4.581  1.1033  0.1876  0.9931
 5300TIP3   OH215905   4.480   2.486   2.178 -0.0587  0.3994 -0.2589
 5300TIP3    H115906   4.481   2.529   2.093  0.9782  2.0063  0.5312
 5300TIP3    H215907   4.527   2.545   2.236  0.4124 -1.2753  1.1553
 5301TIP3   OH215908   6.223   2.692   2.443  0.0829  0.0844 -0.0903
 5301TIP3    H115909   6.185   2.779   2.455  0.4474  0.5724 -2.1733
 5301TIP3    H215910   6.148   2.633   2.434 -0.1584  0.2739  0.5811
 5302TIP3   OH215911   1.945   3.084   0.963  0.5401  0.4731  0.0013
 5302TIP3    H115912   1.959   3.113   1.054 -2.1861  3.3710 -0.3020
 5302TIP3    H215913   1.963   3.162   0.911 -3.0619  0.6217 -1.3402
 5303TIP3   OH215914   5.439   2.605   4.991 -0.4042 -0.4278 -0.0949
 5303TIP3    H115915   5.380   2.677   5.015  0.2378  0.4183 -0.9376
 5303TIP3    H215916   5.426   2.595   4.897  0.4168 -0.5704 -0.1995
 5304TIP3   OH215917   6.030   4.561   2.983 -0.1219  0.1446 -0.3012
 5304TIP3    H115918   6.051   4.628   2.917  0.5416  0.4008  0.1612
 5304TIP3    H215919   6.034   4.608   3.066 -0.7746 -0.2214 -0.0648
 5305TIP3   OH215920   1.113   4.025   2.934 -0.3409 -0.1059  0.0720
 5305TIP3    H115921   1.194   4.072   2.956 -0.0949 -1.1172  1.4487
 5305TIP3    H215922   1.090   4.057   2.846  0.7011  1.3351  0.2850
 5306TIP3   OH215923   1.870   1.436   1.371  0.0609 -0.1489 -0.2111
 5306TIP3    H115924   1.789   1.406   1.413  0.9207  1.1960  2.6256
 5306TIP3    H215925   1.935   1.371   1.394  0.8104  1.1979  1.7245
 5307TIP3   OH215926   5.501   0.152   2.185  0.4748  0.2847 -0.2446
 5307TIP3    H115927   5.451   0.073   2.207 -0.6736  1.2759  0.8259
 5307TIP3    H215928   5.443   0.202   2.127 -0.3760  2.0231  1.9791
 5308TIP3   OH215929   5.186   1.880   3.082 -0.1673  0.0404 -0.0856
 5308TIP3    H115930   5.232   1.960   3.055  0.8332  0.2139  1.9028
 5308TIP3    H215931   5.125   1.910   3.150 -2.1430 -0.4447 -1.5795
 5309TIP3   OH215932   0.106   2.532   0.288  0.4988  0.2971 -0.2466
 5309TIP3    H115933   0.086   2.511   0.380  0.7473 -0.6033 -0.3925
 5309TIP3    H215934   0.201   2.524   0.282  0.3367 -1.4077 -0.9930
 5310TIP3   OH215935   4.223   2.317   3.767  0.0726  0.2645  0.3124
 5310TIP3    H115936   4.277   2.358   3.699 -0.9248 -0.9874 -1.3033
 5310TIP3    H215937   4.279   2.317   3.845  1.6540  0.7927 -0.7786
 5311TIP3   OH215938   3.493   4.322   2.324  0.3428 -0.1831  0.1859
 5311TIP3    H115939   3.512   4.405   2.280  2.5762 -0.6126  0.1978
 5311TIP3    H215940   3.516   4.255   2.260 -0.2670 -0.8011  0.6032
 5312TIP3   OH215941   4.996   2.558   2.452  0.1336 -0.5487  0.7270
 5312TIP3    H115942   4.925   2.498   2.475 -1.8374  0.2163 -2.7036
 5312TIP3    H215943   5.074   2.503   2.445 -0.6800 -1.8940  1.8873
 5313TIP3   OH215944   3.428   2.415   3.402 -0.6213  0.3845 -0.4677
 5313TIP3    H115945   3.414   2.328   3.364 -1.6300  0.0415  0.6339
 5313TIP3    H215946   3.508   2.405   3.454  0.5554  0.7579 -2.0996
 5314TIP3   OH215947   0.955   5.416   2.177 -0.5507  0.6515  0.3013
 5314TIP3    H115948   0.994   5.443   2.260 -1.8046  0.7499  0.8818
 5314TIP3    H215949   0.999   5.333   2.156 -0.9338  0.0882  1.5990
 5315TIP3   OH215950   5.971   5.608   1.007 -0.1897 -0.2553  0.0628
 5315TIP3    H115951   5.910   5.601   1.081 -1.7422  1.6933 -0.9217
 5315TIP3    H215952   6.031   5.678   1.032 -1.6994  1.5430 -1.0509
 5316TIP3   OH215953   3.677   0.563   4.276 -0.7591 -0.3280  0.0046
 5316TIP3    H115954   3.680   0.608   4.192  1.8796 -2.2479 -1.0492
 5316TIP3    H215955   3.745   0.606   4.329 -0.6455 -0.7906  0.2365
 5317TIP3   OH215956   2.935   2.709   2.221 -0.0532 -0.3200  0.2546
 5317TIP3    H115957   2.897   2.623   2.240 -1.0987 -0.0446 -0.5181
 5317TIP3    H215958   2.891   2.738   2.142 -1.6454  2.0823  1.8934
 5318TIP3   OH215959   6.215   4.743   4.725  0.1990 -0.2730 -0.2076
 5318TIP3    H115960   6.278   4.794   4.674  0.3172 -2.0708 -1.9884
 5318TIP3    H215961   6.132   4.754   4.677 -0.4311  0.4638  0.9965
 5319TIP3   OH215962   0.094   1.577   0.117  0.1014 -0.0332  0.2497
 5319TIP3    H115963   0.102   1.501   0.175  0.3825  0.1074  0.3952
 5319TIP3    H215964   0.080   1.540   0.030 -0.7947 -0.2466  0.4694
 5320TIP3   OH215965   0.304   2.571   1.374  0.0808 -0.2187  0.3734
 5320TIP3    H115966   0.303   2.624   1.454 -0.0096  1.3519 -0.6310
 5320TIP3    H215967   0.290   2.481   1.405 -0.0077  0.3521  2.1086
 5321TIP3   OH215968   1.114   1.219   1.806  0.1563 -0.0752  0.3556
 5321TIP3    H115969   1.026   1.194   1.833  1.2754 -2.0989  2.4768
 5321TIP3    H215970   1.126   1.177   1.721 -0.6670 -0.4009  0.3930
 5322TIP3   OH215971   5.836   4.235   4.794  0.0376  0.0424 -0.0767
 5322TIP3    H115972   5.859   4.281   4.875  4.5654  2.0314 -2.1525
 5322TIP3    H215973   5.844   4.142   4.816  1.3774  0.5286  1.7385
 5323TIP3   OH215974   5.664   5.832   0.006 -0.1651  0.4641 -0.2807
 5323TIP3    H115975   5.668   5.805   0.098 -2.1537  3.3031  0.7543
 5323TIP3    H215976   5.731   5.900  -0.002  1.1794 -0.9220 -1.4693
 5324TIP3   OH215977   5.739   3.874   1.363 -0.3272  0.7443 -0.5510
 5324TIP3    H115978   5.736   3.962   1.323  0.2420  0.8375 -0.4017
 5324TIP3    H215979   5.830   3.847   1.353 -0.0786  0.9388  1.0540
 5325TIP3   OH215980   3.728   3.643   0.046 -0.1452 -0.3425 -0.7761
 5325TIP3    H115981   3.806   3.595   0.019 -0.5534 -1.3863 -0.1723
 5325TIP3    H215982   3.695   3.594   0.121 -1.1783  0.2902 -0.8013
 5326TIP3   OH215983   4.524   2.855   2.551 -0.0067 -0.0763 -0.3181
 5326TIP3    H115984   4.470   2.906   2.611 -1.2866 -2.1817  0.4174
 5326TIP3    H215985   4.604   2.907   2.541 -1.7931  2.7766 -0.8407
 5327TIP3   OH215986   2.817   3.058   4.644  0.4858  0.9790 -0.2036
 5327TIP3    H115987   2.768   3.107   4.710  1.0729  0.3942  0.6909
 5327TIP3    H215988   2.777   2.971   4.646  0.2089  1.0799 -0.9597
 5328TIP3   OH215989   6.173   1.752   0.225  0.2234  0.3303  0.4365
 5328TIP3    H115990   6.239   1.743   0.157  0.1423  0.5785  0.3252
 5328TIP3    H215991   6.091   1.768   0.178  0.3989  1.9166  0.6176
 5329TIP3   OH215992   4.380   4.069   2.662 -0.6071  0.1864  0.2935
 5329TIP3    H115993   4.349   3.993   2.711 -0.5018 -0.0494 -0.0016
 5329TIP3    H215994   4.471   4.049   2.642 -0.5497  0.4369  0.3079
 5330TIP3   OH215995   5.814   2.099   2.123  0.8430 -0.0563  1.1331
 5330TIP3    H115996   5.800   2.043   2.200 -1.7679 -1.4167 -0.1809
 5330TIP3    H215997   5.771   2.051   2.051  3.2584  1.0860 -1.2390
 5331TIP3   OH215998   5.413   5.025   1.976 -0.0609 -0.0810 -0.4267
 5331TIP3    H115999   5.415   4.986   1.888 -1.2938 -1.6750  0.2057
 5331TIP3    H216000   5.483   4.980   2.023  1.2066  1.4148 -0.7967
 5332TIP3   OH216001   4.704   5.719   4.006  0.1304  0.6594 -0.1266
 5332TIP3    H116002   4.709   5.768   4.088 -1.6931  1.0363 -0.2169
 5332TIP3    H216003   4.611   5.713   3.985  0.3982 -1.2174 -1.1181
 5333TIP3   OH216004   0.962   2.001   2.778 -0.1369  0.1826  0.0123
 5333TIP3    H116005   1.003   1.970   2.698 -1.2366  0.3042 -0.6166
 5333TIP3    H216006   0.878   1.956   2.782 -0.2665  0.4673  0.8964
 5334TIP3   OH216007   5.190   2.385   2.074  0.6407 -0.2580 -0.4776
 5334TIP3    H116008   5.171   2.303   2.028 -0.9270 -0.0112 -0.3425
 5334TIP3    H216009   5.256   2.361   2.139 -0.8489 -1.7974  0.5661
 5335TIP3   OH216010   5.745   3.946   1.847  0.7989 -0.3115  0.3681
 5335TIP3    H116011   5.796   3.998   1.909 -0.8566 -0.4580  1.9162
 5335TIP3    H216012   5.750   3.856   1.880 -0.1690 -0.3816  0.3497
 5336TIP3   OH216013   4.544   0.222   1.107 -0.2480  0.0134  0.4307
 5336TIP3    H116014   4.638   0.233   1.092 -0.0304  0.2551  1.7864
 5336TIP3    H216015   4.502   0.276   1.040  0.6113  0.8751  0.5640
 5337TIP3   OH216016   2.934   3.481   1.932  0.1744 -0.7885  0.3007
 5337TIP3    H116017   2.937   3.551   1.867 -2.1957 -0.4759  0.4452
 5337TIP3    H216018   2.983   3.515   2.007 -1.6979  1.1810  0.7294
 5338TIP3   OH216019   0.427   5.054   4.164  0.2013 -0.2300  0.2051
 5338TIP3    H116020   0.371   5.098   4.100 -0.8690 -0.6356  0.8397
 5338TIP3    H216021   0.499   5.115   4.179 -1.2887  1.3883  1.1407
 5339TIP3   OH216022   3.111   5.387   1.193  0.2453  0.6851 -0.2402
 5339TIP3    H116023   3.190   5.360   1.145 -0.7415 -2.3756 -0.3478
 5339TIP3    H216024   3.048   5.408   1.125 -0.2950 -0.9773 -0.2877
 5340TIP3   OH216025   4.234   3.719   3.009 -0.0028  0.1913  0.1930
 5340TIP3    H116026   4.227   3.806   2.970  1.6060  0.8897  1.3709
 5340TIP3    H216027   4.144   3.695   3.030 -0.8313  0.2840 -2.7505
 5341TIP3   OH216028   1.268   5.790   4.829  0.5943  0.1995  0.1888
 5341TIP3    H116029   1.196   5.833   4.876  2.5094  3.0864  0.7696
 5341TIP3    H216030   1.282   5.708   4.877 -1.3116  0.2601  0.9443
 5342TIP3   OH216031   4.674   1.668   0.345 -0.5517  0.6658 -0.1464
 5342TIP3    H116032   4.714   1.751   0.370 -1.0996  0.4632  1.5376
 5342TIP3    H216033   4.744   1.620   0.300  0.1363  1.5380 -0.0279
 5343TIP3   OH216034   5.855   5.365   2.730  0.1081  0.1790 -0.5733
 5343TIP3    H116035   5.818   5.316   2.657  2.2141  0.3247 -1.8225
 5343TIP3    H216036   5.837   5.457   2.709 -0.6108  0.1548 -0.1050
 5344TIP3   OH216037   5.388   0.688   2.427  0.0391  0.1156 -0.0115
 5344TIP3    H116038   5.452   0.759   2.434  1.3729 -1.0775  0.4508
 5344TIP3    H216039   5.321   0.709   2.492  1.3498  0.0558  1.4147
 5345TIP3   OH216040   4.471   0.135   0.588  0.3599 -0.2963 -0.4886
 5345TIP3    H116041   4.388   0.107   0.550  0.4914 -0.8123 -0.4021
 5345TIP3    H216042   4.522   0.166   0.512 -0.2350  0.8946 -0.4329
 5346TIP3   OH216043   4.434   3.742   1.412 -0.3308 -0.1908  0.7112
 5346TIP3    H116044   4.397   3.812   1.465  1.4757  1.0952  0.4006
 5346TIP3    H216045   4.455   3.784   1.329 -0.0959 -1.3550  0.1657
 5347TIP3   OH216046   4.862   0.598   3.398 -0.2180  0.3909  0.2498
 5347TIP3    H116047   4.793   0.568   3.338  0.7552 -0.3722 -0.5169
 5347TIP3    H216048   4.936   0.540   3.381  0.7288  1.3774  0.8469
 5348TIP3   OH216049   6.194   0.669   2.735  0.4828  0.3959 -0.5321
 5348TIP3    H116050   6.125   0.625   2.685  0.3455  0.0115 -0.0024
 5348TIP3    H216051   6.152   0.748   2.769 -0.1906 -0.6369  1.1521
 5349TIP3   OH216052   5.771   2.404   3.378  0.1704  0.2595  0.3649
 5349TIP3    H116053   5.788   2.490   3.415  1.0045  0.3286 -0.1538
 5349TIP3    H216054   5.806   2.342   3.442  0.2035  0.3321  0.4159
 5350TIP3   OH216055   5.082   6.011   3.893 -0.2172 -0.0762 -0.4240
 5350TIP3    H116056   5.090   5.967   3.978 -3.1828  0.6151  0.3253
 5350TIP3    H216057   5.128   5.953   3.832 -0.6441 -2.2017  1.1608
 5351TIP3   OH216058   2.384   0.321   0.599  0.0180  0.6869  0.3071
 5351TIP3    H116059   2.344   0.263   0.664  2.2047  0.1638  1.2824
 5351TIP3    H216060   2.366   0.409   0.633 -1.5973  0.5398 -0.1147
 5352TIP3   OH216061   0.513   2.824   1.847 -0.2193 -0.2023  0.3781
 5352TIP3    H116062   0.453   2.760   1.808 -0.3566  0.2744 -0.2107
 5352TIP3    H216063   0.485   2.831   1.938 -1.4833  0.5070 -0.0489
 5353TIP3   OH216064   5.889   2.879   3.270  0.7648 -0.1393 -0.5542
 5353TIP3    H116065   5.925   2.922   3.192  0.1114  0.8267 -0.3526
 5353TIP3    H216066   5.794   2.885   3.258  0.6478 -1.9096 -0.6953
 5354TIP3   OH216067   2.324   5.511   1.893 -0.4544  0.2280 -0.1149
 5354TIP3    H116068   2.356   5.590   1.849  0.3663 -0.0517 -0.0340
 5354TIP3    H216069   2.234   5.501   1.863 -1.0892  2.0414  1.0001
 5355TIP3   OH216070   4.091   3.430   2.493  0.2618  0.2062  0.3045
 5355TIP3    H116071   4.047   3.513   2.510 -0.2136 -0.0172  0.1962
 5355TIP3    H216072   4.168   3.432   2.549  0.9434  1.2558 -0.6340
 5356TIP3   OH216073   2.593   0.958   1.820 -0.3684 -0.1128 -0.0793
 5356TIP3    H116074   2.579   0.964   1.915  0.7184 -0.0341  0.0884
 5356TIP3    H216075   2.513   0.994   1.782 -0.6331  0.2860  0.8128
 5357TIP3   OH216076   0.304   3.730   0.882  0.4754  0.5911 -0.1341
 5357TIP3    H116077   0.273   3.769   0.964 -1.1466  0.4506 -0.6393
 5357TIP3    H216078   0.309   3.636   0.901  0.7914  0.6340  0.0029
 5358TIP3   OH216079   3.482   3.300   0.652  0.0699 -0.6552 -0.4699
 5358TIP3    H116080   3.394   3.323   0.624 -0.3660 -1.3376  0.2971
 5358TIP3    H216081   3.528   3.383   0.660 -0.8169 -0.2097  0.1525
 5359TIP3   OH216082   3.011   3.492   1.580  0.3602  0.2763 -0.8637
 5359TIP3    H116083   2.947   3.552   1.619 -1.1603 -0.5039 -2.0169
 5359TIP3    H216084   3.086   3.547   1.558 -0.4152  1.4710 -0.6068
 5360TIP3   OH216085   0.909   3.435   1.608  0.1641 -0.0179  0.6916
 5360TIP3    H116086   0.946   3.391   1.531 -0.4969 -1.2418  1.0647
 5360TIP3    H216087   0.918   3.373   1.679 -0.5574  0.5424  1.2933
 5361TIP3   OH216088   1.007   4.786   3.534 -0.6257  0.3352  0.4183
 5361TIP3    H116089   1.026   4.705   3.582  0.5292  1.3780  1.7904
 5361TIP3    H216090   1.048   4.772   3.448 -1.6882 -1.0801  0.1025
 5362TIP3   OH216091   3.203   3.961   3.689  0.9213  0.1319 -0.3877
 5362TIP3    H116092   3.160   3.877   3.675 -0.0160  0.7186 -1.1342
 5362TIP3    H216093   3.254   3.949   3.769 -0.9192 -0.5022  0.7564
 5363TIP3   OH216094   5.442   1.187   4.686 -0.3504  0.1128  0.2668
 5363TIP3    H116095   5.402   1.187   4.773 -0.7663 -0.2770  0.0801
 5363TIP3    H216096   5.367   1.184   4.625 -0.0430 -1.9250 -0.0878
 5364TIP3   OH216097   1.532   1.240   0.690  0.0398 -0.2129  0.0491
 5364TIP3    H116098   1.622   1.208   0.689 -0.0808 -0.5540 -0.6572
 5364TIP3    H216099   1.496   1.212   0.606 -0.5065  0.5452  0.0169
 5365TIP3   OH216100   6.152   3.696   1.939 -0.4381 -0.4679 -0.4779
 5365TIP3    H116101   6.108   3.632   1.994 -0.0492  0.9911  1.6477
 5365TIP3    H216102   6.220   3.646   1.894 -1.2717 -1.8507 -0.2538
 5366TIP3   OH216103   3.274   0.021   0.059 -0.1092  0.7329  0.0463
 5366TIP3    H116104   3.310   0.056   0.140  0.0850  1.4607 -0.3501
 5366TIP3    H216105   3.179   0.031   0.069 -0.4378 -2.5696  1.7418
 5367TIP3   OH216106   2.177   1.559   4.709  0.2663  0.1810 -0.3624
 5367TIP3    H116107   2.145   1.576   4.798  0.3216 -0.0560 -0.2969
 5367TIP3    H216108   2.211   1.469   4.712  1.4533  0.6083 -0.2761
 5368TIP3   OH216109   5.709   0.108   2.358 -0.7235 -0.6049 -0.1982
 5368TIP3    H116110   5.628   0.116   2.308 -1.1038  2.2734  0.6847
 5368TIP3    H216111   5.694   0.034   2.416 -1.3665 -2.2264 -2.3044
 5369TIP3   OH216112   0.894   5.364   1.814  0.1419  0.2413  0.4856
 5369TIP3    H116113   0.814   5.372   1.763  0.8085  1.2553 -0.4497
 5369TIP3    H216114   0.927   5.276   1.795  0.0068  0.3524 -0.2904
 5370TIP3   OH216115   4.094   4.816   3.204  0.2657  0.0535 -0.3605
 5370TIP3    H116116   4.139   4.890   3.163 -0.5437  1.3660  0.9966
 5370TIP3    H216117   4.006   4.818   3.165 -0.1618  0.6372  0.5917
 5371TIP3   OH216118   3.368   5.912   3.904  0.6285 -0.2698  0.1788
 5371TIP3    H116119   3.459   5.912   3.932  0.6363 -1.8011  0.2206
 5371TIP3    H216120   3.328   5.984   3.953  1.2792 -1.1204  2.0643
 5372TIP3   OH216121   5.226   5.207   1.055  0.2107  0.0595 -0.2320
 5372TIP3    H116122   5.183   5.151   0.991  0.3487 -0.5502  0.2071
 5372TIP3    H216123   5.315   5.172   1.062  0.2071  0.1439  0.2699
 5373TIP3   OH216124   3.375   1.004   4.611  0.4556 -0.1645 -0.1387
 5373TIP3    H116125   3.320   0.948   4.666  2.0968 -0.5641  1.1739
 5373TIP3    H216126   3.433   1.049   4.672  0.1288  1.9720 -1.2751
 5374TIP3   OH216127   2.926   5.032   0.370  0.3690 -0.2657  0.2101
 5374TIP3    H116128   2.846   5.051   0.420  0.0249  0.9650 -0.7646
 5374TIP3    H216129   2.955   5.118   0.339  0.1493 -1.0499 -2.3359
 5375TIP3   OH216130   6.169   3.350   4.171 -0.0641  1.0698 -0.5865
 5375TIP3    H116131   6.105   3.292   4.212  2.0676 -0.4044  0.8651
 5375TIP3    H216132   6.226   3.291   4.121  1.7942  1.9212  0.4304
 5376TIP3   OH216133   3.741   4.883   2.229  0.2323  0.1080 -0.0719
 5376TIP3    H116134   3.738   4.837   2.145  1.0239 -2.9718  1.4556
 5376TIP3    H216135   3.834   4.903   2.242  0.7296 -2.7441  1.5916
 5377TIP3   OH216136   5.864   3.968   4.245 -0.0236  0.0053  0.0259
 5377TIP3    H116137   5.899   4.057   4.245 -0.2464  0.2209 -3.1705
 5377TIP3    H216138   5.769   3.980   4.239 -0.0981 -0.4644  0.2418
 5378TIP3   OH216139   2.714   2.370   4.523  0.2165  0.2021  0.8089
 5378TIP3    H116140   2.663   2.298   4.485 -1.9107  2.6711 -1.4153
 5378TIP3    H216141   2.746   2.335   4.606 -0.3954 -3.3677 -0.2656
 5379TIP3   OH216142   2.876   3.910   0.581  0.1728  0.1391  0.0114
 5379TIP3    H116143   2.805   3.950   0.631 -0.2982  1.8939 -1.9060
 5379TIP3    H216144   2.860   3.816   0.586  0.0825  0.2043  2.9245
 5380TIP3   OH216145   2.436   5.895   2.593 -0.3226 -0.2248  0.1287
 5380TIP3    H116146   2.385   5.969   2.559 -0.7445 -0.9766 -0.9421
 5380TIP3    H216147   2.405   5.820   2.543  0.8112 -0.9617  0.4947
 5381TIP3   OH216148   1.725   3.989   4.704 -0.7172 -0.0268 -0.0600
 5381TIP3    H116149   1.740   4.019   4.794 -1.2236 -0.2080  0.0912
 5381TIP3    H216150   1.792   3.923   4.690  0.4015  1.1477 -0.3961
 5382TIP3   OH216151   5.628   2.787   1.854  0.1867 -0.2136  0.1261
 5382TIP3    H116152   5.625   2.818   1.944  0.0285 -1.1120  0.4344
 5382TIP3    H216153   5.541   2.751   1.838  0.6732 -1.4037  0.1054
 5383TIP3   OH216154   3.982   1.806   2.352 -0.2864  0.4292  0.8510
 5383TIP3    H116155   4.064   1.758   2.351 -0.0712  0.7703 -1.0505
 5383TIP3    H216156   4.007   1.898   2.343 -0.8903  0.3689 -2.4927
 5384TIP3   OH216157   5.963   3.940   3.094  0.1104  0.3646  0.0828
 5384TIP3    H116158   6.044   3.990   3.085  0.7488 -0.7690 -0.8896
 5384TIP3    H216159   5.982   3.877   3.164  0.8911 -1.2888 -1.5160
 5385TIP3   OH216160   5.478   2.174   4.307  0.7106 -0.5997  0.7627
 5385TIP3    H116161   5.495   2.268   4.304  1.5323 -0.6998  1.8244
 5385TIP3    H216162   5.559   2.136   4.341  0.4380 -1.7095  0.2247
 5386TIP3   OH216163   3.611   2.168   3.711  0.2917 -0.3317 -0.8068
 5386TIP3    H116164   3.544   2.106   3.683  0.8607 -1.2210 -0.2630
 5386TIP3    H216165   3.684   2.113   3.738  0.1202  0.4710  1.5221
 5387TIP3   OH216166   0.630   4.397   4.460  0.0439 -0.2159 -0.0872
 5387TIP3    H116167   0.642   4.437   4.375 -0.7500 -0.7144 -0.4475
 5387TIP3    H216168   0.535   4.395   4.473  0.1663  0.4714  1.1084
 5388TIP3   OH216169   5.360   4.264   4.264 -0.2962  0.4674 -0.1327
 5388TIP3    H116170   5.309   4.313   4.199 -0.4630  1.0060  0.3915
 5388TIP3    H216171   5.376   4.327   4.334  0.1562 -0.0151  0.2078
 5389TIP3   OH216172   2.805   5.880   1.796  0.6460  0.5713 -0.0550
 5389TIP3    H116173   2.806   5.785   1.791  2.3898  0.6218 -2.2049
 5389TIP3    H216174   2.733   5.907   1.738  1.0049  0.5747 -0.5030
 5390TIP3   OH216175   0.929   3.904   1.420 -0.3355 -0.1514  0.0535
 5390TIP3    H116176   0.918   3.928   1.328 -0.3482  0.4943  0.2163
 5390TIP3    H216177   0.893   3.979   1.469  1.7852  0.5860  0.5868
 5391TIP3   OH216178   1.572   1.992   3.160  0.1957 -0.2578 -0.1545
 5391TIP3    H116179   1.584   1.897   3.168  1.0788 -0.0667  1.2356
 5391TIP3    H216180   1.480   2.002   3.134 -1.0525 -1.4437  3.1752
 5392TIP3   OH216181   4.012   1.285   0.701 -0.3107  0.1119  0.0401
 5392TIP3    H116182   3.935   1.343   0.706 -0.4451  0.0328 -0.9174
 5392TIP3    H216183   4.061   1.304   0.781 -0.0286  2.0085 -0.5269
 5393TIP3   OH216184   4.228   5.281   3.149 -0.0752  0.0792  0.7083
 5393TIP3    H116185   4.159   5.335   3.112 -0.8096  0.4945  2.5368
 5393TIP3    H216186   4.305   5.338   3.150 -0.1033  0.1312  0.0658
 5394TIP3   OH216187   3.836   3.360   3.978 -0.4137 -0.2705  0.1360
 5394TIP3    H116188   3.754   3.372   3.931  0.1538 -3.1586 -1.8421
 5394TIP3    H216189   3.810   3.345   4.069 -1.8430  1.2094  0.0199
 5395TIP3   OH216190   5.929   0.756   3.696  0.2519 -0.3819  0.2353
 5395TIP3    H116191   6.009   0.703   3.697  2.2577  2.4072 -0.2954
 5395TIP3    H216192   5.873   0.714   3.631  1.8005 -1.7460 -0.2733
 5396TIP3   OH216193   0.299   1.114   0.019 -0.4728 -0.6181 -0.4533
 5396TIP3    H116194   0.389   1.084   0.027 -0.6067 -1.4948 -1.9067
 5396TIP3    H216195   0.305   1.209   0.026  0.4771 -0.7146  0.1472
 5397TIP3   OH216196   0.676   1.573   4.998  0.2254  0.3886  0.2954
 5397TIP3    H116197   0.637   1.579   4.911  1.3041  0.7385 -0.1797
 5397TIP3    H216198   0.699   1.664   5.021  0.9860  0.1691  0.4443
 5398TIP3   OH216199   3.820   5.051   0.582  0.2992  0.2299  0.5094
 5398TIP3    H116200   3.800   5.014   0.668 -1.0348 -0.4384 -0.0485
 5398TIP3    H216201   3.767   5.131   0.577 -0.5785 -0.3777 -0.1432
 5399TIP3   OH216202   5.563   2.532   2.019  0.6113 -0.2329  0.5591
 5399TIP3    H116203   5.601   2.481   2.091  1.2157 -1.3828 -0.5342
 5399TIP3    H216204   5.619   2.514   1.944 -0.0296  0.9025 -0.2288
 5400TIP3   OH216205   5.546   0.672   3.179  0.2217 -0.3275 -0.4182
 5400TIP3    H116206   5.451   0.683   3.174  0.0281 -2.0248 -1.1955
 5400TIP3    H216207   5.577   0.684   3.089  0.8938  1.1879 -0.0150
 5401TIP3   OH216208   4.093   3.259   3.612 -0.2352 -0.3777 -0.1277
 5401TIP3    H116209   4.099   3.192   3.544  2.2474 -1.8799  1.4036
 5401TIP3    H216210   4.135   3.336   3.573 -0.4796 -0.6166 -0.8950
 5402TIP3   OH216211   3.753   0.514   0.384 -0.2208  0.4591 -0.4846
 5402TIP3    H116212   3.675   0.463   0.405 -0.1923  0.2178 -0.9428
 5402TIP3    H216213   3.824   0.450   0.379 -0.0855  0.6115 -0.5418
 5403TIP3   OH216214   2.808   1.108   0.638  0.2832 -0.7817 -0.1294
 5403TIP3    H116215   2.757   1.043   0.684 -1.5724  1.1298  0.6837
 5403TIP3    H216216   2.829   1.174   0.704  1.2970 -0.0674 -1.1063
 5404TIP3   OH216217   3.122   2.957   2.181 -0.0166  0.0728  0.4046
 5404TIP3    H116218   3.153   2.886   2.237  4.3174  0.1380 -1.5237
 5404TIP3    H216219   3.112   2.917   2.094  1.5100  1.5306 -0.4922
 5405TIP3   OH216220   0.701   3.725   3.445 -0.0386 -0.0614  0.3744
 5405TIP3    H116221   0.785   3.698   3.408  0.2723 -2.5124  2.6410
 5405TIP3    H216222   0.723   3.778   3.521 -0.5473 -0.2991  0.6944
 5406TIP3   OH216223   0.983   2.729   1.004 -0.3143  0.3704  0.0487
 5406TIP3    H116224   1.014   2.742   1.093 -0.1958 -1.2750  0.2742
 5406TIP3    H216225   0.893   2.697   1.013 -0.1184 -0.3356 -0.3788
 5407TIP3   OH216226   2.075   3.528   3.122  0.1178  0.3019  0.6197
 5407TIP3    H116227   2.120   3.454   3.161 -1.3218 -0.8765  0.1394
 5407TIP3    H216228   2.142   3.596   3.114  1.8954 -1.4786 -0.4086
 5408TIP3   OH216229   1.541   2.065   2.551  0.4120 -1.0486 -0.1805
 5408TIP3    H116230   1.602   2.027   2.487  2.3481  0.6709  0.5572
 5408TIP3    H216231   1.562   2.158   2.553 -0.8490 -0.7448  1.6235
 5409TIP3   OH216232   6.307   4.307   1.736 -0.3040  0.1123 -0.0474
 5409TIP3    H116233   6.252   4.381   1.759  0.1847  1.7352 -3.4883
 5409TIP3    H216234   6.396   4.342   1.735  0.1058 -0.8923 -0.3193
 5410TIP3   OH216235   4.743   2.629   3.059  0.3055 -0.1331  0.7070
 5410TIP3    H116236   4.792   2.563   3.011 -2.3603 -2.1224  0.5016
 5410TIP3    H216237   4.761   2.711   3.013  2.2632 -0.9987 -0.1664
 5411TIP3   OH216238   1.210   1.637   2.567 -0.6914 -0.0222 -0.2792
 5411TIP3    H116239   1.174   1.569   2.510 -0.9189 -0.7299  0.6853
 5411TIP3    H216240   1.270   1.591   2.626  1.4095  1.0456 -1.4668
 5412TIP3   OH216241   1.321   1.909   1.852  0.1452  0.0127 -0.0514
 5412TIP3    H116242   1.352   1.982   1.906 -1.0871  0.3391  0.2274
 5412TIP3    H216243   1.294   1.950   1.770  0.5710 -0.2907 -0.3475
 5413TIP3   OH216244   2.817   5.469   4.925  0.1680  0.0638 -0.2892
 5413TIP3    H116245   2.749   5.447   4.862  1.0181  1.2502 -1.6687
 5413TIP3    H216246   2.850   5.554   4.897  1.2927  0.1459  1.1536
 5414TIP3   OH216247   5.802   5.424   4.174  0.5485  0.0920 -0.2019
 5414TIP3    H116248   5.834   5.454   4.259 -0.0965  0.3312 -0.0410
 5414TIP3    H216249   5.708   5.441   4.176  0.6794  1.0232 -1.3489
 5415TIP3   OH216250   1.839   4.576   2.779 -0.5578 -0.1638 -0.0489
 5415TIP3    H116251   1.905   4.524   2.734 -0.0639 -0.1341  0.6149
 5415TIP3    H216252   1.762   4.573   2.723 -0.6418 -1.8620  0.1328
 5416TIP3   OH216253   0.486   5.027   4.647 -0.2234  0.5420 -0.4992
 5416TIP3    H116254   0.432   5.092   4.692 -1.9821 -0.9619 -0.3019
 5416TIP3    H216255   0.447   5.020   4.560 -0.0636 -0.2344 -0.5165
 5417TIP3   OH216256   4.477   5.944   4.610  0.3375  0.2871 -0.2592
 5417TIP3    H116257   4.390   5.940   4.651  0.6851  0.9219  0.5634
 5417TIP3    H216258   4.460   5.976   4.521 -0.2693  0.3756 -0.1140
 5418TIP3   OH216259   4.349   0.671   2.669  0.3264 -0.7229 -0.2802
 5418TIP3    H116260   4.429   0.625   2.644  0.8276 -0.7431  1.2750
 5418TIP3    H216261   4.356   0.683   2.763 -0.9837  0.2985 -0.2771
 5419TIP3   OH216262   6.161   0.721   4.446 -0.4354  0.2180 -0.0703
 5419TIP3    H116263   6.139   0.813   4.464 -0.1972  0.5668 -1.4735
 5419TIP3    H216264   6.201   0.722   4.359  0.5716 -1.0802  0.3461
 5420TIP3   OH216265   4.243   2.691   1.494 -0.1015 -0.0262  0.0149
 5420TIP3    H116266   4.207   2.632   1.559 -0.4531  1.0285  0.8041
 5420TIP3    H216267   4.318   2.732   1.538  1.7032 -1.6445 -1.3401
 5421TIP3   OH216268   1.643   0.865   0.319 -0.2982 -0.2772  0.6828
 5421TIP3    H116269   1.553   0.864   0.352 -0.5430 -1.3821  0.0398
 5421TIP3    H216270   1.697   0.849   0.396 -0.7655 -1.2894  0.8138
 5422TIP3   OH216271   1.473   4.389   2.537 -0.1967  0.0533 -0.1674
 5422TIP3    H116272   1.476   4.393   2.633 -1.4553 -0.2789 -0.0947
 5422TIP3    H216273   1.529   4.461   2.509 -0.3345  0.5785  0.8351
 5423TIP3   OH216274   3.463   4.766   4.746  0.3150 -0.3801 -0.5548
 5423TIP3    H116275   3.501   4.741   4.661  0.0443 -1.3034 -0.4171
 5423TIP3    H216276   3.493   4.699   4.807  0.6703  0.3897  0.1380
 5424TIP3   OH216277   3.781   2.079   0.855  0.0423 -0.7229 -0.4078
 5424TIP3    H116278   3.857   2.022   0.844  0.7248 -0.0076  0.4506
 5424TIP3    H216279   3.715   2.041   0.797  0.5958 -2.1632 -0.1627
 5425TIP3   OH216280   5.829   5.551   0.275  0.4653 -0.1129 -0.9612
 5425TIP3    H116281   5.918   5.572   0.246  0.4970  0.4858 -0.4547
 5425TIP3    H216282   5.840   5.525   0.366 -0.0250  1.1796 -0.5149
 5426TIP3   OH216283   3.147   4.951   3.387  0.1012  0.3337 -0.3882
 5426TIP3    H116284   3.127   4.858   3.386 -0.9486  0.4929  1.3568
 5426TIP3    H216285   3.243   4.956   3.387  0.1686 -0.6953 -1.5167
 5427TIP3   OH216286   1.964   2.681   1.898  0.3105  0.4824  0.0428
 5427TIP3    H116287   1.991   2.679   1.806 -0.8009 -1.4524 -0.2916
 5427TIP3    H216288   1.881   2.634   1.900  0.0469  0.9197  1.9848
 5428TIP3   OH216289   1.090   4.084   2.646 -0.1186  0.2111  0.1267
 5428TIP3    H116290   1.007   4.097   2.692 -0.9757  0.8630 -1.5122
 5428TIP3    H216291   1.102   3.989   2.644 -0.9277  0.1006  0.2249
 5429TIP3   OH216292   3.354   4.910   4.989 -0.3322 -0.1101 -0.2729
 5429TIP3    H116293   3.443   4.937   5.013 -0.6801  1.4869 -0.6840
 5429TIP3    H216294   3.366   4.847   4.919  0.4646  0.6930 -0.8792
 5430TIP3   OH216295   4.444   0.278   3.433  0.4750 -0.0903  0.2572
 5430TIP3    H116296   4.480   0.306   3.349  0.2940  1.8402  0.7930
 5430TIP3    H216297   4.447   0.355   3.489 -4.1506  0.2593  0.4642
 5431TIP3   OH216298   1.416   2.301   3.093  0.2323  0.2383  0.1445
 5431TIP3    H116299   1.483   2.312   3.160  0.3779  2.0170 -0.2458
 5431TIP3    H216300   1.361   2.379   3.100 -0.8499 -0.4214 -0.5993
 5432TIP3   OH216301   6.093   0.150   4.321 -0.2570 -0.1811  0.1366
 5432TIP3    H116302   6.048   0.204   4.255 -1.3868  0.7151  1.5902
 5432TIP3    H216303   6.186   0.158   4.298 -0.6679 -0.5954 -1.8435
 5433TIP3   OH216304   2.016   5.873   2.699  0.4582  0.1557 -0.3250
 5433TIP3    H116305   1.929   5.894   2.667 -0.7032  0.4087  2.7025
 5433TIP3    H216306   2.010   5.781   2.726  0.5745  0.6608  1.4919
 5434TIP3   OH216307   1.746   2.976   0.514 -0.2759 -0.6434 -0.1426
 5434TIP3    H116308   1.824   2.945   0.469 -0.6211 -0.1120 -1.1390
 5434TIP3    H216309   1.769   2.972   0.607  1.0040 -0.3321 -0.4199
 5435TIP3   OH216310   5.023   1.207   3.864  0.3058 -0.0779  0.5566
 5435TIP3    H116311   5.054   1.297   3.876 -1.4446  0.4906  0.9999
 5435TIP3    H216312   4.928   1.213   3.862  0.1793 -1.6561 -1.8449
 5436TIP3   OH216313   2.807   4.017   0.130  0.2417  0.4102 -0.6079
 5436TIP3    H116314   2.783   4.105   0.101 -3.8802 -0.0457  0.7251
 5436TIP3    H216315   2.808   3.964   0.050 -3.2527  0.6473 -0.9633
 5437TIP3   OH216316   6.287   3.346   3.187 -0.1542  0.5075 -0.5502
 5437TIP3    H116317   6.347   3.395   3.244 -0.3622 -0.4380  0.5022
 5437TIP3    H216318   6.299   3.386   3.100  1.8737  0.4635 -0.3456
 5438TIP3   OH216319   1.400   3.577   5.022 -0.2739 -0.6678  0.3197
 5438TIP3    H116320   1.438   3.528   4.950 -0.4679  0.7470 -0.7882
 5438TIP3    H216321   1.419   3.668   5.002 -2.0833 -0.0917  1.0094
 5439TIP3   OH216322   3.836   2.044   3.777 -0.4345  0.8847 -0.3908
 5439TIP3    H116323   3.859   2.075   3.865  2.1626  0.4416 -0.8406
 5439TIP3    H216324   3.798   1.958   3.792  2.8966 -0.6403  0.2347
 5440TIP3   OH216325   3.418   3.378   4.064 -0.2267  0.0972 -0.5330
 5440TIP3    H116326   3.502   3.348   4.029  1.0551  1.0850  1.4739
 5440TIP3    H216327   3.365   3.397   3.987  2.3034  1.9484 -1.9927
 5441TIP3   OH216328   4.060   0.573   2.880 -0.0263  0.5675  0.3359
 5441TIP3    H116329   4.044   0.589   2.973  0.2138 -0.0904  0.4943
 5441TIP3    H216330   4.093   0.483   2.876  1.2772  1.0529 -0.2472
 5442TIP3   OH216331   3.730   3.684   1.380 -0.9382 -0.4513  0.7748
 5442TIP3    H116332   3.692   3.734   1.452 -2.5492 -1.4376  0.6530
 5442TIP3    H216333   3.726   3.593   1.409 -2.2840 -0.9440 -0.7979
 5443TIP3   OH216334   1.072   2.433   2.478 -0.2818 -0.3782  0.5000
 5443TIP3    H116335   1.121   2.493   2.422  0.1181 -1.4019 -0.2776
 5443TIP3    H216336   1.097   2.458   2.567 -0.2537  0.7018  0.2066
 5444TIP3   OH216337   3.933   5.083   0.176 -0.4672 -0.0895  0.4716
 5444TIP3    H116338   3.890   5.147   0.232 -0.0667 -0.7513  1.5488
 5444TIP3    H216339   3.875   5.007   0.177  0.4654 -0.8191  1.5726
 5445TIP3   OH216340   0.833   1.592   4.529 -0.5570  0.1309 -1.4057
 5445TIP3    H116341   0.742   1.621   4.535  0.0955  1.9788  2.2492
 5445TIP3    H216342   0.837   1.513   4.583  0.2166  0.8811 -0.3196
 5446TIP3   OH216343   0.949   5.098   0.090 -0.4320  0.6103  0.1570
 5446TIP3    H116344   0.895   5.035   0.137  0.3134  0.8284  1.3290
 5446TIP3    H216345   1.023   5.115   0.148  0.1527  1.4244 -0.7933
 5447TIP3   OH216346   2.128   0.261   2.507 -0.3494 -0.7432 -0.0565
 5447TIP3    H116347   2.088   0.303   2.583  0.1516  0.5522 -0.4813
 5447TIP3    H216348   2.055   0.222   2.460 -0.9197  0.1532  0.0566
 5448TIP3   OH216349   3.131   5.558   5.144 -0.1003 -0.0649  0.1099
 5448TIP3    H116350   3.196   5.566   5.213 -0.1348 -0.6008  0.2109
 5448TIP3    H216351   3.071   5.631   5.158  0.3876  0.3368  0.1127
 5449TIP3   OH216352   0.684   2.660   1.743  0.2299  0.8277 -0.4719
 5449TIP3    H116353   0.616   2.719   1.775 -0.1958 -0.2170  0.6714
 5449TIP3    H216354   0.635   2.593   1.694  0.2952 -0.3420  0.9808
 5450TIP3   OH216355   5.456   1.060   4.112  0.7435  0.0157  0.1161
 5450TIP3    H116356   5.369   1.040   4.079  0.3819 -0.2916  1.2003
 5450TIP3    H216357   5.516   1.018   4.051  0.1123 -0.2636 -0.3204
 5451TIP3   OH216358   5.370   3.816   4.257 -0.2027 -0.0922  0.5208
 5451TIP3    H116359   5.437   3.789   4.194 -0.5027  0.0592  0.1306
 5451TIP3    H216360   5.396   3.903   4.284 -1.7132  1.1808 -1.7739
 5452TIP3   OH216361   0.413   5.913   1.344 -0.0238  0.6160  0.0385
 5452TIP3    H116362   0.362   5.833   1.329  0.6694  0.3394 -0.9856
 5452TIP3    H216363   0.476   5.888   1.413 -0.1840  0.4593  0.1304
 5453TIP3   OH216364  -0.002   4.081   2.408 -0.1963 -0.1511 -0.3908
 5453TIP3    H116365   0.059   4.008   2.411 -1.8272 -1.6795 -2.1361
 5453TIP3    H216366   0.045   4.149   2.359  0.6641 -0.6979 -0.3513
 5454TIP3   OH216367   2.023   3.835   0.368  0.0240 -0.1199 -0.2063
 5454TIP3    H116368   2.008   3.930   0.370  0.6550 -0.0209 -0.0360
 5454TIP3    H216369   2.110   3.824   0.407  0.1411 -0.7332 -0.6431
 5455TIP3   OH216370   5.708   5.503   5.151 -0.0474 -0.4293  0.2602
 5455TIP3    H116371   5.632   5.484   5.097  0.3931  0.2879 -0.6377
 5455TIP3    H216372   5.763   5.425   5.143 -0.4008 -0.6982  0.4209
 5456TIP3   OH216373   0.399   1.068   3.287  0.3960 -0.3170  0.7293
 5456TIP3    H116374   0.353   0.997   3.241 -1.2472  0.6545  0.8026
 5456TIP3    H216375   0.451   1.023   3.354  1.6609 -1.6478 -1.0471
 5457TIP3   OH216376   4.251   4.147   3.214 -0.2969  0.1738  0.9064
 5457TIP3    H116377   4.289   4.059   3.221 -1.8767 -0.5670  0.7577
 5457TIP3    H216378   4.247   4.179   3.304 -0.8517 -0.4396  1.1109
 5458TIP3   OH216379   4.528   0.456   1.313  0.4594  0.0431  0.1133
 5458TIP3    H116380   4.606   0.419   1.354  0.1922 -1.2472 -0.4893
 5458TIP3    H216381   4.561   0.509   1.240  0.7975  0.0606  0.2797
 5459TIP3   OH216382   2.936   5.699   3.419  0.6347 -0.0471  0.5380
 5459TIP3    H116383   2.985   5.778   3.395 -1.4693  0.9242 -0.8914
 5459TIP3    H216384   2.906   5.715   3.508  0.8997  0.4213  0.5484
 5460TIP3   OH216385   4.442   2.545   2.486  0.0905  0.4929  0.2710
 5460TIP3    H116386   4.499   2.607   2.441 -0.8926 -0.1392 -2.0134
 5460TIP3    H216387   4.378   2.599   2.532  1.1503  1.1651  0.9933
 5461TIP3   OH216388   3.856   4.038   0.840 -0.4244 -0.0135 -0.6661
 5461TIP3    H116389   3.775   3.997   0.808 -0.2258 -1.3861  0.4792
 5461TIP3    H216390   3.926   3.995   0.790 -0.2679 -0.5356 -0.0161
 5462TIP3   OH216391   2.938   4.485   2.888 -0.6810 -0.0360 -0.0530
 5462TIP3    H116392   2.961   4.411   2.945  0.0700  1.3675  1.5605
 5462TIP3    H216393   2.890   4.545   2.945  1.7427  2.3101 -0.2651
 5463TIP3   OH216394   1.964   2.799   5.047 -0.4663  0.3115 -0.0252
 5463TIP3    H116395   1.918   2.851   4.982  0.4823 -0.7159 -1.5818
 5463TIP3    H216396   1.948   2.844   5.130 -1.2730  1.9480 -1.0293
 5464TIP3   OH216397   4.706   3.929   0.850 -0.5465 -0.2949 -0.1144
 5464TIP3    H116398   4.765   3.955   0.920  0.5969 -0.6343 -0.9108
 5464TIP3    H216399   4.760   3.933   0.771 -1.8829  0.3824 -1.0244
 5465TIP3   OH216400   3.528   1.008   4.956  0.2215  0.0121  0.4081
 5465TIP3    H116401   3.560   0.919   4.950  0.8934  0.2847 -0.1789
 5465TIP3    H216402   3.587   1.051   5.019  0.6541  0.3594 -0.2293
 5466TIP3   OH216403   1.160   3.932   4.884  0.3798 -0.0070 -0.3697
 5466TIP3    H116404   1.168   3.959   4.975 -1.5514  1.0667 -0.4636
 5466TIP3    H216405   1.238   3.967   4.841  0.7812  0.3811  0.6522
 5467TIP3   OH216406   1.011   0.960   2.983 -0.3472 -0.0921 -0.3222
 5467TIP3    H116407   0.962   0.881   3.003  0.9549 -0.4401  1.8104
 5467TIP3    H216408   1.073   0.934   2.915  0.6803 -1.2037  0.9853
 5468TIP3   OH216409   6.088   3.966   1.817 -0.1192 -0.6452 -0.6853
 5468TIP3    H116410   6.094   3.887   1.871 -1.9275  0.1700  0.8234
 5468TIP3    H216411   6.021   4.019   1.859  2.3510  2.6242 -0.4684
 5469TIP3   OH216412   4.539   5.723   0.523 -0.0605 -0.0560 -0.4907
 5469TIP3    H116413   4.552   5.719   0.618  1.0098  0.3251 -0.6133
 5469TIP3    H216414   4.617   5.766   0.489 -0.6236  0.2061 -1.5138
 5470TIP3   OH216415   4.965   2.538   4.215 -0.3047  1.0706  0.0763
 5470TIP3    H116416   4.917   2.596   4.275  1.3463  1.6420  0.9116
 5470TIP3    H216417   5.040   2.591   4.187  1.1016 -0.5402  0.6393
 5471TIP3   OH216418   6.124   5.026   1.553 -0.4606  0.2778 -0.6813
 5471TIP3    H116419   6.063   5.085   1.599 -1.2860 -0.3281 -0.9747
 5471TIP3    H216420   6.204   5.077   1.545 -0.8890  1.0628 -0.1875
 5472TIP3   OH216421   5.297   4.129   3.627  0.2570  0.2244 -0.4409
 5472TIP3    H116422   5.357   4.056   3.641  0.3301  0.3928  0.1908
 5472TIP3    H216423   5.284   4.132   3.532  0.5568 -0.3607 -0.5062
 5473TIP3   OH216424   2.743   0.683   0.204  0.0625  0.8987 -0.1224
 5473TIP3    H116425   2.766   0.765   0.248 -0.0968  0.6946  0.3456
 5473TIP3    H216426   2.690   0.710   0.129  0.4075  1.2538 -0.2420
 5474TIP3   OH216427   2.762   5.978   2.292 -0.0543 -0.5444 -0.0736
 5474TIP3    H116428   2.741   5.918   2.364 -0.3011 -0.0019  0.3113
 5474TIP3    H216429   2.817   5.926   2.233  1.5996 -0.4772  1.3477
 5475TIP3   OH216430   3.842   3.334   4.520 -0.1901  0.1106  0.2799
 5475TIP3    H116431   3.768   3.336   4.580  0.2194  0.2520  0.7867
 5475TIP3    H216432   3.808   3.370   4.438 -0.2243  1.8523  1.0238
 5476TIP3   OH216433   2.474   5.382   3.371  0.2971  0.4882  0.1307
 5476TIP3    H116434   2.510   5.355   3.455  0.8083 -0.7150 -0.4435
 5476TIP3    H216435   2.424   5.461   3.390 -0.2419 -0.1972  1.6964
 5477TIP3   OH216436   0.415   5.927   2.774 -0.4717  0.9412 -0.4858
 5477TIP3    H116437   0.507   5.930   2.798 -0.9498 -0.0579  1.7612
 5477TIP3    H216438   0.410   5.865   2.702  0.3669 -0.9638  1.0050
 5478TIP3   OH216439   0.657   3.763   2.633 -0.3313  0.0435 -0.4467
 5478TIP3    H116440   0.651   3.758   2.538 -1.6417 -0.1794 -0.3714
 5478TIP3    H216441   0.653   3.856   2.652 -1.2415  0.0326 -0.5572
 5479TIP3   OH216442   5.852   5.888   4.520 -0.2617  0.2434  0.5802
 5479TIP3    H116443   5.911   5.818   4.548 -0.5474 -0.4357 -0.4793
 5479TIP3    H216444   5.910   5.961   4.500  0.3868 -0.7765 -1.5613
 5480TIP3   OH216445   4.283   0.909   3.099 -0.2328  0.2447 -0.3198
 5480TIP3    H116446   4.196   0.921   3.060 -0.8073 -0.8784  0.5651
 5480TIP3    H216447   4.321   0.997   3.100 -2.1339  1.1047  1.0552
 5481TIP3   OH216448   3.095  -0.015   0.905 -0.2453  0.0240 -0.5322
 5481TIP3    H116449   3.014   0.024   0.873  0.9510  3.0325 -0.1942
 5481TIP3    H216450   3.123   0.042   0.977  1.7530 -1.3943 -0.0776
 5482TIP3   OH216451   3.047   3.642   2.131  0.0274  0.2691  0.1609
 5482TIP3    H116452   3.073   3.732   2.151 -0.3337  0.1485  1.2691
 5482TIP3    H216453   3.125   3.590   2.153 -0.7223  0.0103  2.5656
 5483TIP3   OH216454   1.333   2.086   1.626  0.4338  0.3625 -0.0210
 5483TIP3    H116455   1.344   2.179   1.605  2.2033 -0.0698 -1.2692
 5483TIP3    H216456   1.268   2.055   1.564  0.8729  0.4712 -0.5384
 5484TIP3   OH216457   1.852   4.381   2.519 -0.2388  0.4222 -0.0708
 5484TIP3    H116458   1.796   4.457   2.530 -0.3149  0.2580  0.6788
 5484TIP3    H216459   1.837   4.328   2.597 -0.0310 -0.2622 -0.4840
 5485TIP3   OH216460   2.434   2.226   4.991 -0.3378 -0.1952 -0.7640
 5485TIP3    H116461   2.429   2.130   4.986  2.0432 -0.4688  0.5455
 5485TIP3    H216462   2.345   2.255   4.974 -1.2992 -2.6828 -0.4745
 5486TIP3   OH216463   6.106   5.619   0.235  0.1957  0.4644  0.0284
 5486TIP3    H116464   6.181   5.593   0.182  0.3450  2.8593 -1.0713
 5486TIP3    H216465   6.140   5.626   0.324 -0.2271 -4.3444  0.8466
 5487TIP3   OH216466   4.703   5.116   2.811 -0.5483 -0.4079  0.1323
 5487TIP3    H116467   4.724   5.032   2.771 -1.5627 -0.3337 -0.5857
 5487TIP3    H216468   4.788   5.160   2.820 -0.3776  0.1966 -3.3401
 5488TIP3   OH216469   4.781   1.008   4.916 -0.1109  0.3379  0.0530
 5488TIP3    H116470   4.685   0.999   4.920  0.0087 -1.0169  0.4972
 5488TIP3    H216471   4.812   0.920   4.892  0.9883  0.9783 -0.9394
 5489TIP3   OH216472   1.004   4.265   1.784  0.3494 -0.1050  0.0805
 5489TIP3    H116473   1.088   4.284   1.824  0.5973 -2.2486  0.6770
 5489TIP3    H216474   1.025   4.216   1.705 -0.3064  0.1177 -0.2414
 5490TIP3   OH216475   4.454   3.464   4.579 -0.1614  0.2940  0.1927
 5490TIP3    H116476   4.534   3.484   4.628  0.1723 -0.5552  0.0109
 5490TIP3    H216477   4.398   3.540   4.593  0.4276  0.6210  0.8482
 5491TIP3   OH216478   0.883   4.799   4.910  0.0650 -0.5004  0.1216
 5491TIP3    H116479   0.852   4.779   4.821  1.4931  1.5537 -0.9273
 5491TIP3    H216480   0.973   4.769   4.912  0.9718  1.9449 -0.1785
 5492TIP3   OH216481   0.031   0.582   3.116  0.4589 -0.0976 -0.0882
 5492TIP3    H116482   0.016   0.666   3.071 -0.6588 -0.6045 -0.7252
 5492TIP3    H216483   0.116   0.553   3.085  2.3801  2.2301  2.5106
 5493TIP3   OH216484   5.268   2.786   3.295 -0.0782 -0.3917  0.0043
 5493TIP3    H116485   5.309   2.858   3.247  2.3260 -3.1482 -2.4935
 5493TIP3    H216486   5.337   2.752   3.352 -0.3908 -2.0446 -0.5306
 5494TIP3   OH216487   2.738   3.374   4.397  0.0017 -0.2932  0.4848
 5494TIP3    H116488   2.819   3.327   4.375  1.2085  2.3777 -1.1814
 5494TIP3    H216489   2.670   3.327   4.349  1.0604 -0.7715 -0.6078
 5495TIP3   OH216490   3.453   4.502   1.006  0.1435  0.0116 -0.2794
 5495TIP3    H116491   3.373   4.533   1.048 -0.2238 -2.0714  0.6736
 5495TIP3    H216492   3.422   4.452   0.930  0.3768 -2.0846  0.9289
 5496TIP3   OH216493   5.516   3.673   2.641  0.0752 -0.0234  0.3854
 5496TIP3    H116494   5.594   3.639   2.685 -0.2779  0.5403  1.4858
 5496TIP3    H216495   5.443   3.631   2.686 -0.3248  1.3007  1.0079
 5497TIP3   OH216496   3.317   3.697   3.048 -0.0460 -0.8097  0.5588
 5497TIP3    H116497   3.340   3.685   3.140 -1.3900 -0.7107  0.9309
 5497TIP3    H216498   3.221   3.701   3.048 -0.0087  1.5988 -0.5382
 5498TIP3   OH216499   1.792   0.611   3.447  0.3147  0.0159 -0.0873
 5498TIP3    H116500   1.750   0.663   3.378  2.0216  0.8311 -0.5726
 5498TIP3    H216501   1.721   0.559   3.485 -1.4505  2.4707  0.2252
 5499TIP3   OH216502   3.236   5.651   3.999  0.2761 -0.1266 -0.0018
 5499TIP3    H116503   3.181   5.715   3.954  0.4460  1.6062  2.1244
 5499TIP3    H216504   3.325   5.685   3.989  0.3424  0.1335  1.3587
 5500TIP3   OH216505   5.176   4.990   0.892  0.3550 -0.1147 -0.2361
 5500TIP3    H116506   5.243   5.005   0.824  0.6675 -0.1111  0.0698
 5500TIP3    H216507   5.093   5.006   0.847  0.6201  3.0994  0.1586
 5501TIP3   OH216508   0.884   2.962   1.837 -0.2339  0.1149 -0.6034
 5501TIP3    H116509   0.885   3.029   1.905  0.2280  0.1307 -0.6227
 5501TIP3    H216510   0.954   2.988   1.777  0.8754 -1.1061  0.0870
 5502TIP3   OH216511   4.357   2.685   3.215  0.7087 -0.2105  0.1651
 5502TIP3    H116512   4.274   2.716   3.180  2.2142  1.7141 -1.9818
 5502TIP3    H216513   4.364   2.728   3.301 -0.3222 -0.1233  0.2245
 5503TIP3   OH216514   2.469   4.921   0.774 -0.1251  0.2150 -0.5297
 5503TIP3    H116515   2.466   5.016   0.765 -0.9016  0.1345 -1.2135
 5503TIP3    H216516   2.562   4.901   0.786  0.0072  1.0811 -0.0323
 5504TIP3   OH216517   1.046   5.027   4.787 -0.1045 -0.4418 -0.1176
 5504TIP3    H116518   0.973   4.969   4.766 -0.9316  0.3726  0.4462
 5504TIP3    H216519   1.018   5.074   4.866  1.3112 -0.6148  0.5263
 5505TIP3   OH216520   2.211   1.679   3.308 -0.2505  0.2935 -0.3155
 5505TIP3    H116521   2.268   1.605   3.286  0.8192  0.3905  1.8622
 5505TIP3    H216522   2.246   1.753   3.258  0.5508 -0.0253 -0.2367
 5506TIP3   OH216523   0.044   5.791   2.280  0.2818 -0.3722 -0.1037
 5506TIP3    H116524  -0.010   5.716   2.256 -0.7299  0.8579 -1.8738
 5506TIP3    H216525   0.065   5.776   2.372 -0.8449 -2.2380 -0.0907
 5507TIP3   OH216526   2.220   3.260   2.852  0.2515  0.1609  0.4157
 5507TIP3    H116527   2.310   3.237   2.831 -0.1188 -1.7933  0.7511
 5507TIP3    H216528   2.174   3.176   2.855 -1.2278  0.9600  1.8641
 5508TIP3   OH216529   3.416   0.310   4.061 -0.3119 -0.5159 -0.3863
 5508TIP3    H116530   3.389   0.219   4.068 -0.4460 -0.4390  0.2137
 5508TIP3    H216531   3.508   0.309   4.088 -0.4467 -0.4107  0.0919
 5509TIP3   OH216532   6.119   5.284   0.269  0.6578  0.0683 -0.3004
 5509TIP3    H116533   6.121   5.281   0.173  1.5251 -1.3624 -0.2657
 5509TIP3    H216534   6.211   5.281   0.295  0.4063 -0.1661  0.5819
 5510TIP3   OH216535   5.862   3.302   0.111 -0.1395 -0.5578  0.4465
 5510TIP3    H116536   5.939   3.245   0.115  0.3991  0.2153  1.4668
 5510TIP3    H216537   5.895   3.388   0.138 -0.7504  0.4634 -1.8276
 5511TIP3   OH216538   4.451   5.508   5.148  0.1464  0.1947  0.4982
 5511TIP3    H116539   4.515   5.524   5.080  0.3866 -1.4217  0.3114
 5511TIP3    H216540   4.502   5.474   5.222 -0.0837  2.0397  1.5929
 5512TIP3   OH216541   1.136   1.353   0.099  0.2985  0.3307  0.0317
 5512TIP3    H116542   1.061   1.348   0.040  0.4734  0.0674 -0.1731
 5512TIP3    H216543   1.132   1.441   0.136  1.4312  1.3160 -2.0210
 5513TIP3   OH216544   5.485   5.032   2.417 -0.0763  0.4418  0.2022
 5513TIP3    H116545   5.399   5.036   2.377 -0.2264  1.8186  0.5963
 5513TIP3    H216546   5.531   5.109   2.383  0.8158  0.0206  0.4123
 5514TIP3   OH216547   5.804   5.662   0.817  0.1562 -0.2886  0.0131
 5514TIP3    H116548   5.863   5.655   0.892  0.6354  0.8207 -0.2369
 5514TIP3    H216549   5.718   5.637   0.851  0.7664 -2.0100  0.3647
 5515TIP3   OH216550   0.972   2.295   4.469  0.4277  0.2534 -0.0080
 5515TIP3    H116551   0.967   2.381   4.427  0.7443 -0.0750 -0.7302
 5515TIP3    H216552   1.057   2.295   4.513  0.6133  0.1547 -0.3629
 5516TIP3   OH216553   5.330   4.575   2.962 -0.1430 -0.2731  0.5930
 5516TIP3    H116554   5.281   4.527   2.895 -0.1315  1.3716 -0.6428
 5516TIP3    H216555   5.407   4.521   2.979 -0.4141 -0.9769 -0.3240
 5517TIP3   OH216556   4.493   0.528   4.486  0.0945 -0.2003 -0.6765
 5517TIP3    H116557   4.430   0.556   4.553 -0.8205  0.7515 -1.8815
 5517TIP3    H216558   4.490   0.432   4.489 -0.2660 -0.1682  0.3320
 5518TIP3   OH216559   4.824   0.758   2.178  0.4873  0.2251  0.2485
 5518TIP3    H116560   4.898   0.789   2.126  0.5285 -0.7341 -0.3082
 5518TIP3    H216561   4.748   0.768   2.119  0.2040  0.9887  0.7315
 5519TIP3   OH216562   0.217   0.562   2.094 -0.5152 -0.3837  0.2085
 5519TIP3    H116563   0.238   0.473   2.121 -0.4111 -0.3806  0.1412
 5519TIP3    H216564   0.241   0.616   2.169  1.3237 -0.1952 -0.4459
 5520TIP3   OH216565   3.470   3.906   2.190 -0.0046 -0.3996  0.0631
 5520TIP3    H116566   3.476   3.876   2.281 -1.0628 -0.7085  0.0387
 5520TIP3    H216567   3.433   3.832   2.142 -2.2304  0.7406 -0.0757
 5521TIP3   OH216568   4.999   3.731   3.314 -0.2192 -0.5836  0.6564
 5521TIP3    H116569   5.077   3.681   3.336  0.7874  0.7398  0.2471
 5521TIP3    H216570   4.992   3.796   3.384  0.5126  0.8835 -0.5643
 5522TIP3   OH216571   3.078   1.963   1.847  0.1108  0.3779  0.1432
 5522TIP3    H116572   3.153   2.012   1.881  1.8131 -2.0490  0.1348
 5522TIP3    H216573   3.108   1.929   1.763 -1.7342  0.9271 -0.7864
 5523TIP3   OH216574   5.374   4.749   3.184 -0.1680 -0.7740 -0.1180
 5523TIP3    H116575   5.356   4.675   3.125 -0.8368 -1.3747  0.8140
 5523TIP3    H216576   5.463   4.733   3.216 -1.1686 -2.6355  2.0510
 5524TIP3   OH216577   4.605   0.277   2.415 -0.3974  0.1408  0.8817
 5524TIP3    H116578   4.554   0.323   2.482 -1.0670 -0.0706  0.5271
 5524TIP3    H216579   4.575   0.186   2.420 -1.7698  0.4565 -0.8978
 5525TIP3   OH216580   5.720   3.858   2.204 -0.2325  0.1936 -0.1930
 5525TIP3    H116581   5.631   3.866   2.238 -1.2512  2.6729 -3.0309
 5525TIP3    H216582   5.776   3.879   2.278 -2.2026  3.0744  0.6304
 5526TIP3   OH216583   0.182   2.191   2.888 -0.5706  0.2686 -0.5983
 5526TIP3    H116584   0.253   2.127   2.891  0.1489  1.0625 -0.5810
 5526TIP3    H216585   0.133   2.176   2.969 -1.1575 -1.0787 -1.1558
 5527TIP3   OH216586   0.117   3.255   1.935  0.3991 -0.3842 -0.0227
 5527TIP3    H116587   0.064   3.192   1.984  0.9130 -0.6518  0.1909
 5527TIP3    H216588   0.205   3.247   1.972  0.7833 -0.5417 -0.9299
 5528TIP3   OH216589   4.367   4.475   3.257  0.4330  0.2100  0.6494
 5528TIP3    H116590   4.329   4.469   3.169 -1.1754 -0.8709  1.3778
 5528TIP3    H216591   4.461   4.460   3.243  0.1117 -0.7235 -0.8013
 5529TIP3   OH216592   0.779   3.146   1.180  0.6025 -0.2539  0.1814
 5529TIP3    H116593   0.781   3.232   1.138 -2.7740  0.3831  1.0718
 5529TIP3    H216594   0.702   3.102   1.144  1.0436 -2.0769  1.3132
 5530TIP3   OH216595   3.430   0.106   5.102  0.4399  0.3081 -0.2499
 5530TIP3    H116596   3.417   0.085   5.195 -0.5578  4.1297  0.6470
 5530TIP3    H216597   3.350   0.074   5.060  0.3891 -0.4592  0.4025
 5531TIP3   OH216598   2.912   2.202   4.181 -0.4821 -0.4700  0.2482
 5531TIP3    H116599   2.979   2.161   4.126  0.3073 -0.7504  1.3897
 5531TIP3    H216600   2.954   2.281   4.216 -1.1424 -0.0293  0.0770
 5532TIP3   OH216601   5.701   1.892   4.214 -0.5817  0.5644 -0.3269
 5532TIP3    H116602   5.667   1.836   4.285 -0.5681 -0.1211 -0.8469
 5532TIP3    H216603   5.753   1.958   4.259 -0.6122  0.1694  0.3110
 5533TIP3   OH216604   2.830   5.485   0.681 -0.4403 -0.0341 -0.0839
 5533TIP3    H116605   2.885   5.412   0.709 -0.8205  0.0299  0.8694
 5533TIP3    H216606   2.889   5.560   0.677 -0.4906  0.1037  1.2486
 5534TIP3   OH216607   3.930   4.023   4.181 -0.0468  0.3076 -0.5390
 5534TIP3    H116608   3.935   4.055   4.091  0.9130  1.2958 -0.1494
 5534TIP3    H216609   4.020   4.027   4.214  0.0825 -2.5341 -0.3420
 5535TIP3   OH216610   0.723   0.268   3.975 -0.9874  0.5390  0.0086
 5535TIP3    H116611   0.649   0.230   4.023 -0.5205 -0.7159 -0.2158
 5535TIP3    H216612   0.772   0.192   3.943  0.5356  1.3289  0.3537
 5536TIP3   OH216613   1.354   0.402   1.387 -0.1331  0.0113  0.2955
 5536TIP3    H116614   1.290   0.463   1.348 -0.4657  1.0842  2.3691
 5536TIP3    H216615   1.438   0.445   1.374  0.1690 -1.0817 -1.8309
 5537TIP3   OH216616   4.447   1.167   4.257 -0.1682  0.0794 -0.2770
 5537TIP3    H116617   4.481   1.254   4.278  1.6691 -0.8001  0.5460
 5537TIP3    H216618   4.524   1.114   4.237 -1.2741 -1.2851 -1.1532
 5538TIP3   OH216619   3.364   2.644   3.082 -0.3707  0.2201  0.0373
 5538TIP3    H116620   3.288   2.587   3.066 -0.0764  0.7183 -4.3255
 5538TIP3    H216621   3.433   2.583   3.107 -1.6975 -0.4328  2.4010
 5539TIP3   OH216622   5.536   0.929   2.400 -0.0197 -0.1502 -0.8008
 5539TIP3    H116623   5.550   0.959   2.489 -1.5349 -1.8586  0.0802
 5539TIP3    H216624   5.624   0.915   2.365  0.6039  1.2930  0.1159
 5540TIP3   OH216625   5.542   1.060   3.687 -0.6787 -0.4423  0.3733
 5540TIP3    H116626   5.625   1.071   3.733  0.2507 -1.1017 -1.0576
 5540TIP3    H216627   5.476   1.061   3.755  0.2783  2.2209  1.4090
 5541TIP3   OH216628   4.764   0.084   0.121 -0.2697  0.2338  0.4161
 5541TIP3    H116629   4.756   0.094   0.216 -1.9680  0.4386  0.2887
 5541TIP3    H216630   4.680   0.115   0.087  0.8528  1.5988 -1.2793
 5542TIP3   OH216631   0.527   1.755   2.975  0.0385  0.2664 -0.4699
 5542TIP3    H116632   0.587   1.764   2.900  0.5155 -0.5511 -0.2003
 5542TIP3    H216633   0.531   1.662   2.997 -0.2242  0.4735  0.4695
 5543TIP3   OH216634   4.577   0.219   3.760  0.2515 -0.6032  0.3698
 5543TIP3    H116635   4.647   0.229   3.825 -0.0298 -0.4784  0.6596
 5543TIP3    H216636   4.606   0.148   3.704  0.4251 -0.8249  0.7338
 5544TIP3   OH216637   0.818   2.518   3.692 -0.0710  0.1886  0.4218
 5544TIP3    H116638   0.843   2.600   3.651  0.6950 -0.7147 -1.0259
 5544TIP3    H216639   0.900   2.482   3.727  0.0788 -1.0853 -1.1437
 5545TIP3   OH216640   1.889   4.695   2.300  0.6476 -0.0127 -0.1165
 5545TIP3    H116641   1.913   4.784   2.326  1.3421 -0.2535  0.1062
 5545TIP3    H216642   1.959   4.640   2.336 -0.8492 -0.9106  1.5655
 5546TIP3   OH216643   1.078   4.876   0.725 -0.4007  0.2718 -0.2601
 5546TIP3    H116644   1.036   4.850   0.643 -0.5231 -2.2594  0.5364
 5546TIP3    H216645   1.043   4.816   0.791  2.0597  0.1406  1.0579
 5547TIP3   OH216646   1.420   1.520   1.359  0.5718 -0.3270  0.1998
 5547TIP3    H116647   1.395   1.429   1.345  2.5458 -0.6265 -1.9123
 5547TIP3    H216648   1.480   1.517   1.433 -0.4274 -0.5124  1.0262
 5548TIP3   OH216649   0.735   4.821   1.090  0.0963  0.0133  0.3363
 5548TIP3    H116650   0.661   4.777   1.133 -0.8237 -1.0127 -2.1190
 5548TIP3    H216651   0.805   4.820   1.156 -0.9161 -2.2957  1.4963
 5549TIP3   OH216652   5.324   0.112   3.103  0.2911 -0.0939 -0.4526
 5549TIP3    H116653   5.333   0.111   3.007  0.1555  2.2812 -0.5543
 5549TIP3    H216654   5.244   0.161   3.119  1.0769  0.8009  0.8994
 5550TIP3   OH216655   1.904   5.163   4.254 -0.0319  0.0661 -0.0111
 5550TIP3    H116656   1.999   5.165   4.267  0.0543 -0.8304 -0.4367
 5550TIP3    H216657   1.885   5.241   4.202  0.3284  0.7844  0.8942
 5551TIP3   OH216658   3.780   1.322   4.299 -0.0873 -0.7584 -0.0460
 5551TIP3    H116659   3.782   1.407   4.343 -1.4071 -0.2154 -0.9601
 5551TIP3    H216660   3.791   1.259   4.370 -0.8820  0.1350  0.9171
 5552TIP3   OH216661   4.896   3.483   0.254  0.3203 -0.5961 -0.3480
 5552TIP3    H116662   4.957   3.531   0.197  1.2521  1.6615  2.3023
 5552TIP3    H216663   4.941   3.402   0.275  0.1924 -1.2207 -2.2661
 5553TIP3   OH216664   2.917   0.916   3.287 -0.1307 -0.6877 -0.0090
 5553TIP3    H116665   2.934   0.959   3.370  0.3401 -0.8237 -0.0327
 5553TIP3    H216666   2.957   0.974   3.221 -0.5537 -0.5481 -0.1511
 5554TIP3   OH216667   5.931   1.453   4.578 -0.3743 -0.4406 -0.4904
 5554TIP3    H116668   5.854   1.505   4.553 -0.3540 -1.1563 -2.2074
 5554TIP3    H216669   6.005   1.513   4.566 -0.5255 -0.2463 -0.4576
 5555TIP3   OH216670   3.062   1.504   0.216 -0.4098 -0.0726  0.2302
 5555TIP3    H116671   3.113   1.560   0.274  0.9800 -0.7863 -0.2496
 5555TIP3    H216672   3.121   1.484   0.143 -1.0857 -1.6070  0.0533
 5556TIP3   OH216673   3.238   2.463   2.655  0.0557  0.6794 -0.7580
 5556TIP3    H116674   3.302   2.529   2.629  0.0235  0.3642 -1.6826
 5556TIP3    H216675   3.211   2.422   2.573 -0.3496 -0.0943 -0.2571
 5557TIP3   OH216676   0.679   4.443   1.030  0.0581 -0.2762  0.3663
 5557TIP3    H116677   0.702   4.403   1.114  0.5132  1.8017  1.3097
 5557TIP3    H216678   0.636   4.525   1.054  0.9723  0.7954 -1.3994
 5558TIP3   OH216679   6.262   0.413   2.589  0.2291  0.2885  0.1221
 5558TIP3    H116680   6.176   0.455   2.581  0.0891 -0.0616 -0.2836
 5558TIP3    H216681   6.249   0.344   2.654 -0.2987 -0.9698 -1.2569
 5559TIP3   OH216682   4.638   3.172   2.106 -0.0097 -0.0066  0.0200
 5559TIP3    H116683   4.575   3.244   2.103 -0.2254 -0.2085 -2.6582
 5559TIP3    H216684   4.590   3.099   2.143 -1.7043 -0.3720 -2.6296
 5560TIP3   OH216685   1.916   1.304   3.784 -0.1246 -0.4865  0.0465
 5560TIP3    H116686   1.837   1.307   3.730  0.0447  1.2893 -0.1592
 5560TIP3    H216687   1.891   1.347   3.866 -0.5045 -3.5050  1.6664
 5561TIP3   OH216688   1.628   3.870   1.599  0.2014  0.3761  0.3310
 5561TIP3    H116689   1.584   3.916   1.528 -0.2798 -0.9122 -0.2284
 5561TIP3    H216690   1.583   3.900   1.678 -2.7409 -1.9182 -0.3006
 5562TIP3   OH216691   3.232   0.914   5.047  0.0550 -0.0682 -0.0338
 5562TIP3    H116692   3.241   1.008   5.064  0.0109 -0.1086  0.2149
 5562TIP3    H216693   3.321   0.879   5.054 -0.0812 -0.2251  0.9648
 5563TIP3   OH216694   4.511   5.743   2.999 -0.0036  0.0952  0.2343
 5563TIP3    H116695   4.479   5.829   2.972 -1.5267 -0.9704 -1.5663
 5563TIP3    H216696   4.558   5.710   2.923  0.8873 -0.5387  1.0405
 5564TIP3   OH216697   3.492   4.754   2.880 -0.5029  0.5341 -0.6927
 5564TIP3    H116698   3.537   4.764   2.964 -0.5347 -0.1466 -0.5822
 5564TIP3    H216699   3.440   4.834   2.869  0.7987  1.3832 -0.8674
 5565TIP3   OH216700   5.976   0.527   2.038 -0.6493  0.1249  0.3255
 5565TIP3    H116701   5.882   0.519   2.053 -0.6466 -1.2568 -0.2967
 5565TIP3    H216702   6.009   0.565   2.120 -1.3992 -1.9469  1.6725
 5566TIP3   OH216703   2.725   0.973   5.101 -0.1561  0.7103  0.7479
 5566TIP3    H116704   2.798   1.020   5.141 -0.1318  1.1131  0.2432
 5566TIP3    H216705   2.717   1.012   5.014 -1.1116  0.8163  0.8791
 5567TIP3   OH216706   3.464   4.324   1.213  0.3660 -0.5320 -0.0355
 5567TIP3    H116707   3.407   4.252   1.188 -0.3712 -0.0348  0.2024
 5567TIP3    H216708   3.469   4.379   1.135 -2.0403  1.0895  0.8430
 5568TIP3   OH216709   4.437   0.614   2.108  0.6424  0.0068 -0.0135
 5568TIP3    H116710   4.403   0.558   2.177  0.2955  0.7258  0.4074
 5568TIP3    H216711   4.360   0.643   2.059  0.6375  1.4775  0.8202
 5569TIP3   OH216712   5.123   0.768   4.683 -0.5729 -0.1024 -0.3195
 5569TIP3    H116713   5.128   0.673   4.679  1.3957 -0.1030  0.7563
 5569TIP3    H216714   5.174   0.791   4.761  0.4765  1.9121 -1.5170
 5570TIP3   OH216715   1.616   0.124   3.904  0.2927 -0.0325 -0.7390
 5570TIP3    H116716   1.709   0.137   3.884  0.4373 -0.6207 -0.4828
 5570TIP3    H216717   1.587   0.209   3.938  0.1447  0.8522 -2.9272
 5571TIP3   OH216718   5.754   0.844   3.258  0.1931  0.4291  0.2102
 5571TIP3    H116719   5.714   0.914   3.309 -0.3672 -0.1693  0.6009
 5571TIP3    H216720   5.681   0.787   3.234  0.7443 -0.4370  0.5539
 5572TIP3   OH216721   4.324   1.889   0.705 -0.3279  0.4248 -0.5606
 5572TIP3    H116722   4.329   1.951   0.778 -0.6146 -0.1403 -0.0532
 5572TIP3    H216723   4.256   1.924   0.649 -0.7016  0.4179 -0.1209
 5573TIP3   OH216724   2.646   3.020   1.435 -0.1643  0.0347  1.0134
 5573TIP3    H116725   2.621   3.097   1.384 -0.9549 -0.8782 -0.0361
 5573TIP3    H216726   2.681   3.055   1.517  0.6301  1.5265  0.0652
 5574TIP3   OH216727   4.053   2.539   2.425  0.1913 -0.1145  0.1492
 5574TIP3    H116728   3.971   2.588   2.432 -0.7743 -1.7298  0.7090
 5574TIP3    H216729   4.025   2.448   2.412  1.8898 -0.8513  1.3680
 5575TIP3   OH216730   1.557   5.773   2.894 -0.1383  0.1008  0.2617
 5575TIP3    H116731   1.536   5.816   2.812 -2.6872  0.5787  1.0762
 5575TIP3    H216732   1.526   5.683   2.882  1.4272 -0.4244 -0.0073
 5576TIP3   OH216733   3.817   3.468   2.935  0.0998  0.1393 -0.5726
 5576TIP3    H116734   3.898   3.520   2.937 -0.2317  0.6493  0.5295
 5576TIP3    H216735   3.766   3.502   3.008 -0.7619 -0.7512 -0.7489
 5577TIP3   OH216736   2.362   4.227   3.287  0.2850 -0.2970 -0.4496
 5577TIP3    H116737   2.368   4.182   3.203 -1.6327 -0.2272 -0.6710
 5577TIP3    H216738   2.270   4.218   3.312  0.5559  0.7703  1.0395
 5578TIP3   OH216739   2.123   3.658   5.131  0.0763  0.3036 -0.0494
 5578TIP3    H116740   2.075   3.650   5.049  0.0160  2.0231 -0.2257
 5578TIP3    H216741   2.075   3.725   5.180  2.3107  2.2496 -0.3034
 5579TIP3   OH216742   3.329   3.971   1.942  0.0436  0.0968  0.2242
 5579TIP3    H116743   3.279   3.959   1.861 -1.5950  0.0290  1.2165
 5579TIP3    H216744   3.419   3.947   1.917 -0.1143  1.4199 -1.9188
 5580TIP3   OH216745   3.639   0.754   4.869  0.6566 -0.0767 -0.6524
 5580TIP3    H116746   3.638   0.678   4.811  0.4941  1.4854 -2.8355
 5580TIP3    H216747   3.684   0.822   4.819  0.8762  1.2705  1.2517
 5581TIP3   OH216748   3.095   4.811   5.076  0.0199 -0.5246  0.4499
 5581TIP3    H116749   3.171   4.860   5.044 -1.8706  1.1796 -1.7422
 5581TIP3    H216750   3.048   4.872   5.132 -1.6183 -0.2198 -1.1665
 5582TIP3   OH216751   3.454   0.887   0.509  0.3903  0.3024  0.2415
 5582TIP3    H116752   3.536   0.877   0.460 -0.0021 -1.1397 -0.1724
 5582TIP3    H216753   3.470   0.841   0.592  0.2433  0.6696  0.4752
 5583TIP3   OH216754   5.645   5.499   1.998  0.5468 -0.1856  0.1442
 5583TIP3    H116755   5.625   5.415   1.957  1.0774 -0.6446  0.8000
 5583TIP3    H216756   5.584   5.561   1.957 -0.7956 -1.1435  0.6098
 5584TIP3   OH216757   1.956   4.918   1.496 -0.3674 -0.8147 -0.2379
 5584TIP3    H116758   1.872   4.954   1.524 -0.0049  0.3358 -0.5970
 5584TIP3    H216759   2.019   4.988   1.511  0.5281 -1.6260 -0.0714
 5585TIP3   OH216760   0.218   5.270   1.938 -0.2779 -0.2263  0.3497
 5585TIP3    H116761   0.227   5.284   1.844  2.7700 -0.3530  0.5333
 5585TIP3    H216762   0.229   5.357   1.977  1.8532 -0.5654  0.6641
 5586TIP3   OH216763   1.019   2.467   0.510 -0.1915  0.4905 -0.0002
 5586TIP3    H116764   0.990   2.497   0.596  1.8189 -1.8842  1.6278
 5586TIP3    H216765   1.075   2.392   0.528 -1.8905 -1.8890 -3.5412
 5587TIP3   OH216766   0.671   4.284   1.271  0.1822  0.5991  0.0246
 5587TIP3    H116767   0.743   4.290   1.334 -0.2722 -0.4327  0.6594
 5587TIP3    H216768   0.666   4.191   1.249 -0.6878  0.7252 -0.3408
 5588TIP3   OH216769   0.868   0.486   0.879 -0.1052  0.4297  0.2301
 5588TIP3    H116770   0.919   0.492   0.960 -0.5751 -2.8835  0.9214
 5588TIP3    H216771   0.934   0.485   0.809  0.4155  1.2982  0.6914
 5589TIP3   OH216772   4.925   4.851   2.615 -0.1239 -0.0041  0.3742
 5589TIP3    H116773   4.889   4.939   2.602 -0.2753 -0.0550  0.4466
 5589TIP3    H216774   4.904   4.805   2.533  1.4625  0.5343 -0.3711
 5590TIP3   OH216775   6.302   4.741   2.547  0.1968 -0.3444  0.4964
 5590TIP3    H116776   6.383   4.702   2.580  1.4816  0.6261 -1.2946
 5590TIP3    H216777   6.331   4.805   2.481 -1.8799  2.4344  2.0633
 5591TIP3   OH216778   1.153   0.608   1.382 -0.1306  0.3170  0.0310
 5591TIP3    H116779   1.225   0.671   1.371 -0.4492  0.7085  0.1589
 5591TIP3    H216780   1.078   0.651   1.341  0.0149 -0.6793 -1.3504
 5592TIP3   OH216781   4.631   3.964   1.572  0.1967 -0.1425  0.9711
 5592TIP3    H116782   4.642   4.032   1.505 -0.6108  0.0356  1.0075
 5592TIP3    H216783   4.536   3.955   1.581  0.2428 -2.2112  0.0114
 5593TIP3   OH216784   1.107   5.470   2.382 -0.4924 -0.2178 -0.2795
 5593TIP3    H116785   1.200   5.490   2.368 -0.5014  0.4399  0.5401
 5593TIP3    H216786   1.107   5.399   2.445 -0.5396 -0.6335 -0.7414
 5594TIP3   OH216787   3.117   3.998   0.008 -0.2945 -0.4551 -0.6469
 5594TIP3    H116788   3.066   3.917   0.005 -0.4076 -0.4492  0.5727
 5594TIP3    H216789   3.173   3.988   0.085  0.1590  0.3490 -0.8676
 5595TIP3   OH216790   5.345   5.240   1.674  0.0118  0.4324  0.1379
 5595TIP3    H116791   5.267   5.247   1.619  1.0855  0.6900 -1.4077
 5595TIP3    H216792   5.344   5.320   1.727 -0.9428  0.2721  0.3824
 5596TIP3   OH216793   0.338   0.762   4.887  0.0127  0.6425  0.2645
 5596TIP3    H116794   0.276   0.706   4.840 -1.6245  1.6997  1.0812
 5596TIP3    H216795   0.367   0.709   4.961  0.2464  0.0821 -0.2169
 5597TIP3   OH216796   2.376   5.387   1.523  0.7012  0.0845  0.1152
 5597TIP3    H116797   2.403   5.341   1.443  0.5047 -2.9553  1.6341
 5597TIP3    H216798   2.292   5.427   1.500  1.5449  0.9052 -1.6977
 5598TIP3   OH216799   3.675   3.145   1.542 -0.0800 -0.0759  0.1707
 5598TIP3    H116800   3.629   3.106   1.616 -0.3440 -0.5320 -0.2285
 5598TIP3    H216801   3.674   3.077   1.475  0.4310  0.2216 -0.1428
 5599TIP3   OH216802   4.760   5.421   0.583  0.1526  0.3372  0.0325
 5599TIP3    H116803   4.695   5.463   0.639 -1.7904  1.2148 -2.6700
 5599TIP3    H216804   4.816   5.493   0.553  0.3434  0.0995 -0.1873
 5600TIP3   OH216805   4.616   0.801   2.001  0.6874  0.0319  0.8133
 5600TIP3    H116806   4.553   0.733   2.025  1.1758 -0.8264 -0.2966
 5600TIP3    H216807   4.561   0.875   1.974  0.1100 -0.8685 -0.6139
 5601TIP3   OH216808   3.287   2.857   0.898  0.2317 -0.1653 -0.0746
 5601TIP3    H116809   3.317   2.947   0.899  0.3504 -0.1806 -0.9441
 5601TIP3    H216810   3.296   2.830   0.806  2.6477 -1.8675  0.5755
 5602TIP3   OH216811   0.914   3.302   4.384  0.0427 -0.4418  1.0843
 5602TIP3    H116812   0.824   3.292   4.415 -0.7759  0.2324 -0.8983
 5602TIP3    H216813   0.930   3.396   4.384  0.4714 -0.5078  0.7053
 5603TIP3   OH216814   5.278   2.818   5.038  0.0014  0.4117  0.2471
 5603TIP3    H116815   5.184   2.825   5.056 -0.0376  0.4539  0.0272
 5603TIP3    H216816   5.317   2.888   5.089 -0.1498  0.7776 -0.1368
 5604TIP3   OH216817   5.145   3.446   3.671  0.4905 -0.0855 -0.0136
 5604TIP3    H116818   5.090   3.523   3.682  2.3047  1.4761 -1.2371
 5604TIP3    H216819   5.194   3.439   3.753  1.0146  0.6538 -0.2616
 5605TIP3   OH216820   1.445   5.229   4.448 -0.1074  0.3941  0.1150
 5605TIP3    H116821   1.355   5.245   4.419 -0.6799 -0.5903  1.2568
 5605TIP3    H216822   1.499   5.248   4.371 -1.4626 -1.0654 -1.2618
 5606TIP3   OH216823   4.348   0.640   3.880  0.5251  0.0168  0.2129
 5606TIP3    H116824   4.261   0.679   3.871 -0.6343 -1.9292  2.1554
 5606TIP3    H216825   4.336   0.549   3.853  2.1098 -0.1498  0.0010
 5607TIP3   OH216826   4.768   1.097   0.239  0.0662 -0.3868  0.3978
 5607TIP3    H116827   4.749   1.085   0.332  3.1235  0.3395  1.2533
 5607TIP3    H216828   4.779   1.009   0.204  2.2170 -0.6741  1.6235
 5608TIP3   OH216829   4.646   3.101   0.174  0.5063  0.1306 -0.0978
 5608TIP3    H116830   4.733   3.138   0.189  0.4049  0.1580  0.4304
 5608TIP3    H216831   4.621   3.064   0.258  0.3439 -0.5924 -0.4560
 5609TIP3   OH216832   4.671   2.272   1.312  0.2099 -0.1224  0.6860
 5609TIP3    H116833   4.720   2.191   1.296  1.3054  0.5886  0.3634
 5609TIP3    H216834   4.594   2.264   1.256  1.1637 -0.1971 -0.6646
 5610TIP3   OH216835   1.974   5.014   2.927  0.0931 -0.5027  0.1355
 5610TIP3    H116836   2.044   4.956   2.959  0.4038  0.3364  1.0111
 5610TIP3    H216837   1.940   5.056   3.005 -2.4778 -2.0117 -0.0671
 5611TIP3   OH216838   3.725   4.012   3.401 -0.0864  0.1101 -0.1775
 5611TIP3    H116839   3.810   4.013   3.357 -0.4500  1.9012 -0.9348
 5611TIP3    H216840   3.668   3.964   3.341 -0.3182  1.5969 -1.1874
 5612TIP3   OH216841   2.748   3.903   1.440 -0.2312  0.3562 -1.1240
 5612TIP3    H116842   2.805   3.961   1.389  0.0527  1.5737  0.4873
 5612TIP3    H216843   2.697   3.962   1.496 -1.5847 -0.8388 -1.0314
 5613TIP3   OH216844   2.003   3.789   3.583 -0.3782  0.8576  0.1525
 5613TIP3    H116845   1.977   3.709   3.629 -0.4075  1.8925  2.0447
 5613TIP3    H216846   1.969   3.860   3.638  1.1474  2.1808 -0.5421
 5614TIP3   OH216847   4.842   2.508   1.346 -0.6415 -0.1885  0.0040
 5614TIP3    H116848   4.801   2.424   1.326 -1.0160  0.2685 -1.2092
 5614TIP3    H216849   4.770   2.564   1.374 -0.5238 -0.0065 -0.0569
 5615TIP3   OH216850   2.306   1.378   1.220  0.1559  0.2151 -0.1554
 5615TIP3    H116851   2.253   1.417   1.290 -1.0138  1.7251 -1.8029
 5615TIP3    H216852   2.279   1.286   1.218 -1.6166  0.7146 -0.2262
 5616TIP3   OH216853   2.243   2.264   3.162 -0.0619 -0.0991 -0.0649
 5616TIP3    H116854   2.191   2.307   3.094  1.5424  0.8809 -0.7515
 5616TIP3    H216855   2.271   2.182   3.122 -1.3668 -0.8280  0.4595
 5617TIP3   OH216856   3.460   5.598   1.903 -1.1684 -0.4852  0.1946
 5617TIP3    H116857   3.530   5.662   1.919 -0.4910 -1.1064 -0.2142
 5617TIP3    H216858   3.446   5.557   1.988 -1.1609 -0.2366  0.3178
 5618TIP3   OH216859   3.332   3.260   4.299  0.0225  0.5517  0.2066
 5618TIP3    H116860   3.345   3.299   4.213  0.6990  1.9854  0.9180
 5618TIP3    H216861   3.404   3.199   4.310 -0.4376 -0.1356 -0.4886
 5619TIP3   OH216862   0.466   2.880   0.199  0.3072 -0.1034  0.3933
 5619TIP3    H116863   0.543   2.910   0.247 -0.3794  0.6407  1.0467
 5619TIP3    H216864   0.394   2.931   0.234 -0.3713 -0.2420 -0.7508
 5620TIP3   OH216865   1.665   0.506   0.062  0.2204  0.5402 -0.5711
 5620TIP3    H116866   1.710   0.564   0.124  0.3949  0.0849 -0.2677
 5620TIP3    H216867   1.573   0.533   0.066  0.3223  0.8980 -0.5487
 5621TIP3   OH216868   2.513   5.440   0.681 -0.2233  0.2847 -0.6325
 5621TIP3    H116869   2.486   5.514   0.735  0.7506  0.4196 -0.3035
 5621TIP3    H216870   2.607   5.432   0.697 -0.2574 -0.8314 -0.9021
 5622TIP3   OH216871   5.264   0.038   0.873 -0.3468 -1.2650  0.0394
 5622TIP3    H116872   5.253   0.096   0.948  0.1876  0.5592 -1.2156
 5622TIP3    H216873   5.185   0.052   0.820 -1.3675 -3.5452  0.8440
 5623TIP3   OH216874   0.493   4.583   3.314 -0.2231 -0.0651  0.4672
 5623TIP3    H116875   0.531   4.496   3.308 -0.2430  0.0461 -2.2246
 5623TIP3    H216876   0.566   4.643   3.302 -0.5735  0.2462 -0.1390
 5624TIP3   OH216877   2.561   2.003   1.103 -0.2135 -0.3114  0.1414
 5624TIP3    H116878   2.635   2.010   1.043  0.0615  0.7453  0.5705
 5624TIP3    H216879   2.484   2.027   1.050 -0.4659 -2.5862 -0.6300
 5625TIP3   OH216880   1.260   1.388   1.102  0.2059 -0.0468 -0.2813
 5625TIP3    H116881   1.318   1.350   1.168  0.0407  1.2121  0.6263
 5625TIP3    H216882   1.274   1.335   1.024  1.2083 -0.8989  0.4555
 5626TIP3   OH216883   3.638   2.143   2.650 -0.1066  0.8798 -0.0243
 5626TIP3    H116884   3.667   2.222   2.606  0.5305  0.5863 -0.1381
 5626TIP3    H216885   3.578   2.102   2.588  1.8113 -0.2311 -1.2581
 5627TIP3   OH216886   1.138   5.355   1.506  0.0652 -0.5522 -0.1673
 5627TIP3    H116887   1.199   5.399   1.446 -0.7013 -0.8924 -1.2175
 5627TIP3    H216888   1.195   5.319   1.574  1.2121 -1.8795 -1.7305
 5628TIP3   OH216889   0.206   5.629   0.499 -0.2437 -0.4914 -0.0495
 5628TIP3    H116890   0.293   5.668   0.494 -0.1823 -0.6227  0.0039
 5628TIP3    H216891   0.193   5.586   0.415 -0.8581  0.7959 -0.6451
 5629TIP3   OH216892   6.045   4.392   3.297  0.4558 -0.4502  0.1208
 5629TIP3    H116893   5.958   4.395   3.337  0.2799  1.5599 -0.2890
 5629TIP3    H216894   6.028   4.396   3.203  0.9231 -3.5479 -0.1893
 5630TIP3   OH216895   0.026   4.449   4.290 -0.6196 -0.1472 -0.3624
 5630TIP3    H116896  -0.003   4.540   4.280 -1.1144 -0.2741 -0.1143
 5630TIP3    H216897  -0.002   4.406   4.210 -0.2418 -0.0470 -0.5510
 5631TIP3   OH216898   3.119   4.323   2.520  0.2109 -0.3286  0.4716
 5631TIP3    H116899   3.160   4.409   2.524 -0.2926  0.1064 -2.2565
 5631TIP3    H216900   3.030   4.337   2.552 -0.2356  0.4543 -1.0466
 5632TIP3   OH216901   0.042   2.937   4.107 -0.3953 -0.1953 -0.2587
 5632TIP3    H116902   0.125   2.970   4.072  0.3095 -0.8922  0.7140
 5632TIP3    H216903   0.035   2.848   4.072 -1.5737  0.4020 -1.6799
 5633TIP3   OH216904   5.632   3.502   2.173  0.2096 -0.3720  0.6565
 5633TIP3    H116905   5.667   3.515   2.261 -1.6808 -0.0993  1.4199
 5633TIP3    H216906   5.595   3.413   2.175  0.4815 -0.5060  0.0164
 5634TIP3   OH216907   1.542   5.264   3.007 -0.6178 -0.5890 -0.2871
 5634TIP3    H116908   1.461   5.315   3.015  1.1987  2.4156  0.8104
 5634TIP3    H216909   1.598   5.317   2.949  0.9734 -1.9577 -0.0883
 5635TIP3   OH216910   0.999   1.597   0.852 -0.3363  0.2246 -0.4650
 5635TIP3    H116911   1.086   1.606   0.814 -0.3766 -1.5296 -1.0563
 5635TIP3    H216912   0.944   1.659   0.804  0.2707  0.2539 -1.1239
 5636TIP3   OH216913   0.791   5.245   3.519  0.1294 -0.1108  0.3151
 5636TIP3    H116914   0.762   5.235   3.610 -2.2878 -0.3207 -0.3934
 5636TIP3    H216915   0.852   5.173   3.505  0.7866  0.1215  1.8559
 5637TIP3   OH216916   4.338   5.988   3.972  0.2969  0.2945  0.0424
 5637TIP3    H116917   4.335   6.004   4.066  2.3574 -0.1386  0.2408
 5637TIP3    H216918   4.382   5.903   3.964  0.4362  0.4735 -1.3091
 5638TIP3   OH216919   5.758   0.401   2.359 -0.8786  0.0090  0.1777
 5638TIP3    H116920   5.715   0.363   2.282  0.6175  0.5211 -0.9463
 5638TIP3    H216921   5.758   0.495   2.343  1.5435 -0.0276 -0.3805
 5639TIP3   OH216922   4.771   0.252   1.698 -0.1707  0.0808  0.2861
 5639TIP3    H116923   4.836   0.244   1.767 -0.4112  0.7134  0.5997
 5639TIP3    H216924   4.703   0.189   1.722  0.7094 -1.2067 -0.5088
 5640TIP3   OH216925   5.598   3.069   2.050  0.1095  0.3218 -0.0591
 5640TIP3    H116926   5.609   3.082   1.956 -0.8415  1.7690 -0.0038
 5640TIP3    H216927   5.529   3.004   2.058  0.7752 -0.4383 -0.3447
 5641TIP3   OH216928   6.226   3.171   2.837 -0.5366 -0.0377 -0.5968
 5641TIP3    H116929   6.267   3.090   2.866 -0.4995 -0.3714 -1.5441
 5641TIP3    H216930   6.300   3.228   2.813 -0.5556  0.3552  0.2434
 5642TIP3   OH216931   4.501   5.270   2.892 -0.6204 -0.7879  0.0989
 5642TIP3    H116932   4.451   5.193   2.919  1.0129 -1.9092  0.0406
 5642TIP3    H216933   4.585   5.235   2.862  0.4018  1.0700  0.6309
 5643TIP3   OH216934   1.010   0.880   1.021  0.9879  0.5528 -0.2274
 5643TIP3    H116935   0.967   0.963   1.045  0.9204  0.3759  0.2719
 5643TIP3    H216936   1.103   0.902   1.016  0.9435  0.7179 -0.3570
 5644TIP3   OH216937   2.267   2.819   4.614  0.2322  0.2239  0.8462
 5644TIP3    H116938   2.281   2.825   4.520  0.4840  0.0616  0.8755
 5644TIP3    H216939   2.301   2.734   4.639 -0.3617  0.0214  0.9924
 5645TIP3   OH216940   0.683   2.059   0.245  0.4696  0.2209 -0.6077
 5645TIP3    H116941   0.672   2.084   0.337  0.7770  1.0346 -0.7790
 5645TIP3    H216942   0.603   2.089   0.202  0.2760 -0.2636 -0.5831
 5646TIP3   OH216943   0.345   5.105   1.070  0.4966 -0.1176  0.4009
 5646TIP3    H116944   0.426   5.152   1.090 -0.9367  4.8829 -3.3276
 5646TIP3    H216945   0.372   5.037   1.008  2.0182  0.5339  0.2865
 5647TIP3   OH216946   4.738   3.962   3.936 -0.2037 -0.8009 -0.5058
 5647TIP3    H116947   4.815   3.985   3.883 -1.1759 -1.4163 -2.2928
 5647TIP3    H216948   4.665   4.006   3.892 -0.9387 -0.5715  0.9077
 5648TIP3   OH216949   5.917   3.192   4.127  0.2359  0.2773  0.2017
 5648TIP3    H116950   5.980   3.134   4.170 -2.1524 -1.1474  2.0140
 5648TIP3    H216951   5.934   3.181   4.033  2.1945 -0.5500  0.6058
 5649TIP3   OH216952   1.606   0.937   3.678 -0.2800 -0.4172  0.2207
 5649TIP3    H116953   1.664   0.899   3.745  1.6830 -2.2520 -2.2642
 5649TIP3    H216954   1.533   0.876   3.672  1.0093 -1.9518 -1.1726
 5650TIP3   OH216955   0.823   5.701   4.181 -0.0986  0.0079 -0.1663
 5650TIP3    H116956   0.887   5.682   4.249  0.0385  1.4496  0.1340
 5650TIP3    H216957   0.875   5.731   4.106 -0.3423 -0.0083 -0.3440
 5651TIP3   OH216958   6.313   2.945   2.955  0.0394 -0.8094  0.3150
 5651TIP3    H116959   6.409   2.943   2.964  0.0212  0.9438  1.6501
 5651TIP3    H216960   6.281   2.899   3.032 -0.1203  1.8169  1.9595
 5652TIP3   OH216961   0.765   5.584   0.543  0.2023  0.0346  0.1593
 5652TIP3    H116962   0.682   5.607   0.500 -0.0817  1.5281  1.4603
 5652TIP3    H216963   0.739   5.529   0.617  0.3946  0.4398  0.5246
 5653TIP3   OH216964   4.757   1.292   3.931 -0.7062  0.1542  0.7637
 5653TIP3    H116965   4.722   1.353   3.866  0.3484 -0.0173  0.0010
 5653TIP3    H216966   4.706   1.212   3.918 -0.9022  0.3091  0.5549
 5654TIP3   OH216967   1.688   2.913   3.607  0.3577 -0.1319  0.0794
 5654TIP3    H116968   1.780   2.938   3.615  0.7467 -1.4612  0.0053
 5654TIP3    H216969   1.666   2.876   3.693 -0.9617  2.7122  1.0836
 5655TIP3   OH216970   3.567   2.474   3.152 -0.2257  0.1862  0.2623
 5655TIP3    H116971   3.642   2.516   3.109 -0.5160  1.4566  0.9612
 5655TIP3    H216972   3.594   2.466   3.244 -0.5105 -0.4011  0.2975
 5656TIP3   OH216973   3.555   1.418   0.957  0.0808 -0.3798  0.5371
 5656TIP3    H116974   3.613   1.460   1.020  0.4934  0.6404 -0.4778
 5656TIP3    H216975   3.614   1.387   0.888 -0.4319 -0.7583  0.2634
 5657TIP3   OH216976   5.430   4.694   0.962 -0.0509 -0.1835  0.0920
 5657TIP3    H116977   5.497   4.752   0.926 -0.3997  1.4523  1.9469
 5657TIP3    H216978   5.450   4.688   1.055 -0.5221 -2.4395  0.1065
 5658TIP3   OH216979   1.236   3.997   5.133  0.1717  0.6593  0.5702
 5658TIP3    H116980   1.290   4.061   5.086  1.8445 -1.0551  0.0257
 5658TIP3    H216981   1.221   4.036   5.219  0.2519  2.2097 -0.0941
 5659TIP3   OH216982   3.526   3.480   2.335 -0.1884 -0.1303  0.1378
 5659TIP3    H116983   3.525   3.458   2.428  1.0366  0.7973  0.3952
 5659TIP3    H216984   3.578   3.560   2.330  0.6473 -0.7354 -1.4734
 5660TIP3   OH216985   5.587   3.834   1.593 -0.0988 -0.0277 -0.0567
 5660TIP3    H116986   5.523   3.903   1.578  1.4209  1.7328  1.0782
 5660TIP3    H216987   5.634   3.827   1.510  0.1644  0.8110  0.0057
 5661TIP3   OH216988   5.727   0.246   0.627 -0.0584  0.1393 -0.3714
 5661TIP3    H116989   5.788   0.281   0.691  1.4575 -2.6142 -0.1593
 5661TIP3    H216990   5.645   0.236   0.675  0.1586  1.0247  0.2093
 5662TIP3   OH216991   3.753   2.403   3.668 -0.1369  0.7669 -0.1218
 5662TIP3    H116992   3.705   2.476   3.705 -0.2079  1.0488 -0.7547
 5662TIP3    H216993   3.704   2.325   3.696 -1.7960  1.1066 -1.8782
 5663TIP3   OH216994   5.448   4.889   0.507  0.2934 -0.0157 -0.1818
 5663TIP3    H116995   5.474   4.924   0.422 -0.0775 -0.3223 -0.4262
 5663TIP3    H216996   5.509   4.817   0.522  1.0981  0.7630  0.3513
 5664TIP3   OH216997   1.145   5.475   3.765 -0.4127  0.0457  0.2262
 5664TIP3    H116998   1.139   5.457   3.671  0.1824 -1.8990  0.5042
 5664TIP3    H216999   1.228   5.521   3.776 -0.9706  1.2001 -0.3023
 5665TIP3   OH217000   2.542   1.666   0.626 -0.0636 -0.2363  0.8019
 5665TIP3    H117001   2.599   1.591   0.644 -0.1434 -1.1799 -2.3302
 5665TIP3    H217002   2.459   1.644   0.669  1.3048  0.4819  4.1700
 5666TIP3   OH217003   5.033   2.220   5.053  0.6062  0.4439  0.2948
 5666TIP3    H117004   5.084   2.224   5.134 -0.6325  0.8283  1.0803
 5666TIP3    H217005   4.967   2.289   5.062 -1.0179 -1.0055 -0.0079
 5667TIP3   OH217006   1.871   5.359   4.968  0.1408  0.3435 -0.3070
 5667TIP3    H117007   1.887   5.403   5.052  2.2176 -0.8955  0.0375
 5667TIP3    H217008   1.935   5.398   4.908  0.6906 -0.8108 -0.4974
 5668TIP3   OH217009   1.250   5.256   1.757  0.0537 -0.4521 -0.1472
 5668TIP3    H117010   1.221   5.317   1.825 -2.6566 -1.5559 -0.2002
 5668TIP3    H217011   1.289   5.183   1.805  2.3766  0.7722 -0.0472
 5669TIP3   OH217012   5.710   2.445   0.052 -0.3897 -0.1400  0.0329
 5669TIP3    H117013   5.756   2.511   0.001 -1.3526 -0.1060 -0.8170
 5669TIP3    H217014   5.626   2.485   0.074 -0.6805 -0.7955  0.1589
 5670TIP3   OH217015   5.014   4.149   0.024  0.3696 -0.2708 -0.2749
 5670TIP3    H117016   5.106   4.157   0.049  0.7126 -0.1609 -1.5360
 5670TIP3    H217017   4.995   4.228  -0.026 -0.6717  0.1325  0.7161
 5671TIP3   OH217018   6.094   2.497   0.307  0.3629  0.4801  0.1189
 5671TIP3    H117019   6.083   2.576   0.361  1.3558  0.0617  0.9628
 5671TIP3    H217020   6.174   2.456   0.340 -0.4694 -1.2320  0.1176
 5672TIP3   OH217021   3.480   4.218   2.929 -0.4002 -0.0221 -0.4951
 5672TIP3    H117022   3.486   4.177   2.843  2.3400  0.0951 -0.4405
 5672TIP3    H217023   3.482   4.145   2.991 -2.1677 -0.0935 -0.4643
 5673TIP3   OH217024   2.051   4.735   2.706  0.2081  0.3272 -0.4165
 5673TIP3    H117025   1.997   4.669   2.751  0.0091 -0.5676 -1.9165
 5673TIP3    H217026   1.989   4.805   2.685  0.0942  0.2966 -0.1910
 5674TIP3   OH217027   1.772   2.175   1.417  0.2576 -0.5859  0.2879
 5674TIP3    H117028   1.777   2.084   1.389 -1.1104  0.0685 -2.4869
 5674TIP3    H217029   1.687   2.206   1.384  0.7580  1.7448  0.9562
 5675TIP3   OH217030   4.475   4.090   0.815 -0.5661  0.0577  0.2614
 5675TIP3    H117031   4.455   4.137   0.895 -0.6345 -2.0614  1.5789
 5675TIP3    H217032   4.553   4.037   0.837  1.4701  1.8219 -2.1176
 5676TIP3   OH217033   3.222   4.244   0.428 -0.0575 -0.2150 -0.3909
 5676TIP3    H117034   3.146   4.302   0.431 -1.3599 -1.7240 -2.1871
 5676TIP3    H217035   3.192   4.167   0.379  3.2951  0.2066 -3.5910
 5677TIP3   OH217036   1.512   3.196   3.547 -0.2454 -0.2431 -0.4303
 5677TIP3    H117037   1.587   3.168   3.598 -1.4172 -0.2852  1.3718
 5677TIP3    H217038   1.532   3.170   3.457  2.5430  1.1405 -0.3098
 5678TIP3   OH217039   0.210   5.408   3.267 -0.3364  0.2220 -0.2825
 5678TIP3    H117040   0.252   5.335   3.223  0.1521  1.1991 -1.5281
 5678TIP3    H217041   0.250   5.411   3.353 -0.2051 -0.8306 -0.2983
 5679TIP3   OH217042   3.323   4.915   4.166 -0.5141  0.5534 -0.7077
 5679TIP3    H117043   3.257   4.984   4.167 -1.1615 -0.0712  0.0374
 5679TIP3    H217044   3.289   4.850   4.104 -0.6919  0.1509 -0.1936
 5680TIP3   OH217045   3.785   5.045   3.154 -0.5261  0.2998  0.3583
 5680TIP3    H117046   3.786   5.128   3.202 -0.5367  0.3467  0.2779
 5680TIP3    H217047   3.845   5.059   3.080  1.8847 -0.7680  2.0006
 5681TIP3   OH217048   1.977   4.158   3.848  0.6778 -0.2797 -0.5312
 5681TIP3    H117049   1.974   4.227   3.914  0.3552 -0.0744 -0.7565
 5681TIP3    H217050   1.889   4.157   3.810  0.2548 -1.7187  0.3767
 5682TIP3   OH217051   4.867   4.706   2.381 -0.3377  0.1466  0.3634
 5682TIP3    H117052   4.784   4.696   2.427 -1.3352  1.8537 -0.9262
 5682TIP3    H217053   4.845   4.759   2.304  2.2346  2.2381  0.9165
 5683TIP3   OH217054   3.197   5.714   1.191 -0.2807 -0.1600 -0.1269
 5683TIP3    H117055   3.256   5.742   1.261  0.3811 -3.6324  0.8716
 5683TIP3    H217056   3.250   5.714   1.112  0.0664  0.0717  0.1062
 5684TIP3   OH217057   3.605   1.612   4.005 -0.3696 -0.2555 -0.0725
 5684TIP3    H117058   3.586   1.518   4.002 -1.1053 -0.1802  1.2442
 5684TIP3    H217059   3.673   1.620   4.072 -0.3370  0.1503 -0.1557
 5685TIP3   OH217060   3.169   2.258   1.987  0.3510  0.6645  0.0333
 5685TIP3    H117061   3.218   2.282   2.066  0.0892 -1.8888  1.0641
 5685TIP3    H217062   3.235   2.224   1.928  0.2935  0.7500 -0.0803
 5686TIP3   OH217063   4.121   3.450   1.371  0.0130 -0.2037  0.3465
 5686TIP3    H117064   4.104   3.537   1.335 -0.0259 -0.3617 -0.0166
 5686TIP3    H217065   4.073   3.390   1.314  0.6032 -0.5234  0.1774
 5687TIP3   OH217066   5.598   0.151   1.129 -0.1254  0.4123  0.2627
 5687TIP3    H117067   5.615   0.093   1.055 -1.0655 -0.7555  0.9271
 5687TIP3    H217068   5.576   0.235   1.089  2.3774  0.6991 -0.7015
 5688TIP3   OH217069   4.299   5.087   3.341  0.3046 -0.0489  0.5143
 5688TIP3    H117070   4.211   5.087   3.378  0.2868 -2.4197  0.6617
 5688TIP3    H217071   4.292   5.138   3.261 -1.1917 -0.1257  0.5746
 5689TIP3   OH217072   4.848   2.254   3.587  0.7140  0.2729 -0.5591
 5689TIP3    H117073   4.801   2.290   3.662 -1.3402  0.0053 -1.6585
 5689TIP3    H217074   4.940   2.274   3.605  0.2719  0.4483  1.8813
 5690TIP3   OH217075   1.439   5.803   2.315  0.2995  0.4518 -0.4162
 5690TIP3    H117076   1.350   5.837   2.316  0.1894  0.2599  2.1700
 5690TIP3    H217077   1.432   5.716   2.278 -1.0820 -0.5952  2.0763
 5691TIP3   OH217078   1.959   0.547   2.359  0.4147  0.6662  0.1349
 5691TIP3    H117079   1.914   0.628   2.335 -0.1927  0.0075 -1.0703
 5691TIP3    H217080   1.989   0.512   2.276 -0.7296 -1.1420  0.4294
 5692TIP3   OH217081   4.127   4.805   4.042 -0.7688 -0.6448 -0.3948
 5692TIP3    H117082   4.186   4.769   4.108  0.2624 -2.4437 -2.1987
 5692TIP3    H217083   4.119   4.897   4.065  2.2946 -0.4516  0.2721
 5693TIP3   OH217084   2.621   4.719   3.045  0.5765  0.6948  0.7205
 5693TIP3    H117085   2.531   4.702   3.019  0.5562  2.6225 -0.6210
 5693TIP3    H217086   2.665   4.634   3.035 -0.5085  0.2957 -1.0783
 5694TIP3   OH217087   3.336   5.377   0.342 -0.4478  0.0585  0.7782
 5694TIP3    H117088   3.410   5.407   0.289  0.1050 -0.0102  1.4964
 5694TIP3    H217089   3.278   5.453   0.347 -1.3554 -0.4103 -1.3074
 5695TIP3   OH217090   0.090   5.100   0.138  0.3588 -0.0336 -0.4109
 5695TIP3    H117091   0.131   5.114   0.052 -3.1989  1.3231 -2.1148
 5695TIP3    H217092   0.037   5.020   0.126  0.1575 -0.0696  0.6545
 5696TIP3   OH217093   0.665   5.618   2.479 -0.4124 -1.2041 -0.3334
 5696TIP3    H117094   0.745   5.612   2.532 -0.5667 -2.2161 -0.1986
 5696TIP3    H217095   0.670   5.542   2.420 -0.9420 -0.8920 -0.7870
 5697TIP3   OH217096   0.943   5.183   4.169  0.1678 -0.0726 -0.7021
 5697TIP3    H117097   0.885   5.231   4.111 -0.7092 -1.2344 -0.8095
 5697TIP3    H217098   0.889   5.160   4.244  0.3458 -1.5376 -0.9940
 5698TIP3   OH217099   0.678   3.211   3.089 -0.2216 -0.6463 -0.8411
 5698TIP3    H117100   0.699   3.246   3.002 -1.4086 -0.7580 -1.1914
 5698TIP3    H217101   0.760   3.217   3.138  0.2301  0.2759 -1.6793
 5699TIP3   OH217102   1.373   4.491   1.086 -0.0335 -0.3615  0.1589
 5699TIP3    H117103   1.299   4.485   1.025 -0.6192 -0.3524  0.8561
 5699TIP3    H217104   1.363   4.415   1.143  1.3678 -1.2178 -0.6705
 5700TIP3   OH217105   4.193   5.468   0.799  0.2288  0.2322  0.0050
 5700TIP3    H117106   4.267   5.417   0.831  0.6501  0.8061 -0.0292
 5700TIP3    H217107   4.120   5.406   0.793  1.2493 -0.8638 -2.0724
 5701TIP3   OH217108   1.659   3.206   0.291 -0.5081  0.0635 -0.5343
 5701TIP3    H117109   1.627   3.116   0.299 -0.3517  0.1065  1.0060
 5701TIP3    H217110   1.751   3.197   0.265 -0.3034 -0.2630  0.2701
 5702TIP3   OH217111   3.871   0.573   4.638 -0.4227  0.2009  0.2585
 5702TIP3    H117112   3.790   0.555   4.685  0.3966  1.0359  2.0778
 5702TIP3    H217113   3.847   0.641   4.575 -0.9133  1.3520  1.6317
 5703TIP3   OH217114   1.863   4.416   4.563  0.2856 -0.2649  0.0766
 5703TIP3    H117115   1.794   4.401   4.626  1.2714  0.4928  1.3901
 5703TIP3    H217116   1.860   4.340   4.505 -2.2572  0.2288 -0.5361
 5704TIP3   OH217117   5.178   4.675   1.728 -0.2901 -0.1846  0.6633
 5704TIP3    H117118   5.098   4.642   1.687  0.4609 -2.3756  0.8056
 5704TIP3    H217119   5.177   4.637   1.816 -0.3948  1.9880  1.6465
 5705TIP3   OH217120   1.778   3.842   2.045  0.4794  0.3887  0.3863
 5705TIP3    H117121   1.838   3.915   2.060 -0.3077  1.8594 -2.6618
 5705TIP3    H217122   1.832   3.775   2.004  0.5761  0.5985  0.1671
 5706TIP3   OH217123   3.251   5.706   3.635 -0.1280 -0.2239  0.2044
 5706TIP3    H117124   3.199   5.635   3.595  1.9210 -2.3650  1.0857
 5706TIP3    H217125   3.336   5.666   3.653  0.5622  2.0002  2.3964
 5707TIP3   OH217126   0.535   3.347   4.695 -0.0293 -0.4474  0.0264
 5707TIP3    H117127   0.622   3.340   4.656  0.5958 -1.1944  1.4617
 5707TIP3    H217128   0.480   3.287   4.644  0.1529  0.4153 -1.2109
 5708TIP3   OH217129   5.240   4.053   4.418 -0.1583  0.2272 -0.5596
 5708TIP3    H117130   5.193   4.119   4.469  0.6620  0.0462  0.4706
 5708TIP3    H217131   5.284   4.103   4.349  0.3334  0.7529  0.1200
 5709TIP3   OH217132   6.040   4.818   1.917 -0.1743 -0.2719 -0.8595
 5709TIP3    H117133   6.103   4.818   1.989 -0.3426 -0.7332 -0.7082
 5709TIP3    H217134   6.094   4.806   1.838 -0.0649 -0.6684 -0.7296
 5710TIP3   OH217135   2.331   3.300   0.528  1.1074  0.1071 -0.5474
 5710TIP3    H117136   2.266   3.342   0.472  1.6204 -1.5741 -2.5170
 5710TIP3    H217137   2.389   3.371   0.555  0.4754  1.0624 -1.6100
 5711TIP3   OH217138   3.138   0.923   2.372 -0.1456  0.2531 -0.4359
 5711TIP3    H117139   3.153   0.936   2.466 -1.5239 -0.3000 -0.1158
 5711TIP3    H217140   3.213   0.872   2.343  1.4670  2.2998 -0.1385
 5712TIP3   OH217141   5.622   1.242   0.201 -0.5964 -0.2105  0.3781
 5712TIP3    H117142   5.564   1.167   0.219 -0.3885 -0.6819 -0.8203
 5712TIP3    H217143   5.619   1.294   0.281  0.3114 -2.1896  1.7929
 5713TIP3   OH217144   5.583   4.935   2.662  0.3307 -0.0158 -0.4479
 5713TIP3    H117145   5.522   4.933   2.735  1.1799  0.9884  0.3235
 5713TIP3    H217146   5.528   4.951   2.585 -0.6315 -1.6412 -0.1335
 5714TIP3   OH217147   3.159   5.106   1.628  0.2292  0.4076 -0.1433
 5714TIP3    H117148   3.213   5.179   1.659  0.6623 -0.1179  0.3672
 5714TIP3    H217149   3.108   5.142   1.556  0.5815  1.1628 -0.0179
 5715TIP3   OH217150   4.387   4.035   4.015  0.0945 -0.4508  0.2126
 5715TIP3    H117151   4.346   4.104   4.068  2.6548  0.6834  0.8687
 5715TIP3    H217152   4.415   4.080   3.936  1.5054 -0.7824  0.5035
 5716TIP3   OH217153   4.875   4.582   4.224  0.5100  0.1890  0.0902
 5716TIP3    H117154   4.967   4.562   4.235  0.5401  0.6129  0.6575
 5716TIP3    H217155   4.860   4.576   4.129  0.7011 -1.6290  0.1277
 5717TIP3   OH217156   0.667   2.278   0.918 -0.1164  0.4282  0.2389
 5717TIP3    H117157   0.751   2.253   0.956 -0.5225  0.0719  0.9027
 5717TIP3    H217158   0.619   2.319   0.990 -1.0635 -0.6586  0.2537
 5718TIP3   OH217159   4.919   1.202   3.586 -0.1753  0.3160 -0.0885
 5718TIP3    H117160   4.970   1.256   3.646 -0.2001 -0.5425  0.7259
 5718TIP3    H217161   4.968   1.205   3.504 -0.2961  1.7359 -0.1319
 5719TIP3   OH217162   2.817   0.621   4.632  0.1569  0.2264  0.1982
 5719TIP3    H117163   2.774   0.648   4.713 -0.1728 -1.1455  0.4997
 5719TIP3    H217164   2.851   0.703   4.595 -0.8144  1.0452  1.0513
 5720TIP3   OH217165   1.205   4.693   4.358 -0.1705  0.4314  0.4197
 5720TIP3    H117166   1.121   4.739   4.365 -1.2877 -1.5823  1.7835
 5720TIP3    H217167   1.213   4.672   4.265 -2.2260 -0.9876  0.4796
 5721TIP3   OH217168   2.330   5.147   3.011  0.5612 -0.3063 -0.1696
 5721TIP3    H117169   2.292   5.064   2.985  0.0911  0.0720 -0.7193
 5721TIP3    H217170   2.416   5.125   3.048  0.3137 -1.0508 -0.0403
 5722TIP3   OH217171   5.562   2.307   3.741 -0.2325 -0.1057 -0.4387
 5722TIP3    H117172   5.549   2.254   3.820  0.1565 -0.8446 -0.8604
 5722TIP3    H217173   5.555   2.398   3.772  0.4444 -0.3725  0.5465
 5723TIP3   OH217174   0.713   4.319   4.706  0.4013 -0.5907 -0.2245
 5723TIP3    H117175   0.689   4.329   4.615 -0.7352 -0.1011  0.1182
 5723TIP3    H217176   0.711   4.224   4.722 -0.0695 -0.6280 -0.5236
 5724TIP3   OH217177   5.930   5.935   4.797 -0.0064  0.2071 -0.8439
 5724TIP3    H117178   5.858   5.925   4.735 -1.4878  0.2485  0.8174
 5724TIP3    H217179   5.905   5.882   4.872  1.5012  0.5694 -0.0536
 5725TIP3   OH217180   2.540   3.262   3.826  0.2536  0.1012  0.3468
 5725TIP3    H117181   2.500   3.184   3.864 -0.0510 -2.2971 -4.1250
 5725TIP3    H217182   2.466   3.312   3.791  0.6647 -0.4917 -1.4733
 5726TIP3   OH217183   1.402   3.368   1.790  0.2001  0.3366 -0.0275
 5726TIP3    H117184   1.388   3.419   1.710  1.4419 -0.5635 -0.8621
 5726TIP3    H217185   1.482   3.318   1.773 -0.2670 -0.9214  1.2498
 5727TIP3   OH217186   0.745   2.369   3.132  0.4663  0.6296  0.0461
 5727TIP3    H117187   0.652   2.345   3.127  0.3986  0.8771  0.1131
 5727TIP3    H217188   0.768   2.355   3.223  0.5480  0.3730 -0.0137
 5728TIP3   OH217189   5.024   2.581   1.945  0.5033  0.4225 -0.1762
 5728TIP3    H117190   5.075   2.661   1.951 -0.7522  1.2532 -0.2765
 5728TIP3    H217191   5.081   2.513   1.982  1.5937  1.3385 -0.1367
 5729TIP3   OH217192   4.421   1.023   2.108  0.2027 -0.0684  0.1793
 5729TIP3    H117193   4.486   1.038   2.039  1.1974  0.8704  1.2660
 5729TIP3    H217194   4.456   0.950   2.159 -0.5447 -0.7820 -0.3088
 5730TIP3   OH217195   3.003   4.826   2.194  0.4483 -0.0497 -0.2421
 5730TIP3    H117196   2.932   4.870   2.240 -0.6337 -0.7811 -1.1590
 5730TIP3    H217197   3.022   4.749   2.247 -0.9855 -1.0428 -1.0965
 5731TIP3   OH217198   2.620   3.448   1.027 -0.6731 -0.0531  0.0783
 5731TIP3    H117199   2.548   3.391   1.001 -0.8779  0.0662  0.3706
 5731TIP3    H217200   2.591   3.487   1.110  0.2550 -0.9902  0.8820
 5732TIP3   OH217201   1.920   2.131   3.477 -0.2455  0.0353 -0.2729
 5732TIP3    H117202   1.969   2.062   3.432 -2.4521 -0.7819 -1.5504
 5732TIP3    H217203   1.858   2.164   3.412 -0.9955  1.4535  1.0816
 5733TIP3   OH217204   4.030   0.177   4.499  0.3732 -0.0509 -0.1310
 5733TIP3    H117205   4.011   0.240   4.569  0.3723 -1.5559  1.2818
 5733TIP3    H217206   3.949   0.127   4.489  0.3478  0.1988 -1.2873
 5734TIP3   OH217207   1.917   4.323   4.079 -0.0817  0.2882 -0.4001
 5734TIP3    H117208   1.885   4.252   4.134 -1.4110  0.9016 -0.3386
 5734TIP3    H217209   1.992   4.359   4.128 -1.8873  1.5390  1.6665
 5735TIP3   OH217210   0.156   1.460   2.110  0.2458 -0.0103  0.4217
 5735TIP3    H117211   0.146   1.419   2.196 -0.5257 -0.1501  0.2722
 5735TIP3    H217212   0.246   1.492   2.109  0.8460 -1.5983  0.5793
 5736TIP3   OH217213   1.294   5.567   5.030  0.2683  0.2995 -0.2487
 5736TIP3    H117214   1.269   5.541   5.119  1.7609 -0.8679 -0.1356
 5736TIP3    H217215   1.381   5.530   5.018  0.0884  0.4312 -2.2197
 5737TIP3   OH217216   0.413   1.273   1.860 -0.2406 -0.1677 -0.0400
 5737TIP3    H117217   0.330   1.255   1.816  0.1625 -0.4991 -0.6719
 5737TIP3    H217218   0.426   1.367   1.850 -1.0600  0.0784  0.9945
 5738TIP3   OH217219   2.649   3.116   0.802  0.0032 -0.0930 -0.1001
 5738TIP3    H117220   2.654   3.121   0.707 -0.5779  4.5510 -0.1456
 5738TIP3    H217221   2.734   3.150   0.832 -0.7562  1.0031  0.9139
 5739TIP3   OH217222   4.676   0.785   2.674  0.3068  0.4939  0.2866
 5739TIP3    H117223   4.696   0.699   2.638  2.5437  1.4798 -1.0383
 5739TIP3    H217224   4.653   0.838   2.598 -0.8043  1.1705  1.0613
 5740TIP3   OH217225   3.057   0.167   2.587 -0.3217  0.1282  0.4526
 5740TIP3    H117226   3.050   0.245   2.532  1.0394  0.1261  0.2554
 5740TIP3    H217227   3.068   0.201   2.675  0.6852  0.1742  0.3156
 5741TIP3   OH217228   3.331   2.757   4.105 -0.1421  0.2983  0.3936
 5741TIP3    H117229   3.379   2.679   4.077  1.3890  1.2275  0.3139
 5741TIP3    H217230   3.348   2.763   4.199  0.6723  1.1220  0.2074
 5742TIP3   OH217231   1.118   2.806   4.356  0.2896  0.1549  0.2262
 5742TIP3    H117232   1.207   2.776   4.338  0.1637 -0.1513  0.1113
 5742TIP3    H217233   1.092   2.853   4.276 -0.5197 -1.7831 -0.7137
 5743TIP3   OH217234   0.317   4.388   2.479  0.2764  0.0203  0.2064
 5743TIP3    H117235   0.407   4.360   2.496  0.4486  1.2652  1.5250
 5743TIP3    H217236   0.263   4.332   2.535  0.1359 -1.1428 -1.0345
 5744TIP3   OH217237   0.588   4.556   4.767  0.0588 -0.2410  0.0281
 5744TIP3    H117238   0.626   4.617   4.703 -0.4884 -1.4017 -1.4617
 5744TIP3    H217239   0.633   4.473   4.750  0.0613 -0.5251  1.3329
 5745TIP3   OH217240   1.675   0.299   1.399  0.4791 -0.2194  0.1541
 5745TIP3    H117241   1.619   0.366   1.360  0.0770 -1.3302 -1.2619
 5745TIP3    H217242   1.634   0.216   1.375  1.4743 -1.0049  1.0602
 5746TIP3   OH217243   0.391   3.629   2.389 -0.1969 -0.2208 -0.2621
 5746TIP3    H117244   0.361   3.664   2.305 -1.3902  1.2498  0.7248
 5746TIP3    H217245   0.467   3.684   2.412 -0.1596 -0.3132 -0.1642
 5747TIP3   OH217246   1.679   4.079   4.195  0.9104 -0.3803 -0.1597
 5747TIP3    H117247   1.766   4.056   4.164  1.9934  0.4161  2.0629
 5747TIP3    H217248   1.672   4.036   4.280 -1.3234 -1.3004 -0.7318
 5748TIP3   OH217249   5.395   3.659   4.707  0.0146 -0.1445 -0.6846
 5748TIP3    H117250   5.393   3.580   4.761 -0.5967  0.1613 -0.2452
 5748TIP3    H217251   5.413   3.627   4.619 -3.6314 -1.2284 -1.2207
 5749TIP3   OH217252   4.727   0.061   4.335  0.0406 -0.1307 -0.2283
 5749TIP3    H117253   4.808   0.079   4.383  0.0473  1.3726 -0.7570
 5749TIP3    H217254   4.735  -0.030   4.308  1.1971 -0.2328  0.3910
 5750TIP3   OH217255   5.168   5.319   2.721 -0.0389  0.2228 -0.0090
 5750TIP3    H117256   5.253   5.278   2.735 -0.6800 -0.3907  2.6087
 5750TIP3    H217257   5.183   5.411   2.743  0.2323  0.3955 -0.8804
 5751TIP3   OH217258   5.145   5.797   4.065  0.2921 -0.1247  0.4814
 5751TIP3    H117259   5.238   5.779   4.077 -0.0659 -1.6945  1.2073
 5751TIP3    H217260   5.101   5.738   4.127 -1.2334 -0.2036 -0.6185
 5752TIP3   OH217261   2.608   0.820   1.036  0.2197 -0.3481  0.0579
 5752TIP3    H117262   2.577   0.730   1.025  1.0536 -0.4788 -1.4058
 5752TIP3    H217263   2.575   0.846   1.122 -1.0607 -1.6259 -0.0178
 5753TIP3   OH217264   4.468   1.444   4.151  0.6541  0.0632 -0.4084
 5753TIP3    H117265   4.481   1.513   4.086  2.8582 -0.8359 -1.0213
 5753TIP3    H217266   4.555   1.405   4.163 -0.5304 -2.8685 -0.3970
 5754TIP3   OH217267   4.242   0.735   4.569 -0.2322 -0.2238 -0.6344
 5754TIP3    H117268   4.331   0.753   4.600 -0.8271  1.4305  0.2498
 5754TIP3    H217269   4.253   0.709   4.478  1.1949 -0.5423 -0.3963
 5755TIP3   OH217270   3.676   4.161   4.074 -0.2473  0.0457  0.2291
 5755TIP3    H117271   3.764   4.128   4.094 -0.4147  0.1540  1.2256
 5755TIP3    H217272   3.673   4.165   3.979  0.9780  0.4349  0.1826
 5756TIP3   OH217273   3.678   4.023   1.559  0.3787 -0.4910 -0.5582
 5756TIP3    H117274   3.696   4.097   1.502 -0.0658 -1.4863 -2.0450
 5756TIP3    H217275   3.704   4.053   1.646 -1.3498  1.9994 -0.8014
 5757TIP3   OH217276   5.949   3.659   3.637  0.3206  0.5992 -0.6136
 5757TIP3    H117277   5.928   3.567   3.620 -1.5626  1.1782 -1.6427
 5757TIP3    H217278   6.033   3.656   3.682  1.2754 -1.5351 -2.3350
 5758TIP3   OH217279   0.735   4.106   4.232  0.4374 -0.2708 -0.0004
 5758TIP3    H117280   0.760   4.196   4.209  2.2865 -0.5582  0.7340
 5758TIP3    H217281   0.645   4.114   4.265  0.4624  1.2615 -0.2264
 5759TIP3   OH217282   2.896   4.903   1.330 -0.5393 -0.3274  0.0117
 5759TIP3    H117283   2.808   4.866   1.323 -0.3388 -0.7045 -0.5914
 5759TIP3    H217284   2.955   4.828   1.327 -0.1332  0.0032 -1.1701
 5760TIP3   OH217285   1.877   0.920   1.051  0.0083 -0.3801  0.3537
 5760TIP3    H117286   1.853   0.920   1.144  1.4572 -1.2654  0.7609
 5760TIP3    H217287   1.808   0.870   1.008 -2.0049  2.0218  0.5170
 5761TIP3   OH217288   4.887   3.715   4.954  0.0608  0.0139  0.4562
 5761TIP3    H117289   4.865   3.760   4.873 -0.7760 -0.9478  0.1215
 5761TIP3    H217290   4.853   3.626   4.942  1.9460 -0.8413  0.9378
 5762TIP3   OH217291   4.792   0.372   1.441  0.1751 -0.0965  0.6469
 5762TIP3    H117292   4.884   0.393   1.426  0.3411 -1.0475  0.2616
 5762TIP3    H217293   4.790   0.335   1.530  0.2956 -0.8213  0.3488
 5763TIP3   OH217294   5.235   0.828   2.592 -0.1870  0.3911 -0.5647
 5763TIP3    H117295   5.273   0.914   2.577 -0.5165  0.3546 -1.6524
 5763TIP3    H217296   5.231   0.820   2.687 -1.4244  2.1444 -0.4172
 5764TIP3   OH217297   4.394   1.608   2.727 -0.0509 -0.4527  0.0732
 5764TIP3    H117298   4.311   1.601   2.680  0.6398 -2.6379 -0.9645
 5764TIP3    H217299   4.376   1.571   2.813 -0.5910  0.8123  0.5178
 5765TIP3   OH217300   6.096   2.728   1.798 -0.0340  0.4687  0.1378
 5765TIP3    H117301   6.095   2.822   1.816  2.8089  0.2831  1.8962
 5765TIP3    H217302   6.125   2.721   1.707  2.3664  1.3670  0.7441
 5766TIP3   OH217303   4.222   0.359   4.437  0.0677 -0.2183  0.2690
 5766TIP3    H117304   4.317   0.347   4.434  0.1512  0.4518 -2.3963
 5766TIP3    H217305   4.188   0.273   4.460  1.2892 -0.6418  0.5952
 5767TIP3   OH217306   3.578   1.697   3.269  0.4365  0.1761 -0.1496
 5767TIP3    H117307   3.662   1.725   3.306  0.2509 -0.7372  1.0440
 5767TIP3    H217308   3.513   1.734   3.329  0.0627 -0.3081 -0.2549
 5768TIP3   OH217309   0.620   3.522   4.276  0.4852  0.1905  0.0086
 5768TIP3    H117310   0.532   3.553   4.298  0.7092  0.8601  0.0081
 5768TIP3    H217311   0.636   3.558   4.188  0.5745 -0.3330 -0.1932
 5769TIP3   OH217312   3.842   2.603   2.981 -0.5203 -0.4644 -1.0188
 5769TIP3    H117313   3.926   2.608   2.935 -0.1362  1.8972 -0.2218
 5769TIP3    H217314   3.860   2.550   3.058  0.2604  0.0037 -0.8636
 5770TIP3   OH217315   4.982   1.425   1.033 -0.0883  0.1779 -0.1736
 5770TIP3    H117316   4.927   1.374   0.973 -0.8643 -0.1570  0.7888
 5770TIP3    H217317   4.943   1.410   1.119  0.5477  1.2547  0.3192
 5771TIP3   OH217318   0.946   2.192   5.000  0.3686 -0.0310 -0.3758
 5771TIP3    H117319   0.913   2.156   5.082  1.4266  0.4106  0.2586
 5771TIP3    H217320   1.014   2.131   4.972  0.2993  0.0425 -0.7071
 5772TIP3   OH217321   2.701   1.927   3.474 -0.1283 -0.5674  0.0964
 5772TIP3    H117322   2.625   1.906   3.419 -0.9037 -0.8861  1.2615
 5772TIP3    H217323   2.762   1.855   3.459 -0.8198 -1.2559  0.5281
 5773TIP3   OH217324   1.382   3.825   3.398 -0.6166  0.0532 -0.1060
 5773TIP3    H117325   1.301   3.778   3.380 -0.0675 -0.5776 -0.9639
 5773TIP3    H217326   1.449   3.756   3.403 -0.4523  0.2693  2.9650
 5774TIP3   OH217327   2.547   2.321   0.492  0.0568  0.0797  1.1199
 5774TIP3    H117328   2.602   2.258   0.445 -2.0809 -0.8103 -0.3791
 5774TIP3    H217329   2.581   2.407   0.467  1.4699 -0.4364  1.1972
 5775TIP3   OH217330   3.405   5.964   2.512 -0.4232 -0.4856 -0.3022
 5775TIP3    H117331   3.390   5.871   2.498 -0.4532 -0.8599  1.8085
 5775TIP3    H217332   3.319   5.999   2.535 -0.2460 -0.1365 -0.1585
 5776TIP3   OH217333   3.704   2.331   0.966  0.0162  0.1787  0.0459
 5776TIP3    H117334   3.780   2.388   0.967  0.0544  0.1357 -0.3950
 5776TIP3    H217335   3.727   2.261   0.904  0.5141 -1.0522  1.5546
 5777TIP3   OH217336   4.166   3.340   0.696 -0.4187  0.2319 -0.0266
 5777TIP3    H117337   4.150   3.252   0.732 -1.3220  0.4437  0.1181
 5777TIP3    H217338   4.212   3.387   0.766  1.9496 -0.7217 -0.8437
 5778TIP3   OH217339   2.975   2.855   3.812 -0.1373 -0.4185  0.2158
 5778TIP3    H117340   2.964   2.945   3.843 -1.1907 -0.0496 -1.1222
 5778TIP3    H217341   2.887   2.819   3.810  0.2289 -1.3490  0.3175
 5779TIP3   OH217342   1.300   3.063   2.304 -0.4426 -0.1921  0.0157
 5779TIP3    H117343   1.349   3.133   2.346  1.3140 -0.8137 -0.8894
 5779TIP3    H217344   1.308   3.081   2.210  0.2490 -1.6945 -0.2496
 5780TIP3   OH217345   5.942   1.157   3.327 -0.6375  0.2860 -0.1399
 5780TIP3    H117346   5.931   1.091   3.395  0.5505  1.4537  1.2248
 5780TIP3    H217347   5.889   1.231   3.355  0.0805  0.8875 -0.3214
 5781TIP3   OH217348   5.250   5.048   0.032  0.2958  0.0192 -0.4081
 5781TIP3    H117349   5.330   5.073  -0.015 -1.4148  0.6539 -3.1714
 5781TIP3    H217350   5.212   5.131   0.061 -0.2382 -0.1237 -0.6785
 5782TIP3   OH217351   0.384   0.630   0.483  0.2631 -0.1212  0.4988
 5782TIP3    H117352   0.359   0.690   0.412  1.2044 -0.0859  0.1772
 5782TIP3    H217353   0.347   0.670   0.562 -0.0735  0.2924  0.1425
 5783TIP3   OH217354   6.100   3.412   1.619 -0.3120 -0.2561 -0.2121
 5783TIP3    H117355   6.032   3.365   1.666 -1.9081  1.9402 -0.1820
 5783TIP3    H217356   6.064   3.426   1.531 -0.3899  1.7753  0.0873
 5784TIP3   OH217357   1.467   1.109   4.589 -0.4105 -0.4839 -0.2043
 5784TIP3    H117358   1.505   1.153   4.665 -0.5570 -1.5907  0.5319
 5784TIP3    H217359   1.495   1.018   4.598 -1.0942 -0.7871 -1.0459
 5785TIP3   OH217360   3.961   3.292   1.223 -0.4714 -0.6493  0.1192
 5785TIP3    H117361   3.961   3.204   1.185 -0.9285 -0.6487  0.1025
 5785TIP3    H217362   3.868   3.313   1.232 -0.4496  1.0192 -2.6218
 5786TIP3   OH217363   0.421   4.446   1.379  0.5121 -0.8492  0.3505
 5786TIP3    H117364   0.397   4.392   1.304  0.2595  0.5413 -0.5858
 5786TIP3    H217365   0.451   4.382   1.445 -1.0965 -2.2540 -0.1938
 5787TIP3   OH217366   6.240   2.479   3.149 -0.6035 -0.3189 -0.0677
 5787TIP3    H117367   6.214   2.396   3.189 -0.8458 -0.6112 -0.8001
 5787TIP3    H217368   6.183   2.545   3.189 -0.0254 -0.4172  0.9272
 5788TIP3   OH217369   5.689   5.802   0.282  0.0668  0.1057 -0.0017
 5788TIP3    H117370   5.699   5.707   0.290 -0.5172  0.0902  0.6592
 5788TIP3    H217371   5.763   5.838   0.332 -0.6955 -0.0069  1.2326
 5789TIP3   OH217372   2.096   3.165   1.977  0.2885 -0.4615  0.1095
 5789TIP3    H117373   2.056   3.241   1.934  0.7981 -0.4095 -0.2774
 5789TIP3    H217374   2.188   3.190   1.989  0.4744 -1.0475 -0.0956
 5790TIP3   OH217375   6.243   1.421   1.052 -0.1204  0.0104  0.5616
 5790TIP3    H117376   6.180   1.418   0.980  1.1014  1.9038 -0.7049
 5790TIP3    H217377   6.250   1.331   1.082 -0.8032 -0.8297 -1.6137
 5791TIP3   OH217378   3.589   4.703   1.527 -0.8118 -0.5497  0.0651
 5791TIP3    H117379   3.676   4.665   1.538 -0.9337 -0.3135  2.4191
 5791TIP3    H217380   3.535   4.631   1.493 -0.1129 -1.2529  0.4178
 5792TIP3   OH217381   5.052   3.844   3.559  0.2883 -0.1267 -0.1836
 5792TIP3    H117382   5.038   3.778   3.627 -0.7499 -0.7699 -1.0052
 5792TIP3    H217383   5.023   3.926   3.600 -0.2068 -0.4884  0.1972
 5793TIP3   OH217384   5.101   5.711   4.882 -0.4368  0.0922  0.1325
 5793TIP3    H117385   5.022   5.682   4.928 -0.8269  0.0865 -0.5287
 5793TIP3    H217386   5.069   5.748   4.800  0.2250  0.4101  0.0075
 5794TIP3   OH217387   2.550   0.153   3.366 -0.3082  0.0280  0.2430
 5794TIP3    H117388   2.456   0.166   3.372 -0.4697 -0.7162 -0.4882
 5794TIP3    H217389   2.561   0.058   3.358  0.2826  0.2490 -2.7125
 5795TIP3   OH217390   4.042   1.834   4.903  0.3313 -0.3232 -0.2178
 5795TIP3    H117391   4.042   1.744   4.873  0.6474 -0.6398  0.7082
 5795TIP3    H217392   4.046   1.828   4.998 -2.2025  0.6143  0.0390
 5796TIP3   OH217393   5.582   2.388   2.801 -0.3451  0.7889  0.2496
 5796TIP3    H117394   5.560   2.297   2.818 -0.6196  0.9490  0.7748
 5796TIP3    H217395   5.567   2.399   2.707  1.9516 -0.3242 -0.3288
 5797TIP3   OH217396   2.629   0.352   2.161  0.2914  0.5259  0.2081
 5797TIP3    H117397   2.536   0.330   2.171  0.1139  0.3601 -1.6126
 5797TIP3    H217398   2.659   0.300   2.087  1.3632  1.9624 -0.4184
 5798TIP3   OH217399   2.977   0.372   3.751 -0.5638 -0.1752 -0.2609
 5798TIP3    H117400   2.935   0.311   3.691 -0.1736  0.4039 -1.1433
 5798TIP3    H217401   2.932   0.359   3.834 -1.8942 -0.2019 -0.9579
 5799TIP3   OH217402   3.135   5.498   2.055  0.0932  0.8790 -0.6860
 5799TIP3    H117403   3.128   5.416   2.005 -0.8013  1.4671 -1.5606
 5799TIP3    H217404   3.229   5.515   2.058  0.4170 -0.8311  0.6300
 5800TIP3   OH217405   0.600   1.143   4.028 -0.9693 -0.0916 -0.3101
 5800TIP3    H117406   0.629   1.218   4.079 -0.4948  0.5858 -1.5401
 5800TIP3    H217407   0.676   1.084   4.027 -0.2887  0.7482 -1.7776
 5801TIP3   OH217408   0.099   5.729   2.565 -0.2677 -0.9544  0.1152
 5801TIP3    H117409   0.172   5.672   2.540  0.2600 -0.8064  1.2592
 5801TIP3    H217410   0.021   5.673   2.557 -0.1230 -0.9560 -1.6595
 5802TIP3   OH217411   6.138   4.908   4.041  0.0914 -0.5598  0.4743
 5802TIP3    H117412   6.075   4.977   4.063  0.5861 -0.0152  0.1856
 5802TIP3    H217413   6.127   4.895   3.946  0.5903 -0.2840  0.3761
 5803TIP3   OH217414   0.029   5.827   0.137  0.0970  0.8036 -0.2989
 5803TIP3    H117415   0.081   5.749   0.121 -0.6076  0.1516  0.4465
 5803TIP3    H217416   0.089   5.889   0.179  0.5198  0.4483 -0.3808
 5804TIP3   OH217417   3.344   1.453   4.813 -0.2636 -0.2740 -0.0798
 5804TIP3    H117418   3.271   1.403   4.777  0.3391 -0.7835 -0.6042
 5804TIP3    H217419   3.374   1.508   4.740 -1.0248  0.9992  0.5301
 5805TIP3   OH217420   6.193   2.441   1.803  0.1436  0.5145  0.3975
 5805TIP3    H117421   6.135   2.380   1.848  1.4260 -1.0227  0.0386
 5805TIP3    H217422   6.133   2.503   1.760 -1.3391 -1.7351 -1.0177
 5806TIP3   OH217423   4.323   0.181   4.971  0.4903 -0.5150  0.3952
 5806TIP3    H117424   4.405   0.169   5.018  0.7010  0.3833  0.2809
 5806TIP3    H217425   4.330   0.269   4.933 -1.5171  0.6186  2.3995
 5807TIP3   OH217426   5.580   3.118   1.767 -0.0952  0.7759  0.3272
 5807TIP3    H117427   5.577   3.214   1.759 -1.1468  0.6461 -1.3760
 5807TIP3    H217428   5.672   3.096   1.756 -0.1499  1.4531 -2.3295
 5808TIP3   OH217429   4.268   0.404   1.769  0.2896 -0.1207  0.5388
 5808TIP3    H117430   4.278   0.384   1.676  0.4118  0.7503  0.3567
 5808TIP3    H217431   4.347   0.453   1.793  0.3069 -0.4193  1.1280
 5809TIP3   OH217432   5.684   3.316   0.972 -0.1195  0.0105 -0.4549
 5809TIP3    H117433   5.644   3.240   1.013 -0.5809  0.6521  0.2981
 5809TIP3    H217434   5.644   3.319   0.885 -0.1076 -0.5952 -0.4883
 5810TIP3   OH217435   4.747   3.011   2.497  0.5985 -0.2864  0.1681
 5810TIP3    H117436   4.743   3.103   2.471  1.5151  0.5597  2.7884
 5810TIP3    H217437   4.822   3.006   2.556 -1.5451 -1.9334  2.9354
 5811TIP3   OH217438   4.362   2.261   1.826  0.1476  0.3675  0.0115
 5811TIP3    H117439   4.442   2.213   1.848  0.2160 -0.2852 -1.5375
 5811TIP3    H217440   4.356   2.256   1.730 -0.8035  1.9358 -0.0524
 5812TIP3   OH217441   0.654   4.217   0.558 -0.6184  0.1847  0.6150
 5812TIP3    H117442   0.651   4.291   0.619 -0.7497  0.7782 -0.0934
 5812TIP3    H217443   0.563   4.192   0.546 -0.6848  0.7169 -0.0888
 5813TIP3   OH217444   4.343   5.830   2.656 -0.1137 -0.6900  0.1069
 5813TIP3    H117445   4.304   5.778   2.727  1.3051  0.1782  1.5992
 5813TIP3    H217446   4.272   5.885   2.625 -0.6490 -0.6767  1.2847
 5814TIP3   OH217447   6.016   1.806   1.052 -0.3864 -0.1257  0.2647
 5814TIP3    H117448   5.937   1.822   1.000 -1.4624 -3.1135  0.8223
 5814TIP3    H217449   5.990   1.740   1.116  2.7859 -1.8986 -0.1199
 5815TIP3   OH217450   6.093   2.985   4.615  0.1748  0.1724  0.2172
 5815TIP3    H117451   6.010   3.005   4.659  0.7811  1.2324  0.9149
 5815TIP3    H217452   6.079   3.015   4.525  0.2921  1.8237  0.7024
 5816TIP3   OH217453   1.676   2.911   2.197 -0.4000  0.0187  0.0229
 5816TIP3    H117454   1.755   2.929   2.248  0.0952 -0.9628 -0.3535
 5816TIP3    H217455   1.687   2.962   2.117 -0.3920  0.2752  0.1854
 5817TIP3   OH217456   5.790   2.774   4.703 -0.2421  0.3792  0.1385
 5817TIP3    H117457   5.765   2.787   4.612 -0.9659  0.8470  0.3912
 5817TIP3    H217458   5.812   2.861   4.735 -1.7383  0.5288  0.8880
 5818TIP3   OH217459   4.746   2.985   4.596 -0.0695 -0.1267 -0.7670
 5818TIP3    H117460   4.763   3.047   4.525 -1.5972  0.4201 -0.6893
 5818TIP3    H217461   4.682   3.029   4.652 -0.6841 -1.4950 -0.3423
 5819TIP3   OH217462   6.198   5.340   3.972 -0.0411 -0.1461  0.1571
 5819TIP3    H117463   6.128   5.347   4.037  0.2628  1.3501  0.3391
 5819TIP3    H217464   6.278   5.359   4.020  0.0636  2.3891 -0.8804
 5820TIP3   OH217465   1.428   5.562   3.508  0.2738 -0.5344 -0.2508
 5820TIP3    H117466   1.407   5.565   3.601  0.4880 -0.7739 -0.1934
 5820TIP3    H217467   1.357   5.610   3.465  0.6094  0.2969  0.1137
 5821TIP3   OH217468   3.343   2.350   3.668 -0.5465  0.3673 -0.2133
 5821TIP3    H117469   3.313   2.411   3.601 -0.5649  0.0188 -0.5275
 5821TIP3    H217470   3.417   2.394   3.710  0.1892  0.1373 -1.2168
 5822TIP3   OH217471   2.762   2.274   1.557  0.2909  0.0232 -0.2516
 5822TIP3    H117472   2.837   2.328   1.534  0.6272  0.3811  1.5673
 5822TIP3    H217473   2.799   2.192   1.587 -0.1482 -0.5357 -1.1799
 5823TIP3   OH217474   5.904   3.734   4.821  0.4896  0.0698  0.5161
 5823TIP3    H117475   5.814   3.744   4.789 -0.1212 -1.2427  1.7133
 5823TIP3    H217476   5.951   3.695   4.748  0.1633  0.9981 -0.2115
 5824TIP3   OH217477   4.031   1.076   1.595 -0.4780  0.4519 -0.5642
 5824TIP3    H117478   4.063   1.008   1.535  0.4560  1.1772 -0.9106
 5824TIP3    H217479   4.106   1.095   1.652 -0.2231  2.2249 -1.4179
 5825TIP3   OH217480   2.717   0.617   2.447  0.4209  0.2906  0.1647
 5825TIP3    H117481   2.787   0.675   2.418  0.0471  0.2027 -0.9465
 5825TIP3    H217482   2.700   0.644   2.537  0.9791  1.1914  0.0164
 5826TIP3   OH217483   5.843   2.700   1.323  0.1257 -0.3937 -0.1365
 5826TIP3    H117484   5.812   2.778   1.279 -1.0401 -0.7941 -0.0622
 5826TIP3    H217485   5.927   2.680   1.282 -0.6819 -0.4554 -1.8094
 5827TIP3   OH217486   4.326   3.954   1.602 -0.1543  0.1508 -0.0797
 5827TIP3    H117487   4.245   4.001   1.582  1.2580  2.5047 -0.6829
 5827TIP3    H217488   4.333   3.956   1.697 -0.8522 -0.2102 -0.0145
 5828TIP3   OH217489   4.593   1.083   0.669  0.2786  0.2467 -0.2933
 5828TIP3    H117490   4.515   1.029   0.686  0.6006 -0.5102 -1.1484
 5828TIP3    H217491   4.561   1.173   0.675 -0.6226 -0.0516 -0.4038
 5829TIP3   OH217492   4.614   2.603   0.475 -0.5714 -0.1670 -0.1508
 5829TIP3    H117493   4.592   2.668   0.408 -1.4709 -0.2814  0.0275
 5829TIP3    H217494   4.671   2.650   0.536 -1.4939  0.5780  0.1709
 5830TIP3   OH217495   4.486   0.796   3.697  0.0227 -0.0813 -0.1448
 5830TIP3    H117496   4.568   0.759   3.663 -0.9133 -1.2807 -1.1569
 5830TIP3    H217497   4.464   0.740   3.772  0.8464  1.1264  1.0554
 5831TIP3   OH217498   3.030   5.299   0.298  0.2881  0.5259 -0.0900
 5831TIP3    H117499   3.033   5.393   0.317 -0.5437  0.9133 -1.6512
 5831TIP3    H217500   3.075   5.290   0.214  1.4907 -0.6781  0.6546
 5832TIP3   OH217501   0.452   1.604   4.408 -0.0229  0.2032 -0.0199
 5832TIP3    H117502   0.510   1.648   4.346 -0.5346  2.4103  0.9939
 5832TIP3    H217503   0.508   1.542   4.455  1.0561  0.8440 -0.4441
 5833TIP3   OH217504   1.619   1.804   1.118  0.0804  0.0935 -0.1420
 5833TIP3    H117505   1.573   1.782   1.038 -2.7785 -0.0194  1.4029
 5833TIP3    H217506   1.695   1.855   1.090 -0.8670  0.1355 -2.8607
 5834TIP3   OH217507   5.046   0.785   4.422  0.4394  0.4856  0.4733
 5834TIP3    H117508   5.060   0.789   4.517  0.4087  0.8468  0.4631
 5834TIP3    H217509   5.064   0.694   4.399 -1.2034 -0.0116  1.0829
 5835TIP3   OH217510   2.404   0.817   4.819 -0.1679  0.4643 -0.1213
 5835TIP3    H117511   2.468   0.774   4.763 -0.6058 -1.5649  0.8207
 5835TIP3    H217512   2.330   0.837   4.761  0.2077  0.2841 -0.6648
 5836TIP3   OH217513   6.032   4.432   0.842 -0.7704  0.1218  0.0829
 5836TIP3    H117514   6.026   4.386   0.925  0.8046  0.2692  0.2950
 5836TIP3    H217515   6.124   4.426   0.817 -0.9303  1.3784 -0.9132
 5837TIP3   OH217516   4.154   3.562   3.570  0.1949 -0.5192  0.1411
 5837TIP3    H117517   4.079   3.591   3.519  0.4558 -1.2904 -0.7176
 5837TIP3    H217518   4.186   3.641   3.613 -0.4121  0.0353 -0.3999
 5838TIP3   OH217519   0.939   0.859   1.522 -0.3995  0.5845  0.3449
 5838TIP3    H117520   0.943   0.832   1.430  2.4480  2.2895 -0.1415
 5838TIP3    H217521   0.901   0.947   1.519  0.2500  0.8777  0.7403
 5839TIP3   OH217522   2.046   0.064   1.091 -0.1639  0.0497 -0.0964
 5839TIP3    H117523   1.976   0.064   1.026 -0.9524  1.4558  0.7032
 5839TIP3    H217524   2.016   0.124   1.159  2.5078  2.0857 -0.5351
 5840TIP3   OH217525   5.293   5.095   2.214  0.4566 -0.3051  0.2304
 5840TIP3    H117526   5.343   5.057   2.142  0.3974 -1.1057  0.5900
 5840TIP3    H217527   5.228   5.151   2.173  1.1250  0.0959 -0.2815
 5841TIP3   OH217528   3.608   3.882   2.708 -0.3840 -0.0318  0.4488
 5841TIP3    H117529   3.675   3.813   2.713  1.1141  1.2440 -0.7463
 5841TIP3    H217530   3.528   3.841   2.740  0.9102 -1.7095  1.6904
 5842TIP3   OH217531   1.707   4.366   3.003  0.6507 -0.4347 -0.1917
 5842TIP3    H117532   1.734   4.450   3.041  2.2958 -0.7338 -0.5974
 5842TIP3    H217533   1.617   4.354   3.032  1.0627  0.4850  1.6027
 5843TIP3   OH217534   5.393   0.612   4.398  0.4968 -0.1580  0.4033
 5843TIP3    H117535   5.435   0.623   4.312  1.7343 -2.1432  0.6753
 5843TIP3    H217536   5.403   0.696   4.441 -0.0668  0.8628 -1.3560
 5844TIP3   OH217537   1.313   3.374   2.187  0.2464  0.0715 -0.4619
 5844TIP3    H117538   1.224   3.405   2.206  0.7515  1.6411 -0.5268
 5844TIP3    H217539   1.349   3.440   2.128  0.3819 -2.1902 -3.1027
 5845TIP3   OH217540   1.850   0.478   0.269 -0.2088  0.1835 -0.3588
 5845TIP3    H117541   1.837   0.508   0.359  1.2379 -2.1972  0.7462
 5845TIP3    H217542   1.928   0.525   0.239 -1.6252  2.2370 -1.0747
 5846TIP3   OH217543   1.343   1.238   1.376 -0.2597  0.4521 -0.9196
 5846TIP3    H117544   1.273   1.181   1.346 -2.1936  1.0939  1.8933
 5846TIP3    H217545   1.418   1.180   1.388 -1.9722 -1.5403  1.2897
 5847TIP3   OH217546   5.067   2.259   3.965  0.6561 -0.0032  0.4934
 5847TIP3    H117547   5.141   2.291   4.017  2.8655 -1.5613 -1.4736
 5847TIP3    H217548   5.081   2.297   3.879  0.3395 -1.9301 -0.4546
 5848TIP3   OH217549   0.804   3.076   4.822  0.6383 -0.0541  0.0579
 5848TIP3    H117550   0.757   3.103   4.901  0.7250 -0.0635  0.1146
 5848TIP3    H217551   0.802   3.152   4.765 -3.1463 -1.2860 -1.7841
 5849TIP3   OH217552   0.349   5.089   4.425 -0.1346 -0.0261  0.2799
 5849TIP3    H117553   0.390   5.086   4.339 -2.0363  1.8214 -0.8049
 5849TIP3    H217554   0.326   5.181   4.437  0.5479 -0.1480  3.0358
 5850TIP3   OH217555   0.146   2.797   0.189  0.0690  0.1284 -0.7603
 5850TIP3    H117556   0.109   2.709   0.199 -0.0911  0.1080 -1.4789
 5850TIP3    H217557   0.194   2.794   0.107  2.6496 -0.1765  0.6668
 5851TIP3   OH217558   5.384   1.456   1.110  0.0455  0.3519  0.0637
 5851TIP3    H117559   5.427   1.471   1.194  0.6685  0.8862 -0.3328
 5851TIP3    H217560   5.300   1.501   1.118  0.3074  0.8233  0.2378
 5852TIP3   OH217561   1.646   5.748   0.850 -0.1674  0.0399 -0.0357
 5852TIP3    H117562   1.739   5.770   0.851  0.2231 -1.4938 -0.0232
 5852TIP3    H217563   1.623   5.736   0.942 -0.4304  0.5463 -0.0279
 5853TIP3   OH217564   1.782   4.716   4.097  0.2507  0.3941  0.4907
 5853TIP3    H117565   1.732   4.797   4.113 -1.0428 -0.2401 -0.2198
 5853TIP3    H217566   1.778   4.669   4.181 -1.7684 -0.3804  0.0111
 5854TIP3   OH217567   1.695   2.563   1.854 -0.7013 -0.2403  0.4092
 5854TIP3    H117568   1.629   2.621   1.815 -0.6212  0.1138  0.7848
 5854TIP3    H217569   1.701   2.489   1.794  0.6808  1.0919 -1.1966
 5855TIP3   OH217570   4.223   1.090   4.912  0.0577  0.2055  0.0843
 5855TIP3    H117571   4.241   1.121   4.823  1.5336 -0.6179  0.0614
 5855TIP3    H217572   4.186   1.166   4.957  0.6552  1.0609 -0.8294
 5856TIP3   OH217573   3.762   2.550   4.112  0.0941 -0.0246 -0.1563
 5856TIP3    H117574   3.818   2.612   4.159  0.2342 -1.4850  1.7543
 5856TIP3    H217575   3.818   2.511   4.046  0.3079  1.0532 -0.6280
 5857TIP3   OH217576   0.108   5.617   1.089 -0.1293  0.0418  0.1330
 5857TIP3    H117577   0.196   5.624   1.053 -0.4807  0.5275 -0.6474
 5857TIP3    H217578   0.058   5.570   1.023 -0.4048 -0.4389  0.6736
 5858TIP3   OH217579   3.441   0.744   3.567 -0.1704 -0.2418 -0.3359
 5858TIP3    H117580   3.371   0.679   3.572  1.9591 -2.6844 -0.9036
 5858TIP3    H217581   3.515   0.699   3.528  2.7508  1.3224  2.8362
 5859TIP3   OH217582   5.116   1.330   4.631  0.1328  0.3235  0.0014
 5859TIP3    H117583   5.068   1.248   4.645 -0.0323  0.6378  1.5477
 5859TIP3    H217584   5.047   1.397   4.629  0.1782  0.3652 -2.2571
 5860TIP3   OH217585   1.756   4.594   4.342  0.0741  0.4552 -0.3754
 5860TIP3    H117586   1.766   4.501   4.361  1.0017  0.2503 -1.7279
 5860TIP3    H217587   1.668   4.615   4.372 -0.6078 -1.1606 -1.1099
 5861TIP3   OH217588   1.459   5.561   2.211  0.2003 -0.5807 -0.0897
 5861TIP3    H117589   1.425   5.477   2.179 -0.6770 -0.6994  1.0476
 5861TIP3    H217590   1.538   5.576   2.160  0.5535 -2.2668 -0.1249
 5862TIP3   OH217591   3.938   0.593   4.172 -1.2462  0.0577 -0.3651
 5862TIP3    H117592   3.924   0.684   4.199 -1.5252  0.0141 -0.3626
 5862TIP3    H217593   3.916   0.592   4.079 -0.1746  0.2337 -0.6348
 5863TIP3   OH217594   1.415   5.345   1.407 -0.2059 -0.2974 -0.4263
 5863TIP3    H117595   1.494   5.375   1.361 -0.0422  0.5793  0.4051
 5863TIP3    H217596   1.389   5.266   1.359  2.2049 -1.6838  0.3348
 5864TIP3   OH217597   3.942   3.203   2.604 -0.0823  0.4820  0.5498
 5864TIP3    H117598   4.028   3.213   2.645  1.1637 -1.4109 -1.4136
 5864TIP3    H217599   3.948   3.253   2.522 -0.2375 -0.9937 -0.3917
 5865TIP3   OH217600   1.257   1.091   4.382 -0.1569 -0.1816  0.4960
 5865TIP3    H117601   1.292   1.112   4.469 -2.7558 -0.6433  1.7477
 5865TIP3    H217602   1.263   0.996   4.376 -1.1676 -0.2704  0.7423
 5866TIP3   OH217603   5.858   0.996   4.158  0.2819 -0.4994 -0.0941
 5866TIP3    H117604   5.898   1.075   4.122  2.8545 -0.5258  2.3616
 5866TIP3    H217605   5.867   0.931   4.088  2.2712  0.2181 -0.5725
 5867TIP3   OH217606   3.982   3.022   1.125  0.0920  0.6878 -1.0739
 5867TIP3    H117607   3.930   2.974   1.060 -0.0119  0.8552 -1.1149
 5867TIP3    H217608   4.015   2.954   1.184  0.7133  0.4669 -1.6669
 5868TIP3   OH217609   4.493  -0.000   0.841 -0.1862  0.1581  0.5286
 5868TIP3    H117610   4.417   0.030   0.890 -0.3405 -0.1652  0.4917
 5868TIP3    H217611   4.515   0.073   0.784  1.9807  1.8401  3.2898
 5869TIP3   OH217612   3.209   3.448   3.874  0.4827 -0.3549  0.2533
 5869TIP3    H117613   3.180   3.357   3.882 -0.0857 -0.2988 -1.0013
 5869TIP3    H217614   3.130   3.500   3.890 -0.1271 -0.1943 -2.6944
 5870TIP3   OH217615   1.170   4.461   0.898 -0.0084 -0.1733 -0.0276
 5870TIP3    H117616   1.131   4.380   0.933  1.0225 -1.8291 -2.4527
 5870TIP3    H217617   1.146   4.461   0.806 -0.3496  2.6056 -0.0326
 5871TIP3   OH217618   5.872   5.130   3.923 -0.3816 -0.4660 -0.2598
 5871TIP3    H117619   5.836   5.215   3.898 -2.1432 -1.3331 -0.8266
 5871TIP3    H217620   5.887   5.138   4.017 -0.3344  0.5293 -0.3331
 5872TIP3   OH217621   2.262   2.999   3.421 -0.6217  0.2169 -0.0286
 5872TIP3    H117622   2.284   3.092   3.421  2.1819 -0.3702  0.1756
 5872TIP3    H217623   2.281   2.971   3.511 -0.3738 -0.7673 -0.3851
 5873TIP3   OH217624   5.422   2.947   1.642 -0.3536  0.0199  0.2433
 5873TIP3    H117625   5.498   3.004   1.655 -0.7549  0.2241  1.9632
 5873TIP3    H217626   5.383   2.978   1.560  0.3170  1.2028  0.3398
 5874TIP3   OH217627   2.443   5.524   0.220  0.7714  0.3947  0.2530
 5874TIP3    H117628   2.490   5.603   0.247  1.5572  0.2424 -0.6407
 5874TIP3    H217629   2.402   5.492   0.300 -0.1484  2.1008  0.5048
 5875TIP3   OH217630   4.941   2.273   1.459  0.0479 -0.0744 -0.2456
 5875TIP3    H117631   4.966   2.362   1.482  1.9297 -0.5589 -0.1973
 5875TIP3    H217632   4.971   2.262   1.369  1.9780 -1.3054  0.4632
 5876TIP3   OH217633   0.451   3.211   3.920  0.2054  0.5847  0.1102
 5876TIP3    H117634   0.377   3.161   3.883  1.8005 -0.8382 -1.3481
 5876TIP3    H217635   0.462   3.177   4.008  1.1142 -1.6061 -0.7805
 5877TIP3   OH217636   3.850   3.844   4.371 -0.2178  0.0164 -0.0429
 5877TIP3    H117637   3.854   3.904   4.297 -0.3898  0.0260 -0.0444
 5877TIP3    H217638   3.941   3.816   4.384 -0.1180  0.3696  0.0342
 5878TIP3   OH217639   2.615   5.649   3.074  0.3267 -0.3810  0.8132
 5878TIP3    H117640   2.629   5.715   3.005  0.0606  1.0711  2.0825
 5878TIP3    H217641   2.525   5.620   3.061 -0.7462  2.0250  2.2124
 5879TIP3   OH217642   4.912   4.034   1.656 -0.0016  0.1923 -0.5620
 5879TIP3    H117643   4.816   4.031   1.664 -0.0186  0.4222 -0.6770
 5879TIP3    H217644   4.942   4.072   1.739 -0.0411  0.5495 -0.7083
 5880TIP3   OH217645   6.103   4.956   0.543  0.2059  0.4879  0.0646
 5880TIP3    H117646   6.064   4.890   0.600 -0.1378  0.6149 -0.0207
 5880TIP3    H217647   6.089   4.923   0.454  0.9941  0.1502  0.0568
 5881TIP3   OH217648   2.532   5.419   5.012 -0.4169 -0.4659  0.3135
 5881TIP3    H117649   2.474   5.481   5.055  0.3083  0.0022  0.6355
 5881TIP3    H217650   2.576   5.373   5.084 -0.8369 -1.2565  0.0796
 5882TIP3   OH217651   1.890   2.171   2.908 -0.0218 -0.3080 -0.0120
 5882TIP3    H117652   1.818   2.221   2.868 -1.1351  0.6035  2.8523
 5882TIP3    H217653   1.958   2.236   2.923  0.4793 -0.6912 -0.5840
 5883TIP3   OH217654   3.181   1.156   3.598  0.2967  0.0801 -0.6663
 5883TIP3    H117655   3.240   1.123   3.531 -0.7213 -1.1283 -1.0090
 5883TIP3    H217656   3.230   1.147   3.680  0.3973 -1.4867 -0.8600
 5884TIP3   OH217657   2.482   5.062   0.310 -0.8078 -0.5037  0.1638
 5884TIP3    H117658   2.414   5.039   0.248 -1.2695 -0.3590  0.6058
 5884TIP3    H217659   2.444   5.134   0.361  0.1174  0.3935 -0.3649
 5885TIP3   OH217660   3.443   2.092   0.533 -0.0878  0.0871  0.1428
 5885TIP3    H117661   3.374   2.028   0.554  2.0117 -2.0355  1.1291
 5885TIP3    H217662   3.452   2.087   0.438 -0.2462 -0.7971  0.1655
 5886TIP3   OH217663   5.414   4.036   1.514 -0.6915 -0.7673  0.0411
 5886TIP3    H117664   5.431   4.128   1.494 -2.5485 -0.1007  1.2816
 5886TIP3    H217665   5.399   3.996   1.429  1.1106 -0.1914 -0.6085
 5887TIP3   OH217666   5.468   5.565   4.825 -0.2036  0.1004  0.9532
 5887TIP3    H117667   5.511   5.617   4.758 -1.2410 -1.5818 -1.1408
 5887TIP3    H217668   5.518   5.484   4.829 -2.4708 -1.5437 -0.9235
 5888TIP3   OH217669   4.188   0.348   0.565 -0.3160 -0.1047 -0.4243
 5888TIP3    H117670   4.147   0.421   0.519 -0.1974  0.2012 -0.0490
 5888TIP3    H217671   4.115   0.292   0.592 -0.4244  0.0020 -0.4983
 5889TIP3   OH217672   3.850   3.077   4.657 -0.3137  0.5762  0.2601
 5889TIP3    H117673   3.859   3.156   4.603 -0.3704  1.7035  1.8356
 5889TIP3    H217674   3.863   3.108   4.747  2.4757 -1.6694  0.7614
 5890TIP3   OH217675   6.194   5.726   4.395 -0.0957 -0.2254  0.0377
 5890TIP3    H117676   6.182   5.759   4.306  0.7123 -0.4062 -0.1457
 5890TIP3    H217677   6.253   5.789   4.437 -0.0246 -0.4405  0.2692
 5891TIP3   OH217678   5.770   0.056   4.842 -0.0687 -0.3924 -0.2284
 5891TIP3    H117679   5.751   0.036   4.750 -0.3063 -2.3741  0.1944
 5891TIP3    H217680   5.865   0.071   4.844 -0.2412  0.9705 -0.9750
 5892TIP3   OH217681   0.234   1.961   3.468 -0.4551 -0.1253  0.1255
 5892TIP3    H117682   0.220   2.030   3.532 -2.0579 -1.0385  0.8016
 5892TIP3    H217683   0.156   1.963   3.412  0.2384 -0.3180 -0.8972
 5893TIP3   OH217684   0.594   4.217   3.841 -0.1051 -0.2146  0.2037
 5893TIP3    H117685   0.684   4.250   3.841 -0.1107 -0.1948 -0.0473
 5893TIP3    H217686   0.564   4.231   3.751  0.1299 -1.5771 -0.1069
 5894TIP3   OH217687   1.493   4.451   2.805  0.3810  0.5860 -0.3399
 5894TIP3    H117688   1.500   4.384   2.873 -0.9192 -1.5158 -2.1808
 5894TIP3    H217689   1.482   4.533   2.854  2.8696 -0.3283  2.0013
 5895TIP3   OH217690   2.609   5.805   5.110 -0.0756  0.4011 -0.0049
 5895TIP3    H117691   2.608   5.824   5.204  0.4889  0.0421  0.0797
 5895TIP3    H217692   2.685   5.748   5.098 -0.1958  0.3720 -0.6679
 5896TIP3   OH217693   4.759   5.118   4.020 -0.3993  0.0348  0.5463
 5896TIP3    H117694   4.797   5.062   3.953  0.8938 -0.4830  1.6627
 5896TIP3    H217695   4.787   5.078   4.103 -1.2237  1.1408  1.3901
 5897TIP3   OH217696   0.804   5.201   0.487 -0.0527  0.1161  0.3741
 5897TIP3    H117697   0.776   5.265   0.422 -2.0603  0.2040  1.2534
 5897TIP3    H217698   0.812   5.251   0.568  1.0742 -0.2563  0.5196
 5898TIP3   OH217699   6.265   1.862   2.651 -0.1974 -0.6043 -0.6407
 5898TIP3    H117700   6.241   1.939   2.703  0.5238 -0.1099 -1.0187
 5898TIP3    H217701   6.328   1.815   2.706  1.9010  0.8152 -1.6858
 5899TIP3   OH217702   3.014   4.399   5.053  0.2221  0.1067 -0.1102
 5899TIP3    H117703   3.099   4.424   5.018  0.6660 -0.6853  0.3597
 5899TIP3    H217704   2.957   4.389   4.976  0.2546  1.6330 -0.3656
 5900TIP3   OH217705   2.710   0.372   2.908  0.1690  0.2008 -0.3211
 5900TIP3    H117706   2.638   0.319   2.874  0.4383  0.2064 -0.9060
 5900TIP3    H217707   2.716   0.348   3.001 -0.6199  0.2395 -0.2494
 5901TIP3   OH217708   0.652   1.694   3.668  0.1143  0.2001  0.1712
 5901TIP3    H117709   0.582   1.700   3.602  0.8520 -0.9372 -0.7464
 5901TIP3    H217710   0.721   1.750   3.635  0.1308  0.3556  0.4621
 5902TIP3   OH217711   5.102   5.773   2.892  0.0356  0.7992 -0.7027
 5902TIP3    H117712   5.066   5.761   2.804  1.1911 -0.5147 -1.0359
 5902TIP3    H217713   5.174   5.834   2.880  1.2721 -0.6688 -1.0033
 5903TIP3   OH217714   1.787   2.354   0.960  0.3355  0.2239 -0.5680
 5903TIP3    H117715   1.848   2.427   0.949 -0.8047  1.5970  1.6189
 5903TIP3    H217716   1.704   2.395   0.981 -0.0366 -1.6986  2.1022
 5904TIP3   OH217717   0.641   2.228   2.780 -0.1153 -0.2455  0.0374
 5904TIP3    H117718   0.579   2.169   2.737 -0.4183  1.1819 -1.5883
 5904TIP3    H217719   0.594   2.260   2.857 -1.4305  0.7692 -1.1352
 5905TIP3   OH217720   1.390   5.141   5.141  0.1919  0.7162  0.1853
 5905TIP3    H117721   1.380   5.134   5.235  0.9111  2.9496  0.5010
 5905TIP3    H217722   1.477   5.181   5.129  0.0635  0.5975 -1.4038
 5906TIP3   OH217723   3.263   1.046   4.213  0.4683 -0.6798 -0.3949
 5906TIP3    H117724   3.336   1.052   4.151  0.1366  0.7348 -0.6783
 5906TIP3    H217725   3.240   0.953   4.213  2.7531 -1.3092  0.2905
 5907TIP3   OH217726   3.958   2.756   1.641  0.1878  0.0783  0.5644
 5907TIP3    H117727   3.873   2.781   1.677  0.0367  1.6376 -0.7409
 5907TIP3    H217728   4.006   2.717   1.714 -1.9537 -1.6872  1.1110
 5908TIP3   OH217729   4.366   5.910   1.648  0.1897 -0.2467  0.4687
 5908TIP3    H117730   4.395   5.948   1.565 -0.3846 -1.3362 -0.2476
 5908TIP3    H217731   4.395   5.818   1.644 -2.3541 -1.1094  0.1861
 5909TIP3   OH217732   1.222   0.486   4.989  0.4071  0.1245 -0.0456
 5909TIP3    H117733   1.297   0.432   4.966 -0.7361 -1.4306 -0.3012
 5909TIP3    H217734   1.252   0.576   4.978  2.4582 -0.4337  0.6475
 5910TIP3   OH217735   2.710   2.657   3.501 -0.0653  0.2486  0.1236
 5910TIP3    H117736   2.666   2.666   3.586 -0.6443  0.1956 -0.1625
 5910TIP3    H217737   2.803   2.661   3.522 -0.1620 -0.9203  0.8993
 5911TIP3   OH217738   4.132   2.589  -0.020 -0.2860  0.0740  0.1164
 5911TIP3    H117739   4.110   2.508   0.027 -0.3356  0.4055  0.6666
 5911TIP3    H217740   4.057   2.646  -0.006  1.3619  1.7210  3.1308
 5912TIP3   OH217741   1.465   5.878   4.664 -0.0002  0.2876  0.7153
 5912TIP3    H117742   1.524   5.941   4.706 -0.7219  2.3949 -1.2670
 5912TIP3    H217743   1.420   5.836   4.737  0.7464  1.8330  2.1357
 5913TIP3   OH217744   1.686   4.608   2.505 -0.0218 -0.4428 -0.6344
 5913TIP3    H117745   1.631   4.686   2.509  1.0566  0.3336 -0.4606
 5913TIP3    H217746   1.726   4.611   2.418  0.0086 -0.8121 -0.6341
 5914TIP3   OH217747   2.935   2.792   3.111  0.6162  0.5182  0.0363
 5914TIP3    H117748   2.981   2.709   3.113  0.4531  0.3756 -1.1377
 5914TIP3    H217749   2.877   2.786   3.035 -0.3135  1.2279  0.6569
 5915TIP3   OH217750   4.693   1.873   4.742  0.6024  0.2288  0.4183
 5915TIP3    H117751   4.620   1.818   4.772  1.5182 -1.4701 -0.3627
 5915TIP3    H217752   4.661   1.912   4.661  1.6603 -3.2740 -1.8887
 5916TIP3   OH217753   0.860   2.754   1.560 -0.2483  0.3247  0.1631
 5916TIP3    H117754   0.807   2.729   1.636 -1.7100 -0.5986 -1.1006
 5916TIP3    H217755   0.828   2.841   1.535  0.3171  0.6822  0.6439
 5917TIP3   OH217756   6.053   1.351   1.524  0.1932 -0.0970  0.8781
 5917TIP3    H117757   6.104   1.292   1.467  0.0452 -0.9675  1.6198
 5917TIP3    H217758   6.054   1.435   1.478 -1.8827 -1.2983 -1.6389
 5918TIP3   OH217759   0.142   3.444   3.353 -0.3759  0.3313 -0.0839
 5918TIP3    H117760   0.195   3.374   3.315  0.1224 -0.0661  1.2927
 5918TIP3    H217761   0.169   3.448   3.445 -2.7059  0.1269  0.6794
 5919TIP3   OH217762   6.083   2.652   3.267 -0.4350  0.5006 -0.0570
 5919TIP3    H117763   5.992   2.680   3.278 -0.7541 -0.0476 -1.1708
 5919TIP3    H217764   6.127   2.729   3.231 -0.4228  0.8003  0.5822
 5920TIP3   OH217765   3.055   3.507   4.568  0.1487  0.1919 -1.0012
 5920TIP3    H117766   3.045   3.594   4.530  1.0080  0.3043 -0.9721
 5920TIP3    H217767   3.145   3.503   4.598 -0.0513 -0.4932 -0.4510
 5921TIP3   OH217768   5.180   0.790   0.442  0.1691  0.1328  0.0870
 5921TIP3    H117769   5.177   0.847   0.366 -1.7385  0.4513  0.3496
 5921TIP3    H217770   5.217   0.708   0.410  0.1445  0.5392 -0.9897
 5922TIP3   OH217771   2.477   0.198   3.907  0.3089  0.5829 -0.3311
 5922TIP3    H117772   2.479   0.141   3.984  0.3636 -0.1417 -0.8609
 5922TIP3    H217773   2.492   0.286   3.942 -0.1539  0.3274  0.5445
 5923TIP3   OH217774   1.639   2.873   3.869 -0.3859  0.2271  0.0294
 5923TIP3    H117775   1.677   2.810   3.931  0.4876 -1.0184 -1.6830
 5923TIP3    H217776   1.545   2.854   3.870 -0.0118 -2.2313 -1.5156
 5924TIP3   OH217777   1.427   3.841   2.677  0.1641 -0.3092 -0.7363
 5924TIP3    H117778   1.436   3.801   2.763 -0.5979 -0.9444 -0.9342
 5924TIP3    H217779   1.338   3.818   2.650  0.0431  0.7400 -1.2606
 5925TIP3   OH217780   3.623   2.455   1.664 -0.5171  0.1813  0.3642
 5925TIP3    H117781   3.702   2.407   1.686 -0.9866 -0.6270  0.3187
 5925TIP3    H217782   3.563   2.438   1.737 -0.7320  0.5952  0.2887
 5926TIP3   OH217783   4.011   4.722   4.449  0.1580 -0.3341  0.4475
 5926TIP3    H117784   3.939   4.697   4.507 -0.4909 -1.7127 -0.9065
 5926TIP3    H217785   4.012   4.818   4.452 -1.7564 -0.2834  0.4467
 5927TIP3   OH217786   0.758   3.145   0.799  0.3684  0.2218  0.3235
 5927TIP3    H117787   0.840   3.183   0.767  1.1366 -2.0903 -0.5893
 5927TIP3    H217788   0.784   3.081   0.865 -0.8337  0.4489  1.0686
 5928TIP3   OH217789   5.898   3.665   0.879 -0.2776 -0.6088 -0.3997
 5928TIP3    H117790   5.816   3.704   0.906 -1.1552 -2.3840 -0.3381
 5928TIP3    H217791   5.960   3.688   0.948 -0.4069  1.5784 -0.9361
 5929TIP3   OH217792   5.912   0.361   3.814  0.1909  0.0586  0.7970
 5929TIP3    H117793   5.944   0.429   3.756 -1.0377  0.2724  0.3417
 5929TIP3    H217794   5.831   0.397   3.851  0.6362 -0.3085  2.1953
 5930TIP3   OH217795   4.797   0.794   4.309 -0.1355  0.9437  0.0215
 5930TIP3    H117796   4.786   0.721   4.249 -0.5143  1.0197 -0.0060
 5930TIP3    H217797   4.887   0.786   4.341 -0.4356 -0.0386  0.6718
 5931TIP3   OH217798   2.869   0.382   1.697 -0.3093 -0.8379  0.2532
 5931TIP3    H117799   2.782   0.343   1.706  0.2301 -2.1485 -0.0403
 5931TIP3    H217800   2.869   0.454   1.761 -1.2403 -1.4744  1.0140
 5932TIP3   OH217801   1.142   5.457   1.901  0.3893  0.0815  0.4624
 5932TIP3    H117802   1.051   5.448   1.872  0.9609  0.2256 -1.4410
 5932TIP3    H217803   1.136   5.456   1.997 -1.4430 -1.4562  0.3801
 5933TIP3   OH217804   5.588   0.730   3.511  0.2793 -0.3658  0.1545
 5933TIP3    H117805   5.524   0.706   3.579  1.0546 -0.9307  0.7084
 5933TIP3    H217806   5.541   0.791   3.454 -0.9451 -1.2269  0.2034
 5934TIP3   OH217807   2.084   5.348   3.247 -0.1886 -0.0900  0.3531
 5934TIP3    H117808   2.119   5.436   3.259  0.5462 -0.0127 -1.9096
 5934TIP3    H217809   2.141   5.292   3.299  1.1421  0.4710 -0.4543
 5935TIP3   OH217810   1.674   1.399   4.374 -0.2235  0.3592 -0.3535
 5935TIP3    H117811   1.588   1.415   4.413  0.3466  1.1029  0.6405
 5935TIP3    H217812   1.731   1.464   4.414  0.5217  0.7920 -2.0488
 5936TIP3   OH217813   1.814   5.644   3.792 -0.4432  0.1884 -0.0114
 5936TIP3    H117814   1.723   5.671   3.801 -0.6066 -0.9851  2.7574
 5936TIP3    H217815   1.810   5.549   3.786  0.5818  0.1717 -0.7264
 5937TIP3   OH217816   5.972   0.769   1.010 -0.2730  0.3759 -0.0056
 5937TIP3    H117817   6.044   0.710   0.990 -0.6709 -0.3818  0.7388
 5937TIP3    H217818   5.993   0.850   0.963 -0.6506 -0.9389 -2.6571
 5938TIP3   OH217819   3.501   5.105   2.219  0.1396  0.4450 -0.3137
 5938TIP3    H117820   3.596   5.113   2.216  0.2073 -0.3837 -0.8872
 5938TIP3    H217821   3.479   5.058   2.138 -0.8755  1.6753 -0.7663
 5939TIP3   OH217822   4.103   1.158   3.826 -0.6847 -0.3762 -0.1206
 5939TIP3    H117823   4.125   1.155   3.919 -2.0552  0.0100  0.2426
 5939TIP3    H217824   4.155   1.088   3.787  1.4444  0.7378  0.5716
 5940TIP3   OH217825   1.022   1.825   1.953  0.2618 -0.4264  0.0036
 5940TIP3    H117826   0.947   1.884   1.956 -0.3535 -1.0310 -1.7363
 5940TIP3    H217827   1.097   1.881   1.971 -0.5170  0.3803  0.8609
 5941TIP3   OH217828   0.560   1.840   3.906 -0.1601 -1.3287 -0.1633
 5941TIP3    H117829   0.620   1.854   3.979 -0.2928  1.2778 -0.4485
 5941TIP3    H217830   0.609   1.786   3.844  0.7188 -1.8079  0.9244
 5942TIP3   OH217831   4.114   3.799   3.350  0.0100 -0.8149  0.4872
 5942TIP3    H117832   4.038   3.741   3.354 -1.1175  0.6343  0.8470
 5942TIP3    H217833   4.092   3.861   3.281  1.4331 -1.1115 -0.2598
 5943TIP3   OH217834   5.098   1.323   3.365  0.1713 -0.5502  0.4298
 5943TIP3    H117835   5.057   1.403   3.397  1.0454 -0.3762  1.1503
 5943TIP3    H217836   5.077   1.321   3.272  0.2330  0.5719  0.3752
 5944TIP3   OH217837   1.325   0.636   3.183 -0.1485 -0.4707  0.3459
 5944TIP3    H117838   1.272   0.618   3.105 -1.0310 -2.6834  1.3961
 5944TIP3    H217839   1.292   0.720   3.216  0.7376  0.9179 -1.9823
 5945TIP3   OH217840   1.314   2.149   0.315 -0.5785 -0.2068  0.2413
 5945TIP3    H117841   1.231   2.103   0.327  0.6426 -2.6915 -0.1414
 5945TIP3    H217842   1.303   2.232   0.362 -3.2539 -0.4250  0.1442
 5946TIP3   OH217843   1.091   1.691   3.711  0.7525  0.0376  0.4006
 5946TIP3    H117844   1.175   1.693   3.666  0.4337  0.6314 -0.1976
 5946TIP3    H217845   1.101   1.752   3.784  1.7759 -2.0723  2.1327
 5947TIP3   OH217846   3.282   3.470   4.734 -0.2764  0.3135  0.0533
 5947TIP3    H117847   3.284   3.375   4.719  2.4913  0.4644 -1.1931
 5947TIP3    H217848   3.259   3.479   4.827  1.2599 -1.7133  0.7193
 5948TIP3   OH217849   0.017   0.728   2.482 -0.0266 -0.3986 -0.4824
 5948TIP3    H117850  -0.011   0.686   2.563 -1.2980 -0.4702 -0.9296
 5948TIP3    H217851   0.004   0.822   2.499 -1.1139 -0.4570 -0.8578
 5949TIP3   OH217852   2.845   2.810   1.402  0.2634  0.0739  0.2431
 5949TIP3    H117853   2.792   2.780   1.476  0.5651 -1.5405 -0.1549
 5949TIP3    H217854   2.796   2.884   1.366  0.3450  1.2158  2.3028
 5950TIP3   OH217855   2.866   4.450   3.817  0.0548  0.1033 -0.0186
 5950TIP3    H117856   2.928   4.377   3.809  2.1504  1.8632 -1.4058
 5950TIP3    H217857   2.839   4.468   3.727 -0.8632  0.6796  0.3616
 5951TIP3   OH217858   4.426   1.131   3.155  0.0150 -0.2362 -0.1577
 5951TIP3    H117859   4.510   1.127   3.201 -0.3299 -0.6198  0.4622
 5951TIP3    H217860   4.431   1.211   3.102  1.9875 -1.8277 -2.5931
 5952TIP3   OH217861   3.885   2.395   1.877 -0.0863  0.0682 -0.5609
 5952TIP3    H117862   3.824   2.464   1.904 -0.2212 -0.5615  0.8584
 5952TIP3    H217863   3.934   2.374   1.957  0.5248 -0.8992 -1.1656
 5953TIP3   OH217864   0.073   0.263   3.229 -0.1006  0.4043 -0.3227
 5953TIP3    H117865  -0.004   0.247   3.283 -0.1360 -1.5583 -0.8624
 5953TIP3    H217866   0.121   0.332   3.275 -0.9507 -0.0441  1.3156
 5954TIP3   OH217867   2.407   2.307   2.436 -0.6200 -0.0884 -0.3803
 5954TIP3    H117868   2.496   2.322   2.406 -0.4932 -1.5454 -0.8089
 5954TIP3    H217869   2.362   2.391   2.419  0.4852  0.4503 -0.7677
 5955TIP3   OH217870   4.838   4.204   0.247 -0.5665  0.0408 -0.2343
 5955TIP3    H117871   4.874   4.148   0.178 -1.5622 -1.8474  0.7066
 5955TIP3    H217872   4.888   4.182   0.325 -2.2165 -1.0181  0.5824
 5956TIP3   OH217873   2.869   5.364   3.647  0.2538 -0.9189 -0.1172
 5956TIP3    H117874   2.886   5.275   3.617 -0.8517 -1.0071 -0.5159
 5956TIP3    H217875   2.774   5.372   3.646  0.3583  0.4454 -0.6196
 5957TIP3   OH217876   0.569   2.976   2.931  0.2939  0.0683 -0.0361
 5957TIP3    H117877   0.624   3.043   2.972  0.4966 -0.7082  1.0168
 5957TIP3    H217878   0.629   2.905   2.910 -0.2578 -0.7681  1.0825
 5958TIP3   OH217879   4.118   5.684   3.157 -0.3802  0.2547 -0.0966
 5958TIP3    H117880   4.045   5.643   3.202  0.1110 -0.5258  0.0057
 5958TIP3    H217881   4.078   5.733   3.085 -1.1145  0.9520  0.7614
 5959TIP3   OH217882   3.223   1.412   2.160  1.0917 -0.0724 -0.4148
 5959TIP3    H117883   3.310   1.382   2.133  1.5038 -0.3411  1.1143
 5959TIP3    H217884   3.239   1.479   2.226  0.1287  0.3172 -0.5485
 5960TIP3   OH217885   1.282   1.980   3.120 -0.3706 -0.0548  0.2129
 5960TIP3    H117886   1.254   1.920   3.051  0.2909 -2.0029  1.5582
 5960TIP3    H217887   1.237   2.062   3.100 -1.3402 -0.9844 -1.6826
 5961TIP3   OH217888   0.964   3.066   0.316 -0.0431 -0.3877  0.0230
 5961TIP3    H117889   0.974   3.152   0.356 -1.0663  0.1882 -0.8961
 5961TIP3    H217890   1.053   3.030   0.313  0.1217 -0.3126  2.4066
 5962TIP3   OH217891   0.856   5.788   3.196 -0.1561 -0.1173 -0.0454
 5962TIP3    H117892   0.918   5.716   3.211  0.7134  1.0089  2.1511
 5962TIP3    H217893   0.772   5.753   3.223 -0.2686 -1.1292 -1.5279
 5963TIP3   OH217894   4.336   5.839   3.245  0.1413  0.2704 -0.3830
 5963TIP3    H117895   4.306   5.887   3.322  0.2767 -0.0170 -0.1541
 5963TIP3    H217896   4.261   5.785   3.220 -0.4737  1.5106 -1.3911
 5964TIP3   OH217897   1.442   3.334   5.158 -0.0365 -0.0480 -0.5100
 5964TIP3    H117898   1.419   3.420   5.124 -0.5317 -0.4949 -1.3216
 5964TIP3    H217899   1.359   3.289   5.168 -0.1122  0.5564  2.7744
 5965TIP3   OH217900   5.313   1.896   1.273 -0.0840 -0.1813 -0.0272
 5965TIP3    H117901   5.311   1.990   1.289  0.9638 -0.2573  0.7042
 5965TIP3    H217902   5.273   1.857   1.351  1.5522 -0.4081  0.7417
 5966TIP3   OH217903   0.780   1.367   1.577 -0.0143 -0.9759 -0.1999
 5966TIP3    H117904   0.772   1.373   1.672 -2.8267  0.6120 -0.4268
 5966TIP3    H217905   0.857   1.420   1.556  0.0448 -0.5038  1.1394
 5967TIP3   OH217906   4.510   1.076   1.575  0.2395  0.3092  0.1820
 5967TIP3    H117907   4.429   1.027   1.559 -0.1891  0.5990  1.3201
 5967TIP3    H217908   4.579   1.017   1.546 -0.3820  0.2122 -1.1822
 5968TIP3   OH217909   5.839   2.673   2.285  0.0372  0.5855 -0.2151
 5968TIP3    H117910   5.858   2.595   2.336  0.7034  2.0765  1.9609
 5968TIP3    H217911   5.899   2.669   2.211  1.1580 -0.2202  0.7015
 5969TIP3   OH217912   1.826   3.653   0.450  0.2813 -0.4302 -0.4320
 5969TIP3    H117913   1.872   3.729   0.414 -0.5021  0.1688 -0.2097
 5969TIP3    H217914   1.892   3.585   0.456  1.5457  0.8529  1.3303
 5970TIP3   OH217915   2.907   4.080   5.141 -0.2344 -0.5765 -0.3277
 5970TIP3    H117916   2.888   4.089   5.047  2.3062 -0.3465 -0.8797
 5970TIP3    H217917   2.913   4.170   5.173  0.6050 -0.6161 -0.3500
 5971TIP3   OH217918   1.133   3.691   3.411  0.2564  0.1828 -0.7209
 5971TIP3    H117919   1.113   3.627   3.343 -0.4690 -1.3811  0.9056
 5971TIP3    H217920   1.139   3.640   3.491  2.5148  1.7640  0.2223
 5972TIP3   OH217921   1.977   0.357   2.712  0.6012  0.1362  0.3502
 5972TIP3    H117922   1.883   0.377   2.706  0.8000  1.0009 -0.0160
 5972TIP3    H217923   2.012   0.423   2.771  0.9631 -0.2650  0.5890
 5973TIP3   OH217924   3.524   1.155   3.166  0.0808 -0.3364 -0.4219
 5973TIP3    H117925   3.516   1.249   3.186 -2.9040 -0.2231 -1.5836
 5973TIP3    H217926   3.617   1.137   3.171  0.6496  2.4327  0.9699
 5974TIP3   OH217927   2.849   2.125   1.968  0.1113  0.6957  0.2650
 5974TIP3    H117928   2.866   2.203   1.915 -0.0415  0.4079 -0.2090
 5974TIP3    H217929   2.894   2.054   1.923 -0.8762  0.2504 -0.0591
 5975TIP3   OH217930   2.244   5.995   1.553  0.7947  0.3463  0.4291
 5975TIP3    H117931   2.310   6.036   1.496  0.2053  1.0483  0.2411
 5975TIP3    H217932   2.256   5.901   1.539  1.5647  0.4769  0.1780
 5976TIP3   OH217933   2.375   2.375   3.782  0.1430 -0.3798  0.4543
 5976TIP3    H117934   2.350   2.288   3.753  1.2138 -0.9770  1.2558
 5976TIP3    H217935   2.409   2.362   3.871  0.9991  0.7284  0.3151
 5977TIP3   OH217936   1.887   2.166   2.493 -0.0676  0.1995 -0.0286
 5977TIP3    H117937   1.953   2.228   2.463 -1.5331  2.8401  1.7279
 5977TIP3    H217938   1.937   2.091   2.525  1.9748  1.4185 -0.2016
 5978TIP3   OH217939   4.595   3.427   0.556 -0.0840 -0.0860 -0.7334
 5978TIP3    H117940   4.568   3.403   0.468  0.1784  1.0850 -1.1521
 5978TIP3    H217941   4.569   3.353   0.610 -1.7688 -0.1079 -1.5209
 5979TIP3   OH217942   1.909   1.925   3.917 -0.0173 -0.6952  0.3568
 5979TIP3    H117943   1.933   1.995   3.979  0.0537  0.3789 -0.8428
 5979TIP3    H217944   1.827   1.889   3.951 -0.4081  0.4322  0.6394
 5980TIP3   OH217945   0.132   1.849   4.889 -0.2790  0.0743 -0.0104
 5980TIP3    H117946   0.054   1.836   4.941  0.2263 -0.2765  0.6793
 5980TIP3    H217947   0.198   1.792   4.930  0.5600  0.9682 -0.0830
 5981TIP3   OH217948   3.400   3.836   4.344 -0.5205  0.3683 -0.4741
 5981TIP3    H117949   3.416   3.893   4.420  0.2812 -0.9758  0.4008
 5981TIP3    H217950   3.326   3.781   4.370 -0.5875  0.2603 -0.8864
 5982TIP3   OH217951   4.132   3.328   2.958 -0.2386  0.8296 -0.5155
 5982TIP3    H117952   4.155   3.266   2.889  1.7634  0.9497 -0.0250
 5982TIP3    H217953   4.112   3.410   2.912  3.1384  1.5396 -1.0009
 5983TIP3   OH217954   1.500   2.323   4.837 -0.5132  0.1655 -0.5143
 5983TIP3    H117955   1.585   2.323   4.793  0.0038 -1.0506  0.4164
 5983TIP3    H217956   1.461   2.407   4.815  1.8599  1.7006  0.8079
 5984TIP3   OH217957   5.254   0.723   2.187 -0.4157 -0.1259 -0.1263
 5984TIP3    H117958   5.203   0.760   2.114  1.0015  0.0857 -1.0553
 5984TIP3    H217959   5.230   0.777   2.262 -0.0215  1.3431 -1.0019
 5985TIP3   OH217960   5.208   5.705   0.854 -0.1085 -0.3105 -0.5153
 5985TIP3    H117961   5.203   5.614   0.825 -0.2769 -0.9880  1.4665
 5985TIP3    H217962   5.127   5.745   0.822 -1.4640 -1.6693  0.9818
 5986TIP3   OH217963   2.851   4.639   1.457 -0.0857  0.0425  0.0758
 5986TIP3    H117964   2.945   4.636   1.476  0.0650 -2.0809 -0.7010
 5986TIP3    H217965   2.845   4.614   1.365 -1.3175  2.2082 -0.4903
 5987TIP3   OH217966   3.810   2.184   0.418 -0.3554 -0.3458  0.2339
 5987TIP3    H117967   3.802   2.102   0.370 -0.4688 -1.1409  1.5628
 5987TIP3    H217968   3.781   2.251   0.356  0.4890 -1.2078 -1.1284
 5988TIP3   OH217969   3.462   2.644   5.023  0.0411 -0.1551  0.1652
 5988TIP3    H117970   3.475   2.728   5.066  1.2148 -0.5815  0.6894
 5988TIP3    H217971   3.375   2.650   4.984 -0.2417  0.9741  0.9240
 5989TIP3   OH217972   4.433   5.257   2.091  0.6038  0.1064  0.1346
 5989TIP3    H117973   4.340   5.276   2.106  0.8903  2.3197 -0.5634
 5989TIP3    H217974   4.441   5.253   1.996  1.3104  0.4615  0.1772
 5990TIP3   OH217975   3.436   0.249   1.997 -0.2839  0.0336  0.0161
 5990TIP3    H117976   3.423   0.281   1.908  1.4556 -2.1722 -1.1477
 5990TIP3    H217977   3.377   0.174   2.005  2.1758 -2.1741 -0.7988
 5991TIP3   OH217978   4.222   1.267   2.946 -0.5984  0.8030 -0.3419
 5991TIP3    H117979   4.264   1.295   2.865  0.9625  0.2841  0.2327
 5991TIP3    H217980   4.265   1.318   3.015  0.3143 -0.8901  0.4306
 5992TIP3   OH217981   3.697   4.915   0.240 -0.3399  0.5144 -0.3097
 5992TIP3    H117982   3.694   4.848   0.308  0.6784 -0.1193 -0.8773
 5992TIP3    H217983   3.605   4.933   0.221 -0.6348 -0.6661 -0.0931
 5993TIP3   OH217984   5.640   3.402   4.234  0.0299  0.0861 -0.0797
 5993TIP3    H117985   5.731   3.418   4.209  0.1034  0.2687  0.2899
 5993TIP3    H217986   5.629   3.308   4.228  0.8180 -0.1602  1.7579
 5994TIP3   OH217987   3.475   0.303   3.203  0.2114 -0.5114  0.6961
 5994TIP3    H117988   3.550   0.326   3.148 -0.1612 -2.0255 -0.4918
 5994TIP3    H217989   3.402   0.354   3.167  0.7491  1.6196  2.3717
 5995TIP3   OH217990   3.855   5.696   2.872  0.1440 -0.2940  0.1695
 5995TIP3    H117991   3.819   5.773   2.917  0.9617 -0.6261  1.4457
 5995TIP3    H217992   3.895   5.644   2.942  0.5252 -1.3687 -0.8172
 5996TIP3   OH217993   4.789   2.615   0.977 -0.6618  0.6412  0.1856
 5996TIP3    H117994   4.706   2.642   1.017 -1.6307 -0.8969 -0.6972
 5996TIP3    H217995   4.787   2.520   0.980  1.0575  0.5715  0.0548
 5997TIP3   OH217996   4.090   1.343   2.296  0.1987 -0.6240  0.0091
 5997TIP3    H117997   4.180   1.330   2.266  0.3465 -3.7833  1.3421
 5997TIP3    H217998   4.036   1.302   2.228 -0.0764 -0.4376  0.1150
 5998TIP3   OH217999   6.143   0.011   0.051 -0.1047 -0.8547  0.2108
 5998TIP3    H118000   6.219   0.065   0.028 -1.7743  0.8263 -1.7508
 5998TIP3    H218001   6.082   0.073   0.092 -0.7036 -2.0426  1.1669
 5999TIP3   OH218002   6.215   1.466   2.369 -0.1865  0.3612  0.2498
 5999TIP3    H118003   6.220   1.558   2.345  0.8884  0.6455  1.4767
 5999TIP3    H218004   6.304   1.432   2.353 -0.2234 -0.1373  1.0436
 6000TIP3   OH218005   6.257   1.151   0.448 -0.1030 -0.0471 -0.5589
 6000TIP3    H118006   6.279   1.097   0.524  0.0082  0.8878  0.1048
 6000TIP3    H218007   6.173   1.191   0.471  0.0085  0.3706 -0.8524
 6001TIP3   OH218008   5.081   4.937   4.263 -0.1190 -0.6253 -0.7195
 6001TIP3    H118009   5.143   4.956   4.193 -0.1466  0.4983 -0.4456
 6001TIP3    H218010   5.132   4.889   4.328  0.2776 -0.3438 -0.8235
 6002TIP3   OH218011   4.423   5.590   2.056  0.3238 -0.4480  0.1568
 6002TIP3    H118012   4.463   5.563   1.973 -1.3972 -0.5074 -0.6990
 6002TIP3    H218013   4.330   5.570   2.045  0.1934 -1.4768  2.5365
 6003TIP3   OH218014   0.686   5.348   1.633  0.2145 -0.2563 -0.1514
 6003TIP3    H118015   0.745   5.343   1.558 -0.4106 -1.0818 -0.6061
 6003TIP3    H218016   0.606   5.305   1.603 -0.5572  0.6788  0.5148
 6004TIP3   OH218017   2.805   5.206   4.233  0.0110 -0.2073 -0.0205
 6004TIP3    H118018   2.850   5.127   4.204  0.8516  0.0563  0.5639
 6004TIP3    H218019   2.814   5.267   4.159 -2.3072 -1.2591 -1.2950
 6005TIP3   OH218020   3.689   1.971   1.996 -0.6047 -0.1354  0.3154
 6005TIP3    H118021   3.613   1.987   1.940 -1.1420  0.7526  1.2709
 6005TIP3    H218022   3.652   1.941   2.079  0.1743 -1.3688  0.2472
 6006TIP3   OH218023   1.637   4.553   1.805 -0.8769  0.2357 -0.8150
 6006TIP3    H118024   1.649   4.614   1.878 -0.1226 -2.1175  1.1719
 6006TIP3    H218025   1.706   4.574   1.743 -1.7825  2.5641 -1.1200
 6007TIP3   OH218026   3.049   0.580   4.368  0.6137  0.1605  0.3010
 6007TIP3    H118027   3.081   0.497   4.404  1.0935  0.0548 -0.3478
 6007TIP3    H218028   3.125   0.619   4.326 -0.3351 -0.7449 -2.4964
 6008TIP3   OH218029   1.661   4.043   3.170  0.0146  0.0396 -0.3264
 6008TIP3    H118030   1.592   3.990   3.210  0.5844  0.2608  1.0323
 6008TIP3    H218031   1.620   4.128   3.155 -0.4762 -0.3243 -1.1226
 6009TIP3   OH218032   4.480   0.031   0.151 -0.4396 -0.6589 -0.3902
 6009TIP3    H118033   4.519   0.094   0.213 -1.2677  0.4367 -0.9452
 6009TIP3    H218034   4.387   0.055   0.149 -0.2924 -0.1051 -2.6874
 6010TIP3   OH218035   3.470   4.171   0.581 -0.1682  0.3663  0.5965
 6010TIP3    H118036   3.545   4.196   0.527 -0.0516  0.2666  0.7126
 6010TIP3    H218037   3.394   4.193   0.527 -0.0865  1.4921  0.9049
 6011TIP3   OH218038   2.775   3.271   3.112 -0.2929 -0.3566  0.3153
 6011TIP3    H118039   2.815   3.288   3.197  0.4504  1.4473 -0.3300
 6011TIP3    H218040   2.686   3.242   3.132  0.2173 -1.0509  1.7069
 6012TIP3   OH218041   5.215   4.467   2.714  0.0921 -0.0030  0.3550
 6012TIP3    H118042   5.189   4.378   2.691  1.4750 -0.0396 -1.1759
 6012TIP3    H218043   5.194   4.519   2.637  3.6050  0.1106 -0.6953
 6013TIP3   OH218044   1.653   2.991   2.986  0.3274  0.2862 -0.3726
 6013TIP3    H118045   1.574   2.969   2.935 -0.2191 -0.4112  0.7346
 6013TIP3    H218046   1.688   3.069   2.943  0.3714 -0.7559 -2.3393
 6014TIP3   OH218047   5.165   5.878   4.365  0.3463  0.3589 -0.0130
 6014TIP3    H118048   5.144   5.959   4.318  2.1541  0.4211 -0.7984
 6014TIP3    H218049   5.128   5.808   4.311  0.2687  0.5631 -0.2249
 6015TIP3   OH218050   5.310   1.187   4.925  0.5469 -0.5451 -0.0467
 6015TIP3    H118051   5.222   1.158   4.948 -0.4253  2.0907 -0.0749
 6015TIP3    H218052   5.345   1.222   5.007  0.9907 -0.2454 -0.3593
 6016TIP3   OH218053   2.029   5.410   1.716  0.0696 -0.2185 -0.1006
 6016TIP3    H118054   1.990   5.475   1.774 -0.6034 -0.7647  0.0814
 6016TIP3    H218055   1.961   5.343   1.707  0.2274 -0.2233 -1.4002
 6017TIP3   OH218056   0.360   4.680   1.104 -0.2815  0.9676  0.1461
 6017TIP3    H118057   0.352   4.749   1.038 -0.2882  2.7624  1.9337
 6017TIP3    H218058   0.275   4.636   1.103 -0.2579  0.9155 -1.0610
 6018TIP3   OH218059   5.363   5.154   2.811  0.0321 -0.5813  0.3481
 6018TIP3    H118060   5.288   5.095   2.820 -1.3037  1.2066  1.4914
 6018TIP3    H218061   5.380   5.184   2.900 -1.7919  3.6084 -0.4880
 6019TIP3   OH218062   3.754   4.340   0.770  0.1361 -0.4219 -0.0368
 6019TIP3    H118063   3.734   4.253   0.805 -0.7752 -0.2765 -0.1841
 6019TIP3    H218064   3.769   4.324   0.676 -3.1886 -0.0182 -0.7453
 6020TIP3   OH218065   4.253   2.393   2.868  0.4251  0.7204  0.3149
 6020TIP3    H118066   4.199   2.469   2.889 -0.3917  0.1599  0.2870
 6020TIP3    H218067   4.319   2.390   2.938  1.3933  2.2808 -0.4611
 6021TIP3   OH218068   3.704   3.104   1.129 -0.3155  0.6842 -0.1805
 6021TIP3    H118069   3.747   3.071   1.050  0.8109 -1.6108  1.2733
 6021TIP3    H218070   3.684   3.025   1.180 -1.4679  2.0579  1.6096
 6022TIP3   OH218071   0.831   4.306   3.934  0.6790  0.2758  0.5443
 6022TIP3    H118072   0.897   4.249   3.973 -0.6079 -1.1313  0.7621
 6022TIP3    H218073   0.813   4.371   4.001  0.4011 -0.5364  1.2773
 6023TIP3   OH218074   3.976   1.877   0.742  0.3346  0.0792 -0.0317
 6023TIP3    H118075   4.035   1.943   0.705 -0.6125 -0.3526 -2.5070
 6023TIP3    H218076   4.007   1.794   0.707 -0.3071 -0.4345  0.5791
 6024TIP3   OH218077   2.964   5.434   0.975 -0.3705 -0.7937  0.8297
 6024TIP3    H118078   2.941   5.523   1.004 -0.7154 -1.0672  1.4278
 6024TIP3    H218079   3.031   5.447   0.908 -0.8909 -0.0510  0.4383
 6025TIP3   OH218080   4.941   2.861   1.869 -0.1304  0.0515  0.0631
 6025TIP3    H118081   5.033   2.845   1.846 -0.8584 -1.4018 -2.1883
 6025TIP3    H218082   4.892   2.827   1.794 -2.5128  0.9520  1.1371
 6026TIP3   OH218083   2.941   5.633   1.947 -0.4948  0.1268 -0.0734
 6026TIP3    H118084   2.907   5.585   1.871 -0.6688  0.6448 -0.3277
 6026TIP3    H218085   3.004   5.573   1.987  0.0364  0.0808 -0.9656
 6027TIP3   OH218086   5.506   1.754   1.108  0.3607  0.6974  0.0977
 6027TIP3    H118087   5.430   1.789   1.154  0.4627 -1.8770  2.4964
 6027TIP3    H218088   5.469   1.692   1.045  0.4085 -0.7695  1.4638
 6028TIP3   OH218089   5.644   1.824   2.387  0.4118 -0.4742 -0.2996
 6028TIP3    H118090   5.565   1.854   2.344  0.1821 -0.6104  0.0213
 6028TIP3    H218091   5.613   1.769   2.460  0.8027 -0.7823 -0.3585
 6029TIP3   OH218092   2.903   4.397   4.411 -0.1066 -0.2797 -0.0250
 6029TIP3    H118093   2.938   4.325   4.359 -0.8787  0.3814 -1.5594
 6029TIP3    H218094   2.823   4.423   4.364  0.3238  1.7521  0.2737
 6030TIP3   OH218095   3.104   2.455   3.907  0.2803  0.4782  0.1426
 6030TIP3    H118096   3.070   2.409   3.830  1.3268 -2.1242  1.1085
 6030TIP3    H218097   3.185   2.496   3.876  0.0972  0.4377 -0.4083
 6031TIP3   OH218098   0.352   3.739   1.671  0.7906  0.6577  0.3802
 6031TIP3    H118099   0.344   3.675   1.742  2.1400  0.5483  0.4497
 6031TIP3    H218100   0.362   3.823   1.716 -0.5870  0.8978  0.2890
 6032TIP3   OH218101   3.389   4.479   2.788 -0.1867  0.1715  0.0893
 6032TIP3    H118102   3.415   4.560   2.833 -1.1452  0.8618 -0.5627
 6032TIP3    H218103   3.405   4.410   2.852 -0.5391  1.0201  1.1253
 6033TIP3   OH218104   0.322   4.044   3.617  0.2285 -0.2201 -0.0542
 6033TIP3    H118105   0.350   4.079   3.533 -1.3114  0.1654 -0.4404
 6033TIP3    H218106   0.376   3.966   3.630 -0.7641 -1.3440 -2.2958
 6034TIP3   OH218107   5.932   3.957   0.942 -0.2662 -0.3369 -0.2411
 6034TIP3    H118108   6.009   3.949   0.998 -0.2185 -1.0424 -0.4100
 6034TIP3    H218109   5.883   3.876   0.957 -0.7655 -0.0778 -0.4544
 6035TIP3   OH218110   1.593   0.934   4.366  0.1680 -0.0050 -0.2207
 6035TIP3    H118111   1.513   0.892   4.397  0.6851 -0.2356  0.8495
 6035TIP3    H218112   1.631   0.974   4.445 -0.4654  2.7899 -1.2143
 6036TIP3   OH218113   4.686   2.813   3.456 -0.1713 -0.2650 -0.4000
 6036TIP3    H118114   4.757   2.821   3.392 -1.8216 -0.7369 -2.4082
 6036TIP3    H218115   4.656   2.903   3.469 -0.4092 -0.2426 -1.0330
 6037TIP3   OH218116   0.913   0.563   0.325 -0.1313  0.5440 -0.1892
 6037TIP3    H118117   0.831   0.607   0.303  0.5211  1.8011 -0.1865
 6037TIP3    H218118   0.973   0.587   0.254  0.0219 -1.0415 -0.6364
 6038TIP3   OH218119   1.501   0.112   1.216  0.3271  0.2489  0.0959
 6038TIP3    H118120   1.439   0.118   1.143 -0.6514  0.0650  0.9000
 6038TIP3    H218121   1.557   0.038   1.193 -1.7295 -1.6194  0.8098
 6039TIP3   OH218122   4.988   4.081   3.295 -0.0017 -0.5764  0.2038
 6039TIP3    H118123   5.028   3.998   3.270 -1.8983 -0.7916 -2.5480
 6039TIP3    H218124   4.958   4.067   3.385  2.0704 -1.8788  0.7613
 6040TIP3   OH218125   4.931   3.563   2.101  0.1763 -0.1299 -0.5297
 6040TIP3    H118126   4.843   3.592   2.075  0.1637  1.4225  1.0085
 6040TIP3    H218127   4.971   3.642   2.139  1.9257 -1.0331 -0.4354
 6041TIP3   OH218128   0.325   1.126   2.088 -0.1704 -0.6226 -0.1860
 6041TIP3    H118129   0.378   1.170   2.155  2.2265 -0.7553 -1.8679
 6041TIP3    H218130   0.360   1.158   2.005 -1.7816 -1.8973 -1.4299
 6042TIP3   OH218131   6.286   0.622   1.067  0.1124 -0.2820 -0.1944
 6042TIP3    H118132   6.303   0.548   1.124  0.5331 -0.1777 -0.1807
 6042TIP3    H218133   6.257   0.583   0.984  0.3279 -0.4590 -0.1856
 6043TIP3   OH218134   4.437   5.910   1.199  0.1581  0.0872 -0.3890
 6043TIP3    H118135   4.396   5.838   1.248  1.1253 -1.2161 -1.4325
 6043TIP3    H218136   4.495   5.867   1.136 -0.0635  1.7541 -1.8149
 6044TIP3   OH218137   5.027   4.493   3.486 -0.3216  0.4525  0.0929
 6044TIP3    H118138   5.076   4.498   3.403 -0.5471  0.1327 -0.0601
 6044TIP3    H218139   4.950   4.549   3.471 -0.8297 -0.3230 -0.2375
 6045TIP3   OH218140   2.425   4.991   1.103  0.2593  0.5408 -0.2791
 6045TIP3    H118141   2.355   4.973   1.041 -0.0421  0.1611  0.1608
 6045TIP3    H218142   2.441   5.085   1.095 -0.9556  0.8129  0.2857
 6046TIP3   OH218143   4.360   5.496   0.524 -0.2666 -0.4652  0.7048
 6046TIP3    H118144   4.301   5.529   0.457 -0.4540 -0.0700  1.0544
 6046TIP3    H218145   4.415   5.571   0.546 -0.0927 -0.6388  0.8707
 6047TIP3   OH218146   3.578   1.412   3.483 -0.3681  0.1953 -0.4064
 6047TIP3    H118147   3.646   1.456   3.534 -1.5174  3.8486 -1.7712
 6047TIP3    H218148   3.623   1.382   3.404  0.2155 -0.1121  0.0324
 6048TIP3   OH218149   0.103   2.684   3.493 -0.0148  0.2783 -0.4163
 6048TIP3    H118150   0.162   2.742   3.445 -0.0450  1.4695  0.9350
 6048TIP3    H218151   0.140   2.679   3.581 -0.5364 -1.0268 -0.2514
 6049TIP3   OH218152   0.735   2.213   4.133 -0.1331 -0.3074  0.2304
 6049TIP3    H118153   0.733   2.203   4.228  0.7365  0.4954  0.3426
 6049TIP3    H218154   0.788   2.291   4.118  0.1234 -0.6928 -0.9386
 6050TIP3   OH218155   4.326   5.443   4.248  0.0482  0.3022 -0.1854
 6050TIP3    H118156   4.363   5.378   4.188  0.7030 -0.0852  0.6188
 6050TIP3    H218157   4.250   5.399   4.287  0.0152  0.3135 -0.2367
 6051TIP3   OH218158   3.611   3.974   0.728  0.0228  0.7124 -0.0539
 6051TIP3    H118159   3.583   4.034   0.659 -0.3924  0.5135 -0.0646
 6051TIP3    H218160   3.595   3.887   0.693  0.4222  0.5983  0.0440
 6052TIP3   OH218161   5.394   1.331   5.158  0.1206 -0.8262  0.5422
 6052TIP3    H118162   5.397   1.422   5.128  0.1382 -1.0260 -0.0904
 6052TIP3    H218163   5.327   1.330   5.225  0.2194 -0.3165  0.6519
 6053TIP3   OH218164   5.022   3.224   1.693 -0.4311 -0.2322 -0.2391
 6053TIP3    H118165   4.939   3.263   1.669 -0.9001  0.1250  1.7495
 6053TIP3    H218166   5.008   3.191   1.782  1.2362 -1.1186 -0.2549
 6054TIP3   OH218167   4.884   2.716   0.742 -0.1048 -0.0069 -0.1272
 6054TIP3    H118168   4.850   2.637   0.784  0.4587  0.4422  1.2386
 6054TIP3    H218169   4.898   2.777   0.814  0.7579  0.8621 -0.9959
 6055TIP3   OH218170   0.336   1.304   3.151  0.2709  0.4098  0.5760
 6055TIP3    H118171   0.348   1.378   3.211 -0.0377 -0.0993  1.2755
 6055TIP3    H218172   0.346   1.226   3.206 -0.4935 -0.0668  0.0572
 6056TIP3   OH218173   1.123   5.418   3.475 -0.2401 -0.0009 -0.0727
 6056TIP3    H118174   1.156   5.500   3.437 -0.5844  0.9073  1.4902
 6056TIP3    H218175   1.030   5.436   3.492 -0.2012 -0.5397  0.7341
 6057TIP3   OH218176   1.843   0.183   1.676  0.2610 -0.9452  0.0809
 6057TIP3    H118177   1.787   0.193   1.753  1.4680  1.0212  0.8014
 6057TIP3    H218178   1.791   0.221   1.605 -0.1894 -1.1673  0.2851
 6058TIP3   OH218179   2.968   2.661   4.604  0.4433 -0.4545  0.0197
 6058TIP3    H118180   2.983   2.754   4.584 -0.5141 -0.3629 -0.3275
 6058TIP3    H218181   2.895   2.636   4.547 -1.2852 -0.6188  2.1570
 6059TIP3   OH218182   3.540   2.587   4.581  0.1233  0.1922  0.0322
 6059TIP3    H118183   3.554   2.590   4.676 -2.0066  0.6150  0.3759
 6059TIP3    H218184   3.446   2.573   4.571  0.4557 -0.8944 -2.0334
 6060TIP3   OH218185   3.489   4.637   4.033 -0.4609  0.3538  0.0629
 6060TIP3    H118186   3.457   4.637   3.943  0.4770  1.1492 -0.2894
 6060TIP3    H218187   3.572   4.684   4.029 -0.8387  1.2195  1.4868
 6061TIP3   OH218188   5.136   1.764   3.886  0.3328  0.2868 -1.2361
 6061TIP3    H118189   5.085   1.832   3.931  0.6055 -0.1723 -0.2026
 6061TIP3    H218190   5.155   1.699   3.954  0.8784 -0.3673 -1.9910
 6062TIP3   OH218191   3.606   1.200   5.153 -0.4307  0.9720  0.0702
 6062TIP3    H118192   3.560   1.276   5.119  2.2348  1.7157 -2.2861
 6062TIP3    H218193   3.699   1.224   5.148  0.4273 -1.7857  0.9116
 6063TIP3   OH218194   4.207   3.962   2.014 -0.1288 -0.9533 -0.0188
 6063TIP3    H118195   4.173   3.945   1.926 -0.6774  0.8985 -0.2096
 6063TIP3    H218196   4.140   3.926   2.073 -1.6859  1.1412 -0.3991
 6064TIP3   OH218197   2.945   5.121   3.166 -0.7841  0.4047 -0.2489
 6064TIP3    H118198   2.956   5.032   3.199 -0.5292 -0.0269 -1.4475
 6064TIP3    H218199   2.888   5.164   3.230 -1.3194 -0.7675  0.0824
 6065TIP3   OH218200   3.550   0.963   4.419  0.1809 -0.1599 -0.0771
 6065TIP3    H118201   3.623   1.012   4.457 -0.0708 -0.5437  0.9475
 6065TIP3    H218202   3.481   0.970   4.484 -0.1050 -1.2465 -0.2491
 6066TIP3   OH218203   3.788   1.914   4.245 -0.2973  0.2118 -0.0611
 6066TIP3    H118204   3.707   1.962   4.227  0.3242  1.9317  1.5025
 6066TIP3    H218205   3.855   1.981   4.257  0.7261 -1.0276  1.6655
 6067TIP3   OH218206   5.972   1.353   3.715 -0.2172 -0.3001  0.4543
 6067TIP3    H118207   5.942   1.387   3.631  0.1014  0.1522  0.5197
 6067TIP3    H218208   6.030   1.422   3.750  1.4161 -1.4066  0.0384
 6068TIP3   OH218209   5.751   5.303   2.484 -0.1072 -0.2443 -0.1825
 6068TIP3    H118210   5.674   5.283   2.538  1.2500 -2.4606  1.1017
 6068TIP3    H218211   5.720   5.368   2.421 -2.7586 -0.3328  0.8954
 6069TIP3   OH218212   0.451   2.209   4.134 -0.4680 -0.2752  0.0484
 6069TIP3    H118213   0.543   2.202   4.107 -0.6408 -0.0735 -0.5866
 6069TIP3    H218214   0.420   2.290   4.095 -0.2214  0.9959  2.3061
 6070TIP3   OH218215   3.129   4.686   3.658 -0.0456  0.3778  0.0768
 6070TIP3    H118216   3.048   4.721   3.695 -1.2731 -2.1261  0.0150
 6070TIP3    H218217   3.102   4.645   3.576  1.3310 -0.3024 -0.0633
 6071TIP3   OH218218   5.462   0.055   5.138  0.0648 -0.2611  0.2942
 6071TIP3    H118219   5.439  -0.009   5.205 -0.3403 -0.5596 -0.1330
 6071TIP3    H218220   5.479   0.136   5.188 -0.0416 -0.5282  0.7725
 6072TIP3   OH218221   3.873   3.168   4.923  0.6022  0.1856  0.1015
 6072TIP3    H118222   3.952   3.204   4.965  1.9781 -0.9794 -1.3326
 6072TIP3    H218223   3.842   3.101   4.985  1.0037  0.3466  0.4840
 6073TIP3   OH218224   2.923   3.347   0.151  0.2124  0.4768  0.0819
 6073TIP3    H118225   2.856   3.398   0.106 -1.0625  0.3243  1.6980
 6073TIP3    H218226   2.964   3.293   0.083  0.0270  1.9807 -1.2517
 6074TIP3   OH218227   5.273   2.445   2.408  0.1116 -0.2467  0.4334
 6074TIP3    H118228   5.313   2.368   2.367  1.9588  0.4777  0.7980
 6074TIP3    H218229   5.307   2.519   2.358  0.1407  0.4676  1.4863
 6075TIP3   OH218230   3.628   5.506   4.929 -0.0357 -0.2801  0.4166
 6075TIP3    H118231   3.697   5.558   4.887  0.6017 -0.9634  0.5975
 6075TIP3    H218232   3.547   5.542   4.893  0.4900 -0.9794 -1.6149
 6076TIP3   OH218233   3.407   1.179   2.309 -0.5929  0.5530 -0.0269
 6076TIP3    H118234   3.477   1.211   2.366  0.2681 -0.2015 -0.6160
 6076TIP3    H218235   3.444   1.186   2.221 -1.3313  0.2795 -0.3669
 6077TIP3   OH218236   2.750   5.370   1.331  0.0898 -0.0612 -0.1918
 6077TIP3    H118237   2.767   5.280   1.358  0.0265  0.0773  0.3277
 6077TIP3    H218238   2.716   5.413   1.410 -0.1143  0.3529 -0.4995
 6078TIP3   OH218239   1.873   5.480   4.572  0.3366  0.6057  0.0665
 6078TIP3    H118240   1.871   5.574   4.589 -0.7213  0.6331 -0.1473
 6078TIP3    H218241   1.872   5.472   4.477  0.7754  0.3700  0.0736
 6079TIP3   OH218242   1.890   1.729   2.740 -0.2916  0.0845  0.1261
 6079TIP3    H118243   1.845   1.789   2.799 -1.0850 -0.0568 -0.3180
 6079TIP3    H218244   1.958   1.782   2.698  0.5269  0.1024  1.3999
 6080TIP3   OH218245   5.454   4.853   2.935 -0.0029  0.3008  0.8398
 6080TIP3    H118246   5.532   4.800   2.952  0.2611  0.7610  1.0587
 6080TIP3    H218247   5.430   4.890   3.020 -2.5101 -2.5683  1.5833
 6081TIP3   OH218248   1.215   3.085   1.361  0.1910  0.0121 -0.1601
 6081TIP3    H118249   1.296   3.134   1.344  0.9980 -1.6542 -1.4065
 6081TIP3    H218250   1.228   3.002   1.315 -1.7328 -0.7852  0.6685
 6082TIP3   OH218251   1.985   3.651   4.205  0.4476 -0.5142  0.2964
 6082TIP3    H118252   2.079   3.634   4.199  0.3821 -0.8829  0.2690
 6082TIP3    H218253   1.952   3.638   4.116  0.4690  0.2481  0.1715
 6083TIP3   OH218254   5.618   0.470   1.793  0.0402 -0.2349  0.3736
 6083TIP3    H118255   5.673   0.444   1.720  0.2459  0.1676  0.3870
 6083TIP3    H218256   5.631   0.564   1.802 -1.4097  0.0424 -0.2533
 6084TIP3   OH218257   0.425   1.562   3.256  0.3883  0.1057  0.0552
 6084TIP3    H118258   0.511   1.521   3.252 -1.0484 -3.1452 -0.2050
 6084TIP3    H218259   0.404   1.566   3.350  0.5386  0.2840  0.0816
 6085TIP3   OH218260   2.871   2.417   2.208  0.4053  0.0100 -0.6592
 6085TIP3    H118261   2.904   2.330   2.230 -0.5619 -0.5438 -1.3500
 6085TIP3    H218262   2.776   2.411   2.221  0.3205  0.9397 -0.7957
 6086TIP3   OH218263   3.339   3.883   0.182  0.0608  0.1005  0.7040
 6086TIP3    H118264   3.396   3.808   0.165 -2.2591 -1.1289 -2.6226
 6086TIP3    H218265   3.397   3.959   0.176  1.8348 -1.2126  0.5101
 6087TIP3   OH218266   3.625   4.549   3.303  0.2835 -0.3062  0.2304
 6087TIP3    H118267   3.662   4.462   3.318  1.0294 -0.1720 -0.7462
 6087TIP3    H218268   3.699   4.608   3.313  0.3809 -0.0317 -1.8160
 6088TIP3   OH218269   5.169   2.746   3.629  0.4328  0.0330 -0.4906
 6088TIP3    H118270   5.119   2.690   3.571  1.3946 -1.0205 -0.3364
 6088TIP3    H218271   5.259   2.742   3.595  1.0289 -0.6626  1.0898
 6089TIP3   OH218272   2.148   4.848   3.042 -0.1624 -0.6795  0.1912
 6089TIP3    H118273   2.102   4.767   3.020  1.8886 -1.6072 -0.8749
 6089TIP3    H218274   2.148   4.850   3.138  0.3561 -2.3292  0.2550
 6090TIP3   OH218275   4.505   3.000   1.880 -0.3231  0.6692 -0.2501
 6090TIP3    H118276   4.552   2.925   1.917  1.6887  1.5172 -0.9370
 6090TIP3    H218277   4.568   3.072   1.885 -2.6991  2.7977  1.8359
 6091TIP3   OH218278   1.628   5.271   2.042  0.1846 -0.3738 -0.3759
 6091TIP3    H118279   1.553   5.211   2.037  0.6292 -0.9696 -0.0049
 6091TIP3    H218280   1.702   5.219   2.010  0.7791 -0.3765  0.9293
 6092TIP3   OH218281   6.199   1.942   1.414  0.1844  0.0835 -0.6220
 6092TIP3    H118282   6.215   1.921   1.506  1.8873  0.6610 -0.7659
 6092TIP3    H218283   6.238   2.028   1.401 -0.0862  0.0398 -1.8797
 6093TIP3   OH218284   3.116   2.198   0.533 -0.1560  0.3537  0.0254
 6093TIP3    H118285   3.138   2.226   0.623 -1.2447  0.5196  0.2454
 6093TIP3    H218286   3.031   2.156   0.541  0.1660 -0.4739 -0.7909
 6094TIP3   OH218287   2.697   4.185   3.374  0.3840  0.3203  0.1387
 6094TIP3    H118288   2.772   4.184   3.434  0.0554  1.0475  0.5839
 6094TIP3    H218289   2.735   4.168   3.288  1.2621  1.9398  0.1659
 6095TIP3   OH218290   3.977   5.827   4.145 -0.2883 -0.0736 -0.2562
 6095TIP3    H118291   4.058   5.801   4.189 -0.3732  1.0066  0.5936
 6095TIP3    H218292   3.938   5.744   4.117  1.4861 -0.5763 -1.4181
 6096TIP3   OH218293   3.426   1.812   3.971  0.1820  0.0100 -0.0004
 6096TIP3    H118294   3.411   1.813   3.877 -2.3061 -0.3785  0.3052
 6096TIP3    H218295   3.469   1.728   3.988 -1.5966 -1.0740 -0.5756
 6097TIP3   OH218296   6.018   5.383   3.714 -0.2404  0.1288  0.7698
 6097TIP3    H118297   5.940   5.348   3.756 -0.3692 -0.3649  0.1408
 6097TIP3    H218298   6.085   5.382   3.783 -0.3191 -1.1203  0.8512
 6098TIP3   OH218299   1.145   0.229   0.675  0.1248 -0.4454 -0.3631
 6098TIP3    H118300   1.141   0.213   0.581  0.5407 -1.6463 -0.1893
 6098TIP3    H218301   1.235   0.208   0.699  0.0848  0.0770  0.2773
 6099TIP3   OH218302   3.401   5.197   1.393  0.1693  0.5627  0.1792
 6099TIP3    H118303   3.494   5.207   1.413  0.0499  1.2355  0.4211
 6099TIP3    H218304   3.358   5.264   1.446 -0.2284  1.9512 -1.7731
 6100TIP3   OH218305   4.939   0.149   4.969  0.3548  0.2407 -0.1865
 6100TIP3    H118306   4.988   0.147   4.887  1.4934 -1.3019  0.4853
 6100TIP3    H218307   4.850   0.124   4.945  1.1923 -2.6222 -0.6893
 6101TIP3   OH218308   5.855   1.345   2.516  0.0832 -0.3919  0.5558
 6101TIP3    H118309   5.766   1.376   2.500  0.0133 -1.1139 -0.5319
 6101TIP3    H218310   5.902   1.364   2.435  1.4654  1.7090  1.7395
 6102TIP3   OH218311   3.121   5.342   3.093  0.1024 -0.5706 -0.4002
 6102TIP3    H118312   3.152   5.327   3.004  1.8390  0.3000  0.0206
 6102TIP3    H218313   3.062   5.269   3.110  0.2722 -1.1278 -2.0039
 6103TIP3   OH218314   3.656   2.983   2.274 -0.3992  0.3872 -0.4203
 6103TIP3    H118315   3.651   3.078   2.261  1.4323  0.6876  0.7710
 6103TIP3    H218316   3.749   2.962   2.260 -0.7658 -1.2400 -0.6095
 6104TIP3   OH218317   2.546   2.148   1.371 -0.5595 -0.4873  0.6921
 6104TIP3    H118318   2.610   2.216   1.393 -1.7518  0.8227  0.2671
 6104TIP3    H218319   2.535   2.155   1.277  0.4634 -2.3906  0.3685
 6105TIP3   OH218320   2.017   1.617   4.183 -0.1037 -1.1367  0.1305
 6105TIP3    H118321   2.081   1.664   4.129 -1.1109 -0.1948 -0.2763
 6105TIP3    H218322   2.069   1.581   4.255  0.6981  0.7348  0.5529
 6106TIP3   OH218323   1.044   4.300   3.123 -0.0694  0.1596 -0.0343
 6106TIP3    H118324   1.020   4.207   3.118 -0.8873  0.3683 -0.0367
 6106TIP3    H218325   1.060   4.326   3.032  1.3157 -0.2674  0.0663
 6107TIP3   OH218326   3.631   4.633   0.099 -0.3073  0.1690 -0.6043
 6107TIP3    H118327   3.593   4.587   0.174  0.7488  1.7053  0.9570
 6107TIP3    H218328   3.563   4.633   0.033 -1.5722 -0.5594  0.6489
 6108TIP3   OH218329   6.049   1.357   0.619 -0.1883 -0.8663 -0.1170
 6108TIP3    H118330   6.023   1.448   0.609  0.0638 -0.6987  0.7298
 6108TIP3    H218331   6.019   1.315   0.538 -0.6289 -0.1155 -0.3519
 6109TIP3   OH218332   3.771   2.411   1.235 -0.1617 -0.3430 -0.0678
 6109TIP3    H118333   3.710   2.435   1.306 -0.4958  1.2014 -0.8264
 6109TIP3    H218334   3.714   2.390   1.161  0.1914  0.0609 -0.4657
 6110TIP3   OH218335   4.508   1.872   3.158 -0.6588  0.3011 -0.7023
 6110TIP3    H118336   4.413   1.872   3.169 -0.6246 -1.4724  0.0566
 6110TIP3    H218337   4.524   1.813   3.085 -0.1329  0.3074 -0.5995
 6111TIP3   OH218338   3.050   3.114   0.802  0.2069  0.1527 -0.7432
 6111TIP3    H118339   2.980   3.134   0.865 -0.9488  1.1768 -2.2880
 6111TIP3    H218340   3.125   3.091   0.857 -0.5950  1.5056  1.0275
 6112TIP3   OH218341   2.167   3.739   1.599  0.0183  0.1199 -0.3231
 6112TIP3    H118342   2.236   3.790   1.640 -0.0186 -1.7495  2.2749
 6112TIP3    H218343   2.207   3.653   1.582 -1.7029 -1.1583  1.6842
 6113TIP3   OH218344   0.268   4.905   3.621  0.4201 -0.0286  0.5480
 6113TIP3    H118345   0.313   4.824   3.601  1.6068  0.4974  0.9764
 6113TIP3    H218346   0.258   4.949   3.537 -0.2589 -0.6115  0.3113
 6114TIP3   OH218347   4.953   5.938   0.201 -0.2353 -0.2496  0.1046
 6114TIP3    H118348   4.886   5.874   0.178  0.2446 -0.1181 -1.8040
 6114TIP3    H218349   5.012   5.941   0.126  0.5115  1.4655  0.6832
 6115TIP3   OH218350   3.233   0.348   4.354 -0.6454  0.2486 -0.4784
 6115TIP3    H118351   3.312   0.387   4.393 -0.5603 -0.9349  0.6305
 6115TIP3    H218352   3.266   0.273   4.305 -1.1831 -1.6482  1.8574
 6116TIP3   OH218353   5.214   3.024   2.914  0.2558  0.2331 -0.0936
 6116TIP3    H118354   5.218   3.072   2.996 -0.4342  1.2692 -0.6475
 6116TIP3    H218355   5.141   3.063   2.866  0.6834 -0.2941 -1.2313
 6117TIP3   OH218356   4.395   4.017   4.432 -0.1706  0.1189  0.8631
 6117TIP3    H118357   4.381   4.084   4.499 -0.8673  0.4185  0.4359
 6117TIP3    H218358   4.489   4.017   4.416 -0.0367  0.2650  1.6107
 6118TIP3   OH218359   2.547   5.894   3.275  0.6472  0.3221 -0.0166
 6118TIP3    H118360   2.557   5.976   3.323 -1.0320  0.0708  0.8224
 6118TIP3    H218361   2.617   5.896   3.210 -0.1938  3.0868 -0.9918
 6119TIP3   OH218362   2.103   1.789   2.120 -0.3474  0.4767 -0.6842
 6119TIP3    H118363   2.144   1.709   2.151 -2.0404 -0.1013  0.1110
 6119TIP3    H218364   2.175   1.838   2.079  1.2247 -0.2967  1.0454
 6120TIP3   OH218365   1.061   1.242   5.033  0.1455  0.1794 -0.4521
 6120TIP3    H118366   1.065   1.168   5.094  1.7640  1.2405  0.8106
 6120TIP3    H218367   1.144   1.239   4.985 -0.1188  0.7204 -0.9650
 6121TIP3   OH218368   1.970   1.591   2.530 -0.2091 -0.5566  0.0175
 6121TIP3    H118369   1.899   1.619   2.473 -1.8914 -0.5856  2.0022
 6121TIP3    H218370   1.936   1.602   2.618  2.9888  1.4215  1.1646
 6122TIP3   OH218371   0.394   3.176   4.534  0.0671 -0.3343 -0.3720
 6122TIP3    H118372   0.304   3.207   4.537  0.3726  0.5324  0.8665
 6122TIP3    H218373   0.387   3.084   4.512 -1.1234 -0.2774 -0.3069
 6123TIP3   OH218374   4.801   3.976   4.468  0.6197 -0.8440 -0.0341
 6123TIP3    H118375   4.743   3.979   4.392 -0.4526  0.1367  0.7951
 6123TIP3    H218376   4.855   3.898   4.453 -0.1670 -1.1702 -1.3545
 6124TIP3   OH218377   3.560   4.550   5.205  0.0102 -0.0123 -0.1742
 6124TIP3    H118378   3.535   4.503   5.126  1.3960 -0.7789 -0.2034
 6124TIP3    H218379   3.646   4.587   5.185 -0.6299  1.7641  0.1909
 6125TIP3   OH218380   5.244   0.612   0.670  0.2613 -0.0966  0.6300
 6125TIP3    H118381   5.334   0.642   0.661  0.0873  1.2589  2.6902
 6125TIP3    H218382   5.190   0.686   0.642 -0.2139 -0.6063  0.1697
 6126TIP3   OH218383   0.568   0.832   2.953 -0.3610  0.0669 -0.2929
 6126TIP3    H118384   0.489   0.794   2.915 -0.0872  0.7400 -1.5798
 6126TIP3    H218385   0.631   0.832   2.881  0.7924 -0.3660  0.6829
 6127TIP3   OH218386   4.727   4.467   0.989  0.3712  0.6404  0.4763
 6127TIP3    H118387   4.811   4.484   1.032  0.1430  2.5269  0.2328
 6127TIP3    H218388   4.670   4.538   1.018 -1.0590 -0.4013  0.3470
 6128TIP3   OH218389   0.091   3.815   2.437  0.1235 -0.1097  0.6531
 6128TIP3    H118390   0.066   3.750   2.371 -0.8026 -0.5636  1.4252
 6128TIP3    H218391   0.186   3.821   2.431  0.0145  0.4405 -1.2518
 6129TIP3   OH218392   1.981   0.128   3.265 -0.5714 -0.2281  0.4972
 6129TIP3    H118393   1.914   0.180   3.309 -1.4745 -1.1462  0.2637
 6129TIP3    H218394   1.931   0.071   3.206  0.4235 -0.9266  0.3100
 6130TIP3   OH218395   2.698   3.461   4.692 -0.3937  1.0615 -0.4974
 6130TIP3    H118396   2.773   3.461   4.751  0.3592  1.3054 -1.4149
 6130TIP3    H218397   2.736   3.445   4.605 -1.3450  1.6708 -1.0481
 6131TIP3   OH218398   5.173   0.617   1.346  0.2686 -0.3708  0.1512
 6131TIP3    H118399   5.223   0.585   1.271 -0.1904  1.1699 -0.8799
 6131TIP3    H218400   5.109   0.548   1.364 -1.2242  0.1707 -2.4925
 6132TIP3   OH218401   2.333   2.176   0.347 -0.6570  0.2885 -0.2640
 6132TIP3    H118402   2.343   2.189   0.253 -1.3380 -0.8061 -0.5072
 6132TIP3    H218403   2.402   2.114   0.370 -2.4164 -1.9572 -0.6807
 6133TIP3   OH218404   3.868   1.501   2.539  0.0011  0.5343  0.0665
 6133TIP3    H118405   3.941   1.442   2.555 -0.3410 -0.1427 -0.8044
 6133TIP3    H218406   3.904   1.567   2.480 -0.4003 -0.5308 -1.4316
 6134TIP3   OH218407   2.035   0.869   2.417  0.2120  0.1897 -0.7209
 6134TIP3    H118408   2.051   0.870   2.322  0.1205  1.3091 -0.7469
 6134TIP3    H218409   2.089   0.798   2.450 -0.6275 -0.9806 -1.7459
 6135TIP3   OH218410   3.821   4.629   5.147  0.1502  0.6774 -0.5157
 6135TIP3    H118411   3.890   4.594   5.091  0.4108  0.0300  0.1855
 6135TIP3    H218412   3.854   4.714   5.177  1.4028 -0.3383  1.1264
 6136TIP3   OH218413   4.563   4.732   3.778 -0.0199  0.6665  0.5436
 6136TIP3    H118414   4.637   4.757   3.724 -0.6676  0.3082 -0.5335
 6136TIP3    H218415   4.486   4.753   3.725 -0.6722  0.2160  1.2809
 6137TIP3   OH218416   1.525   3.125   1.580  0.2262  0.3023  0.0058
 6137TIP3    H118417   1.498   3.142   1.489  0.1139  2.5220  0.3822
 6137TIP3    H218418   1.479   3.045   1.605 -2.4105  1.4421 -0.8545
 6138TIP3   OH218419   5.447   1.999   0.572  0.0146 -0.3930  0.0409
 6138TIP3    H118420   5.529   2.048   0.558  1.2680 -2.2636  0.5130
 6138TIP3    H218421   5.448   1.931   0.505 -1.8658  0.3669 -0.8142
 6139TIP3   OH218422   5.930   5.187   1.641  0.3414 -0.4973  0.1862
 6139TIP3    H118423   5.856   5.133   1.670  1.2067 -1.6211  0.3852
 6139TIP3    H218424   5.909   5.275   1.672 -0.5907 -0.9302  0.8317
 6140TIP3   OH218425   4.758   4.871   3.921 -0.0329  0.6890 -0.5138
 6140TIP3    H118426   4.803   4.792   3.949 -1.3152 -0.7834 -2.3452
 6140TIP3    H218427   4.665   4.853   3.935 -0.3670  1.7560 -1.1774
 6141TIP3   OH218428   2.560   3.177   3.244 -0.0544 -0.5864  0.4875
 6141TIP3    H118429   2.548   3.170   3.339  0.9900 -1.8667  0.5476
 6141TIP3    H218430   2.591   3.090   3.217 -0.1426 -0.1825 -1.0029
 6142TIP3   OH218431   1.981   5.704   1.226  0.1802 -0.4587 -0.1815
 6142TIP3    H118432   1.971   5.608   1.223  2.0887 -0.7100  0.1930
 6142TIP3    H218433   1.966   5.726   1.318 -0.3263 -0.3829 -0.2807
 6143TIP3   OH218434   0.101   1.379   0.305 -0.0973 -0.5813  0.6384
 6143TIP3    H118435   0.081   1.327   0.383 -0.5623 -2.6387 -0.7877
 6143TIP3    H218436   0.191   1.356   0.283 -0.5799 -1.4759 -0.4808
 6144TIP3   OH218437   4.128   0.703   3.740  0.3178  0.7597 -0.0461
 6144TIP3    H118438   4.168   0.676   3.658  0.9325  1.6364 -0.0488
 6144TIP3    H218439   4.123   0.799   3.734  0.4070  0.8389  0.9560
 6145TIP3   OH218440   6.231   4.330   3.476 -0.0280 -0.6427 -0.5424
 6145TIP3    H118441   6.181   4.357   3.399  1.3178  1.4521 -0.7750
 6145TIP3    H218442   6.282   4.408   3.499  0.0793 -1.4143  2.1046
 6146TIP3   OH218443   4.534   4.076   0.425  0.2668  0.0688  0.7067
 6146TIP3    H118444   4.515   4.168   0.444  0.9568  0.3286  0.1637
 6146TIP3    H218445   4.555   4.075   0.332  2.3004 -0.2905  1.1323
 6147TIP3   OH218446   3.920   0.723   3.932  0.0582  0.3349  0.7148
 6147TIP3    H118447   3.856   0.666   3.890  1.3857  0.4129 -1.5881
 6147TIP3    H218448   3.994   0.726   3.871  1.2886  2.1306  2.1564
 6148TIP3   OH218449   2.076   3.062   0.419  0.3337  0.2050 -0.1676
 6148TIP3    H118450   2.103   3.116   0.493 -0.8295  0.2411  0.2506
 6148TIP3    H218451   2.123   2.979   0.430 -0.6810 -0.2017  1.2443
 6149TIP3   OH218452   2.055   5.547   3.637  0.4424 -0.5835 -0.3403
 6149TIP3    H118453   2.016   5.623   3.681  1.5683 -1.4909  2.4666
 6149TIP3    H218454   1.983   5.484   3.630 -0.2578  0.3332 -1.7934
 6150TIP3   OH218455   2.177   2.274   4.942  0.0956  0.6845 -0.4548
 6150TIP3    H118456   2.115   2.273   5.015 -0.9969  1.8836 -1.3320
 6150TIP3    H218457   2.140   2.213   4.879  0.8766 -0.1097 -0.1738
 6151TIP3   OH218458   1.460   2.567   1.302  0.1052  0.0503  0.1712
 6151TIP3    H118459   1.496   2.481   1.321 -1.5828 -0.6784  0.2117
 6151TIP3    H218460   1.531   2.614   1.258  1.0464 -1.3593  0.1498
 6152TIP3   OH218461   1.996   2.645   4.146 -0.6760  0.3576 -0.3407
 6152TIP3    H118462   2.063   2.712   4.137 -0.4957  0.0161 -1.7649
 6152TIP3    H218463   1.913   2.693   4.141 -0.5497  0.5512 -0.5533
 6153TIP3   OH218464   3.952   3.150   4.201 -0.2953 -0.0820 -0.1341
 6153TIP3    H118465   3.996   3.067   4.221  0.9078  0.8813  1.5406
 6153TIP3    H218466   4.007   3.192   4.135  1.3449  1.0209  1.7972
 6154TIP3   OH218467   0.595   3.810   0.727  0.2799 -0.0846  0.3695
 6154TIP3    H118468   0.654   3.800   0.652 -1.1999 -0.0416 -0.8562
 6154TIP3    H218469   0.513   3.769   0.698 -0.5649  0.6171  1.6770
 6155TIP3   OH218470   3.248   1.185   3.251 -0.1336  0.5458 -0.1516
 6155TIP3    H118471   3.326   1.176   3.197 -0.1249  1.9390 -0.4264
 6155TIP3    H218472   3.259   1.122   3.321  1.6957  1.3407  0.3340
 6156TIP3   OH218473   1.001   1.318   3.916  0.3443 -0.5655  0.4356
 6156TIP3    H118474   1.073   1.290   3.860  0.4700  0.6658 -0.0401
 6156TIP3    H218475   0.954   1.384   3.865 -1.9375 -2.2630  0.2096
 6157TIP3   OH218476   3.079   0.450   1.171 -0.3491 -0.3719  0.3388
 6157TIP3    H118477   3.141   0.483   1.235  0.4910 -1.0108 -0.1269
 6157TIP3    H218478   2.994   0.483   1.200  0.0847 -0.2329  1.4839
 6158TIP3   OH218479   1.384   1.302   4.942 -0.2469  0.5205  0.2981
 6158TIP3    H118480   1.375   1.284   5.035 -0.8640 -1.5078 -0.0911
 6158TIP3    H218481   1.468   1.346   4.933  0.6551 -0.8474  1.6488
 6159TIP3   OH218482   6.027   1.892   3.463  0.7262 -0.0161  0.2036
 6159TIP3    H118483   6.044   1.924   3.552  0.3474  0.1233  0.2250
 6159TIP3    H218484   5.941   1.927   3.440 -0.2350 -1.8976  0.6561
 6160TIP3   OH218485   5.144   4.235   4.614  0.0465 -0.4956  0.2075
 6160TIP3    H118486   5.169   4.326   4.633  0.3194 -0.5786  0.2502
 6160TIP3    H218487   5.062   4.222   4.663  0.6311 -0.6415  1.1670
 6161TIP3   OH218488   5.768   5.445   4.632 -0.4677 -0.0706 -0.4515
 6161TIP3    H118489   5.786   5.534   4.604 -0.9730  0.7359  1.6513
 6161TIP3    H218490   5.683   5.424   4.592 -0.5881  0.5758 -0.5392
 6162TIP3   OH218491   1.818   1.269   1.816 -0.1543  0.3115  0.3145
 6162TIP3    H118492   1.911   1.274   1.795  0.2518 -1.2706  1.5707
 6162TIP3    H218493   1.802   1.348   1.868  0.3249  0.8798 -0.3612
 6163TIP3   OH218494   5.846   2.037   0.308  0.1529 -0.4030  0.0734
 6163TIP3    H118495   5.897   2.009   0.232  1.4468  4.1293 -1.0588
 6163TIP3    H218496   5.757   2.047   0.274  0.8884  2.5167 -1.4012
 6164TIP3   OH218497   2.138   2.869   3.207  0.5063  0.2459  0.2000
 6164TIP3    H118498   2.181   2.907   3.283 -0.8463  1.3247  0.4590
 6164TIP3    H218499   2.105   2.784   3.237  0.2299  0.5411  0.7394
 6165TIP3   OH218500   6.072   3.703   2.340  0.6210  0.2371 -0.3141
 6165TIP3    H118501   6.134   3.630   2.349 -0.1081 -0.4235 -0.5412
 6165TIP3    H218502   6.046   3.701   2.248  1.7434  1.7556 -0.7009
 6166TIP3   OH218503   2.613   3.505   3.388 -0.3583  0.4189  0.5698
 6166TIP3    H118504   2.529   3.486   3.345 -0.0961 -0.3559  0.3783
 6166TIP3    H218505   2.591   3.518   3.480 -0.3560 -3.1208  1.2133
 6167TIP3   OH218506   5.203   3.542   0.646 -0.0640  0.7935  0.0381
 6167TIP3    H118507   5.293   3.544   0.678 -0.3299  0.3953  0.8584
 6167TIP3    H218508   5.163   3.470   0.694 -0.0706 -0.9420 -2.4100
 6168TIP3   OH218509   5.878   4.809   1.164  0.1942 -0.0419  0.0200
 6168TIP3    H118510   5.917   4.765   1.239  1.3856  0.9318  0.0023
 6168TIP3    H218511   5.929   4.890   1.154 -1.8357  1.3139 -0.0059
 6169TIP3   OH218512   4.418   4.263   1.805  0.2290 -0.1898 -0.5226
 6169TIP3    H118513   4.491   4.287   1.748 -0.6758 -0.6612 -1.9277
 6169TIP3    H218514   4.341   4.301   1.762 -0.6282 -1.6440 -0.3200
 6170TIP3   OH218515   2.295   4.529   2.410 -0.1475 -0.4843  0.2411
 6170TIP3    H118516   2.211   4.506   2.369 -0.9282 -1.5979  2.3088
 6170TIP3    H218517   2.360   4.479   2.361 -1.0466 -1.7890  0.3220
 6171TIP3   OH218518   1.747   4.989   1.216 -0.0810  0.2773  0.1825
 6171TIP3    H118519   1.771   4.941   1.137 -0.0935 -0.5513  0.6677
 6171TIP3    H218520   1.701   4.925   1.270  2.9803 -0.2972  2.4085
 6172TIP3   OH218521   3.533   4.317   2.603  0.4705 -0.5527 -0.1663
 6172TIP3    H118522   3.504   4.388   2.661 -0.4281  0.0744 -1.3356
 6172TIP3    H218523   3.511   4.347   2.515 -1.4871 -2.9547 -0.6215
 6173TIP3   OH218524   4.993   5.254   0.509 -0.0423  0.1048  0.3255
 6173TIP3    H118525   5.025   5.214   0.428 -0.1120 -0.3214  0.5085
 6173TIP3    H218526   4.954   5.337   0.481 -2.3351 -1.1563 -0.4266
 6174TIP3   OH218527   4.820   5.039   4.275 -0.2741 -0.1463 -0.2347
 6174TIP3    H118528   4.804   5.064   4.366 -0.3847 -0.3542 -0.1966
 6174TIP3    H218529   4.914   5.021   4.271 -0.3238 -0.4447 -0.0860
 6175TIP3   OH218530   4.155   5.564   1.968 -0.2404  0.7067 -0.4491
 6175TIP3    H118531   4.152   5.658   1.986 -2.0345  0.7958 -1.0591
 6175TIP3    H218532   4.150   5.558   1.872 -2.4108 -0.0381 -0.3295
 6176TIP3   OH218533   1.325   5.672   1.937 -0.3243 -0.2412 -0.0602
 6176TIP3    H118534   1.269   5.609   1.891 -0.3632 -0.3343  0.1143
 6176TIP3    H218535   1.394   5.618   1.976  0.1629 -0.0766 -0.6787
 6177TIP3   OH218536   4.755   3.142   3.539  0.2260 -0.9295  1.0024
 6177TIP3    H118537   4.667   3.118   3.510  0.5995 -1.5680  0.3800
 6177TIP3    H218538   4.768   3.091   3.619  0.6517 -2.1154  0.1999
 6178TIP3   OH218539   1.004   0.629   2.628  0.6890  0.1490  0.2837
 6178TIP3    H118540   0.916   0.652   2.661  0.6502  0.0451  0.2528
 6178TIP3    H218541   1.027   0.701   2.569  0.2021 -0.3247 -0.4909
 6179TIP3   OH218542   2.274   4.574   1.542 -0.1052  0.4262  0.1130
 6179TIP3    H118543   2.199   4.610   1.494 -0.6364 -1.3826 -0.5147
 6179TIP3    H218544   2.322   4.651   1.574 -0.8802  1.6682 -1.5568
 6180TIP3   OH218545   6.258   1.808   2.388 -0.5111 -0.1400 -0.0422
 6180TIP3    H118546   6.349   1.799   2.358 -0.1495  3.7976 -0.6241
 6180TIP3    H218547   6.265   1.830   2.480 -0.6273  2.4932 -0.6011
 6181TIP3   OH218548   0.293   1.922   5.135  0.5089 -0.1119  0.0950
 6181TIP3    H118549   0.386   1.940   5.143  0.6523 -0.7213 -0.1337
 6181TIP3    H218550   0.258   1.994   5.082  0.8905 -0.0099 -0.0193
 6182TIP3   OH218551   1.986   2.113   1.986  0.4054 -0.7098 -0.1447
 6182TIP3    H118552   1.998   2.173   2.059  0.1653 -1.2677  0.3631
 6182TIP3    H218553   1.899   2.075   1.999  0.4534 -0.9857 -0.5865
 6183TIP3   OH218554   1.418   3.432   3.633 -0.0392  0.3821  0.0549
 6183TIP3    H118555   1.434   3.338   3.626 -0.6149  0.1208  1.7013
 6183TIP3    H218556   1.453   3.469   3.552  1.2754 -1.0994 -0.1004
 6184TIP3   OH218557   5.976   0.736   0.489 -0.1996 -0.8121 -0.0432
 6184TIP3    H118558   6.041   0.784   0.438 -0.8764 -1.1160 -1.2364
 6184TIP3    H218559   6.010   0.646   0.493 -0.3710 -0.8981 -0.3978
 6185TIP3   OH218560   2.560   5.251   2.414  0.3267 -0.1294 -0.1812
 6185TIP3    H118561   2.553   5.181   2.479  0.1304  0.2294  0.1917
 6185TIP3    H218562   2.594   5.326   2.463 -0.1155  0.2327 -0.4181
 6186TIP3   OH218563   0.889   1.744   1.408 -0.0513 -0.1513  0.3735
 6186TIP3    H118564   0.885   1.725   1.314  0.5373 -0.8495  0.4901
 6186TIP3    H218565   0.807   1.708   1.443  0.9540 -2.3764  0.5640
 6187TIP3   OH218566   1.452   2.930   2.021  0.2186 -0.2773  0.2827
 6187TIP3    H118567   1.526   2.979   2.056 -0.7138  0.2596  1.5987
 6187TIP3    H218568   1.426   2.872   2.092  0.2492 -1.5077 -0.6721
 6188TIP3   OH218569   5.431   0.850   4.510  0.1170 -0.4375  0.3130
 6188TIP3    H118570   5.455   0.931   4.465 -0.8986 -1.2060 -1.7199
 6188TIP3    H218571   5.361   0.876   4.570 -0.5002  0.1266 -0.6327
 6189TIP3   OH218572   5.023   4.240   4.166 -0.4694 -0.5464  0.1913
 6189TIP3    H118573   4.963   4.254   4.093 -0.1659 -0.7319 -0.0980
 6189TIP3    H218574   5.036   4.327   4.203  0.9155 -0.0936 -1.2055
 6190TIP3   OH218575   4.882   0.865   3.957 -0.6140 -0.5382 -0.4424
 6190TIP3    H118576   4.975   0.880   3.938 -0.2719  0.0660  1.5081
 6190TIP3    H218577   4.882   0.792   4.019 -1.2519  0.8073  1.2129
 6191TIP3   OH218578   3.512   1.984   1.780  0.2026  0.4191  0.0039
 6191TIP3    H118579   3.450   2.056   1.766 -0.6350 -0.2618  0.0991
 6191TIP3    H218580   3.559   1.976   1.697  1.1339  1.8290  0.3737
 6192TIP3   OH218581   0.382   4.656   4.035  0.6948  0.8361 -0.2527
 6192TIP3    H118582   0.379   4.560   4.026  0.5909  0.7863  0.2617
 6192TIP3    H218583   0.318   4.688   3.972  0.0603  0.5097  0.2060
 6193TIP3   OH218584   4.618   4.188   1.403 -0.2571  0.4801  0.1751
 6193TIP3    H118585   4.688   4.211   1.343 -3.0787  1.7328 -2.9680
 6193TIP3    H218586   4.614   4.260   1.465  0.5738  0.8872 -0.2333
 6194TIP3   OH218587   4.623   4.026   2.566 -0.2944 -0.0740  0.2753
 6194TIP3    H118588   4.699   3.987   2.610 -0.6366 -1.6495 -0.4282
 6194TIP3    H218589   4.603   3.964   2.495 -2.4557  0.1027  0.6673
 6195TIP3   OH218590   1.320   2.036   1.322 -0.1363  0.4212 -0.1428
 6195TIP3    H118591   1.323   1.985   1.241  0.9956 -0.9160  0.6767
 6195TIP3    H218592   1.236   2.014   1.362  0.0762 -0.3553 -0.1042
 6196TIP3   OH218593   2.374   1.913   3.749 -0.0599 -0.4015  0.5976
 6196TIP3    H118594   2.372   1.931   3.655  0.4204 -0.6660  0.5347
 6196TIP3    H218595   2.309   1.844   3.761 -0.7240  0.2109  0.5923
 6197TIP3   OH218596   5.639   4.729   4.486 -0.0565 -0.3086  0.2994
 6197TIP3    H118597   5.550   4.765   4.484 -0.3895 -0.9929  1.4980
 6197TIP3    H218598   5.675   4.758   4.570  1.4876  1.3155 -0.8437
 6198TIP3   OH218599   1.983   3.581   0.160  0.0113 -0.7931 -0.0032
 6198TIP3    H118600   1.922   3.537   0.220 -0.8263 -0.5978 -0.6928
 6198TIP3    H218601   2.013   3.658   0.208 -1.4524 -0.0667 -0.1784
 6199TIP3   OH218602   1.181   4.310   4.468 -0.3237  0.2510 -0.2925
 6199TIP3    H118603   1.176   4.286   4.561  1.0875  1.2792  0.0796
 6199TIP3    H218604   1.122   4.384   4.459  0.0513  0.5851 -0.0501
 6200TIP3   OH218605   0.780   2.822   2.851 -0.5716 -0.0967  0.2169
 6200TIP3    H118606   0.741   2.760   2.790  0.7280 -0.1770 -0.5702
 6200TIP3    H218607   0.853   2.775   2.890 -1.4289 -0.0829  1.9461
 6201TIP3   OH218608   4.031   0.599   0.478  0.1910 -0.5144 -0.0101
 6201TIP3    H118609   4.012   0.560   0.393 -0.2942 -0.2693 -0.0205
 6201TIP3    H218610   3.969   0.558   0.538 -0.8990  0.8115 -0.1774
 6202TIP3   OH218611   1.547   5.512   3.941  0.1582  0.6683 -0.1660
 6202TIP3    H118612   1.534   5.528   4.034  0.5073 -1.7808  0.3832
 6202TIP3    H218613   1.516   5.422   3.928  0.1461  0.9421 -2.4158
 6203TIP3   OH218614   1.065   2.102   1.971 -0.0535 -0.4546 -0.0379
 6203TIP3    H118615   1.107   2.081   2.055  1.1649  0.1786 -0.4638
 6203TIP3    H218616   1.034   2.192   1.982 -1.1764 -0.8512  0.2033
 6204TIP3   OH218617   0.933   0.347   2.376 -0.0755  0.0377 -0.1776
 6204TIP3    H118618   0.862   0.407   2.356  0.3050  1.4682  2.2797
 6204TIP3    H218619   0.890   0.263   2.393 -1.1144  0.6668  0.4221
 6205TIP3   OH218620   4.406   3.690   3.426  0.4538  0.5857 -0.0197
 6205TIP3    H118621   4.452   3.612   3.395 -1.7262 -0.8509  0.0656
 6205TIP3    H218622   4.320   3.657   3.453 -0.5202  3.0377  0.1241
 6206TIP3   OH218623   4.606   0.628   0.116  0.1079  0.1309 -0.1957
 6206TIP3    H118624   4.687   0.677   0.108  1.2980 -1.6249  0.4692
 6206TIP3    H218625   4.549   0.684   0.169  1.1766  1.0519  0.0104
 6207TIP3   OH218626   2.330   2.075   3.010  0.0100 -0.3596  0.2159
 6207TIP3    H118627   2.403   2.126   2.974 -0.8700 -0.1737 -1.3585
 6207TIP3    H218628   2.372   1.995   3.044  1.0238  0.0507 -0.0238
 6208TIP3   OH218629   1.049   0.641   0.095 -0.5324 -0.2203  0.3040
 6208TIP3    H118630   0.981   0.684   0.044  1.7466  0.7986 -2.1338
 6208TIP3    H218631   1.082   0.572   0.037  0.8049 -0.3794  1.2111
 6209TIP3   OH218632   0.717   2.969   3.853 -0.8417  0.4802  0.1065
 6209TIP3    H118633   0.787   3.024   3.889  0.5438 -0.5307 -0.9219
 6209TIP3    H218634   0.697   3.009   3.768 -1.6714  0.8668  0.4687
 6210TIP3   OH218635   2.479   1.881   0.455  0.4334 -0.6380  0.1952
 6210TIP3    H118636   2.494   1.862   0.362  1.3922 -0.7692  0.3584
 6210TIP3    H218637   2.492   1.796   0.498 -2.1105 -1.0559  0.2590
 6211TIP3   OH218638   2.465   2.190   4.662 -0.0107  0.0474  0.2348
 6211TIP3    H118639   2.380   2.153   4.688  0.8651 -2.5617 -0.3191
 6211TIP3    H218640   2.516   2.190   4.743  0.1131 -0.3687  0.1603
 6212TIP3   OH218641   5.355   2.903   4.294 -0.4436 -0.5140 -0.0951
 6212TIP3    H118642   5.386   2.956   4.367 -0.5796 -0.4366 -0.0950
 6212TIP3    H218643   5.358   2.961   4.219 -0.7178 -0.4686 -0.0702
 6213TIP3   OH218644   2.104   0.732   4.101  0.4073  0.3363 -0.0467
 6213TIP3    H118645   2.017   0.765   4.078  0.8203  0.1380 -2.0512
 6213TIP3    H218646   2.087   0.645   4.137 -0.2797  0.6344  0.3671
 6214TIP3   OH218647   5.116   0.211   4.749  0.0960 -0.0098  0.5098
 6214TIP3    H118648   5.100   0.299   4.716  1.1840  0.1981  0.4734
 6214TIP3    H218649   5.076   0.153   4.684 -1.2192  0.4587  0.8838
 6215TIP3   OH218650   4.084   3.298   5.058  0.1630 -0.2032 -0.4818
 6215TIP3    H118651   4.113   3.332   4.973 -2.5920  2.3363 -0.5376
 6215TIP3    H218652   4.145   3.337   5.121  1.7047 -1.4329 -1.1351
 6216TIP3   OH218653   6.213   1.564   0.408 -0.4693 -0.0504  0.1471
 6216TIP3    H118654   6.198   1.638   0.349 -1.0539  0.8088  1.3171
 6216TIP3    H218655   6.288   1.518   0.371 -1.9817 -0.7087 -2.3397
 6217TIP3   OH218656   3.471   0.737   2.601  0.1834  0.4519  0.1550
 6217TIP3    H118657   3.390   0.733   2.652 -0.4701 -1.4477 -0.9284
 6217TIP3    H218658   3.509   0.650   2.609  2.9571  1.6856  1.8302
 6218TIP3   OH218659   4.518   3.000   2.811 -0.4141  0.0301 -0.0757
 6218TIP3    H118660   4.593   3.059   2.816  1.8026 -2.4136 -2.0776
 6218TIP3    H218661   4.532   2.937   2.881 -1.1494  0.1054  0.1473
 6219TIP3   OH218662   5.150   4.533   4.638  0.7620 -0.4078  0.1581
 6219TIP3    H118663   5.129   4.514   4.730  0.9825 -2.4672 -0.1716
 6219TIP3    H218664   5.245   4.523   4.632  0.8339  0.4056 -0.1631
 6220TIP3   OH218665   5.248   1.466   1.387  0.1081  0.3988  0.6117
 6220TIP3    H118666   5.243   1.374   1.411  2.2126 -0.3282 -1.3251
 6220TIP3    H218667   5.293   1.509   1.460 -1.6586  0.1471  1.9210
 6221TIP3   OH218668   3.079   1.511   1.096  0.5686  0.2684 -0.1109
 6221TIP3    H118669   3.146   1.497   1.163 -0.2373 -1.2663  0.4308
 6221TIP3    H218670   3.007   1.552   1.143  0.1719 -0.3991 -0.1266
 6222TIP3   OH218671   2.681   5.882   4.659 -0.3398 -0.1351  0.2660
 6222TIP3    H118672   2.739   5.914   4.590 -0.7925  0.8790  0.3377
 6222TIP3    H218673   2.601   5.856   4.614 -0.9725  1.3581  0.4704
 6223TIP3   OH218674   4.044   3.449   0.245 -0.4868  0.6663  0.3576
 6223TIP3    H118675   4.099   3.371   0.244 -1.8479 -0.3600 -1.4686
 6223TIP3    H218676   4.016   3.458   0.337  1.0605  0.0465  0.9123
 6224TIP3   OH218677   5.247   4.335   1.092 -0.2781  0.1137  0.5221
 6224TIP3    H118678   5.262   4.307   1.002 -0.4710  0.4835  0.3740
 6224TIP3    H218679   5.155   4.360   1.095 -0.2938  0.0215  0.8449
 6225TIP3   OH218680   4.072   4.097   2.283 -0.6039 -0.3714 -0.2868
 6225TIP3    H118681   4.005   4.071   2.219 -0.3546 -0.8670 -0.3496
 6225TIP3    H218682   4.055   4.190   2.299 -1.6910 -0.6267  0.1443
 6226TIP3   OH218683   3.606   3.285   2.860  0.1170  0.6590  0.3444
 6226TIP3    H118684   3.559   3.280   2.943  0.4465 -0.8323  0.4646
 6226TIP3    H218685   3.675   3.350   2.875  0.4368  0.1000  1.3806
 6227TIP3   OH218686   6.355   3.520   4.104  0.1111  0.3563 -0.2377
 6227TIP3    H118687   6.377   3.590   4.165  0.6355 -0.2329  0.2682
 6227TIP3    H218688   6.273   3.484   4.138  0.8287 -0.5100  0.6163
 6228TIP3   OH218689   5.335   3.057   3.383  0.1982  0.6414  0.1271
 6228TIP3    H118690   5.345   2.963   3.395 -1.4937  0.3884 -0.2220
 6228TIP3    H218691   5.424   3.092   3.392  1.0434 -1.1135 -0.9982
 6229TIP3   OH218692   2.223   2.898   4.901  0.3787  0.1050 -0.3125
 6229TIP3    H118693   2.221   2.883   4.807 -1.8234  0.4058 -0.3460
 6229TIP3    H218694   2.165   2.831   4.937  1.1415  0.0377  0.8513
 6230TIP3   OH218695   1.463   3.551   3.878  0.0610 -0.3985  0.3780
 6230TIP3    H118696   1.380   3.554   3.925 -0.7226  4.2499 -0.8591
 6230TIP3    H218697   1.446   3.495   3.802 -1.6400 -0.3474  0.6781
 6231TIP3   OH218698   2.553   5.842   2.053 -0.4634 -0.2387  0.2062
 6231TIP3    H118699   2.609   5.767   2.034 -0.6009 -0.3570  0.2669
 6231TIP3    H218700   2.598   5.917   2.014  1.4929  0.2603  3.1144
 6232TIP3   OH218701   0.503   5.392   0.624  0.1745  0.2297  0.1354
 6232TIP3    H118702   0.449   5.470   0.640 -1.5055 -0.3328 -2.1677
 6232TIP3    H218703   0.539   5.406   0.536  0.4761 -1.2479  0.0027
 6233TIP3   OH218704   4.431   5.445   2.347  0.0488  0.0914  0.1222
 6233TIP3    H118705   4.471   5.450   2.260 -0.9187  1.1499 -0.2840
 6233TIP3    H218706   4.403   5.534   2.366 -0.8081 -0.3496  1.0115
 6234TIP3   OH218707   3.481   2.059   2.879 -0.1089  0.2648  0.0357
 6234TIP3    H118708   3.410   2.051   2.817 -0.1782 -0.0026  0.1470
 6234TIP3    H218709   3.555   2.092   2.828 -0.5324  1.3230  0.0808
 6235TIP3   OH218710   1.049   1.783   4.380  0.8349  0.0514  0.4362
 6235TIP3    H118711   1.136   1.744   4.373  0.7795  0.2106 -2.0192
 6235TIP3    H218712   1.054   1.863   4.328 -0.2553  1.1332  1.8980
 6236TIP3   OH218713   2.506   5.601   0.905 -0.2399 -0.2402 -0.1869
 6236TIP3    H118714   2.554   5.558   0.976 -1.9586  0.7547  1.6740
 6236TIP3    H218715   2.522   5.695   0.918  2.0089 -0.0602 -3.1168
 6237TIP3   OH218716   0.354   1.454  -0.004  0.3802 -1.2215  0.9828
 6237TIP3    H118717   0.419   1.524   0.001 -1.9929  1.1136  2.3397
 6237TIP3    H218718   0.328   1.439   0.087 -1.4771 -1.4945  0.4472
 6238TIP3   OH218719   2.703   5.235   0.182 -0.2985 -0.1611  0.2257
 6238TIP3    H118720   2.765   5.301   0.214 -3.1251  2.2156  1.2566
 6238TIP3    H218721   2.636   5.231   0.250 -1.0206 -3.0803 -0.5466
 6239TIP3   OH218722   1.536   4.864   2.237 -0.3124 -0.1374  0.5990
 6239TIP3    H118723   1.485   4.898   2.164 -0.0766 -0.5438  0.2421
 6239TIP3    H218724   1.626   4.889   2.217  0.3639 -3.4540 -1.2040
 6240TIP3   OH218725   0.750   4.171   2.206 -0.2647 -0.8122  0.1439
 6240TIP3    H118726   0.662   4.197   2.181  0.4874  2.3490  0.2463
 6240TIP3    H218727   0.798   4.164   2.124  0.0019  0.3240  0.1767
 6241TIP3   OH218728   1.069   2.924   4.119  0.5506  0.1503  0.2985
 6241TIP3    H118729   1.030   2.869   4.052 -1.1277  0.5987  0.8344
 6241TIP3    H218730   1.055   3.013   4.088 -1.4735  0.4285  1.7715
 6242TIP3   OH218731   6.216   2.824   0.827 -0.2513 -0.3135  0.2150
 6242TIP3    H118732   6.312   2.826   0.828 -0.2178 -0.0125 -1.2579
 6242TIP3    H218733   6.193   2.754   0.888  0.8834 -0.2138  0.7943
 6243TIP3   OH218734   0.970   0.909   2.562 -0.1219 -0.2417  0.0180
 6243TIP3    H118735   0.937   0.973   2.626 -3.1772 -0.0840 -1.5131
 6243TIP3    H218736   0.947   0.947   2.477 -0.4211 -2.5729 -1.0086
 6244TIP3   OH218737   4.800   5.118   4.528  0.2209 -0.1130  0.2023
 6244TIP3    H118738   4.725   5.173   4.551 -0.8720 -1.0190 -1.0149
 6244TIP3    H218739   4.827   5.079   4.611 -0.3935  0.5482  0.7295
 6245TIP3   OH218740   6.323   0.983   0.959 -0.4320  0.3992  0.1123
 6245TIP3    H118741   6.287   1.034   1.032 -0.9179  1.1090 -0.6061
 6245TIP3    H218742   6.262   0.997   0.887 -0.0633 -0.4488 -0.3869
 6246TIP3   OH218743   0.209   5.377   1.226  0.0331 -0.8735  0.3556
 6246TIP3    H118744   0.157   5.300   1.204  0.6523 -1.7150  1.6666
 6246TIP3    H218745   0.161   5.451   1.188 -1.1189 -1.8047 -0.0538
 6247TIP3   OH218746   5.439   4.839   1.728  0.0392  0.1529 -0.4238
 6247TIP3    H118747   5.351   4.821   1.762  0.2466  2.9575  2.0004
 6247TIP3    H218748   5.487   4.757   1.741 -1.5920 -0.7230  0.3916
 6248TIP3   OH218749   6.146   3.779   5.205 -0.1832  0.0173  0.0425
 6248TIP3    H118750   6.187   3.788   5.120 -0.1853 -3.1044 -0.4074
 6248TIP3    H218751   6.052   3.791   5.188 -0.1780 -0.5354 -0.4004
 6249TIP3   OH218752   4.573   3.359   1.091 -0.1168 -0.2153  0.7265
 6249TIP3    H118753   4.510   3.394   1.153 -2.1239  1.8819 -2.2203
 6249TIP3    H218754   4.628   3.434   1.067  0.3147 -0.8302 -0.3071
 6250TIP3   OH218755   2.567   1.560   2.900  0.1864  0.2154  0.3185
 6250TIP3    H118756   2.547   1.481   2.950 -0.3988  1.0909  1.5349
 6250TIP3    H218757   2.614   1.529   2.823 -1.4660 -1.4613 -0.0769
 6251TIP3   OH218758   2.035   5.578   0.681  0.0226 -0.6550  0.2944
 6251TIP3    H118759   2.035   5.527   0.762 -0.2655  0.4436  1.0016
 6251TIP3    H218760   2.117   5.627   0.683 -0.9752  1.0764  1.0466
 6252TIP3   OH218761   3.782   1.827   2.947  0.3783 -0.8064  0.1494
 6252TIP3    H118762   3.791   1.745   2.897  0.4463  0.5133 -2.1435
 6252TIP3    H218763   3.690   1.828   2.973  0.1693 -1.2296 -0.5274
 6253TIP3   OH218764   3.802   5.463   1.326  0.6084 -0.0059 -1.0465
 6253TIP3    H118765   3.789   5.420   1.242 -0.5824 -0.1544 -0.8075
 6253TIP3    H218766   3.792   5.392   1.390  0.2902  0.3314 -0.7245
 6254TIP3   OH218767   3.396   0.690   4.540  0.2012 -0.2521 -0.0305
 6254TIP3    H118768   3.385   0.745   4.463 -0.6815 -0.5835 -0.1450
 6254TIP3    H218769   3.393   0.751   4.614 -3.0291 -0.3180  0.0038
 6255TIP3   OH218770   1.286   3.832   4.091 -0.6506  0.3659 -0.4789
 6255TIP3    H118771   1.315   3.859   4.003  0.0320 -0.3050 -0.4631
 6255TIP3    H218772   1.281   3.737   4.087  1.5184  0.1326  0.8358
 6256TIP3   OH218773   2.110   3.240   2.568 -0.3932 -0.4795  0.2476
 6256TIP3    H118774   2.172   3.170   2.547 -0.8894 -0.6090 -0.8440
 6256TIP3    H218775   2.081   3.221   2.658  2.2645  0.4448  1.4091
 6257TIP3   OH218776   3.709   2.480   3.410  0.4677  0.0142 -0.0048
 6257TIP3    H118777   3.797   2.474   3.372  0.5500 -0.7500  0.2798
 6257TIP3    H218778   3.721   2.456   3.502 -0.1277 -0.7270 -0.1101
 6258TIP3   OH218779   6.162   1.986   3.231 -0.1820 -0.6580 -0.4276
 6258TIP3    H118780   6.096   2.016   3.170 -0.9877  0.9783  1.1434
 6258TIP3    H218781   6.119   1.988   3.317  1.7364 -0.0140  0.5935
 6259TIP3   OH218782   2.366   4.567   1.288 -0.0653 -0.0575 -0.0228
 6259TIP3    H118783   2.361   4.662   1.297 -1.6279 -0.2470  1.6122
 6259TIP3    H218784   2.345   4.533   1.375 -1.6090 -1.9086 -1.0272
 6260TIP3   OH218785   3.650   2.909   2.827 -0.5547  0.3228 -0.4003
 6260TIP3    H118786   3.600   2.850   2.771 -0.5882  1.6635 -1.8499
 6260TIP3    H218787   3.609   2.901   2.913 -0.8460 -1.3797 -0.6735
 6261TIP3   OH218788   5.985   1.865   4.279 -0.3703 -0.0437 -0.6095
 6261TIP3    H118789   5.919   1.801   4.253 -1.5025  0.7791  0.1381
 6261TIP3    H218790   5.955   1.898   4.364  2.0913 -1.1290  0.8102
 6262TIP3   OH218791   0.570   2.098   3.497  0.0591  0.6008  0.3401
 6262TIP3    H118792   0.565   2.087   3.592  0.6167  1.1407  0.4384
 6262TIP3    H218793   0.570   2.008   3.462 -1.4917  0.4088  0.7581
 6263TIP3   OH218794   6.305   2.211   1.493 -0.0462  0.1290  0.8135
 6263TIP3    H118795   6.220   2.245   1.521  0.1643 -0.7181  2.6228
 6263TIP3    H218796   6.368   2.247   1.556  0.4186 -2.0505  1.7134
 6264TIP3   OH218797   2.710   2.688   1.597 -0.0015 -0.1593  0.4257
 6264TIP3    H118798   2.618   2.710   1.583  0.2533  0.8354  0.2396
 6264TIP3    H218799   2.708   2.608   1.649 -0.9673 -0.3255  0.1507
 6265TIP3   OH218800   5.854   5.359   0.896  0.0839  0.4383  0.3282
 6265TIP3    H118801   5.922   5.402   0.948 -0.1581 -1.3478  2.2103
 6265TIP3    H218802   5.896   5.342   0.812  1.5401  0.5522  1.0044
 6266TIP3   OH218803   3.616   5.132   1.097 -0.4424 -0.4628  0.4025
 6266TIP3    H118804   3.644   5.073   1.168 -0.2924 -0.7199  0.1285
 6266TIP3    H218805   3.688   5.194   1.087 -0.3216 -0.6261  0.2534
 6267TIP3   OH218806   2.392   4.150   0.353 -0.1626  0.0621 -0.2523
 6267TIP3    H118807   2.308   4.119   0.322  1.1545 -2.0137 -2.0351
 6267TIP3    H218808   2.399   4.239   0.318 -1.2508 -0.0437 -0.7772
 6268TIP3   OH218809   6.344   4.086   2.896 -0.0624  0.3308 -0.0296
 6268TIP3    H118810   6.289   4.136   2.836  1.4215  2.2978  0.1430
 6268TIP3    H218811   6.380   4.016   2.842  0.4451  1.4608 -1.2438
 6269TIP3   OH218812   1.036   2.019   0.849  0.2266 -0.5346  0.2695
 6269TIP3    H118813   1.130   2.015   0.870  0.4303 -0.3109 -0.5655
 6269TIP3    H218814   0.998   2.068   0.922  0.8597 -0.0713  0.3042
 6270TIP3   OH218815   5.523   3.956   3.481  0.2205  0.2210  0.0195
 6270TIP3    H118816   5.448   3.902   3.506  0.5618 -0.4117 -0.2881
 6270TIP3    H218817   5.595   3.893   3.472  0.4656  0.6322 -1.0101
 6271TIP3   OH218818   1.449   5.124   3.610  0.0609 -0.1866 -0.0747
 6271TIP3    H118819   1.515   5.060   3.586  0.0264 -0.7305  1.1635
 6271TIP3    H218820   1.367   5.090   3.573  0.5203  0.8068 -2.1455
 6272TIP3   OH218821   3.839   0.940   1.883  0.5649  1.0578  0.6579
 6272TIP3    H118822   3.793   0.990   1.816  0.9626  0.5260 -0.0243
 6272TIP3    H218823   3.858   0.856   1.841  1.3505  0.9413  1.2365
 6273TIP3   OH218824   3.331   2.030   3.430  0.0889 -0.3649 -0.2351
 6273TIP3    H118825   3.409   2.085   3.436 -0.3659  0.3171 -0.4599
 6273TIP3    H218826   3.259   2.087   3.457 -0.1666 -1.4199  1.5208
 6274TIP3   OH218827   5.745   2.541   1.779 -0.5121 -0.1436  0.1860
 6274TIP3    H118828   5.759   2.522   1.686 -0.9206 -0.0733  0.1069
 6274TIP3    H218829   5.700   2.626   1.779 -1.2479 -0.5204  0.4085
 6275TIP3   OH218830   1.780   5.230   1.348 -0.7237  0.7278 -0.2698
 6275TIP3    H118831   1.772   5.156   1.288  1.2102  2.3402 -2.6792
 6275TIP3    H218832   1.816   5.192   1.428 -1.4607 -1.1878 -0.7927
 6276TIP3   OH218833   4.482   0.259   4.480  0.0108  0.2287  0.3663
 6276TIP3    H118834   4.540   0.211   4.420  1.3857  0.4113  1.5056
 6276TIP3    H218835   4.519   0.244   4.567 -1.3901  0.7590  1.0878
 6277TIP3   OH218836   0.519   3.298   3.681  0.1075  0.5082 -0.7364
 6277TIP3    H118837   0.594   3.357   3.677  1.7121 -1.3139  0.5951
 6277TIP3    H218838   0.504   3.285   3.775  1.0948 -2.6638 -0.9319
 6278TIP3   OH218839   1.768   5.881   1.788  0.5661 -0.5145 -0.5383
 6278TIP3    H118840   1.781   5.951   1.723 -2.1460  0.1862 -0.4729
 6278TIP3    H218841   1.731   5.809   1.738  0.0948 -0.6087 -0.0617
 6279TIP3   OH218842   3.762   2.623   0.158  0.5086 -0.2580 -0.0016
 6279TIP3    H118843   3.713   2.579   0.088 -1.3984  0.3024  0.9196
 6279TIP3    H218844   3.706   2.695   0.186  2.2360  0.9473  0.5821
 6280TIP3   OH218845   4.113   2.089   1.736 -0.0669  0.2647  0.1208
 6280TIP3    H118846   4.157   2.169   1.765 -0.7318 -0.3284  3.1454
 6280TIP3    H218847   4.184   2.032   1.707  0.5240  1.4635 -0.8904
 6281TIP3   OH218848   1.336   4.351   0.471 -0.6267 -0.2713 -0.2133
 6281TIP3    H118849   1.298   4.356   0.559 -0.0745 -0.3049  0.0344
 6281TIP3    H218850   1.343   4.442   0.442  0.0510 -0.1992  0.1610
 6282TIP3   OH218851   3.566   3.587   4.854 -0.1438 -0.2992 -0.5649
 6282TIP3    H118852   3.648   3.545   4.827  0.3822 -1.0820  1.9852
 6282TIP3    H218853   3.524   3.522   4.911 -0.6612  1.5128  1.2289
 6283TIP3   OH218854   2.199   1.281   3.779  0.2991  0.0082  0.1652
 6283TIP3    H118855   2.239   1.261   3.864 -0.8379 -0.6575  0.5646
 6283TIP3    H218856   2.105   1.286   3.797  0.1258  0.7972 -0.8853
 6284TIP3   OH218857   1.758   0.507   1.652  0.0546 -0.4180 -0.0452
 6284TIP3    H118858   1.688   0.441   1.643  0.2437 -0.4234 -1.7899
 6284TIP3    H218859   1.714   0.590   1.637  0.4328 -0.4360 -1.3364
 6285TIP3   OH218860   3.256   4.529   4.959  0.1307 -0.6920 -0.5200
 6285TIP3    H118861   3.227   4.604   4.907 -1.1728 -1.5281 -1.0532
 6285TIP3    H218862   3.348   4.517   4.936  1.1888  2.3249  1.5342
 6286TIP3   OH218863   3.796   4.986   3.602 -0.2468 -0.2382 -0.1498
 6286TIP3    H118864   3.745   4.997   3.682  0.3062  1.8291 -0.0306
 6286TIP3    H218865   3.731   4.987   3.532 -0.5224  0.7071  0.1079
 6287TIP3   OH218866   4.155   0.987   2.430  0.3286  0.3207 -0.2548
 6287TIP3    H118867   4.060   0.978   2.417  0.4198 -0.2897 -0.5568
 6287TIP3    H218868   4.171   1.081   2.428 -0.1891  0.4049 -0.8884
 6288TIP3   OH218869   0.496   2.334   1.360 -0.2733 -0.0509  0.1152
 6288TIP3    H118870   0.556   2.377   1.299  0.9234 -0.8591  0.6885
 6288TIP3    H218871   0.429   2.295   1.303 -0.4500  1.1192 -0.5120
 6289TIP3   OH218872   4.938   2.111   0.124 -1.1226 -0.2387  0.1892
 6289TIP3    H118873   4.861   2.145   0.169 -1.4000  0.2037 -0.5889
 6289TIP3    H218874   5.010   2.166   0.155 -1.1695 -0.4499  0.6807
 6290TIP3   OH218875   4.947   1.579   0.154  0.0361 -0.5282 -0.5510
 6290TIP3    H118876   4.936   1.498   0.105 -0.3730 -1.3288  0.8102
 6290TIP3    H218877   5.017   1.625   0.108  0.7761 -1.9834 -0.9594
 6291TIP3   OH218878   6.276   4.880   0.148  0.3342  0.2101  0.0621
 6291TIP3    H118879   6.341   4.848   0.211 -0.0930 -0.7892  0.0061
 6291TIP3    H218880   6.192   4.859   0.188 -0.1128 -4.3194 -2.5296
 6292TIP3   OH218881   0.952   0.027   0.383  0.3190  0.1399 -0.5699
 6292TIP3    H118882   0.986  -0.044   0.330 -1.2740 -1.2591  0.1714
 6292TIP3    H218883   0.857   0.021   0.373  0.0301  0.6101  1.4144
 6293TIP3   OH218884   2.617   1.192   3.320  0.2559 -0.1369  0.2828
 6293TIP3    H118885   2.525   1.188   3.347  0.2794 -0.8560  0.2637
 6293TIP3    H218886   2.665   1.209   3.401  0.1692 -0.5085  0.4139
 6294TIP3   OH218887   5.069   0.366   1.419 -0.2908  0.1011 -0.0661
 6294TIP3    H118888   5.064   0.273   1.398  1.3156  0.2061 -1.1426
 6294TIP3    H218889   5.140   0.373   1.482 -0.6436  0.5673  0.2883
 6295TIP3   OH218890   4.432   4.881   2.237  0.1026 -0.4672  0.6132
 6295TIP3    H118891   4.486   4.956   2.260  0.6916 -0.0015 -1.9628
 6295TIP3    H218892   4.344   4.903   2.269  0.6875  0.3695  1.6954
 6296TIP3   OH218893   3.237   3.228   3.211 -0.3641 -0.0778  0.0449
 6296TIP3    H118894   3.254   3.162   3.143 -1.1257  0.4415 -0.6782
 6296TIP3    H218895   3.223   3.177   3.291  0.3591 -0.7163 -0.2192
 6297TIP3   OH218896   3.540   3.790   3.311  0.0190 -0.2335 -0.2955
 6297TIP3    H118897   3.581   3.717   3.263 -1.1155 -0.9210 -0.2506
 6297TIP3    H218898   3.446   3.780   3.293 -0.5916 -1.1159  2.8070
 6298TIP3   OH218899   2.541   5.378   0.006 -0.3126  0.4931  0.1729
 6298TIP3    H118900   2.493   5.441   0.059 -0.7696 -0.3394  0.7835
 6298TIP3    H218901   2.606   5.341   0.066 -1.1618 -0.8128  0.3284
 6299TIP3   OH218902   3.037   5.940   3.258 -0.2610 -0.3174  0.4619
 6299TIP3    H118903   3.124   5.958   3.222 -0.2209 -0.5593  0.4350
 6299TIP3    H218904   2.995   6.026   3.263 -0.2427 -0.2712 -0.0988
 6300TIP3   OH218905   3.998   2.662   0.343  0.1860 -0.2453 -0.0660
 6300TIP3    H118906   3.902   2.659   0.347  0.1852 -2.7992 -0.5204
 6300TIP3    H218907   4.026   2.651   0.434  0.0855  1.3450  0.1827
 6301TIP3   OH218908   3.942   0.018   1.524 -0.4792 -0.0054  0.0876
 6301TIP3    H118909   4.020   0.041   1.475 -0.3576 -0.3195  0.1296
 6301TIP3    H218910   3.869   0.035   1.464 -0.3529 -0.0816 -0.0879
 6302TIP3   OH218911   1.475   3.229   1.290 -0.5956  0.2335  0.3234
 6302TIP3    H118912   1.560   3.186   1.281 -0.5899  0.3288 -0.0810
 6302TIP3    H218913   1.473   3.294   1.220 -1.5698 -0.7015 -0.5398
 6303TIP3   OH218914   0.271   2.069   2.171 -0.2444  0.5404 -0.1318
 6303TIP3    H118915   0.240   2.143   2.224  0.1549 -0.6310  1.8234
 6303TIP3    H218916   0.364   2.088   2.157 -0.2141  0.5527  0.0872
 6304TIP3   OH218917   6.072   4.109   0.126  0.0565  0.2483  0.2065
 6304TIP3    H118918   6.152   4.057   0.113  0.3608  0.3177  1.6142
 6304TIP3    H218919   6.052   4.144   0.040  1.6400  0.3510 -0.1515
 6305TIP3   OH218920   0.091   1.564   3.337  0.0551 -0.0471 -0.6018
 6305TIP3    H118921   0.007   1.519   3.340 -0.0252 -0.0153 -1.7845
 6305TIP3    H218922   0.072   1.648   3.295  0.5247  0.3255 -0.0795
 6306TIP3   OH218923   5.390   5.713   3.964 -0.4772  0.1298 -0.1426
 6306TIP3    H118924   5.377   5.626   4.002 -2.5793  1.0742  1.5552
 6306TIP3    H218925   5.337   5.712   3.884  2.0628 -1.1006 -1.9195
 6307TIP3   OH218926   2.861   4.263   2.714 -0.2732  0.2368 -0.1982
 6307TIP3    H118927   2.799   4.296   2.650 -0.4340  0.9468  0.3154
 6307TIP3    H218928   2.903   4.341   2.751 -0.8444 -0.0914  1.2313
 6308TIP3   OH218929   3.677   1.503   4.865  0.0154 -0.2324 -0.8100
 6308TIP3    H118930   3.719   1.528   4.948 -0.1122  1.2480 -1.1690
 6308TIP3    H218931   3.712   1.415   4.846  0.9520 -0.0984  0.2089
 6309TIP3   OH218932   1.285   1.379   4.018 -0.1536 -0.5060 -0.2985
 6309TIP3    H118933   1.289   1.345   4.108 -0.0442  0.4038  0.0519
 6309TIP3    H218934   1.192   1.374   3.995 -0.5823  1.4165  0.7548
 6310TIP3   OH218935   3.874   5.695   2.076 -0.2884  0.2455 -0.0868
 6310TIP3    H118936   3.946   5.686   2.014 -0.3426 -1.0421  0.0235
 6310TIP3    H218937   3.911   5.665   2.159 -1.2075 -1.3416 -0.2236
 6311TIP3   OH218938   4.798   4.884   1.239 -0.4422  0.4057  0.6434
 6311TIP3    H118939   4.796   4.819   1.169 -1.5439  0.3131  0.7381
 6311TIP3    H218940   4.890   4.910   1.245 -0.4016  0.7964 -1.1801
 6312TIP3   OH218941   3.801   2.667   4.461 -0.0253 -0.1637  0.0468
 6312TIP3    H118942   3.859   2.619   4.520  0.5560  0.1760 -0.2321
 6312TIP3    H218943   3.716   2.668   4.506  0.1056 -0.9309  0.3200
 6313TIP3   OH218944   5.585   2.625   3.235  0.7377 -0.1610 -0.4329
 6313TIP3    H118945   5.521   2.649   3.302  0.9614 -0.5457 -0.0801
 6313TIP3    H218946   5.587   2.530   3.235  1.5206 -0.1530 -0.2378
 6314TIP3   OH218947   3.407   5.448   2.145 -0.1450  0.0468  0.2217
 6314TIP3    H118948   3.369   5.393   2.214  1.6993  1.8420  2.8591
 6314TIP3    H218949   3.493   5.408   2.128 -0.1518  0.2389 -0.2747
 6315TIP3   OH218950   4.389   3.784   0.354 -1.0385 -0.0919  0.3417
 6315TIP3    H118951   4.481   3.766   0.339 -1.3365 -1.5598  0.1163
 6315TIP3    H218952   4.384   3.812   0.445 -0.3186  0.5063  0.2057
 6316TIP3   OH218953   6.302   1.903   3.812 -0.7563 -0.0104 -0.0480
 6316TIP3    H118954   6.298   1.819   3.767 -2.8408  0.2523 -0.4390
 6316TIP3    H218955   6.257   1.889   3.895  0.0616  0.3917  0.4782
 6317TIP3   OH218956   0.975   5.873   1.912 -0.6039 -0.1567 -0.0400
 6317TIP3    H118957   0.975   5.822   1.993 -0.4077 -0.0212  0.0454
 6317TIP3    H218958   1.066   5.872   1.883 -0.1583  1.9581  1.1020
 6318TIP3   OH218959   3.944   0.897   4.150  0.5127 -0.8125  0.1775
 6318TIP3    H118960   3.915   0.855   4.069 -1.1626  0.4663  0.0693
 6318TIP3    H218961   4.012   0.958   4.123 -1.2236  0.8820 -0.6003
 6319TIP3   OH218962   3.493   0.137   2.341 -0.1109  0.6289  0.0541
 6319TIP3    H118963   3.424   0.148   2.407  0.6187  0.3803  0.8662
 6319TIP3    H218964   3.461   0.066   2.285 -0.7228  0.8313  0.1344
 6320TIP3   OH218965   2.252   3.350   4.021 -0.1996  0.4953 -0.3511
 6320TIP3    H118966   2.279   3.301   4.099 -2.3703 -0.1513  0.0850
 6320TIP3    H218967   2.210   3.429   4.055 -2.8063 -0.6320 -0.6545
 6321TIP3   OH218968   5.171   3.299   4.165  0.2847 -0.0848 -0.0197
 6321TIP3    H118969   5.097   3.253   4.125  1.4724 -1.2022 -1.0407
 6321TIP3    H218970   5.200   3.240   4.234  2.0145 -1.1288 -1.5406
 6322TIP3   OH218971   5.397   3.795   0.644 -0.1282 -0.3732  0.1901
 6322TIP3    H118972   5.423   3.880   0.607 -2.1524  1.0028  1.6606
 6322TIP3    H218973   5.478   3.745   0.649  1.2352  1.6573 -0.3313
 6323TIP3   OH218974   5.795   0.795   0.224  0.4015  0.5509 -0.1039
 6323TIP3    H118975   5.783   0.742   0.302  0.8229  0.1913 -0.2767
 6323TIP3    H218976   5.710   0.792   0.179  0.5721 -0.4100 -0.3754
 6324TIP3   OH218977   0.643   0.626   0.764 -0.5356 -0.5256 -0.1237
 6324TIP3    H118978   0.707   0.565   0.800 -0.2458  0.0908  0.4319
 6324TIP3    H218979   0.657   0.623   0.669 -0.8899 -1.7084 -0.1443
 6325TIP3   OH218980   6.284   3.813   0.404  0.6350 -0.0831 -1.1318
 6325TIP3    H118981   6.191   3.835   0.405 -0.4581 -3.8891 -2.0570
 6325TIP3    H218982   6.299   3.771   0.489  1.2110 -0.4426 -1.4073
 6326TIP3   OH218983   1.526   2.275   1.316 -0.1288 -0.4131 -0.3844
 6326TIP3    H118984   1.527   2.272   1.220 -1.5070 -0.1746 -0.4219
 6326TIP3    H218985   1.447   2.227   1.340  0.9979 -1.8084  0.7105
 6327TIP3   OH218986   2.937   3.769   0.272 -0.1483  0.1357  0.1832
 6327TIP3    H118987   2.912   3.775   0.180  0.7785 -0.9870 -0.1643
 6327TIP3    H218988   2.973   3.681   0.282 -0.1655  0.2642  1.6089
 6328TIP3   OH218989   3.620   1.170   0.462  0.1035  1.0095  0.2226
 6328TIP3    H118990   3.650   1.233   0.397  0.1876 -1.3347 -2.1773
 6328TIP3    H218991   3.532   1.145   0.433 -0.0050  0.1690  1.2130
 6329TIP3   OH218992   3.460   4.638   0.720 -0.0921  0.4122  0.1949
 6329TIP3    H118993   3.544   4.623   0.764 -0.4006 -0.5496  0.4728
 6329TIP3    H218994   3.467   4.727   0.685  0.8523  0.5233  0.6385
 6330TIP3   OH218995   5.067   4.549   0.126 -0.2891  0.2387  0.2156
 6330TIP3    H118996   5.055   4.642   0.149  1.1326  0.2701  0.9178
 6330TIP3    H218997   4.977   4.515   0.119 -0.8248  1.3987  1.0428
 6331TIP3   OH218998   1.386   0.797   3.485  0.0733  0.0424  0.0398
 6331TIP3    H118999   1.329   0.727   3.517  0.6393 -0.3202  0.2705
 6331TIP3    H219000   1.326   0.869   3.466 -0.7512 -1.0176 -1.7381
 6332TIP3   OH219001   3.013   5.586   3.139  0.0237 -0.0984  0.2151
 6332TIP3    H119002   3.071   5.516   3.109  1.5740  0.8676  0.8023
 6332TIP3    H219003   3.042   5.604   3.228 -1.9560 -0.3118  0.9511
 6333TIP3   OH219004   6.118   0.395  -0.026 -0.0001 -0.5026  1.5576
 6333TIP3    H119005   6.036   0.392   0.024 -0.2204 -0.7319  1.1876
 6333TIP3    H219006   6.186   0.400   0.041 -0.3439  0.4928  1.8633
 6334TIP3   OH219007   3.400   2.015   4.622 -0.2571  0.0529 -0.0850
 6334TIP3    H119008   3.370   2.078   4.557 -1.5816  1.0266  1.3950
 6334TIP3    H219009   3.475   2.057   4.663 -1.2762  0.8148  1.0546
 6335TIP3   OH219010   4.317   5.726   1.352  0.2672  0.1766  0.3428
 6335TIP3    H119011   4.232   5.683   1.350 -1.3056  2.7258  3.4816
 6335TIP3    H219012   4.369   5.673   1.413  0.3097 -0.3699 -0.1623
 6336TIP3   OH219013   2.933   1.679   0.584  0.1886  0.0930  0.0306
 6336TIP3    H119014   2.871   1.737   0.627  0.0374 -0.6185  0.7943
 6336TIP3    H219015   2.988   1.644   0.654  1.1898  0.3760 -0.5815
 6337TIP3   OH219016   2.781   5.070   4.807  0.0063 -0.3557  0.1424
 6337TIP3    H119017   2.691   5.062   4.776 -0.6047 -0.2107  1.7717
 6337TIP3    H219018   2.777   5.046   4.900  1.7925 -1.0864  0.0710
 6338TIP3   OH219019   3.312   4.271   4.705 -0.5172 -0.5182 -0.4561
 6338TIP3    H119020   3.228   4.240   4.672 -1.2250  0.1512  0.6576
 6338TIP3    H219021   3.323   4.225   4.789 -0.6991  0.8012  0.3142
 6339TIP3   OH219022   2.474   3.750   3.265  0.6078 -0.3606 -0.0645
 6339TIP3    H119023   2.546   3.776   3.207 -2.5826  0.1040 -4.3223
 6339TIP3    H219024   2.449   3.831   3.310 -0.1634  0.6603 -2.2173
 6340TIP3   OH219025   1.865   5.853   4.844 -0.0780  0.7241 -0.0560
 6340TIP3    H119026   1.862   5.807   4.928  0.6780  0.4558 -0.1714
 6340TIP3    H219027   1.936   5.917   4.853 -0.7092  1.4607 -0.1158
 6341TIP3   OH219028   3.969   5.353   1.677 -0.0794  0.2212  0.9687
 6341TIP3    H119029   4.024   5.427   1.651 -0.2118 -0.1644 -0.5412
 6341TIP3    H219030   4.028   5.278   1.676 -0.4866 -0.1036 -0.1127
 6342TIP3   OH219031   1.677   3.647   3.464 -0.0631 -0.6383  0.4176
 6342TIP3    H119032   1.699   3.690   3.546 -0.1911  0.2727 -0.0099
 6342TIP3    H219033   1.735   3.687   3.399 -1.0013 -0.2410 -0.2002
 6343TIP3   OH219034   0.791   2.364   0.381 -1.2160 -0.1836 -0.4833
 6343TIP3    H119035   0.877   2.391   0.414 -1.7383  1.5212 -0.3828
 6343TIP3    H219036   0.743   2.336   0.459 -1.1964  0.1809 -0.3379
 6344TIP3   OH219037   0.753   5.383   0.291 -0.0715 -0.5027  0.1879
 6344TIP3    H119038   0.689   5.447   0.321  0.7226 -0.0841  1.0606
 6344TIP3    H219039   0.805   5.431   0.225  0.0231 -0.5003  0.2646
 6345TIP3   OH219040   4.750   5.228   1.746  0.2409 -0.2240  0.2557
 6345TIP3    H119041   4.754   5.250   1.839 -0.0910  3.1263 -0.4149
 6345TIP3    H219042   4.839   5.200   1.724 -0.2009 -3.4131  1.9708
 6346TIP3   OH219043   1.688   5.489   1.381  0.0950  0.1006  0.2328
 6346TIP3    H119044   1.740   5.553   1.333 -0.9494  1.0806  0.3569
 6346TIP3    H219045   1.730   5.405   1.364  1.5050  0.8214  0.0765
 6347TIP3   OH219046   3.134   2.494   2.366 -0.3804  0.1670 -0.7069
 6347TIP3    H119047   3.040   2.496   2.381 -0.1092 -1.5142  1.6815
 6347TIP3    H219048   3.156   2.584   2.342 -2.3783  0.9095  0.0676
 6348TIP3   OH219049   1.866   1.553   3.557  0.3061  0.1094  0.1289
 6348TIP3    H119050   1.938   1.502   3.592  0.6889  0.6671  0.1784
 6348TIP3    H219051   1.906   1.637   3.533 -0.3560  0.4889  0.3256
 6349TIP3   OH219052   1.429   2.138   1.977  0.2774  0.0593  0.1925
 6349TIP3    H119053   1.485   2.136   1.899 -0.5123  0.9474 -0.4130
 6349TIP3    H219054   1.462   2.211   2.029  0.2798 -0.0160  0.2979
 6350TIP3   OH219055   1.028   2.269   4.012 -0.3421  0.3478  0.2320
 6350TIP3    H119056   0.970   2.322   4.067 -1.6297  1.7249 -2.3097
 6350TIP3    H219057   1.028   2.313   3.927  0.2564 -2.5712 -1.4079
 6351TIP3   OH219058   6.158   1.863   4.690 -0.8721 -0.4195  0.1870
 6351TIP3    H119059   6.124   1.919   4.760 -0.5255  0.1124 -0.0573
 6351TIP3    H219060   6.233   1.912   4.655 -0.5506 -1.0462 -0.0251
 6352TIP3   OH219061   2.670   0.266   0.686 -0.3329  0.7073  0.1245
 6352TIP3    H119062   2.616   0.196   0.723 -0.4262 -0.5460 -2.2081
 6352TIP3    H219063   2.606   0.330   0.654 -0.2597  1.5584  1.5700
 6353TIP3   OH219064   2.831   0.071   5.009  0.1428  0.6798 -0.2811
 6353TIP3    H119065   2.825  -0.018   5.044 -0.5701  1.2601  1.1469
 6353TIP3    H219066   2.741   0.104   5.014  0.4441  1.5612 -0.6021
 6354TIP3   OH219067   5.168   4.626   2.478  0.2354  0.0858 -0.6680
 6354TIP3    H119068   5.086   4.668   2.450  0.2892 -0.2772 -1.4011
 6354TIP3    H219069   5.213   4.693   2.529 -0.5532  0.2640 -0.1768
 6355TIP3   OH219070   5.694   3.258   3.870  0.5790  0.2475  0.1022
 6355TIP3    H119071   5.662   3.168   3.863  1.1508 -0.0431  1.0179
 6355TIP3    H219072   5.770   3.261   3.812 -0.1831  0.5159 -0.9134
 6356TIP3   OH219073   1.814   3.928   0.198  0.1453  0.2157  0.2248
 6356TIP3    H119074   1.806   3.914   0.104  0.3873  0.8826  0.0977
 6356TIP3    H219075   1.884   3.869   0.226 -0.5002 -0.6019  0.1404
 6357TIP3   OH219076   0.512   2.468   1.645 -0.5916 -0.4632  0.5070
 6357TIP3    H119077   0.512   2.442   1.553 -0.6115  2.5900 -0.4548
 6357TIP3    H219078   0.500   2.386   1.693  1.4334 -2.4453 -2.0731
 6358TIP3   OH219079   5.234   2.177   2.993 -0.0801 -0.0273  0.3629
 6358TIP3    H119080   5.273   2.261   3.015  1.7495 -1.2698  2.2115
 6358TIP3    H219081   5.142   2.186   3.017  0.0220  1.4930  0.2840
 6359TIP3   OH219082   3.306   5.534   3.341  0.0730  0.1143  0.2863
 6359TIP3    H119083   3.248   5.498   3.408  0.1847 -0.9459 -0.1568
 6359TIP3    H219084   3.380   5.571   3.390 -1.6057  2.8517  0.9614
 6360TIP3   OH219085   2.969   3.043   4.088 -0.4238 -0.2553  0.7345
 6360TIP3    H119086   2.987   3.061   4.180 -0.7426  0.5114  0.6493
 6360TIP3    H219087   2.958   2.948   4.084 -0.3795 -0.2945  1.4781
 6361TIP3   OH219088   5.933   3.149   2.231 -0.3318 -0.7767  0.0621
 6361TIP3    H119089   5.925   3.148   2.136  1.5495  0.0906 -0.1723
 6361TIP3    H219090   5.950   3.058   2.255 -0.1339 -0.8981 -0.5179
 6362TIP3   OH219091   1.342   5.312   2.168  0.5307 -0.4417 -0.2444
 6362TIP3    H119092   1.351   5.245   2.100  0.3804 -0.6528 -0.0570
 6362TIP3    H219093   1.259   5.293   2.210 -0.1867  0.7000 -1.0859
 6363TIP3   OH219094   5.189   0.202   4.293  0.1592  0.2662  0.6027
 6363TIP3    H119095   5.111   0.180   4.344  0.8885  0.4083  1.8060
 6363TIP3    H219096   5.262   0.167   4.343  0.8706 -0.1968 -0.6999
 6364TIP3   OH219097   6.017   5.612   2.411 -0.2820  0.0948 -0.0801
 6364TIP3    H119098   6.021   5.588   2.504 -0.8828 -1.1783 -0.3612
 6364TIP3    H219099   5.925   5.602   2.388  0.1443 -1.5585 -1.2692
 6365TIP3   OH219100   0.408   4.754   2.464 -0.1203 -0.1511 -0.1999
 6365TIP3    H119101   0.344   4.757   2.536  0.4757  0.0846  0.3329
 6365TIP3    H219102   0.373   4.813   2.398 -0.2896  0.2420  0.2310
 6366TIP3   OH219103   5.803   5.867   1.073  0.8472 -0.4396 -0.0265
 6366TIP3    H119104   5.740   5.809   1.032 -0.8223  0.8159  0.6433
 6366TIP3    H219105   5.855   5.901   1.000 -0.9782  0.4825 -0.9819
 6367TIP3   OH219106   0.670   3.679   0.251  0.1089 -0.0805 -0.1663
 6367TIP3    H119107   0.601   3.696   0.188 -0.1146  1.5868  0.4741
 6367TIP3    H219108   0.726   3.615   0.208 -0.8236 -0.0856 -1.4476
 6368TIP3   OH219109   2.980   5.117   3.768  0.1533 -0.0294 -0.0685
 6368TIP3    H119110   3.047   5.115   3.837  1.4394  0.8456 -1.2217
 6368TIP3    H219111   2.904   5.157   3.810  1.4643  2.1128  0.4553
 6369TIP3   OH219112   1.539   5.236   3.843  0.0310 -0.0751  0.2978
 6369TIP3    H119113   1.491   5.199   3.768  0.1775  0.2941  0.0205
 6369TIP3    H219114   1.600   5.166   3.868 -0.8191 -0.6554  0.8240
 6370TIP3   OH219115   2.951   5.686   4.248 -0.3594 -0.0801 -0.1220
 6370TIP3    H119116   2.998   5.726   4.321  0.4022  1.7587 -1.5545
 6370TIP3    H219117   2.971   5.742   4.173 -1.6898 -1.5052 -1.6051
 6371TIP3   OH219118   5.919   4.337   2.886  0.0516  0.7138 -0.1119
 6371TIP3    H119119   5.841   4.313   2.936  0.3112  0.1125  0.0137
 6371TIP3    H219120   5.957   4.410   2.934 -0.6637  1.2981 -0.4091
 6372TIP3   OH219121   3.918   2.530   0.577 -0.3384  0.0046  0.0308
 6372TIP3    H119122   3.829   2.529   0.613 -1.2062  1.1318 -1.9333
 6372TIP3    H219123   3.944   2.438   0.573 -1.4356 -0.3425  0.5663
 6373TIP3   OH219124   1.943   4.672   0.890 -0.3549  0.4257  0.2866
 6373TIP3    H119125   2.024   4.713   0.920 -0.9605  1.7589  0.1908
 6373TIP3    H219126   1.950   4.581   0.918  1.4116  0.3804 -0.2118
 6374TIP3   OH219127   4.572   4.286   3.327 -0.4853 -0.2032 -0.0859
 6374TIP3    H119128   4.603   4.287   3.236 -0.5751 -0.6449 -0.1212
 6374TIP3    H219129   4.555   4.194   3.346 -1.2022 -0.0291  0.1347
 6375TIP3   OH219130   4.344   0.331   3.860  0.0775  0.6207 -0.5580
 6375TIP3    H119131   4.407   0.286   3.803  1.3061  2.9872 -1.1943
 6375TIP3    H219132   4.358   0.292   3.946  0.1337 -1.1104 -1.3053
 6376TIP3   OH219133   1.279   5.826   3.918 -0.4492 -0.1567 -0.0539
 6376TIP3    H119134   1.184   5.811   3.918 -0.2838 -1.5057 -1.9709
 6376TIP3    H219135   1.289   5.919   3.902 -1.4368  0.3138  1.7588
 6377TIP3   OH219136   0.562   5.668   3.283 -0.3224 -0.3171  0.1948
 6377TIP3    H119137   0.578   5.573   3.283 -1.1181 -0.4760  1.4093
 6377TIP3    H219138   0.561   5.692   3.190  1.7676 -1.1406 -0.0957
 6378TIP3   OH219139   2.230   3.954   5.054 -0.1283 -0.2186  0.1308
 6378TIP3    H119140   2.164   3.908   5.105  0.1193  1.4060  2.0371
 6378TIP3    H219141   2.277   4.007   5.118  2.5637 -0.7422 -1.2801
 6379TIP3   OH219142   1.467   4.125   0.370  0.3521 -0.0412 -0.1141
 6379TIP3    H119143   1.552   4.149   0.332 -0.4308  1.9050 -0.7439
 6379TIP3    H219144   1.426   4.208   0.392 -0.5226 -1.0085  2.2373
 6380TIP3   OH219145   3.784   1.066   2.424 -0.5902 -0.5596  0.3101
 6380TIP3    H119146   3.759   1.020   2.504 -0.0515 -0.0793  0.7598
 6380TIP3    H219147   3.735   1.149   2.427  1.5546  0.7372  1.5806
 6381TIP3   OH219148   1.880   5.790   5.107  0.4271  0.2780  0.0008
 6381TIP3    H119149   1.817   5.718   5.110 -0.4712  1.0749  0.9988
 6381TIP3    H219150   1.899   5.810   5.198  0.5107  1.4219 -0.2454
 6382TIP3   OH219151   6.238   1.357   2.761 -0.3471  0.4818 -0.1704
 6382TIP3    H119152   6.311   1.388   2.815 -0.6207 -2.0251  1.8576
 6382TIP3    H219153   6.165   1.413   2.784  0.1093  0.8607  0.3833
 6383TIP3   OH219154   3.863   2.161   2.095  0.2130 -0.2787 -0.2063
 6383TIP3    H119155   3.948   2.117   2.091 -0.4660 -1.7756  0.7560
 6383TIP3    H219156   3.804   2.102   2.048 -0.2477  0.9342 -1.2076
 6384TIP3   OH219157   3.189   5.097   4.322  0.6942 -0.0539 -0.4032
 6384TIP3    H119158   3.209   5.093   4.416 -0.4923  0.6179 -0.0939
 6384TIP3    H219159   3.094   5.109   4.319  0.4568 -1.9066 -1.7558
 6385TIP3   OH219160   1.790   0.742   4.260 -0.6244  0.5583  0.3785
 6385TIP3    H119161   1.872   0.790   4.250 -0.1695 -0.1488  0.6520
 6385TIP3    H219162   1.729   0.805   4.299 -0.2509  1.1246  0.0431
 6386TIP3   OH219163   3.373   1.592   0.648  0.0488 -0.1608 -1.2114
 6386TIP3    H119164   3.310   1.544   0.702 -0.9677 -0.2601 -2.4326
 6386TIP3    H219165   3.400   1.530   0.581  1.9400 -0.3074 -0.3817
 6387TIP3   OH219166   4.628   2.402   0.214  0.4453  0.4498  0.2651
 6387TIP3    H119167   4.695   2.418   0.148  1.5176  1.7726  1.5902
 6387TIP3    H219168   4.670   2.341   0.276 -0.2608 -0.1648  0.1530
 6388TIP3   OH219169   1.349   2.797   2.276  0.0918 -0.8231 -0.1618
 6388TIP3    H119170   1.334   2.884   2.314  0.7586 -0.4494 -0.7274
 6388TIP3    H219171   1.396   2.749   2.345 -1.1415 -1.0859  0.5365
 6389TIP3   OH219172   5.728   4.844   4.240  0.3279 -0.1615  0.5630
 6389TIP3    H119173   5.725   4.927   4.288  0.4065 -0.0626  0.3956
 6389TIP3    H219174   5.723   4.777   4.309  2.4500 -0.0413  0.8825
 6390TIP3   OH219175   0.088   1.605   0.881  0.0713 -0.2467  0.0183
 6390TIP3    H119176   0.057   1.550   0.953  0.1210 -1.4225 -0.8396
 6390TIP3    H219177   0.174   1.635   0.910 -0.4766  0.4211  1.0276
 6391TIP3   OH219178   4.551   1.704   2.949 -0.2337 -0.0299  0.1148
 6391TIP3    H119179   4.565   1.775   2.886 -1.4705  1.7318  1.6753
 6391TIP3    H219180   4.602   1.631   2.915 -0.2947  1.0321 -2.5280
 6392TIP3   OH219181   1.553   0.562   1.300  0.6183  0.5163  0.6720
 6392TIP3    H119182   1.559   0.657   1.310  0.7179  0.5646  0.1582
 6392TIP3    H219183   1.578   0.545   1.209 -1.0854  0.1514  0.2358
 6393TIP3   OH219184   3.761   4.659   2.033 -0.4061  0.3753  0.5307
 6393TIP3    H119185   3.689   4.674   1.972  0.3022 -0.2057 -0.4693
 6393TIP3    H219186   3.840   4.660   1.979  0.3137  0.5735  1.5439
 6394TIP3   OH219187   6.238   1.210   0.174 -0.1681  0.2489  0.3378
 6394TIP3    H119188   6.228   1.153   0.251 -0.1557 -0.8759 -0.4780
 6394TIP3    H219189   6.314   1.264   0.195  1.0062 -1.3306  0.3654
 6395TIP3   OH219190   2.367   2.829   3.710 -0.2720  0.3182  0.1951
 6395TIP3    H119191   2.326   2.903   3.754  1.8206  1.8625 -0.3045
 6395TIP3    H219192   2.295   2.787   3.663 -1.3904  2.7279 -0.4357
 6396TIP3   OH219193   1.294   3.597   3.071 -0.3970 -0.0346 -0.0521
 6396TIP3    H119194   1.235   3.554   3.134 -0.5604 -1.4580 -1.1279
 6396TIP3    H219195   1.381   3.564   3.095 -0.1986  0.9233  0.6081
 6397TIP3   OH219196   0.153   1.549   4.328 -0.2287  0.2840 -0.4249
 6397TIP3    H119197   0.085   1.485   4.310  0.0293 -0.6916  1.7347
 6397TIP3    H219198   0.235   1.499   4.324  0.0975  0.7804 -0.1098
 6398TIP3   OH219199   3.410   2.409   0.472 -0.8759  0.3851 -0.0972
 6398TIP3    H119200   3.461   2.329   0.481  0.6627  1.4150  0.7030
 6398TIP3    H219201   3.395   2.440   0.561 -0.9496  1.2900 -0.4034
 6399TIP3   OH219202   4.786   4.493   0.189  0.6423  0.2156 -0.4850
 6399TIP3    H119203   4.779   4.401   0.217 -0.2648 -0.5692 -3.0537
 6399TIP3    H219204   4.696   4.523   0.183  0.9568  1.6013  1.1565
 6400TIP3   OH219205   5.298   1.614   2.798  0.4872 -0.4917 -0.1301
 6400TIP3    H119206   5.295   1.519   2.787  1.8303 -0.4230 -1.5665
 6400TIP3    H219207   5.372   1.629   2.858  0.1674 -0.3613  0.2328
 6401TIP3   OH219208   1.267   3.586   0.986 -0.2237 -0.0641  0.2490
 6401TIP3    H119209   1.249   3.662   1.041  0.9186  0.6803 -0.3496
 6401TIP3    H219210   1.294   3.624   0.902  0.7548 -1.1031  0.0694
 6402TIP3   OH219211   4.386   4.661   1.762  0.7116  0.1615  0.2574
 6402TIP3    H119212   4.321   4.662   1.691 -0.7344  0.4379  1.5310
 6402TIP3    H219213   4.338   4.626   1.837  1.8569  0.9787  1.4022
 6403TIP3   OH219214   4.841   5.104   5.101 -0.1321  0.5615  0.7268
 6403TIP3    H119215   4.909   5.116   5.034  0.1334  1.4683  1.1449
 6403TIP3    H219216   4.860   5.018   5.138  0.1362  0.3480  0.1165
 6404TIP3   OH219217   2.421   4.792   1.606  0.4111  0.3336  0.3951
 6404TIP3    H119218   2.511   4.760   1.601  0.2693 -0.0859  0.4321
 6404TIP3    H219219   2.410   4.845   1.527  0.8689  0.8729  0.6864
 6405TIP3   OH219220   2.947   2.337   3.704  0.7084  0.5524 -0.2534
 6405TIP3    H119221   2.918   2.262   3.757 -0.5972  1.4839  0.4117
 6405TIP3    H219222   3.016   2.302   3.648  1.1053 -0.8200  1.0312
 6406TIP3   OH219223   2.847   0.841   1.176 -0.0777  0.1777  0.1401
 6406TIP3    H119224   2.782   0.815   1.111  0.4559  0.1964 -0.4206
 6406TIP3    H219225   2.872   0.759   1.220  0.9558 -0.1578 -1.0126
 6407TIP3   OH219226   3.984   3.743   4.046 -0.3468 -0.4837 -0.1886
 6407TIP3    H119227   4.002   3.674   4.109  0.3068 -1.1630 -1.0797
 6407TIP3    H219228   3.930   3.806   4.093 -2.2991 -2.3395  0.2106
 6408TIP3   OH219229   2.557   2.993   1.082  0.1873  0.5606 -0.2875
 6408TIP3    H119230   2.496   2.923   1.057  1.0005 -0.8593  1.4289
 6408TIP3    H219231   2.588   3.029   1.000 -1.5879  0.0851 -1.2109
 6409TIP3   OH219232   3.014   2.333   3.260  0.0376 -0.0573 -0.5117
 6409TIP3    H119233   2.949   2.289   3.315 -1.6113  1.7268 -0.9226
 6409TIP3    H219234   3.075   2.264   3.235  0.3808 -1.1306  2.8062
 6410TIP3   OH219235   5.245   3.076   0.678 -0.4344 -0.5213  0.2784
 6410TIP3    H119236   5.326   3.094   0.629 -0.7876  0.0621 -0.1047
 6410TIP3    H219237   5.273   3.020   0.751  0.0735 -1.5602 -0.6856
 6411TIP3   OH219238   3.240   0.152   3.554  0.6417 -0.3098  0.0767
 6411TIP3    H119239   3.324   0.128   3.592  1.0016  1.0013  0.1422
 6411TIP3    H219240   3.202   0.215   3.615 -1.2557 -2.2329  1.0015
 6412TIP3   OH219241   2.802   4.296   1.106 -0.6086 -0.0007  0.1317
 6412TIP3    H119242   2.733   4.230   1.104  0.5575 -1.2573 -0.6749
 6412TIP3    H219243   2.823   4.307   1.199 -1.2879 -0.2681  0.3186
 6413TIP3   OH219244   2.228   4.850   3.611 -0.0766 -0.0339 -0.6842
 6413TIP3    H119245   2.249   4.848   3.517 -2.6715  0.4916 -1.3581
 6413TIP3    H219246   2.170   4.925   3.621 -1.2710 -1.1052  1.0049
 6414TIP3   OH219247   4.692   4.668   2.070  0.0733 -0.2203  0.3596
 6414TIP3    H119248   4.692   4.691   1.977  0.3500  0.1693  0.4547
 6414TIP3    H219249   4.697   4.752   2.116 -0.5051 -0.3847  0.7358
 6415TIP3   OH219250   4.072   5.199   1.210  0.0321 -0.0566 -0.2724
 6415TIP3    H119251   4.161   5.165   1.192  0.1928 -0.1361  0.6352
 6415TIP3    H219252   4.087   5.286   1.246 -0.2987  0.2285 -0.8291
 6416TIP3   OH219253   4.174   3.326   1.655 -0.4461 -0.0785  0.0179
 6416TIP3    H119254   4.190   3.339   1.561  0.7006 -0.8953  0.0860
 6416TIP3    H219255   4.247   3.369   1.699 -1.7159  1.5653  0.6439
 6417TIP3   OH219256   4.479   1.313   0.785  0.0910 -0.3780 -0.0067
 6417TIP3    H119257   4.568   1.347   0.797 -0.2678 -0.0244  1.9043
 6417TIP3    H219258   4.430   1.385   0.745  0.9790 -1.1010 -2.6350
 6418TIP3   OH219259   3.438   1.299   4.116 -0.8623  0.3048  0.6453
 6418TIP3    H119260   3.364   1.244   4.090  0.0453  0.3588 -2.5337
 6418TIP3    H219261   3.457   1.351   4.038  1.0213  2.0354  2.1613
 6419TIP3   OH219262   2.316   4.113   1.060  0.6432 -0.3340  1.3774
 6419TIP3    H119263   2.257   4.146   0.993  0.8236  0.1582  1.4594
 6419TIP3    H219264   2.282   4.150   1.142 -0.5208 -2.1504  1.8061
 6420TIP3   OH219265   0.414   0.554   0.958 -0.0905  0.5931 -0.0172
 6420TIP3    H119266   0.367   0.571   0.876 -0.8686  0.5177  0.3996
 6420TIP3    H219267   0.485   0.618   0.958  1.3955 -0.9515 -1.8622
 6421TIP3   OH219268   4.754   3.653   4.340  0.4972 -0.0053 -0.5135
 6421TIP3    H119269   4.701   3.631   4.264  0.4645  1.1196 -0.8343
 6421TIP3    H219270   4.690   3.680   4.407  0.5945  0.1935 -0.4996
 6422TIP3   OH219271   1.649   4.984   3.953 -0.1130 -0.2558  0.2483
 6422TIP3    H119272   1.559   4.953   3.961 -1.1165  2.3019 -0.1298
 6422TIP3    H219273   1.689   4.927   3.888 -1.2756 -1.7792  0.8158
 6423TIP3   OH219274   1.832   0.111   0.628  0.2072  0.5938 -0.0311
 6423TIP3    H119275   1.860   0.082   0.542 -2.0504  1.2960 -1.0671
 6423TIP3    H219276   1.894   0.181   0.652  1.5077 -0.3501 -0.5531
 6424TIP3   OH219277   4.003   0.113   0.585  0.5775  0.2785  0.3281
 6424TIP3    H119278   4.081   0.075   0.545  0.7092  0.4131  0.4553
 6424TIP3    H219279   3.981   0.053   0.656  0.1162 -0.1695 -0.1840
 6425TIP3   OH219280   2.983   1.556   3.555  0.0757  0.4112 -0.3896
 6425TIP3    H119281   2.891   1.557   3.582  0.2491 -0.8149  0.2869
 6425TIP3    H219282   3.032   1.533   3.634  0.6785 -2.1108 -1.4020
 6426TIP3   OH219283   3.634   3.561   3.143 -0.3718  0.1185 -0.2538
 6426TIP3    H119284   3.569   3.505   3.100 -0.0341 -0.1796 -0.3832
 6426TIP3    H219285   3.645   3.522   3.230 -3.5980  2.6534  1.5277
 6427TIP3   OH219286   5.658   0.391   3.991  0.0429 -0.1485  0.6869
 6427TIP3    H119287   5.681   0.477   4.027 -0.1325 -0.5888  1.9248
 6427TIP3    H219288   5.570   0.403   3.955 -1.3440 -0.4679  3.6030
 6428TIP3   OH219289   2.607   0.904   1.318  0.2149 -0.3125 -0.0893
 6428TIP3    H119290   2.682   0.963   1.316  0.5095 -0.7031 -0.6268
 6428TIP3    H219291   2.631   0.836   1.381 -0.8160  1.0281  1.8579
 6429TIP3   OH219292   0.835   2.811   3.603  0.0229 -0.3606 -0.3834
 6429TIP3    H119293   0.914   2.819   3.656  0.5959 -1.9703 -0.9167
 6429TIP3    H219294   0.791   2.895   3.612  2.0479  0.7746 -0.4871
 6430TIP3   OH219295   4.079   5.921   2.947 -0.1214  0.4833  0.1607
 6430TIP3    H119296   4.017   5.955   2.883 -1.9698 -1.4456  0.8041
 6430TIP3    H219297   4.134   5.861   2.898 -0.4774  0.2303  0.0674
 6431TIP3   OH219298   5.187   3.665   3.058 -0.1107  0.1935 -0.2267
 6431TIP3    H119299   5.157   3.574   3.057  2.2731 -0.6523 -1.4047
 6431TIP3    H219300   5.279   3.660   3.081  0.6508  2.0926 -2.4706
 6432TIP3   OH219301   3.893   3.635   3.329  0.1670 -0.0215 -0.0316
 6432TIP3    H119302   3.881   3.540   3.326  0.3869 -0.0602  0.2378
 6432TIP3    H219303   3.819   3.667   3.380 -1.2583  0.2104 -2.1264
 6433TIP3   OH219304   1.146   5.539   1.270 -0.1468 -0.1971 -0.3225
 6433TIP3    H119305   1.069   5.557   1.217  0.2153  0.9955 -0.4745
 6433TIP3    H219306   1.209   5.606   1.245  0.2506  0.0282  1.1702
 6434TIP3   OH219307   5.331   2.248   0.612 -0.2829 -0.1382  0.4782
 6434TIP3    H119308   5.369   2.162   0.595 -0.9405 -0.2146 -0.7128
 6434TIP3    H219309   5.378   2.280   0.690  0.2811 -1.3669  0.6664
 6435TIP3   OH219310   0.355   3.722   3.609 -0.0960  0.3065 -0.1300
 6435TIP3    H119311   0.410   3.657   3.565  0.2692  0.2937  0.3336
 6435TIP3    H219312   0.363   3.701   3.702 -3.0294 -1.4048 -0.1506
 6436TIP3   OH219313   1.332   2.340   4.544 -0.2596 -0.1293 -0.3078
 6436TIP3    H119314   1.365   2.279   4.478 -2.0768 -1.2744 -0.2228
 6436TIP3    H219315   1.366   2.425   4.516  2.3395 -1.1119 -0.4389
 6437TIP3   OH219316   3.548   2.151   4.853  0.4006 -0.2029 -0.4490
 6437TIP3    H119317   3.621   2.112   4.901  0.6772  0.7238 -0.1003
 6437TIP3    H219318   3.472   2.137   4.909  0.6580  0.5483  0.0965
 6438TIP3   OH219319   2.297   4.353   4.748  0.1049 -0.7827 -0.2377
 6438TIP3    H119320   2.265   4.346   4.658  1.8624 -0.5531 -0.9222
 6438TIP3    H219321   2.299   4.263   4.780 -1.3299 -0.7877 -0.1095
 6439TIP3   OH219322   0.047   3.096   3.327  0.2224 -0.1016  0.1071
 6439TIP3    H119323   0.015   3.174   3.281 -0.8080 -1.1577 -1.0203
 6439TIP3    H219324   0.024   3.111   3.419  0.4643  1.1210 -0.0161
 6440TIP3   OH219325   2.620   3.283   0.150  0.1643  0.5298  0.2562
 6440TIP3    H119326   2.658   3.239   0.075  1.5970  1.6141  0.3076
 6440TIP3    H219327   2.621   3.376   0.126 -0.5596  0.7676  1.0987
 6441TIP3   OH219328   0.675   1.432   2.856  0.3170  0.1483  0.0278
 6441TIP3    H119329   0.706   1.358   2.908 -2.4374 -0.9399  0.3057
 6441TIP3    H219330   0.581   1.416   2.845  0.1983  2.0002 -2.6104
 6442TIP3   OH219331   2.366   2.124   3.954  0.6932  0.2046 -0.7312
 6442TIP3    H119332   2.324   2.095   3.874 -1.0995  1.8242 -0.4670
 6442TIP3    H219333   2.398   2.044   3.996 -1.0945 -0.9933 -1.5657
 6443TIP3   OH219334   5.410   0.680   3.740  0.1093 -0.1114 -0.1252
 6443TIP3    H119335   5.404   0.599   3.791 -0.3123 -2.1464 -3.1559
 6443TIP3    H219336   5.322   0.717   3.744  0.8540  1.6165  3.2178
 6444TIP3   OH219337   1.459   5.118   4.711  0.3553  0.2625 -0.3546
 6444TIP3    H119338   1.404   5.167   4.771  0.1621  0.1777 -0.4629
 6444TIP3    H219339   1.452   5.165   4.628 -1.1641 -0.8769 -0.9168
 6445TIP3   OH219340   5.405   4.533   4.749 -0.5682  0.5803  0.4058
 6445TIP3    H119341   5.478   4.471   4.742 -1.3885 -0.3133 -0.5177
 6445TIP3    H219342   5.444   4.611   4.787  0.5747 -0.3837  1.3173
 6446TIP3   OH219343   2.626   0.216   1.707 -0.2493 -0.5775  0.0147
 6446TIP3    H119344   2.570   0.183   1.777 -0.9522 -0.7953 -0.6326
 6446TIP3    H219345   2.575   0.202   1.627  1.1046 -1.6509 -0.7103
 6447TIP3   OH219346   1.902   3.407   1.845 -0.0526 -0.0119  0.6500
 6447TIP3    H119347   1.905   3.491   1.800 -1.2203  0.9082  2.1978
 6447TIP3    H219348   1.817   3.370   1.820  0.1752 -0.4416  0.4965
 6448TIP3   OH219349   0.312   0.537   3.116  0.1429  0.3241 -0.9732
 6448TIP3    H119350   0.366   0.604   3.158  0.9989  0.1312 -1.7221
 6448TIP3    H219351   0.339   0.455   3.156  0.9739  0.1375 -1.8793
 6449TIP3   OH219352   0.038   5.827   3.883 -0.5762 -0.3278  0.1737
 6449TIP3    H119353   0.087   5.782   3.814 -1.5885 -2.7803  0.9117
 6449TIP3    H219354  -0.052   5.832   3.849 -0.6554  0.3724  0.4707
 6450TIP3   OH219355   5.537   4.056   4.250 -0.2413  0.5266  0.4894
 6450TIP3    H119356   5.483   4.135   4.254  0.2150  0.8787 -0.2611
 6450TIP3    H219357   5.588   4.065   4.170 -0.9461 -1.0159 -0.1823
 6451TIP3   OH219358   1.478   5.984   1.695 -0.1914  0.1292 -0.2402
 6451TIP3    H119359   1.439   5.901   1.667  1.2618 -0.0190 -2.0654
 6451TIP3    H219360   1.545   5.959   1.759 -1.1545  0.1263  0.7931
 6452TIP3   OH219361   5.249   1.359   0.403  0.3655 -0.8076 -0.8550
 6452TIP3    H119362   5.233   1.445   0.364  0.3182 -0.5121 -0.2018
 6452TIP3    H219363   5.310   1.376   0.475 -0.7731 -1.0806  0.2169
 6453TIP3   OH219364   5.466   5.205   0.029 -0.5679  0.3722  0.5754
 6453TIP3    H119365   5.528   5.243   0.091  0.0466 -1.5230  1.1858
 6453TIP3    H219366   5.513   5.131  -0.010 -0.5832  1.9670 -2.8660
 6454TIP3   OH219367   4.258   1.987   2.954 -0.5942 -0.4613  0.7225
 6454TIP3    H119368   4.344   2.025   2.937 -0.5271 -1.0637 -0.3611
 6454TIP3    H219369   4.212   1.993   2.870 -1.5934 -0.2111  1.2664
 6455TIP3   OH219370   3.385   0.383   1.739 -0.2012 -0.2324 -0.5184
 6455TIP3    H119371   3.294   0.353   1.732 -0.4694  0.5731 -0.5417
 6455TIP3    H219372   3.381   0.477   1.725  0.2996  0.2341  2.0351
 6456TIP3   OH219373   2.294   0.961   4.261  0.4782  0.0064  0.1289
 6456TIP3    H119374   2.343   0.941   4.182 -0.1752  1.5757 -0.7313
 6456TIP3    H219375   2.358   1.000   4.320  0.4350  1.4887 -0.7558
 6457TIP3   OH219376   0.152   0.626   4.737  0.0542 -0.0640 -0.3513
 6457TIP3    H119377   0.060   0.629   4.763  0.5548 -2.2943  2.0269
 6457TIP3    H219378   0.151   0.581   4.652 -1.1050  1.4599 -1.2070
 6458TIP3   OH219379   4.453   4.593   2.160  0.4825  0.2211 -0.2143
 6458TIP3    H119380   4.537   4.602   2.116  0.2898  1.0693 -0.4214
 6458TIP3    H219381   4.466   4.632   2.246  0.8249 -1.3325  0.4789
 6459TIP3   OH219382   2.075   2.533   4.444  0.2501 -0.2617 -0.0807
 6459TIP3    H119383   2.055   2.571   4.358 -0.8255  0.6837  0.5448
 6459TIP3    H219384   2.005   2.566   4.501  1.7761  0.4092  1.5080
 6460TIP3   OH219385   3.295   4.421   3.399 -0.3159  0.2299  0.4594
 6460TIP3    H119386   3.343   4.380   3.328 -0.7892  0.0231  0.2566
 6460TIP3    H219387   3.285   4.352   3.464  0.2299  0.4535  0.7900
 6461TIP3   OH219388   3.373   0.317   1.326  0.4799  0.0507  0.1863
 6461TIP3    H119389   3.335   0.258   1.391 -0.4829 -0.0064 -0.4143
 6461TIP3    H219390   3.324   0.399   1.336 -0.6128 -0.3749 -1.3498
 6462TIP3   OH219391   1.191   5.907   2.251  0.2214 -0.5638  0.0967
 6462TIP3    H119392   1.137   5.883   2.326 -1.2604 -0.0062 -0.7675
 6462TIP3    H219393   1.150   5.865   2.176 -1.0805  2.5566 -1.1044
 6463TIP3   OH219394   6.218   1.169   1.142 -0.0068  0.5019  0.0782
 6463TIP3    H119395   6.239   1.147   1.233  0.1830 -0.2895 -0.1515
 6463TIP3    H219396   6.126   1.144   1.131  0.9739 -3.3276 -1.0602
 6464TIP3   OH219397   3.653   3.718   1.093  0.2674  0.0689  0.0286
 6464TIP3    H119398   3.703   3.691   1.170  0.3223  1.3232  0.4481
 6464TIP3    H219399   3.645   3.813   1.101 -0.6865  0.0921 -0.9401
 6465TIP3   OH219400   3.398   4.545   2.156 -0.0585  0.3728  0.1564
 6465TIP3    H119401   3.363   4.608   2.092 -1.7081 -0.2592  0.3982
 6465TIP3    H219402   3.381   4.459   2.117 -0.0914  0.0072  0.9544
 6466TIP3   OH219403   3.136   2.437   0.405  0.1546 -0.1841 -0.0605
 6466TIP3    H119404   3.225   2.466   0.427  0.7632 -1.4390 -0.7537
 6466TIP3    H219405   3.114   2.373   0.473 -0.2559  0.1915  0.1621
 6467TIP3   OH219406   3.230   5.162   0.475  1.3327 -0.0415  0.0011
 6467TIP3    H119407   3.212   5.242   0.425 -0.8959 -0.4587  0.0239
 6467TIP3    H219408   3.276   5.104   0.414  0.7303  0.3252 -0.8149
 6468TIP3   OH219409   2.782   1.203   4.163 -0.0033 -0.1851 -0.2974
 6468TIP3    H119410   2.877   1.211   4.156  0.0257 -0.8224 -0.6988
 6468TIP3    H219411   2.751   1.293   4.175  0.6539  0.0162 -0.0692
 6469TIP3   OH219412   3.524   3.479   2.605 -0.2505 -0.1170 -0.0820
 6469TIP3    H119413   3.428   3.487   2.605 -0.2744 -0.3923 -0.0448
 6469TIP3    H219414   3.541   3.399   2.655 -0.0457 -0.5549 -0.8290
 6470TIP3   OH219415   4.524   5.126   4.946 -0.2123 -0.2777  0.3399
 6470TIP3    H119416   4.453   5.157   4.889 -1.1351 -1.4804  0.7724
 6470TIP3    H219417   4.542   5.037   4.914  0.8840 -0.1086  0.4555
 6471TIP3   OH219418   6.347   3.743   2.179 -0.9590 -0.0630  0.3804
 6471TIP3    H119419   6.262   3.788   2.182 -1.6484 -0.9009 -2.7299
 6471TIP3    H219420   6.402   3.800   2.125 -1.0078 -1.5686 -1.3604
 6472TIP3   OH219421   2.002   2.796   0.675 -0.3075  0.1790  0.1294
 6472TIP3    H119422   2.052   2.810   0.594 -1.7237  0.3090 -0.7568
 6472TIP3    H219423   1.925   2.747   0.647 -0.4819 -0.3873  1.5354
 6473TIP3   OH219424   1.414   0.162   0.608 -0.8661  0.8536 -0.5458
 6473TIP3    H119425   1.439   0.071   0.620  0.2298  1.5234  4.1098
 6473TIP3    H219426   1.469   0.193   0.536  0.4268 -1.5812 -0.6876
 6474TIP3   OH219427   6.290   3.655   4.894 -0.5089  1.0052 -0.9250
 6474TIP3    H119428   6.277   3.688   4.804  3.0881  1.6347 -1.3477
 6474TIP3    H219429   6.385   3.649   4.904 -0.8344 -1.3435  2.0864
 6475TIP3   OH219430   1.138   4.908   1.469 -0.6021  0.2873 -0.3917
 6475TIP3    H119431   1.098   4.992   1.447 -0.2699  0.8289  0.9560
 6475TIP3    H219432   1.091   4.880   1.548  1.4603  0.8558  1.1320
 6476TIP3   OH219433   4.428   2.786   4.155 -0.2754 -0.3761 -0.0798
 6476TIP3    H119434   4.475   2.782   4.072 -1.7984 -0.7098 -0.9730
 6476TIP3    H219435   4.465   2.861   4.201 -0.4752  0.7778 -1.7536
 6477TIP3   OH219436   1.047   5.478   0.877 -0.6278  0.0015 -0.6146
 6477TIP3    H119437   1.008   5.565   0.885  0.7670  0.4562  3.1585
 6477TIP3    H219438   1.029   5.436   0.961  0.6011 -2.5742 -1.5225
 6478TIP3   OH219439   3.826   3.991   2.124 -0.0060 -0.7251  0.1523
 6478TIP3    H119440   3.772   4.052   2.174 -0.1987 -0.7344 -0.0408
 6478TIP3    H219441   3.809   4.013   2.032  1.2655  0.0879  0.0863
 6479TIP3   OH219442   4.626   0.930   0.443  0.2179  0.4036 -0.3690
 6479TIP3    H119443   4.573   0.859   0.480 -4.2097  1.9214 -3.0339
 6479TIP3    H219444   4.610   1.004   0.501 -0.0419  0.7093 -0.8274
 6480TIP3   OH219445   2.830   3.825   3.288  0.5767 -0.0435  0.3300
 6480TIP3    H119446   2.839   3.747   3.343 -0.0463  0.0240  0.5334
 6480TIP3    H219447   2.865   3.896   3.343  4.2107 -0.5878 -1.0131
 6481TIP3   OH219448   4.504   2.005   3.535 -0.5722  0.2413 -0.7647
 6481TIP3    H119449   4.509   2.049   3.620 -1.0716  2.1873 -1.6881
 6481TIP3    H219450   4.413   2.018   3.507 -0.5710 -0.8818 -1.3439
 6482TIP3   OH219451   2.485   5.615   2.398 -0.7650 -0.3011 -0.5897
 6482TIP3    H119452   2.439   5.570   2.327  0.9876 -2.2202 -0.5842
 6482TIP3    H219453   2.417   5.635   2.462 -2.1975  0.4803 -2.2656
 6483TIP3   OH219454   2.628   3.009   0.357 -0.4285 -0.2405  0.1635
 6483TIP3    H119455   2.640   2.992   0.264 -0.4734  1.1362 -0.1021
 6483TIP3    H219456   2.543   2.970   0.378 -1.8936  2.1060 -1.0885
 6484TIP3   OH219457   4.558   3.767   4.489  0.0112  0.1714 -0.6432
 6484TIP3    H119458   4.489   3.817   4.445 -1.3796 -0.9761  0.1820
 6484TIP3    H219459   4.547   3.787   4.582  2.0808  1.5104 -0.6129
 6485TIP3   OH219460   1.850   5.171   1.943  0.0722 -0.4123 -0.3105
 6485TIP3    H119461   1.860   5.157   1.849 -0.2671 -0.4034 -0.3482
 6485TIP3    H219462   1.932   5.141   1.980 -0.3150 -1.7004 -0.4661
 6486TIP3   OH219463   1.498   0.794   0.697 -0.1370 -0.3064  0.3889
 6486TIP3    H119464   1.476   0.708   0.661  2.2287 -0.5819 -0.5266
 6486TIP3    H219465   1.578   0.819   0.652  0.7387  1.1539  2.6190
 6487TIP3   OH219466   2.154   0.202   4.932  0.6455 -0.4860  0.1934
 6487TIP3    H119467   2.226   0.195   4.994  1.5194  0.1255 -0.7187
 6487TIP3    H219468   2.177   0.143   4.860 -0.0201 -0.6782  0.1253
 6488TIP3   OH219469   0.149   3.564   0.403  0.1971  0.0541 -0.2400
 6488TIP3    H119470   0.058   3.545   0.381  0.8915 -0.9769 -2.5462
 6488TIP3    H219471   0.177   3.627   0.336  1.1547  0.4272  0.4952
 6489TIP3   OH219472   1.860   5.007   0.732 -0.1184  0.2040 -0.7151
 6489TIP3    H119473   1.952   5.026   0.749 -0.2908 -0.4869  1.2147
 6489TIP3    H219474   1.822   4.992   0.819 -1.5502 -1.7220 -1.6001
 6490TIP3   OH219475   5.691   1.821   2.013 -0.4347  0.3146  0.0498
 6490TIP3    H119476   5.710   1.792   2.102  1.1431  1.1533  0.0329
 6490TIP3    H219477   5.724   1.751   1.957 -1.4858 -0.2426  0.0992
 6491TIP3   OH219478   4.712   3.614   3.772 -0.5030  0.0114 -0.1081
 6491TIP3    H119479   4.625   3.598   3.809 -0.1739 -1.1330  0.2344
 6491TIP3    H219480   4.736   3.530   3.731 -0.1043  0.7077 -1.3651
 6492TIP3   OH219481   4.534   3.357   1.525  0.1370 -0.4522  0.4024
 6492TIP3    H119482   4.563   3.432   1.474  0.1984  0.4728  1.7365
 6492TIP3    H219483   4.478   3.307   1.465  1.3716 -0.2190 -0.9996
 6493TIP3   OH219484   4.635   1.241   2.184  0.2687 -0.0148 -0.0607
 6493TIP3    H119485   4.588   1.287   2.114 -0.2730 -0.1901  0.1817
 6493TIP3    H219486   4.724   1.229   2.149 -0.0396 -0.2517 -0.7904
 6494TIP3   OH219487   2.800   3.404   1.324  0.2920 -0.7250 -0.0492
 6494TIP3    H119488   2.843   3.425   1.407  0.9042  0.5951 -0.6822
 6494TIP3    H219489   2.779   3.489   1.285 -2.2433 -1.3099 -0.1357
 6495TIP3   OH219490   5.508   1.337   4.115 -0.3200  0.2760 -0.0476
 6495TIP3    H119491   5.530   1.318   4.024  1.3054  2.0597 -0.1062
 6495TIP3    H219492   5.508   1.251   4.158  0.7910 -0.4211 -1.3579
 6496TIP3   OH219493   4.759   2.207   0.338  0.0612  0.1944  0.0672
 6496TIP3    H119494   4.811   2.278   0.377  0.9489  0.2902 -1.2001
 6496TIP3    H219495   4.721   2.161   0.412  0.3307  1.3556  0.9643
 6497TIP3   OH219496   4.990   3.611   1.804  0.3501 -0.0183 -0.1988
 6497TIP3    H119497   4.959   3.598   1.715 -0.8856 -1.1955  0.3600
 6497TIP3    H219498   4.917   3.652   1.850  0.3955 -0.8016  0.6121
 6498TIP3   OH219499   6.003   1.491   2.782 -0.3489  0.2984 -0.5549
 6498TIP3    H119500   5.994   1.501   2.687 -1.2409 -0.3468 -0.5506
 6498TIP3    H219501   5.913   1.485   2.814 -0.0865  1.2323  0.4265
 6499TIP3   OH219502   2.417   3.547   0.056  0.0992 -0.0125 -0.4044
 6499TIP3    H119503   2.485   3.507   0.003  1.3834 -0.6342  1.5816
 6499TIP3    H219504   2.337   3.537   0.005  0.9479 -2.1803 -1.4127
 6500TIP3   OH219505   1.853   2.675   4.542  0.3518 -0.0435  0.0399
 6500TIP3    H119506   1.885   2.763   4.563  2.2392 -0.3475 -1.3754
 6500TIP3    H219507   1.762   2.689   4.514 -0.3640  1.0546  2.5530
 6501TIP3   OH219508   4.066   0.697   0.952  0.2297  0.1607  0.1976
 6501TIP3    H119509   4.142   0.702   1.011  0.0859  3.5287  0.2970
 6501TIP3    H219510   4.012   0.627   0.989  1.2238  0.6287  2.7445
 6502TIP3   OH219511   0.778   2.100   1.393  0.2055  0.5017 -0.5115
 6502TIP3    H119512   0.844   2.054   1.342  1.2032  2.5197 -1.1652
 6502TIP3    H219513   0.696   2.056   1.371  1.2126 -1.7566 -0.0525
 6503TIP3   OH219514   0.718   1.858   2.791  0.2800 -0.4032 -0.1499
 6503TIP3    H119515   0.768   1.805   2.728  0.5187 -0.9533  0.4869
 6503TIP3    H219516   0.645   1.893   2.740 -1.5592 -3.6729  0.0144
 6504TIP3   OH219517   3.958   2.485   0.942  0.8569 -0.2515  0.5163
 6504TIP3    H119518   3.993   2.545   1.008 -0.2060  0.3116  0.5829
 6504TIP3    H219519   3.954   2.537   0.862 -0.5215 -0.0550  0.6875
 6505TIP3   OH219520   1.373   0.348   2.129 -0.7064 -0.3974  0.5836
 6505TIP3    H119521   1.370   0.443   2.120 -0.7306 -0.5525 -1.5671
 6505TIP3    H219522   1.464   0.328   2.149 -0.4091  0.0031 -0.3333
 6506TIP3   OH219523   4.860   0.848   0.124 -0.0175 -0.0429  0.4131
 6506TIP3    H119524   4.952   0.836   0.102  0.4286  2.4136  0.6451
 6506TIP3    H219525   4.849   0.803   0.207  1.0418 -0.1325  0.5132
 6507TIP3   OH219526   5.592   4.629   2.061  0.3559 -0.0057 -0.7076
 6507TIP3    H119527   5.506   4.669   2.058  0.0420 -0.7336 -1.9189
 6507TIP3    H219528   5.579   4.546   2.106  0.8446  0.8042  1.0132
 6508TIP3   OH219529   0.902   1.826   3.572 -0.2271 -0.4547  0.1704
 6508TIP3    H119530   0.974   1.791   3.624 -0.4384 -0.8212  0.2206
 6508TIP3    H219531   0.902   1.773   3.493  0.6164  0.6354 -0.5882
 6509TIP3   OH219532   0.995   2.184   2.500  0.0851 -0.0761  0.5837
 6509TIP3    H119533   1.059   2.119   2.528  0.4302  0.8224  1.9694
 6509TIP3    H219534   1.037   2.268   2.519 -0.9526  0.5378  0.2112
 6510TIP3   OH219535   3.717   5.189   3.912 -0.5832  0.0645 -0.3369
 6510TIP3    H119536   3.791   5.137   3.944 -1.4040 -1.6557 -1.0581
 6510TIP3    H219537   3.647   5.174   3.976 -0.9210  0.0437 -0.7070
 6511TIP3   OH219538   0.950   3.881   0.881 -0.4154  0.5994 -0.0419
 6511TIP3    H119539   1.039   3.862   0.852  0.8586  1.3434  3.0116
 6511TIP3    H219540   0.922   3.953   0.824  1.9897  2.1509  0.5623
 6512TIP3   OH219541   0.396   5.247   3.618  0.0805  0.0551  0.3422
 6512TIP3    H119542   0.462   5.251   3.688  0.5803  1.2157 -0.1717
 6512TIP3    H219543   0.432   5.186   3.554  0.1433 -0.1408  0.5605
 6513TIP3   OH219544   3.262   0.036   2.849 -0.0922 -0.0994 -0.8584
 6513TIP3    H119545   3.206   0.113   2.860  0.0395 -0.0951 -0.1036
 6513TIP3    H219546   3.202  -0.038   2.855  0.0416 -0.1225  0.6827
 6514TIP3   OH219547   6.068   2.327   1.070 -0.3374 -0.0475 -0.2746
 6514TIP3    H119548   6.017   2.318   0.990  0.5089 -1.9060 -0.6568
 6514TIP3    H219549   6.027   2.267   1.132 -0.7208  1.0562  0.5804
 6515TIP3   OH219550   4.439   4.472   4.497  0.2063 -0.0644  0.6480
 6515TIP3    H119551   4.369   4.455   4.434  1.3190  0.9824 -0.9529
 6515TIP3    H219552   4.430   4.565   4.519  2.2085  0.6546 -1.1528
 6516TIP3   OH219553   2.150   3.872   1.335 -0.0518  0.2818 -0.2564
 6516TIP3    H119554   2.129   3.833   1.420 -1.3832 -1.7840 -1.4521
 6516TIP3    H219555   2.086   3.941   1.322 -0.6778 -0.2733 -0.1359
 6517TIP3   OH219556   4.358   0.995   4.465  0.3296 -0.0398  0.1006
 6517TIP3    H119557   4.367   1.070   4.406 -1.8282  0.1760 -0.0602
 6517TIP3    H219558   4.446   0.959   4.472  1.5481  2.7679  0.5641
 6518TIP3   OH219559   5.520   3.217   0.591 -0.3482 -0.0208 -0.5799
 6518TIP3    H119560   5.541   3.264   0.510 -1.9336 -0.2185 -1.1472
 6518TIP3    H219561   5.494   3.285   0.652  1.2385  0.1647 -0.0878
 6519TIP3   OH219562   4.945   1.939   3.639 -0.0360  0.3663 -0.5283
 6519TIP3    H119563   4.895   1.924   3.719  0.0397 -0.1383 -0.5705
 6519TIP3    H219564   4.886   1.988   3.582  0.7672  3.0132  0.7714
 6520TIP3   OH219565   2.022   5.360   0.873 -0.0139 -0.0179 -0.5428
 6520TIP3    H119566   2.081   5.336   0.944  1.5004  0.6047 -1.5264
 6520TIP3    H219567   1.934   5.357   0.911  0.5881 -1.6635  0.7808
 6521TIP3   OH219568   3.086   5.901   3.810  0.3777 -0.2688  0.2041
 6521TIP3    H119569   3.059   5.817   3.847 -1.1512  0.3326  0.5033
 6521TIP3    H219570   3.181   5.892   3.797  0.3303 -1.8206  0.7714
 6522TIP3   OH219571   5.060   5.194   4.450  0.0391  0.4901  0.1369
 6522TIP3    H119572   5.115   5.195   4.528  1.4246 -0.0204 -0.7884
 6522TIP3    H219573   4.970   5.189   4.483  0.4556  2.5339  1.7051
 6523TIP3   OH219574   4.689   4.941   0.950  0.1855  0.2379  0.2248
 6523TIP3    H119575   4.768   4.949   0.897  0.6655  0.9552  1.0279
 6523TIP3    H219576   4.672   4.847   0.953  0.6840  0.1186 -0.4191
 6524TIP3   OH219577   5.959   1.607   0.493 -0.2617 -0.2052  0.0606
 6524TIP3    H119578   5.923   1.522   0.468 -1.8948  0.2628  0.6596
 6524TIP3    H219579   6.052   1.601   0.472 -1.0295 -0.6416 -3.9872
 6525TIP3   OH219580   5.391   4.462   4.438  0.4661 -0.0658  0.0496
 6525TIP3    H119581   5.417   4.540   4.389 -0.8271  1.0263  1.0118
 6525TIP3    H219582   5.472   4.428   4.476  0.9667  1.2097  0.1642
 6526TIP3   OH219583   6.179   5.781   1.084  0.0102 -0.1973  0.6272
 6526TIP3    H119584   6.245   5.713   1.069  0.5595  0.0719  1.7126
 6526TIP3    H219585   6.223   5.862   1.060  0.7391  0.1888  3.0435
 6527TIP3   OH219586   1.427   5.398   0.214 -0.0201 -0.8630 -0.0041
 6527TIP3    H119587   1.441   5.315   0.169 -2.7714 -0.6571 -1.4532
 6527TIP3    H219588   1.455   5.464   0.151  1.8462 -0.6186  1.0181
 6528TIP3   OH219589   1.454   5.083   3.211  0.0516  0.0831 -0.2271
 6528TIP3    H119590   1.424   5.152   3.270  2.6914 -0.0131  1.3772
 6528TIP3    H219591   1.503   5.129   3.143 -0.8615 -0.0122 -0.9737
 6529TIP3   OH219592   0.821   1.228   2.975 -0.2523  0.0901  0.1569
 6529TIP3    H119593   0.762   1.172   3.025 -0.0912 -0.6136 -0.4203
 6529TIP3    H219594   0.909   1.204   3.006 -0.2593  2.0033  1.9189
 6530TIP3   OH219595   3.835   0.929   1.341 -0.1400 -0.2951 -0.3291
 6530TIP3    H119596   3.744   0.955   1.359 -0.2345 -0.4678 -0.5528
 6530TIP3    H219597   3.870   1.001   1.288 -0.2401 -0.3735 -0.5019
 6531TIP3   OH219598   3.130   1.067   2.633  0.3929  0.2554 -0.2204
 6531TIP3    H119599   3.036   1.068   2.647  0.3005  0.4509 -0.8131
 6531TIP3    H219600   3.168   1.074   2.721 -0.1427  0.2683  0.0112
 6532TIP3   OH219601   5.515   5.737   2.452 -0.0495 -0.1158  0.6212
 6532TIP3    H119602   5.515   5.796   2.527 -0.0215  1.6515 -0.7196
 6532TIP3    H219603   5.606   5.710   2.442  1.0046  3.6467 -1.7112
 6533TIP3   OH219604   5.075   5.434   1.311 -0.5133 -0.0841  0.3234
 6533TIP3    H119605   5.083   5.528   1.331 -1.8641 -0.1199  1.1249
 6533TIP3    H219606   5.163   5.399   1.326  0.1306  1.1173 -0.4296
 6534TIP3   OH219607   0.893   3.630   4.727 -0.2520  0.4778  0.0257
 6534TIP3    H119608   0.967   3.638   4.787  0.4638 -1.2298 -0.5421
 6534TIP3    H219609   0.817   3.614   4.783 -0.3340  2.8196  0.6418
 6535TIP3   OH219610   3.671   1.822   2.398 -0.4182 -0.3279  0.2841
 6535TIP3    H119611   3.764   1.806   2.380 -0.7320 -1.0883 -0.6857
 6535TIP3    H219612   3.657   1.913   2.372  0.2049  0.0132  1.0895
 6536TIP3   OH219613   5.052   4.065   0.362  0.5419  0.2515  0.2731
 6536TIP3    H119614   5.098   4.141   0.397  0.9436 -0.6129  1.6891
 6536TIP3    H219615   5.120   4.014   0.317  0.3693  0.4586 -0.2341
 6537TIP3   OH219616   3.669   2.350   2.467  0.7011 -0.1269 -0.3016
 6537TIP3    H119617   3.627   2.435   2.452 -0.9729 -0.8921 -0.0906
 6537TIP3    H219618   3.689   2.317   2.380 -0.9102 -0.5902 -0.5288
 6538TIP3   OH219619   0.661   5.702   0.806 -0.4922 -0.1968  0.0501
 6538TIP3    H119620   0.620   5.786   0.788  0.5963  0.1198 -1.0888
 6538TIP3    H219621   0.606   5.638   0.762 -0.2622  0.1372 -0.7491
 6539TIP3   OH219622   0.120   3.883   2.749  0.2984  0.2330  0.3425
 6539TIP3    H119623   0.048   3.822   2.731  0.9932 -0.3532 -0.5951
 6539TIP3    H219624   0.189   3.857   2.687  1.9533 -0.2960  2.3196
 6540TIP3   OH219625   1.182   2.963   1.967 -0.5068 -0.3992  0.2398
 6540TIP3    H119626   1.270   2.976   2.002 -0.3355  1.0850 -0.6748
 6540TIP3    H219627   1.176   3.024   1.894 -2.3358 -0.4043  0.3427
 6541TIP3   OH219628   3.615   3.123   3.701 -0.4150  0.4139 -0.0887
 6541TIP3    H119629   3.537   3.073   3.677 -0.2426  0.2921 -0.3985
 6541TIP3    H219630   3.653   3.074   3.774  0.0459 -0.2093 -0.7331
 6542TIP3   OH219631   5.894   4.891   2.307  0.7227 -0.1072 -0.4736
 6542TIP3    H119632   5.916   4.960   2.245  1.3887  0.1927  0.0817
 6542TIP3    H219633   5.889   4.936   2.392  2.5165 -0.9368  0.1146
 6543TIP3   OH219634   6.323   0.759   0.784 -0.6663  0.2880  0.0106
 6543TIP3    H119635   6.334   0.785   0.876 -0.3054 -0.4142  0.1721
 6543TIP3    H219636   6.242   0.709   0.783  0.3040 -1.3743  0.3359
 6544TIP3   OH219637   5.829   1.058   1.632 -0.4381  0.1653 -0.1642
 6544TIP3    H119638   5.758   1.010   1.587 -1.4669  0.6938  0.8397
 6544TIP3    H219639   5.907   1.006   1.615 -0.8237  0.1678 -2.2812
 6545TIP3   OH219640   2.930   1.339   3.354 -0.4613  0.2130 -0.0844
 6545TIP3    H119641   2.863   1.359   3.419  0.8794  0.1474  1.3795
 6545TIP3    H219642   3.004   1.394   3.379 -0.2666  1.0203 -2.2538
 6546TIP3   OH219643   4.526   3.001   4.327  0.7034  0.2577 -0.1028
 6546TIP3    H119644   4.494   2.940   4.393  2.5586  1.1740  1.7441
 6546TIP3    H219645   4.530   3.085   4.372  1.2019  1.1081 -1.6589
 6547TIP3   OH219646   3.636   5.598   2.700 -0.6593  0.1615  0.0808
 6547TIP3    H119647   3.713   5.559   2.741  0.3969  1.6556 -0.3780
 6547TIP3    H219648   3.638   5.689   2.727 -0.7841  0.8337 -1.9922
 6548TIP3   OH219649   4.013   2.197   2.840  0.4709 -0.5051 -0.7143
 6548TIP3    H119650   4.081   2.255   2.875 -0.2496 -1.3041  2.3662
 6548TIP3    H219651   3.961   2.253   2.782  1.0537  1.4087  0.5113
 6549TIP3   OH219652   1.256   0.532   0.434  0.3753 -0.1522  0.1534
 6549TIP3    H119653   1.184   0.594   0.447  1.2574  1.6690 -2.6477
 6549TIP3    H219654   1.213   0.448   0.420 -0.9843  0.2146  1.7599
 6550TIP3   OH219655   0.443   3.634   0.531 -0.1752 -0.3906  0.4819
 6550TIP3    H119656   0.364   3.687   0.536  0.0436 -0.1267  1.2470
 6550TIP3    H219657   0.458   3.623   0.437  1.6843  3.8128  0.0816
 6551TIP3   OH219658   2.416   5.808   4.554  0.2195  1.0036 -0.4037
 6551TIP3    H119659   2.344   5.766   4.508 -1.1010  1.0103  1.5409
 6551TIP3    H219660   2.375   5.878   4.604  1.6221  1.2067  0.5317
 6552TIP3   OH219661   2.802   3.317   3.380 -0.2262  0.0454 -0.4007
 6552TIP3    H119662   2.810   3.295   3.473 -0.0267 -0.6513 -0.5740
 6552TIP3    H219663   2.726   3.375   3.375 -0.6603 -0.4683  0.1094
 6553TIP3   OH219664   3.703   0.879   2.621  0.6951 -0.0212 -0.0894
 6553TIP3    H119665   3.611   0.854   2.617  0.7069 -0.0659 -0.0816
 6553TIP3    H219666   3.751   0.796   2.624  0.7256  0.0014  0.0972
 6554TIP3   OH219667   5.018   4.852   3.488 -0.3115 -0.0494 -0.3304
 6554TIP3    H119668   5.001   4.934   3.443 -0.9641 -0.0821 -0.1477
 6554TIP3    H219669   4.942   4.797   3.468  0.4889 -0.9050 -1.1242
 6555TIP3   OH219670   2.067   5.881   3.834  0.4978 -0.1985  0.1221
 6555TIP3    H119671   2.154   5.916   3.812  0.4907  0.3608  0.9521
 6555TIP3    H219672   2.075   5.851   3.925 -0.3607  0.4731  0.4291
 6556TIP3   OH219673   2.679   5.614   1.789  0.1631 -0.3228 -0.1511
 6556TIP3    H119674   2.676   5.586   1.881 -0.3503  2.4990  0.8027
 6556TIP3    H219675   2.762   5.578   1.757 -0.0939 -2.1963  1.0724
 6557TIP3   OH219676   1.135   3.795   2.657  0.3724  0.1002 -0.0953
 6557TIP3    H119677   1.079   3.739   2.604  0.1110  0.0651  0.2134
 6557TIP3    H219678   1.154   3.742   2.735 -0.4015  0.6808  0.4926
 6558TIP3   OH219679   5.188   1.129   2.786 -0.3332  0.1920  0.3982
 6558TIP3    H119680   5.222   1.073   2.855  0.0264 -0.5001 -0.3291
 6558TIP3    H219681   5.109   1.085   2.755  0.0334 -0.0119 -0.2800
 6559TIP3   OH219682   1.975   1.199   4.758 -0.0362  0.0106 -0.1438
 6559TIP3    H119683   1.938   1.277   4.717 -0.5116  0.8974  1.8328
 6559TIP3    H219684   1.902   1.160   4.806  0.7705 -0.1809  0.9774
 6560TIP3   OH219685   2.321   1.603   3.871  0.3216 -0.0767 -0.0476
 6560TIP3    H119686   2.296   1.622   3.780 -2.1934 -2.1065  0.0828
 6560TIP3    H219687   2.266   1.662   3.923  0.7436  0.1169  0.1806
 6561TIP3   OH219688   4.584   4.305   4.072  0.2020 -0.1718  0.2750
 6561TIP3    H119689   4.626   4.327   4.155  1.9672 -0.0083 -0.6111
 6561TIP3    H219690   4.547   4.388   4.042 -1.0838 -0.3820  1.2173
 6562TIP3   OH219691   0.645   1.655   4.217 -0.1823 -0.3327 -0.0358
 6562TIP3    H119692   0.657   1.746   4.190 -0.5370 -0.7643 -1.7740
 6562TIP3    H219693   0.733   1.621   4.228 -0.0343  0.5143  1.8605
 6563TIP3   OH219694   2.471   0.192   1.461  0.1088 -0.1543  0.5264
 6563TIP3    H119695   2.477   0.102   1.430 -1.5007  0.5285 -2.0304
 6563TIP3    H219696   2.384   0.221   1.434  0.6358  2.2162  1.1631
 6564TIP3   OH219697   0.807   0.111   4.585  0.0115  0.0582 -0.1789
 6564TIP3    H119698   0.873   0.120   4.516 -0.3905 -0.1939 -0.6015
 6564TIP3    H219699   0.735   0.168   4.557  0.4799  1.1663  0.8168
 6565TIP3   OH219700   1.795   5.376   4.130 -0.6459  0.2199 -0.5502
 6565TIP3    H119701   1.778   5.439   4.060 -0.5996  0.3097 -0.4815
 6565TIP3    H219702   1.728   5.394   4.196 -1.5918 -0.8298 -1.2083
 6566TIP3   OH219703   3.564   1.829   2.645 -0.0667  0.3686 -0.0974
 6566TIP3    H119704   3.582   1.841   2.552  2.2112 -1.8169 -0.0559
 6566TIP3    H219705   3.612   1.900   2.689 -0.8878  1.2150 -0.5416
 6567TIP3   OH219706   2.493   4.120   0.056  0.2886  0.1337 -0.1882
 6567TIP3    H119707   2.508   4.073  -0.026 -1.3385 -2.1368  0.7295
 6567TIP3    H219708   2.574   4.106   0.107  0.2318 -0.8243 -0.3431
 6568TIP3   OH219709   2.738   5.296   0.966  0.9329 -0.5128 -0.0287
 6568TIP3    H119710   2.790   5.219   0.941  1.8597 -0.3981  1.4167
 6568TIP3    H219711   2.803   5.365   0.980  0.3444 -0.1465  1.0353
 6569TIP3   OH219712   0.071   4.556   3.465 -0.0990  0.3338  0.1873
 6569TIP3    H119713   0.048   4.623   3.401 -1.3594 -0.7277 -0.5366
 6569TIP3    H219714   0.156   4.584   3.500  0.3988  1.2166 -1.5812
 6570TIP3   OH219715   3.915   5.345   3.344 -0.3093  1.0732 -0.1780
 6570TIP3    H119716   3.845   5.329   3.407  0.5124 -1.2474  0.2660
 6570TIP3    H219717   3.995   5.338   3.396  0.3973 -1.0528 -1.4168
 6571TIP3   OH219718   3.976   3.527   0.003 -0.3349  0.3391 -0.2283
 6571TIP3    H119719   4.008   3.452  -0.046 -2.5457  0.0714 -1.4239
 6571TIP3    H219720   3.990   3.503   0.095  0.3963 -0.8568 -0.6221
 6572TIP3   OH219721   5.230   0.463   1.100 -0.2554  0.1244 -0.3309
 6572TIP3    H119722   5.320   0.496   1.095  0.7766 -2.3775 -0.1132
 6572TIP3    H219723   5.206   0.446   1.008  1.2566 -3.2119 -0.2689
 6573TIP3   OH219724   4.408   5.048   2.527  0.3349 -0.5074  0.3039
 6573TIP3    H119725   4.363   4.994   2.593  1.5434 -2.5214 -0.4416
 6573TIP3    H219726   4.345   5.057   2.456 -0.7137  1.0770  1.3518
 6574TIP3   OH219727   0.565   3.317   0.756 -0.7759  0.7286  0.1940
 6574TIP3    H119728   0.638   3.261   0.783 -0.4305  0.9863 -0.1828
 6574TIP3    H219729   0.598   3.406   0.770  0.1439  0.9655 -2.7401
 6575TIP3   OH219730   4.302   3.170   1.863  0.6755 -0.5526  0.6067
 6575TIP3    H119731   4.379   3.115   1.875  0.4849 -0.7322  1.0695
 6575TIP3    H219732   4.336   3.253   1.830  1.1987 -0.2429  1.8690
 6576TIP3   OH219733   1.711   2.827   1.490  0.0697  0.5243  0.4784
 6576TIP3    H119734   1.624   2.848   1.525 -0.1722 -0.3906  0.4448
 6576TIP3    H219735   1.712   2.732   1.483  0.9354  0.5517  0.0982
 6577TIP3   OH219736   3.499   5.682   4.518  0.4534 -0.1318 -0.1705
 6577TIP3    H119737   3.432   5.614   4.523  1.8026 -1.4187  0.9127
 6577TIP3    H219738   3.514   5.693   4.424  1.9205 -3.0947 -0.3608
 6578TIP3   OH219739   1.194   3.679   1.909  0.2686 -0.0334 -0.8064
 6578TIP3    H119740   1.231   3.729   1.836 -0.1367  0.1368 -0.9009
 6578TIP3    H219741   1.106   3.656   1.879 -0.0615  0.4149 -0.1952
 6579TIP3   OH219742   2.808   0.355   1.438  0.1490 -0.2419 -0.3031
 6579TIP3    H119743   2.842   0.267   1.423  0.8395 -0.2913  1.3172
 6579TIP3    H219744   2.831   0.374   1.529 -1.3696  1.0031 -0.1368
 6580TIP3   OH219745   1.978   5.770   1.489 -0.0334  0.8227  0.1687
 6580TIP3    H119746   2.033   5.744   1.563 -0.2970  1.3450  0.5527
 6580TIP3    H219747   1.923   5.841   1.524 -1.6398 -0.3296  0.0773
 6581TIP3   OH219748   1.010   3.928   3.478 -0.0894  0.3028 -0.4878
 6581TIP3    H119749   1.082   3.986   3.452 -0.8356  1.0177 -1.0361
 6581TIP3    H219750   1.049   3.840   3.480  0.6794  0.6109 -1.2711
 6582TIP3   OH219751   3.702   5.224   1.428 -0.0152  0.0744 -0.5471
 6582TIP3    H119752   3.749   5.156   1.380 -0.0969 -1.6267  1.6240
 6582TIP3    H219753   3.734   5.216   1.518 -0.4482  2.5803 -0.0858
 6583TIP3   OH219754   3.271   4.728   4.374 -0.2831 -0.2195  0.1060
 6583TIP3    H119755   3.350   4.705   4.423 -0.8515  1.8615  2.2034
 6583TIP3    H219756   3.297   4.802   4.320 -0.8407  0.7422  1.1159
 6584TIP3   OH219757   5.923   3.968   3.900  0.2826  0.2206 -0.6979
 6584TIP3    H119758   5.917   3.976   3.805 -0.0557  1.8316 -0.5584
 6584TIP3    H219759   5.936   3.874   3.915  1.6921  0.0826 -2.3975
 6585TIP3   OH219760   3.002   4.617   2.398  0.1404  0.3501 -0.1472
 6585TIP3    H119761   2.968   4.639   2.485  0.0420 -3.6508  1.0597
 6585TIP3    H219762   2.931   4.567   2.357  1.1927 -0.2116 -1.3653
 6586TIP3   OH219763   2.208   0.792   0.719 -0.2151 -0.3195 -0.1015
 6586TIP3    H119764   2.216   0.811   0.812 -1.4225 -1.4987  0.2776
 6586TIP3    H219765   2.285   0.831   0.679 -1.1858  2.9569  0.9293
 6587TIP3   OH219766   5.076   4.808   2.159 -0.5487  0.2204 -0.0997
 6587TIP3    H119767   5.051   4.733   2.104 -1.0607 -0.4275  0.9846
 6587TIP3    H219768   5.166   4.788   2.186 -0.4983  0.2585 -0.2381
 6588TIP3   OH219769   6.211   1.193   5.007 -0.5125 -0.3689 -0.4589
 6588TIP3    H119770   6.172   1.114   4.970  1.4796 -1.6097 -0.0882
 6588TIP3    H219771   6.279   1.218   4.945  0.4866 -0.3947  0.5772
 6589TIP3   OH219772   2.010   3.737   1.946  0.0440  0.3852 -0.2831
 6589TIP3    H119773   2.049   3.660   1.988 -0.1834  1.6762  2.5147
 6589TIP3    H219774   2.080   3.802   1.947 -0.8605  1.3835  0.9127
 6590TIP3   OH219775   0.687   5.186   3.767  0.4428  0.0103 -0.1992
 6590TIP3    H119776   0.635   5.112   3.799  0.1637  0.8189  1.3002
 6590TIP3    H219777   0.650   5.262   3.810  0.4022  1.1293 -2.1113
 6591TIP3   OH219778   4.178   0.155   0.152 -0.4177 -0.0503  0.7447
 6591TIP3    H119779   4.216   0.092   0.091  0.8942 -0.4188  1.8838
 6591TIP3    H219780   4.086   0.132   0.157 -0.5598  0.0072 -1.0990
 6592TIP3   OH219781   0.859   2.255   4.742 -0.0827 -0.7626  0.8557
 6592TIP3    H119782   0.874   2.214   4.827  3.3554 -1.3225  0.1224
 6592TIP3    H219783   0.941   2.300   4.722 -1.4500  1.0072 -1.3497
 6593TIP3   OH219784   0.877   4.818   4.624 -0.6731  0.2276 -0.0494
 6593TIP3    H119785   0.930   4.822   4.545 -1.0965  2.2842 -0.2898
 6593TIP3    H219786   0.787   4.816   4.592 -0.8420  0.9581  0.3588
 6594TIP3   OH219787   2.505   2.601   2.091 -0.1117  0.0975 -0.0367
 6594TIP3    H119788   2.539   2.690   2.096 -1.5166  0.6408 -0.0327
 6594TIP3    H219789   2.494   2.585   1.998 -1.6745  0.6524  0.0255
 6595TIP3   OH219790   4.942   4.205   2.857 -0.3396  0.1790  0.3143
 6595TIP3    H119791   4.961   4.112   2.867 -1.0290 -0.0536 -0.4205
 6595TIP3    H219792   4.993   4.232   2.780 -0.3805  0.3347  0.3415
 6596TIP3   OH219793   1.576   4.724   5.131 -0.3139  0.3443  0.0581
 6596TIP3    H119794   1.589   4.755   5.041  0.7541  0.0063  0.0798
 6596TIP3    H219795   1.590   4.802   5.185  0.0814  0.3324 -0.0199
 6597TIP3   OH219796   2.571   4.251   1.475  0.4001 -0.1272 -0.5727
 6597TIP3    H119797   2.540   4.195   1.403  0.7096  0.2119 -0.9804
 6597TIP3    H219798   2.493   4.270   1.526  0.2391 -0.6821 -0.6031
 6598TIP3   OH219799   3.166   4.802   3.968  0.5535 -0.0462  0.0699
 6598TIP3    H119800   3.212   4.775   3.888  1.1105  1.6431 -0.2249
 6598TIP3    H219801   3.073   4.785   3.949  0.5734  1.2481 -1.3446
 6599TIP3   OH219802   4.657   2.686   2.729  0.4573  0.1784 -0.1999
 6599TIP3    H119803   4.615   2.757   2.680 -0.7370 -0.9346 -0.8337
 6599TIP3    H219804   4.584   2.640   2.771  1.1439 -1.1010 -0.3764
 6600TIP3   OH219805   6.055   4.533   0.351 -0.7033 -0.0044  0.1532
 6600TIP3    H119806   6.074   4.625   0.333 -2.2384  0.3263  0.0853
 6600TIP3    H219807   5.974   4.535   0.403 -1.0221 -1.3355 -0.2653
 6601TIP3   OH219808   4.652   5.651   3.566 -0.7122 -0.0364  0.8296
 6601TIP3    H119809   4.661   5.663   3.472 -1.8021  0.4330  0.7668
 6601TIP3    H219810   4.712   5.715   3.604 -0.4431 -0.0645  0.4544
 6602TIP3   OH219811   2.082   0.692   4.696  0.2449 -0.7277  0.3414
 6602TIP3    H119812   2.158   0.749   4.683  0.1142 -0.5359  0.4187
 6602TIP3    H219813   2.102   0.645   4.777 -0.3008  0.2708  1.0803
 6603TIP3   OH219814   2.834   0.488   4.236  0.0512  0.4016 -0.3731
 6603TIP3    H119815   2.912   0.526   4.277 -0.4087  0.5090  0.4370
 6603TIP3    H219816   2.763   0.509   4.297 -0.0941 -2.5276  0.6113
 6604TIP3   OH219817   4.369   3.370   0.068 -0.3894  0.8085 -0.0293
 6604TIP3    H119818   4.322   3.446   0.102  0.9647  1.2434  0.9611
 6604TIP3    H219819   4.444   3.407   0.021  0.2068  0.1008  0.3446
 6605TIP3   OH219820   2.401   3.898   2.854 -0.2594  0.2386  0.2234
 6605TIP3    H119821   2.365   3.956   2.787 -1.0818 -0.0316  0.4193
 6605TIP3    H219822   2.416   3.815   2.809  2.5776  1.0411 -0.5063
 6606TIP3   OH219823   6.248   3.516   2.376 -0.5440  0.9193 -0.1315
 6606TIP3    H119824   6.271   3.511   2.468 -1.1089 -0.5034 -0.0512
 6606TIP3    H219825   6.249   3.425   2.345 -1.5334  1.2531 -1.2305
 6607TIP3   OH219826   3.610   4.829   3.116 -0.2069 -0.5545  0.3730
 6607TIP3    H119827   3.629   4.923   3.114  2.1418 -0.9557  0.9331
 6607TIP3    H219828   3.591   4.810   3.208 -0.5159 -0.6746  0.2878
 6608TIP3   OH219829   4.717   0.674   3.615 -0.3632 -0.2539  0.3043
 6608TIP3    H119830   4.774   0.642   3.685 -0.6751  0.4966  0.9182
 6608TIP3    H219831   4.767   0.658   3.534  0.2109 -0.6752  0.7372
 6609TIP3   OH219832   0.380   1.989   2.920 -0.0740  0.8369  0.6276
 6609TIP3    H119833   0.382   1.899   2.953 -1.5917  0.5241 -0.0226
 6609TIP3    H219834   0.414   1.982   2.831  2.1970  1.3654  1.3854
 6610TIP3   OH219835   0.033   0.467   2.289 -0.1502  0.0919  0.4848
 6610TIP3    H119836   0.055   0.551   2.248 -1.6489 -0.5901 -1.9472
 6610TIP3    H219837  -0.046   0.486   2.340 -0.4596  0.2056 -0.0230
 6611TIP3   OH219838   2.521   1.020   0.444  0.1976  0.2433  0.1818
 6611TIP3    H119839   2.517   1.102   0.395  1.2720  0.0209 -0.3105
 6611TIP3    H219840   2.507   1.045   0.535  0.8854  1.0265  0.0803
 6612TIP3   OH219841   5.111   2.372   4.740 -0.1043 -0.0264 -0.0399
 6612TIP3    H119842   5.073   2.458   4.758 -0.5873 -0.3384  0.4895
 6612TIP3    H219843   5.104   2.362   4.645  0.6187  0.8144 -0.1870
 6613TIP3   OH219844   1.337   2.522   0.052 -0.5049  0.4173  0.5577
 6613TIP3    H119845   1.399   2.594   0.042 -0.3592  0.7165  3.0337
 6613TIP3    H219846   1.270   2.556   0.112 -0.3606 -1.5131  1.8976
 6614TIP3   OH219847   5.561   3.245   0.187 -0.1238  1.0344  0.1425
 6614TIP3    H119848   5.566   3.318   0.125 -1.4474  2.2489  1.3966
 6614TIP3    H219849   5.632   3.261   0.249 -1.2010  2.0261  1.1645
 6615TIP3   OH219850   1.819   0.996   1.323 -0.1012  0.0788  0.4585
 6615TIP3    H119851   1.836   0.966   1.412  0.8767 -0.0955  0.2262
 6615TIP3    H219852   1.863   1.080   1.317 -1.3988  0.7974  0.5744
 6616TIP3   OH219853   5.307   1.537   2.342 -0.3512 -0.3767 -0.0217
 6616TIP3    H119854   5.224   1.496   2.318 -0.0903 -1.6474  1.1114
 6616TIP3    H219855   5.290   1.577   2.427  0.1675 -0.5685  0.1767
 6617TIP3   OH219856   2.649   2.705   4.934  0.5608  0.1626 -0.0803
 6617TIP3    H119857   2.740   2.729   4.915  0.0874  0.2842 -2.4807
 6617TIP3    H219858   2.649   2.609   4.934  1.4505 -0.0320  4.3823
 6618TIP3   OH219859   5.456   1.342   1.819  0.9460 -0.2031 -0.3114
 6618TIP3    H119860   5.505   1.264   1.844 -0.5066 -0.3642  2.5277
 6618TIP3    H219861   5.371   1.331   1.860 -0.6962  1.1396 -3.0972
 6619TIP3   OH219862   4.459   2.950   2.229  0.4213  0.1620 -0.1775
 6619TIP3    H119863   4.458   2.903   2.146  1.0106 -0.2279  0.0266
 6619TIP3    H219864   4.464   2.882   2.296  0.6135  0.4894  0.1507
 6620TIP3   OH219865   4.972   0.825   3.498 -0.0203 -0.4664  0.2456
 6620TIP3    H119866   4.985   0.875   3.418  0.5979  0.4473  0.8942
 6620TIP3    H219867   4.914   0.754   3.473 -0.9101  0.5649 -0.7100
 6621TIP3   OH219868   4.022   0.963   3.656  0.6440 -0.0680 -0.1107
 6621TIP3    H119869   3.984   1.027   3.716  0.5921  0.3675 -0.6007
 6621TIP3    H219870   3.949   0.934   3.602  1.2833  2.4786 -2.6296
 6622TIP3   OH219871   2.063   0.611   0.150 -0.9554 -0.4030  0.1477
 6622TIP3    H119872   1.998   0.676   0.122  0.3842  0.4317 -1.1912
 6622TIP3    H219873   2.107   0.585   0.070  0.7664 -0.4788  1.0715
 6623TIP3   OH219874   3.239   1.667   0.354 -0.2972 -0.4459  0.3321
 6623TIP3    H119875   3.323   1.621   0.354 -0.4332 -0.8123 -1.9191
 6623TIP3    H219876   3.248   1.734   0.422  1.6539 -0.7692  0.4504
 6624TIP3   OH219877   4.317   1.436   4.743  0.1231  0.1013  0.1744
 6624TIP3    H119878   4.263   1.491   4.685  0.9381  0.0472 -0.6574
 6624TIP3    H219879   4.306   1.347   4.709 -0.6595 -0.1692  1.1047
 6625TIP3   OH219880   5.800   2.171   4.232 -0.5619  0.4178 -0.3262
 6625TIP3    H119881   5.891   2.159   4.258 -1.0347 -0.6543  0.9767
 6625TIP3    H219882   5.801   2.248   4.175  0.9285  1.4008  0.9371
 6626TIP3   OH219883   3.159   4.666   1.813 -0.0378 -0.6298  0.2651
 6626TIP3    H119884   3.229   4.693   1.872 -2.0696 -0.4700  2.7608
 6626TIP3    H219885   3.110   4.746   1.794  0.3279 -0.7520 -1.3866
 6627TIP3   OH219886   0.635   1.247   5.123  0.2212 -0.1837 -0.4987
 6627TIP3    H119887   0.706   1.287   5.172 -0.3626 -0.1399  0.3401
 6627TIP3    H219888   0.586   1.321   5.087 -1.8879  0.0542  2.5058
 6628TIP3   OH219889   4.760   2.537   1.975  0.3665 -0.2463 -0.3221
 6628TIP3    H119890   4.843   2.581   1.957 -0.9344  1.9596 -1.3924
 6628TIP3    H219891   4.720   2.524   1.888 -0.8416 -0.3389  0.2261
 6629TIP3   OH219892   4.090   5.189   4.587 -0.1274 -0.5678 -0.5026
 6629TIP3    H119893   4.176   5.218   4.618 -1.1340  1.4117  0.6654
 6629TIP3    H219894   4.033   5.196   4.663 -2.1242  1.8329 -2.0323
 6630TIP3   OH219895   3.292   2.373   4.825  0.1859 -0.3583 -0.3676
 6630TIP3    H119896   3.290   2.452   4.879 -0.8996 -0.7803  0.2255
 6630TIP3    H219897   3.241   2.396   4.747  0.2683 -0.3257 -0.4125
 6631TIP3   OH219898   1.332   1.938   4.460  0.2864  0.0618 -0.0666
 6631TIP3    H119899   1.269   2.010   4.454  1.2139  0.9376  0.3517
 6631TIP3    H219900   1.322   1.904   4.549 -0.3983 -0.5782 -0.3768
 6632TIP3   OH219901   5.265   5.123   3.879  0.2376 -0.7394  0.0601
 6632TIP3    H119902   5.353   5.087   3.871  0.8673  0.8573 -0.6150
 6632TIP3    H219903   5.258   5.188   3.809 -1.2668 -0.4201  0.4573
 6633TIP3   OH219904   3.258   0.452   0.048 -0.4624  0.5733  0.1452
 6633TIP3    H119905   3.339   0.407   0.025 -0.5893  1.1353 -1.4896
 6633TIP3    H219906   3.188   0.395   0.016 -0.6474  1.2065 -0.6324
 6634TIP3   OH219907   0.191   5.345   1.657 -0.0682  0.3289  0.0640
 6634TIP3    H119908   0.158   5.427   1.623  2.6577  0.3706 -2.9833
 6634TIP3    H219909   0.143   5.278   1.609  2.0391  0.3526 -2.2423
 6635TIP3   OH219910   2.844   4.977   5.047 -0.2891  0.5361 -0.5529
 6635TIP3    H119911   2.853   4.885   5.023 -0.1525  0.0288  1.2703
 6635TIP3    H219912   2.934   5.008   5.056 -0.3191  1.1600 -2.1643
 6636TIP3   OH219913   0.017   1.520   4.704 -0.4306 -0.5242  0.1823
 6636TIP3    H119914   0.024   1.429   4.731 -0.5033 -0.8815 -0.9510
 6636TIP3    H219915  -0.024   1.517   4.617 -0.0949  0.5550 -0.0371
 6637TIP3   OH219916   2.618   2.075   2.588 -0.1233 -0.3214  0.2554
 6637TIP3    H119917   2.526   2.062   2.613 -0.1585 -0.0590  0.2710
 6637TIP3    H219918   2.639   1.999   2.534  0.3221 -1.5353  2.0466
 6638TIP3   OH219919   4.935   5.182   1.472 -0.2400 -0.1398 -0.3746
 6638TIP3    H119920   4.904   5.099   1.508  3.0170 -1.3159  0.0848
 6638TIP3    H219921   4.957   5.162   1.381  0.1855  0.3278 -0.3814
 6639TIP3   OH219922   5.297   3.387   3.879  0.0741 -0.3641 -0.6904
 6639TIP3    H119923   5.388   3.417   3.880 -0.4773  1.4461 -0.3168
 6639TIP3    H219924   5.280   3.358   3.969  0.5960 -1.8143 -1.0394
 6640TIP3   OH219925   2.395   5.848   2.265  0.2159  0.0231 -0.0102
 6640TIP3    H119926   2.406   5.757   2.291  1.3173  0.3738  0.8514
 6640TIP3    H219927   2.470   5.867   2.210 -0.0852  0.3776 -0.3092
   6.34088   5.97824   5.17731   0.00000   0.00000  -2.11363   0.00000  -2.11363  -2.98912
