Title t= 420.00000 step= 210000
19942
    1ASP      N    1   0.947   1.902   3.146
    1ASP    HT1    2   0.944   1.816   3.088
    1ASP    HT2    3   0.876   1.975   3.130
    1ASP    HT3    4   0.938   1.865   3.243
    1ASP     CA    5   1.085   1.961   3.117
    1ASP     HA    6   1.110   2.013   3.208
    1ASP     CB    7   1.178   1.839   3.094
    1ASP    HB1    8   1.139   1.809   2.995
    1ASP    HB2    9   1.168   1.754   3.165
    1ASP     CG   10   1.327   1.873   3.090
    1ASP    OD1   11   1.404   1.791   3.040
    1ASP    OD2   12   1.359   1.983   3.129
    1ASP      C   13   1.081   2.056   3.002
    1ASP      O   14   0.981   2.065   2.930
    2ALA      N   15   1.190   2.131   2.975
    2ALA     HN   16   1.272   2.132   3.031
    2ALA     CA   17   1.221   2.189   2.847
    2ALA     HA   18   1.133   2.246   2.821
    2ALA     CB   19   1.343   2.278   2.868
    2ALA    HB1   20   1.416   2.288   2.785
    2ALA    HB2   21   1.405   2.242   2.953
    2ALA    HB3   22   1.313   2.383   2.891
    2ALA      C   23   1.249   2.086   2.737
    2ALA      O   24   1.288   1.974   2.774
    3ASP      N   25   1.216   2.103   2.613
    3ASP     HN   26   1.157   2.176   2.579
    3ASP     CA   27   1.252   2.025   2.492
    3ASP     HA   28   1.173   1.952   2.479
    3ASP     CB   29   1.265   2.115   2.362
    3ASP    HB1   30   1.280   2.067   2.263
    3ASP    HB2   31   1.353   2.180   2.378
    3ASP     CG   32   1.152   2.222   2.351
    3ASP    OD1   33   1.173   2.316   2.276
    3ASP    OD2   34   1.045   2.214   2.422
    3ASP      C   35   1.388   1.944   2.506
    3ASP      O   36   1.484   2.001   2.563
    4GLY      N   37   1.392   1.820   2.459
    4GLY     HN   38   1.313   1.779   2.413
    4GLY     CA   39   1.504   1.727   2.468
    4GLY    HA1   40   1.468   1.629   2.440
    4GLY    HA2   41   1.545   1.729   2.568
    4GLY      C   42   1.626   1.741   2.382
    4GLY      O   43   1.639   1.844   2.321
    5PRO      N   44   1.717   1.642   2.375
    5PRO     CD   45   1.732   1.544   2.477
    5PRO    HD1   46   1.640   1.487   2.498
    5PRO    HD2   47   1.759   1.603   2.567
    5PRO     CA   48   1.811   1.621   2.260
    5PRO     HA   49   1.878   1.706   2.255
    5PRO     CB   50   1.868   1.481   2.296
    5PRO    HB1   51   1.975   1.468   2.271
    5PRO    HB2   52   1.802   1.397   2.263
    5PRO     CG   53   1.863   1.471   2.448
    5PRO    HG1   54   1.858   1.369   2.493
    5PRO    HG2   55   1.951   1.518   2.498
    5PRO      C   56   1.751   1.624   2.121
    5PRO      O   57   1.632   1.650   2.095
    6GLY      N   58   1.841   1.602   2.024
    6GLY     HN   59   1.938   1.614   2.045
    6GLY     CA   60   1.821   1.573   1.877
    6GLY    HA1   61   1.861   1.651   1.814
    6GLY    HA2   62   1.714   1.569   1.860
    6GLY      C   63   1.881   1.444   1.838
    6GLY      O   64   1.854   1.388   1.732
    7ASP      N   65   1.966   1.389   1.927
    7ASP     HN   66   1.994   1.432   2.013
    7ASP     CA   67   2.035   1.261   1.912
    7ASP     HA   68   2.097   1.260   1.823
    7ASP     CB   69   2.121   1.240   2.033
    7ASP    HB1   70   2.155   1.134   2.038
    7ASP    HB2   71   2.058   1.254   2.123
    7ASP     CG   72   2.244   1.325   2.045
    7ASP    OD1   73   2.261   1.424   1.962
    7ASP    OD2   74   2.332   1.299   2.130
    7ASP      C   75   1.932   1.146   1.897
    7ASP      O   76   1.835   1.149   1.975
    8PRO      N   77   1.941   1.050   1.808
    8PRO     CD   78   2.049   1.050   1.704
    8PRO    HD1   79   2.143   1.027   1.758
    8PRO    HD2   80   2.051   1.149   1.653
    8PRO     CA   81   1.816   0.999   1.752
    8PRO     HA   82   1.746   1.079   1.732
    8PRO     CB   83   1.862   0.936   1.614
    8PRO    HB1   84   1.816   0.999   1.536
    8PRO    HB2   85   1.822   0.836   1.588
    8PRO     CG   86   2.015   0.928   1.608
    8PRO    HG1   87   2.052   0.834   1.654
    8PRO    HG2   88   2.051   0.937   1.503
    8PRO      C   89   1.737   0.902   1.838
    8PRO      O   90   1.615   0.896   1.838
    9ASP      N   91   1.798   0.801   1.908
    9ASP     HN   92   1.897   0.813   1.906
    9ASP     CA   93   1.738   0.705   1.999
    9ASP     HA   94   1.633   0.686   1.982
    9ASP     CB   95   1.816   0.569   1.991
    9ASP    HB1   96   1.764   0.493   2.054
    9ASP    HB2   97   1.922   0.578   2.023
    9ASP     CG   98   1.812   0.520   1.847
    9ASP    OD1   99   1.902   0.447   1.801
    9ASP    OD2  100   1.708   0.542   1.781
    9ASP      C  101   1.743   0.750   2.146
    9ASP      O  102   1.702   0.679   2.235
   10ALA      N  103   1.788   0.872   2.167
   10ALA     HN  104   1.799   0.926   2.084
   10ALA     CA  105   1.790   0.932   2.300
   10ALA     HA  106   1.793   0.856   2.376
   10ALA     CB  107   1.906   1.031   2.309
   10ALA    HB1  108   2.000   0.972   2.323
   10ALA    HB2  109   1.888   1.104   2.391
   10ALA    HB3  110   1.916   1.090   2.215
   10ALA      C  111   1.659   1.007   2.312
   10ALA      O  112   1.585   1.032   2.217
   11GLY      N  113   1.621   1.043   2.436
   11GLY     HN  114   1.688   1.030   2.509
   11GLY     CA  115   1.492   1.109   2.467
   11GLY    HA1  116   1.447   1.168   2.389
   11GLY    HA2  117   1.498   1.170   2.555
   11GLY      C  118   1.389   1.002   2.494
   11GLY    OT1  119   1.405   0.922   2.594
   11GLY    OT2  120   1.285   0.990   2.422
   12LIT    LIT  121   4.586   4.828   2.115
   13LIT    LIT  122   3.279   5.444   5.141
   14LIT    LIT  123   5.210   0.872   4.257
   15LIT    LIT  124   3.534   5.373   4.612
   16LIT    LIT  125   0.334   0.206   4.505
   17LIT    LIT  126   4.818   0.620   2.695
   18LIT    LIT  127   1.192   2.285   3.951
   19LIT    LIT  128   4.811   5.214   2.333
   20LIT    LIT  129   2.275   1.834   3.894
   21LIT    LIT  130   5.061   4.511   0.949
   22LIT    LIT  131   0.003   3.828   3.249
   23LIT    LIT  132   0.550   1.962   1.146
   24LIT    LIT  133   0.817   4.331   4.488
   25LIT    LIT  134   6.285   3.898   2.395
   26LIT    LIT  135   3.901   1.505   4.701
   27LIT    LIT  136   1.496   0.092   4.311
   28LIT    LIT  137   1.538   1.938   3.055
   29LIT    LIT  138   2.494   5.511   3.629
   30LIT    LIT  139   5.385   3.319   0.693
   31LIT    LIT  140   5.807   2.319   2.411
   32LIT    LIT  141   0.013   0.066   2.175
   33LIT    LIT  142   2.903   1.106   0.190
   34CLA    CLA  143   1.842   3.661   2.248
   35CLA    CLA  144   4.749   4.784   2.545
   36CLA    CLA  145   4.657   2.833   2.423
   37CLA    CLA  146   4.566   1.369   3.983
   38CLA    CLA  147   2.422   1.964   4.015
   39CLA    CLA  148   0.480   5.907   2.449
   40CLA    CLA  149   2.174   4.818   0.281
   41CLA    CLA  150   4.753   0.690   4.167
   42CLA    CLA  151   4.892   5.470   0.629
   43CLA    CLA  152   0.681   1.790   4.524
   44CLA    CLA  153   1.707   4.714   0.358
   45CLA    CLA  154   1.321   2.550   3.554
   46CLA    CLA  155   4.828   1.552   2.952
   47CLA    CLA  156   3.941   1.477   4.919
   48CLA    CLA  157   5.656   4.404   0.607
   49CLA    CLA  158   6.238   5.965   3.406
   50CLA    CLA  159   5.039   0.517   1.820
   51CLA    CLA  160   4.386   5.120   0.023
   52TIP3   OH2  161   2.197   1.832   4.630
   52TIP3    H1  162   2.184   1.793   4.717
   52TIP3    H2  163   2.164   1.766   4.569
   53TIP3   OH2  164   0.328   1.342   0.693
   53TIP3    H1  165   0.360   1.252   0.705
   53TIP3    H2  166   0.335   1.357   0.599
   54TIP3   OH2  167   1.225   2.741   3.992
   54TIP3    H1  168   1.317   2.740   4.019
   54TIP3    H2  169   1.181   2.794   4.058
   55TIP3   OH2  170   1.675   0.218   2.325
   55TIP3    H1  171   1.767   0.209   2.347
   55TIP3    H2  172   1.650   0.132   2.291
   56TIP3   OH2  173   5.919   4.679   4.286
   56TIP3    H1  174   5.964   4.644   4.209
   56TIP3    H2  175   5.979   4.663   4.359
   57TIP3   OH2  176   5.041   5.984   3.902
   57TIP3    H1  177   5.124   5.941   3.880
   57TIP3    H2  178   5.028   5.963   3.995
   58TIP3   OH2  179   3.003   4.513   2.315
   58TIP3    H1  180   2.917   4.476   2.297
   58TIP3    H2  181   3.052   4.499   2.234
   59TIP3   OH2  182   0.581   3.600   2.349
   59TIP3    H1  183   0.643   3.530   2.331
   59TIP3    H2  184   0.508   3.557   2.394
   60TIP3   OH2  185   4.058   2.123   0.845
   60TIP3    H1  186   4.153   2.107   0.848
   60TIP3    H2  187   4.048   2.213   0.876
   61TIP3   OH2  188   0.903   0.167   0.098
   61TIP3    H1  189   0.938   0.254   0.080
   61TIP3    H2  190   0.977   0.118   0.134
   62TIP3   OH2  191   4.865   4.768   1.728
   62TIP3    H1  192   4.940   4.826   1.720
   62TIP3    H2  193   4.794   4.825   1.758
   63TIP3   OH2  194   2.092   4.924   4.214
   63TIP3    H1  195   2.095   5.019   4.203
   63TIP3    H2  196   2.003   4.900   4.192
   64TIP3   OH2  197   0.427   5.661   4.451
   64TIP3    H1  198   0.490   5.634   4.518
   64TIP3    H2  199   0.351   5.603   4.465
   65TIP3   OH2  200   3.173   1.345   1.411
   65TIP3    H1  201   3.080   1.333   1.429
   65TIP3    H2  202   3.202   1.260   1.376
   66TIP3   OH2  203   3.570   4.501   4.914
   66TIP3    H1  204   3.553   4.420   4.962
   66TIP3    H2  205   3.524   4.568   4.965
   67TIP3   OH2  206   2.295   1.851   4.306
   67TIP3    H1  207   2.338   1.905   4.372
   67TIP3    H2  208   2.353   1.857   4.229
   68TIP3   OH2  209   4.009   1.874   5.047
   68TIP3    H1  210   3.961   1.907   4.971
   68TIP3    H2  211   4.076   1.940   5.064
   69TIP3   OH2  212   1.423   5.296   1.777
   69TIP3    H1  213   1.487   5.277   1.846
   69TIP3    H2  214   1.465   5.267   1.696
   70TIP3   OH2  215   5.259   1.358   1.734
   70TIP3    H1  216   5.193   1.417   1.696
   70TIP3    H2  217   5.210   1.305   1.798
   71TIP3   OH2  218   4.720   1.613   2.442
   71TIP3    H1  219   4.668   1.647   2.514
   71TIP3    H2  220   4.811   1.626   2.469
   72TIP3   OH2  221   5.068   4.679   0.128
   72TIP3    H1  222   5.117   4.658   0.208
   72TIP3    H2  223   4.977   4.684   0.158
   73TIP3   OH2  224   4.405   0.646   1.624
   73TIP3    H1  225   4.486   0.691   1.647
   73TIP3    H2  226   4.355   0.710   1.574
   74TIP3   OH2  227   4.075   2.216   2.554
   74TIP3    H1  228   4.162   2.203   2.517
   74TIP3    H2  229   4.053   2.132   2.594
   75TIP3   OH2  230   4.049   1.876   1.157
   75TIP3    H1  231   4.032   1.970   1.168
   75TIP3    H2  232   3.972   1.833   1.193
   76TIP3   OH2  233   2.933   2.468   4.279
   76TIP3    H1  234   2.875   2.393   4.264
   76TIP3    H2  235   3.017   2.428   4.303
   77TIP3   OH2  236   1.094   2.087   4.348
   77TIP3    H1  237   1.006   2.082   4.311
   77TIP3    H2  238   1.080   2.084   4.443
   78TIP3   OH2  239   5.960   2.221   2.939
   78TIP3    H1  240   5.946   2.284   3.010
   78TIP3    H2  241   5.901   2.148   2.961
   79TIP3   OH2  242   5.217   2.741   4.787
   79TIP3    H1  243   5.256   2.660   4.756
   79TIP3    H2  244   5.181   2.783   4.708
   80TIP3   OH2  245   0.111   5.464   0.983
   80TIP3    H1  246   0.169   5.480   1.058
   80TIP3    H2  247   0.091   5.551   0.950
   81TIP3   OH2  248   4.225   1.623   0.171
   81TIP3    H1  249   4.309   1.610   0.127
   81TIP3    H2  250   4.227   1.562   0.245
   82TIP3   OH2  251   1.200   0.929   2.759
   82TIP3    H1  252   1.273   0.947   2.700
   82TIP3    H2  253   1.148   0.862   2.715
   83TIP3   OH2  254   0.384   2.679   2.108
   83TIP3    H1  255   0.380   2.661   2.202
   83TIP3    H2  256   0.300   2.649   2.073
   84TIP3   OH2  257   2.258   1.427   2.355
   84TIP3    H1  258   2.281   1.512   2.319
   84TIP3    H2  259   2.264   1.367   2.281
   85TIP3   OH2  260   1.995   1.435   1.489
   85TIP3    H1  261   1.968   1.440   1.581
   85TIP3    H2  262   2.043   1.517   1.475
   86TIP3   OH2  263   2.059   4.150   0.593
   86TIP3    H1  264   2.012   4.137   0.675
   86TIP3    H2  265   2.027   4.233   0.559
   87TIP3   OH2  266   5.911   3.795   1.553
   87TIP3    H1  267   5.891   3.773   1.462
   87TIP3    H2  268   6.002   3.825   1.551
   88TIP3   OH2  269   2.451   0.781   2.449
   88TIP3    H1  270   2.470   0.743   2.364
   88TIP3    H2  271   2.492   0.722   2.512
   89TIP3   OH2  272   2.354   0.108   2.900
   89TIP3    H1  273   2.343   0.048   2.973
   89TIP3    H2  274   2.328   0.057   2.823
   90TIP3   OH2  275   5.073   5.635   2.841
   90TIP3    H1  276   4.984   5.670   2.830
   90TIP3    H2  277   5.064   5.569   2.911
   91TIP3   OH2  278   4.525   0.602   2.526
   91TIP3    H1  279   4.468   0.601   2.602
   91TIP3    H2  280   4.468   0.582   2.452
   92TIP3   OH2  281   1.100   3.894   0.749
   92TIP3    H1  282   1.122   3.919   0.839
   92TIP3    H2  283   1.011   3.928   0.735
   93TIP3   OH2  284   1.658   4.114   3.081
   93TIP3    H1  285   1.716   4.052   3.037
   93TIP3    H2  286   1.582   4.061   3.105
   94TIP3   OH2  287   4.275   4.519   3.512
   94TIP3    H1  288   4.272   4.448   3.577
   94TIP3    H2  289   4.336   4.582   3.550
   95TIP3   OH2  290   2.358   4.707   2.737
   95TIP3    H1  291   2.305   4.657   2.675
   95TIP3    H2  292   2.402   4.773   2.683
   96TIP3   OH2  293   5.706   4.890   0.626
   96TIP3    H1  294   5.756   4.963   0.664
   96TIP3    H2  295   5.746   4.876   0.541
   97TIP3   OH2  296   6.020   2.532   4.412
   97TIP3    H1  297   6.057   2.455   4.455
   97TIP3    H2  298   5.926   2.528   4.431
   98TIP3   OH2  299   1.005   0.098   1.009
   98TIP3    H1  300   1.062   0.075   1.082
   98TIP3    H2  301   0.918   0.109   1.048
   99TIP3   OH2  302   2.730   1.784   3.751
   99TIP3    H1  303   2.821   1.796   3.725
   99TIP3    H2  304   2.735   1.744   3.838
  100TIP3   OH2  305   5.970   5.688   3.289
  100TIP3    H1  306   5.890   5.679   3.341
  100TIP3    H2  307   5.955   5.766   3.236
  101TIP3   OH2  308   0.674   0.133   3.167
  101TIP3    H1  309   0.763   0.099   3.158
  101TIP3    H2  310   0.684   0.228   3.170
  102TIP3   OH2  311   5.469   3.891   4.982
  102TIP3    H1  312   5.495   3.888   5.074
  102TIP3    H2  313   5.487   3.803   4.949
  103TIP3   OH2  314   2.024   5.788   3.339
  103TIP3    H1  315   2.052   5.704   3.377
  103TIP3    H2  316   1.975   5.831   3.409
  104TIP3   OH2  317   2.029   4.569   1.630
  104TIP3    H1  318   2.006   4.584   1.539
  104TIP3    H2  319   1.951   4.594   1.679
  105TIP3   OH2  320   3.611   2.442   2.485
  105TIP3    H1  321   3.616   2.519   2.541
  105TIP3    H2  322   3.539   2.391   2.521
  106TIP3   OH2  323   6.301   4.291   1.862
  106TIP3    H1  324   6.259   4.299   1.948
  106TIP3    H2  325   6.392   4.270   1.881
  107TIP3   OH2  326   5.577   2.195   4.149
  107TIP3    H1  327   5.569   2.112   4.196
  107TIP3    H2  328   5.606   2.257   4.216
  108TIP3   OH2  329   4.897   2.565   1.463
  108TIP3    H1  330   4.989   2.548   1.440
  108TIP3    H2  331   4.870   2.486   1.510
  109TIP3   OH2  332   5.881   1.574   1.604
  109TIP3    H1  333   5.789   1.549   1.613
  109TIP3    H2  334   5.925   1.534   1.679
  110TIP3   OH2  335   0.635   4.595   1.066
  110TIP3    H1  336   0.650   4.689   1.079
  110TIP3    H2  337   0.556   4.591   1.012
  111TIP3   OH2  338   1.237   4.577   1.534
  111TIP3    H1  339   1.150   4.555   1.568
  111TIP3    H2  340   1.297   4.550   1.604
  112TIP3   OH2  341   4.876   5.929   0.597
  112TIP3    H1  342   4.910   5.854   0.646
  112TIP3    H2  343   4.942   5.997   0.607
  113TIP3   OH2  344   5.949   5.650   1.816
  113TIP3    H1  345   6.042   5.658   1.795
  113TIP3    H2  346   5.907   5.637   1.731
  114TIP3   OH2  347   4.101   1.163   1.106
  114TIP3    H1  348   4.152   1.155   1.026
  114TIP3    H2  349   4.021   1.113   1.089
  115TIP3   OH2  350   3.221   2.697   3.677
  115TIP3    H1  351   3.265   2.743   3.748
  115TIP3    H2  352   3.136   2.672   3.713
  116TIP3   OH2  353   2.484   3.391   1.436
  116TIP3    H1  354   2.526   3.392   1.521
  116TIP3    H2  355   2.519   3.313   1.392
  117TIP3   OH2  356   1.180   4.515   4.919
  117TIP3    H1  357   1.276   4.520   4.911
  117TIP3    H2  358   1.164   4.520   5.013
  118TIP3   OH2  359   0.361   0.540   4.675
  118TIP3    H1  360   0.363   0.634   4.656
  118TIP3    H2  361   0.443   0.507   4.638
  119TIP3   OH2  362   1.461   4.918   2.416
  119TIP3    H1  363   1.455   4.825   2.393
  119TIP3    H2  364   1.371   4.947   2.426
  120TIP3   OH2  365   5.075   2.103   1.871
  120TIP3    H1  366   5.132   2.090   1.794
  120TIP3    H2  367   5.044   2.193   1.863
  121TIP3   OH2  368   5.226   5.971   3.566
  121TIP3    H1  369   5.289   6.018   3.621
  121TIP3    H2  370   5.264   5.974   3.478
  122TIP3   OH2  371   5.784  -0.036   1.301
  122TIP3    H1  372   5.715   0.020   1.265
  122TIP3    H2  373   5.856   0.024   1.320
  123TIP3   OH2  374   2.037   1.920   4.315
  123TIP3    H1  375   2.053   1.972   4.394
  123TIP3    H2  376   2.123   1.914   4.273
  124TIP3   OH2  377   6.163   4.709   2.575
  124TIP3    H1  378   6.086   4.761   2.552
  124TIP3    H2  379   6.128   4.623   2.598
  125TIP3   OH2  380   4.216   3.937   3.002
  125TIP3    H1  381   4.288   3.980   2.956
  125TIP3    H2  382   4.147   4.003   3.005
  126TIP3   OH2  383   2.280   0.017   3.549
  126TIP3    H1  384   2.196  -0.009   3.509
  126TIP3    H2  385   2.261   0.100   3.592
  127TIP3   OH2  386   6.071   3.917   3.543
  127TIP3    H1  387   6.048   3.825   3.539
  127TIP3    H2  388   6.158   3.922   3.504
  128TIP3   OH2  389   2.675   3.144   1.341
  128TIP3    H1  390   2.599   3.086   1.330
  128TIP3    H2  391   2.711   3.120   1.426
  129TIP3   OH2  392   3.854   0.565   2.782
  129TIP3    H1  393   3.798   0.493   2.754
  129TIP3    H2  394   3.795   0.626   2.825
  130TIP3   OH2  395   5.062   3.934   3.561
  130TIP3    H1  396   4.996   3.933   3.630
  130TIP3    H2  397   5.143   3.907   3.604
  131TIP3   OH2  398   4.055   5.860   0.501
  131TIP3    H1  399   4.090   5.863   0.411
  131TIP3    H2  400   4.113   5.918   0.551
  132TIP3   OH2  401   0.362   5.245   4.143
  132TIP3    H1  402   0.453   5.237   4.172
  132TIP3    H2  403   0.313   5.187   4.201
  133TIP3   OH2  404   2.343   1.895   2.632
  133TIP3    H1  405   2.394   1.899   2.713
  133TIP3    H2  406   2.402   1.859   2.567
  134TIP3   OH2  407   5.777   1.108   0.493
  134TIP3    H1  408   5.758   1.188   0.543
  134TIP3    H2  409   5.864   1.124   0.456
  135TIP3   OH2  410   2.592   0.162   2.227
  135TIP3    H1  411   2.514   0.159   2.172
  135TIP3    H2  412   2.578   0.093   2.292
  136TIP3   OH2  413   5.301   1.699   4.505
  136TIP3    H1  414   5.349   1.775   4.537
  136TIP3    H2  415   5.366   1.629   4.504
  137TIP3   OH2  416   1.739   3.108   3.468
  137TIP3    H1  417   1.670   3.173   3.455
  137TIP3    H2  418   1.720   3.070   3.554
  138TIP3   OH2  419   2.734   3.220   0.341
  138TIP3    H1  420   2.692   3.181   0.265
  138TIP3    H2  421   2.734   3.314   0.325
  139TIP3   OH2  422   5.481   0.095   2.951
  139TIP3    H1  423   5.524   0.052   2.877
  139TIP3    H2  424   5.425   0.161   2.910
  140TIP3   OH2  425   0.326   0.478   2.095
  140TIP3    H1  426   0.349   0.570   2.085
  140TIP3    H2  427   0.332   0.462   2.189
  141TIP3   OH2  428   3.509   5.666   3.407
  141TIP3    H1  429   3.498   5.761   3.404
  141TIP3    H2  430   3.571   5.647   3.337
  142TIP3   OH2  431   2.388   0.982   0.103
  142TIP3    H1  432   2.394   0.989   0.198
  142TIP3    H2  433   2.364   0.891   0.087
  143TIP3   OH2  434   4.836   0.429   1.260
  143TIP3    H1  435   4.907   0.483   1.225
  143TIP3    H2  436   4.840   0.348   1.211
  144TIP3   OH2  437   1.368   5.743   2.732
  144TIP3    H1  438   1.309   5.818   2.736
  144TIP3    H2  439   1.438   5.772   2.673
  145TIP3   OH2  440   3.802   3.211   0.655
  145TIP3    H1  441   3.841   3.130   0.688
  145TIP3    H2  442   3.856   3.281   0.692
  146TIP3   OH2  443   4.443   4.979   0.770
  146TIP3    H1  444   4.484   4.892   0.769
  146TIP3    H2  445   4.475   5.021   0.690
  147TIP3   OH2  446   5.637   2.396   4.837
  147TIP3    H1  447   5.584   2.419   4.913
  147TIP3    H2  448   5.651   2.302   4.845
  148TIP3   OH2  449   0.283   4.157   2.339
  148TIP3    H1  450   0.226   4.228   2.369
  148TIP3    H2  451   0.370   4.196   2.335
  149TIP3   OH2  452   6.080   2.524   3.646
  149TIP3    H1  453   6.109   2.607   3.684
  149TIP3    H2  454   6.074   2.465   3.720
  150TIP3   OH2  455   0.064   5.874   4.153
  150TIP3    H1  456   0.136   5.832   4.105
  150TIP3    H2  457   0.005   5.904   4.084
  151TIP3   OH2  458   1.262   5.890   2.196
  151TIP3    H1  459   1.333   5.909   2.134
  151TIP3    H2  460   1.200   5.837   2.146
  152TIP3   OH2  461   1.275   0.755   0.602
  152TIP3    H1  462   1.327   0.676   0.617
  152TIP3    H2  463   1.260   0.790   0.689
  153TIP3   OH2  464   1.311   4.685   0.123
  153TIP3    H1  465   1.227   4.664   0.081
  153TIP3    H2  466   1.372   4.619   0.087
  154TIP3   OH2  467   1.726   4.722   4.453
  154TIP3    H1  468   1.716   4.671   4.373
  154TIP3    H2  469   1.725   4.657   4.523
  155TIP3   OH2  470   3.622   4.224   1.447
  155TIP3    H1  471   3.694   4.190   1.501
  155TIP3    H2  472   3.544   4.180   1.481
  156TIP3   OH2  473   6.244   4.015   2.572
  156TIP3    H1  474   6.329   4.035   2.611
  156TIP3    H2  475   6.180   4.036   2.641
  157TIP3   OH2  476   0.823   3.154   2.546
  157TIP3    H1  477   0.744   3.117   2.585
  157TIP3    H2  478   0.828   3.115   2.459
  158TIP3   OH2  479   3.081   0.196   4.819
  158TIP3    H1  480   3.035   0.131   4.767
  158TIP3    H2  481   3.020   0.269   4.826
  159TIP3   OH2  482   5.183   2.014   3.402
  159TIP3    H1  483   5.089   2.001   3.386
  159TIP3    H2  484   5.190   2.106   3.426
  160TIP3   OH2  485   0.525   3.528   1.557
  160TIP3    H1  486   0.513   3.518   1.651
  160TIP3    H2  487   0.550   3.440   1.527
  161TIP3   OH2  488   3.314   0.213   2.056
  161TIP3    H1  489   3.244   0.153   2.031
  161TIP3    H2  490   3.381   0.201   1.987
  162TIP3   OH2  491   5.675   0.313   2.274
  162TIP3    H1  492   5.614   0.242   2.254
  162TIP3    H2  493   5.735   0.314   2.199
  163TIP3   OH2  494   3.046   2.497   3.306
  163TIP3    H1  495   3.099   2.574   3.326
  163TIP3    H2  496   3.102   2.423   3.328
  164TIP3   OH2  497   1.346   0.837   3.879
  164TIP3    H1  498   1.261   0.875   3.857
  164TIP3    H2  499   1.386   0.816   3.795
  165TIP3   OH2  500   2.655   0.461   2.112
  165TIP3    H1  501   2.729   0.470   2.173
  165TIP3    H2  502   2.631   0.368   2.118
  166TIP3   OH2  503   3.782   2.185   5.034
  166TIP3    H1  504   3.821   2.247   4.971
  166TIP3    H2  505   3.748   2.114   4.979
  167TIP3   OH2  506   3.128   0.202   4.086
  167TIP3    H1  507   3.201   0.255   4.055
  167TIP3    H2  508   3.110   0.235   4.174
  168TIP3   OH2  509   6.093   1.217   4.221
  168TIP3    H1  510   6.062   1.169   4.144
  168TIP3    H2  511   6.175   1.257   4.192
  169TIP3   OH2  512   4.397   1.196   3.566
  169TIP3    H1  513   4.439   1.149   3.494
  169TIP3    H2  514   4.463   1.259   3.594
  170TIP3   OH2  515   6.261   4.172   4.532
  170TIP3    H1  516   6.333   4.180   4.594
  170TIP3    H2  517   6.199   4.113   4.575
  171TIP3   OH2  518   3.378   5.058   0.761
  171TIP3    H1  519   3.446   5.126   0.768
  171TIP3    H2  520   3.419   4.980   0.797
  172TIP3   OH2  521   2.153   3.714   3.859
  172TIP3    H1  522   2.185   3.783   3.802
  172TIP3    H2  523   2.067   3.690   3.824
  173TIP3   OH2  524   0.022   5.460   1.805
  173TIP3    H1  525   0.053   5.371   1.789
  173TIP3    H2  526   0.070   5.489   1.883
  174TIP3   OH2  527   3.563   0.027   0.563
  174TIP3    H1  528   3.647   0.043   0.607
  174TIP3    H2  529   3.516   0.110   0.570
  175TIP3   OH2  530   2.086   0.665   5.038
  175TIP3    H1  531   2.048   0.659   5.126
  175TIP3    H2  532   2.174   0.630   5.047
  176TIP3   OH2  533   3.658   2.462   1.389
  176TIP3    H1  534   3.662   2.533   1.453
  176TIP3    H2  535   3.747   2.427   1.387
  177TIP3   OH2  536   5.223   4.290   0.380
  177TIP3    H1  537   5.134   4.325   0.382
  177TIP3    H2  538   5.241   4.265   0.470
  178TIP3   OH2  539   1.027   3.110   4.004
  178TIP3    H1  540   1.071   3.070   3.929
  178TIP3    H2  541   0.993   3.193   3.971
  179TIP3   OH2  542   5.766   4.952   1.616
  179TIP3    H1  543   5.805   5.010   1.550
  179TIP3    H2  544   5.798   4.987   1.700
  180TIP3   OH2  545   2.244   5.817   0.404
  180TIP3    H1  546   2.334   5.844   0.386
  180TIP3    H2  547   2.238   5.727   0.374
  181TIP3   OH2  548   5.380   4.573   3.273
  181TIP3    H1  549   5.293   4.565   3.311
  181TIP3    H2  550   5.375   4.651   3.217
  182TIP3   OH2  551   3.031   4.626   0.134
  182TIP3    H1  552   2.965   4.585   0.078
  182TIP3    H2  553   3.043   4.713   0.095
  183TIP3   OH2  554   5.960   5.645   0.186
  183TIP3    H1  555   6.036   5.587   0.192
  183TIP3    H2  556   5.994   5.725   0.146
  184TIP3   OH2  557   0.819   5.219   0.114
  184TIP3    H1  558   0.772   5.239   0.033
  184TIP3    H2  559   0.894   5.278   0.113
  185TIP3   OH2  560   2.718   1.310   5.057
  185TIP3    H1  561   2.732   1.368   4.982
  185TIP3    H2  562   2.807   1.293   5.090
  186TIP3   OH2  563   3.521   5.366   2.368
  186TIP3    H1  564   3.458   5.428   2.331
  186TIP3    H2  565   3.597   5.370   2.309
  187TIP3   OH2  566   5.988   0.576   0.475
  187TIP3    H1  567   6.034   0.555   0.556
  187TIP3    H2  568   6.019   0.663   0.451
  188TIP3   OH2  569   1.334   4.235   2.766
  188TIP3    H1  570   1.304   4.181   2.693
  188TIP3    H2  571   1.358   4.319   2.727
  189TIP3   OH2  572   2.319   1.107   1.044
  189TIP3    H1  573   2.399   1.108   0.992
  189TIP3    H2  574   2.265   1.177   1.007
  190TIP3   OH2  575   4.365   0.259   0.662
  190TIP3    H1  576   4.360   0.199   0.588
  190TIP3    H2  577   4.343   0.205   0.738
  191TIP3   OH2  578   5.984   2.041   3.638
  191TIP3    H1  579   6.043   1.983   3.687
  191TIP3    H2  580   5.896   2.014   3.663
  192TIP3   OH2  581   5.780   0.684   3.222
  192TIP3    H1  582   5.852   0.683   3.160
  192TIP3    H2  583   5.703   0.658   3.170
  193TIP3   OH2  584   2.378   2.269   0.188
  193TIP3    H1  585   2.403   2.359   0.167
  193TIP3    H2  586   2.458   2.230   0.223
  194TIP3   OH2  587   5.971   0.635   3.008
  194TIP3    H1  588   5.990   0.599   2.922
  194TIP3    H2  589   6.009   0.723   3.006
  195TIP3   OH2  590   4.128   2.545   0.307
  195TIP3    H1  591   4.208   2.493   0.320
  195TIP3    H2  592   4.068   2.485   0.262
  196TIP3   OH2  593   3.839   5.334   4.314
  196TIP3    H1  594   3.778   5.262   4.304
  196TIP3    H2  595   3.925   5.297   4.293
  197TIP3   OH2  596   3.864   4.867   0.873
  197TIP3    H1  597   3.866   4.961   0.855
  197TIP3    H2  598   3.875   4.826   0.788
  198TIP3   OH2  599   1.571   0.327   1.910
  198TIP3    H1  600   1.487   0.362   1.941
  198TIP3    H2  601   1.599   0.390   1.843
  199TIP3   OH2  602   2.085   4.064   3.451
  199TIP3    H1  603   2.124   4.113   3.524
  199TIP3    H2  604   2.075   3.975   3.484
  200TIP3   OH2  605   5.857   5.088   1.839
  200TIP3    H1  606   5.896   5.175   1.842
  200TIP3    H2  607   5.790   5.089   1.907
  201TIP3   OH2  608   5.303   3.047   3.307
  201TIP3    H1  609   5.243   2.986   3.263
  201TIP3    H2  610   5.252   3.127   3.318
  202TIP3   OH2  611   2.420   5.876   3.271
  202TIP3    H1  612   2.444   5.968   3.260
  202TIP3    H2  613   2.467   5.847   3.349
  203TIP3   OH2  614   2.253   2.523   4.453
  203TIP3    H1  615   2.338   2.535   4.410
  203TIP3    H2  616   2.274   2.474   4.533
  204TIP3   OH2  617   0.811   4.253   2.431
  204TIP3    H1  618   0.849   4.332   2.392
  204TIP3    H2  619   0.849   4.249   2.519
  205TIP3   OH2  620   4.690   0.720   1.690
  205TIP3    H1  621   4.721   0.656   1.625
  205TIP3    H2  622   4.736   0.697   1.770
  206TIP3   OH2  623   1.834   2.598   4.143
  206TIP3    H1  624   1.872   2.614   4.056
  206TIP3    H2  625   1.830   2.503   4.150
  207TIP3   OH2  626   2.084   1.521   0.212
  207TIP3    H1  627   2.010   1.523   0.274
  207TIP3    H2  628   2.133   1.601   0.231
  208TIP3   OH2  629   3.222   2.701   3.384
  208TIP3    H1  630   3.318   2.693   3.390
  208TIP3    H2  631   3.192   2.697   3.475
  209TIP3   OH2  632   2.943   5.674   3.427
  209TIP3    H1  633   3.021   5.713   3.387
  209TIP3    H2  634   2.933   5.591   3.381
  210TIP3   OH2  635   4.243   3.649   2.829
  210TIP3    H1  636   4.191   3.661   2.908
  210TIP3    H2  637   4.274   3.559   2.834
  211TIP3   OH2  638   6.204   3.386   1.382
  211TIP3    H1  639   6.167   3.357   1.466
  211TIP3    H2  640   6.223   3.479   1.395
  212TIP3   OH2  641   2.764   3.835   1.177
  212TIP3    H1  642   2.798   3.876   1.256
  212TIP3    H2  643   2.832   3.852   1.111
  213TIP3   OH2  644   2.627   1.429   4.819
  213TIP3    H1  645   2.576   1.472   4.751
  213TIP3    H2  646   2.610   1.335   4.805
  214TIP3   OH2  647   3.001   3.585   3.028
  214TIP3    H1  648   2.946   3.527   3.081
  214TIP3    H2  649   3.082   3.537   3.016
  215TIP3   OH2  650   6.090   3.173   3.378
  215TIP3    H1  651   6.074   3.092   3.426
  215TIP3    H2  652   6.183   3.171   3.356
  216TIP3   OH2  653   3.857   0.948   1.690
  216TIP3    H1  654   3.780   0.923   1.639
  216TIP3    H2  655   3.842   0.912   1.777
  217TIP3   OH2  656   4.312   2.021   0.857
  217TIP3    H1  657   4.297   1.931   0.887
  217TIP3    H2  658   4.366   2.012   0.778
  218TIP3   OH2  659   2.078   3.348   2.435
  218TIP3    H1  660   2.000   3.395   2.462
  218TIP3    H2  661   2.148   3.413   2.440
  219TIP3   OH2  662   3.235   4.206   0.844
  219TIP3    H1  663   3.276   4.120   0.834
  219TIP3    H2  664   3.161   4.190   0.903
  220TIP3   OH2  665   5.573   4.539   3.675
  220TIP3    H1  666   5.610   4.467   3.624
  220TIP3    H2  667   5.490   4.505   3.708
  221TIP3   OH2  668   4.859   4.101   2.062
  221TIP3    H1  669   4.768   4.129   2.072
  221TIP3    H2  670   4.881   4.058   2.145
  222TIP3   OH2  671   5.438   3.667   1.522
  222TIP3    H1  672   5.384   3.722   1.466
  222TIP3    H2  673   5.479   3.605   1.462
  223TIP3   OH2  674   5.569   1.967   4.310
  223TIP3    H1  675   5.647   1.914   4.291
  223TIP3    H2  676   5.561   1.964   4.406
  224TIP3   OH2  677   3.738   1.913   1.036
  224TIP3    H1  678   3.769   1.981   1.096
  224TIP3    H2  679   3.646   1.934   1.022
  225TIP3   OH2  680   5.082   3.425   0.511
  225TIP3    H1  681   5.082   3.511   0.553
  225TIP3    H2  682   5.045   3.366   0.577
  226TIP3   OH2  683   5.003   4.816   4.567
  226TIP3    H1  684   4.955   4.890   4.604
  226TIP3    H2  685   4.936   4.751   4.547
  227TIP3   OH2  686   1.798   2.383   2.737
  227TIP3    H1  687   1.756   2.320   2.678
  227TIP3    H2  688   1.772   2.468   2.703
  228TIP3   OH2  689   4.138   0.751   4.149
  228TIP3    H1  690   4.134   0.742   4.054
  228TIP3    H2  691   4.087   0.678   4.183
  229TIP3   OH2  692   3.804   3.474   3.045
  229TIP3    H1  693   3.761   3.424   2.975
  229TIP3    H2  694   3.766   3.439   3.126
  230TIP3   OH2  695   0.533   2.091   1.009
  230TIP3    H1  696   0.487   2.176   1.006
  230TIP3    H2  697   0.563   2.077   0.919
  231TIP3   OH2  698   4.852   4.796   3.237
  231TIP3    H1  699   4.944   4.804   3.260
  231TIP3    H2  700   4.812   4.748   3.310
  232TIP3   OH2  701   2.479   2.655   1.695
  232TIP3    H1  702   2.536   2.638   1.621
  232TIP3    H2  703   2.530   2.628   1.772
  233TIP3   OH2  704   4.929   5.305   1.159
  233TIP3    H1  705   5.021   5.330   1.164
  233TIP3    H2  706   4.926   5.235   1.093
  234TIP3   OH2  707   2.548   4.413   4.437
  234TIP3    H1  708   2.524   4.349   4.370
  234TIP3    H2  709   2.518   4.497   4.402
  235TIP3   OH2  710   6.355   3.619   4.511
  235TIP3    H1  711   6.415   3.687   4.479
  235TIP3    H2  712   6.284   3.668   4.552
  236TIP3   OH2  713   2.904   5.104   1.184
  236TIP3    H1  714   2.976   5.050   1.151
  236TIP3    H2  715   2.887   5.070   1.272
  237TIP3   OH2  716   4.582   0.641   0.710
  237TIP3    H1  717   4.579   0.568   0.648
  237TIP3    H2  718   4.675   0.658   0.723
  238TIP3   OH2  719   6.039   5.224   2.857
  238TIP3    H1  720   5.993   5.140   2.855
  238TIP3    H2  721   5.973   5.288   2.831
  239TIP3   OH2  722   1.058   5.878   3.567
  239TIP3    H1  723   1.023   5.900   3.481
  239TIP3    H2  724   1.115   5.952   3.589
  240TIP3   OH2  725   4.349   2.141   1.972
  240TIP3    H1  726   4.389   2.074   1.916
  240TIP3    H2  727   4.357   2.105   2.061
  241TIP3   OH2  728   3.416   4.030   3.489
  241TIP3    H1  729   3.405   4.071   3.575
  241TIP3    H2  730   3.464   3.949   3.508
  242TIP3   OH2  731   1.841   4.878   2.844
  242TIP3    H1  732   1.935   4.896   2.839
  242TIP3    H2  733   1.834   4.784   2.825
  243TIP3   OH2  734   4.107   4.582   1.605
  243TIP3    H1  735   4.199   4.609   1.604
  243TIP3    H2  736   4.063   4.649   1.657
  244TIP3   OH2  737   3.938   2.720   3.234
  244TIP3    H1  738   3.917   2.641   3.283
  244TIP3    H2  739   3.939   2.693   3.142
  245TIP3   OH2  740   2.819   2.000   3.250
  245TIP3    H1  741   2.752   2.064   3.228
  245TIP3    H2  742   2.805   1.982   3.343
  246TIP3   OH2  743   1.202   5.056   3.238
  246TIP3    H1  744   1.260   5.044   3.313
  246TIP3    H2  745   1.257   5.097   3.171
  247TIP3   OH2  746   4.119   3.084   2.592
  247TIP3    H1  747   4.035   3.129   2.589
  247TIP3    H2  748   4.097   2.992   2.602
  248TIP3   OH2  749   3.543   4.898   1.656
  248TIP3    H1  750   3.620   4.917   1.710
  248TIP3    H2  751   3.556   4.952   1.578
  249TIP3   OH2  752   5.359   1.608   1.072
  249TIP3    H1  753   5.409   1.526   1.077
  249TIP3    H2  754   5.276   1.589   1.115
  250TIP3   OH2  755   3.308   5.182   1.007
  250TIP3    H1  756   3.292   5.152   0.917
  250TIP3    H2  757   3.283   5.275   1.006
  251TIP3   OH2  758   5.110   5.009   1.084
  251TIP3    H1  759   5.059   5.024   1.004
  251TIP3    H2  760   5.045   4.995   1.152
  252TIP3   OH2  761   5.387   4.742   3.954
  252TIP3    H1  762   5.296   4.716   3.939
  252TIP3    H2  763   5.412   4.789   3.875
  253TIP3   OH2  764   2.326   4.050   4.425
  253TIP3    H1  765   2.376   4.110   4.370
  253TIP3    H2  766   2.389   3.984   4.452
  254TIP3   OH2  767   1.499   4.206   1.156
  254TIP3    H1  768   1.581   4.253   1.141
  254TIP3    H2  769   1.431   4.264   1.121
  255TIP3   OH2  770   3.826   3.228   4.088
  255TIP3    H1  771   3.849   3.293   4.021
  255TIP3    H2  772   3.835   3.144   4.044
  256TIP3   OH2  773   2.229   0.778   4.103
  256TIP3    H1  774   2.151   0.729   4.132
  256TIP3    H2  775   2.199   0.868   4.094
  257TIP3   OH2  776   0.752   1.945   2.071
  257TIP3    H1  777   0.741   1.918   1.980
  257TIP3    H2  778   0.841   1.918   2.093
  258TIP3   OH2  779   4.829   1.281   1.661
  258TIP3    H1  780   4.834   1.186   1.670
  258TIP3    H2  781   4.744   1.297   1.619
  259TIP3   OH2  782   5.801   0.354   3.405
  259TIP3    H1  783   5.815   0.373   3.313
  259TIP3    H2  784   5.710   0.325   3.411
  260TIP3   OH2  785   0.720   1.172   4.002
  260TIP3    H1  786   0.749   1.262   4.017
  260TIP3    H2  787   0.626   1.178   3.992
  261TIP3   OH2  788   1.514   5.224   2.623
  261TIP3    H1  789   1.567   5.203   2.545
  261TIP3    H2  790   1.518   5.145   2.677
  262TIP3   OH2  791   2.341   4.028   4.062
  262TIP3    H1  792   2.253   3.996   4.043
  262TIP3    H2  793   2.376   3.966   4.126
  263TIP3   OH2  794   3.979   3.806   3.342
  263TIP3    H1  795   3.979   3.817   3.437
  263TIP3    H2  796   3.985   3.895   3.308
  264TIP3   OH2  797   0.543   1.533   4.673
  264TIP3    H1  798   0.572   1.621   4.651
  264TIP3    H2  799   0.589   1.477   4.609
  265TIP3   OH2  800   4.649   2.880   1.575
  265TIP3    H1  801   4.577   2.891   1.636
  265TIP3    H2  802   4.727   2.876   1.630
  266TIP3   OH2  803   0.956   0.740   0.499
  266TIP3    H1  804   0.904   0.784   0.431
  266TIP3    H2  805   1.047   0.762   0.478
  267TIP3   OH2  806   4.309   0.541   1.340
  267TIP3    H1  807   4.358   0.474   1.293
  267TIP3    H2  808   4.299   0.506   1.429
  268TIP3   OH2  809   3.120   0.954   3.259
  268TIP3    H1  810   3.065   0.928   3.185
  268TIP3    H2  811   3.120   0.878   3.317
  269TIP3   OH2  812   4.052   2.431   3.726
  269TIP3    H1  813   4.084   2.518   3.702
  269TIP3    H2  814   4.131   2.384   3.755
  270TIP3   OH2  815   5.780   4.775   3.116
  270TIP3    H1  816   5.709   4.734   3.067
  270TIP3    H2  817   5.780   4.866   3.086
  271TIP3   OH2  818   5.481   0.802   0.299
  271TIP3    H1  819   5.411   0.819   0.236
  271TIP3    H2  820   5.483   0.707   0.308
  272TIP3   OH2  821   1.462   3.976   4.406
  272TIP3    H1  822   1.458   4.035   4.331
  272TIP3    H2  823   1.513   3.901   4.375
  273TIP3   OH2  824   6.278   1.456   5.162
  273TIP3    H1  825   6.340   1.394   5.124
  273TIP3    H2  826   6.192   1.424   5.135
  274TIP3   OH2  827   2.298   0.450   4.973
  274TIP3    H1  828   2.343   0.376   5.016
  274TIP3    H2  829   2.246   0.409   4.904
  275TIP3   OH2  830   0.580   5.586   4.679
  275TIP3    H1  831   0.546   5.608   4.766
  275TIP3    H2  832   0.664   5.543   4.697
  276TIP3   OH2  833   4.621   4.155   3.844
  276TIP3    H1  834   4.638   4.128   3.934
  276TIP3    H2  835   4.572   4.238   3.853
  277TIP3   OH2  836   0.315   4.898   4.128
  277TIP3    H1  837   0.370   4.932   4.198
  277TIP3    H2  838   0.264   4.973   4.098
  278TIP3   OH2  839   2.590   4.328   1.891
  278TIP3    H1  840   2.674   4.373   1.897
  278TIP3    H2  841   2.568   4.331   1.797
  279TIP3   OH2  842   4.462   1.504   2.367
  279TIP3    H1  843   4.395   1.570   2.381
  279TIP3    H2  844   4.543   1.554   2.357
  280TIP3   OH2  845   0.975   1.873   0.385
  280TIP3    H1  846   0.933   1.958   0.378
  280TIP3    H2  847   1.021   1.875   0.469
  281TIP3   OH2  848   3.723   4.308   4.718
  281TIP3    H1  849   3.666   4.385   4.724
  281TIP3    H2  850   3.682   4.252   4.652
  282TIP3   OH2  851   1.152   3.170   4.242
  282TIP3    H1  852   1.119   3.151   4.154
  282TIP3    H2  853   1.074   3.188   4.294
  283TIP3   OH2  854   0.646   2.919   4.895
  283TIP3    H1  855   0.577   2.858   4.921
  283TIP3    H2  856   0.671   2.965   4.975
  284TIP3   OH2  857   1.237   0.983   0.033
  284TIP3    H1  858   1.299   1.054   0.047
  284TIP3    H2  859   1.157   1.012   0.077
  285TIP3   OH2  860   5.085   3.486   2.621
  285TIP3    H1  861   5.146   3.508   2.551
  285TIP3    H2  862   5.128   3.516   2.701
  286TIP3   OH2  863   3.903   1.271   2.497
  286TIP3    H1  864   3.841   1.335   2.532
  286TIP3    H2  865   3.963   1.323   2.443
  287TIP3   OH2  866   4.736   5.655   2.984
  287TIP3    H1  867   4.776   5.739   2.962
  287TIP3    H2  868   4.733   5.653   3.079
  288TIP3   OH2  869   5.765   2.049   0.690
  288TIP3    H1  870   5.786   1.983   0.756
  288TIP3    H2  871   5.686   2.016   0.647
  289TIP3   OH2  872   5.021   2.104   0.913
  289TIP3    H1  873   5.093   2.085   0.973
  289TIP3    H2  874   5.011   2.200   0.918
  290TIP3   OH2  875   1.467   1.228   3.078
  290TIP3    H1  876   1.539   1.256   3.021
  290TIP3    H2  877   1.475   1.285   3.155
  291TIP3   OH2  878   2.756   0.122   0.880
  291TIP3    H1  879   2.662   0.121   0.866
  291TIP3    H2  880   2.774   0.040   0.927
  292TIP3   OH2  881   4.750   4.318   0.201
  292TIP3    H1  882   4.674   4.261   0.198
  292TIP3    H2  883   4.801   4.295   0.123
  293TIP3   OH2  884   0.957   3.643   3.560
  293TIP3    H1  885   1.044   3.682   3.567
  293TIP3    H2  886   0.967   3.575   3.494
  294TIP3   OH2  887   3.782   5.225   2.565
  294TIP3    H1  888   3.757   5.314   2.542
  294TIP3    H2  889   3.792   5.181   2.480
  295TIP3   OH2  890   6.142   2.027   4.102
  295TIP3    H1  891   6.092   2.108   4.107
  295TIP3    H2  892   6.202   2.032   4.176
  296TIP3   OH2  893   0.352   4.382   3.743
  296TIP3    H1  894   0.408   4.424   3.678
  296TIP3    H2  895   0.271   4.362   3.696
  297TIP3   OH2  896   1.061   2.712   0.309
  297TIP3    H1  897   1.156   2.698   0.300
  297TIP3    H2  898   1.048   2.716   0.404
  298TIP3   OH2  899   1.065   1.659   1.119
  298TIP3    H1  900   1.067   1.753   1.100
  298TIP3    H2  901   1.148   1.643   1.165
  299TIP3   OH2  902   1.192   3.376   0.547
  299TIP3    H1  903   1.249   3.393   0.472
  299TIP3    H2  904   1.167   3.463   0.579
  300TIP3   OH2  905   3.775   4.209   0.918
  300TIP3    H1  906   3.868   4.188   0.917
  300TIP3    H2  907   3.738   4.152   0.986
  301TIP3   OH2  908   3.157   5.623   3.008
  301TIP3    H1  909   3.200   5.692   3.059
  301TIP3    H2  910   3.099   5.671   2.948
  302TIP3   OH2  911   3.365   5.325   3.758
  302TIP3    H1  912   3.388   5.288   3.673
  302TIP3    H2  913   3.310   5.401   3.737
  303TIP3   OH2  914   1.935   5.774   4.728
  303TIP3    H1  915   1.960   5.774   4.820
  303TIP3    H2  916   1.995   5.836   4.687
  304TIP3   OH2  917   1.368   4.692   4.603
  304TIP3    H1  918   1.326   4.648   4.529
  304TIP3    H2  919   1.297   4.712   4.663
  305TIP3   OH2  920   3.952   3.874   0.950
  305TIP3    H1  921   3.928   3.907   0.864
  305TIP3    H2  922   3.935   3.780   0.946
  306TIP3   OH2  923   5.413   4.135   2.925
  306TIP3    H1  924   5.334   4.082   2.925
  306TIP3    H2  925   5.462   4.105   2.848
  307TIP3   OH2  926   2.428   1.894   4.828
  307TIP3    H1  927   2.346   1.850   4.849
  307TIP3    H2  928   2.404   1.987   4.824
  308TIP3   OH2  929   3.415   5.895   3.846
  308TIP3    H1  930   3.458   5.890   3.931
  308TIP3    H2  931   3.487   5.891   3.782
  309TIP3   OH2  932   3.430   4.838   2.120
  309TIP3    H1  933   3.358   4.888   2.159
  309TIP3    H2  934   3.401   4.747   2.122
  310TIP3   OH2  935   1.224   0.296   4.137
  310TIP3    H1  936   1.242   0.314   4.229
  310TIP3    H2  937   1.167   0.368   4.109
  311TIP3   OH2  938   0.139   0.129   1.614
  311TIP3    H1  939   0.183   0.182   1.680
  311TIP3    H2  940   0.201   0.126   1.541
  312TIP3   OH2  941   1.164   4.941   1.673
  312TIP3    H1  942   1.122   4.936   1.587
  312TIP3    H2  943   1.251   4.902   1.658
  313TIP3   OH2  944   4.098   0.430   4.817
  313TIP3    H1  945   4.113   0.489   4.891
  313TIP3    H2  946   4.015   0.459   4.779
  314TIP3   OH2  947   1.646   1.306   2.071
  314TIP3    H1  948   1.730   1.307   2.026
  314TIP3    H2  949   1.635   1.215   2.099
  315TIP3   OH2  950   0.145   1.656   0.130
  315TIP3    H1  951   0.220   1.673   0.187
  315TIP3    H2  952   0.162   1.570   0.093
  316TIP3   OH2  953   1.613   4.510   1.291
  316TIP3    H1  954   1.660   4.442   1.243
  316TIP3    H2  955   1.662   4.519   1.373
  317TIP3   OH2  956   4.892   3.928   5.033
  317TIP3    H1  957   4.928   4.003   4.986
  317TIP3    H2  958   4.839   3.882   4.968
  318TIP3   OH2  959   2.184   5.685   2.564
  318TIP3    H1  960   2.111   5.624   2.565
  318TIP3    H2  961   2.147   5.767   2.531
  319TIP3   OH2  962   1.226   5.035   2.742
  319TIP3    H1  963   1.140   4.993   2.748
  319TIP3    H2  964   1.222   5.087   2.662
  320TIP3   OH2  965   1.540   1.559   5.039
  320TIP3    H1  966   1.516   1.527   5.126
  320TIP3    H2  967   1.635   1.572   5.044
  321TIP3   OH2  968   6.022   0.454   4.097
  321TIP3    H1  969   5.995   0.518   4.162
  321TIP3    H2  970   5.955   0.460   4.029
  322TIP3   OH2  971   2.256   0.705   0.499
  322TIP3    H1  972   2.267   0.616   0.530
  322TIP3    H2  973   2.236   0.756   0.577
  323TIP3   OH2  974   1.828   0.940   3.689
  323TIP3    H1  975   1.781   0.991   3.755
  323TIP3    H2  976   1.891   1.001   3.652
  324TIP3   OH2  977   6.277   5.365   0.654
  324TIP3    H1  978   6.274   5.453   0.691
  324TIP3    H2  979   6.369   5.354   0.627
  325TIP3   OH2  980   4.955   4.309   0.395
  325TIP3    H1  981   4.900   4.319   0.317
  325TIP3    H2  982   4.929   4.381   0.452
  326TIP3   OH2  983   0.859   2.439   3.661
  326TIP3    H1  984   0.791   2.484   3.711
  326TIP3    H2  985   0.941   2.479   3.691
  327TIP3   OH2  986   2.269   3.335   4.948
  327TIP3    H1  987   2.285   3.371   4.860
  327TIP3    H2  988   2.305   3.247   4.945
  328TIP3   OH2  989   6.027   1.107   0.990
  328TIP3    H1  990   6.002   1.016   1.009
  328TIP3    H2  991   5.979   1.128   0.909
  329TIP3   OH2  992   3.096   2.984   0.505
  329TIP3    H1  993   3.077   3.055   0.566
  329TIP3    H2  994   3.187   2.959   0.523
  330TIP3   OH2  995   2.538   3.608   3.721
  330TIP3    H1  996   2.495   3.684   3.682
  330TIP3    H2  997   2.504   3.533   3.672
  331TIP3   OH2  998   3.631   4.488   4.029
  331TIP3    H1  999   3.580   4.528   3.959
  331TIP3    H2 1000   3.590   4.520   4.109
  332TIP3   OH2 1001   3.538   3.107   0.641
  332TIP3    H1 1002   3.632   3.113   0.653
  332TIP3    H2 1003   3.520   3.013   0.632
  333TIP3   OH2 1004   3.931   0.472   1.500
  333TIP3    H1 1005   3.927   0.380   1.474
  333TIP3    H2 1006   3.845   0.490   1.537
  334TIP3   OH2 1007   0.787   5.505   0.612
  334TIP3    H1 1008   0.834   5.421   0.612
  334TIP3    H2 1009   0.719   5.494   0.545
  335TIP3   OH2 1010   5.135   5.953   2.946
  335TIP3    H1 1011   5.166   6.040   2.970
  335TIP3    H2 1012   5.210   5.912   2.903
  336TIP3   OH2 1013   3.536   4.917   3.836
  336TIP3    H1 1014   3.629   4.922   3.855
  336TIP3    H2 1015   3.516   4.824   3.835
  337TIP3   OH2 1016   0.963   3.687   0.567
  337TIP3    H1 1017   1.046   3.730   0.587
  337TIP3    H2 1018   0.900   3.758   0.560
  338TIP3   OH2 1019   4.324   3.268   4.597
  338TIP3    H1 1020   4.293   3.229   4.679
  338TIP3    H2 1021   4.252   3.324   4.568
  339TIP3   OH2 1022   2.998   0.251   3.324
  339TIP3    H1 1023   2.931   0.191   3.290
  339TIP3    H2 1024   3.042   0.202   3.393
  340TIP3   OH2 1025   6.238   0.138   1.818
  340TIP3    H1 1026   6.306   0.077   1.790
  340TIP3    H2 1027   6.166   0.125   1.757
  341TIP3   OH2 1028   1.495   1.188   3.947
  341TIP3    H1 1029   1.471   1.199   3.855
  341TIP3    H2 1030   1.558   1.116   3.947
  342TIP3   OH2 1031   4.503   5.484   4.333
  342TIP3    H1 1032   4.544   5.456   4.251
  342TIP3    H2 1033   4.566   5.461   4.401
  343TIP3   OH2 1034   4.631   0.979   4.446
  343TIP3    H1 1035   4.651   1.050   4.385
  343TIP3    H2 1036   4.542   0.999   4.477
  344TIP3   OH2 1037   5.832   2.217   3.506
  344TIP3    H1 1038   5.875   2.142   3.546
  344TIP3    H2 1039   5.742   2.187   3.489
  345TIP3   OH2 1040   5.159   3.902   4.705
  345TIP3    H1 1041   5.194   3.817   4.734
  345TIP3    H2 1042   5.186   3.963   4.774
  346TIP3   OH2 1043   6.386   2.904   0.888
  346TIP3    H1 1044   6.320   2.838   0.906
  346TIP3    H2 1045   6.341   2.971   0.837
  347TIP3   OH2 1046   6.289   5.030   4.042
  347TIP3    H1 1047   6.240   5.035   4.124
  347TIP3    H2 1048   6.257   5.104   3.991
  348TIP3   OH2 1049   4.949   1.867   3.341
  348TIP3    H1 1050   4.872   1.862   3.398
  348TIP3    H2 1051   5.000   1.789   3.362
  349TIP3   OH2 1052   5.797   0.438   4.856
  349TIP3    H1 1053   5.779   0.459   4.764
  349TIP3    H2 1054   5.892   0.425   4.859
  350TIP3   OH2 1055   1.171   5.684   2.029
  350TIP3    H1 1056   1.089   5.687   1.979
  350TIP3    H2 1057   1.229   5.631   1.974
  351TIP3   OH2 1058   3.075   2.713   0.446
  351TIP3    H1 1059   2.987   2.702   0.409
  351TIP3    H2 1060   3.085   2.807   0.456
  352TIP3   OH2 1061   4.450   5.784   1.089
  352TIP3    H1 1062   4.537   5.824   1.088
  352TIP3    H2 1063   4.466   5.691   1.076
  353TIP3   OH2 1064   4.283   0.943   1.920
  353TIP3    H1 1065   4.367   0.903   1.942
  353TIP3    H2 1066   4.224   0.869   1.908
  354TIP3   OH2 1067   4.088   4.984   4.591
  354TIP3    H1 1068   4.103   4.987   4.686
  354TIP3    H2 1069   4.129   5.063   4.557
  355TIP3   OH2 1070   2.123   4.384   2.768
  355TIP3    H1 1071   2.147   4.429   2.849
  355TIP3    H2 1072   2.100   4.296   2.796
  356TIP3   OH2 1073   3.500   1.070   2.604
  356TIP3    H1 1074   3.591   1.071   2.634
  356TIP3    H2 1075   3.502   1.112   2.518
  357TIP3   OH2 1076   3.734   0.076   2.952
  357TIP3    H1 1077   3.793   0.023   2.899
  357TIP3    H2 1078   3.660   0.019   2.971
  358TIP3   OH2 1079   3.647   4.447   0.440
  358TIP3    H1 1080   3.659   4.425   0.347
  358TIP3    H2 1081   3.571   4.506   0.441
  359TIP3   OH2 1082   5.055   0.823   3.078
  359TIP3    H1 1083   5.079   0.902   3.127
  359TIP3    H2 1084   4.970   0.797   3.115
  360TIP3   OH2 1085   2.309   1.894   1.564
  360TIP3    H1 1086   2.224   1.940   1.561
  360TIP3    H2 1087   2.335   1.887   1.472
  361TIP3   OH2 1088   3.251   1.839   0.287
  361TIP3    H1 1089   3.299   1.814   0.208
  361TIP3    H2 1090   3.248   1.935   0.283
  362TIP3   OH2 1091   3.712   0.883   2.239
  362TIP3    H1 1092   3.759   0.923   2.166
  362TIP3    H2 1093   3.663   0.812   2.199
  363TIP3   OH2 1094   5.293   1.170   4.692
  363TIP3    H1 1095   5.351   1.101   4.727
  363TIP3    H2 1096   5.212   1.124   4.672
  364TIP3   OH2 1097   1.676   1.094   3.437
  364TIP3    H1 1098   1.745   1.040   3.398
  364TIP3    H2 1099   1.704   1.184   3.422
  365TIP3   OH2 1100   0.681   1.492   0.171
  365TIP3    H1 1101   0.717   1.460   0.088
  365TIP3    H2 1102   0.749   1.549   0.205
  366TIP3   OH2 1103   2.829   3.460   2.696
  366TIP3    H1 1104   2.775   3.424   2.626
  366TIP3    H2 1105   2.768   3.475   2.769
  367TIP3   OH2 1106   0.906   1.411   2.768
  367TIP3    H1 1107   0.970   1.461   2.718
  367TIP3    H2 1108   0.957   1.372   2.839
  368TIP3   OH2 1109   1.754   3.018   2.758
  368TIP3    H1 1110   1.767   3.051   2.669
  368TIP3    H2 1111   1.835   2.973   2.780
  369TIP3   OH2 1112   5.566   1.953   4.610
  369TIP3    H1 1113   5.600   1.902   4.683
  369TIP3    H2 1114   5.518   2.025   4.651
  370TIP3   OH2 1115   5.959   5.549   4.479
  370TIP3    H1 1116   5.869   5.544   4.449
  370TIP3    H2 1117   6.000   5.614   4.422
  371TIP3   OH2 1118   1.649   0.680   3.824
  371TIP3    H1 1119   1.584   0.691   3.755
  371TIP3    H2 1120   1.673   0.769   3.849
  372TIP3   OH2 1121   5.281   2.076   3.084
  372TIP3    H1 1122   5.220   2.023   3.034
  372TIP3    H2 1123   5.308   2.019   3.157
  373TIP3   OH2 1124   3.459   4.660   5.116
  373TIP3    H1 1125   3.499   4.593   5.171
  373TIP3    H2 1126   3.396   4.705   5.173
  374TIP3   OH2 1127   2.289   0.811   1.189
  374TIP3    H1 1128   2.327   0.814   1.277
  374TIP3    H2 1129   2.268   0.902   1.169
  375TIP3   OH2 1130   1.253   4.236   4.545
  375TIP3    H1 1131   1.255   4.140   4.539
  375TIP3    H2 1132   1.300   4.256   4.625
  376TIP3   OH2 1133   5.239   5.506   3.963
  376TIP3    H1 1134   5.267   5.420   3.996
  376TIP3    H2 1135   5.317   5.561   3.969
  377TIP3   OH2 1136   5.791   3.461   4.396
  377TIP3    H1 1137   5.855   3.398   4.362
  377TIP3    H2 1138   5.818   3.475   4.487
  378TIP3   OH2 1139   6.060   4.907   4.199
  378TIP3    H1 1140   6.102   4.862   4.126
  378TIP3    H2 1141   5.996   4.844   4.232
  379TIP3   OH2 1142   4.398   2.311   0.704
  379TIP3    H1 1143   4.383   2.405   0.694
  379TIP3    H2 1144   4.311   2.273   0.711
  380TIP3   OH2 1145   5.457   5.921   0.541
  380TIP3    H1 1146   5.535   5.976   0.538
  380TIP3    H2 1147   5.422   5.932   0.629
  381TIP3   OH2 1148   2.734   3.340   4.622
  381TIP3    H1 1149   2.701   3.317   4.536
  381TIP3    H2 1150   2.817   3.292   4.629
  382TIP3   OH2 1151   5.077   0.324   3.129
  382TIP3    H1 1152   4.991   0.359   3.105
  382TIP3    H2 1153   5.110   0.386   3.194
  383TIP3   OH2 1154   2.054   0.978   3.032
  383TIP3    H1 1155   2.092   0.893   3.010
  383TIP3    H2 1156   2.129   1.037   3.040
  384TIP3   OH2 1157   6.166   0.767   3.258
  384TIP3    H1 1158   6.082   0.813   3.261
  384TIP3    H2 1159   6.223   0.826   3.207
  385TIP3   OH2 1160   1.867   1.173   0.171
  385TIP3    H1 1161   1.778   1.204   0.186
  385TIP3    H2 1162   1.900   1.227   0.099
  386TIP3   OH2 1163   4.399   3.207   0.768
  386TIP3    H1 1164   4.453   3.165   0.701
  386TIP3    H2 1165   4.460   3.224   0.840
  387TIP3   OH2 1166   3.705   4.211   5.044
  387TIP3    H1 1167   3.685   4.197   4.952
  387TIP3    H2 1168   3.781   4.155   5.061
  388TIP3   OH2 1169   6.142   2.451   4.974
  388TIP3    H1 1170   6.138   2.371   5.026
  388TIP3    H2 1171   6.100   2.518   5.029
  389TIP3   OH2 1172   2.697   1.985   3.551
  389TIP3    H1 1173   2.702   1.929   3.628
  389TIP3    H2 1174   2.675   2.072   3.586
  390TIP3   OH2 1175   5.171   4.529   4.733
  390TIP3    H1 1176   5.192   4.465   4.665
  390TIP3    H2 1177   5.130   4.479   4.803
  391TIP3   OH2 1178   4.724   0.303   2.105
  391TIP3    H1 1179   4.695   0.292   2.195
  391TIP3    H2 1180   4.642   0.306   2.054
  392TIP3   OH2 1181   2.275   5.024   3.275
  392TIP3    H1 1182   2.368   5.044   3.279
  392TIP3    H2 1183   2.261   4.992   3.186
  393TIP3   OH2 1184   1.024   1.973   1.287
  393TIP3    H1 1185   0.988   1.937   1.368
  393TIP3    H2 1186   1.114   1.942   1.284
  394TIP3   OH2 1187   5.567   2.461   1.090
  394TIP3    H1 1188   5.553   2.453   0.996
  394TIP3    H2 1189   5.653   2.421   1.105
  395TIP3   OH2 1190   4.458   2.570   2.486
  395TIP3    H1 1191   4.503   2.546   2.567
  395TIP3    H2 1192   4.436   2.662   2.497
  396TIP3   OH2 1193   1.283   1.460   1.327
  396TIP3    H1 1194   1.337   1.382   1.317
  396TIP3    H2 1195   1.340   1.532   1.303
  397TIP3   OH2 1196   5.988   5.836   3.856
  397TIP3    H1 1197   5.915   5.892   3.827
  397TIP3    H2 1198   6.064   5.872   3.810
  398TIP3   OH2 1199   1.670   0.663   4.180
  398TIP3    H1 1200   1.706   0.698   4.262
  398TIP3    H2 1201   1.629   0.580   4.206
  399TIP3   OH2 1202   4.398   0.422   4.274
  399TIP3    H1 1203   4.382   0.405   4.367
  399TIP3    H2 1204   4.371   0.342   4.230
  400TIP3   OH2 1205   5.111   3.164   3.062
  400TIP3    H1 1206   5.134   3.072   3.073
  400TIP3    H2 1207   5.100   3.196   3.152
  401TIP3   OH2 1208   3.331   0.707   4.254
  401TIP3    H1 1209   3.404   0.715   4.316
  401TIP3    H2 1210   3.275   0.782   4.273
  402TIP3   OH2 1211   4.059   0.477   1.776
  402TIP3    H1 1212   4.066   0.392   1.820
  402TIP3    H2 1213   4.052   0.456   1.683
  403TIP3   OH2 1214   3.175   1.081   0.654
  403TIP3    H1 1215   3.140   1.170   0.649
  403TIP3    H2 1216   3.259   1.086   0.608
  404TIP3   OH2 1217   4.106   0.769   2.508
  404TIP3    H1 1218   4.020   0.810   2.499
  404TIP3    H2 1219   4.160   0.812   2.442
  405TIP3   OH2 1220   4.365   2.613   4.567
  405TIP3    H1 1221   4.328   2.547   4.508
  405TIP3    H2 1222   4.431   2.658   4.515
  406TIP3   OH2 1223   1.446   2.838   4.166
  406TIP3    H1 1224   1.531   2.807   4.197
  406TIP3    H2 1225   1.382   2.783   4.210
  407TIP3   OH2 1226   0.370   4.659   1.260
  407TIP3    H1 1227   0.464   4.645   1.268
  407TIP3    H2 1228   0.336   4.645   1.349
  408TIP3   OH2 1229   2.427   0.435   2.837
  408TIP3    H1 1230   2.406   0.345   2.865
  408TIP3    H2 1231   2.356   0.459   2.778
  409TIP3   OH2 1232   0.424   2.690   5.090
  409TIP3    H1 1233   0.481   2.658   5.161
  409TIP3    H2 1234   0.404   2.781   5.115
  410TIP3   OH2 1235   5.998   2.392   2.718
  410TIP3    H1 1236   5.992   2.322   2.652
  410TIP3    H2 1237   5.995   2.346   2.802
  411TIP3   OH2 1238   6.093   0.698   2.547
  411TIP3    H1 1239   6.133   0.784   2.533
  411TIP3    H2 1240   6.027   0.691   2.478
  412TIP3   OH2 1241   1.248   4.340   0.061
  412TIP3    H1 1242   1.253   4.259   0.113
  412TIP3    H2 1243   1.230   4.311  -0.028
  413TIP3   OH2 1244   3.901   0.721   5.010
  413TIP3    H1 1245   3.986   0.677   5.001
  413TIP3    H2 1246   3.890   0.732   5.105
  414TIP3   OH2 1247   5.653   1.077   3.801
  414TIP3    H1 1248   5.668   1.158   3.850
  414TIP3    H2 1249   5.740   1.041   3.787
  415TIP3   OH2 1250   2.604   5.247   0.000
  415TIP3    H1 1251   2.608   5.213   0.089
  415TIP3    H2 1252   2.545   5.187  -0.046
  416TIP3   OH2 1253   4.914   2.438   4.337
  416TIP3    H1 1254   4.877   2.474   4.418
  416TIP3    H2 1255   4.879   2.349   4.332
  417TIP3   OH2 1256   3.207   1.471   3.780
  417TIP3    H1 1257   3.302   1.486   3.783
  417TIP3    H2 1258   3.192   1.400   3.841
  418TIP3   OH2 1259   1.834   1.676   3.929
  418TIP3    H1 1260   1.759   1.628   3.964
  418TIP3    H2 1261   1.872   1.719   4.006
  419TIP3   OH2 1262   3.278   2.632   4.277
  419TIP3    H1 1263   3.333   2.641   4.199
  419TIP3    H2 1264   3.260   2.723   4.303
  420TIP3   OH2 1265   1.920   0.813   1.015
  420TIP3    H1 1266   1.883   0.848   1.096
  420TIP3    H2 1267   1.994   0.760   1.044
  421TIP3   OH2 1268   1.662   0.787   4.431
  421TIP3    H1 1269   1.646   0.718   4.495
  421TIP3    H2 1270   1.755   0.809   4.442
  422TIP3   OH2 1271   2.943   5.261   2.908
  422TIP3    H1 1272   2.927   5.193   2.973
  422TIP3    H2 1273   2.871   5.251   2.845
  423TIP3   OH2 1274   4.260   1.555   1.207
  423TIP3    H1 1275   4.235   1.527   1.119
  423TIP3    H2 1276   4.304   1.479   1.244
  424TIP3   OH2 1277   4.690   4.424   3.189
  424TIP3    H1 1278   4.667   4.415   3.281
  424TIP3    H2 1279   4.627   4.368   3.143
  425TIP3   OH2 1280   1.838   0.562   3.962
  425TIP3    H1 1281   1.764   0.585   3.905
  425TIP3    H2 1282   1.817   0.605   4.045
  426TIP3   OH2 1283   4.568   5.090   4.752
  426TIP3    H1 1284   4.597   5.113   4.840
  426TIP3    H2 1285   4.509   5.161   4.727
  427TIP3   OH2 1286   4.448   0.837   3.618
  427TIP3    H1 1287   4.363   0.872   3.594
  427TIP3    H2 1288   4.454   0.851   3.713
  428TIP3   OH2 1289   4.059   5.309   4.016
  428TIP3    H1 1290   3.982   5.280   3.967
  428TIP3    H2 1291   4.107   5.365   3.956
  429TIP3   OH2 1292   4.348   3.995   0.879
  429TIP3    H1 1293   4.363   3.905   0.850
  429TIP3    H2 1294   4.301   4.036   0.806
  430TIP3   OH2 1295   0.910   5.408   2.663
  430TIP3    H1 1296   0.876   5.328   2.703
  430TIP3    H2 1297   0.897   5.475   2.729
  431TIP3   OH2 1298   3.108   2.123   5.186
  431TIP3    H1 1299   3.044   2.193   5.174
  431TIP3    H2 1300   3.063   2.043   5.161
  432TIP3   OH2 1301   1.813   5.110   1.024
  432TIP3    H1 1302   1.772   5.144   1.103
  432TIP3    H2 1303   1.891   5.165   1.012
  433TIP3   OH2 1304   4.286   3.724   4.601
  433TIP3    H1 1305   4.212   3.676   4.638
  433TIP3    H2 1306   4.283   3.810   4.644
  434TIP3   OH2 1307   5.127   1.020   0.863
  434TIP3    H1 1308   5.141   1.110   0.833
  434TIP3    H2 1309   5.179   0.966   0.803
  435TIP3   OH2 1310   5.099   5.665   3.429
  435TIP3    H1 1311   5.029   5.600   3.429
  435TIP3    H2 1312   5.097   5.703   3.341
  436TIP3   OH2 1313   5.488   2.771   4.763
  436TIP3    H1 1314   5.398   2.762   4.794
  436TIP3    H2 1315   5.487   2.731   4.676
  437TIP3   OH2 1316   5.100   2.206   3.750
  437TIP3    H1 1317   5.015   2.167   3.733
  437TIP3    H2 1318   5.080   2.293   3.785
  438TIP3   OH2 1319   0.917   4.841   1.541
  438TIP3    H1 1320   0.982   4.774   1.560
  438TIP3    H2 1321   0.834   4.803   1.569
  439TIP3   OH2 1322   2.634   5.789   4.181
  439TIP3    H1 1323   2.652   5.790   4.087
  439TIP3    H2 1324   2.622   5.881   4.204
  440TIP3   OH2 1325   5.437   0.354   2.009
  440TIP3    H1 1326   5.426   0.370   1.916
  440TIP3    H2 1327   5.526   0.386   2.028
  441TIP3   OH2 1328   1.002   0.209   1.801
  441TIP3    H1 1329   0.941   0.231   1.731
  441TIP3    H2 1330   1.036   0.123   1.777
  442TIP3   OH2 1331   3.480   3.192   3.883
  442TIP3    H1 1332   3.412   3.164   3.821
  442TIP3    H2 1333   3.528   3.261   3.837
  443TIP3   OH2 1334   2.327   5.121   1.136
  443TIP3    H1 1335   2.336   5.064   1.059
  443TIP3    H2 1336   2.238   5.105   1.167
  444TIP3   OH2 1337   2.391   2.231   2.256
  444TIP3    H1 1338   2.312   2.178   2.252
  444TIP3    H2 1339   2.364   2.310   2.302
  445TIP3   OH2 1340   5.339   1.791   1.600
  445TIP3    H1 1341   5.346   1.728   1.529
  445TIP3    H2 1342   5.416   1.847   1.591
  446TIP3   OH2 1343   3.411   1.728   0.095
  446TIP3    H1 1344   3.400   1.652   0.152
  446TIP3    H2 1345   3.506   1.740   0.089
  447TIP3   OH2 1346   1.629   5.721   3.453
  447TIP3    H1 1347   1.674   5.782   3.395
  447TIP3    H2 1348   1.566   5.676   3.397
  448TIP3   OH2 1349   2.109   5.061   0.114
  448TIP3    H1 1350   2.067   5.025   0.036
  448TIP3    H2 1351   2.152   4.986   0.155
  449TIP3   OH2 1352   2.465   0.362   3.891
  449TIP3    H1 1353   2.489   0.270   3.899
  449TIP3    H2 1354   2.546   0.411   3.906
  450TIP3   OH2 1355   1.723   5.936   0.326
  450TIP3    H1 1356   1.728   5.842   0.345
  450TIP3    H2 1357   1.695   5.940   0.235
  451TIP3   OH2 1358   4.429   4.110   1.749
  451TIP3    H1 1359   4.523   4.127   1.743
  451TIP3    H2 1360   4.397   4.120   1.660
  452TIP3   OH2 1361   2.847   4.710   1.982
  452TIP3    H1 1362   2.801   4.725   1.900
  452TIP3    H2 1363   2.937   4.739   1.965
  453TIP3   OH2 1364   0.443   1.646   0.170
  453TIP3    H1 1365   0.462   1.709   0.240
  453TIP3    H2 1366   0.523   1.595   0.161
  454TIP3   OH2 1367   5.020   0.813   4.922
  454TIP3    H1 1368   4.964   0.890   4.909
  454TIP3    H2 1369   4.995   0.754   4.851
  455TIP3   OH2 1370   2.467   4.516   0.258
  455TIP3    H1 1371   2.408   4.469   0.200
  455TIP3    H2 1372   2.476   4.460   0.335
  456TIP3   OH2 1373   4.855   3.828   1.134
  456TIP3    H1 1374   4.795   3.893   1.170
  456TIP3    H2 1375   4.820   3.744   1.166
  457TIP3   OH2 1376   0.707   0.151   0.327
  457TIP3    H1 1377   0.755   0.069   0.313
  457TIP3    H2 1378   0.616   0.129   0.304
  458TIP3   OH2 1379   1.189   4.765   1.920
  458TIP3    H1 1380   1.282   4.779   1.941
  458TIP3    H2 1381   1.178   4.806   1.834
  459TIP3   OH2 1382   5.062   1.550   1.168
  459TIP3    H1 1383   4.998   1.536   1.099
  459TIP3    H2 1384   5.080   1.463   1.204
  460TIP3   OH2 1385   1.073   2.290   1.483
  460TIP3    H1 1386   1.055   2.204   1.522
  460TIP3    H2 1387   0.987   2.324   1.459
  461TIP3   OH2 1388   0.974   0.721   4.006
  461TIP3    H1 1389   1.005   0.801   3.963
  461TIP3    H2 1390   1.053   0.671   4.025
  462TIP3   OH2 1391   3.794   2.123   4.461
  462TIP3    H1 1392   3.834   2.038   4.477
  462TIP3    H2 1393   3.776   2.158   4.548
  463TIP3   OH2 1394   4.338   4.290   3.676
  463TIP3    H1 1395   4.371   4.208   3.642
  463TIP3    H2 1396   4.309   4.270   3.765
  464TIP3   OH2 1397   2.185   5.990   1.204
  464TIP3    H1 1398   2.217   5.902   1.224
  464TIP3    H2 1399   2.191   6.037   1.287
  465TIP3   OH2 1400   5.553   1.958   1.690
  465TIP3    H1 1401   5.520   1.951   1.780
  465TIP3    H2 1402   5.630   1.901   1.689
  466TIP3   OH2 1403   0.459   2.999   1.038
  466TIP3    H1 1404   0.486   2.963   0.954
  466TIP3    H2 1405   0.375   3.041   1.021
  467TIP3   OH2 1406   1.041   0.539   2.440
  467TIP3    H1 1407   0.979   0.562   2.370
  467TIP3    H2 1408   1.087   0.621   2.459
  468TIP3   OH2 1409   5.701   2.947   4.493
  468TIP3    H1 1410   5.689   3.041   4.481
  468TIP3    H2 1411   5.790   2.939   4.528
  469TIP3   OH2 1412   0.056   3.408   5.130
  469TIP3    H1 1413   0.142   3.434   5.099
  469TIP3    H2 1414   0.007   3.386   5.050
  470TIP3   OH2 1415   3.530   4.412   0.070
  470TIP3    H1 1416   3.603   4.357   0.039
  470TIP3    H2 1417   3.473   4.351   0.116
  471TIP3   OH2 1418   3.473   1.614   2.070
  471TIP3    H1 1419   3.443   1.704   2.083
  471TIP3    H2 1420   3.558   1.623   2.027
  472TIP3   OH2 1421   5.574   5.837   1.939
  472TIP3    H1 1422   5.541   5.926   1.954
  472TIP3    H2 1423   5.651   5.831   1.997
  473TIP3   OH2 1424   5.407   2.500   4.661
  473TIP3    H1 1425   5.475   2.446   4.702
  473TIP3    H2 1426   5.449   2.537   4.584
  474TIP3   OH2 1427   6.308   4.523   3.689
  474TIP3    H1 1428   6.232   4.491   3.641
  474TIP3    H2 1429   6.383   4.489   3.642
  475TIP3   OH2 1430   2.323   1.485   3.298
  475TIP3    H1 1431   2.245   1.430   3.304
  475TIP3    H2 1432   2.382   1.437   3.240
  476TIP3   OH2 1433   2.222   5.853   5.111
  476TIP3    H1 1434   2.238   5.870   5.204
  476TIP3    H2 1435   2.199   5.760   5.107
  477TIP3   OH2 1436   4.772   4.762   0.674
  477TIP3    H1 1437   4.832   4.722   0.738
  477TIP3    H2 1438   4.830   4.799   0.607
  478TIP3   OH2 1439   1.357   2.029   0.457
  478TIP3    H1 1440   1.389   1.992   0.375
  478TIP3    H2 1441   1.407   1.984   0.525
  479TIP3   OH2 1442   4.843   1.043   0.143
  479TIP3    H1 1443   4.815   1.134   0.136
  479TIP3    H2 1444   4.805   1.000   0.066
  480TIP3   OH2 1445   1.534   0.460   4.866
  480TIP3    H1 1446   1.503   0.370   4.853
  480TIP3    H2 1447   1.524   0.476   4.960
  481TIP3   OH2 1448   2.345   4.264   3.362
  481TIP3    H1 1449   2.277   4.331   3.352
  481TIP3    H2 1450   2.415   4.291   3.302
  482TIP3   OH2 1451   2.658   0.648   4.394
  482TIP3    H1 1452   2.609   0.631   4.314
  482TIP3    H2 1453   2.661   0.563   4.439
  483TIP3   OH2 1454   0.485   0.913   1.797
  483TIP3    H1 1455   0.487   0.985   1.734
  483TIP3    H2 1456   0.551   0.851   1.764
  484TIP3   OH2 1457   5.928   1.745   2.989
  484TIP3    H1 1458   5.999   1.694   2.950
  484TIP3    H2 1459   5.968   1.788   3.065
  485TIP3   OH2 1460   2.148   1.658   1.377
  485TIP3    H1 1461   2.104   1.709   1.308
  485TIP3    H2 1462   2.184   1.724   1.436
  486TIP3   OH2 1463   4.784   2.280   0.272
  486TIP3    H1 1464   4.726   2.218   0.229
  486TIP3    H2 1465   4.746   2.366   0.252
  487TIP3   OH2 1466   0.691   1.492   0.520
  487TIP3    H1 1467   0.638   1.571   0.532
  487TIP3    H2 1468   0.781   1.522   0.534
  488TIP3   OH2 1469   1.447   2.468   2.570
  488TIP3    H1 1470   1.509   2.428   2.630
  488TIP3    H2 1471   1.444   2.561   2.596
  489TIP3   OH2 1472   1.557   5.528   3.236
  489TIP3    H1 1473   1.650   5.505   3.244
  489TIP3    H2 1474   1.545   5.548   3.144
  490TIP3   OH2 1475   2.572   4.175   1.466
  490TIP3    H1 1476   2.610   4.173   1.379
  490TIP3    H2 1477   2.630   4.232   1.517
  491TIP3   OH2 1478   1.239   4.199   3.895
  491TIP3    H1 1479   1.232   4.109   3.927
  491TIP3    H2 1480   1.303   4.240   3.952
  492TIP3   OH2 1481   6.223   5.921   3.710
  492TIP3    H1 1482   6.235   5.898   3.617
  492TIP3    H2 1483   6.247   5.842   3.758
  493TIP3   OH2 1484   4.131   1.675   3.998
  493TIP3    H1 1485   4.098   1.585   3.985
  493TIP3    H2 1486   4.072   1.729   3.945
  494TIP3   OH2 1487   1.901   5.149   3.080
  494TIP3    H1 1488   1.827   5.145   3.020
  494TIP3    H2 1489   1.955   5.221   3.048
  495TIP3   OH2 1490   2.811   5.576   4.005
  495TIP3    H1 1491   2.804   5.630   3.926
  495TIP3    H2 1492   2.877   5.621   4.059
  496TIP3   OH2 1493   3.056   3.191   0.969
  496TIP3    H1 1494   2.982   3.233   1.012
  496TIP3    H2 1495   3.078   3.117   1.026
  497TIP3   OH2 1496   1.835   1.591   3.264
  497TIP3    H1 1497   1.859   1.517   3.208
  497TIP3    H2 1498   1.893   1.585   3.339
  498TIP3   OH2 1499   5.094   1.812   3.703
  498TIP3    H1 1500   5.149   1.734   3.690
  498TIP3    H2 1501   5.145   1.883   3.663
  499TIP3   OH2 1502   5.069   5.536   2.452
  499TIP3    H1 1503   5.148   5.590   2.455
  499TIP3    H2 1504   5.004   5.585   2.502
  500TIP3   OH2 1505   3.535   4.373   2.199
  500TIP3    H1 1506   3.544   4.385   2.104
  500TIP3    H2 1507   3.450   4.413   2.219
  501TIP3   OH2 1508   0.988   4.766   2.647
  501TIP3    H1 1509   0.972   4.845   2.699
  501TIP3    H2 1510   0.969   4.793   2.557
  502TIP3   OH2 1511   6.012   1.816   0.275
  502TIP3    H1 1512   5.939   1.830   0.335
  502TIP3    H2 1513   5.979   1.845   0.190
  503TIP3   OH2 1514   4.157   5.718   0.943
  503TIP3    H1 1515   4.081   5.755   0.989
  503TIP3    H2 1516   4.229   5.777   0.965
  504TIP3   OH2 1517   1.379   3.459   5.028
  504TIP3    H1 1518   1.423   3.485   4.947
  504TIP3    H2 1519   1.405   3.525   5.092
  505TIP3   OH2 1520   3.232   2.568   0.633
  505TIP3    H1 1521   3.194   2.627   0.568
  505TIP3    H2 1522   3.157   2.530   0.678
  506TIP3   OH2 1523   0.615   0.933   1.041
  506TIP3    H1 1524   0.544   0.875   1.016
  506TIP3    H2 1525   0.674   0.934   0.966
  507TIP3   OH2 1526   4.591   0.375   3.176
  507TIP3    H1 1527   4.525   0.363   3.108
  507TIP3    H2 1528   4.550   0.431   3.241
  508TIP3   OH2 1529   1.598   0.505   0.637
  508TIP3    H1 1530   1.662   0.439   0.664
  508TIP3    H2 1531   1.610   0.512   0.542
  509TIP3   OH2 1532   3.266   5.139   2.917
  509TIP3    H1 1533   3.234   5.229   2.909
  509TIP3    H2 1534   3.310   5.121   2.834
  510TIP3   OH2 1535   5.955   0.429   1.335
  510TIP3    H1 1536   5.993   0.386   1.411
  510TIP3    H2 1537   5.935   0.518   1.364
  511TIP3   OH2 1538   0.422   2.933   2.024
  511TIP3    H1 1539   0.514   2.959   2.024
  511TIP3    H2 1540   0.421   2.848   2.066
  512TIP3   OH2 1541   0.649   5.567   0.980
  512TIP3    H1 1542   0.637   5.646   0.928
  512TIP3    H2 1543   0.742   5.548   0.975
  513TIP3   OH2 1544   6.035   5.948   2.490
  513TIP3    H1 1545   5.990   5.962   2.406
  513TIP3    H2 1546   6.013   5.858   2.514
  514TIP3   OH2 1547   2.653   1.582   3.000
  514TIP3    H1 1548   2.567   1.621   2.980
  514TIP3    H2 1549   2.707   1.656   3.028
  515TIP3   OH2 1550   5.432   3.685   0.122
  515TIP3    H1 1551   5.406   3.776   0.140
  515TIP3    H2 1552   5.364   3.653   0.061
  516TIP3   OH2 1553   0.259   3.655   1.112
  516TIP3    H1 1554   0.288   3.566   1.133
  516TIP3    H2 1555   0.172   3.662   1.150
  517TIP3   OH2 1556   2.002   0.569   0.170
  517TIP3    H1 1557   2.051   0.650   0.159
  517TIP3    H2 1558   2.035   0.512   0.101
  518TIP3   OH2 1559   4.203   0.871   1.203
  518TIP3    H1 1560   4.135   0.815   1.241
  518TIP3    H2 1561   4.169   0.960   1.214
  519TIP3   OH2 1562   1.764   0.401   2.989
  519TIP3    H1 1563   1.763   0.465   3.060
  519TIP3    H2 1564   1.726   0.447   2.914
  520TIP3   OH2 1565   4.575   5.113   4.364
  520TIP3    H1 1566   4.623   5.108   4.282
  520TIP3    H2 1567   4.504   5.049   4.355
  521TIP3   OH2 1568   6.097   2.091   1.617
  521TIP3    H1 1569   6.131   2.017   1.567
  521TIP3    H2 1570   6.175   2.140   1.644
  522TIP3   OH2 1571   5.489   3.634   3.633
  522TIP3    H1 1572   5.454   3.593   3.554
  522TIP3    H2 1573   5.501   3.562   3.694
  523TIP3   OH2 1574   2.571   0.660   0.994
  523TIP3    H1 1575   2.645   0.717   0.975
  523TIP3    H2 1576   2.556   0.672   1.088
  524TIP3   OH2 1577   3.956   1.132   4.756
  524TIP3    H1 1578   4.032   1.188   4.743
  524TIP3    H2 1579   3.987   1.043   4.739
  525TIP3   OH2 1580   2.503   3.746   1.648
  525TIP3    H1 1581   2.491   3.751   1.553
  525TIP3    H2 1582   2.575   3.806   1.666
  526TIP3   OH2 1583  -0.015   2.292   2.070
  526TIP3    H1 1584   0.050   2.238   2.116
  526TIP3    H2 1585  -0.001   2.380   2.102
  527TIP3   OH2 1586   2.500   3.874   3.499
  527TIP3    H1 1587   2.500   3.932   3.422
  527TIP3    H2 1588   2.584   3.892   3.542
  528TIP3   OH2 1589   2.571   2.161   0.658
  528TIP3    H1 1590   2.535   2.159   0.746
  528TIP3    H2 1591   2.498   2.184   0.602
  529TIP3   OH2 1592   3.989   4.042   2.268
  529TIP3    H1 1593   3.943   4.092   2.201
  529TIP3    H2 1594   4.069   4.092   2.285
  530TIP3   OH2 1595   2.303   0.718   0.897
  530TIP3    H1 1596   2.387   0.681   0.922
  530TIP3    H2 1597   2.244   0.696   0.968
  531TIP3   OH2 1598   0.724   0.134   3.486
  531TIP3    H1 1599   0.779   0.197   3.439
  531TIP3    H2 1600   0.786   0.077   3.531
  532TIP3   OH2 1601   3.936   3.855   3.953
  532TIP3    H1 1602   3.919   3.776   3.902
  532TIP3    H2 1603   3.864   3.913   3.931
  533TIP3   OH2 1604   1.005   3.355   3.490
  533TIP3    H1 1605   0.925   3.348   3.543
  533TIP3    H2 1606   0.983   3.314   3.407
  534TIP3   OH2 1607   1.775   5.399   4.898
  534TIP3    H1 1608   1.771   5.469   4.833
  534TIP3    H2 1609   1.704   5.417   4.959
  535TIP3   OH2 1610   0.382   0.565   4.966
  535TIP3    H1 1611   0.398   0.551   4.873
  535TIP3    H2 1612   0.289   0.589   4.971
  536TIP3   OH2 1613   6.255   0.719   0.091
  536TIP3    H1 1614   6.165   0.727   0.059
  536TIP3    H2 1615   6.280   0.629   0.073
  537TIP3   OH2 1616   1.884   5.142   3.592
  537TIP3    H1 1617   1.926   5.073   3.541
  537TIP3    H2 1618   1.833   5.192   3.528
  538TIP3   OH2 1619   4.074   2.168   0.553
  538TIP3    H1 1620   4.015   2.132   0.487
  538TIP3    H2 1621   4.036   2.142   0.637
  539TIP3   OH2 1622   4.122   2.779   0.980
  539TIP3    H1 1623   4.175   2.702   1.001
  539TIP3    H2 1624   4.032   2.751   0.996
  540TIP3   OH2 1625   0.347   0.964   4.465
  540TIP3    H1 1626   0.288   1.029   4.501
  540TIP3    H2 1627   0.295   0.918   4.399
  541TIP3   OH2 1628   1.755   5.559   4.668
  541TIP3    H1 1629   1.690   5.599   4.609
  541TIP3    H2 1630   1.819   5.628   4.683
  542TIP3   OH2 1631   0.772   1.089   2.715
  542TIP3    H1 1632   0.848   1.143   2.739
  542TIP3    H2 1633   0.809   1.017   2.664
  543TIP3   OH2 1634   2.645   1.581   0.830
  543TIP3    H1 1635   2.664   1.655   0.888
  543TIP3    H2 1636   2.607   1.515   0.888
  544TIP3   OH2 1637   4.898   2.805   1.792
  544TIP3    H1 1638   4.891   2.771   1.881
  544TIP3    H2 1639   4.960   2.877   1.798
  545TIP3   OH2 1640   4.937   4.190   1.451
  545TIP3    H1 1641   5.006   4.253   1.471
  545TIP3    H2 1642   4.917   4.150   1.535
  546TIP3   OH2 1643   4.612   0.084   4.220
  546TIP3    H1 1644   4.590   0.136   4.143
  546TIP3    H2 1645   4.708   0.084   4.222
  547TIP3   OH2 1646   3.676   2.593   2.236
  547TIP3    H1 1647   3.771   2.598   2.235
  547TIP3    H2 1648   3.656   2.533   2.308
  548TIP3   OH2 1649   4.859   2.475   4.060
  548TIP3    H1 1650   4.890   2.508   4.144
  548TIP3    H2 1651   4.835   2.384   4.077
  549TIP3   OH2 1652   5.608   5.678   4.452
  549TIP3    H1 1653   5.515   5.657   4.463
  549TIP3    H2 1654   5.647   5.598   4.417
  550TIP3   OH2 1655   4.368   0.445   1.779
  550TIP3    H1 1656   4.390   0.518   1.721
  550TIP3    H2 1657   4.284   0.471   1.819
  551TIP3   OH2 1658   5.739   4.103   0.516
  551TIP3    H1 1659   5.671   4.085   0.451
  551TIP3    H2 1660   5.707   4.180   0.563
  552TIP3   OH2 1661   5.558   0.043   1.575
  552TIP3    H1 1662   5.524  -0.044   1.555
  552TIP3    H2 1663   5.501   0.103   1.526
  553TIP3   OH2 1664   1.857   2.318   4.157
  553TIP3    H1 1665   1.940   2.326   4.204
  553TIP3    H2 1666   1.823   2.232   4.183
  554TIP3   OH2 1667   1.696   3.477   3.999
  554TIP3    H1 1668   1.706   3.443   3.910
  554TIP3    H2 1669   1.765   3.434   4.049
  555TIP3   OH2 1670   2.656   5.985   1.545
  555TIP3    H1 1671   2.606   5.950   1.471
  555TIP3    H2 1672   2.728   6.033   1.504
  556TIP3   OH2 1673   5.478   1.583   0.269
  556TIP3    H1 1674   5.419   1.556   0.340
  556TIP3    H2 1675   5.445   1.535   0.192
  557TIP3   OH2 1676   0.686   2.886   2.065
  557TIP3    H1 1677   0.717   2.834   2.139
  557TIP3    H2 1678   0.763   2.935   2.036
  558TIP3   OH2 1679   3.738   3.520   4.970
  558TIP3    H1 1680   3.749   3.510   5.064
  558TIP3    H2 1681   3.763   3.610   4.952
  559TIP3   OH2 1682   2.345   0.249   1.335
  559TIP3    H1 1683   2.395   0.305   1.394
  559TIP3    H2 1684   2.302   0.310   1.275
  560TIP3   OH2 1685   3.927   3.626   3.765
  560TIP3    H1 1686   3.914   3.531   3.771
  560TIP3    H2 1687   4.020   3.636   3.744
  561TIP3   OH2 1688   6.138   1.827   2.532
  561TIP3    H1 1689   6.175   1.814   2.619
  561TIP3    H2 1690   6.203   1.877   2.484
  562TIP3   OH2 1691   2.258   1.817   5.103
  562TIP3    H1 1692   2.325   1.759   5.139
  562TIP3    H2 1693   2.268   1.898   5.152
  563TIP3   OH2 1694   0.461   0.143   3.457
  563TIP3    H1 1695   0.549   0.105   3.456
  563TIP3    H2 1696   0.403   0.070   3.435
  564TIP3   OH2 1697   4.059   0.664   1.317
  564TIP3    H1 1698   4.004   0.597   1.357
  564TIP3    H2 1699   4.142   0.620   1.300
  565TIP3   OH2 1700   1.541   2.250   0.530
  565TIP3    H1 1701   1.463   2.194   0.529
  565TIP3    H2 1702   1.591   2.223   0.453
  566TIP3   OH2 1703   0.672   3.316   4.499
  566TIP3    H1 1704   0.659   3.248   4.566
  566TIP3    H2 1705   0.600   3.377   4.513
  567TIP3   OH2 1706   5.793   2.605   0.441
  567TIP3    H1 1707   5.745   2.531   0.405
  567TIP3    H2 1708   5.740   2.681   0.417
  568TIP3   OH2 1709   6.102   2.943   2.238
  568TIP3    H1 1710   6.016   2.931   2.197
  568TIP3    H2 1711   6.083   2.953   2.331
  569TIP3   OH2 1712   6.157   3.776   3.888
  569TIP3    H1 1713   6.100   3.834   3.938
  569TIP3    H2 1714   6.104   3.750   3.812
  570TIP3   OH2 1715   6.318   4.079   0.287
  570TIP3    H1 1716   6.349   4.089   0.377
  570TIP3    H2 1717   6.242   4.021   0.294
  571TIP3   OH2 1718   2.456   5.167   1.963
  571TIP3    H1 1719   2.449   5.129   1.875
  571TIP3    H2 1720   2.531   5.122   2.002
  572TIP3   OH2 1721   3.274   2.121   3.911
  572TIP3    H1 1722   3.216   2.186   3.870
  572TIP3    H2 1723   3.300   2.063   3.840
  573TIP3   OH2 1724   2.598   4.067   4.731
  573TIP3    H1 1725   2.585   3.972   4.731
  573TIP3    H2 1726   2.689   4.078   4.703
  574TIP3   OH2 1727   0.361   0.621   4.391
  574TIP3    H1 1728   0.322   0.686   4.333
  574TIP3    H2 1729   0.455   0.627   4.375
  575TIP3   OH2 1730   3.466   1.300   3.634
  575TIP3    H1 1731   3.521   1.224   3.652
  575TIP3    H2 1732   3.392   1.291   3.694
  576TIP3   OH2 1733   5.921   4.060   1.887
  576TIP3    H1 1734   5.965   4.099   1.811
  576TIP3    H2 1735   5.828   4.080   1.874
  577TIP3   OH2 1736   2.812   4.245   3.963
  577TIP3    H1 1737   2.736   4.188   3.951
  577TIP3    H2 1738   2.822   4.289   3.878
  578TIP3   OH2 1739   2.927   1.278   2.236
  578TIP3    H1 1740   3.004   1.305   2.286
  578TIP3    H2 1741   2.853   1.321   2.280
  579TIP3   OH2 1742   2.434   2.785   2.645
  579TIP3    H1 1743   2.407   2.827   2.563
  579TIP3    H2 1744   2.451   2.694   2.621
  580TIP3   OH2 1745   2.128   5.934   2.461
  580TIP3    H1 1746   2.207   5.981   2.436
  580TIP3    H2 1747   2.060   6.001   2.468
  581TIP3   OH2 1748   4.445   0.401   2.927
  581TIP3    H1 1749   4.432   0.491   2.898
  581TIP3    H2 1750   4.423   0.347   2.850
  582TIP3   OH2 1751   2.338   5.634   4.080
  582TIP3    H1 1752   2.375   5.578   4.149
  582TIP3    H2 1753   2.245   5.613   4.079
  583TIP3   OH2 1754   1.378   5.362   2.147
  583TIP3    H1 1755   1.450   5.403   2.195
  583TIP3    H2 1756   1.299   5.396   2.188
  584TIP3   OH2 1757   5.579   0.136   0.419
  584TIP3    H1 1758   5.603   0.157   0.329
  584TIP3    H2 1759   5.561   0.042   0.418
  585TIP3   OH2 1760   6.200   1.544   2.896
  585TIP3    H1 1761   6.195   1.587   2.982
  585TIP3    H2 1762   6.283   1.575   2.859
  586TIP3   OH2 1763   0.751   0.788   0.814
  586TIP3    H1 1764   0.832   0.834   0.792
  586TIP3    H2 1765   0.683   0.837   0.768
  587TIP3   OH2 1766   5.643   4.038   3.589
  587TIP3    H1 1767   5.595   4.050   3.671
  587TIP3    H2 1768   5.577   4.007   3.527
  588TIP3   OH2 1769   5.200   2.425   4.014
  588TIP3    H1 1770   5.139   2.490   3.979
  588TIP3    H2 1771   5.144   2.357   4.052
  589TIP3   OH2 1772   4.363   0.758   1.017
  589TIP3    H1 1773   4.312   0.808   1.080
  589TIP3    H2 1774   4.454   0.782   1.034
  590TIP3   OH2 1775   2.854   1.962   1.342
  590TIP3    H1 1776   2.934   1.986   1.296
  590TIP3    H2 1777   2.788   2.024   1.310
  591TIP3   OH2 1778   3.880   4.983   3.986
  591TIP3    H1 1779   3.804   4.973   4.042
  591TIP3    H2 1780   3.882   5.076   3.963
  592TIP3   OH2 1781   4.767   3.248   0.030
  592TIP3    H1 1782   4.681   3.243   0.073
  592TIP3    H2 1783   4.801   3.334   0.056
  593TIP3   OH2 1784   3.610   0.693   3.954
  593TIP3    H1 1785   3.525   0.735   3.971
  593TIP3    H2 1786   3.674   0.753   3.992
  594TIP3   OH2 1787   4.008   0.676   3.099
  594TIP3    H1 1788   3.978   0.662   3.189
  594TIP3    H2 1789   4.097   0.643   3.098
  595TIP3   OH2 1790   4.663   4.102   4.705
  595TIP3    H1 1791   4.590   4.165   4.713
  595TIP3    H2 1792   4.624   4.019   4.731
  596TIP3   OH2 1793   0.477   1.360   3.597
  596TIP3    H1 1794   0.492   1.281   3.649
  596TIP3    H2 1795   0.564   1.392   3.575
  597TIP3   OH2 1796   1.994   0.225   0.966
  597TIP3    H1 1797   1.959   0.223   0.877
  597TIP3    H2 1798   2.069   0.284   0.961
  598TIP3   OH2 1799   1.566   3.681   3.185
  598TIP3    H1 1800   1.487   3.644   3.145
  598TIP3    H2 1801   1.627   3.691   3.113
  599TIP3   OH2 1802   5.825   3.134   0.891
  599TIP3    H1 1803   5.758   3.093   0.945
  599TIP3    H2 1804   5.893   3.160   0.954
  600TIP3   OH2 1805   3.074   1.457   4.126
  600TIP3    H1 1806   3.042   1.370   4.149
  600TIP3    H2 1807   3.169   1.451   4.137
  601TIP3   OH2 1808   3.229   4.685   1.457
  601TIP3    H1 1809   3.245   4.605   1.407
  601TIP3    H2 1810   3.283   4.674   1.536
  602TIP3   OH2 1811   5.878   2.953   1.243
  602TIP3    H1 1812   5.876   2.861   1.270
  602TIP3    H2 1813   5.960   2.962   1.195
  603TIP3   OH2 1814   3.182   1.451   3.141
  603TIP3    H1 1815   3.194   1.375   3.198
  603TIP3    H2 1816   3.177   1.525   3.201
  604TIP3   OH2 1817   1.748   1.844   5.143
  604TIP3    H1 1818   1.784   1.768   5.098
  604TIP3    H2 1819   1.824   1.898   5.163
  605TIP3   OH2 1820   0.262   0.821   1.642
  605TIP3    H1 1821   0.332   0.864   1.691
  605TIP3    H2 1822   0.204   0.893   1.614
  606TIP3   OH2 1823   6.312   1.181   2.791
  606TIP3    H1 1824   6.352   1.208   2.873
  606TIP3    H2 1825   6.309   1.085   2.796
  607TIP3   OH2 1826   0.235   1.848   4.508
  607TIP3    H1 1827   0.169   1.915   4.527
  607TIP3    H2 1828   0.286   1.841   4.589
  608TIP3   OH2 1829   2.783   5.615   2.067
  608TIP3    H1 1830   2.837   5.566   2.130
  608TIP3    H2 1831   2.817   5.589   1.982
  609TIP3   OH2 1832   3.614   5.756   4.602
  609TIP3    H1 1833   3.673   5.787   4.533
  609TIP3    H2 1834   3.529   5.745   4.558
  610TIP3   OH2 1835   6.294   2.229   0.720
  610TIP3    H1 1836   6.247   2.286   0.658
  610TIP3    H2 1837   6.283   2.141   0.685
  611TIP3   OH2 1838   4.233   0.199   4.219
  611TIP3    H1 1839   4.192   0.191   4.305
  611TIP3    H2 1840   4.278   0.115   4.205
  612TIP3   OH2 1841   0.203   4.893   2.705
  612TIP3    H1 1842   0.131   4.955   2.695
  612TIP3    H2 1843   0.282   4.944   2.684
  613TIP3   OH2 1844   2.489   0.893   4.189
  613TIP3    H1 1845   2.472   0.905   4.283
  613TIP3    H2 1846   2.411   0.847   4.156
  614TIP3   OH2 1847   5.736   2.523   2.117
  614TIP3    H1 1848   5.748   2.602   2.065
  614TIP3    H2 1849   5.797   2.460   2.080
  615TIP3   OH2 1850   3.876   4.039   3.218
  615TIP3    H1 1851   3.818   3.977   3.174
  615TIP3    H2 1852   3.930   4.075   3.147
  616TIP3   OH2 1853   3.948   0.838   4.446
  616TIP3    H1 1854   3.976   0.824   4.536
  616TIP3    H2 1855   3.964   0.754   4.403
  617TIP3   OH2 1856   5.852   2.733   5.148
  617TIP3    H1 1857   5.837   2.697   5.061
  617TIP3    H2 1858   5.785   2.693   5.203
  618TIP3   OH2 1859   4.186   5.902   5.040
  618TIP3    H1 1860   4.102   5.857   5.040
  618TIP3    H2 1861   4.244   5.845   4.990
  619TIP3   OH2 1862   0.465   1.885   3.940
  619TIP3    H1 1863   0.385   1.835   3.956
  619TIP3    H2 1864   0.521   1.825   3.890
  620TIP3   OH2 1865   4.827   0.485   5.021
  620TIP3    H1 1866   4.860   0.395   5.029
  620TIP3    H2 1867   4.754   0.478   4.959
  621TIP3   OH2 1868   1.482   0.178   1.457
  621TIP3    H1 1869   1.526   0.117   1.516
  621TIP3    H2 1870   1.506   0.147   1.369
  622TIP3   OH2 1871   0.599   2.067   3.643
  622TIP3    H1 1872   0.561   2.069   3.731
  622TIP3    H2 1873   0.540   2.120   3.591
  623TIP3   OH2 1874   4.239   3.474   2.208
  623TIP3    H1 1875   4.213   3.526   2.132
  623TIP3    H2 1876   4.187   3.395   2.202
  624TIP3   OH2 1877   1.826   5.202   2.653
  624TIP3    H1 1878   1.787   5.178   2.737
  624TIP3    H2 1879   1.829   5.119   2.604
  625TIP3   OH2 1880   4.448   4.786   2.862
  625TIP3    H1 1881   4.512   4.828   2.919
  625TIP3    H2 1882   4.400   4.858   2.821
  626TIP3   OH2 1883   5.243   3.196   0.654
  626TIP3    H1 1884   5.222   3.164   0.566
  626TIP3    H2 1885   5.180   3.151   0.711
  627TIP3   OH2 1886   0.783   4.619   1.921
  627TIP3    H1 1887   0.700   4.655   1.950
  627TIP3    H2 1888   0.762   4.571   1.841
  628TIP3   OH2 1889   1.679   3.530   0.161
  628TIP3    H1 1890   1.614   3.460   0.155
  628TIP3    H2 1891   1.712   3.539   0.072
  629TIP3   OH2 1892   1.190   4.696   2.298
  629TIP3    H1 1893   1.119   4.664   2.242
  629TIP3    H2 1894   1.191   4.791   2.284
  630TIP3   OH2 1895   4.467   4.053   3.574
  630TIP3    H1 1896   4.423   3.968   3.575
  630TIP3    H2 1897   4.556   4.034   3.603
  631TIP3   OH2 1898   5.443   5.666   0.454
  631TIP3    H1 1899   5.456   5.745   0.506
  631TIP3    H2 1900   5.530   5.626   0.450
  632TIP3   OH2 1901   3.861   1.778   4.378
  632TIP3    H1 1902   3.948   1.740   4.383
  632TIP3    H2 1903   3.849   1.824   4.461
  633TIP3   OH2 1904   1.213   3.824   0.454
  633TIP3    H1 1905   1.146   3.814   0.387
  633TIP3    H2 1906   1.217   3.919   0.470
  634TIP3   OH2 1907   5.809   4.434   0.906
  634TIP3    H1 1908   5.882   4.414   0.847
  634TIP3    H2 1909   5.731   4.413   0.855
  635TIP3   OH2 1910   2.573   0.231   0.011
  635TIP3    H1 1911   2.633   0.177   0.063
  635TIP3    H2 1912   2.509   0.168  -0.024
  636TIP3   OH2 1913   3.285   3.468   0.977
  636TIP3    H1 1914   3.339   3.402   0.934
  636TIP3    H2 1915   3.250   3.424   1.055
  637TIP3   OH2 1916   1.076   4.347   0.870
  637TIP3    H1 1917   1.087   4.424   0.926
  637TIP3    H2 1918   0.996   4.365   0.820
  638TIP3   OH2 1919   2.153   4.308   4.177
  638TIP3    H1 1920   2.071   4.259   4.172
  638TIP3    H2 1921   2.193   4.297   4.091
  639TIP3   OH2 1922   4.782   0.749   4.480
  639TIP3    H1 1923   4.794   0.718   4.390
  639TIP3    H2 1924   4.755   0.840   4.471
  640TIP3   OH2 1925   5.307   3.818   3.617
  640TIP3    H1 1926   5.344   3.845   3.533
  640TIP3    H2 1927   5.378   3.772   3.661
  641TIP3   OH2 1928   0.930   5.346   1.716
  641TIP3    H1 1929   0.888   5.420   1.673
  641TIP3    H2 1930   1.011   5.332   1.667
  642TIP3   OH2 1931   5.790   4.350   0.307
  642TIP3    H1 1932   5.879   4.330   0.336
  642TIP3    H2 1933   5.739   4.355   0.388
  643TIP3   OH2 1934   2.967   4.864   4.650
  643TIP3    H1 1935   2.883   4.825   4.624
  643TIP3    H2 1936   2.944   4.952   4.681
  644TIP3   OH2 1937   2.783   3.104   3.250
  644TIP3    H1 1938   2.748   3.115   3.162
  644TIP3    H2 1939   2.783   3.009   3.265
  645TIP3   OH2 1940   3.275   1.814   2.760
  645TIP3    H1 1941   3.251   1.876   2.828
  645TIP3    H2 1942   3.284   1.731   2.806
  646TIP3   OH2 1943   6.359   2.448   1.008
  646TIP3    H1 1944   6.288   2.384   1.006
  646TIP3    H2 1945   6.367   2.476   0.917
  647TIP3   OH2 1946   6.302   3.759   0.573
  647TIP3    H1 1947   6.281   3.676   0.616
  647TIP3    H2 1948   6.386   3.744   0.531
  648TIP3   OH2 1949   4.148   2.621   3.965
  648TIP3    H1 1950   4.169   2.586   4.052
  648TIP3    H2 1951   4.064   2.580   3.943
  649TIP3   OH2 1952   2.703   4.079   0.976
  649TIP3    H1 1953   2.667   4.114   0.894
  649TIP3    H2 1954   2.628   4.037   1.019
  650TIP3   OH2 1955   0.149   5.500   2.529
  650TIP3    H1 1956   0.219   5.539   2.581
  650TIP3    H2 1957   0.160   5.539   2.442
  651TIP3   OH2 1958   6.238   1.330   2.273
  651TIP3    H1 1959   6.309   1.394   2.268
  651TIP3    H2 1960   6.242   1.297   2.363
  652TIP3   OH2 1961   2.942   4.852   4.111
  652TIP3    H1 1962   2.885   4.843   4.188
  652TIP3    H2 1963   2.962   4.946   4.106
  653TIP3   OH2 1964   3.585  -0.015   1.926
  653TIP3    H1 1965   3.597   0.024   1.840
  653TIP3    H2 1966   3.637   0.040   1.985
  654TIP3   OH2 1967   2.021   2.719   4.501
  654TIP3    H1 1968   2.064   2.634   4.502
  654TIP3    H2 1969   2.023   2.748   4.593
  655TIP3   OH2 1970   0.964   1.551   0.555
  655TIP3    H1 1971   1.022   1.605   0.609
  655TIP3    H2 1972   1.012   1.468   0.545
  656TIP3   OH2 1973   2.068   2.696   0.566
  656TIP3    H1 1974   2.157   2.713   0.598
  656TIP3    H2 1975   2.022   2.779   0.577
  657TIP3   OH2 1976   3.707   2.053   2.062
  657TIP3    H1 1977   3.800   2.050   2.039
  657TIP3    H2 1978   3.700   2.124   2.126
  658TIP3   OH2 1979   3.355   0.156   2.339
  658TIP3    H1 1980   3.368   0.062   2.354
  658TIP3    H2 1981   3.340   0.163   2.245
  659TIP3   OH2 1982   4.948   2.590   2.775
  659TIP3    H1 1983   4.990   2.562   2.856
  659TIP3    H2 1984   4.938   2.685   2.785
  660TIP3   OH2 1985   3.740   3.265   1.602
  660TIP3    H1 1986   3.733   3.329   1.532
  660TIP3    H2 1987   3.651   3.230   1.612
  661TIP3   OH2 1988   2.209   3.812   2.568
  661TIP3    H1 1989   2.197   3.779   2.479
  661TIP3    H2 1990   2.254   3.896   2.557
  662TIP3   OH2 1991   5.931   1.860   1.148
  662TIP3    H1 1992   6.008   1.916   1.142
  662TIP3    H2 1993   5.891   1.884   1.232
  663TIP3   OH2 1994   5.835  -0.011   3.273
  663TIP3    H1 1995   5.850   0.059   3.209
  663TIP3    H2 1996   5.908  -0.004   3.334
  664TIP3   OH2 1997   4.747   2.417   3.392
  664TIP3    H1 1998   4.768   2.498   3.345
  664TIP3    H2 1999   4.827   2.366   3.388
  665TIP3   OH2 2000   0.975   4.972   2.838
  665TIP3    H1 2001   0.994   5.063   2.860
  665TIP3    H2 2002   0.959   4.929   2.922
  666TIP3   OH2 2003   3.711   4.636   1.631
  666TIP3    H1 2004   3.729   4.586   1.551
  666TIP3    H2 2005   3.722   4.728   1.605
  667TIP3   OH2 2006   3.972   3.960   1.761
  667TIP3    H1 2007   3.977   3.865   1.773
  667TIP3    H2 2008   4.031   3.995   1.827
  668TIP3   OH2 2009   4.629   0.282   2.611
  668TIP3    H1 2010   4.706   0.226   2.597
  668TIP3    H2 2011   4.580   0.237   2.680
  669TIP3   OH2 2012   4.661   2.939   0.911
  669TIP3    H1 2013   4.699   2.853   0.931
  669TIP3    H2 2014   4.666   2.988   0.993
  670TIP3   OH2 2015   0.886   0.268   3.820
  670TIP3    H1 2016   0.960   0.257   3.760
  670TIP3    H2 2017   0.891   0.193   3.878
  671TIP3   OH2 2018   3.430   4.628   0.428
  671TIP3    H1 2019   3.397   4.587   0.348
  671TIP3    H2 2020   3.375   4.593   0.498
  672TIP3   OH2 2021   3.317   0.538   0.041
  672TIP3    H1 2022   3.234   0.506   0.076
  672TIP3    H2 2023   3.373   0.550   0.117
  673TIP3   OH2 2024   5.370   4.569   2.806
  673TIP3    H1 2025   5.287   4.524   2.790
  673TIP3    H2 2026   5.376   4.633   2.735
  674TIP3   OH2 2027   1.782   1.610   4.949
  674TIP3    H1 2028   1.858   1.552   4.948
  674TIP3    H2 2029   1.800   1.673   4.880
  675TIP3   OH2 2030   1.903   3.352   0.218
  675TIP3    H1 2031   1.913   3.417   0.287
  675TIP3    H2 2032   1.849   3.394   0.152
  676TIP3   OH2 2033   3.136   2.956   2.721
  676TIP3    H1 2034   3.219   2.927   2.758
  676TIP3    H2 2035   3.123   3.044   2.758
  677TIP3   OH2 2036   2.063   5.511   3.412
  677TIP3    H1 2037   2.049   5.470   3.497
  677TIP3    H2 2038   2.120   5.450   3.365
  678TIP3   OH2 2039   0.260   1.134   3.347
  678TIP3    H1 2040   0.221   1.170   3.427
  678TIP3    H2 2041   0.296   1.211   3.302
  679TIP3   OH2 2042   4.820   3.492   4.708
  679TIP3    H1 2043   4.765   3.420   4.739
  679TIP3    H2 2044   4.782   3.518   4.625
  680TIP3   OH2 2045   5.073   0.727   5.180
  680TIP3    H1 2046   5.057   0.773   5.097
  680TIP3    H2 2047   5.065   0.634   5.158
  681TIP3   OH2 2048   1.901   3.283   2.878
  681TIP3    H1 2049   1.908   3.348   2.807
  681TIP3    H2 2050   1.808   3.263   2.883
  682TIP3   OH2 2051   0.527   2.277   4.532
  682TIP3    H1 2052   0.492   2.188   4.538
  682TIP3    H2 2053   0.621   2.267   4.550
  683TIP3   OH2 2054   1.877   0.900   0.111
  683TIP3    H1 2055   1.950   0.942   0.066
  683TIP3    H2 2056   1.828   0.972   0.150
  684TIP3   OH2 2057   2.005   0.012   1.146
  684TIP3    H1 2058   2.014   0.066   1.067
  684TIP3    H2 2059   2.086   0.027   1.195
  685TIP3   OH2 2060   0.110   0.905   4.024
  685TIP3    H1 2061   0.090   0.947   3.941
  685TIP3    H2 2062   0.036   0.847   4.040
  686TIP3   OH2 2063   2.856   0.121   4.096
  686TIP3    H1 2064   2.799   0.187   4.135
  686TIP3    H2 2065   2.941   0.164   4.087
  687TIP3   OH2 2066   2.120   5.255   3.267
  687TIP3    H1 2067   2.192   5.194   3.279
  687TIP3    H2 2068   2.059   5.209   3.209
  688TIP3   OH2 2069   2.337   2.791   0.017
  688TIP3    H1 2070   2.294   2.809  -0.066
  688TIP3    H2 2071   2.265   2.780   0.080
  689TIP3   OH2 2072   1.436   3.909   3.977
  689TIP3    H1 2073   1.490   3.942   4.049
  689TIP3    H2 2074   1.497   3.864   3.919
  690TIP3   OH2 2075   3.456   5.405   3.995
  690TIP3    H1 2076   3.429   5.387   3.905
  690TIP3    H2 2077   3.547   5.433   3.988
  691TIP3   OH2 2078   1.301   2.192   4.072
  691TIP3    H1 2079   1.376   2.160   4.021
  691TIP3    H2 2080   1.332   2.192   4.162
  692TIP3   OH2 2081   3.331   3.283   0.564
  692TIP3    H1 2082   3.257   3.278   0.626
  692TIP3    H2 2083   3.387   3.210   0.588
  693TIP3   OH2 2084   2.467   5.841   1.120
  693TIP3    H1 2085   2.457   5.820   1.213
  693TIP3    H2 2086   2.396   5.793   1.077
  694TIP3   OH2 2087   5.971   4.375   1.621
  694TIP3    H1 2088   6.025   4.430   1.565
  694TIP3    H2 2089   6.017   4.291   1.624
  695TIP3   OH2 2090   0.607   2.208   4.231
  695TIP3    H1 2091   0.619   2.301   4.211
  695TIP3    H2 2092   0.543   2.207   4.302
  696TIP3   OH2 2093   5.695   2.479   2.448
  696TIP3    H1 2094   5.602   2.477   2.470
  696TIP3    H2 2095   5.733   2.539   2.512
  697TIP3   OH2 2096   2.636   4.466   1.285
  697TIP3    H1 2097   2.630   4.462   1.380
  697TIP3    H2 2098   2.554   4.428   1.254
  698TIP3   OH2 2099   2.148   3.557   4.988
  698TIP3    H1 2100   2.234   3.595   5.004
  698TIP3    H2 2101   2.166   3.471   4.950
  699TIP3   OH2 2102   2.821   3.703   4.123
  699TIP3    H1 2103   2.739   3.676   4.083
  699TIP3    H2 2104   2.875   3.624   4.122
  700TIP3   OH2 2105   2.399   5.261   0.340
  700TIP3    H1 2106   2.434   5.190   0.286
  700TIP3    H2 2107   2.438   5.247   0.426
  701TIP3   OH2 2108   5.801   2.511   3.915
  701TIP3    H1 2109   5.768   2.452   3.982
  701TIP3    H2 2110   5.879   2.467   3.880
  702TIP3   OH2 2111   2.988   0.934   4.594
  702TIP3    H1 2112   3.065   0.889   4.629
  702TIP3    H2 2113   2.937   0.958   4.672
  703TIP3   OH2 2114   2.094   3.631   0.723
  703TIP3    H1 2115   2.116   3.595   0.809
  703TIP3    H2 2116   2.158   3.592   0.663
  704TIP3   OH2 2117   2.307   3.500   2.447
  704TIP3    H1 2118   2.356   3.422   2.474
  704TIP3    H2 2119   2.351   3.529   2.367
  705TIP3   OH2 2120   5.854   6.010   4.942
  705TIP3    H1 2121   5.781   5.959   4.977
  705TIP3    H2 2122   5.879   5.966   4.862
  706TIP3   OH2 2123   5.940   3.295   4.600
  706TIP3    H1 2124   6.019   3.335   4.563
  706TIP3    H2 2125   5.937   3.208   4.562
  707TIP3   OH2 2126   5.738   4.732   0.130
  707TIP3    H1 2127   5.648   4.758   0.112
  707TIP3    H2 2128   5.743   4.641   0.101
  708TIP3   OH2 2129   2.359   5.154   3.609
  708TIP3    H1 2130   2.429   5.153   3.544
  708TIP3    H2 2131   2.396   5.110   3.686
  709TIP3   OH2 2132   1.447   3.405   2.766
  709TIP3    H1 2133   1.532   3.375   2.735
  709TIP3    H2 2134   1.387   3.334   2.744
  710TIP3   OH2 2135   1.122   1.378   5.205
  710TIP3    H1 2136   1.028   1.388   5.217
  710TIP3    H2 2137   1.143   1.435   5.130
  711TIP3   OH2 2138   2.616   0.466   4.965
  711TIP3    H1 2139   2.615   0.514   4.882
  711TIP3    H2 2140   2.552   0.396   4.953
  712TIP3   OH2 2141   1.883   4.044   0.807
  712TIP3    H1 2142   1.920   3.986   0.873
  712TIP3    H2 2143   1.870   4.127   0.852
  713TIP3   OH2 2144   6.159   3.033   1.450
  713TIP3    H1 2145   6.209   2.955   1.474
  713TIP3    H2 2146   6.197   3.062   1.367
  714TIP3   OH2 2147   1.554   2.072   4.117
  714TIP3    H1 2148   1.571   1.978   4.122
  714TIP3    H2 2149   1.544   2.100   4.207
  715TIP3   OH2 2150   2.173   0.151   1.680
  715TIP3    H1 2151   2.150   0.064   1.647
  715TIP3    H2 2152   2.239   0.135   1.747
  716TIP3   OH2 2153   0.451   5.513   0.676
  716TIP3    H1 2154   0.462   5.607   0.691
  716TIP3    H2 2155   0.512   5.472   0.737
  717TIP3   OH2 2156   2.268   1.112   4.669
  717TIP3    H1 2157   2.179   1.122   4.701
  717TIP3    H2 2158   2.306   1.044   4.725
  718TIP3   OH2 2159   3.119   0.894   4.281
  718TIP3    H1 2160   3.150   0.975   4.323
  718TIP3    H2 2161   3.032   0.879   4.319
  719TIP3   OH2 2162   2.748   3.956   0.630
  719TIP3    H1 2163   2.837   3.980   0.604
  719TIP3    H2 2164   2.711   3.912   0.553
  720TIP3   OH2 2165   3.695   4.181   3.682
  720TIP3    H1 2166   3.718   4.157   3.771
  720TIP3    H2 2167   3.777   4.214   3.644
  721TIP3   OH2 2168   2.980   3.916   4.496
  721TIP3    H1 2169   2.932   3.971   4.558
  721TIP3    H2 2170   2.913   3.865   4.452
  722TIP3   OH2 2171   3.048   2.717   1.270
  722TIP3    H1 2172   3.068   2.629   1.239
  722TIP3    H2 2173   3.133   2.756   1.289
  723TIP3   OH2 2174   3.507   1.074   1.382
  723TIP3    H1 2175   3.447   1.004   1.356
  723TIP3    H2 2176   3.502   1.137   1.311
  724TIP3   OH2 2177   5.844   5.811   2.648
  724TIP3    H1 2178   5.805   5.880   2.701
  724TIP3    H2 2179   5.918   5.780   2.701
  725TIP3   OH2 2180   6.063   3.350   3.613
  725TIP3    H1 2181   6.129   3.311   3.670
  725TIP3    H2 2182   6.105   3.352   3.527
  726TIP3   OH2 2183   1.402   3.871   0.010
  726TIP3    H1 2184   1.487   3.890   0.050
  726TIP3    H2 2185   1.387   3.778   0.030
  727TIP3   OH2 2186   3.816   2.561   4.401
  727TIP3    H1 2187   3.904   2.597   4.397
  727TIP3    H2 2188   3.783   2.589   4.487
  728TIP3   OH2 2189   5.329   5.605   3.554
  728TIP3    H1 2190   5.243   5.622   3.516
  728TIP3    H2 2191   5.349   5.683   3.605
  729TIP3   OH2 2192   1.003   1.160   1.911
  729TIP3    H1 2193   0.980   1.094   1.846
  729TIP3    H2 2194   1.008   1.111   1.994
  730TIP3   OH2 2195   0.574   5.747   3.070
  730TIP3    H1 2196   0.609   5.795   2.995
  730TIP3    H2 2197   0.523   5.812   3.119
  731TIP3   OH2 2198   4.266   3.958   3.322
  731TIP3    H1 2199   4.270   4.052   3.334
  731TIP3    H2 2200   4.277   3.944   3.228
  732TIP3   OH2 2201   1.854   1.490   4.262
  732TIP3    H1 2202   1.777   1.442   4.229
  732TIP3    H2 2203   1.928   1.446   4.220
  733TIP3   OH2 2204   5.361   3.307   2.286
  733TIP3    H1 2205   5.456   3.307   2.276
  733TIP3    H2 2206   5.344   3.244   2.356
  734TIP3   OH2 2207   6.229   3.841   3.096
  734TIP3    H1 2208   6.143   3.878   3.113
  734TIP3    H2 2209   6.252   3.874   3.008
  735TIP3   OH2 2210   5.059   0.923   2.289
  735TIP3    H1 2211   5.139   0.918   2.236
  735TIP3    H2 2212   5.018   0.837   2.279
  736TIP3   OH2 2213   0.622   0.248   2.458
  736TIP3    H1 2214   0.563   0.190   2.409
  736TIP3    H2 2215   0.565   0.305   2.508
  737TIP3   OH2 2216   2.688   5.159   2.279
  737TIP3    H1 2217   2.738   5.129   2.203
  737TIP3    H2 2218   2.618   5.095   2.288
  738TIP3   OH2 2219   5.180   3.076   0.394
  738TIP3    H1 2220   5.106   3.053   0.449
  738TIP3    H2 2221   5.186   3.004   0.330
  739TIP3   OH2 2222   2.336   4.877   0.714
  739TIP3    H1 2223   2.256   4.866   0.663
  739TIP3    H2 2224   2.388   4.800   0.693
  740TIP3   OH2 2225   3.003   5.112   2.392
  740TIP3    H1 2226   3.006   5.034   2.448
  740TIP3    H2 2227   2.973   5.079   2.307
  741TIP3   OH2 2228   2.688   1.258   1.284
  741TIP3    H1 2229   2.594   1.251   1.299
  741TIP3    H2 2230   2.706   1.196   1.213
  742TIP3   OH2 2231   5.330   0.022   4.672
  742TIP3    H1 2232   5.335   0.114   4.645
  742TIP3    H2 2233   5.411   0.006   4.720
  743TIP3   OH2 2234   6.253   3.333   0.908
  743TIP3    H1 2235   6.181   3.390   0.937
  743TIP3    H2 2236   6.290   3.299   0.989
  744TIP3   OH2 2237   1.005   4.634   0.686
  744TIP3    H1 2238   1.043   4.655   0.600
  744TIP3    H2 2239   0.972   4.544   0.675
  745TIP3   OH2 2240   5.514   1.375   1.008
  745TIP3    H1 2241   5.558   1.294   0.985
  745TIP3    H2 2242   5.490   1.364   1.100
  746TIP3   OH2 2243   2.167   3.397   3.784
  746TIP3    H1 2244   2.259   3.402   3.810
  746TIP3    H2 2245   2.149   3.481   3.743
  747TIP3   OH2 2246   1.766   2.996   1.310
  747TIP3    H1 2247   1.761   2.949   1.393
  747TIP3    H2 2248   1.679   3.033   1.299
  748TIP3   OH2 2249   1.720   0.562   5.145
  748TIP3    H1 2250   1.633   0.524   5.157
  748TIP3    H2 2251   1.715   0.646   5.190
  749TIP3   OH2 2252   3.912   3.915  -0.012
  749TIP3    H1 2253   3.953   3.996   0.018
  749TIP3    H2 2254   3.818   3.928   0.003
  750TIP3   OH2 2255   5.291   3.828   0.991
  750TIP3    H1 2256   5.272   3.814   1.083
  750TIP3    H2 2257   5.208   3.857   0.953
  751TIP3   OH2 2258   6.225   0.703   0.396
  751TIP3    H1 2259   6.268   0.618   0.406
  751TIP3    H2 2260   6.259   0.736   0.313
  752TIP3   OH2 2261   5.705   4.001   1.661
  752TIP3    H1 2262   5.670   4.008   1.750
  752TIP3    H2 2263   5.760   3.923   1.663
  753TIP3   OH2 2264   4.170   2.205   4.473
  753TIP3    H1 2265   4.100   2.163   4.523
  753TIP3    H2 2266   4.248   2.152   4.491
  754TIP3   OH2 2267   1.611   5.500   5.093
  754TIP3    H1 2268   1.603   5.512   5.188
  754TIP3    H2 2269   1.523   5.479   5.064
  755TIP3   OH2 2270   0.535   5.141   1.717
  755TIP3    H1 2271   0.526   5.117   1.809
  755TIP3    H2 2272   0.628   5.133   1.699
  756TIP3   OH2 2273   4.355   2.240   4.911
  756TIP3    H1 2274   4.313   2.320   4.941
  756TIP3    H2 2275   4.367   2.252   4.817
  757TIP3   OH2 2276   4.589   3.182   4.197
  757TIP3    H1 2277   4.537   3.103   4.181
  757TIP3    H2 2278   4.525   3.247   4.225
  758TIP3   OH2 2279   2.798   5.337   2.058
  758TIP3    H1 2280   2.870   5.301   2.006
  758TIP3    H2 2281   2.835   5.347   2.146
  759TIP3   OH2 2282   6.219   1.182   1.199
  759TIP3    H1 2283   6.158   1.156   1.130
  759TIP3    H2 2284   6.299   1.131   1.180
  760TIP3   OH2 2285   2.562   4.038   5.082
  760TIP3    H1 2286   2.526   4.049   4.994
  760TIP3    H2 2287   2.532   3.951   5.110
  761TIP3   OH2 2288   1.971   2.730   4.769
  761TIP3    H1 2289   1.882   2.753   4.797
  761TIP3    H2 2290   2.018   2.714   4.851
  762TIP3   OH2 2291   2.533   5.463   3.440
  762TIP3    H1 2292   2.458   5.475   3.381
  762TIP3    H2 2293   2.609   5.459   3.382
  763TIP3   OH2 2294   3.687   3.343   4.443
  763TIP3    H1 2295   3.683   3.426   4.396
  763TIP3    H2 2296   3.700   3.277   4.375
  764TIP3   OH2 2297   6.010   0.150   1.670
  764TIP3    H1 2298   5.943   0.160   1.737
  764TIP3    H2 2299   5.972   0.089   1.607
  765TIP3   OH2 2300   0.373   2.785   4.290
  765TIP3    H1 2301   0.283   2.771   4.260
  765TIP3    H2 2302   0.387   2.716   4.355
  766TIP3   OH2 2303   0.804   1.675   2.145
  766TIP3    H1 2304   0.726   1.669   2.090
  766TIP3    H2 2305   0.799   1.598   2.202
  767TIP3   OH2 2306   0.132   2.567   2.026
  767TIP3    H1 2307   0.068   2.566   2.097
  767TIP3    H2 2308   0.086   2.529   1.951
  768TIP3   OH2 2309   2.662   5.685   4.649
  768TIP3    H1 2310   2.698   5.678   4.561
  768TIP3    H2 2311   2.724   5.741   4.696
  769TIP3   OH2 2312   1.789   3.786   0.326
  769TIP3    H1 2313   1.859   3.763   0.388
  769TIP3    H2 2314   1.763   3.702   0.288
  770TIP3   OH2 2315   2.365   3.109   1.935
  770TIP3    H1 2316   2.449   3.150   1.914
  770TIP3    H2 2317   2.365   3.028   1.885
  771TIP3   OH2 2318   1.160   0.014   1.223
  771TIP3    H1 2319   1.154   0.106   1.250
  771TIP3    H2 2320   1.215  -0.026   1.290
  772TIP3   OH2 2321   3.303   0.650   2.045
  772TIP3    H1 2322   3.285   0.743   2.031
  772TIP3    H2 2323   3.332   0.646   2.136
  773TIP3   OH2 2324   0.299   1.549   3.428
  773TIP3    H1 2325   0.382   1.503   3.430
  773TIP3    H2 2326   0.321   1.641   3.441
  774TIP3   OH2 2327   4.818   1.604   4.831
  774TIP3    H1 2328   4.811   1.509   4.827
  774TIP3    H2 2329   4.912   1.621   4.838
  775TIP3   OH2 2330   6.203   2.437   2.994
  775TIP3    H1 2331   6.183   2.387   3.073
  775TIP3    H2 2332   6.221   2.371   2.927
  776TIP3   OH2 2333   0.818   4.833   0.596
  776TIP3    H1 2334   0.889   4.898   0.595
  776TIP3    H2 2335   0.860   4.753   0.627
  777TIP3   OH2 2336   6.172   0.666   4.540
  777TIP3    H1 2337   6.262   0.633   4.550
  777TIP3    H2 2338   6.182   0.747   4.491
  778TIP3   OH2 2339   4.209   3.558   1.321
  778TIP3    H1 2340   4.114   3.561   1.309
  778TIP3    H2 2341   4.221   3.534   1.413
  779TIP3   OH2 2342   5.717   1.741   5.038
  779TIP3    H1 2343   5.720   1.654   5.079
  779TIP3    H2 2344   5.765   1.798   5.099
  780TIP3   OH2 2345   4.737   5.001   3.454
  780TIP3    H1 2346   4.751   4.926   3.512
  780TIP3    H2 2347   4.660   4.977   3.403
  781TIP3   OH2 2348   0.119   2.595   3.543
  781TIP3    H1 2349   0.111   2.666   3.479
  781TIP3    H2 2350   0.081   2.630   3.623
  782TIP3   OH2 2351   6.055   4.954   3.145
  782TIP3    H1 2352   5.966   4.922   3.164
  782TIP3    H2 2353   6.090   4.891   3.082
  783TIP3   OH2 2354   1.634   4.150   0.127
  783TIP3    H1 2355   1.658   4.058   0.127
  783TIP3    H2 2356   1.603   4.168   0.216
  784TIP3   OH2 2357   2.420   2.923   0.277
  784TIP3    H1 2358   2.405   2.902   0.185
  784TIP3    H2 2359   2.440   3.017   0.277
  785TIP3   OH2 2360   2.918   5.906   0.152
  785TIP3    H1 2361   3.010   5.923   0.133
  785TIP3    H2 2362   2.918   5.822   0.197
  786TIP3   OH2 2363   3.614   4.866   4.473
  786TIP3    H1 2364   3.691   4.922   4.463
  786TIP3    H2 2365   3.552   4.899   4.407
  787TIP3   OH2 2366   3.245   4.859   4.600
  787TIP3    H1 2367   3.155   4.853   4.632
  787TIP3    H2 2368   3.237   4.862   4.505
  788TIP3   OH2 2369   0.776   2.743   3.837
  788TIP3    H1 2370   0.728   2.744   3.919
  788TIP3    H2 2371   0.834   2.668   3.843
  789TIP3   OH2 2372   0.226   3.679   3.571
  789TIP3    H1 2373   0.227   3.656   3.664
  789TIP3    H2 2374   0.317   3.667   3.542
  790TIP3   OH2 2375   4.502   0.005   2.370
  790TIP3    H1 2376   4.567   0.073   2.350
  790TIP3    H2 2377   4.484  -0.036   2.285
  791TIP3   OH2 2378   4.844   3.476   0.149
  791TIP3    H1 2379   4.884   3.412   0.207
  791TIP3    H2 2380   4.813   3.546   0.207
  792TIP3   OH2 2381   6.151   0.244   4.739
  792TIP3    H1 2382   6.228   0.198   4.772
  792TIP3    H2 2383   6.077   0.198   4.778
  793TIP3   OH2 2384   1.238   5.548   3.780
  793TIP3    H1 2385   1.182   5.490   3.728
  793TIP3    H2 2386   1.251   5.502   3.863
  794TIP3   OH2 2387   4.673   3.834   2.292
  794TIP3    H1 2388   4.685   3.810   2.384
  794TIP3    H2 2389   4.662   3.751   2.246
  795TIP3   OH2 2390   6.159   5.445   1.956
  795TIP3    H1 2391   6.227   5.458   1.890
  795TIP3    H2 2392   6.163   5.351   1.975
  796TIP3   OH2 2393   6.058   4.068   2.778
  796TIP3    H1 2394   6.067   4.099   2.868
  796TIP3    H2 2395   5.977   4.017   2.778
  797TIP3   OH2 2396   5.728   5.971   2.857
  797TIP3    H1 2397   5.782   6.019   2.919
  797TIP3    H2 2398   5.732   5.880   2.887
  798TIP3   OH2 2399   2.047   4.871   3.122
  798TIP3    H1 2400   2.016   4.797   3.069
  798TIP3    H2 2401   1.982   4.940   3.107
  799TIP3   OH2 2402   3.551   3.217   0.093
  799TIP3    H1 2403   3.483   3.152   0.073
  799TIP3    H2 2404   3.546   3.229   0.187
  800TIP3   OH2 2405   5.108   2.964   0.114
  800TIP3    H1 2406   5.164   3.040   0.097
  800TIP3    H2 2407   5.160   2.908   0.171
  801TIP3   OH2 2408   6.304   5.079   0.690
  801TIP3    H1 2409   6.332   5.169   0.672
  801TIP3    H2 2410   6.347   5.027   0.622
  802TIP3   OH2 2411   2.754   4.221   0.083
  802TIP3    H1 2412   2.705   4.295   0.047
  802TIP3    H2 2413   2.788   4.175   0.007
  803TIP3   OH2 2414   5.919   2.388   0.188
  803TIP3    H1 2415   5.845   2.449   0.184
  803TIP3    H2 2416   5.881   2.303   0.168
  804TIP3   OH2 2417   5.158   2.951   4.580
  804TIP3    H1 2418   5.093   2.994   4.525
  804TIP3    H2 2419   5.219   3.021   4.604
  805TIP3   OH2 2420   0.115   3.901   0.152
  805TIP3    H1 2421   0.097   3.976   0.210
  805TIP3    H2 2422   0.203   3.871   0.179
  806TIP3   OH2 2423   0.289   2.317   1.875
  806TIP3    H1 2424   0.313   2.224   1.875
  806TIP3    H2 2425   0.280   2.339   1.968
  807TIP3   OH2 2426   3.486   1.915   2.667
  807TIP3    H1 2427   3.408   1.872   2.702
  807TIP3    H2 2428   3.492   1.997   2.716
  808TIP3   OH2 2429   5.644  -0.019   4.087
  808TIP3    H1 2430   5.616   0.070   4.105
  808TIP3    H2 2431   5.740  -0.015   4.094
  809TIP3   OH2 2432   3.986   1.991   2.677
  809TIP3    H1 2433   3.984   1.895   2.681
  809TIP3    H2 2434   3.995   2.019   2.768
  810TIP3   OH2 2435   3.251   4.450   1.298
  810TIP3    H1 2436   3.212   4.373   1.256
  810TIP3    H2 2437   3.335   4.461   1.254
  811TIP3   OH2 2438   4.339   0.738   4.415
  811TIP3    H1 2439   4.323   0.811   4.475
  811TIP3    H2 2440   4.261   0.683   4.422
  812TIP3   OH2 2441   2.791   3.156   1.626
  812TIP3    H1 2442   2.747   3.089   1.679
  812TIP3    H2 2443   2.818   3.223   1.688
  813TIP3   OH2 2444   6.247   2.946   3.009
  813TIP3    H1 2445   6.283   2.860   3.032
  813TIP3    H2 2446   6.162   2.950   3.053
  814TIP3   OH2 2447   5.132   4.194   2.359
  814TIP3    H1 2448   5.052   4.242   2.335
  814TIP3    H2 2449   5.104   4.103   2.361
  815TIP3   OH2 2450   4.063   4.604   2.451
  815TIP3    H1 2451   4.122   4.565   2.517
  815TIP3    H2 2452   4.005   4.660   2.502
  816TIP3   OH2 2453   2.911   1.162   2.698
  816TIP3    H1 2454   2.844   1.101   2.667
  816TIP3    H2 2455   2.865   1.246   2.704
  817TIP3   OH2 2456   0.536   4.519   4.829
  817TIP3    H1 2457   0.559   4.603   4.787
  817TIP3    H2 2458   0.466   4.484   4.774
  818TIP3   OH2 2459   4.085   2.151   4.735
  818TIP3    H1 2460   4.013   2.214   4.745
  818TIP3    H2 2461   4.158   2.192   4.782
  819TIP3   OH2 2462   5.102   5.362   3.333
  819TIP3    H1 2463   5.075   5.272   3.319
  819TIP3    H2 2464   5.034   5.400   3.389
  820TIP3   OH2 2465   3.211   1.108   4.447
  820TIP3    H1 2466   3.254   1.041   4.500
  820TIP3    H2 2467   3.144   1.145   4.504
  821TIP3   OH2 2468   4.514   0.662   4.603
  821TIP3    H1 2469   4.481   0.677   4.515
  821TIP3    H2 2470   4.609   0.675   4.596
  822TIP3   OH2 2471   2.154   3.058   1.588
  822TIP3    H1 2472   2.167   3.122   1.518
  822TIP3    H2 2473   2.129   2.978   1.543
  823TIP3   OH2 2474   2.178   3.708   3.321
  823TIP3    H1 2475   2.155   3.736   3.409
  823TIP3    H2 2476   2.272   3.689   3.326
  824TIP3   OH2 2477   0.600   4.357   1.858
  824TIP3    H1 2478   0.633   4.372   1.947
  824TIP3    H2 2479   0.506   4.369   1.866
  825TIP3   OH2 2480   6.100   3.864   0.402
  825TIP3    H1 2481   6.027   3.805   0.419
  825TIP3    H2 2482   6.168   3.836   0.464
  826TIP3   OH2 2483   2.746   3.954   3.633
  826TIP3    H1 2484   2.749   3.862   3.608
  826TIP3    H2 2485   2.828   3.968   3.681
  827TIP3   OH2 2486   1.920   4.731   3.521
  827TIP3    H1 2487   1.918   4.672   3.446
  827TIP3    H2 2488   1.993   4.790   3.502
  828TIP3   OH2 2489   1.694   4.022   3.690
  828TIP3    H1 2490   1.661   4.030   3.600
  828TIP3    H2 2491   1.660   3.938   3.721
  829TIP3   OH2 2492   6.029   5.900   0.038
  829TIP3    H1 2493   6.075   5.885  -0.045
  829TIP3    H2 2494   6.065   5.982   0.071
  830TIP3   OH2 2495   1.892   5.785   4.049
  830TIP3    H1 2496   1.974   5.761   4.092
  830TIP3    H2 2497   1.863   5.704   4.007
  831TIP3   OH2 2498   1.917   3.389   1.397
  831TIP3    H1 2499   2.003   3.394   1.353
  831TIP3    H2 2500   1.925   3.447   1.472
  832TIP3   OH2 2501   5.271   4.835   0.763
  832TIP3    H1 2502   5.309   4.821   0.677
  832TIP3    H2 2503   5.233   4.922   0.759
  833TIP3   OH2 2504   0.412   0.449   3.802
  833TIP3    H1 2505   0.375   0.437   3.889
  833TIP3    H2 2506   0.391   0.539   3.778
  834TIP3   OH2 2507   1.878   2.170   0.576
  834TIP3    H1 2508   1.784   2.188   0.577
  834TIP3    H2 2509   1.886   2.086   0.532
  835TIP3   OH2 2510   4.213   4.089   1.929
  835TIP3    H1 2511   4.286   4.076   1.869
  835TIP3    H2 2512   4.207   4.007   1.978
  836TIP3   OH2 2513   1.985   3.989   1.281
  836TIP3    H1 2514   1.890   3.999   1.295
  836TIP3    H2 2515   2.023   3.996   1.368
  837TIP3   OH2 2516   0.901   0.070   1.459
  837TIP3    H1 2517   0.986   0.036   1.490
  837TIP3    H2 2518   0.924   0.129   1.387
  838TIP3   OH2 2519   5.015   4.160   1.158
  838TIP3    H1 2520   5.022   4.129   1.249
  838TIP3    H2 2521   5.091   4.217   1.146
  839TIP3   OH2 2522   3.333   4.442   0.756
  839TIP3    H1 2523   3.316   4.491   0.836
  839TIP3    H2 2524   3.291   4.357   0.770
  840TIP3   OH2 2525   2.627   0.870   4.942
  840TIP3    H1 2526   2.693   0.828   4.887
  840TIP3    H2 2527   2.599   0.801   5.002
  841TIP3   OH2 2528   1.361   1.090   0.807
  841TIP3    H1 2529   1.375   1.145   0.885
  841TIP3    H2 2530   1.427   1.021   0.815
  842TIP3   OH2 2531   5.607   2.726   0.983
  842TIP3    H1 2532   5.680   2.683   0.938
  842TIP3    H2 2533   5.543   2.656   0.998
  843TIP3   OH2 2534   3.112   4.782   1.895
  843TIP3    H1 2535   3.160   4.857   1.930
  843TIP3    H2 2536   3.178   4.713   1.888
  844TIP3   OH2 2537   3.889   2.317   1.413
  844TIP3    H1 2538   3.940   2.336   1.334
  844TIP3    H2 2539   3.953   2.289   1.477
  845TIP3   OH2 2540   1.548   5.527   4.069
  845TIP3    H1 2541   1.625   5.506   4.016
  845TIP3    H2 2542   1.579   5.593   4.132
  846TIP3   OH2 2543   5.769   0.848   0.562
  846TIP3    H1 2544   5.850   0.837   0.612
  846TIP3    H2 2545   5.765   0.941   0.543
  847TIP3   OH2 2546   1.315   5.691   0.026
  847TIP3    H1 2547   1.268   5.697   0.109
  847TIP3    H2 2548   1.283   5.766  -0.025
  848TIP3   OH2 2549   3.090   4.519   4.115
  848TIP3    H1 2550   3.034   4.539   4.039
  848TIP3    H2 2551   3.147   4.448   4.085
  849TIP3   OH2 2552   1.893   1.123   2.693
  849TIP3    H1 2553   1.970   1.141   2.640
  849TIP3    H2 2554   1.880   1.203   2.744
  850TIP3   OH2 2555   1.386   2.630   0.689
  850TIP3    H1 2556   1.434   2.625   0.606
  850TIP3    H2 2557   1.414   2.712   0.728
  851TIP3   OH2 2558   0.236   1.085   0.107
  851TIP3    H1 2559   0.295   1.010   0.110
  851TIP3    H2 2560   0.194   1.085   0.194
  852TIP3   OH2 2561   0.196   0.668   0.998
  852TIP3    H1 2562   0.137   0.744   0.997
  852TIP3    H2 2563   0.142   0.595   0.969
  853TIP3   OH2 2564   1.738   2.834   1.518
  853TIP3    H1 2565   1.660   2.817   1.572
  853TIP3    H2 2566   1.785   2.751   1.517
  854TIP3   OH2 2567   6.224   0.786   4.064
  854TIP3    H1 2568   6.198   0.878   4.066
  854TIP3    H2 2569   6.157   0.743   4.011
  855TIP3   OH2 2570   2.464   5.921  -0.005
  855TIP3    H1 2571   2.369   5.933   0.003
  855TIP3    H2 2572   2.495   5.911   0.085
  856TIP3   OH2 2573   1.066   2.333   4.523
  856TIP3    H1 2574   1.019   2.274   4.464
  856TIP3    H2 2575   1.137   2.280   4.559
  857TIP3   OH2 2576   0.104   2.914   2.050
  857TIP3    H1 2577   0.195   2.895   2.028
  857TIP3    H2 2578   0.058   2.831   2.040
  858TIP3   OH2 2579   1.569   0.860   1.415
  858TIP3    H1 2580   1.576   0.824   1.503
  858TIP3    H2 2581   1.574   0.955   1.427
  859TIP3   OH2 2582   2.123   0.645   1.103
  859TIP3    H1 2583   2.158   0.559   1.129
  859TIP3    H2 2584   2.178   0.708   1.150
  860TIP3   OH2 2585   2.523   0.354   1.495
  860TIP3    H1 2586   2.536   0.321   1.584
  860TIP3    H2 2587   2.610   0.381   1.466
  861TIP3   OH2 2588   1.298   0.995   1.409
  861TIP3    H1 2589   1.227   0.956   1.357
  861TIP3    H2 2590   1.356   0.922   1.429
  862TIP3   OH2 2591   6.058   5.325   2.430
  862TIP3    H1 2592   6.153   5.317   2.422
  862TIP3    H2 2593   6.032   5.250   2.483
  863TIP3   OH2 2594   0.255   0.761   0.644
  863TIP3    H1 2595   0.165   0.793   0.658
  863TIP3    H2 2596   0.249   0.667   0.658
  864TIP3   OH2 2597   2.227   4.674   4.096
  864TIP3    H1 2598   2.157   4.618   4.062
  864TIP3    H2 2599   2.185   4.760   4.105
  865TIP3   OH2 2600   2.142   1.282   3.291
  865TIP3    H1 2601   2.201   1.278   3.216
  865TIP3    H2 2602   2.055   1.272   3.254
  866TIP3   OH2 2603   5.209   1.720   3.156
  866TIP3    H1 2604   5.115   1.715   3.140
  866TIP3    H2 2605   5.244   1.640   3.116
  867TIP3   OH2 2606   4.289   2.305   3.790
  867TIP3    H1 2607   4.287   2.229   3.849
  867TIP3    H2 2608   4.293   2.268   3.702
  868TIP3   OH2 2609   5.906   3.820   2.194
  868TIP3    H1 2610   5.891   3.915   2.186
  868TIP3    H2 2611   5.828   3.787   2.237
  869TIP3   OH2 2612   0.483   2.039   3.179
  869TIP3    H1 2613   0.431   2.015   3.102
  869TIP3    H2 2614   0.482   2.135   3.180
  870TIP3   OH2 2615   3.104   4.795   0.629
  870TIP3    H1 2616   3.160   4.865   0.594
  870TIP3    H2 2617   3.112   4.724   0.566
  871TIP3   OH2 2618   6.271   0.403   4.061
  871TIP3    H1 2619   6.183   0.438   4.075
  871TIP3    H2 2620   6.263   0.350   3.982
  872TIP3   OH2 2621   4.358   0.095   3.659
  872TIP3    H1 2622   4.324   0.093   3.569
  872TIP3    H2 2623   4.433   0.036   3.657
  873TIP3   OH2 2624   0.981   5.133   4.113
  873TIP3    H1 2625   0.945   5.220   4.102
  873TIP3    H2 2626   0.905   5.075   4.118
  874TIP3   OH2 2627   6.087   5.639   4.267
  874TIP3    H1 2628   6.061   5.626   4.175
  874TIP3    H2 2629   6.142   5.718   4.265
  875TIP3   OH2 2630   5.002   0.211   4.577
  875TIP3    H1 2631   5.002   0.136   4.637
  875TIP3    H2 2632   5.089   0.250   4.589
  876TIP3   OH2 2633   4.230   5.305   0.587
  876TIP3    H1 2634   4.219   5.399   0.599
  876TIP3    H2 2635   4.141   5.269   0.588
  877TIP3   OH2 2636   1.277   5.530   1.806
  877TIP3    H1 2637   1.220   5.537   1.729
  877TIP3    H2 2638   1.331   5.453   1.789
  878TIP3   OH2 2639   0.430   2.296   3.064
  878TIP3    H1 2640   0.346   2.339   3.052
  878TIP3    H2 2641   0.494   2.363   3.041
  879TIP3   OH2 2642   5.840   3.131   0.026
  879TIP3    H1 2643   5.896   3.054   0.039
  879TIP3    H2 2644   5.806   3.151   0.114
  880TIP3   OH2 2645   2.351   5.040   3.872
  880TIP3    H1 2646   2.294   4.964   3.882
  880TIP3    H2 2647   2.365   5.071   3.962
  881TIP3   OH2 2648   4.034   0.784   0.891
  881TIP3    H1 2649   4.095   0.755   0.959
  881TIP3    H2 2650   4.003   0.703   0.851
  882TIP3   OH2 2651   3.661   1.278   2.200
  882TIP3    H1 2652   3.645   1.366   2.235
  882TIP3    H2 2653   3.649   1.287   2.106
  883TIP3   OH2 2654   0.470   1.722   2.823
  883TIP3    H1 2655   0.440   1.658   2.759
  883TIP3    H2 2656   0.561   1.697   2.840
  884TIP3   OH2 2657   6.149   5.436   0.126
  884TIP3    H1 2658   6.093   5.423   0.049
  884TIP3    H2 2659   6.117   5.372   0.190
  885TIP3   OH2 2660   5.458   2.134   2.178
  885TIP3    H1 2661   5.465   2.040   2.195
  885TIP3    H2 2662   5.372   2.158   2.211
  886TIP3   OH2 2663   1.861   3.002   4.441
  886TIP3    H1 2664   1.853   2.986   4.535
  886TIP3    H2 2665   1.932   2.944   4.413
  887TIP3   OH2 2666   2.730   1.305   0.494
  887TIP3    H1 2667   2.786   1.373   0.531
  887TIP3    H2 2668   2.656   1.353   0.457
  888TIP3   OH2 2669   5.014   3.707   5.158
  888TIP3    H1 2670   5.003   3.787   5.107
  888TIP3    H2 2671   4.925   3.672   5.166
  889TIP3   OH2 2672   4.817   4.733   4.177
  889TIP3    H1 2673   4.736   4.729   4.228
  889TIP3    H2 2674   4.802   4.672   4.104
  890TIP3   OH2 2675   1.677   2.435   0.653
  890TIP3    H1 2676   1.632   2.362   0.609
  890TIP3    H2 2677   1.752   2.454   0.598
  891TIP3   OH2 2678   4.290   3.466   0.064
  891TIP3    H1 2679   4.255   3.386   0.026
  891TIP3    H2 2680   4.221   3.498   0.121
  892TIP3   OH2 2681   5.067   4.208   4.288
  892TIP3    H1 2682   5.147   4.218   4.236
  892TIP3    H2 2683   5.019   4.137   4.245
  893TIP3   OH2 2684   0.801   5.969   4.425
  893TIP3    H1 2685   0.739   5.980   4.498
  893TIP3    H2 2686   0.745   5.962   4.348
  894TIP3   OH2 2687   2.489   1.926   0.320
  894TIP3    H1 2688   2.517   1.998   0.377
  894TIP3    H2 2689   2.514   1.847   0.367
  895TIP3   OH2 2690   0.923   3.189   4.420
  895TIP3    H1 2691   0.854   3.254   4.428
  895TIP3    H2 2692   0.958   3.179   4.508
  896TIP3   OH2 2693   3.708   5.093   3.642
  896TIP3    H1 2694   3.757   5.152   3.698
  896TIP3    H2 2695   3.618   5.099   3.672
  897TIP3   OH2 2696   3.111   2.790   0.988
  897TIP3    H1 2697   3.197   2.748   0.993
  897TIP3    H2 2698   3.115   2.861   1.052
  898TIP3   OH2 2699   5.145   1.031   1.732
  898TIP3    H1 2700   5.135   1.101   1.797
  898TIP3    H2 2701   5.057   1.016   1.699
  899TIP3   OH2 2702   1.001   5.184   2.298
  899TIP3    H1 2703   1.045   5.248   2.242
  899TIP3    H2 2704   0.925   5.230   2.332
  900TIP3   OH2 2705   6.094   2.262   4.510
  900TIP3    H1 2706   6.188   2.244   4.510
  900TIP3    H2 2707   6.064   2.229   4.594
  901TIP3   OH2 2708   1.914   4.316   1.430
  901TIP3    H1 2709   1.950   4.284   1.347
  901TIP3    H2 2710   1.975   4.284   1.497
  902TIP3   OH2 2711   5.388   3.160   3.725
  902TIP3    H1 2712   5.343   3.162   3.641
  902TIP3    H2 2713   5.386   3.069   3.752
  903TIP3   OH2 2714   1.451   4.347   3.068
  903TIP3    H1 2715   1.502   4.294   3.007
  903TIP3    H2 2716   1.375   4.375   3.017
  904TIP3   OH2 2717   5.238   2.471   2.195
  904TIP3    H1 2718   5.331   2.475   2.176
  904TIP3    H2 2719   5.226   2.390   2.244
  905TIP3   OH2 2720   5.780   5.100   0.787
  905TIP3    H1 2721   5.856   5.087   0.844
  905TIP3    H2 2722   5.737   5.179   0.820
  906TIP3   OH2 2723   1.807   4.070   1.729
  906TIP3    H1 2724   1.863   4.147   1.745
  906TIP3    H2 2725   1.831   4.009   1.799
  907TIP3   OH2 2726   2.506   2.510   4.346
  907TIP3    H1 2727   2.522   2.603   4.330
  907TIP3    H2 2728   2.502   2.472   4.258
  908TIP3   OH2 2729   2.135   1.607   2.083
  908TIP3    H1 2730   2.205   1.636   2.140
  908TIP3    H2 2731   2.172   1.532   2.035
  909TIP3   OH2 2732   5.056   3.433   1.260
  909TIP3    H1 2733   5.034   3.351   1.305
  909TIP3    H2 2734   4.977   3.487   1.271
  910TIP3   OH2 2735   5.033   1.381   4.660
  910TIP3    H1 2736   5.014   1.453   4.600
  910TIP3    H2 2737   5.089   1.420   4.727
  911TIP3   OH2 2738   3.338   3.431   1.748
  911TIP3    H1 2739   3.390   3.477   1.814
  911TIP3    H2 2740   3.342   3.339   1.774
  912TIP3   OH2 2741   1.271   3.440   0.027
  912TIP3    H1 2742   1.227   3.506   0.081
  912TIP3    H2 2743   1.268   3.476  -0.062
  913TIP3   OH2 2744   4.726   2.361   5.002
  913TIP3    H1 2745   4.817   2.346   4.976
  913TIP3    H2 2746   4.708   2.291   5.065
  914TIP3   OH2 2747   5.385   1.885   3.275
  914TIP3    H1 2748   5.315   1.922   3.330
  914TIP3    H2 2749   5.348   1.803   3.242
  915TIP3   OH2 2750   2.207   1.095   1.292
  915TIP3    H1 2751   2.234   1.012   1.329
  915TIP3    H2 2752   2.251   1.099   1.207
  916TIP3   OH2 2753   0.153   3.801   4.884
  916TIP3    H1 2754   0.201   3.780   4.804
  916TIP3    H2 2755   0.111   3.885   4.864
  917TIP3   OH2 2756   2.217   0.389   4.559
  917TIP3    H1 2757   2.133   0.346   4.572
  917TIP3    H2 2758   2.220   0.409   4.465
  918TIP3   OH2 2759   2.467   1.429   4.584
  918TIP3    H1 2760   2.482   1.478   4.503
  918TIP3    H2 2761   2.471   1.337   4.557
  919TIP3   OH2 2762   0.122   2.016   3.857
  919TIP3    H1 2763   0.042   2.065   3.836
  919TIP3    H2 2764   0.145   2.045   3.945
  920TIP3   OH2 2765   6.323   1.763   0.762
  920TIP3    H1 2766   6.361   1.844   0.726
  920TIP3    H2 2767   6.367   1.751   0.846
  921TIP3   OH2 2768   5.837   1.503   0.756
  921TIP3    H1 2769   5.810   1.594   0.769
  921TIP3    H2 2770   5.923   1.498   0.798
  922TIP3   OH2 2771   5.597   1.702   1.435
  922TIP3    H1 2772   5.650   1.633   1.396
  922TIP3    H2 2773   5.518   1.705   1.381
  923TIP3   OH2 2774   0.082   4.766   4.318
  923TIP3    H1 2775   0.033   4.825   4.261
  923TIP3    H2 2776   0.128   4.707   4.258
  924TIP3   OH2 2777   1.162   3.760   2.614
  924TIP3    H1 2778   1.151   3.681   2.667
  924TIP3    H2 2779   1.080   3.808   2.623
  925TIP3   OH2 2780   4.510   5.499   4.906
  925TIP3    H1 2781   4.495   5.436   4.976
  925TIP3    H2 2782   4.497   5.449   4.825
  926TIP3   OH2 2783   4.839   3.266   2.721
  926TIP3    H1 2784   4.919   3.241   2.674
  926TIP3    H2 2785   4.871   3.315   2.797
  927TIP3   OH2 2786   4.990   3.848   3.825
  927TIP3    H1 2787   4.999   3.792   3.901
  927TIP3    H2 2788   4.895   3.853   3.810
  928TIP3   OH2 2789   5.216   4.045   1.719
  928TIP3    H1 2790   5.242   4.124   1.767
  928TIP3    H2 2791   5.136   4.016   1.763
  929TIP3   OH2 2792   2.400   1.988   1.833
  929TIP3    H1 2793   2.400   1.918   1.768
  929TIP3    H2 2794   2.479   2.039   1.814
  930TIP3   OH2 2795   0.775   2.547   2.825
  930TIP3    H1 2796   0.824   2.535   2.743
  930TIP3    H2 2797   0.741   2.636   2.820
  931TIP3   OH2 2798   5.516   1.932   2.465
  931TIP3    H1 2799   5.436   1.954   2.514
  931TIP3    H2 2800   5.567   1.878   2.526
  932TIP3   OH2 2801   3.252   1.233   3.887
  932TIP3    H1 2802   3.204   1.187   3.818
  932TIP3    H2 2803   3.251   1.172   3.961
  933TIP3   OH2 2804   5.549   3.461   4.158
  933TIP3    H1 2805   5.481   3.426   4.216
  933TIP3    H2 2806   5.622   3.482   4.216
  934TIP3   OH2 2807   1.907   5.015   3.811
  934TIP3    H1 2808   1.884   5.060   3.730
  934TIP3    H2 2809   2.001   4.999   3.804
  935TIP3   OH2 2810   4.835   3.285   4.296
  935TIP3    H1 2811   4.871   3.320   4.214
  935TIP3    H2 2812   4.757   3.238   4.269
  936TIP3   OH2 2813   5.632   1.483   1.660
  936TIP3    H1 2814   5.620   1.414   1.726
  936TIP3    H2 2815   5.562   1.467   1.596
  937TIP3   OH2 2816   0.297   1.362   2.803
  937TIP3    H1 2817   0.295   1.293   2.738
  937TIP3    H2 2818   0.390   1.384   2.812
  938TIP3   OH2 2819   3.132   2.107   4.760
  938TIP3    H1 2820   3.112   2.081   4.670
  938TIP3    H2 2821   3.129   2.025   4.809
  939TIP3   OH2 2822   3.772   1.843   1.737
  939TIP3    H1 2823   3.862   1.854   1.767
  939TIP3    H2 2824   3.763   1.904   1.664
  940TIP3   OH2 2825   5.437   3.648   2.977
  940TIP3    H1 2826   5.359   3.613   3.020
  940TIP3    H2 2827   5.507   3.587   3.000
  941TIP3   OH2 2828   4.643   4.456   2.026
  941TIP3    H1 2829   4.674   4.468   1.937
  941TIP3    H2 2830   4.698   4.513   2.079
  942TIP3   OH2 2831   0.046   5.249   2.477
  942TIP3    H1 2832   0.095   5.328   2.499
  942TIP3    H2 2833  -0.001   5.227   2.558
  943TIP3   OH2 2834   3.437   1.590   4.762
  943TIP3    H1 2835   3.386   1.594   4.843
  943TIP3    H2 2836   3.416   1.505   4.724
  944TIP3   OH2 2837   1.501   1.458   4.769
  944TIP3    H1 2838   1.532   1.512   4.841
  944TIP3    H2 2839   1.447   1.516   4.715
  945TIP3   OH2 2840   4.176   5.039   0.775
  945TIP3    H1 2841   4.269   5.063   0.782
  945TIP3    H2 2842   4.154   5.004   0.861
  946TIP3   OH2 2843   5.472   0.455   3.253
  946TIP3    H1 2844   5.516   0.521   3.199
  946TIP3    H2 2845   5.428   0.398   3.190
  947TIP3   OH2 2846   6.258   2.875   4.675
  947TIP3    H1 2847   6.185   2.821   4.705
  947TIP3    H2 2848   6.332   2.815   4.670
  948TIP3   OH2 2849   0.288   4.670   2.864
  948TIP3    H1 2850   0.214   4.617   2.894
  948TIP3    H2 2851   0.249   4.735   2.805
  949TIP3   OH2 2852   3.916   3.475   4.266
  949TIP3    H1 2853   3.884   3.505   4.181
  949TIP3    H2 2854   3.913   3.553   4.322
  950TIP3   OH2 2855   1.417   1.408   2.790
  950TIP3    H1 2856   1.498   1.358   2.801
  950TIP3    H2 2857   1.401   1.405   2.696
  951TIP3   OH2 2858   6.202   1.484   0.177
  951TIP3    H1 2859   6.279   1.481   0.235
  951TIP3    H2 2860   6.205   1.571   0.138
  952TIP3   OH2 2861   3.389   3.873   1.746
  952TIP3    H1 2862   3.365   3.821   1.823
  952TIP3    H2 2863   3.413   3.807   1.680
  953TIP3   OH2 2864   4.742   3.913   2.933
  953TIP3    H1 2865   4.657   3.950   2.907
  953TIP3    H2 2866   4.806   3.964   2.883
  954TIP3   OH2 2867   1.701   4.884   1.816
  954TIP3    H1 2868   1.757   4.809   1.795
  954TIP3    H2 2869   1.755   4.960   1.795
  955TIP3   OH2 2870   5.803   1.805   1.687
  955TIP3    H1 2871   5.765   1.748   1.753
  955TIP3    H2 2872   5.842   1.746   1.623
  956TIP3   OH2 2873   5.166   4.368   4.969
  956TIP3    H1 2874   5.145   4.453   5.007
  956TIP3    H2 2875   5.258   4.353   4.991
  957TIP3   OH2 2876   0.031   0.438   4.766
  957TIP3    H1 2877  -0.011   0.352   4.767
  957TIP3    H2 2878   0.060   0.450   4.676
  958TIP3   OH2 2879   0.281   2.077   5.114
  958TIP3    H1 2880   0.278   1.982   5.127
  958TIP3    H2 2881   0.228   2.113   5.185
  959TIP3   OH2 2882   3.221   5.727   2.222
  959TIP3    H1 2883   3.169   5.736   2.301
  959TIP3    H2 2884   3.165   5.761   2.152
  960TIP3   OH2 2885   4.698   1.188   2.236
  960TIP3    H1 2886   4.603   1.182   2.227
  960TIP3    H2 2887   4.727   1.099   2.252
  961TIP3   OH2 2888   3.361   0.152   3.187
  961TIP3    H1 2889   3.396   0.239   3.205
  961TIP3    H2 2890   3.422   0.092   3.231
  962TIP3   OH2 2891   0.214   4.338   3.282
  962TIP3    H1 2892   0.142   4.325   3.220
  962TIP3    H2 2893   0.241   4.250   3.307
  963TIP3   OH2 2894   3.425   4.277   4.929
  963TIP3    H1 2895   3.466   4.222   4.995
  963TIP3    H2 2896   3.398   4.217   4.861
  964TIP3   OH2 2897   0.040   0.982   1.172
  964TIP3    H1 2898   0.032   0.955   1.080
  964TIP3    H2 2899   0.025   0.902   1.222
  965TIP3   OH2 2900   4.647   1.790   2.211
  965TIP3    H1 2901   4.621   1.757   2.296
  965TIP3    H2 2902   4.743   1.798   2.216
  966TIP3   OH2 2903   2.526   1.161   3.357
  966TIP3    H1 2904   2.569   1.245   3.340
  966TIP3    H2 2905   2.589   1.095   3.328
  967TIP3   OH2 2906   4.317   2.320   3.133
  967TIP3    H1 2907   4.301   2.231   3.102
  967TIP3    H2 2908   4.372   2.309   3.210
  968TIP3   OH2 2909   4.120   5.274   0.077
  968TIP3    H1 2910   4.109   5.279   0.172
  968TIP3    H2 2911   4.180   5.200   0.064
  969TIP3   OH2 2912   3.693   3.095   4.279
  969TIP3    H1 2913   3.722   3.004   4.271
  969TIP3    H2 2914   3.745   3.142   4.213
  970TIP3   OH2 2915   3.871   2.425   0.569
  970TIP3    H1 2916   3.794   2.432   0.513
  970TIP3    H2 2917   3.857   2.345   0.620
  971TIP3   OH2 2918   0.860   2.138   3.709
  971TIP3    H1 2919   0.867   2.232   3.696
  971TIP3    H2 2920   0.772   2.115   3.679
  972TIP3   OH2 2921   3.492   0.564   3.715
  972TIP3    H1 2922   3.578   0.566   3.675
  972TIP3    H2 2923   3.496   0.628   3.786
  973TIP3   OH2 2924   0.461   2.072   1.277
  973TIP3    H1 2925   0.405   2.029   1.341
  973TIP3    H2 2926   0.490   2.152   1.321
  974TIP3   OH2 2927   1.876   0.639   2.793
  974TIP3    H1 2928   1.785   0.634   2.765
  974TIP3    H2 2929   1.919   0.565   2.750
  975TIP3   OH2 2930   4.737   3.908   3.764
  975TIP3    H1 2931   4.719   4.000   3.786
  975TIP3    H2 2932   4.655   3.863   3.785
  976TIP3   OH2 2933   5.517   3.266   3.236
  976TIP3    H1 2934   5.579   3.267   3.309
  976TIP3    H2 2935   5.475   3.181   3.241
  977TIP3   OH2 2936   2.348   1.959   2.101
  977TIP3    H1 2937   2.440   1.978   2.119
  977TIP3    H2 2938   2.336   1.985   2.009
  978TIP3   OH2 2939   1.871   2.211   0.016
  978TIP3    H1 2940   1.934   2.149   0.053
  978TIP3    H2 2941   1.825   2.162  -0.052
  979TIP3   OH2 2942   4.951   4.971   4.907
  979TIP3    H1 2943   4.950   4.890   4.959
  979TIP3    H2 2944   4.875   5.020   4.938
  980TIP3   OH2 2945   5.592   1.670   3.445
  980TIP3    H1 2946   5.557   1.598   3.393
  980TIP3    H2 2947   5.521   1.733   3.451
  981TIP3   OH2 2948   1.112   3.417   4.980
  981TIP3    H1 2949   1.120   3.377   4.894
  981TIP3    H2 2950   1.202   3.437   5.005
  982TIP3   OH2 2951   4.461   3.614   1.267
  982TIP3    H1 2952   4.366   3.604   1.261
  982TIP3    H2 2953   4.477   3.638   1.358
  983TIP3   OH2 2954   5.718   5.146   3.304
  983TIP3    H1 2955   5.740   5.126   3.213
  983TIP3    H2 2956   5.668   5.071   3.334
  984TIP3   OH2 2957   5.683   2.136   4.931
  984TIP3    H1 2958   5.771   2.131   4.970
  984TIP3    H2 2959   5.626   2.093   4.994
  985TIP3   OH2 2960   5.845   1.884   1.437
  985TIP3    H1 2961   5.818   1.914   1.524
  985TIP3    H2 2962   5.793   1.805   1.421
  986TIP3   OH2 2963   6.187   1.240   1.585
  986TIP3    H1 2964   6.221   1.151   1.575
  986TIP3    H2 2965   6.095   1.234   1.562
  987TIP3   OH2 2966   3.016   2.782   2.924
  987TIP3    H1 2967   2.957   2.764   2.851
  987TIP3    H2 2968   3.088   2.831   2.884
  988TIP3   OH2 2969   2.614   4.004   0.180
  988TIP3    H1 2970   2.553   3.983   0.109
  988TIP3    H2 2971   2.659   4.084   0.151
  989TIP3   OH2 2972   4.908   5.742   0.782
  989TIP3    H1 2973   4.901   5.672   0.717
  989TIP3    H2 2974   4.972   5.710   0.845
  990TIP3   OH2 2975   2.283   5.225   5.161
  990TIP3    H1 2976   2.349   5.286   5.130
  990TIP3    H2 2977   2.202   5.276   5.165
  991TIP3   OH2 2978   5.078   4.784   2.772
  991TIP3    H1 2979   5.052   4.784   2.680
  991TIP3    H2 2980   5.092   4.691   2.793
  992TIP3   OH2 2981   3.997   3.890   2.605
  992TIP3    H1 2982   3.934   3.931   2.546
  992TIP3    H2 2983   3.953   3.884   2.689
  993TIP3   OH2 2984   1.802   1.983   1.764
  993TIP3    H1 2985   1.721   1.934   1.757
  993TIP3    H2 2986   1.819   1.989   1.858
  994TIP3   OH2 2987   2.515   1.674   3.283
  994TIP3    H1 2988   2.451   1.604   3.293
  994TIP3    H2 2989   2.567   1.671   3.363
  995TIP3   OH2 2990   0.462   4.577   3.569
  995TIP3    H1 2991   0.525   4.628   3.621
  995TIP3    H2 2992   0.397   4.641   3.541
  996TIP3   OH2 2993   1.354   0.750   4.519
  996TIP3    H1 2994   1.437   0.739   4.566
  996TIP3    H2 2995   1.371   0.820   4.457
  997TIP3   OH2 2996   0.160   0.522   4.058
  997TIP3    H1 2997   0.210   0.443   4.039
  997TIP3    H2 2998   0.069   0.492   4.066
  998TIP3   OH2 2999   5.876   4.911   1.242
  998TIP3    H1 3000   5.815   4.848   1.280
  998TIP3    H2 3001   5.962   4.879   1.268
  999TIP3   OH2 3002   1.625   2.532   2.057
  999TIP3    H1 3003   1.563   2.541   2.129
  999TIP3    H2 3004   1.642   2.623   2.029
 1000TIP3   OH2 3005   2.743   3.834   3.155
 1000TIP3    H1 3006   2.727   3.879   3.239
 1000TIP3    H2 3007   2.700   3.749   3.165
 1001TIP3   OH2 3008   5.054   3.031   1.786
 1001TIP3    H1 3009   4.974   3.063   1.827
 1001TIP3    H2 3010   5.093   3.108   1.746
 1002TIP3   OH2 3011   3.596   0.677   4.332
 1002TIP3    H1 3012   3.643   0.753   4.367
 1002TIP3    H2 3013   3.663   0.626   4.287
 1003TIP3   OH2 3014   3.471   1.916   0.903
 1003TIP3    H1 3015   3.508   1.894   0.818
 1003TIP3    H2 3016   3.448   1.832   0.942
 1004TIP3   OH2 3017   2.878   5.780   1.691
 1004TIP3    H1 3018   2.867   5.704   1.747
 1004TIP3    H2 3019   2.821   5.763   1.616
 1005TIP3   OH2 3020   1.604   5.773   4.211
 1005TIP3    H1 3021   1.527   5.819   4.180
 1005TIP3    H2 3022   1.589   5.761   4.305
 1006TIP3   OH2 3023   2.885   1.402   0.856
 1006TIP3    H1 3024   2.799   1.411   0.896
 1006TIP3    H2 3025   2.931   1.482   0.879
 1007TIP3   OH2 3026   5.934   1.054   3.778
 1007TIP3    H1 3027   5.937   0.970   3.731
 1007TIP3    H2 3028   5.987   1.112   3.724
 1008TIP3   OH2 3029   2.943   4.152   0.930
 1008TIP3    H1 3030   2.921   4.240   0.900
 1008TIP3    H2 3031   2.860   4.114   0.959
 1009TIP3   OH2 3032   1.620   2.221   2.586
 1009TIP3    H1 3033   1.681   2.188   2.521
 1009TIP3    H2 3034   1.548   2.158   2.587
 1010TIP3   OH2 3035   3.135   2.935   4.004
 1010TIP3    H1 3036   3.126   2.856   3.951
 1010TIP3    H2 3037   3.181   2.907   4.083
 1011TIP3   OH2 3038   2.529   5.750   0.237
 1011TIP3    H1 3039   2.526   5.724   0.330
 1011TIP3    H2 3040   2.604   5.703   0.202
 1012TIP3   OH2 3041   2.866   3.931   1.426
 1012TIP3    H1 3042   2.885   3.892   1.512
 1012TIP3    H2 3043   2.893   4.022   1.435
 1013TIP3   OH2 3044   0.893   2.520   1.033
 1013TIP3    H1 3045   0.967   2.581   1.031
 1013TIP3    H2 3046   0.934   2.434   1.030
 1014TIP3   OH2 3047   5.365   2.769   3.100
 1014TIP3    H1 3048   5.299   2.806   3.158
 1014TIP3    H2 3049   5.336   2.792   3.012
 1015TIP3   OH2 3050   3.693   3.285   3.705
 1015TIP3    H1 3051   3.625   3.331   3.656
 1015TIP3    H2 3052   3.733   3.226   3.641
 1016TIP3   OH2 3053   3.728   4.818   0.182
 1016TIP3    H1 3054   3.704   4.904   0.217
 1016TIP3    H2 3055   3.773   4.837   0.100
 1017TIP3   OH2 3056   4.672   1.653   5.064
 1017TIP3    H1 3057   4.644   1.562   5.057
 1017TIP3    H2 3058   4.738   1.664   4.995
 1018TIP3   OH2 3059   2.204   0.399   2.620
 1018TIP3    H1 3060   2.232   0.309   2.606
 1018TIP3    H2 3061   2.114   0.392   2.652
 1019TIP3   OH2 3062   1.758   2.502   3.197
 1019TIP3    H1 3063   1.799   2.588   3.191
 1019TIP3    H2 3064   1.730   2.496   3.289
 1020TIP3   OH2 3065   5.513   3.969   2.228
 1020TIP3    H1 3066   5.420   3.955   2.210
 1020TIP3    H2 3067   5.546   3.884   2.255
 1021TIP3   OH2 3068   5.725   2.604   0.136
 1021TIP3    H1 3069   5.716   2.696   0.162
 1021TIP3    H2 3070   5.638   2.567   0.150
 1022TIP3   OH2 3071   2.522   1.477   2.015
 1022TIP3    H1 3072   2.480   1.523   1.942
 1022TIP3    H2 3073   2.454   1.420   2.050
 1023TIP3   OH2 3074   5.804   5.849   1.398
 1023TIP3    H1 3075   5.826   5.892   1.315
 1023TIP3    H2 3076   5.869   5.884   1.460
 1024TIP3   OH2 3077   5.977   0.139   1.344
 1024TIP3    H1 3078   6.058   0.155   1.393
 1024TIP3    H2 3079   6.005   0.131   1.253
 1025TIP3   OH2 3080   2.843   5.922   3.390
 1025TIP3    H1 3081   2.875   5.833   3.407
 1025TIP3    H2 3082   2.866   5.971   3.469
 1026TIP3   OH2 3083   2.286   1.450   0.951
 1026TIP3    H1 3084   2.302   1.444   1.045
 1026TIP3    H2 3085   2.220   1.383   0.933
 1027TIP3   OH2 3086   5.975   0.447   1.783
 1027TIP3    H1 3087   6.066   0.420   1.795
 1027TIP3    H2 3088   5.974   0.540   1.807
 1028TIP3   OH2 3089   2.031   3.811   1.715
 1028TIP3    H1 3090   2.065   3.857   1.792
 1028TIP3    H2 3091   2.044   3.873   1.643
 1029TIP3   OH2 3092   3.594   5.562   0.160
 1029TIP3    H1 3093   3.565   5.494   0.220
 1029TIP3    H2 3094   3.513   5.603   0.129
 1030TIP3   OH2 3095   4.521   5.983   0.034
 1030TIP3    H1 3096   4.608   5.952   0.009
 1030TIP3    H2 3097   4.462   5.915   0.003
 1031TIP3   OH2 3098   2.529   3.084   0.053
 1031TIP3    H1 3099   2.488   3.004   0.020
 1031TIP3    H2 3100   2.622   3.073   0.033
 1032TIP3   OH2 3101   1.090   2.535   1.626
 1032TIP3    H1 3102   1.090   2.449   1.585
 1032TIP3    H2 3103   1.182   2.563   1.623
 1033TIP3   OH2 3104   4.255   1.905   2.176
 1033TIP3    H1 3105   4.293   1.982   2.219
 1033TIP3    H2 3106   4.186   1.876   2.236
 1034TIP3   OH2 3107   3.659   1.883   0.374
 1034TIP3    H1 3108   3.650   1.826   0.298
 1034TIP3    H2 3109   3.582   1.941   0.371
 1035TIP3   OH2 3110   1.438   2.229   3.546
 1035TIP3    H1 3111   1.428   2.324   3.548
 1035TIP3    H2 3112   1.401   2.199   3.629
 1036TIP3   OH2 3113   5.743   3.044   1.630
 1036TIP3    H1 3114   5.674   3.031   1.565
 1036TIP3    H2 3115   5.822   3.061   1.578
 1037TIP3   OH2 3116   2.642   5.086   4.023
 1037TIP3    H1 3117   2.631   5.180   4.039
 1037TIP3    H2 3118   2.565   5.046   4.063
 1038TIP3   OH2 3119   5.817   4.513   3.503
 1038TIP3    H1 3120   5.837   4.606   3.493
 1038TIP3    H2 3121   5.738   4.500   3.451
 1039TIP3   OH2 3122   3.525   5.772   4.883
 1039TIP3    H1 3123   3.480   5.857   4.885
 1039TIP3    H2 3124   3.519   5.743   4.792
 1040TIP3   OH2 3125   5.502   5.799   3.679
 1040TIP3    H1 3126   5.487   5.812   3.585
 1040TIP3    H2 3127   5.574   5.736   3.683
 1041TIP3   OH2 3128   1.891   0.177   4.944
 1041TIP3    H1 3129   1.833   0.219   4.880
 1041TIP3    H2 3130   1.871   0.083   4.937
 1042TIP3   OH2 3131   5.059   0.888   2.807
 1042TIP3    H1 3132   5.064   0.864   2.899
 1042TIP3    H2 3133   5.046   0.983   2.807
 1043TIP3   OH2 3134   1.475   1.541   1.635
 1043TIP3    H1 3135   1.391   1.581   1.658
 1043TIP3    H2 3136   1.485   1.468   1.697
 1044TIP3   OH2 3137   4.210   1.359   5.029
 1044TIP3    H1 3138   4.128   1.386   4.987
 1044TIP3    H2 3139   4.197   1.382   5.121
 1045TIP3   OH2 3140   5.574   3.215   3.981
 1045TIP3    H1 3141   5.568   3.288   4.043
 1045TIP3    H2 3142   5.494   3.222   3.929
 1046TIP3   OH2 3143   1.407   5.389   1.368
 1046TIP3    H1 3144   1.482   5.363   1.315
 1046TIP3    H2 3145   1.445   5.445   1.437
 1047TIP3   OH2 3146   5.857   0.839   3.604
 1047TIP3    H1 3147   5.899   0.755   3.587
 1047TIP3    H2 3148   5.785   0.843   3.540
 1048TIP3   OH2 3149   1.115   5.806   3.846
 1048TIP3    H1 3150   1.177   5.732   3.841
 1048TIP3    H2 3151   1.065   5.801   3.764
 1049TIP3   OH2 3152   0.509   4.156   1.664
 1049TIP3    H1 3153   0.484   4.237   1.620
 1049TIP3    H2 3154   0.550   4.102   1.596
 1050TIP3   OH2 3155   3.140   0.508   3.318
 1050TIP3    H1 3156   3.099   0.574   3.263
 1050TIP3    H2 3157   3.075   0.439   3.326
 1051TIP3   OH2 3158   0.546   4.063   2.808
 1051TIP3    H1 3159   0.458   4.080   2.773
 1051TIP3    H2 3160   0.557   3.969   2.798
 1052TIP3   OH2 3161   2.439   5.030   2.666
 1052TIP3    H1 3162   2.381   5.061   2.597
 1052TIP3    H2 3163   2.418   5.085   2.742
 1053TIP3   OH2 3164   1.624   3.389   2.261
 1053TIP3    H1 3165   1.699   3.438   2.295
 1053TIP3    H2 3166   1.557   3.398   2.330
 1054TIP3   OH2 3167   1.876   5.566   3.721
 1054TIP3    H1 3168   1.807   5.537   3.661
 1054TIP3    H2 3169   1.938   5.612   3.665
 1055TIP3   OH2 3170   1.115   1.394   2.359
 1055TIP3    H1 3171   1.081   1.321   2.411
 1055TIP3    H2 3172   1.071   1.385   2.274
 1056TIP3   OH2 3173   5.063   5.093   3.039
 1056TIP3    H1 3174   5.000   5.030   3.003
 1056TIP3    H2 3175   5.017   5.133   3.113
 1057TIP3   OH2 3176   5.641   0.244   4.979
 1057TIP3    H1 3177   5.711   0.178   4.982
 1057TIP3    H2 3178   5.681   0.319   4.935
 1058TIP3   OH2 3179   1.414   4.077   0.344
 1058TIP3    H1 3180   1.470   4.018   0.393
 1058TIP3    H2 3181   1.403   4.153   0.401
 1059TIP3   OH2 3182   5.842   1.334   3.485
 1059TIP3    H1 3183   5.760   1.348   3.436
 1059TIP3    H2 3184   5.858   1.417   3.529
 1060TIP3   OH2 3185   0.167   3.182   1.439
 1060TIP3    H1 3186   0.165   3.272   1.471
 1060TIP3    H2 3187   0.259   3.164   1.422
 1061TIP3   OH2 3188   5.944   5.086   2.532
 1061TIP3    H1 3189   5.878   5.128   2.587
 1061TIP3    H2 3190   5.938   4.993   2.555
 1062TIP3   OH2 3191   4.442   4.078   4.325
 1062TIP3    H1 3192   4.447   4.167   4.290
 1062TIP3    H2 3193   4.523   4.067   4.374
 1063TIP3   OH2 3194   0.502   2.783   0.417
 1063TIP3    H1 3195   0.443   2.720   0.459
 1063TIP3    H2 3196   0.521   2.744   0.331
 1064TIP3   OH2 3197   3.546   5.125   5.014
 1064TIP3    H1 3198   3.504   5.047   4.977
 1064TIP3    H2 3199   3.508   5.134   5.101
 1065TIP3   OH2 3200   1.816   5.598   4.326
 1065TIP3    H1 3201   1.771   5.650   4.259
 1065TIP3    H2 3202   1.893   5.649   4.350
 1066TIP3   OH2 3203   4.500   1.898   2.943
 1066TIP3    H1 3204   4.563   1.842   2.988
 1066TIP3    H2 3205   4.550   1.975   2.918
 1067TIP3   OH2 3206   5.106   1.009   4.348
 1067TIP3    H1 3207   5.014   1.000   4.320
 1067TIP3    H2 3208   5.117   1.103   4.362
 1068TIP3   OH2 3209   2.034   3.614   1.097
 1068TIP3    H1 3210   1.987   3.535   1.069
 1068TIP3    H2 3211   1.996   3.636   1.181
 1069TIP3   OH2 3212   4.898   2.864   3.011
 1069TIP3    H1 3213   4.851   2.874   2.928
 1069TIP3    H2 3214   4.848   2.797   3.059
 1070TIP3   OH2 3215   5.251   3.376   2.912
 1070TIP3    H1 3216   5.327   3.328   2.878
 1070TIP3    H2 3217   5.187   3.308   2.933
 1071TIP3   OH2 3218   1.329   3.170   2.722
 1071TIP3    H1 3219   1.311   3.170   2.628
 1071TIP3    H2 3220   1.364   3.083   2.740
 1072TIP3   OH2 3221   2.231   5.415   4.339
 1072TIP3    H1 3222   2.169   5.471   4.293
 1072TIP3    H2 3223   2.194   5.405   4.427
 1073TIP3   OH2 3224   4.363   3.818   0.294
 1073TIP3    H1 3225   4.278   3.852   0.267
 1073TIP3    H2 3226   4.361   3.820   0.390
 1074TIP3   OH2 3227   0.828   3.914   4.538
 1074TIP3    H1 3228   0.858   3.939   4.625
 1074TIP3    H2 3229   0.760   3.978   4.516
 1075TIP3   OH2 3230   1.530   4.015   3.469
 1075TIP3    H1 3231   1.459   4.022   3.533
 1075TIP3    H2 3232   1.487   4.021   3.384
 1076TIP3   OH2 3233   3.799   3.555   4.019
 1076TIP3    H1 3234   3.743   3.604   3.959
 1076TIP3    H2 3235   3.865   3.515   3.963
 1077TIP3   OH2 3236   0.701   3.696   1.198
 1077TIP3    H1 3237   0.632   3.739   1.149
 1077TIP3    H2 3238   0.751   3.648   1.132
 1078TIP3   OH2 3239   4.277   2.704   1.320
 1078TIP3    H1 3240   4.357   2.750   1.294
 1078TIP3    H2 3241   4.242   2.757   1.392
 1079TIP3   OH2 3242   4.684   2.619   1.692
 1079TIP3    H1 3243   4.743   2.690   1.667
 1079TIP3    H2 3244   4.726   2.578   1.767
 1080TIP3   OH2 3245   5.116   4.855   1.499
 1080TIP3    H1 3246   5.085   4.939   1.533
 1080TIP3    H2 3247   5.192   4.878   1.445
 1081TIP3   OH2 3248   4.161   1.899   4.162
 1081TIP3    H1 3249   4.192   1.872   4.249
 1081TIP3    H2 3250   4.181   1.824   4.105
 1082TIP3   OH2 3251   2.491   0.249   0.862
 1082TIP3    H1 3252   2.472   0.215   0.949
 1082TIP3    H2 3253   2.411   0.233   0.812
 1083TIP3   OH2 3254   1.223   4.802   1.386
 1083TIP3    H1 3255   1.231   4.721   1.437
 1083TIP3    H2 3256   1.136   4.799   1.348
 1084TIP3   OH2 3257   4.107   3.891   0.232
 1084TIP3    H1 3258   4.090   3.872   0.324
 1084TIP3    H2 3259   4.068   3.818   0.184
 1085TIP3   OH2 3260   4.169   5.420   2.836
 1085TIP3    H1 3261   4.082   5.429   2.799
 1085TIP3    H2 3262   4.225   5.474   2.780
 1086TIP3   OH2 3263   3.330   1.550   2.904
 1086TIP3    H1 3264   3.421   1.551   2.935
 1086TIP3    H2 3265   3.278   1.572   2.982
 1087TIP3   OH2 3266   2.959   5.645   0.237
 1087TIP3    H1 3267   3.003   5.572   0.279
 1087TIP3    H2 3268   2.868   5.616   0.226
 1088TIP3   OH2 3269   1.734   5.913   5.058
 1088TIP3    H1 3270   1.765   5.824   5.072
 1088TIP3    H2 3271   1.810   5.960   5.024
 1089TIP3   OH2 3272   4.345   0.909   2.734
 1089TIP3    H1 3273   4.412   0.950   2.679
 1089TIP3    H2 3274   4.268   0.903   2.678
 1090TIP3   OH2 3275   3.838   3.700   0.497
 1090TIP3    H1 3276   3.876   3.624   0.453
 1090TIP3    H2 3277   3.784   3.742   0.430
 1091TIP3   OH2 3278   1.599   1.544   3.547
 1091TIP3    H1 3279   1.588   1.604   3.474
 1091TIP3    H2 3280   1.660   1.478   3.516
 1092TIP3   OH2 3281   5.180   3.213   4.196
 1092TIP3    H1 3282   5.250   3.156   4.228
 1092TIP3    H2 3283   5.104   3.191   4.249
 1093TIP3   OH2 3284   3.106   0.919   4.993
 1093TIP3    H1 3285   3.040   0.876   5.048
 1093TIP3    H2 3286   3.182   0.929   5.050
 1094TIP3   OH2 3287   1.869   2.526   0.469
 1094TIP3    H1 3288   1.873   2.552   0.377
 1094TIP3    H2 3289   1.929   2.586   0.514
 1095TIP3   OH2 3290   5.209   4.545   2.561
 1095TIP3    H1 3291   5.246   4.632   2.546
 1095TIP3    H2 3292   5.115   4.557   2.553
 1096TIP3   OH2 3293   3.264   5.891   5.080
 1096TIP3    H1 3294   3.228   5.844   5.004
 1096TIP3    H2 3295   3.211   5.861   5.154
 1097TIP3   OH2 3296   5.259   5.383   3.732
 1097TIP3    H1 3297   5.235   5.433   3.810
 1097TIP3    H2 3298   5.262   5.448   3.662
 1098TIP3   OH2 3299   1.581   0.104   1.217
 1098TIP3    H1 3300   1.581   0.168   1.146
 1098TIP3    H2 3301   1.650   0.043   1.195
 1099TIP3   OH2 3302   1.481   0.452   5.131
 1099TIP3    H1 3303   1.409   0.512   5.148
 1099TIP3    H2 3304   1.472   0.383   5.196
 1100TIP3   OH2 3305   5.251   2.043   3.890
 1100TIP3    H1 3306   5.188   2.102   3.848
 1100TIP3    H2 3307   5.302   2.007   3.818
 1101TIP3   OH2 3308   3.931   0.649   2.212
 1101TIP3    H1 3309   3.841   0.678   2.198
 1101TIP3    H2 3310   3.975   0.667   2.128
 1102TIP3   OH2 3311   1.739   3.403   0.840
 1102TIP3    H1 3312   1.779   3.425   0.756
 1102TIP3    H2 3313   1.658   3.357   0.816
 1103TIP3   OH2 3314   0.955   5.505   0.897
 1103TIP3    H1 3315   0.920   5.562   0.828
 1103TIP3    H2 3316   0.964   5.562   0.973
 1104TIP3   OH2 3317   0.425   3.109   1.319
 1104TIP3    H1 3318   0.433   3.119   1.224
 1104TIP3    H2 3319   0.448   3.017   1.335
 1105TIP3   OH2 3320   4.552   1.542   3.406
 1105TIP3    H1 3321   4.641   1.510   3.387
 1105TIP3    H2 3322   4.542   1.528   3.501
 1106TIP3   OH2 3323   1.739   5.349   1.625
 1106TIP3    H1 3324   1.743   5.322   1.534
 1106TIP3    H2 3325   1.736   5.444   1.622
 1107TIP3   OH2 3326   5.155   3.288   3.322
 1107TIP3    H1 3327   5.134   3.313   3.412
 1107TIP3    H2 3328   5.169   3.370   3.276
 1108TIP3   OH2 3329   1.729   0.200   3.998
 1108TIP3    H1 3330   1.794   0.182   4.066
 1108TIP3    H2 3331   1.781   0.209   3.918
 1109TIP3   OH2 3332   5.055   4.784   2.496
 1109TIP3    H1 3333   4.959   4.787   2.492
 1109TIP3    H2 3334   5.083   4.833   2.418
 1110TIP3   OH2 3335   3.609   0.898   1.051
 1110TIP3    H1 3336   3.548   0.885   0.977
 1110TIP3    H2 3337   3.613   0.814   1.095
 1111TIP3   OH2 3338   3.064   5.287   0.606
 1111TIP3    H1 3339   2.981   5.264   0.648
 1111TIP3    H2 3340   3.111   5.203   0.600
 1112TIP3   OH2 3341   4.730   4.541   1.779
 1112TIP3    H1 3342   4.786   4.618   1.785
 1112TIP3    H2 3343   4.789   4.472   1.747
 1113TIP3   OH2 3344   0.659   2.821   2.730
 1113TIP3    H1 3345   0.731   2.799   2.670
 1113TIP3    H2 3346   0.612   2.891   2.686
 1114TIP3   OH2 3347   2.817   0.793   2.388
 1114TIP3    H1 3348   2.801   0.883   2.360
 1114TIP3    H2 3349   2.741   0.744   2.356
 1115TIP3   OH2 3350   0.675   1.846   0.054
 1115TIP3    H1 3351   0.621   1.787   0.001
 1115TIP3    H2 3352   0.612   1.894   0.108
 1116TIP3   OH2 3353   3.514   1.760   4.276
 1116TIP3    H1 3354   3.521   1.836   4.333
 1116TIP3    H2 3355   3.516   1.797   4.187
 1117TIP3   OH2 3356   3.337   1.815   3.141
 1117TIP3    H1 3357   3.252   1.804   3.182
 1117TIP3    H2 3358   3.334   1.904   3.104
 1118TIP3   OH2 3359   1.098   5.276   0.316
 1118TIP3    H1 3360   1.143   5.202   0.276
 1118TIP3    H2 3361   1.052   5.319   0.244
 1119TIP3   OH2 3362   5.743   1.692   1.939
 1119TIP3    H1 3363   5.676   1.637   1.980
 1119TIP3    H2 3364   5.793   1.727   2.013
 1120TIP3   OH2 3365   5.130   4.881   1.796
 1120TIP3    H1 3366   5.197   4.836   1.745
 1120TIP3    H2 3367   5.139   4.973   1.771
 1121TIP3   OH2 3368   3.956   4.421   3.086
 1121TIP3    H1 3369   3.962   4.398   3.178
 1121TIP3    H2 3370   3.980   4.514   3.083
 1122TIP3   OH2 3371   0.602   4.184   3.430
 1122TIP3    H1 3372   0.604   4.280   3.434
 1122TIP3    H2 3373   0.651   4.162   3.351
 1123TIP3   OH2 3374   0.070   1.415   1.572
 1123TIP3    H1 3375  -0.022   1.390   1.585
 1123TIP3    H2 3376   0.120   1.344   1.613
 1124TIP3   OH2 3377   6.019   2.984   0.562
 1124TIP3    H1 3378   6.007   2.890   0.580
 1124TIP3    H2 3379   6.114   2.993   0.550
 1125TIP3   OH2 3380   0.660   0.985   4.422
 1125TIP3    H1 3381   0.567   0.992   4.401
 1125TIP3    H2 3382   0.704   0.990   4.337
 1126TIP3   OH2 3383   1.073   2.344   3.206
 1126TIP3    H1 3384   1.017   2.311   3.276
 1126TIP3    H2 3385   1.151   2.289   3.210
 1127TIP3   OH2 3386   0.382   0.343   4.372
 1127TIP3    H1 3387   0.363   0.436   4.386
 1127TIP3    H2 3388   0.461   0.343   4.318
 1128TIP3   OH2 3389   6.280   5.675   3.816
 1128TIP3    H1 3390   6.313   5.617   3.747
 1128TIP3    H2 3391   6.310   5.635   3.898
 1129TIP3   OH2 3392   0.543   0.318   0.985
 1129TIP3    H1 3393   0.510   0.355   1.067
 1129TIP3    H2 3394   0.553   0.394   0.927
 1130TIP3   OH2 3395   0.605   3.727   4.292
 1130TIP3    H1 3396   0.654   3.809   4.285
 1130TIP3    H2 3397   0.580   3.722   4.384
 1131TIP3   OH2 3398   1.217   3.672   0.171
 1131TIP3    H1 3399   1.287   3.713   0.221
 1131TIP3    H2 3400   1.143   3.732   0.180
 1132TIP3   OH2 3401   3.999   1.187   4.136
 1132TIP3    H1 3402   4.058   1.148   4.200
 1132TIP3    H2 3403   3.983   1.118   4.072
 1133TIP3   OH2 3404   3.535   0.339   1.345
 1133TIP3    H1 3405   3.518   0.433   1.350
 1133TIP3    H2 3406   3.501   0.313   1.260
 1134TIP3   OH2 3407   1.596   1.590   0.496
 1134TIP3    H1 3408   1.574   1.676   0.461
 1134TIP3    H2 3409   1.514   1.557   0.532
 1135TIP3   OH2 3410   5.543   2.832   4.022
 1135TIP3    H1 3411   5.464   2.880   3.998
 1135TIP3    H2 3412   5.601   2.844   3.947
 1136TIP3   OH2 3413   3.236   1.946   3.408
 1136TIP3    H1 3414   3.251   1.942   3.503
 1136TIP3    H2 3415   3.323   1.933   3.370
 1137TIP3   OH2 3416   4.294   4.981   3.774
 1137TIP3    H1 3417   4.263   5.011   3.688
 1137TIP3    H2 3418   4.223   4.926   3.807
 1138TIP3   OH2 3419   1.454   2.624   2.315
 1138TIP3    H1 3420   1.373   2.609   2.364
 1138TIP3    H2 3421   1.496   2.538   2.310
 1139TIP3   OH2 3422   4.799   3.269   1.555
 1139TIP3    H1 3423   4.757   3.355   1.548
 1139TIP3    H2 3424   4.770   3.235   1.640
 1140TIP3   OH2 3425   0.341   3.045   3.422
 1140TIP3    H1 3426   0.369   2.995   3.346
 1140TIP3    H2 3427   0.270   2.993   3.460
 1141TIP3   OH2 3428   2.839   4.389   5.074
 1141TIP3    H1 3429   2.787   4.406   4.996
 1141TIP3    H2 3430   2.906   4.457   5.074
 1142TIP3   OH2 3431   4.631   4.042   4.083
 1142TIP3    H1 3432   4.572   4.092   4.139
 1142TIP3    H2 3433   4.624   3.952   4.114
 1143TIP3   OH2 3434   1.119   4.661   0.424
 1143TIP3    H1 3435   1.147   4.569   0.426
 1143TIP3    H2 3436   1.037   4.660   0.376
 1144TIP3   OH2 3437   5.681   4.827   2.778
 1144TIP3    H1 3438   5.619   4.873   2.722
 1144TIP3    H2 3439   5.626   4.772   2.835
 1145TIP3   OH2 3440   2.966   3.950   0.116
 1145TIP3    H1 3441   2.981   4.013   0.186
 1145TIP3    H2 3442   2.940   4.002   0.041
 1146TIP3   OH2 3443   1.347   3.735   2.194
 1146TIP3    H1 3444   1.406   3.805   2.165
 1146TIP3    H2 3445   1.260   3.775   2.195
 1147TIP3   OH2 3446   1.129   2.526   0.586
 1147TIP3    H1 3447   1.209   2.566   0.621
 1147TIP3    H2 3448   1.058   2.576   0.626
 1148TIP3   OH2 3449   0.391   2.513   3.436
 1148TIP3    H1 3450   0.316   2.475   3.482
 1148TIP3    H2 3451   0.457   2.523   3.505
 1149TIP3   OH2 3452   0.683   3.838   2.437
 1149TIP3    H1 3453   0.596   3.867   2.465
 1149TIP3    H2 3454   0.669   3.748   2.408
 1150TIP3   OH2 3455   3.112   1.782   1.121
 1150TIP3    H1 3456   3.093   1.717   1.188
 1150TIP3    H2 3457   3.208   1.785   1.116
 1151TIP3   OH2 3458   1.792   3.309   3.765
 1151TIP3    H1 3459   1.870   3.281   3.717
 1151TIP3    H2 3460   1.779   3.241   3.832
 1152TIP3   OH2 3461   0.736   1.673   1.643
 1152TIP3    H1 3462   0.787   1.597   1.671
 1152TIP3    H2 3463   0.663   1.636   1.593
 1153TIP3   OH2 3464   4.657   0.460   4.388
 1153TIP3    H1 3465   4.573   0.462   4.343
 1153TIP3    H2 3466   4.705   0.534   4.352
 1154TIP3   OH2 3467   0.959   3.618   5.057
 1154TIP3    H1 3468   0.998   3.535   5.029
 1154TIP3    H2 3469   0.976   3.678   4.984
 1155TIP3   OH2 3470   5.601   4.653   1.542
 1155TIP3    H1 3471   5.646   4.682   1.462
 1155TIP3    H2 3472   5.558   4.732   1.576
 1156TIP3   OH2 3473   4.073   4.732   4.093
 1156TIP3    H1 3474   4.050   4.811   4.044
 1156TIP3    H2 3475   4.027   4.662   4.047
 1157TIP3   OH2 3476   1.259   0.567   3.263
 1157TIP3    H1 3477   1.304   0.633   3.316
 1157TIP3    H2 3478   1.289   0.584   3.173
 1158TIP3   OH2 3479   0.578   2.524   3.033
 1158TIP3    H1 3480   0.537   2.599   2.991
 1158TIP3    H2 3481   0.655   2.506   2.979
 1159TIP3   OH2 3482   3.944   3.564   1.200
 1159TIP3    H1 3483   3.971   3.656   1.193
 1159TIP3    H2 3484   3.873   3.555   1.136
 1160TIP3   OH2 3485   2.082   4.889   0.585
 1160TIP3    H1 3486   2.053   4.980   0.583
 1160TIP3    H2 3487   2.096   4.866   0.493
 1161TIP3   OH2 3488   2.590   3.023   0.515
 1161TIP3    H1 3489   2.598   3.105   0.468
 1161TIP3    H2 3490   2.517   3.037   0.576
 1162TIP3   OH2 3491   0.875   4.126   1.299
 1162TIP3    H1 3492   0.807   4.131   1.233
 1162TIP3    H2 3493   0.919   4.043   1.282
 1163TIP3   OH2 3494   1.281   0.240   3.153
 1163TIP3    H1 3495   1.369   0.208   3.170
 1163TIP3    H2 3496   1.254   0.280   3.236
 1164TIP3   OH2 3497   1.535   1.568   2.997
 1164TIP3    H1 3498   1.501   1.543   2.911
 1164TIP3    H2 3499   1.496   1.654   3.014
 1165TIP3   OH2 3500   2.138   5.289   0.310
 1165TIP3    H1 3501   2.116   5.230   0.238
 1165TIP3    H2 3502   2.223   5.258   0.341
 1166TIP3   OH2 3503   0.696   5.521   2.311
 1166TIP3    H1 3504   0.603   5.539   2.321
 1166TIP3    H2 3505   0.733   5.603   2.276
 1167TIP3   OH2 3506   3.194   2.646   4.681
 1167TIP3    H1 3507   3.129   2.712   4.705
 1167TIP3    H2 3508   3.151   2.562   4.697
 1168TIP3   OH2 3509   6.212   4.479   0.884
 1168TIP3    H1 3510   6.278   4.415   0.909
 1168TIP3    H2 3511   6.224   4.551   0.945
 1169TIP3   OH2 3512   0.482   3.632   0.425
 1169TIP3    H1 3513   0.483   3.602   0.334
 1169TIP3    H2 3514   0.551   3.699   0.428
 1170TIP3   OH2 3515   0.077   1.703   2.016
 1170TIP3    H1 3516   0.114   1.746   1.939
 1170TIP3    H2 3517   0.028   1.629   1.981
 1171TIP3   OH2 3518   3.877   4.803   3.237
 1171TIP3    H1 3519   3.902   4.752   3.161
 1171TIP3    H2 3520   3.956   4.803   3.292
 1172TIP3   OH2 3521   4.068   5.233   3.036
 1172TIP3    H1 3522   4.096   5.149   3.000
 1172TIP3    H2 3523   4.087   5.296   2.966
 1173TIP3   OH2 3524   2.868   2.517   4.667
 1173TIP3    H1 3525   2.868   2.437   4.615
 1173TIP3    H2 3526   2.881   2.487   4.757
 1174TIP3   OH2 3527   2.046   4.041   2.127
 1174TIP3    H1 3528   2.127   3.990   2.126
 1174TIP3    H2 3529   1.991   3.999   2.060
 1175TIP3   OH2 3530   0.579   4.008   1.194
 1175TIP3    H1 3531   0.538   3.929   1.159
 1175TIP3    H2 3532   0.579   3.995   1.289
 1176TIP3   OH2 3533   1.892   2.938   3.279
 1176TIP3    H1 3534   1.889   2.943   3.374
 1176TIP3    H2 3535   1.818   2.991   3.250
 1177TIP3   OH2 3536   5.893   3.118   3.027
 1177TIP3    H1 3537   5.944   3.042   3.054
 1177TIP3    H2 3538   5.802   3.095   3.046
 1178TIP3   OH2 3539   5.493   1.243   2.293
 1178TIP3    H1 3540   5.514   1.152   2.314
 1178TIP3    H2 3541   5.572   1.277   2.251
 1179TIP3   OH2 3542   6.319   4.354   3.167
 1179TIP3    H1 3543   6.260   4.337   3.241
 1179TIP3    H2 3544   6.341   4.447   3.175
 1180TIP3   OH2 3545   4.931   1.849   4.270
 1180TIP3    H1 3546   4.977   1.849   4.186
 1180TIP3    H2 3547   4.883   1.766   4.271
 1181TIP3   OH2 3548   4.019   4.920   5.197
 1181TIP3    H1 3549   4.015   4.965   5.113
 1181TIP3    H2 3550   4.027   4.827   5.174
 1182TIP3   OH2 3551   0.186   3.398   4.524
 1182TIP3    H1 3552   0.262   3.418   4.579
 1182TIP3    H2 3553   0.133   3.477   4.527
 1183TIP3   OH2 3554   4.026   1.871   1.799
 1183TIP3    H1 3555   4.056   1.900   1.713
 1183TIP3    H2 3556   4.094   1.811   1.830
 1184TIP3   OH2 3557   5.561   5.645   1.114
 1184TIP3    H1 3558   5.647   5.665   1.152
 1184TIP3    H2 3559   5.571   5.663   1.021
 1185TIP3   OH2 3560   1.170   5.606   3.040
 1185TIP3    H1 3561   1.134   5.694   3.028
 1185TIP3    H2 3562   1.099   5.557   3.080
 1186TIP3   OH2 3563   0.536   2.245   1.522
 1186TIP3    H1 3564   0.522   2.236   1.616
 1186TIP3    H2 3565   0.489   2.325   1.498
 1187TIP3   OH2 3566   5.153   4.096   3.866
 1187TIP3    H1 3567   5.150   4.123   3.958
 1187TIP3    H2 3568   5.121   4.006   3.866
 1188TIP3   OH2 3569   5.148   2.919   2.397
 1188TIP3    H1 3570   5.113   2.932   2.485
 1188TIP3    H2 3571   5.102   2.841   2.364
 1189TIP3   OH2 3572   1.498   0.167   3.569
 1189TIP3    H1 3573   1.511   0.204   3.656
 1189TIP3    H2 3574   1.545   0.084   3.571
 1190TIP3   OH2 3575   3.795   4.722   2.105
 1190TIP3    H1 3576   3.860   4.666   2.063
 1190TIP3    H2 3577   3.722   4.662   2.126
 1191TIP3   OH2 3578   5.697   4.085   5.043
 1191TIP3    H1 3579   5.746   4.100   4.962
 1191TIP3    H2 3580   5.716   3.995   5.066
 1192TIP3   OH2 3581   0.626   0.703   1.998
 1192TIP3    H1 3582   0.694   0.721   1.933
 1192TIP3    H2 3583   0.635   0.609   2.016
 1193TIP3   OH2 3584   2.042   4.227   0.966
 1193TIP3    H1 3585   2.098   4.305   0.967
 1193TIP3    H2 3586   2.104   4.154   0.963
 1194TIP3   OH2 3587   4.265   3.413   1.008
 1194TIP3    H1 3588   4.245   3.505   1.026
 1194TIP3    H2 3589   4.275   3.409   0.913
 1195TIP3   OH2 3590   5.981   4.731   3.859
 1195TIP3    H1 3591   6.010   4.790   3.789
 1195TIP3    H2 3592   5.893   4.763   3.881
 1196TIP3   OH2 3593   4.981   1.756   2.491
 1196TIP3    H1 3594   5.030   1.691   2.542
 1196TIP3    H2 3595   5.037   1.774   2.415
 1197TIP3   OH2 3596   5.447   3.021   2.925
 1197TIP3    H1 3597   5.453   2.968   2.846
 1197TIP3    H2 3598   5.361   3.001   2.961
 1198TIP3   OH2 3599   0.218   5.149   2.085
 1198TIP3    H1 3600   0.141   5.188   2.125
 1198TIP3    H2 3601   0.292   5.188   2.131
 1199TIP3   OH2 3602   4.638   1.918   1.958
 1199TIP3    H1 3603   4.725   1.956   1.948
 1199TIP3    H2 3604   4.641   1.871   2.042
 1200TIP3   OH2 3605   2.804   0.810   0.945
 1200TIP3    H1 3606   2.805   0.881   0.881
 1200TIP3    H2 3607   2.861   0.742   0.908
 1201TIP3   OH2 3608   4.164   5.849   4.683
 1201TIP3    H1 3609   4.121   5.764   4.700
 1201TIP3    H2 3610   4.247   5.826   4.642
 1202TIP3   OH2 3611   0.301   0.131   1.043
 1202TIP3    H1 3612   0.227   0.108   0.987
 1202TIP3    H2 3613   0.349   0.197   0.993
 1203TIP3   OH2 3614   4.675   2.981   1.957
 1203TIP3    H1 3615   4.693   2.948   2.045
 1203TIP3    H2 3616   4.619   2.914   1.917
 1204TIP3   OH2 3617   5.418   3.461   2.571
 1204TIP3    H1 3618   5.476   3.526   2.610
 1204TIP3    H2 3619   5.452   3.377   2.602
 1205TIP3   OH2 3620   1.286   5.874   5.217
 1205TIP3    H1 3621   1.237   5.908   5.142
 1205TIP3    H2 3622   1.281   5.779   5.207
 1206TIP3   OH2 3623   5.430   2.223   1.858
 1206TIP3    H1 3624   5.518   2.244   1.826
 1206TIP3    H2 3625   5.384   2.306   1.858
 1207TIP3   OH2 3626   2.569   0.936   4.481
 1207TIP3    H1 3627   2.626   0.862   4.459
 1207TIP3    H2 3628   2.483   0.897   4.494
 1208TIP3   OH2 3629   0.618   2.086   0.226
 1208TIP3    H1 3630   0.641   2.158   0.167
 1208TIP3    H2 3631   0.569   2.128   0.297
 1209TIP3   OH2 3632   0.644   3.070   0.783
 1209TIP3    H1 3633   0.620   3.120   0.704
 1209TIP3    H2 3634   0.679   3.136   0.843
 1210TIP3   OH2 3635   6.057   3.242   2.325
 1210TIP3    H1 3636   5.996   3.263   2.254
 1210TIP3    H2 3637   6.137   3.291   2.302
 1211TIP3   OH2 3638   4.255   5.746   3.803
 1211TIP3    H1 3639   4.343   5.708   3.809
 1211TIP3    H2 3640   4.236   5.748   3.709
 1212TIP3   OH2 3641   3.334   2.425   3.609
 1212TIP3    H1 3642   3.355   2.516   3.632
 1212TIP3    H2 3643   3.258   2.403   3.664
 1213TIP3   OH2 3644   2.698   4.932   0.450
 1213TIP3    H1 3645   2.638   4.868   0.411
 1213TIP3    H2 3646   2.743   4.883   0.519
 1214TIP3   OH2 3647   0.611   0.240   4.013
 1214TIP3    H1 3648   0.656   0.321   4.039
 1214TIP3    H2 3649   0.677   0.192   3.963
 1215TIP3   OH2 3650   0.263   2.954   0.365
 1215TIP3    H1 3651   0.346   2.907   0.361
 1215TIP3    H2 3652   0.236   2.948   0.456
 1216TIP3   OH2 3653   5.930   3.805   2.629
 1216TIP3    H1 3654   5.865   3.873   2.608
 1216TIP3    H2 3655   5.886   3.750   2.694
 1217TIP3   OH2 3656   1.796   3.490   3.263
 1217TIP3    H1 3657   1.856   3.495   3.188
 1217TIP3    H2 3658   1.710   3.513   3.226
 1218TIP3   OH2 3659   2.991   1.695   4.229
 1218TIP3    H1 3660   3.072   1.703   4.279
 1218TIP3    H2 3661   3.000   1.611   4.183
 1219TIP3   OH2 3662   2.274   1.407   1.550
 1219TIP3    H1 3663   2.239   1.475   1.608
 1219TIP3    H2 3664   2.216   1.409   1.473
 1220TIP3   OH2 3665   3.699   3.076   1.269
 1220TIP3    H1 3666   3.732   3.028   1.192
 1220TIP3    H2 3667   3.700   3.011   1.339
 1221TIP3   OH2 3668   4.612   1.048   4.933
 1221TIP3    H1 3669   4.607   0.980   5.001
 1221TIP3    H2 3670   4.699   1.036   4.894
 1222TIP3   OH2 3671   5.483   5.015  -0.019
 1222TIP3    H1 3672   5.397   5.054  -0.035
 1222TIP3    H2 3673   5.519   5.064   0.055
 1223TIP3   OH2 3674   1.693   1.822   3.110
 1223TIP3    H1 3675   1.768   1.827   3.051
 1223TIP3    H2 3676   1.705   1.740   3.158
 1224TIP3   OH2 3677   1.136   2.304   3.501
 1224TIP3    H1 3678   1.206   2.369   3.502
 1224TIP3    H2 3679   1.080   2.327   3.575
 1225TIP3   OH2 3680   5.535   5.328   3.830
 1225TIP3    H1 3681   5.560   5.237   3.844
 1225TIP3    H2 3682   5.457   5.323   3.774
 1226TIP3   OH2 3683   6.098   1.461   0.843
 1226TIP3    H1 3684   6.176   1.425   0.801
 1226TIP3    H2 3685   6.129   1.498   0.926
 1227TIP3   OH2 3686   2.575   1.383   1.029
 1227TIP3    H1 3687   2.525   1.451   1.073
 1227TIP3    H2 3688   2.632   1.347   1.096
 1228TIP3   OH2 3689   0.174   2.115   3.151
 1228TIP3    H1 3690   0.200   2.202   3.120
 1228TIP3    H2 3691   0.170   2.125   3.247
 1229TIP3   OH2 3692   0.420   2.073   1.822
 1229TIP3    H1 3693   0.419   2.047   1.914
 1229TIP3    H2 3694   0.511   2.097   1.805
 1230TIP3   OH2 3695   5.728   0.535   4.592
 1230TIP3    H1 3696   5.738   0.449   4.550
 1230TIP3    H2 3697   5.684   0.589   4.527
 1231TIP3   OH2 3698   5.417   0.019   3.217
 1231TIP3    H1 3699   5.332   0.064   3.210
 1231TIP3    H2 3700   5.456   0.029   3.130
 1232TIP3   OH2 3701   2.427   2.436   0.767
 1232TIP3    H1 3702   2.357   2.472   0.711
 1232TIP3    H2 3703   2.405   2.343   0.775
 1233TIP3   OH2 3704   3.401   2.281   1.923
 1233TIP3    H1 3705   3.370   2.226   1.995
 1233TIP3    H2 3706   3.450   2.221   1.867
 1234TIP3   OH2 3707   6.328   0.327   3.041
 1234TIP3    H1 3708   6.269   0.253   3.028
 1234TIP3    H2 3709   6.279   0.387   3.098
 1235TIP3   OH2 3710   5.775   5.645   3.463
 1235TIP3    H1 3711   5.728   5.573   3.422
 1235TIP3    H2 3712   5.733   5.655   3.548
 1236TIP3   OH2 3713   2.243   1.588   3.551
 1236TIP3    H1 3714   2.298   1.557   3.478
 1236TIP3    H2 3715   2.160   1.612   3.509
 1237TIP3   OH2 3716   1.731   0.106   2.716
 1237TIP3    H1 3717   1.729   0.048   2.639
 1237TIP3    H2 3718   1.702   0.191   2.683
 1238TIP3   OH2 3719   5.275   0.769   4.797
 1238TIP3    H1 3720   5.198   0.796   4.848
 1238TIP3    H2 3721   5.337   0.841   4.808
 1239TIP3   OH2 3722   4.760   3.428   3.174
 1239TIP3    H1 3723   4.787   3.344   3.212
 1239TIP3    H2 3724   4.669   3.416   3.149
 1240TIP3   OH2 3725   1.628   2.157   0.858
 1240TIP3    H1 3726   1.688   2.164   0.932
 1240TIP3    H2 3727   1.593   2.245   0.847
 1241TIP3   OH2 3728   3.125   3.327   3.384
 1241TIP3    H1 3729   3.182   3.316   3.461
 1241TIP3    H2 3730   3.063   3.396   3.410
 1242TIP3   OH2 3731   2.094   5.160   0.822
 1242TIP3    H1 3732   2.071   5.175   0.731
 1242TIP3    H2 3733   2.085   5.066   0.835
 1243TIP3   OH2 3734   0.464   5.611   1.679
 1243TIP3    H1 3735   0.516   5.541   1.641
 1243TIP3    H2 3736   0.373   5.580   1.671
 1244TIP3   OH2 3737   0.184   2.356   2.991
 1244TIP3    H1 3738   0.099   2.399   3.000
 1244TIP3    H2 3739   0.183   2.319   2.902
 1245TIP3   OH2 3740   5.073   0.642   2.313
 1245TIP3    H1 3741   5.136   0.614   2.247
 1245TIP3    H2 3742   5.073   0.572   2.378
 1246TIP3   OH2 3743   5.718   1.529   3.098
 1246TIP3    H1 3744   5.732   1.624   3.106
 1246TIP3    H2 3745   5.804   1.490   3.114
 1247TIP3   OH2 3746   2.357   5.035   4.909
 1247TIP3    H1 3747   2.322   5.094   4.975
 1247TIP3    H2 3748   2.336   4.947   4.942
 1248TIP3   OH2 3749   0.933   1.884   2.717
 1248TIP3    H1 3750   0.953   1.948   2.785
 1248TIP3    H2 3751   0.839   1.891   2.703
 1249TIP3   OH2 3752   3.842   0.625   4.242
 1249TIP3    H1 3753   3.917   0.572   4.214
 1249TIP3    H2 3754   3.843   0.701   4.183
 1250TIP3   OH2 3755   2.526   4.978   4.705
 1250TIP3    H1 3756   2.468   5.027   4.763
 1250TIP3    H2 3757   2.600   4.952   4.760
 1251TIP3   OH2 3758   4.100   3.828   0.495
 1251TIP3    H1 3759   4.160   3.757   0.518
 1251TIP3    H2 3760   4.013   3.787   0.498
 1252TIP3   OH2 3761   3.500   5.359   4.830
 1252TIP3    H1 3762   3.447   5.409   4.893
 1252TIP3    H2 3763   3.554   5.302   4.885
 1253TIP3   OH2 3764   4.569   5.470   0.559
 1253TIP3    H1 3765   4.658   5.444   0.584
 1253TIP3    H2 3766   4.521   5.474   0.641
 1254TIP3   OH2 3767   3.369   2.243   0.030
 1254TIP3    H1 3768   3.333   2.162  -0.007
 1254TIP3    H2 3769   3.460   2.244   0.002
 1255TIP3   OH2 3770   1.335   4.908   0.550
 1255TIP3    H1 3771   1.423   4.939   0.572
 1255TIP3    H2 3772   1.350   4.820   0.514
 1256TIP3   OH2 3773   1.616   2.821   0.872
 1256TIP3    H1 3774   1.561   2.882   0.923
 1256TIP3    H2 3775   1.612   2.856   0.783
 1257TIP3   OH2 3776   0.892   0.741   3.677
 1257TIP3    H1 3777   0.869   0.743   3.584
 1257TIP3    H2 3778   0.984   0.715   3.678
 1258TIP3   OH2 3779   1.953   2.585   1.868
 1258TIP3    H1 3780   2.017   2.634   1.919
 1258TIP3    H2 3781   1.885   2.649   1.845
 1259TIP3   OH2 3782   4.197   1.273   4.675
 1259TIP3    H1 3783   4.225   1.238   4.590
 1259TIP3    H2 3784   4.264   1.245   4.736
 1260TIP3   OH2 3785   3.094   5.858   1.394
 1260TIP3    H1 3786   3.185   5.844   1.370
 1260TIP3    H2 3787   3.064   5.774   1.429
 1261TIP3   OH2 3788   1.805   0.998   1.226
 1261TIP3    H1 3789   1.831   1.068   1.286
 1261TIP3    H2 3790   1.837   0.918   1.268
 1262TIP3   OH2 3791   4.598   1.398   4.493
 1262TIP3    H1 3792   4.623   1.344   4.567
 1262TIP3    H2 3793   4.681   1.428   4.456
 1263TIP3   OH2 3794   2.366   0.765   4.518
 1263TIP3    H1 3795   2.338   0.709   4.591
 1263TIP3    H2 3796   2.287   0.775   4.465
 1264TIP3   OH2 3797   2.667   4.693   0.060
 1264TIP3    H1 3798   2.675   4.787   0.077
 1264TIP3    H2 3799   2.642   4.688  -0.032
 1265TIP3   OH2 3800   3.110   3.164   0.709
 1265TIP3    H1 3801   3.024   3.167   0.666
 1265TIP3    H2 3802   3.091   3.180   0.802
 1266TIP3   OH2 3803   5.569   3.421   3.012
 1266TIP3    H1 3804   5.532   3.360   2.947
 1266TIP3    H2 3805   5.558   3.376   3.096
 1267TIP3   OH2 3806   3.621   4.477   0.723
 1267TIP3    H1 3807   3.526   4.475   0.731
 1267TIP3    H2 3808   3.640   4.433   0.640
 1268TIP3   OH2 3809   0.966   1.771   4.659
 1268TIP3    H1 3810   0.879   1.785   4.623
 1268TIP3    H2 3811   0.982   1.677   4.649
 1269TIP3   OH2 3812   2.341   2.672   3.682
 1269TIP3    H1 3813   2.383   2.706   3.603
 1269TIP3    H2 3814   2.413   2.646   3.739
 1270TIP3   OH2 3815   5.881   2.819   3.633
 1270TIP3    H1 3816   5.868   2.743   3.689
 1270TIP3    H2 3817   5.836   2.890   3.679
 1271TIP3   OH2 3818   3.831   1.093   1.060
 1271TIP3    H1 3819   3.806   1.150   0.987
 1271TIP3    H2 3820   3.761   1.028   1.064
 1272TIP3   OH2 3821   6.135   0.973   2.505
 1272TIP3    H1 3822   6.192   1.018   2.567
 1272TIP3    H2 3823   6.133   1.029   2.428
 1273TIP3   OH2 3824   1.324   0.243   0.556
 1273TIP3    H1 3825   1.259   0.199   0.610
 1273TIP3    H2 3826   1.273   0.305   0.504
 1274TIP3   OH2 3827   0.599   5.873   4.602
 1274TIP3    H1 3828   0.513   5.847   4.635
 1274TIP3    H2 3829   0.647   5.791   4.594
 1275TIP3   OH2 3830   3.731   4.224   4.101
 1275TIP3    H1 3831   3.734   4.185   4.188
 1275TIP3    H2 3832   3.683   4.306   4.113
 1276TIP3   OH2 3833   6.196   5.978   4.615
 1276TIP3    H1 3834   6.199   5.928   4.533
 1276TIP3    H2 3835   6.286   6.008   4.628
 1277TIP3   OH2 3836   5.195   4.827   3.080
 1277TIP3    H1 3837   5.246   4.818   2.999
 1277TIP3    H2 3838   5.147   4.909   3.069
 1278TIP3   OH2 3839   5.784   3.414   0.279
 1278TIP3    H1 3840   5.733   3.335   0.296
 1278TIP3    H2 3841   5.730   3.464   0.218
 1279TIP3   OH2 3842   5.333   2.902   1.335
 1279TIP3    H1 3843   5.335   2.806   1.342
 1279TIP3    H2 3844   5.271   2.929   1.403
 1280TIP3   OH2 3845   4.851   0.136   2.879
 1280TIP3    H1 3846   4.809   0.123   2.964
 1280TIP3    H2 3847   4.802   0.079   2.819
 1281TIP3   OH2 3848   4.758   0.970   2.993
 1281TIP3    H1 3849   4.663   0.968   2.980
 1281TIP3    H2 3850   4.778   1.063   3.006
 1282TIP3   OH2 3851   6.004   3.193   2.575
 1282TIP3    H1 3852   5.997   3.187   2.480
 1282TIP3    H2 3853   6.074   3.131   2.598
 1283TIP3   OH2 3854   1.268   5.130   1.920
 1283TIP3    H1 3855   1.316   5.197   1.872
 1283TIP3    H2 3856   1.254   5.060   1.857
 1284TIP3   OH2 3857   4.580   5.654   1.674
 1284TIP3    H1 3858   4.534   5.715   1.617
 1284TIP3    H2 3859   4.655   5.704   1.707
 1285TIP3   OH2 3860   3.049   1.014   1.552
 1285TIP3    H1 3861   3.055   1.066   1.472
 1285TIP3    H2 3862   3.036   0.924   1.521
 1286TIP3   OH2 3863   4.643   2.081   3.201
 1286TIP3    H1 3864   4.728   2.075   3.158
 1286TIP3    H2 3865   4.615   1.991   3.213
 1287TIP3   OH2 3866   0.357   1.939   4.222
 1287TIP3    H1 3867   0.418   1.910   4.154
 1287TIP3    H2 3868   0.319   2.019   4.188
 1288TIP3   OH2 3869   6.045   1.074   4.595
 1288TIP3    H1 3870   6.021   1.017   4.521
 1288TIP3    H2 3871   5.984   1.050   4.665
 1289TIP3   OH2 3872   6.260   2.777   1.506
 1289TIP3    H1 3873   6.326   2.710   1.484
 1289TIP3    H2 3874   6.180   2.727   1.523
 1290TIP3   OH2 3875   1.356   2.580   1.633
 1290TIP3    H1 3876   1.440   2.587   1.588
 1290TIP3    H2 3877   1.372   2.520   1.705
 1291TIP3   OH2 3878   1.471   4.644   2.368
 1291TIP3    H1 3879   1.495   4.585   2.297
 1291TIP3    H2 3880   1.375   4.643   2.369
 1292TIP3   OH2 3881   2.068   4.905   0.973
 1292TIP3    H1 3882   2.070   4.961   1.051
 1292TIP3    H2 3883   2.154   4.864   0.970
 1293TIP3   OH2 3884   4.738   3.917   3.244
 1293TIP3    H1 3885   4.808   3.972   3.281
 1293TIP3    H2 3886   4.755   3.917   3.149
 1294TIP3   OH2 3887   4.365   5.358   3.487
 1294TIP3    H1 3888   4.358   5.315   3.402
 1294TIP3    H2 3889   4.282   5.404   3.499
 1295TIP3   OH2 3890   0.653   4.282   4.414
 1295TIP3    H1 3891   0.588   4.340   4.374
 1295TIP3    H2 3892   0.612   4.196   4.413
 1296TIP3   OH2 3893   1.290   1.913   1.757
 1296TIP3    H1 3894   1.201   1.947   1.744
 1296TIP3    H2 3895   1.281   1.818   1.749
 1297TIP3   OH2 3896   4.510   4.047   3.158
 1297TIP3    H1 3897   4.590   4.014   3.197
 1297TIP3    H2 3898   4.459   3.968   3.137
 1298TIP3   OH2 3899   1.467   5.628   2.984
 1298TIP3    H1 3900   1.465   5.679   2.903
 1298TIP3    H2 3901   1.376   5.623   3.012
 1299TIP3   OH2 3902   4.271   4.954   2.725
 1299TIP3    H1 3903   4.180   4.974   2.704
 1299TIP3    H2 3904   4.320   5.030   2.694
 1300TIP3   OH2 3905   3.141   1.596   3.398
 1300TIP3    H1 3906   3.155   1.635   3.484
 1300TIP3    H2 3907   3.063   1.640   3.364
 1301TIP3   OH2 3908   3.781   2.866   1.687
 1301TIP3    H1 3909   3.794   2.852   1.781
 1301TIP3    H2 3910   3.823   2.950   1.669
 1302TIP3   OH2 3911   4.538   1.877   5.129
 1302TIP3    H1 3912   4.562   1.794   5.089
 1302TIP3    H2 3913   4.500   1.853   5.213
 1303TIP3   OH2 3914   1.757   4.586   5.118
 1303TIP3    H1 3915   1.757   4.663   5.175
 1303TIP3    H2 3916   1.801   4.616   5.038
 1304TIP3   OH2 3917   4.096   5.746   3.318
 1304TIP3    H1 3918   4.078   5.829   3.274
 1304TIP3    H2 3919   4.107   5.683   3.246
 1305TIP3   OH2 3920   1.846   5.664   5.148
 1305TIP3    H1 3921   1.793   5.584   5.155
 1305TIP3    H2 3922   1.833   5.708   5.232
 1306TIP3   OH2 3923   0.526   1.526   3.958
 1306TIP3    H1 3924   0.457   1.487   3.905
 1306TIP3    H2 3925   0.490   1.525   4.047
 1307TIP3   OH2 3926   4.378   0.975   1.584
 1307TIP3    H1 3927   4.294   0.930   1.575
 1307TIP3    H2 3928   4.395   0.976   1.678
 1308TIP3   OH2 3929   4.800   0.122   0.578
 1308TIP3    H1 3930   4.844   0.138   0.495
 1308TIP3    H2 3931   4.871   0.103   0.639
 1309TIP3   OH2 3932   0.517   5.980   0.180
 1309TIP3    H1 3933   0.555   5.892   0.186
 1309TIP3    H2 3934   0.583   6.037   0.220
 1310TIP3   OH2 3935   3.773   4.007   1.562
 1310TIP3    H1 3936   3.841   3.980   1.624
 1310TIP3    H2 3937   3.791   3.957   1.483
 1311TIP3   OH2 3938   1.001   0.359   0.828
 1311TIP3    H1 3939   1.037   0.291   0.885
 1311TIP3    H2 3940   0.974   0.312   0.749
 1312TIP3   OH2 3941   0.233   4.859   3.807
 1312TIP3    H1 3942   0.259   4.951   3.801
 1312TIP3    H2 3943   0.222   4.831   3.717
 1313TIP3   OH2 3944   5.950   5.937   0.816
 1313TIP3    H1 3945   6.043   5.947   0.795
 1313TIP3    H2 3946   5.932   5.844   0.798
 1314TIP3   OH2 3947   1.596   3.762   3.432
 1314TIP3    H1 3948   1.605   3.759   3.337
 1314TIP3    H2 3949   1.578   3.854   3.452
 1315TIP3   OH2 3950   5.909   4.259   3.407
 1315TIP3    H1 3951   5.842   4.234   3.344
 1315TIP3    H2 3952   5.867   4.326   3.461
 1316TIP3   OH2 3953   1.253   0.110   1.972
 1316TIP3    H1 3954   1.189   0.175   1.943
 1316TIP3    H2 3955   1.305   0.155   2.039
 1317TIP3   OH2 3956   2.966   4.620   4.803
 1317TIP3    H1 3957   2.872   4.613   4.819
 1317TIP3    H2 3958   2.980   4.710   4.775
 1318TIP3   OH2 3959   3.396   4.849   2.834
 1318TIP3    H1 3960   3.400   4.906   2.757
 1318TIP3    H2 3961   3.328   4.889   2.889
 1319TIP3   OH2 3962   4.740   1.936   4.927
 1319TIP3    H1 3963   4.661   1.909   4.975
 1319TIP3    H2 3964   4.708   2.002   4.865
 1320TIP3   OH2 3965   1.382   4.244   0.587
 1320TIP3    H1 3966   1.387   4.332   0.624
 1320TIP3    H2 3967   1.468   4.206   0.604
 1321TIP3   OH2 3968   5.789   1.327   0.070
 1321TIP3    H1 3969   5.718   1.354   0.128
 1321TIP3    H2 3970   5.863   1.383   0.094
 1322TIP3   OH2 3971   5.604   0.917   4.545
 1322TIP3    H1 3972   5.613   0.847   4.481
 1322TIP3    H2 3973   5.633   0.996   4.500
 1323TIP3   OH2 3974   1.458   0.201   4.826
 1323TIP3    H1 3975   1.432   0.134   4.763
 1323TIP3    H2 3976   1.487   0.152   4.903
 1324TIP3   OH2 3977   6.039   5.711   2.841
 1324TIP3    H1 3978   6.087   5.663   2.910
 1324TIP3    H2 3979   6.105   5.768   2.802
 1325TIP3   OH2 3980   0.338   2.956   4.907
 1325TIP3    H1 3981   0.356   2.947   5.001
 1325TIP3    H2 3982   0.298   3.042   4.899
 1326TIP3   OH2 3983   0.261   3.742   2.706
 1326TIP3    H1 3984   0.210   3.811   2.666
 1326TIP3    H2 3985   0.199   3.693   2.760
 1327TIP3   OH2 3986   3.342   4.076   4.554
 1327TIP3    H1 3987   3.277   4.142   4.532
 1327TIP3    H2 3988   3.336   4.012   4.484
 1328TIP3   OH2 3989   5.447   1.704   3.688
 1328TIP3    H1 3990   5.528   1.670   3.650
 1328TIP3    H2 3991   5.401   1.626   3.721
 1329TIP3   OH2 3992   1.411   0.751   3.394
 1329TIP3    H1 3993   1.410   0.844   3.373
 1329TIP3    H2 3994   1.503   0.726   3.392
 1330TIP3   OH2 3995   4.483   5.943   0.303
 1330TIP3    H1 3996   4.480   5.982   0.216
 1330TIP3    H2 3997   4.576   5.927   0.319
 1331TIP3   OH2 3998   2.235   0.000   1.331
 1331TIP3    H1 3999   2.243   0.093   1.354
 1331TIP3    H2 4000   2.313  -0.040   1.367
 1332TIP3   OH2 4001   2.042   1.080   3.562
 1332TIP3    H1 4002   2.004   1.030   3.490
 1332TIP3    H2 4003   2.132   1.097   3.535
 1333TIP3   OH2 4004   1.507   4.009   0.829
 1333TIP3    H1 4005   1.446   4.082   0.831
 1333TIP3    H2 4006   1.494   3.964   0.913
 1334TIP3   OH2 4007   0.628   0.926   3.555
 1334TIP3    H1 4008   0.584   0.930   3.470
 1334TIP3    H2 4009   0.707   0.979   3.544
 1335TIP3   OH2 4010   3.664   0.868   1.498
 1335TIP3    H1 4011   3.676   0.868   1.403
 1335TIP3    H2 4012   3.570   0.857   1.510
 1336TIP3   OH2 4013   5.515   5.184   0.563
 1336TIP3    H1 4014   5.515   5.141   0.648
 1336TIP3    H2 4015   5.423   5.188   0.537
 1337TIP3   OH2 4016   4.184   4.161   2.613
 1337TIP3    H1 4017   4.111   4.103   2.635
 1337TIP3    H2 4018   4.262   4.116   2.646
 1338TIP3   OH2 4019   3.435   1.671   3.520
 1338TIP3    H1 4020   3.467   1.611   3.587
 1338TIP3    H2 4021   3.361   1.715   3.560
 1339TIP3   OH2 4022   3.711   2.591   0.027
 1339TIP3    H1 4023   3.616   2.591   0.032
 1339TIP3    H2 4024   3.739   2.541   0.104
 1340TIP3   OH2 4025   3.649   2.399   4.016
 1340TIP3    H1 4026   3.563   2.438   4.033
 1340TIP3    H2 4027   3.675   2.362   4.101
 1341TIP3   OH2 4028   2.164   5.384   4.905
 1341TIP3    H1 4029   2.129   5.459   4.954
 1341TIP3    H2 4030   2.114   5.309   4.936
 1342TIP3   OH2 4031   4.958   2.365   1.817
 1342TIP3    H1 4032   5.040   2.415   1.811
 1342TIP3    H2 4033   4.900   2.422   1.867
 1343TIP3   OH2 4034   1.591   1.733   4.719
 1343TIP3    H1 4035   1.678   1.701   4.695
 1343TIP3    H2 4036   1.550   1.757   4.636
 1344TIP3   OH2 4037   4.861   2.993   2.273
 1344TIP3    H1 4038   4.778   2.955   2.302
 1344TIP3    H2 4039   4.908   3.012   2.355
 1345TIP3   OH2 4040   4.353   3.960   4.707
 1345TIP3    H1 4041   4.422   3.928   4.650
 1345TIP3    H2 4042   4.398   3.978   4.790
 1346TIP3   OH2 4043   1.153   0.055   1.567
 1346TIP3    H1 4044   1.172   0.133   1.515
 1346TIP3    H2 4045   1.239   0.022   1.593
 1347TIP3   OH2 4046   0.362   5.647   2.641
 1347TIP3    H1 4047   0.396   5.714   2.701
 1347TIP3    H2 4048   0.382   5.681   2.554
 1348TIP3   OH2 4049   5.324   3.930   0.519
 1348TIP3    H1 4050   5.264   3.929   0.445
 1348TIP3    H2 4051   5.329   4.022   0.545
 1349TIP3   OH2 4052   3.914   3.362   3.853
 1349TIP3    H1 4053   3.986   3.322   3.803
 1349TIP3    H2 4054   3.835   3.322   3.817
 1350TIP3   OH2 4055   0.891   3.877   1.575
 1350TIP3    H1 4056   0.834   3.802   1.555
 1350TIP3    H2 4057   0.939   3.893   1.494
 1351TIP3   OH2 4058   5.336   5.626   1.937
 1351TIP3    H1 4059   5.343   5.616   1.842
 1351TIP3    H2 4060   5.414   5.676   1.962
 1352TIP3   OH2 4061   3.016   3.483   4.679
 1352TIP3    H1 4062   3.092   3.538   4.698
 1352TIP3    H2 4063   2.989   3.448   4.764
 1353TIP3   OH2 4064   2.713   4.149   4.228
 1353TIP3    H1 4065   2.795   4.117   4.265
 1353TIP3    H2 4066   2.739   4.215   4.164
 1354TIP3   OH2 4067   5.673   3.029   3.676
 1354TIP3    H1 4068   5.640   2.940   3.666
 1354TIP3    H2 4069   5.597   3.080   3.702
 1355TIP3   OH2 4070   0.570   4.001   3.952
 1355TIP3    H1 4071   0.550   4.083   3.996
 1355TIP3    H2 4072   0.641   4.024   3.891
 1356TIP3   OH2 4073   2.697   5.440   4.844
 1356TIP3    H1 4074   2.685   5.369   4.780
 1356TIP3    H2 4075   2.642   5.511   4.811
 1357TIP3   OH2 4076   3.577   3.847   0.778
 1357TIP3    H1 4077   3.660   3.895   0.769
 1357TIP3    H2 4078   3.602   3.755   0.772
 1358TIP3   OH2 4079   1.244   1.401   3.440
 1358TIP3    H1 4080   1.259   1.419   3.348
 1358TIP3    H2 4081   1.150   1.380   3.445
 1359TIP3   OH2 4082   0.466   0.786   4.641
 1359TIP3    H1 4083   0.409   0.816   4.570
 1359TIP3    H2 4084   0.459   0.854   4.708
 1360TIP3   OH2 4085   1.981   1.407   4.907
 1360TIP3    H1 4086   2.015   1.442   4.824
 1360TIP3    H2 4087   1.969   1.314   4.890
 1361TIP3   OH2 4088   2.187   3.210   3.614
 1361TIP3    H1 4089   2.106   3.238   3.573
 1361TIP3    H2 4090   2.196   3.265   3.691
 1362TIP3   OH2 4091   1.602   1.366   1.470
 1362TIP3    H1 4092   1.527   1.420   1.496
 1362TIP3    H2 4093   1.678   1.415   1.500
 1363TIP3   OH2 4094   6.087   4.453   3.571
 1363TIP3    H1 4095   6.089   4.394   3.646
 1363TIP3    H2 4096   6.001   4.494   3.575
 1364TIP3   OH2 4097   5.103   3.498   0.995
 1364TIP3    H1 4098   5.108   3.469   1.086
 1364TIP3    H2 4099   5.160   3.437   0.947
 1365TIP3   OH2 4100   5.755   5.935   0.499
 1365TIP3    H1 4101   5.763   5.840   0.492
 1365TIP3    H2 4102   5.751   5.965   0.408
 1366TIP3   OH2 4103   5.319   4.961   2.081
 1366TIP3    H1 4104   5.311   5.037   2.023
 1366TIP3    H2 4105   5.339   4.888   2.022
 1367TIP3   OH2 4106   2.697   4.991   2.009
 1367TIP3    H1 4107   2.633   4.920   2.010
 1367TIP3    H2 4108   2.692   5.027   1.921
 1368TIP3   OH2 4109   1.658   3.607   1.519
 1368TIP3    H1 4110   1.637   3.514   1.527
 1368TIP3    H2 4111   1.673   3.635   1.609
 1369TIP3   OH2 4112   2.708   4.858   0.936
 1369TIP3    H1 4113   2.752   4.792   0.883
 1369TIP3    H2 4114   2.769   4.930   0.941
 1370TIP3   OH2 4115   4.998   4.180   3.655
 1370TIP3    H1 4116   5.018   4.117   3.586
 1370TIP3    H2 4117   5.042   4.145   3.733
 1371TIP3   OH2 4118   0.399   3.354   4.913
 1371TIP3    H1 4119   0.322   3.309   4.879
 1371TIP3    H2 4120   0.393   3.344   5.008
 1372TIP3   OH2 4121   4.979   2.663   2.339
 1372TIP3    H1 4122   4.946   2.732   2.281
 1372TIP3    H2 4123   4.908   2.648   2.401
 1373TIP3   OH2 4124   4.750   5.443   1.802
 1373TIP3    H1 4125   4.795   5.528   1.806
 1373TIP3    H2 4126   4.683   5.454   1.735
 1374TIP3   OH2 4127   2.672   2.163   1.269
 1374TIP3    H1 4128   2.610   2.135   1.337
 1374TIP3    H2 4129   2.630   2.239   1.228
 1375TIP3   OH2 4130   0.632   4.369   5.105
 1375TIP3    H1 4131   0.629   4.439   5.039
 1375TIP3    H2 4132   0.548   4.376   5.151
 1376TIP3   OH2 4133   5.404   3.718   1.962
 1376TIP3    H1 4134   5.361   3.736   2.046
 1376TIP3    H2 4135   5.351   3.765   1.898
 1377TIP3   OH2 4136   4.046   0.040   0.491
 1377TIP3    H1 4137   3.984   0.024   0.562
 1377TIP3    H2 4138   3.999   0.010   0.412
 1378TIP3   OH2 4139   2.795   0.445   1.452
 1378TIP3    H1 4140   2.844   0.491   1.383
 1378TIP3    H2 4141   2.856   0.439   1.525
 1379TIP3   OH2 4142   1.271   0.140   2.745
 1379TIP3    H1 4143   1.351   0.090   2.764
 1379TIP3    H2 4144   1.280   0.164   2.653
 1380TIP3   OH2 4145   1.029   5.805   2.754
 1380TIP3    H1 4146   1.083   5.873   2.794
 1380TIP3    H2 4147   0.997   5.845   2.673
 1381TIP3   OH2 4148   3.371   4.615   4.591
 1381TIP3    H1 4149   3.308   4.564   4.540
 1381TIP3    H2 4150   3.346   4.706   4.576
 1382TIP3   OH2 4151   0.197   0.188   1.338
 1382TIP3    H1 4152   0.232   0.145   1.260
 1382TIP3    H2 4153   0.206   0.282   1.321
 1383TIP3   OH2 4154   4.442   3.091   3.727
 1383TIP3    H1 4155   4.399   3.175   3.715
 1383TIP3    H2 4156   4.381   3.027   3.690
 1384TIP3   OH2 4157   4.849   5.028   2.314
 1384TIP3    H1 4158   4.904   4.970   2.261
 1384TIP3    H2 4159   4.822   4.974   2.389
 1385TIP3   OH2 4160   0.378   1.692   5.026
 1385TIP3    H1 4161   0.417   1.742   4.955
 1385TIP3    H2 4162   0.379   1.601   4.996
 1386TIP3   OH2 4163   0.375   3.973   3.697
 1386TIP3    H1 4164   0.385   3.878   3.688
 1386TIP3    H2 4165   0.461   4.003   3.728
 1387TIP3   OH2 4166   2.251   3.790   2.847
 1387TIP3    H1 4167   2.216   3.821   2.763
 1387TIP3    H2 4168   2.239   3.695   2.845
 1388TIP3   OH2 4169   0.306   5.859   4.011
 1388TIP3    H1 4170   0.340   5.936   3.965
 1388TIP3    H2 4171   0.359   5.853   4.090
 1389TIP3   OH2 4172   2.503   4.157   2.135
 1389TIP3    H1 4173   2.499   4.215   2.059
 1389TIP3    H2 4174   2.589   4.114   2.127
 1390TIP3   OH2 4175   1.585   5.022   0.569
 1390TIP3    H1 4176   1.642   5.042   0.643
 1390TIP3    H2 4177   1.645   5.006   0.496
 1391TIP3   OH2 4178   0.124   0.579   2.416
 1391TIP3    H1 4179   0.210   0.543   2.395
 1391TIP3    H2 4180   0.076   0.574   2.334
 1392TIP3   OH2 4181   1.794   2.196   1.584
 1392TIP3    H1 4182   1.775   2.128   1.648
 1392TIP3    H2 4183   1.847   2.260   1.632
 1393TIP3   OH2 4184   5.380   0.537   3.718
 1393TIP3    H1 4185   5.460   0.588   3.705
 1393TIP3    H2 4186   5.404   0.448   3.693
 1394TIP3   OH2 4187   1.073   4.509   2.660
 1394TIP3    H1 4188   1.159   4.488   2.624
 1394TIP3    H2 4189   1.062   4.603   2.645
 1395TIP3   OH2 4190   1.317   1.237   4.724
 1395TIP3    H1 4191   1.369   1.181   4.666
 1395TIP3    H2 4192   1.358   1.323   4.719
 1396TIP3   OH2 4193   1.997   0.682   3.062
 1396TIP3    H1 4194   2.057   0.608   3.051
 1396TIP3    H2 4195   1.947   0.685   2.981
 1397TIP3   OH2 4196   2.961   2.275   2.247
 1397TIP3    H1 4197   2.929   2.191   2.277
 1397TIP3    H2 4198   2.983   2.261   2.155
 1398TIP3   OH2 4199   0.537   1.573   4.309
 1398TIP3    H1 4200   0.610   1.583   4.248
 1398TIP3    H2 4201   0.556   1.636   4.379
 1399TIP3   OH2 4202   0.665   0.911   2.196
 1399TIP3    H1 4203   0.738   0.873   2.244
 1399TIP3    H2 4204   0.657   0.859   2.116
 1400TIP3   OH2 4205   1.141   4.214   2.326
 1400TIP3    H1 4206   1.080   4.161   2.275
 1400TIP3    H2 4207   1.140   4.174   2.413
 1401TIP3   OH2 4208   5.880   0.771   1.313
 1401TIP3    H1 4209   5.803   0.715   1.310
 1401TIP3    H2 4210   5.855   0.843   1.372
 1402TIP3   OH2 4211   4.259   4.061   0.584
 1402TIP3    H1 4212   4.246   3.981   0.533
 1402TIP3    H2 4213   4.233   4.131   0.525
 1403TIP3   OH2 4214   1.438   4.997   1.643
 1403TIP3    H1 4215   1.458   5.027   1.554
 1403TIP3    H2 4216   1.524   4.986   1.684
 1404TIP3   OH2 4217   4.061   3.625   0.127
 1404TIP3    H1 4218   4.058   3.586   0.215
 1404TIP3    H2 4219   3.998   3.573   0.077
 1405TIP3   OH2 4220   4.134   0.915   2.969
 1405TIP3    H1 4221   4.130   0.886   2.877
 1405TIP3    H2 4222   4.106   0.838   3.019
 1406TIP3   OH2 4223   1.841   1.466   0.359
 1406TIP3    H1 4224   1.786   1.399   0.318
 1406TIP3    H2 4225   1.782   1.513   0.418
 1407TIP3   OH2 4226   5.882   1.007   2.597
 1407TIP3    H1 4227   5.975   0.984   2.588
 1407TIP3    H2 4228   5.879   1.102   2.586
 1408TIP3   OH2 4229   4.190   2.267   1.296
 1408TIP3    H1 4230   4.216   2.185   1.339
 1408TIP3    H2 4231   4.161   2.239   1.209
 1409TIP3   OH2 4232   3.329   4.903   1.265
 1409TIP3    H1 4233   3.291   4.834   1.320
 1409TIP3    H2 4234   3.404   4.862   1.223
 1410TIP3   OH2 4235   2.655   5.358   4.081
 1410TIP3    H1 4236   2.602   5.376   4.160
 1410TIP3    H2 4237   2.707   5.437   4.069
 1411TIP3   OH2 4238   0.670   4.881   2.389
 1411TIP3    H1 4239   0.583   4.919   2.395
 1411TIP3    H2 4240   0.664   4.799   2.438
 1412TIP3   OH2 4241   4.070   1.086   1.373
 1412TIP3    H1 4242   3.990   1.120   1.334
 1412TIP3    H2 4243   4.139   1.145   1.345
 1413TIP3   OH2 4244   5.893   1.518   4.838
 1413TIP3    H1 4245   5.903   1.424   4.822
 1413TIP3    H2 4246   5.929   1.560   4.760
 1414TIP3   OH2 4247   3.879   4.665   0.695
 1414TIP3    H1 4248   3.950   4.645   0.634
 1414TIP3    H2 4249   3.804   4.685   0.640
 1415TIP3   OH2 4250   1.794   5.188   3.328
 1415TIP3    H1 4251   1.847   5.156   3.254
 1415TIP3    H2 4252   1.703   5.178   3.297
 1416TIP3   OH2 4253   6.337   0.817   0.635
 1416TIP3    H1 4254   6.254   0.864   0.633
 1416TIP3    H2 4255   6.335   0.761   0.558
 1417TIP3   OH2 4256   0.148   0.754   2.655
 1417TIP3    H1 4257   0.137   0.685   2.589
 1417TIP3    H2 4258   0.228   0.729   2.702
 1418TIP3   OH2 4259   5.621   3.272   4.482
 1418TIP3    H1 4260   5.536   3.302   4.448
 1418TIP3    H2 4261   5.680   3.346   4.467
 1419TIP3   OH2 4262   3.937   2.196   3.909
 1419TIP3    H1 4263   3.948   2.175   4.002
 1419TIP3    H2 4264   3.974   2.284   3.900
 1420TIP3   OH2 4265   5.141   0.172   2.625
 1420TIP3    H1 4266   5.139   0.079   2.604
 1420TIP3    H2 4267   5.135   0.176   2.720
 1421TIP3   OH2 4268   0.537   2.659   0.173
 1421TIP3    H1 4269   0.551   2.705   0.091
 1421TIP3    H2 4270   0.446   2.627   0.168
 1422TIP3   OH2 4271   4.729   4.188   3.579
 1422TIP3    H1 4272   4.823   4.174   3.579
 1422TIP3    H2 4273   4.708   4.211   3.670
 1423TIP3   OH2 4274   5.148   0.084   3.203
 1423TIP3    H1 4275   5.080   0.050   3.261
 1423TIP3    H2 4276   5.125   0.176   3.191
 1424TIP3   OH2 4277   4.247   0.102   1.466
 1424TIP3    H1 4278   4.312   0.172   1.473
 1424TIP3    H2 4279   4.278   0.035   1.527
 1425TIP3   OH2 4280   6.096   5.769   0.412
 1425TIP3    H1 4281   6.110   5.675   0.411
 1425TIP3    H2 4282   6.013   5.781   0.459
 1426TIP3   OH2 4283   3.485   4.860   2.476
 1426TIP3    H1 4284   3.535   4.854   2.557
 1426TIP3    H2 4285   3.550   4.886   2.410
 1427TIP3   OH2 4286   4.891   3.938   1.630
 1427TIP3    H1 4287   4.908   3.852   1.591
 1427TIP3    H2 4288   4.903   3.923   1.724
 1428TIP3   OH2 4289   4.367   5.153   1.043
 1428TIP3    H1 4290   4.445   5.168   1.096
 1428TIP3    H2 4291   4.398   5.099   0.970
 1429TIP3   OH2 4292   3.543   0.826   3.368
 1429TIP3    H1 4293   3.486   0.770   3.316
 1429TIP3    H2 4294   3.494   0.907   3.380
 1430TIP3   OH2 4295   5.692   3.479   4.693
 1430TIP3    H1 4296   5.706   3.384   4.689
 1430TIP3    H2 4297   5.773   3.514   4.730
 1431TIP3   OH2 4298   4.039   5.866   3.906
 1431TIP3    H1 4299   4.114   5.832   3.856
 1431TIP3    H2 4300   3.970   5.877   3.840
 1432TIP3   OH2 4301   5.714   5.728   4.068
 1432TIP3    H1 4302   5.757   5.648   4.037
 1432TIP3    H2 4303   5.717   5.787   3.993
 1433TIP3   OH2 4304   1.422   3.662   1.381
 1433TIP3    H1 4305   1.485   3.657   1.454
 1433TIP3    H2 4306   1.473   3.700   1.309
 1434TIP3   OH2 4307   5.967   1.431   1.820
 1434TIP3    H1 4308   6.022   1.359   1.852
 1434TIP3    H2 4309   5.903   1.444   1.890
 1435TIP3   OH2 4310   1.499   5.232   3.347
 1435TIP3    H1 4311   1.459   5.254   3.431
 1435TIP3    H2 4312   1.447   5.281   3.282
 1436TIP3   OH2 4313   5.961   0.116   4.888
 1436TIP3    H1 4314   5.939   0.023   4.886
 1436TIP3    H2 4315   5.987   0.133   4.979
 1437TIP3   OH2 4316   1.771   5.932   0.026
 1437TIP3    H1 4317   1.717   5.863  -0.011
 1437TIP3    H2 4318   1.845   5.887   0.067
 1438TIP3   OH2 4319   5.538   4.745   2.329
 1438TIP3    H1 4320   5.627   4.713   2.348
 1438TIP3    H2 4321   5.551   4.829   2.286
 1439TIP3   OH2 4322   3.778   1.609   3.607
 1439TIP3    H1 4323   3.793   1.703   3.606
 1439TIP3    H2 4324   3.767   1.585   3.515
 1440TIP3   OH2 4325   2.717   1.372   3.423
 1440TIP3    H1 4326   2.685   1.459   3.444
 1440TIP3    H2 4327   2.750   1.379   3.334
 1441TIP3   OH2 4328   2.802   2.689   4.454
 1441TIP3    H1 4329   2.810   2.630   4.529
 1441TIP3    H2 4330   2.850   2.645   4.384
 1442TIP3   OH2 4331   5.309   5.731   4.418
 1442TIP3    H1 4332   5.329   5.769   4.333
 1442TIP3    H2 4333   5.277   5.643   4.399
 1443TIP3   OH2 4334   5.145   5.890   2.349
 1443TIP3    H1 4335   5.234   5.877   2.383
 1443TIP3    H2 4336   5.088   5.875   2.424
 1444TIP3   OH2 4337   2.699   1.867   1.877
 1444TIP3    H1 4338   2.667   1.954   1.853
 1444TIP3    H2 4339   2.637   1.806   1.837
 1445TIP3   OH2 4340   4.742   5.363   1.360
 1445TIP3    H1 4341   4.814   5.345   1.300
 1445TIP3    H2 4342   4.771   5.327   1.444
 1446TIP3   OH2 4343   2.767   4.539   3.161
 1446TIP3    H1 4344   2.824   4.587   3.102
 1446TIP3    H2 4345   2.799   4.449   3.157
 1447TIP3   OH2 4346   3.097   5.269   3.185
 1447TIP3    H1 4347   3.152   5.234   3.115
 1447TIP3    H2 4348   3.097   5.201   3.252
 1448TIP3   OH2 4349   4.947   4.496   2.062
 1448TIP3    H1 4350   4.975   4.478   2.152
 1448TIP3    H2 4351   5.006   4.565   2.031
 1449TIP3   OH2 4352   5.237   1.689   2.679
 1449TIP3    H1 4353   5.303   1.712   2.613
 1449TIP3    H2 4354   5.265   1.604   2.712
 1450TIP3   OH2 4355   3.335   0.891   3.635
 1450TIP3    H1 4356   3.286   0.952   3.691
 1450TIP3    H2 4357   3.424   0.928   3.632
 1451TIP3   OH2 4358   3.723   4.038   1.149
 1451TIP3    H1 4359   3.629   4.035   1.131
 1451TIP3    H2 4360   3.735   3.980   1.224
 1452TIP3   OH2 4361   3.714   1.591   4.675
 1452TIP3    H1 4362   3.690   1.629   4.590
 1452TIP3    H2 4363   3.632   1.559   4.711
 1453TIP3   OH2 4364   1.768   4.919   4.759
 1453TIP3    H1 4365   1.694   4.860   4.743
 1453TIP3    H2 4366   1.732   5.007   4.742
 1454TIP3   OH2 4367   0.654   0.489   2.681
 1454TIP3    H1 4368   0.634   0.521   2.768
 1454TIP3    H2 4369   0.711   0.413   2.695
 1455TIP3   OH2 4370   6.065   2.920   3.470
 1455TIP3    H1 4371   6.010   2.855   3.513
 1455TIP3    H2 4372   6.115   2.960   3.541
 1456TIP3   OH2 4373   0.350   4.254   0.328
 1456TIP3    H1 4374   0.341   4.173   0.379
 1456TIP3    H2 4375   0.287   4.245   0.257
 1457TIP3   OH2 4376   2.004   3.347   1.022
 1457TIP3    H1 4377   1.984   3.286   1.093
 1457TIP3    H2 4378   1.938   3.328   0.955
 1458TIP3   OH2 4379   5.242   4.296   1.298
 1458TIP3    H1 4380   5.318   4.238   1.290
 1458TIP3    H2 4381   5.216   4.287   1.390
 1459TIP3   OH2 4382   4.902   1.513   1.742
 1459TIP3    H1 4383   4.860   1.449   1.685
 1459TIP3    H2 4384   4.941   1.461   1.812
 1460TIP3   OH2 4385   1.323   2.948   4.539
 1460TIP3    H1 4386   1.355   2.901   4.462
 1460TIP3    H2 4387   1.242   2.903   4.563
 1461TIP3   OH2 4388   2.575   0.777   0.318
 1461TIP3    H1 4389   2.637   0.813   0.382
 1461TIP3    H2 4390   2.496   0.829   0.330
 1462TIP3   OH2 4391   5.231   3.451   1.520
 1462TIP3    H1 4392   5.252   3.538   1.487
 1462TIP3    H2 4393   5.317   3.412   1.538
 1463TIP3   OH2 4394   4.897   1.810   1.030
 1463TIP3    H1 4395   4.855   1.729   1.001
 1463TIP3    H2 4396   4.828   1.876   1.026
 1464TIP3   OH2 4397   1.293   5.606   4.288
 1464TIP3    H1 4398   1.324   5.694   4.308
 1464TIP3    H2 4399   1.302   5.598   4.193
 1465TIP3   OH2 4400   5.273   0.891   0.660
 1465TIP3    H1 4401   5.318   0.927   0.584
 1465TIP3    H2 4402   5.204   0.836   0.623
 1466TIP3   OH2 4403   6.012   4.481   2.963
 1466TIP3    H1 4404   5.991   4.483   3.056
 1466TIP3    H2 4405   5.951   4.418   2.925
 1467TIP3   OH2 4406   2.635   2.744   2.266
 1467TIP3    H1 4407   2.676   2.744   2.179
 1467TIP3    H2 4408   2.705   2.716   2.325
 1468TIP3   OH2 4409   0.207   2.199   0.824
 1468TIP3    H1 4410   0.127   2.200   0.773
 1468TIP3    H2 4411   0.276   2.179   0.761
 1469TIP3   OH2 4412   1.951   4.911   1.550
 1469TIP3    H1 4413   1.998   4.836   1.587
 1469TIP3    H2 4414   2.010   4.946   1.483
 1470TIP3   OH2 4415   2.889   2.189   2.971
 1470TIP3    H1 4416   2.853   2.135   2.901
 1470TIP3    H2 4417   2.834   2.168   3.047
 1471TIP3   OH2 4418   5.692   2.125   1.496
 1471TIP3    H1 4419   5.624   2.095   1.557
 1471TIP3    H2 4420   5.674   2.077   1.415
 1472TIP3   OH2 4421   0.557   1.043   3.085
 1472TIP3    H1 4422   0.507   0.992   3.020
 1472TIP3    H2 4423   0.554   0.991   3.165
 1473TIP3   OH2 4424   3.600   3.955   2.960
 1473TIP3    H1 4425   3.608   3.940   3.055
 1473TIP3    H2 4426   3.545   4.032   2.953
 1474TIP3   OH2 4427   5.530   1.973   5.106
 1474TIP3    H1 4428   5.584   1.894   5.106
 1474TIP3    H2 4429   5.539   2.009   5.195
 1475TIP3   OH2 4430   0.496   5.914   5.087
 1475TIP3    H1 4431   0.478   5.974   5.014
 1475TIP3    H2 4432   0.507   5.971   5.163
 1476TIP3   OH2 4433   0.501   4.958   1.483
 1476TIP3    H1 4434   0.486   5.036   1.537
 1476TIP3    H2 4435   0.570   4.911   1.529
 1477TIP3   OH2 4436   2.180   3.744   2.278
 1477TIP3    H1 4437   2.093   3.784   2.282
 1477TIP3    H2 4438   2.170   3.672   2.216
 1478TIP3   OH2 4439   3.613   4.554   4.650
 1478TIP3    H1 4440   3.620   4.572   4.743
 1478TIP3    H2 4441   3.532   4.598   4.623
 1479TIP3   OH2 4442   4.363   1.734   3.328
 1479TIP3    H1 4443   4.448   1.726   3.370
 1479TIP3    H2 4444   4.358   1.659   3.270
 1480TIP3   OH2 4445   2.557   2.691   1.415
 1480TIP3    H1 4446   2.652   2.685   1.401
 1480TIP3    H2 4447   2.524   2.603   1.395
 1481TIP3   OH2 4448   5.007   1.129   4.613
 1481TIP3    H1 4449   4.956   1.125   4.532
 1481TIP3    H2 4450   5.016   1.223   4.631
 1482TIP3   OH2 4451   1.479   1.700   3.357
 1482TIP3    H1 4452   1.531   1.773   3.323
 1482TIP3    H2 4453   1.400   1.741   3.391
 1483TIP3   OH2 4454   4.821   3.090   4.734
 1483TIP3    H1 4455   4.776   3.071   4.652
 1483TIP3    H2 4456   4.805   3.183   4.749
 1484TIP3   OH2 4457   4.072   5.190   1.506
 1484TIP3    H1 4458   4.082   5.099   1.481
 1484TIP3    H2 4459   4.024   5.187   1.589
 1485TIP3   OH2 4460   4.474   5.353   1.522
 1485TIP3    H1 4461   4.546   5.376   1.464
 1485TIP3    H2 4462   4.395   5.374   1.473
 1486TIP3   OH2 4463   2.651   2.434   0.464
 1486TIP3    H1 4464   2.572   2.471   0.425
 1486TIP3    H2 4465   2.621   2.359   0.514
 1487TIP3   OH2 4466   3.682   4.654   0.931
 1487TIP3    H1 4467   3.664   4.599   0.855
 1487TIP3    H2 4468   3.756   4.708   0.904
 1488TIP3   OH2 4469   0.095   0.531   4.490
 1488TIP3    H1 4470   0.182   0.568   4.480
 1488TIP3    H2 4471   0.047   0.560   4.413
 1489TIP3   OH2 4472   4.881   5.321   1.599
 1489TIP3    H1 4473   4.939   5.397   1.594
 1489TIP3    H2 4474   4.827   5.337   1.677
 1490TIP3   OH2 4475   4.887   5.585   4.914
 1490TIP3    H1 4476   4.940   5.562   4.837
 1490TIP3    H2 4477   4.799   5.553   4.892
 1491TIP3   OH2 4478   4.411   2.991   4.047
 1491TIP3    H1 4479   4.413   2.972   3.953
 1491TIP3    H2 4480   4.424   2.906   4.089
 1492TIP3   OH2 4481   2.230   1.808   0.215
 1492TIP3    H1 4482   2.272   1.797   0.301
 1492TIP3    H2 4483   2.258   1.894   0.185
 1493TIP3   OH2 4484   0.426   3.196   2.835
 1493TIP3    H1 4485   0.502   3.231   2.787
 1493TIP3    H2 4486   0.391   3.271   2.883
 1494TIP3   OH2 4487   4.528   2.046   3.568
 1494TIP3    H1 4488   4.547   2.137   3.594
 1494TIP3    H2 4489   4.437   2.049   3.537
 1495TIP3   OH2 4490   2.991   4.686   1.123
 1495TIP3    H1 4491   2.939   4.619   1.079
 1495TIP3    H2 4492   3.047   4.723   1.055
 1496TIP3   OH2 4493   4.519   4.331   4.230
 1496TIP3    H1 4494   4.495   4.353   4.319
 1496TIP3    H2 4495   4.615   4.324   4.232
 1497TIP3   OH2 4496   6.191   3.316   4.201
 1497TIP3    H1 4497   6.101   3.304   4.232
 1497TIP3    H2 4498   6.189   3.398   4.152
 1498TIP3   OH2 4499   1.355   0.899   2.040
 1498TIP3    H1 4500   1.424   0.960   2.069
 1498TIP3    H2 4501   1.337   0.845   2.117
 1499TIP3   OH2 4502   4.298   3.706   4.025
 1499TIP3    H1 4503   4.289   3.781   4.084
 1499TIP3    H2 4504   4.267   3.737   3.940
 1500TIP3   OH2 4505   0.677   3.034   5.125
 1500TIP3    H1 4506   0.727   2.988   5.193
 1500TIP3    H2 4507   0.669   3.123   5.157
 1501TIP3   OH2 4508   3.662   1.336   0.258
 1501TIP3    H1 4509   3.631   1.390   0.330
 1501TIP3    H2 4510   3.701   1.398   0.197
 1502TIP3   OH2 4511   1.048   1.144   4.129
 1502TIP3    H1 4512   1.093   1.213   4.080
 1502TIP3    H2 4513   0.968   1.185   4.160
 1503TIP3   OH2 4514   3.594   2.827   4.386
 1503TIP3    H1 4515   3.666   2.764   4.386
 1503TIP3    H2 4516   3.632   2.907   4.422
 1504TIP3   OH2 4517   3.230   1.201   3.288
 1504TIP3    H1 4518   3.188   1.115   3.287
 1504TIP3    H2 4519   3.192   1.246   3.363
 1505TIP3   OH2 4520   0.596   1.664   1.968
 1505TIP3    H1 4521   0.521   1.622   2.012
 1505TIP3    H2 4522   0.585   1.641   1.876
 1506TIP3   OH2 4523   5.797   2.843   2.680
 1506TIP3    H1 4524   5.765   2.754   2.697
 1506TIP3    H2 4525   5.871   2.853   2.739
 1507TIP3   OH2 4526   4.884   1.284   1.306
 1507TIP3    H1 4527   4.858   1.199   1.270
 1507TIP3    H2 4528   4.803   1.335   1.309
 1508TIP3   OH2 4529   5.614   3.708   3.395
 1508TIP3    H1 4530   5.605   3.613   3.384
 1508TIP3    H2 4531   5.663   3.719   3.476
 1509TIP3   OH2 4532   6.093   3.666   2.450
 1509TIP3    H1 4533   6.050   3.704   2.373
 1509TIP3    H2 4534   6.025   3.670   2.518
 1510TIP3   OH2 4535   3.606   5.818   0.382
 1510TIP3    H1 4536   3.654   5.814   0.465
 1510TIP3    H2 4537   3.654   5.882   0.330
 1511TIP3   OH2 4538   0.711   3.055   1.684
 1511TIP3    H1 4539   0.730   3.053   1.590
 1511TIP3    H2 4540   0.729   3.145   1.709
 1512TIP3   OH2 4541   1.726   5.337   1.362
 1512TIP3    H1 4542   1.681   5.272   1.307
 1512TIP3    H2 4543   1.676   5.418   1.349
 1513TIP3   OH2 4544   1.328   5.616   4.638
 1513TIP3    H1 4545   1.268   5.681   4.601
 1513TIP3    H2 4546   1.271   5.555   4.686
 1514TIP3   OH2 4547   2.345   1.275   4.930
 1514TIP3    H1 4548   2.360   1.197   4.877
 1514TIP3    H2 4549   2.433   1.312   4.943
 1515TIP3   OH2 4550   6.130   3.740   4.643
 1515TIP3    H1 4551   6.093   3.793   4.573
 1515TIP3    H2 4552   6.141   3.801   4.716
 1516TIP3   OH2 4553   4.730   3.671   4.909
 1516TIP3    H1 4554   4.726   3.593   4.965
 1516TIP3    H2 4555   4.742   3.635   4.821
 1517TIP3   OH2 4556   1.722   2.790   4.910
 1517TIP3    H1 4557   1.735   2.750   4.997
 1517TIP3    H2 4558   1.628   2.806   4.905
 1518TIP3   OH2 4559   4.869   5.295   3.103
 1518TIP3    H1 4560   4.812   5.248   3.163
 1518TIP3    H2 4561   4.814   5.317   3.028
 1519TIP3   OH2 4562   5.492   2.294   0.095
 1519TIP3    H1 4563   5.483   2.389   0.088
 1519TIP3    H2 4564   5.405   2.264   0.121
 1520TIP3   OH2 4565   3.994   3.699   1.833
 1520TIP3    H1 4566   3.990   3.641   1.909
 1520TIP3    H2 4567   3.988   3.640   1.758
 1521TIP3   OH2 4568   4.512   0.792   0.276
 1521TIP3    H1 4569   4.419   0.811   0.265
 1521TIP3    H2 4570   4.541   0.852   0.345
 1522TIP3   OH2 4571   3.798   1.892   3.562
 1522TIP3    H1 4572   3.713   1.875   3.521
 1522TIP3    H2 4573   3.784   1.969   3.617
 1523TIP3   OH2 4574   2.442   3.739   2.339
 1523TIP3    H1 4575   2.472   3.819   2.382
 1523TIP3    H2 4576   2.355   3.761   2.306
 1524TIP3   OH2 4577   3.811   1.256   1.604
 1524TIP3    H1 4578   3.846   1.229   1.519
 1524TIP3    H2 4579   3.748   1.187   1.627
 1525TIP3   OH2 4580   0.024   4.633  -0.017
 1525TIP3    H1 4581   0.074   4.571   0.037
 1525TIP3    H2 4582  -0.068   4.612   0.002
 1526TIP3   OH2 4583   1.351   1.207   0.292
 1526TIP3    H1 4584   1.326   1.157   0.370
 1526TIP3    H2 4585   1.385   1.142   0.231
 1527TIP3   OH2 4586   4.849   5.001   4.278
 1527TIP3    H1 4587   4.861   5.066   4.210
 1527TIP3    H2 4588   4.846   4.917   4.231
 1528TIP3   OH2 4589   4.723   4.554   1.292
 1528TIP3    H1 4590   4.711   4.462   1.314
 1528TIP3    H2 4591   4.635   4.587   1.275
 1529TIP3   OH2 4592   4.923   1.708   0.711
 1529TIP3    H1 4593   4.995   1.720   0.773
 1529TIP3    H2 4594   4.893   1.797   0.692
 1530TIP3   OH2 4595   4.036   4.134   3.001
 1530TIP3    H1 4596   4.054   4.228   3.001
 1530TIP3    H2 4597   3.982   4.120   2.923
 1531TIP3   OH2 4598   3.045   5.832   4.504
 1531TIP3    H1 4599   3.100   5.900   4.464
 1531TIP3    H2 4600   3.090   5.750   4.482
 1532TIP3   OH2 4601   2.616   3.202   1.899
 1532TIP3    H1 4602   2.667   3.282   1.911
 1532TIP3    H2 4603   2.679   3.131   1.911
 1533TIP3   OH2 4604   1.868   1.779   0.279
 1533TIP3    H1 4605   1.851   1.830   0.200
 1533TIP3    H2 4606   1.862   1.688   0.250
 1534TIP3   OH2 4607   5.277   1.091   2.785
 1534TIP3    H1 4608   5.188   1.125   2.775
 1534TIP3    H2 4609   5.304   1.120   2.872
 1535TIP3   OH2 4610   0.900   3.234   0.443
 1535TIP3    H1 4611   0.879   3.324   0.417
 1535TIP3    H2 4612   0.991   3.238   0.471
 1536TIP3   OH2 4613   5.520   3.249   0.815
 1536TIP3    H1 4614   5.558   3.173   0.859
 1536TIP3    H2 4615   5.551   3.324   0.866
 1537TIP3   OH2 4616   4.561   1.347   0.634
 1537TIP3    H1 4617   4.595   1.258   0.635
 1537TIP3    H2 4618   4.634   1.401   0.602
 1538TIP3   OH2 4619   0.216   1.854   3.267
 1538TIP3    H1 4620   0.251   1.867   3.355
 1538TIP3    H2 4621   0.242   1.933   3.220
 1539TIP3   OH2 4622   2.560   1.427   4.305
 1539TIP3    H1 4623   2.644   1.445   4.345
 1539TIP3    H2 4624   2.555   1.331   4.301
 1540TIP3   OH2 4625   0.852   0.606   4.234
 1540TIP3    H1 4626   0.879   0.601   4.142
 1540TIP3    H2 4627   0.928   0.642   4.279
 1541TIP3   OH2 4628   6.280   3.076   3.639
 1541TIP3    H1 4629   6.262   3.106   3.728
 1541TIP3    H2 4630   6.359   3.123   3.613
 1542TIP3   OH2 4631   5.601   4.662   0.779
 1542TIP3    H1 4632   5.607   4.588   0.718
 1542TIP3    H2 4633   5.659   4.729   0.741
 1543TIP3   OH2 4634   4.013   1.871   3.822
 1543TIP3    H1 4635   4.041   1.825   3.743
 1543TIP3    H2 4636   3.995   1.961   3.793
 1544TIP3   OH2 4637   1.181   3.381   2.288
 1544TIP3    H1 4638   1.132   3.463   2.277
 1544TIP3    H2 4639   1.130   3.316   2.240
 1545TIP3   OH2 4640   3.371   2.851   2.857
 1545TIP3    H1 4641   3.383   2.759   2.879
 1545TIP3    H2 4642   3.334   2.890   2.937
 1546TIP3   OH2 4643   5.849   3.494   3.024
 1546TIP3    H1 4644   5.782   3.551   3.061
 1546TIP3    H2 4645   5.841   3.412   3.073
 1547TIP3   OH2 4646   0.206   2.649   3.249
 1547TIP3    H1 4647   0.246   2.729   3.214
 1547TIP3    H2 4648   0.279   2.603   3.291
 1548TIP3   OH2 4649   2.829   0.856   2.039
 1548TIP3    H1 4650   2.843   0.936   1.988
 1548TIP3    H2 4651   2.799   0.886   2.124
 1549TIP3   OH2 4652   4.535   3.719   3.758
 1549TIP3    H1 4653   4.499   3.641   3.716
 1549TIP3    H2 4654   4.469   3.786   3.744
 1550TIP3   OH2 4655   4.821   1.695   3.646
 1550TIP3    H1 4656   4.913   1.679   3.669
 1550TIP3    H2 4657   4.775   1.692   3.730
 1551TIP3   OH2 4658   3.442   5.020   4.338
 1551TIP3    H1 4659   3.370   4.984   4.286
 1551TIP3    H2 4660   3.398   5.064   4.412
 1552TIP3   OH2 4661   2.701   4.034   2.434
 1552TIP3    H1 4662   2.680   3.959   2.490
 1552TIP3    H2 4663   2.793   4.052   2.452
 1553TIP3   OH2 4664   4.939   0.067   1.771
 1553TIP3    H1 4665   4.883   0.011   1.718
 1553TIP3    H2 4666   5.028   0.046   1.743
 1554TIP3   OH2 4667   5.889   3.305   3.238
 1554TIP3    H1 4668   5.974   3.274   3.272
 1554TIP3    H2 4669   5.864   3.240   3.173
 1555TIP3   OH2 4670   3.541   1.642   3.046
 1555TIP3    H1 4671   3.479   1.705   3.084
 1555TIP3    H2 4672   3.591   1.693   2.983
 1556TIP3   OH2 4673   1.359   0.192   2.243
 1556TIP3    H1 4674   1.404   0.275   2.230
 1556TIP3    H2 4675   1.428   0.130   2.266
 1557TIP3   OH2 4676   5.685   5.312   4.925
 1557TIP3    H1 4677   5.610   5.253   4.933
 1557TIP3    H2 4678   5.722   5.315   5.014
 1558TIP3   OH2 4679   1.933   5.134   4.359
 1558TIP3    H1 4680   1.841   5.153   4.342
 1558TIP3    H2 4681   1.944   5.043   4.332
 1559TIP3   OH2 4682   1.865   1.442   5.204
 1559TIP3    H1 4683   1.897   1.528   5.232
 1559TIP3    H2 4684   1.869   1.445   5.108
 1560TIP3   OH2 4685   4.921   1.818   2.155
 1560TIP3    H1 4686   4.935   1.841   2.063
 1560TIP3    H2 4687   4.993   1.758   2.176
 1561TIP3   OH2 4688   2.888   4.140   4.657
 1561TIP3    H1 4689   2.867   4.214   4.600
 1561TIP3    H2 4690   2.968   4.167   4.702
 1562TIP3   OH2 4691   3.798   1.732   2.336
 1562TIP3    H1 4692   3.842   1.817   2.330
 1562TIP3    H2 4693   3.856   1.672   2.289
 1563TIP3   OH2 4694   2.120   3.830   4.737
 1563TIP3    H1 4695   2.072   3.754   4.707
 1563TIP3    H2 4696   2.206   3.822   4.698
 1564TIP3   OH2 4697   4.710   3.844   0.806
 1564TIP3    H1 4698   4.798   3.853   0.843
 1564TIP3    H2 4699   4.670   3.775   0.860
 1565TIP3   OH2 4700   3.107   5.301   1.234
 1565TIP3    H1 4701   3.050   5.234   1.196
 1565TIP3    H2 4702   3.140   5.261   1.314
 1566TIP3   OH2 4703   0.147   0.208   3.258
 1566TIP3    H1 4704   0.231   0.254   3.255
 1566TIP3    H2 4705   0.098   0.242   3.183
 1567TIP3   OH2 4706   3.359   5.487   4.594
 1567TIP3    H1 4707   3.291   5.494   4.661
 1567TIP3    H2 4708   3.352   5.568   4.544
 1568TIP3   OH2 4709   2.864   0.955   4.106
 1568TIP3    H1 4710   2.782   0.935   4.061
 1568TIP3    H2 4711   2.860   0.905   4.187
 1569TIP3   OH2 4712   3.826   2.579   1.598
 1569TIP3    H1 4713   3.882   2.540   1.665
 1569TIP3    H2 4714   3.770   2.640   1.646
 1570TIP3   OH2 4715   5.099   3.173   3.657
 1570TIP3    H1 4716   5.030   3.234   3.629
 1570TIP3    H2 4717   5.098   3.178   3.753
 1571TIP3   OH2 4718   2.435   5.813   2.575
 1571TIP3    H1 4719   2.400   5.882   2.519
 1571TIP3    H2 4720   2.360   5.758   2.596
 1572TIP3   OH2 4721   6.143   0.769   1.258
 1572TIP3    H1 4722   6.113   0.723   1.179
 1572TIP3    H2 4723   6.064   0.780   1.311
 1573TIP3   OH2 4724   2.665   4.522   0.714
 1573TIP3    H1 4725   2.596   4.549   0.654
 1573TIP3    H2 4726   2.740   4.577   0.691
 1574TIP3   OH2 4727   1.458   5.079   2.125
 1574TIP3    H1 4728   1.395   5.038   2.066
 1574TIP3    H2 4729   1.431   5.170   2.129
 1575TIP3   OH2 4730   3.734   1.360   2.881
 1575TIP3    H1 4731   3.812   1.307   2.863
 1575TIP3    H2 4732   3.693   1.318   2.956
 1576TIP3   OH2 4733   4.537   0.833   1.997
 1576TIP3    H1 4734   4.597   0.906   1.981
 1576TIP3    H2 4735   4.589   0.771   2.049
 1577TIP3   OH2 4736   0.762   3.841   3.547
 1577TIP3    H1 4737   0.723   3.878   3.627
 1577TIP3    H2 4738   0.823   3.775   3.579
 1578TIP3   OH2 4739   1.251   1.227   2.917
 1578TIP3    H1 4740   1.279   1.276   2.839
 1578TIP3    H2 4741   1.328   1.228   2.974
 1579TIP3   OH2 4742   2.112   3.010   0.105
 1579TIP3    H1 4743   2.107   2.971   0.018
 1579TIP3    H2 4744   2.034   2.977   0.150
 1580TIP3   OH2 4745   3.067   3.456   4.394
 1580TIP3    H1 4746   3.060   3.478   4.486
 1580TIP3    H2 4747   3.142   3.397   4.389
 1581TIP3   OH2 4748   6.135   5.696   2.051
 1581TIP3    H1 4749   6.055   5.716   2.001
 1581TIP3    H2 4750   6.144   5.601   2.044
 1582TIP3   OH2 4751   1.607   1.405   4.507
 1582TIP3    H1 4752   1.691   1.451   4.509
 1582TIP3    H2 4753   1.567   1.425   4.592
 1583TIP3   OH2 4754   1.475   2.802   1.708
 1583TIP3    H1 4755   1.407   2.736   1.690
 1583TIP3    H2 4756   1.437   2.884   1.676
 1584TIP3   OH2 4757   1.823   3.420   2.063
 1584TIP3    H1 4758   1.847   3.494   2.118
 1584TIP3    H2 4759   1.740   3.389   2.099
 1585TIP3   OH2 4760   3.729   2.551   1.957
 1585TIP3    H1 4761   3.806   2.602   1.936
 1585TIP3    H2 4762   3.747   2.515   2.044
 1586TIP3   OH2 4763   0.914   0.353   0.348
 1586TIP3    H1 4764   0.849   0.292   0.312
 1586TIP3    H2 4765   0.975   0.369   0.276
 1587TIP3   OH2 4766   2.752   3.188   3.510
 1587TIP3    H1 4767   2.751   3.178   3.414
 1587TIP3    H2 4768   2.682   3.252   3.527
 1588TIP3   OH2 4769   2.352   3.406   0.608
 1588TIP3    H1 4770   2.365   3.346   0.535
 1588TIP3    H2 4771   2.428   3.465   0.605
 1589TIP3   OH2 4772   6.053   5.090   0.131
 1589TIP3    H1 4773   6.074   5.066   0.041
 1589TIP3    H2 4774   6.133   5.072   0.180
 1590TIP3   OH2 4775   5.541   0.682   2.343
 1590TIP3    H1 4776   5.624   0.676   2.297
 1590TIP3    H2 4777   5.485   0.617   2.300
 1591TIP3   OH2 4778   3.093   4.690   3.723
 1591TIP3    H1 4779   3.035   4.629   3.767
 1591TIP3    H2 4780   3.167   4.636   3.693
 1592TIP3   OH2 4781  -0.011   5.193   5.146
 1592TIP3    H1 4782  -0.008   5.246   5.066
 1592TIP3    H2 4783   0.052   5.123   5.131
 1593TIP3   OH2 4784   3.441   1.194   0.130
 1593TIP3    H1 4785   3.498   1.238   0.193
 1593TIP3    H2 4786   3.499   1.170   0.059
 1594TIP3   OH2 4787   3.407   2.101   2.868
 1594TIP3    H1 4788   3.417   2.151   2.787
 1594TIP3    H2 4789   3.346   2.152   2.921
 1595TIP3   OH2 4790   1.244   3.252   4.484
 1595TIP3    H1 4791   1.197   3.198   4.547
 1595TIP3    H2 4792   1.239   3.204   4.401
 1596TIP3   OH2 4793   2.125   2.454   0.064
 1596TIP3    H1 4794   2.110   2.386   0.130
 1596TIP3    H2 4795   2.129   2.535   0.113
 1597TIP3   OH2 4796   1.858   5.394   1.075
 1597TIP3    H1 4797   1.766   5.370   1.072
 1597TIP3    H2 4798   1.863   5.460   1.145
 1598TIP3   OH2 4799   2.904   4.168   1.589
 1598TIP3    H1 4800   2.875   4.147   1.677
 1598TIP3    H2 4801   2.997   4.190   1.599
 1599TIP3   OH2 4802   2.421   2.015   3.525
 1599TIP3    H1 4803   2.511   1.988   3.544
 1599TIP3    H2 4804   2.426   2.110   3.516
 1600TIP3   OH2 4805   0.441   4.073   2.049
 1600TIP3    H1 4806   0.513   4.054   1.990
 1600TIP3    H2 4807   0.478   4.132   2.114
 1601TIP3   OH2 4808   5.140   1.239   1.128
 1601TIP3    H1 4809   5.056   1.241   1.175
 1601TIP3    H2 4810   5.121   1.277   1.043
 1602TIP3   OH2 4811   3.240   5.274   5.089
 1602TIP3    H1 4812   3.219   5.238   5.002
 1602TIP3    H2 4813   3.162   5.255   5.141
 1603TIP3   OH2 4814   1.265   4.358   3.653
 1603TIP3    H1 4815   1.346   4.311   3.633
 1603TIP3    H2 4816   1.231   4.315   3.731
 1604TIP3   OH2 4817   3.890   4.505   3.959
 1604TIP3    H1 4818   3.869   4.520   3.867
 1604TIP3    H2 4819   3.806   4.507   4.004
 1605TIP3   OH2 4820   3.405   0.727   2.299
 1605TIP3    H1 4821   3.350   0.801   2.326
 1605TIP3    H2 4822   3.468   0.716   2.370
 1606TIP3   OH2 4823   4.935   0.812   1.873
 1606TIP3    H1 4824   4.936   0.717   1.861
 1606TIP3    H2 4825   4.974   0.846   1.792
 1607TIP3   OH2 4826   0.397   0.354   3.290
 1607TIP3    H1 4827   0.424   0.280   3.345
 1607TIP3    H2 4828   0.394   0.429   3.349
 1608TIP3   OH2 4829   2.003   0.789   3.873
 1608TIP3    H1 4830   1.951   0.804   3.794
 1608TIP3    H2 4831   1.952   0.725   3.923
 1609TIP3   OH2 4832   2.026   0.859   4.686
 1609TIP3    H1 4833   2.006   0.767   4.666
 1609TIP3    H2 4834   2.012   0.866   4.780
 1610TIP3   OH2 4835   4.474   3.755   4.413
 1610TIP3    H1 4836   4.506   3.666   4.399
 1610TIP3    H2 4837   4.401   3.745   4.474
 1611TIP3   OH2 4838   6.124   2.010   2.949
 1611TIP3    H1 4839   6.085   1.979   3.031
 1611TIP3    H2 4840   6.083   2.095   2.933
 1612TIP3   OH2 4841   3.549   4.742   1.198
 1612TIP3    H1 4842   3.558   4.649   1.220
 1612TIP3    H2 4843   3.639   4.773   1.191
 1613TIP3   OH2 4844   6.306   1.890   3.321
 1613TIP3    H1 4845   6.399   1.871   3.329
 1613TIP3    H2 4846   6.274   1.895   3.411
 1614TIP3   OH2 4847   2.626   2.025   4.260
 1614TIP3    H1 4848   2.563   2.019   4.188
 1614TIP3    H2 4849   2.590   2.093   4.318
 1615TIP3   OH2 4850   5.595   4.033   0.189
 1615TIP3    H1 4851   5.607   3.962   0.251
 1615TIP3    H2 4852   5.558   4.104   0.242
 1616TIP3   OH2 4853   0.423   2.562   4.455
 1616TIP3    H1 4854   0.344   2.551   4.506
 1616TIP3    H2 4855   0.479   2.489   4.480
 1617TIP3   OH2 4856   3.508   3.520   3.095
 1617TIP3    H1 4857   3.555   3.457   3.041
 1617TIP3    H2 4858   3.551   3.514   3.181
 1618TIP3   OH2 4859   2.753   3.511   3.856
 1618TIP3    H1 4860   2.687   3.548   3.798
 1618TIP3    H2 4861   2.715   3.517   3.944
 1619TIP3   OH2 4862   4.888   3.794   4.641
 1619TIP3    H1 4863   4.968   3.846   4.645
 1619TIP3    H2 4864   4.917   3.704   4.657
 1620TIP3   OH2 4865   4.770   2.831   2.731
 1620TIP3    H1 4866   4.693   2.885   2.749
 1620TIP3    H2 4867   4.764   2.813   2.637
 1621TIP3   OH2 4868   5.077   0.761   1.399
 1621TIP3    H1 4869   5.120   0.760   1.313
 1621TIP3    H2 4870   5.017   0.835   1.394
 1622TIP3   OH2 4871   0.054   3.736   1.628
 1622TIP3    H1 4872   0.124   3.693   1.677
 1622TIP3    H2 4873   0.045   3.685   1.548
 1623TIP3   OH2 4874   3.454   0.392   4.219
 1623TIP3    H1 4875   3.516   0.411   4.149
 1623TIP3    H2 4876   3.377   0.445   4.198
 1624TIP3   OH2 4877   6.100   4.904   0.541
 1624TIP3    H1 4878   6.092   4.999   0.535
 1624TIP3    H2 4879   6.088   4.885   0.635
 1625TIP3   OH2 4880   2.273   2.400   2.457
 1625TIP3    H1 4881   2.224   2.324   2.488
 1625TIP3    H2 4882   2.209   2.471   2.457
 1626TIP3   OH2 4883   0.255   3.479   3.295
 1626TIP3    H1 4884   0.323   3.500   3.358
 1626TIP3    H2 4885   0.213   3.400   3.329
 1627TIP3   OH2 4886   2.929   0.574   2.030
 1627TIP3    H1 4887   2.962   0.659   2.057
 1627TIP3    H2 4888   2.966   0.512   2.093
 1628TIP3   OH2 4889   5.118   4.458   0.712
 1628TIP3    H1 4890   5.208   4.483   0.691
 1628TIP3    H2 4891   5.066   4.493   0.639
 1629TIP3   OH2 4892   0.557   4.217   2.285
 1629TIP3    H1 4893   0.609   4.272   2.227
 1629TIP3    H2 4894   0.617   4.193   2.356
 1630TIP3   OH2 4895   5.451   1.071   0.856
 1630TIP3    H1 4896   5.539   1.075   0.893
 1630TIP3    H2 4897   5.452   0.991   0.802
 1631TIP3   OH2 4898   3.359   2.875   5.042
 1631TIP3    H1 4899   3.357   2.945   4.976
 1631TIP3    H2 4900   3.269   2.868   5.073
 1632TIP3   OH2 4901   0.356   0.717   3.729
 1632TIP3    H1 4902   0.315   0.803   3.731
 1632TIP3    H2 4903   0.450   0.736   3.730
 1633TIP3   OH2 4904   6.091   4.146   1.666
 1633TIP3    H1 4905   6.155   4.174   1.731
 1633TIP3    H2 4906   6.129   4.067   1.628
 1634TIP3   OH2 4907   2.019   1.222   0.635
 1634TIP3    H1 4908   1.992   1.207   0.544
 1634TIP3    H2 4909   2.061   1.140   0.661
 1635TIP3   OH2 4910   4.261   3.172   0.045
 1635TIP3    H1 4911   4.275   3.128  -0.039
 1635TIP3    H2 4912   4.166   3.171   0.058
 1636TIP3   OH2 4913   0.819   3.451   2.341
 1636TIP3    H1 4914   0.827   3.367   2.295
 1636TIP3    H2 4915   0.880   3.509   2.295
 1637TIP3   OH2 4916   1.828   5.739   2.197
 1637TIP3    H1 4917   1.819   5.662   2.141
 1637TIP3    H2 4918   1.775   5.718   2.274
 1638TIP3   OH2 4919   3.764   4.174   0.595
 1638TIP3    H1 4920   3.673   4.175   0.625
 1638TIP3    H2 4921   3.803   4.252   0.633
 1639TIP3   OH2 4922   6.003   2.924   2.486
 1639TIP3    H1 4923   5.917   2.916   2.528
 1639TIP3    H2 4924   6.065   2.904   2.556
 1640TIP3   OH2 4925   1.131   0.050   0.216
 1640TIP3    H1 4926   1.208   0.106   0.217
 1640TIP3    H2 4927   1.166  -0.038   0.203
 1641TIP3   OH2 4928   0.606   4.836   2.733
 1641TIP3    H1 4929   0.620   4.796   2.819
 1641TIP3    H2 4930   0.613   4.763   2.671
 1642TIP3   OH2 4931   6.270   2.529   2.190
 1642TIP3    H1 4932   6.249   2.617   2.157
 1642TIP3    H2 4933   6.284   2.542   2.284
 1643TIP3   OH2 4934   5.547   3.684   4.544
 1643TIP3    H1 4935   5.576   3.765   4.587
 1643TIP3    H2 4936   5.577   3.614   4.601
 1644TIP3   OH2 4937   3.836   0.327   3.834
 1644TIP3    H1 4938   3.900   0.284   3.777
 1644TIP3    H2 4939   3.838   0.419   3.807
 1645TIP3   OH2 4940   1.576   1.198   4.893
 1645TIP3    H1 4941   1.619   1.161   4.815
 1645TIP3    H2 4942   1.539   1.281   4.862
 1646TIP3   OH2 4943   3.894   5.661   1.487
 1646TIP3    H1 4944   3.936   5.647   1.572
 1646TIP3    H2 4945   3.950   5.614   1.425
 1647TIP3   OH2 4946   4.923   1.257   3.329
 1647TIP3    H1 4947   4.839   1.293   3.301
 1647TIP3    H2 4948   4.903   1.206   3.407
 1648TIP3   OH2 4949   2.700   5.776   5.131
 1648TIP3    H1 4950   2.780   5.783   5.078
 1648TIP3    H2 4951   2.631   5.812   5.076
 1649TIP3   OH2 4952   1.827   5.395   2.057
 1649TIP3    H1 4953   1.737   5.385   2.027
 1649TIP3    H2 4954   1.880   5.383   1.978
 1650TIP3   OH2 4955   3.520   4.690   1.899
 1650TIP3    H1 4956   3.509   4.746   1.822
 1650TIP3    H2 4957   3.513   4.750   1.973
 1651TIP3   OH2 4958   3.311   3.329   2.298
 1651TIP3    H1 4959   3.258   3.405   2.272
 1651TIP3    H2 4960   3.301   3.325   2.393
 1652TIP3   OH2 4961   1.156   3.879   3.970
 1652TIP3    H1 4962   1.251   3.885   3.978
 1652TIP3    H2 4963   1.137   3.785   3.967
 1653TIP3   OH2 4964   4.173   3.667   3.653
 1653TIP3    H1 4965   4.223   3.626   3.723
 1653TIP3    H2 4966   4.239   3.694   3.589
 1654TIP3   OH2 4967   4.234   5.358   3.811
 1654TIP3    H1 4968   4.273   5.442   3.835
 1654TIP3    H2 4969   4.301   5.314   3.759
 1655TIP3   OH2 4970   1.457   5.648   2.054
 1655TIP3    H1 4971   1.497   5.607   1.977
 1655TIP3    H2 4972   1.389   5.586   2.081
 1656TIP3   OH2 4973   0.180   2.144   3.421
 1656TIP3    H1 4974   0.097   2.137   3.468
 1656TIP3    H2 4975   0.246   2.122   3.486
 1657TIP3   OH2 4976   3.427   1.046   0.526
 1657TIP3    H1 4977   3.479   1.004   0.457
 1657TIP3    H2 4978   3.457   1.004   0.607
 1658TIP3   OH2 4979   3.826   3.792   3.065
 1658TIP3    H1 4980   3.811   3.698   3.076
 1658TIP3    H2 4981   3.786   3.812   2.981
 1659TIP3   OH2 4982   5.801   5.032   0.254
 1659TIP3    H1 4983   5.884   5.077   0.238
 1659TIP3    H2 4984   5.818   4.941   0.228
 1660TIP3   OH2 4985   4.407   3.357   3.300
 1660TIP3    H1 4986   4.380   3.326   3.213
 1660TIP3    H2 4987   4.373   3.446   3.306
 1661TIP3   OH2 4988   5.689   2.425   3.223
 1661TIP3    H1 4989   5.673   2.366   3.296
 1661TIP3    H2 4990   5.782   2.413   3.202
 1662TIP3   OH2 4991   0.343   2.324   3.984
 1662TIP3    H1 4992   0.374   2.301   3.897
 1662TIP3    H2 4993   0.353   2.419   3.988
 1663TIP3   OH2 4994   4.808   0.779   3.190
 1663TIP3    H1 4995   4.762   0.823   3.118
 1663TIP3    H2 4996   4.756   0.800   3.268
 1664TIP3   OH2 4997   5.864   2.232   4.025
 1664TIP3    H1 4998   5.920   2.254   4.099
 1664TIP3    H2 4999   5.810   2.160   4.056
 1665TIP3   OH2 5000   2.279   5.487   2.776
 1665TIP3    H1 5001   2.233   5.536   2.707
 1665TIP3    H2 5002   2.371   5.511   2.766
 1666TIP3   OH2 5003   2.972   4.978   1.766
 1666TIP3    H1 5004   2.899   4.935   1.720
 1666TIP3    H2 5005   3.012   4.908   1.816
 1667TIP3   OH2 5006   4.558   1.087   1.166
 1667TIP3    H1 5007   4.598   1.020   1.110
 1667TIP3    H2 5008   4.567   1.052   1.255
 1668TIP3   OH2 5009   3.244   2.160   2.132
 1668TIP3    H1 5010   3.160   2.200   2.110
 1668TIP3    H2 5011   3.249   2.082   2.076
 1669TIP3   OH2 5012   2.371   0.224   2.073
 1669TIP3    H1 5013   2.277   0.205   2.063
 1669TIP3    H2 5014   2.382   0.311   2.036
 1670TIP3   OH2 5015   5.066   5.469   3.080
 1670TIP3    H1 5016   4.993   5.410   3.059
 1670TIP3    H2 5017   5.081   5.456   3.173
 1671TIP3   OH2 5018   2.047   5.085   4.665
 1671TIP3    H1 5019   1.957   5.058   4.646
 1671TIP3    H2 5020   2.050   5.177   4.641
 1672TIP3   OH2 5021   1.068   2.242   1.103
 1672TIP3    H1 5022   1.154   2.231   1.143
 1672TIP3    H2 5023   1.006   2.221   1.173
 1673TIP3   OH2 5024   6.237   4.679   4.740
 1673TIP3    H1 5025   6.281   4.684   4.824
 1673TIP3    H2 5026   6.307   4.668   4.676
 1674TIP3   OH2 5027   3.472   2.107   1.164
 1674TIP3    H1 5028   3.420   2.124   1.086
 1674TIP3    H2 5029   3.407   2.095   1.234
 1675TIP3   OH2 5030   2.803   2.225   4.656
 1675TIP3    H1 5031   2.876   2.179   4.615
 1675TIP3    H2 5032   2.793   2.182   4.741
 1676TIP3   OH2 5033   3.799   3.556   2.278
 1676TIP3    H1 5034   3.749   3.476   2.297
 1676TIP3    H2 5035   3.848   3.573   2.358
 1677TIP3   OH2 5036   2.581   5.321   3.003
 1677TIP3    H1 5037   2.505   5.371   2.972
 1677TIP3    H2 5038   2.628   5.298   2.923
 1678TIP3   OH2 5039   5.833   0.905   0.008
 1678TIP3    H1 5040   5.915   0.876  -0.033
 1678TIP3    H2 5041   5.861   0.938   0.094
 1679TIP3   OH2 5042   3.320   3.940   0.817
 1679TIP3    H1 5043   3.402   3.905   0.851
 1679TIP3    H2 5044   3.299   3.883   0.743
 1680TIP3   OH2 5045   5.947   0.267   4.313
 1680TIP3    H1 5046   5.983   0.321   4.242
 1680TIP3    H2 5047   6.013   0.273   4.382
 1681TIP3   OH2 5048   2.327   3.178   2.223
 1681TIP3    H1 5049   2.242   3.221   2.235
 1681TIP3    H2 5050   2.325   3.148   2.132
 1682TIP3   OH2 5051   4.844   1.388   2.357
 1682TIP3    H1 5052   4.794   1.469   2.354
 1682TIP3    H2 5053   4.796   1.328   2.300
 1683TIP3   OH2 5054   0.632   4.096   3.679
 1683TIP3    H1 5055   0.608   4.114   3.589
 1683TIP3    H2 5056   0.634   4.181   3.722
 1684TIP3   OH2 5057   1.258   1.598   4.973
 1684TIP3    H1 5058   1.280   1.691   4.967
 1684TIP3    H2 5059   1.342   1.555   4.987
 1685TIP3   OH2 5060   6.009   2.576   1.881
 1685TIP3    H1 5061   5.942   2.640   1.906
 1685TIP3    H2 5062   5.995   2.503   1.941
 1686TIP3   OH2 5063   5.653   3.005   3.081
 1686TIP3    H1 5064   5.644   3.043   3.168
 1686TIP3    H2 5065   5.566   3.013   3.042
 1687TIP3   OH2 5066   5.494   4.234   0.367
 1687TIP3    H1 5067   5.426   4.287   0.325
 1687TIP3    H2 5068   5.488   4.257   0.460
 1688TIP3   OH2 5069   0.366   4.398   2.957
 1688TIP3    H1 5070   0.305   4.426   3.025
 1688TIP3    H2 5071   0.453   4.417   2.993
 1689TIP3   OH2 5072   1.060   5.814   4.345
 1689TIP3    H1 5073   0.992   5.861   4.394
 1689TIP3    H2 5074   1.141   5.833   4.393
 1690TIP3   OH2 5075   0.302   3.438   1.266
 1690TIP3    H1 5076   0.314   3.436   1.361
 1690TIP3    H2 5077   0.388   3.415   1.230
 1691TIP3   OH2 5078   0.200   4.384   4.387
 1691TIP3    H1 5079   0.115   4.421   4.412
 1691TIP3    H2 5080   0.183   4.337   4.305
 1692TIP3   OH2 5081   5.818   2.180   2.537
 1692TIP3    H1 5082   5.818   2.096   2.492
 1692TIP3    H2 5083   5.799   2.159   2.628
 1693TIP3   OH2 5084   1.002   5.464   4.037
 1693TIP3    H1 5085   1.095   5.440   4.034
 1693TIP3    H2 5086   0.998   5.535   4.102
 1694TIP3   OH2 5087   5.382   3.134   4.600
 1694TIP3    H1 5088   5.476   3.144   4.587
 1694TIP3    H2 5089   5.366   3.169   4.688
 1695TIP3   OH2 5090   4.985   5.249   0.427
 1695TIP3    H1 5091   4.914   5.202   0.384
 1695TIP3    H2 5092   4.946   5.285   0.506
 1696TIP3   OH2 5093   0.790   2.559   3.396
 1696TIP3    H1 5094   0.804   2.525   3.485
 1696TIP3    H2 5095   0.878   2.580   3.364
 1697TIP3   OH2 5096   1.694   2.628   2.690
 1697TIP3    H1 5097   1.751   2.677   2.629
 1697TIP3    H2 5098   1.686   2.685   2.766
 1698TIP3   OH2 5099   5.791   4.528   3.888
 1698TIP3    H1 5100   5.881   4.515   3.858
 1698TIP3    H2 5101   5.738   4.526   3.809
 1699TIP3   OH2 5102   2.014   4.072   4.672
 1699TIP3    H1 5103   2.037   4.040   4.584
 1699TIP3    H2 5104   2.049   4.005   4.731
 1700TIP3   OH2 5105   5.158   0.568   4.614
 1700TIP3    H1 5106   5.074   0.607   4.635
 1700TIP3    H2 5107   5.222   0.625   4.656
 1701TIP3   OH2 5108   3.614   4.393   1.056
 1701TIP3    H1 5109   3.642   4.357   0.972
 1701TIP3    H2 5110   3.629   4.488   1.048
 1702TIP3   OH2 5111   1.810   3.085   1.591
 1702TIP3    H1 5112   1.795   2.994   1.565
 1702TIP3    H2 5113   1.842   3.128   1.511
 1703TIP3   OH2 5114   2.758   0.162   1.328
 1703TIP3    H1 5115   2.778   0.238   1.384
 1703TIP3    H2 5116   2.824   0.097   1.351
 1704TIP3   OH2 5117   4.573   1.172   3.059
 1704TIP3    H1 5118   4.483   1.161   3.030
 1704TIP3    H2 5119   4.624   1.183   2.979
 1705TIP3   OH2 5120   5.972   1.769   4.576
 1705TIP3    H1 5121   6.063   1.747   4.595
 1705TIP3    H2 5122   5.942   1.816   4.654
 1706TIP3   OH2 5123   3.216   5.044   0.544
 1706TIP3    H1 5124   3.271   5.052   0.622
 1706TIP3    H2 5125   3.274   5.067   0.471
 1707TIP3   OH2 5126   0.995   2.232   2.086
 1707TIP3    H1 5127   1.063   2.272   2.141
 1707TIP3    H2 5128   1.016   2.139   2.087
 1708TIP3   OH2 5129   2.809   5.674   3.711
 1708TIP3    H1 5130   2.829   5.686   3.618
 1708TIP3    H2 5131   2.714   5.669   3.715
 1709TIP3   OH2 5132   1.978   5.713   2.821
 1709TIP3    H1 5133   1.986   5.670   2.735
 1709TIP3    H2 5134   1.924   5.653   2.873
 1710TIP3   OH2 5135   5.580   5.873   1.671
 1710TIP3    H1 5136   5.642   5.945   1.684
 1710TIP3    H2 5137   5.577   5.827   1.755
 1711TIP3   OH2 5138   3.426   2.626   3.873
 1711TIP3    H1 5139   3.391   2.557   3.929
 1711TIP3    H2 5140   3.448   2.697   3.933
 1712TIP3   OH2 5141   0.076   5.908   0.561
 1712TIP3    H1 5142   0.154   5.914   0.505
 1712TIP3    H2 5143   0.008   5.953   0.512
 1713TIP3   OH2 5144   1.381   2.200   0.091
 1713TIP3    H1 5145   1.287   2.208   0.104
 1713TIP3    H2 5146   1.418   2.276   0.135
 1714TIP3   OH2 5147   6.055   2.691   1.144
 1714TIP3    H1 5148   6.042   2.785   1.134
 1714TIP3    H2 5149   6.150   2.680   1.149
 1715TIP3   OH2 5150   1.462   5.717   4.931
 1715TIP3    H1 5151   1.471   5.654   4.860
 1715TIP3    H2 5152   1.536   5.699   4.989
 1716TIP3   OH2 5153   3.762   5.123   2.293
 1716TIP3    H1 5154   3.755   5.031   2.316
 1716TIP3    H2 5155   3.709   5.132   2.214
 1717TIP3   OH2 5156   0.262   3.715   3.838
 1717TIP3    H1 5157   0.349   3.746   3.861
 1717TIP3    H2 5158   0.204   3.788   3.860
 1718TIP3   OH2 5159   3.595   5.183   4.610
 1718TIP3    H1 5160   3.647   5.131   4.549
 1718TIP3    H2 5161   3.540   5.120   4.656
 1719TIP3   OH2 5162   0.526   5.049   1.971
 1719TIP3    H1 5163   0.460   5.111   2.002
 1719TIP3    H2 5164   0.609   5.083   2.005
 1720TIP3   OH2 5165   2.959   4.035   2.930
 1720TIP3    H1 5166   3.018   3.968   2.896
 1720TIP3    H2 5167   2.899   3.988   2.988
 1721TIP3   OH2 5168   3.711   5.224   0.747
 1721TIP3    H1 5169   3.758   5.217   0.830
 1721TIP3    H2 5170   3.739   5.148   0.697
 1722TIP3   OH2 5171   5.256   0.792   0.112
 1722TIP3    H1 5172   5.221   0.719   0.060
 1722TIP3    H2 5173   5.208   0.869   0.082
 1723TIP3   OH2 5174   6.211   5.163   2.668
 1723TIP3    H1 5175   6.158   5.096   2.624
 1723TIP3    H2 5176   6.151   5.205   2.729
 1724TIP3   OH2 5177   0.650   2.508   2.480
 1724TIP3    H1 5178   0.589   2.477   2.547
 1724TIP3    H2 5179   0.677   2.428   2.433
 1725TIP3   OH2 5180   5.223   2.315   3.172
 1725TIP3    H1 5181   5.159   2.348   3.110
 1725TIP3    H2 5182   5.233   2.222   3.149
 1726TIP3   OH2 5183   6.070   5.223   3.299
 1726TIP3    H1 5184   6.079   5.179   3.215
 1726TIP3    H2 5185   5.976   5.226   3.315
 1727TIP3   OH2 5186   5.593   1.218   1.532
 1727TIP3    H1 5187   5.522   1.156   1.549
 1727TIP3    H2 5188   5.550   1.303   1.522
 1728TIP3   OH2 5189   5.021   0.620   4.023
 1728TIP3    H1 5190   4.986   0.542   3.981
 1728TIP3    H2 5191   4.945   0.661   4.064
 1729TIP3   OH2 5192   5.330   3.088   1.083
 1729TIP3    H1 5193   5.304   3.044   1.164
 1729TIP3    H2 5194   5.324   3.181   1.103
 1730TIP3   OH2 5195   2.267   1.809   0.525
 1730TIP3    H1 5196   2.347   1.808   0.578
 1730TIP3    H2 5197   2.227   1.723   0.541
 1731TIP3   OH2 5198   2.493   1.874   2.857
 1731TIP3    H1 5199   2.457   1.823   2.929
 1731TIP3    H2 5200   2.507   1.961   2.894
 1732TIP3   OH2 5201   4.838   4.400   2.871
 1732TIP3    H1 5202   4.822   4.335   2.940
 1732TIP3    H2 5203   4.754   4.446   2.862
 1733TIP3   OH2 5204   2.507   5.939   0.882
 1733TIP3    H1 5205   2.481   5.928   0.974
 1733TIP3    H2 5206   2.537   5.853   0.855
 1734TIP3   OH2 5207   3.913   4.406   0.759
 1734TIP3    H1 5208   3.849   4.386   0.828
 1734TIP3    H2 5209   3.892   4.496   0.733
 1735TIP3   OH2 5210   6.031   2.907   3.990
 1735TIP3    H1 5211   6.094   2.924   4.059
 1735TIP3    H2 5212   5.985   2.990   3.977
 1736TIP3   OH2 5213   2.942   2.260   1.178
 1736TIP3    H1 5214   2.950   2.248   1.273
 1736TIP3    H2 5215   2.986   2.185   1.140
 1737TIP3   OH2 5216   3.682   1.996   4.191
 1737TIP3    H1 5217   3.751   1.948   4.236
 1737TIP3    H2 5218   3.690   2.086   4.223
 1738TIP3   OH2 5219   1.119   2.922   3.189
 1738TIP3    H1 5220   1.119   2.863   3.264
 1738TIP3    H2 5221   1.209   2.918   3.156
 1739TIP3   OH2 5222   2.778   3.617   4.616
 1739TIP3    H1 5223   2.849   3.559   4.644
 1739TIP3    H2 5224   2.749   3.580   4.532
 1740TIP3   OH2 5225   0.585   4.307   3.854
 1740TIP3    H1 5226   0.496   4.310   3.818
 1740TIP3    H2 5227   0.573   4.289   3.947
 1741TIP3   OH2 5228   2.441   3.257   2.933
 1741TIP3    H1 5229   2.493   3.199   2.878
 1741TIP3    H2 5230   2.350   3.230   2.917
 1742TIP3   OH2 5231   3.333   2.401   3.994
 1742TIP3    H1 5232   3.280   2.365   3.924
 1742TIP3    H2 5233   3.356   2.325   4.048
 1743TIP3   OH2 5234   2.704   4.865   2.927
 1743TIP3    H1 5235   2.673   4.955   2.919
 1743TIP3    H2 5236   2.738   4.860   3.016
 1744TIP3   OH2 5237   2.646   1.327   1.624
 1744TIP3    H1 5238   2.590   1.332   1.701
 1744TIP3    H2 5239   2.653   1.233   1.605
 1745TIP3   OH2 5240   2.558   3.150   4.996
 1745TIP3    H1 5241   2.592   3.142   5.085
 1745TIP3    H2 5242   2.537   3.060   4.970
 1746TIP3   OH2 5243   1.592   4.119   4.822
 1746TIP3    H1 5244   1.581   4.139   4.915
 1746TIP3    H2 5245   1.535   4.182   4.777
 1747TIP3   OH2 5246   1.710   0.316   1.646
 1747TIP3    H1 5247   1.741   0.395   1.690
 1747TIP3    H2 5248   1.790   0.274   1.614
 1748TIP3   OH2 5249   6.285   4.467   0.608
 1748TIP3    H1 5250   6.293   4.558   0.577
 1748TIP3    H2 5251   6.241   4.475   0.692
 1749TIP3   OH2 5252   1.507   4.545   3.703
 1749TIP3    H1 5253   1.430   4.489   3.695
 1749TIP3    H2 5254   1.532   4.566   3.613
 1750TIP3   OH2 5255   3.753   5.523   0.498
 1750TIP3    H1 5256   3.672   5.487   0.532
 1750TIP3    H2 5257   3.758   5.611   0.535
 1751TIP3   OH2 5258   0.174   5.499   2.985
 1751TIP3    H1 5259   0.170   5.571   2.923
 1751TIP3    H2 5260   0.093   5.449   2.971
 1752TIP3   OH2 5261   2.200   2.411   2.061
 1752TIP3    H1 5262   2.218   2.360   1.981
 1752TIP3    H2 5263   2.104   2.413   2.067
 1753TIP3   OH2 5264   4.448   5.495   1.870
 1753TIP3    H1 5265   4.492   5.531   1.792
 1753TIP3    H2 5266   4.500   5.528   1.943
 1754TIP3   OH2 5267   1.048   2.939   3.554
 1754TIP3    H1 5268   1.127   2.906   3.511
 1754TIP3    H2 5269   1.077   2.965   3.641
 1755TIP3   OH2 5270   1.586   0.584   2.789
 1755TIP3    H1 5271   1.593   0.678   2.804
 1755TIP3    H2 5272   1.500   0.573   2.749
 1756TIP3   OH2 5273   1.224   0.008   4.052
 1756TIP3    H1 5274   1.207   0.098   4.083
 1756TIP3    H2 5275   1.303   0.016   3.999
 1757TIP3   OH2 5276   2.843   5.511   1.815
 1757TIP3    H1 5277   2.759   5.478   1.784
 1757TIP3    H2 5278   2.897   5.432   1.824
 1758TIP3   OH2 5279   2.799   2.450   2.120
 1758TIP3    H1 5280   2.731   2.393   2.083
 1758TIP3    H2 5281   2.841   2.397   2.187
 1759TIP3   OH2 5282   2.556   2.799   4.381
 1759TIP3    H1 5283   2.521   2.868   4.439
 1759TIP3    H2 5284   2.649   2.793   4.405
 1760TIP3   OH2 5285   5.067   2.844   5.093
 1760TIP3    H1 5286   5.095   2.822   5.005
 1760TIP3    H2 5287   4.984   2.797   5.104
 1761TIP3   OH2 5288   0.881   1.090   3.744
 1761TIP3    H1 5289   0.821   1.116   3.674
 1761TIP3    H2 5290   0.825   1.083   3.821
 1762TIP3   OH2 5291   1.890   2.364   2.022
 1762TIP3    H1 5292   1.913   2.453   1.998
 1762TIP3    H2 5293   1.794   2.361   2.016
 1763TIP3   OH2 5294   5.014   0.226   3.968
 1763TIP3    H1 5295   4.951   0.267   4.026
 1763TIP3    H2 5296   5.019   0.285   3.892
 1764TIP3   OH2 5297   0.757   1.914   4.077
 1764TIP3    H1 5298   0.782   1.947   4.163
 1764TIP3    H2 5299   0.687   1.973   4.048
 1765TIP3   OH2 5300   0.908   1.034   3.362
 1765TIP3    H1 5301   0.914   1.095   3.289
 1765TIP3    H2 5302   0.971   0.965   3.341
 1766TIP3   OH2 5303   1.640   2.361   2.998
 1766TIP3    H1 5304   1.701   2.344   2.926
 1766TIP3    H2 5305   1.692   2.404   3.065
 1767TIP3   OH2 5306   3.843   1.549   0.719
 1767TIP3    H1 5307   3.875   1.599   0.794
 1767TIP3    H2 5308   3.754   1.523   0.743
 1768TIP3   OH2 5309   2.043   5.350   2.962
 1768TIP3    H1 5310   1.998   5.430   2.987
 1768TIP3    H2 5311   2.134   5.364   2.990
 1769TIP3   OH2 5312   1.241   0.967   3.036
 1769TIP3    H1 5313   1.225   0.937   2.946
 1769TIP3    H2 5314   1.258   1.061   3.026
 1770TIP3   OH2 5315   0.567   0.750   5.094
 1770TIP3    H1 5316   0.484   0.794   5.110
 1770TIP3    H2 5317   0.547   0.683   5.028
 1771TIP3   OH2 5318   1.754   4.482   1.548
 1771TIP3    H1 5319   1.719   4.456   1.633
 1771TIP3    H2 5320   1.796   4.403   1.514
 1772TIP3   OH2 5321   4.605   5.286   1.100
 1772TIP3    H1 5322   4.664   5.324   1.165
 1772TIP3    H2 5323   4.645   5.307   1.016
 1773TIP3   OH2 5324   4.154   3.472   2.472
 1773TIP3    H1 5325   4.183   3.495   2.384
 1773TIP3    H2 5326   4.208   3.397   2.496
 1774TIP3   OH2 5327   5.983   5.098   3.960
 1774TIP3    H1 5328   5.922   5.167   3.986
 1774TIP3    H2 5329   5.995   5.045   4.039
 1775TIP3   OH2 5330   3.450   4.552   1.605
 1775TIP3    H1 5331   3.466   4.515   1.518
 1775TIP3    H2 5332   3.534   4.588   1.632
 1776TIP3   OH2 5333   0.064   1.425   3.319
 1776TIP3    H1 5334   0.121   1.472   3.380
 1776TIP3    H2 5335   0.054   1.484   3.244
 1777TIP3   OH2 5336   0.026   5.559   5.162
 1777TIP3    H1 5337   0.116   5.548   5.194
 1777TIP3    H2 5338   0.001   5.647   5.190
 1778TIP3   OH2 5339   0.436   3.955   3.319
 1778TIP3    H1 5340   0.496   4.019   3.358
 1778TIP3    H2 5341   0.425   3.984   3.228
 1779TIP3   OH2 5342   0.163   0.797   2.204
 1779TIP3    H1 5343   0.212   0.787   2.123
 1779TIP3    H2 5344   0.222   0.767   2.273
 1780TIP3   OH2 5345   6.296   2.499   1.835
 1780TIP3    H1 5346   6.206   2.529   1.849
 1780TIP3    H2 5347   6.288   2.424   1.776
 1781TIP3   OH2 5348   1.359   3.206   3.204
 1781TIP3    H1 5349   1.335   3.152   3.280
 1781TIP3    H2 5350   1.283   3.200   3.146
 1782TIP3   OH2 5351   2.660   4.549   2.532
 1782TIP3    H1 5352   2.658   4.605   2.609
 1782TIP3    H2 5353   2.606   4.474   2.556
 1783TIP3   OH2 5354   0.905   1.450   5.031
 1783TIP3    H1 5355   0.940   1.418   4.948
 1783TIP3    H2 5356   0.826   1.498   5.007
 1784TIP3   OH2 5357   5.307   3.495   0.754
 1784TIP3    H1 5358   5.342   3.565   0.810
 1784TIP3    H2 5359   5.235   3.536   0.707
 1785TIP3   OH2 5360   1.659   2.434   0.911
 1785TIP3    H1 5361   1.583   2.483   0.943
 1785TIP3    H2 5362   1.654   2.442   0.816
 1786TIP3   OH2 5363   1.214   3.672   1.188
 1786TIP3    H1 5364   1.286   3.692   1.247
 1786TIP3    H2 5365   1.151   3.623   1.241
 1787TIP3   OH2 5366   0.232   4.471   0.124
 1787TIP3    H1 5367   0.269   4.426   0.048
 1787TIP3    H2 5368   0.300   4.532   0.152
 1788TIP3   OH2 5369   5.759   1.202   2.234
 1788TIP3    H1 5370   5.834   1.162   2.279
 1788TIP3    H2 5371   5.722   1.130   2.182
 1789TIP3   OH2 5372   5.286   5.618   1.392
 1789TIP3    H1 5373   5.370   5.659   1.412
 1789TIP3    H2 5374   5.260   5.655   1.308
 1790TIP3   OH2 5375   1.953   4.425   3.561
 1790TIP3    H1 5376   1.899   4.347   3.548
 1790TIP3    H2 5377   1.896   4.486   3.608
 1791TIP3   OH2 5378   3.206   0.475   1.408
 1791TIP3    H1 5379   3.124   0.469   1.358
 1791TIP3    H2 5380   3.208   0.394   1.459
 1792TIP3   OH2 5381   4.581   2.117   0.735
 1792TIP3    H1 5382   4.512   2.183   0.722
 1792TIP3    H2 5383   4.648   2.163   0.785
 1793TIP3   OH2 5384   0.756   5.905   1.330
 1793TIP3    H1 5385   0.705   5.843   1.382
 1793TIP3    H2 5386   0.845   5.896   1.362
 1794TIP3   OH2 5387   0.540   0.610   0.188
 1794TIP3    H1 5388   0.577   0.694   0.160
 1794TIP3    H2 5389   0.494   0.631   0.270
 1795TIP3   OH2 5390   0.540   0.070   1.506
 1795TIP3    H1 5391   0.559   0.162   1.519
 1795TIP3    H2 5392   0.520   0.062   1.412
 1796TIP3   OH2 5393   0.642   0.541   4.591
 1796TIP3    H1 5394   0.638   0.636   4.584
 1796TIP3    H2 5395   0.632   0.510   4.501
 1797TIP3   OH2 5396   2.428   5.609   4.510
 1797TIP3    H1 5397   2.497   5.616   4.576
 1797TIP3    H2 5398   2.361   5.554   4.550
 1798TIP3   OH2 5399   5.077   1.862   4.046
 1798TIP3    H1 5400   5.150   1.804   4.068
 1798TIP3    H2 5401   5.108   1.914   3.973
 1799TIP3   OH2 5402   5.115   2.608   1.789
 1799TIP3    H1 5403   5.073   2.673   1.732
 1799TIP3    H2 5404   5.150   2.660   1.862
 1800TIP3   OH2 5405   1.636   0.198   0.162
 1800TIP3    H1 5406   1.588   0.117   0.181
 1800TIP3    H2 5407   1.590   0.236   0.087
 1801TIP3   OH2 5408   2.908   4.490   3.396
 1801TIP3    H1 5409   2.923   4.435   3.319
 1801TIP3    H2 5410   2.962   4.567   3.382
 1802TIP3   OH2 5411   1.324   0.625   2.680
 1802TIP3    H1 5412   1.301   0.550   2.624
 1802TIP3    H2 5413   1.346   0.695   2.618
 1803TIP3   OH2 5414   2.562   5.149   3.394
 1803TIP3    H1 5415   2.580   5.240   3.417
 1803TIP3    H2 5416   2.640   5.101   3.421
 1804TIP3   OH2 5417   3.877   3.465   1.720
 1804TIP3    H1 5418   3.829   3.475   1.802
 1804TIP3    H2 5419   3.847   3.381   1.685
 1805TIP3   OH2 5420   3.080   1.772   2.069
 1805TIP3    H1 5421   3.056   1.734   1.985
 1805TIP3    H2 5422   3.006   1.755   2.126
 1806TIP3   OH2 5423   3.372   4.080   0.278
 1806TIP3    H1 5424   3.308   4.128   0.330
 1806TIP3    H2 5425   3.429   4.037   0.342
 1807TIP3   OH2 5426   6.041   5.951   1.836
 1807TIP3    H1 5427   6.079   6.038   1.845
 1807TIP3    H2 5428   6.115   5.891   1.839
 1808TIP3   OH2 5429   5.161   0.835   1.136
 1808TIP3    H1 5430   5.232   0.897   1.118
 1808TIP3    H2 5431   5.082   0.881   1.108
 1809TIP3   OH2 5432   4.557   2.313   1.915
 1809TIP3    H1 5433   4.547   2.221   1.939
 1809TIP3    H2 5434   4.467   2.346   1.911
 1810TIP3   OH2 5435   6.293   0.320   4.342
 1810TIP3    H1 5436   6.287   0.354   4.253
 1810TIP3    H2 5437   6.215   0.354   4.386
 1811TIP3   OH2 5438   4.221   3.505   1.600
 1811TIP3    H1 5439   4.270   3.564   1.658
 1811TIP3    H2 5440   4.263   3.421   1.611
 1812TIP3   OH2 5441   4.937   1.496   2.658
 1812TIP3    H1 5442   4.915   1.404   2.645
 1812TIP3    H2 5443   4.884   1.524   2.733
 1813TIP3   OH2 5444   5.131   1.904   5.141
 1813TIP3    H1 5445   5.122   1.995   5.170
 1813TIP3    H2 5446   5.042   1.878   5.116
 1814TIP3   OH2 5447   3.571   2.662   2.693
 1814TIP3    H1 5448   3.505   2.728   2.671
 1814TIP3    H2 5449   3.534   2.615   2.768
 1815TIP3   OH2 5450   2.068   1.829   1.182
 1815TIP3    H1 5451   2.067   1.923   1.166
 1815TIP3    H2 5452   2.002   1.794   1.122
 1816TIP3   OH2 5453   5.711   0.140   1.772
 1816TIP3    H1 5454   5.698   0.235   1.771
 1816TIP3    H2 5455   5.656   0.108   1.701
 1817TIP3   OH2 5456   3.379   0.656   0.502
 1817TIP3    H1 5457   3.374   0.562   0.517
 1817TIP3    H2 5458   3.296   0.691   0.534
 1818TIP3   OH2 5459   4.874   1.107   2.535
 1818TIP3    H1 5460   4.963   1.096   2.502
 1818TIP3    H2 5461   4.822   1.044   2.485
 1819TIP3   OH2 5462   4.018   0.103   1.156
 1819TIP3    H1 5463   4.067   0.040   1.209
 1819TIP3    H2 5464   3.970   0.050   1.094
 1820TIP3   OH2 5465   5.320   4.336   4.410
 1820TIP3    H1 5466   5.264   4.291   4.474
 1820TIP3    H2 5467   5.359   4.265   4.359
 1821TIP3   OH2 5468   3.660   1.470   1.331
 1821TIP3    H1 5469   3.699   1.383   1.339
 1821TIP3    H2 5470   3.687   1.516   1.410
 1822TIP3   OH2 5471   3.304   2.793   1.367
 1822TIP3    H1 5472   3.357   2.853   1.420
 1822TIP3    H2 5473   3.287   2.719   1.426
 1823TIP3   OH2 5474   4.976   4.537   1.174
 1823TIP3    H1 5475   5.023   4.519   1.255
 1823TIP3    H2 5476   4.886   4.510   1.192
 1824TIP3   OH2 5477   0.499   4.784   4.719
 1824TIP3    H1 5478   0.578   4.814   4.763
 1824TIP3    H2 5479   0.483   4.849   4.651
 1825TIP3   OH2 5480   1.882   5.002   2.293
 1825TIP3    H1 5481   1.837   5.086   2.303
 1825TIP3    H2 5482   1.862   4.955   2.374
 1826TIP3   OH2 5483   0.323   5.685   1.076
 1826TIP3    H1 5484   0.265   5.677   1.152
 1826TIP3    H2 5485   0.387   5.615   1.087
 1827TIP3   OH2 5486   4.112   4.023   3.558
 1827TIP3    H1 5487   4.067   3.956   3.609
 1827TIP3    H2 5488   4.182   3.976   3.513
 1828TIP3   OH2 5489   4.027   3.889   4.215
 1828TIP3    H1 5490   4.015   3.876   4.121
 1828TIP3    H2 5491   4.117   3.922   4.223
 1829TIP3   OH2 5492   1.777   2.760   2.913
 1829TIP3    H1 5493   1.848   2.824   2.900
 1829TIP3    H2 5494   1.717   2.803   2.974
 1830TIP3   OH2 5495   2.418   3.116   4.763
 1830TIP3    H1 5496   2.393   3.043   4.820
 1830TIP3    H2 5497   2.468   3.174   4.820
 1831TIP3   OH2 5498   6.226   3.939   4.827
 1831TIP3    H1 5499   6.311   3.978   4.804
 1831TIP3    H2 5500   6.212   3.965   4.918
 1832TIP3   OH2 5501   2.821   1.447   4.374
 1832TIP3    H1 5502   2.872   1.368   4.357
 1832TIP3    H2 5503   2.860   1.514   4.318
 1833TIP3   OH2 5504   3.857   1.689   1.216
 1833TIP3    H1 5505   3.822   1.654   1.297
 1833TIP3    H2 5506   3.781   1.724   1.170
 1834TIP3   OH2 5507   3.908   5.528   1.200
 1834TIP3    H1 5508   3.821   5.489   1.189
 1834TIP3    H2 5509   3.896   5.621   1.178
 1835TIP3   OH2 5510   2.100   5.603   2.260
 1835TIP3    H1 5511   2.134   5.651   2.335
 1835TIP3    H2 5512   2.016   5.568   2.288
 1836TIP3   OH2 5513   3.143   3.652   0.178
 1836TIP3    H1 5514   3.182   3.734   0.208
 1836TIP3    H2 5515   3.123   3.604   0.259
 1837TIP3   OH2 5516   3.822   3.170   2.744
 1837TIP3    H1 5517   3.810   3.080   2.713
 1837TIP3    H2 5518   3.833   3.222   2.664
 1838TIP3   OH2 5519   4.480   5.088   2.892
 1838TIP3    H1 5520   4.504   5.057   2.805
 1838TIP3    H2 5521   4.472   5.183   2.882
 1839TIP3   OH2 5522   5.116   1.569   1.580
 1839TIP3    H1 5523   5.106   1.652   1.534
 1839TIP3    H2 5524   5.036   1.561   1.633
 1840TIP3   OH2 5525   6.185   5.610   3.078
 1840TIP3    H1 5526   6.214   5.523   3.050
 1840TIP3    H2 5527   6.142   5.596   3.161
 1841TIP3   OH2 5528   2.770   1.038   2.252
 1841TIP3    H1 5529   2.687   1.066   2.291
 1841TIP3    H2 5530   2.829   1.113   2.264
 1842TIP3   OH2 5531   3.417   2.600   4.525
 1842TIP3    H1 5532   3.328   2.587   4.558
 1842TIP3    H2 5533   3.406   2.630   4.435
 1843TIP3   OH2 5534   1.152   2.510   2.524
 1843TIP3    H1 5535   1.239   2.506   2.563
 1843TIP3    H2 5536   1.156   2.448   2.451
 1844TIP3   OH2 5537   5.786   0.025   0.827
 1844TIP3    H1 5538   5.834   0.049   0.906
 1844TIP3    H2 5539   5.734  -0.051   0.852
 1845TIP3   OH2 5540   5.314   4.065   1.446
 1845TIP3    H1 5541   5.405   4.090   1.458
 1845TIP3    H2 5542   5.278   4.064   1.535
 1846TIP3   OH2 5543   4.635   3.644   3.333
 1846TIP3    H1 5544   4.662   3.573   3.274
 1846TIP3    H2 5545   4.657   3.724   3.284
 1847TIP3   OH2 5546   5.264   4.693   3.633
 1847TIP3    H1 5547   5.308   4.621   3.679
 1847TIP3    H2 5548   5.230   4.652   3.553
 1848TIP3   OH2 5549   2.754   3.097   2.377
 1848TIP3    H1 5550   2.807   3.031   2.333
 1848TIP3    H2 5551   2.663   3.073   2.357
 1849TIP3   OH2 5552   3.901   4.526   3.401
 1849TIP3    H1 5553   3.823   4.541   3.347
 1849TIP3    H2 5554   3.946   4.452   3.360
 1850TIP3   OH2 5555   3.780   3.396   1.367
 1850TIP3    H1 5556   3.762   3.457   1.296
 1850TIP3    H2 5557   3.862   3.354   1.342
 1851TIP3   OH2 5558   4.052   0.226   2.129
 1851TIP3    H1 5559   3.999   0.255   2.203
 1851TIP3    H2 5560   4.067   0.133   2.145
 1852TIP3   OH2 5561   4.318   1.040   4.059
 1852TIP3    H1 5562   4.250   1.077   4.114
 1852TIP3    H2 5563   4.354   0.967   4.110
 1853TIP3   OH2 5564   4.204   4.249   2.341
 1853TIP3    H1 5565   4.286   4.291   2.318
 1853TIP3    H2 5566   4.213   4.225   2.433
 1854TIP3   OH2 5567   4.823   2.165   1.672
 1854TIP3    H1 5568   4.738   2.205   1.652
 1854TIP3    H2 5569   4.872   2.234   1.717
 1855TIP3   OH2 5570   4.416   2.513   3.488
 1855TIP3    H1 5571   4.391   2.421   3.495
 1855TIP3    H2 5572   4.453   2.535   3.573
 1856TIP3   OH2 5573   5.015   2.358   3.338
 1856TIP3    H1 5574   5.055   2.361   3.424
 1856TIP3    H2 5575   5.088   2.342   3.278
 1857TIP3   OH2 5576   0.957   4.317   3.648
 1857TIP3    H1 5577   0.906   4.376   3.703
 1857TIP3    H2 5578   0.999   4.375   3.584
 1858TIP3   OH2 5579   5.121   0.170   2.895
 1858TIP3    H1 5580   5.124   0.162   2.991
 1858TIP3    H2 5581   5.028   0.164   2.874
 1859TIP3   OH2 5582   3.405   4.995   3.392
 1859TIP3    H1 5583   3.498   4.981   3.374
 1859TIP3    H2 5584   3.390   4.954   3.478
 1860TIP3   OH2 5585   3.809   2.402   0.208
 1860TIP3    H1 5586   3.897   2.373   0.184
 1860TIP3    H2 5587   3.795   2.366   0.295
 1861TIP3   OH2 5588   4.445   4.690   2.047
 1861TIP3    H1 5589   4.455   4.609   1.996
 1861TIP3    H2 5590   4.359   4.681   2.087
 1862TIP3   OH2 5591   2.960   5.246   1.881
 1862TIP3    H1 5592   3.014   5.271   1.806
 1862TIP3    H2 5593   2.945   5.152   1.869
 1863TIP3   OH2 5594   0.185   0.474   1.360
 1863TIP3    H1 5595   0.221   0.544   1.305
 1863TIP3    H2 5596   0.091   0.488   1.359
 1864TIP3   OH2 5597   6.344   1.977   0.607
 1864TIP3    H1 5598   6.423   1.967   0.554
 1864TIP3    H2 5599   6.272   1.967   0.544
 1865TIP3   OH2 5600   5.384   3.977   0.019
 1865TIP3    H1 5601   5.463   4.018   0.053
 1865TIP3    H2 5602   5.312   4.018   0.067
 1866TIP3   OH2 5603   4.076   0.702   3.541
 1866TIP3    H1 5604   4.129   0.772   3.502
 1866TIP3    H2 5605   4.001   0.693   3.483
 1867TIP3   OH2 5606   5.877   2.669   3.225
 1867TIP3    H1 5607   5.797   2.675   3.173
 1867TIP3    H2 5608   5.847   2.680   3.315
 1868TIP3   OH2 5609   3.425   3.921   1.234
 1868TIP3    H1 5610   3.440   3.980   1.161
 1868TIP3    H2 5611   3.436   3.834   1.198
 1869TIP3   OH2 5612   4.912   1.336   0.652
 1869TIP3    H1 5613   4.880   1.416   0.610
 1869TIP3    H2 5614   4.955   1.288   0.580
 1870TIP3   OH2 5615   4.546   2.153   5.104
 1870TIP3    H1 5616   4.484   2.187   5.040
 1870TIP3    H2 5617   4.538   2.058   5.096
 1871TIP3   OH2 5618   1.209   0.904   4.225
 1871TIP3    H1 5619   1.260   0.984   4.242
 1871TIP3    H2 5620   1.201   0.900   4.130
 1872TIP3   OH2 5621   1.555   2.923   3.354
 1872TIP3    H1 5622   1.600   2.997   3.313
 1872TIP3    H2 5623   1.600   2.911   3.437
 1873TIP3   OH2 5624   2.753   4.854   3.242
 1873TIP3    H1 5625   2.809   4.777   3.248
 1873TIP3    H2 5626   2.752   4.891   3.330
 1874TIP3   OH2 5627   3.184   3.619   0.722
 1874TIP3    H1 5628   3.090   3.616   0.742
 1874TIP3    H2 5629   3.225   3.578   0.798
 1875TIP3   OH2 5630   3.912   2.928   4.374
 1875TIP3    H1 5631   3.920   2.953   4.466
 1875TIP3    H2 5632   3.961   2.846   4.367
 1876TIP3   OH2 5633   2.558   1.593   2.266
 1876TIP3    H1 5634   2.546   1.570   2.174
 1876TIP3    H2 5635   2.572   1.509   2.310
 1877TIP3   OH2 5636   5.416   3.418   4.678
 1877TIP3    H1 5637   5.404   3.397   4.771
 1877TIP3    H2 5638   5.504   3.456   4.674
 1878TIP3   OH2 5639   2.047   5.285   1.309
 1878TIP3    H1 5640   1.981   5.316   1.247
 1878TIP3    H2 5641   2.033   5.337   1.388
 1879TIP3   OH2 5642   4.499   1.042   0.416
 1879TIP3    H1 5643   4.559   1.080   0.479
 1879TIP3    H2 5644   4.421   1.019   0.467
 1880TIP3   OH2 5645   0.761   1.431   4.069
 1880TIP3    H1 5646   0.688   1.479   4.029
 1880TIP3    H2 5647   0.837   1.486   4.053
 1881TIP3   OH2 5648   3.158   0.793   0.693
 1881TIP3    H1 5649   3.166   0.861   0.760
 1881TIP3    H2 5650   3.065   0.769   0.694
 1882TIP3   OH2 5651   0.672   4.603   4.075
 1882TIP3    H1 5652   0.622   4.648   4.007
 1882TIP3    H2 5653   0.617   4.608   4.153
 1883TIP3   OH2 5654   4.677   5.202   4.972
 1883TIP3    H1 5655   4.754   5.193   5.028
 1883TIP3    H2 5656   4.620   5.264   5.018
 1884TIP3   OH2 5657   0.978   5.680   0.088
 1884TIP3    H1 5658   0.929   5.729   0.022
 1884TIP3    H2 5659   1.036   5.745   0.128
 1885TIP3   OH2 5660   3.170   5.677   2.732
 1885TIP3    H1 5661   3.232   5.696   2.663
 1885TIP3    H2 5662   3.125   5.598   2.703
 1886TIP3   OH2 5663   5.011   0.328   2.069
 1886TIP3    H1 5664   4.918   0.342   2.089
 1886TIP3    H2 5665   5.026   0.380   1.990
 1887TIP3   OH2 5666   5.657   5.675   0.172
 1887TIP3    H1 5667   5.645   5.585   0.201
 1887TIP3    H2 5668   5.725   5.671   0.105
 1888TIP3   OH2 5669   3.515   5.367   1.362
 1888TIP3    H1 5670   3.602   5.345   1.330
 1888TIP3    H2 5671   3.459   5.296   1.329
 1889TIP3   OH2 5672   4.102   5.385   0.324
 1889TIP3    H1 5673   4.076   5.453   0.386
 1889TIP3    H2 5674   4.189   5.357   0.354
 1890TIP3   OH2 5675   0.418   3.224   2.351
 1890TIP3    H1 5676   0.426   3.315   2.379
 1890TIP3    H2 5677   0.383   3.229   2.262
 1891TIP3   OH2 5678   5.610   4.643   0.397
 1891TIP3    H1 5679   5.698   4.669   0.368
 1891TIP3    H2 5680   5.625   4.568   0.455
 1892TIP3   OH2 5681   2.140   4.962   5.136
 1892TIP3    H1 5682   2.084   4.945   5.211
 1892TIP3    H2 5683   2.224   4.922   5.159
 1893TIP3   OH2 5684   2.400   2.161   0.876
 1893TIP3    H1 5685   2.440   2.191   0.958
 1893TIP3    H2 5686   2.308   2.149   0.898
 1894TIP3   OH2 5687   3.321   0.726   3.230
 1894TIP3    H1 5688   3.239   0.705   3.275
 1894TIP3    H2 5689   3.315   0.678   3.148
 1895TIP3   OH2 5690   5.274   4.289   1.828
 1895TIP3    H1 5691   5.296   4.381   1.845
 1895TIP3    H2 5692   5.216   4.265   1.900
 1896TIP3   OH2 5693   4.206   4.378   4.315
 1896TIP3    H1 5694   4.267   4.316   4.354
 1896TIP3    H2 5695   4.223   4.461   4.361
 1897TIP3   OH2 5696   5.471   0.970   2.635
 1897TIP3    H1 5697   5.439   1.025   2.707
 1897TIP3    H2 5698   5.393   0.944   2.587
 1898TIP3   OH2 5699   1.336   4.352   2.195
 1898TIP3    H1 5700   1.284   4.309   2.262
 1898TIP3    H2 5701   1.278   4.419   2.159
 1899TIP3   OH2 5702   3.770   4.820   3.675
 1899TIP3    H1 5703   3.683   4.780   3.666
 1899TIP3    H2 5704   3.756   4.912   3.650
 1900TIP3   OH2 5705   2.269   3.937   2.004
 1900TIP3    H1 5706   2.313   3.857   1.977
 1900TIP3    H2 5707   2.323   4.007   1.967
 1901TIP3   OH2 5708   5.494   4.208   4.704
 1901TIP3    H1 5709   5.557   4.226   4.774
 1901TIP3    H2 5710   5.547   4.202   4.625
 1902TIP3   OH2 5711   0.416   0.819   0.896
 1902TIP3    H1 5712   0.385   0.806   0.806
 1902TIP3    H2 5713   0.381   0.743   0.943
 1903TIP3   OH2 5714   4.437   4.526   0.401
 1903TIP3    H1 5715   4.406   4.464   0.335
 1903TIP3    H2 5716   4.467   4.472   0.474
 1904TIP3   OH2 5717   5.254   5.177   1.881
 1904TIP3    H1 5718   5.344   5.209   1.867
 1904TIP3    H2 5719   5.199   5.243   1.840
 1905TIP3   OH2 5720   2.625   1.650   3.530
 1905TIP3    H1 5721   2.594   1.596   3.603
 1905TIP3    H2 5722   2.664   1.727   3.572
 1906TIP3   OH2 5723   0.049   0.025   0.881
 1906TIP3    H1 5724  -0.026   0.039   0.823
 1906TIP3    H2 5725   0.102  -0.042   0.837
 1907TIP3   OH2 5726   4.439   3.405   3.654
 1907TIP3    H1 5727   4.364   3.440   3.702
 1907TIP3    H2 5728   4.404   3.384   3.567
 1908TIP3   OH2 5729   5.279   2.041   0.781
 1908TIP3    H1 5730   5.254   1.966   0.835
 1908TIP3    H2 5731   5.206   2.052   0.720
 1909TIP3   OH2 5732   0.977   3.221   3.238
 1909TIP3    H1 5733   0.895   3.223   3.188
 1909TIP3    H2 5734   1.022   3.142   3.209
 1910TIP3   OH2 5735   1.340   2.920   0.085
 1910TIP3    H1 5736   1.428   2.894   0.058
 1910TIP3    H2 5737   1.284   2.889   0.015
 1911TIP3   OH2 5738   5.656   3.602   0.557
 1911TIP3    H1 5739   5.693   3.525   0.599
 1911TIP3    H2 5740   5.584   3.569   0.504
 1912TIP3   OH2 5741   4.673   4.500   2.372
 1912TIP3    H1 5742   4.701   4.583   2.412
 1912TIP3    H2 5743   4.663   4.440   2.446
 1913TIP3   OH2 5744   6.290   5.640   0.646
 1913TIP3    H1 5745   6.235   5.688   0.583
 1913TIP3    H2 5746   6.355   5.704   0.673
 1914TIP3   OH2 5747   0.811   0.883   0.320
 1914TIP3    H1 5748   0.773   0.940   0.254
 1914TIP3    H2 5749   0.772   0.912   0.403
 1915TIP3   OH2 5750   3.266   3.898   4.970
 1915TIP3    H1 5751   3.214   3.977   4.955
 1915TIP3    H2 5752   3.311   3.915   5.053
 1916TIP3   OH2 5753   2.404   4.208   3.627
 1916TIP3    H1 5754   2.334   4.255   3.671
 1916TIP3    H2 5755   2.377   4.205   3.535
 1917TIP3   OH2 5756   6.306   1.323   4.095
 1917TIP3    H1 5757   6.373   1.267   4.055
 1917TIP3    H2 5758   6.327   1.411   4.065
 1918TIP3   OH2 5759   4.836   5.667   1.407
 1918TIP3    H1 5760   4.811   5.629   1.323
 1918TIP3    H2 5761   4.757   5.660   1.460
 1919TIP3   OH2 5762   1.945   0.360   1.202
 1919TIP3    H1 5763   1.952   0.305   1.124
 1919TIP3    H2 5764   1.927   0.448   1.168
 1920TIP3   OH2 5765   0.087   3.298   1.149
 1920TIP3    H1 5766   0.169   3.326   1.190
 1920TIP3    H2 5767   0.019   3.324   1.210
 1921TIP3   OH2 5768   5.650   0.793   3.419
 1921TIP3    H1 5769   5.561   0.817   3.392
 1921TIP3    H2 5770   5.685   0.745   3.343
 1922TIP3   OH2 5771   0.937   1.970   2.447
 1922TIP3    H1 5772   0.937   1.957   2.542
 1922TIP3    H2 5773   0.973   2.058   2.435
 1923TIP3   OH2 5774   5.350   1.943   3.651
 1923TIP3    H1 5775   5.397   1.863   3.675
 1923TIP3    H2 5776   5.364   1.951   3.557
 1924TIP3   OH2 5777   3.960   1.395   4.306
 1924TIP3    H1 5778   3.897   1.438   4.247
 1924TIP3    H2 5779   3.995   1.323   4.254
 1925TIP3   OH2 5780   4.049   3.158   3.582
 1925TIP3    H1 5781   4.049   3.244   3.539
 1925TIP3    H2 5782   4.122   3.111   3.543
 1926TIP3   OH2 5783   1.505   0.758   5.067
 1926TIP3    H1 5784   1.433   0.726   5.122
 1926TIP3    H2 5785   1.466   0.830   5.017
 1927TIP3   OH2 5786   4.101   5.341   1.144
 1927TIP3    H1 5787   4.133   5.338   1.053
 1927TIP3    H2 5788   4.049   5.421   1.148
 1928TIP3   OH2 5789   2.697   1.649   5.059
 1928TIP3    H1 5790   2.726   1.570   5.106
 1928TIP3    H2 5791   2.674   1.618   4.972
 1929TIP3   OH2 5792   5.418   2.562   0.034
 1929TIP3    H1 5793   5.430   2.601  -0.053
 1929TIP3    H2 5794   5.330   2.589   0.060
 1930TIP3   OH2 5795   5.914   5.444   1.363
 1930TIP3    H1 5796   5.998   5.486   1.345
 1930TIP3    H2 5797   5.849   5.502   1.321
 1931TIP3   OH2 5798   5.105   5.262   4.926
 1931TIP3    H1 5799   5.146   5.181   4.956
 1931TIP3    H2 5800   5.078   5.244   4.837
 1932TIP3   OH2 5801   1.834   2.877   3.736
 1932TIP3    H1 5802   1.817   2.825   3.814
 1932TIP3    H2 5803   1.757   2.864   3.681
 1933TIP3   OH2 5804   2.487   3.950   1.090
 1933TIP3    H1 5805   2.530   3.930   1.173
 1933TIP3    H2 5806   2.405   3.899   1.093
 1934TIP3   OH2 5807   5.799   3.722   3.925
 1934TIP3    H1 5808   5.732   3.790   3.933
 1934TIP3    H2 5809   5.801   3.701   3.832
 1935TIP3   OH2 5810   2.575   5.789   1.988
 1935TIP3    H1 5811   2.652   5.734   1.988
 1935TIP3    H2 5812   2.608   5.877   2.007
 1936TIP3   OH2 5813   0.712   2.044   0.780
 1936TIP3    H1 5814   0.779   2.100   0.820
 1936TIP3    H2 5815   0.759   1.966   0.752
 1937TIP3   OH2 5816   5.192   1.796   2.318
 1937TIP3    H1 5817   5.238   1.713   2.305
 1937TIP3    H2 5818   5.203   1.844   2.236
 1938TIP3   OH2 5819   1.741   5.645   0.376
 1938TIP3    H1 5820   1.650   5.623   0.396
 1938TIP3    H2 5821   1.793   5.582   0.424
 1939TIP3   OH2 5822   2.832   3.640   0.539
 1939TIP3    H1 5823   2.838   3.631   0.634
 1939TIP3    H2 5824   2.765   3.576   0.513
 1940TIP3   OH2 5825   1.578   0.869   3.076
 1940TIP3    H1 5826   1.517   0.910   3.138
 1940TIP3    H2 5827   1.536   0.881   2.991
 1941TIP3   OH2 5828   3.238   3.658   4.769
 1941TIP3    H1 5829   3.276   3.607   4.840
 1941TIP3    H2 5830   3.246   3.749   4.799
 1942TIP3   OH2 5831   2.388   2.003   4.500
 1942TIP3    H1 5832   2.426   2.066   4.562
 1942TIP3    H2 5833   2.380   1.922   4.551
 1943TIP3   OH2 5834   0.059   2.942   2.453
 1943TIP3    H1 5835   0.152   2.954   2.431
 1943TIP3    H2 5836   0.027   3.031   2.468
 1944TIP3   OH2 5837   6.265   2.134   3.523
 1944TIP3    H1 5838   6.175   2.118   3.550
 1944TIP3    H2 5839   6.263   2.221   3.483
 1945TIP3   OH2 5840   2.036   5.162   0.548
 1945TIP3    H1 5841   2.046   5.209   0.465
 1945TIP3    H2 5842   1.941   5.148   0.555
 1946TIP3   OH2 5843   5.396   3.085   0.170
 1946TIP3    H1 5844   5.411   3.094   0.265
 1946TIP3    H2 5845   5.403   2.990   0.154
 1947TIP3   OH2 5846   5.187   2.206   2.288
 1947TIP3    H1 5847   5.125   2.141   2.254
 1947TIP3    H2 5848   5.169   2.211   2.382
 1948TIP3   OH2 5849   2.365   1.553   2.601
 1948TIP3    H1 5850   2.370   1.649   2.596
 1948TIP3    H2 5851   2.304   1.528   2.532
 1949TIP3   OH2 5852   5.306   0.241   3.557
 1949TIP3    H1 5853   5.287   0.164   3.610
 1949TIP3    H2 5854   5.221   0.267   3.522
 1950TIP3   OH2 5855   1.995   3.523   0.425
 1950TIP3    H1 5856   1.987   3.605   0.473
 1950TIP3    H2 5857   2.087   3.519   0.400
 1951TIP3   OH2 5858   4.596   5.977   0.669
 1951TIP3    H1 5859   4.641   5.930   0.598
 1951TIP3    H2 5860   4.665   5.999   0.731
 1952TIP3   OH2 5861   5.982   5.900   1.151
 1952TIP3    H1 5862   5.957   5.908   1.059
 1952TIP3    H2 5863   6.077   5.913   1.151
 1953TIP3   OH2 5864   4.736   5.907   0.346
 1953TIP3    H1 5865   4.805   5.915   0.411
 1953TIP3    H2 5866   4.741   5.817   0.316
 1954TIP3   OH2 5867   4.109   2.896   4.947
 1954TIP3    H1 5868   4.144   2.844   4.874
 1954TIP3    H2 5869   4.080   2.978   4.906
 1955TIP3   OH2 5870   2.638   2.951   3.013
 1955TIP3    H1 5871   2.700   2.884   2.986
 1955TIP3    H2 5872   2.603   2.919   3.096
 1956TIP3   OH2 5873   1.507   1.858   3.866
 1956TIP3    H1 5874   1.540   1.790   3.807
 1956TIP3    H2 5875   1.533   1.830   3.953
 1957TIP3   OH2 5876   3.190   2.236   2.980
 1957TIP3    H1 5877   3.130   2.220   3.052
 1957TIP3    H2 5878   3.134   2.242   2.903
 1958TIP3   OH2 5879   1.012   1.367   3.723
 1958TIP3    H1 5880   0.967   1.289   3.756
 1958TIP3    H2 5881   1.105   1.348   3.734
 1959TIP3   OH2 5882   0.001   2.296   4.469
 1959TIP3    H1 5883  -0.016   2.391   4.468
 1959TIP3    H2 5884   0.093   2.288   4.494
 1960TIP3   OH2 5885   1.969   2.020   3.377
 1960TIP3    H1 5886   1.941   2.051   3.463
 1960TIP3    H2 5887   1.919   2.073   3.315
 1961TIP3   OH2 5888   4.730   1.279   0.241
 1961TIP3    H1 5889   4.652   1.226   0.229
 1961TIP3    H2 5890   4.697   1.365   0.268
 1962TIP3   OH2 5891   3.119   5.812   4.874
 1962TIP3    H1 5892   3.145   5.864   4.798
 1962TIP3    H2 5893   3.103   5.725   4.838
 1963TIP3   OH2 5894   5.930   3.040   0.309
 1963TIP3    H1 5895   5.980   3.112   0.271
 1963TIP3    H2 5896   5.964   3.030   0.397
 1964TIP3   OH2 5897   1.266   1.148   3.717
 1964TIP3    H1 5898   1.195   1.106   3.668
 1964TIP3    H2 5899   1.345   1.106   3.684
 1965TIP3   OH2 5900   1.075   2.023   3.458
 1965TIP3    H1 5901   1.105   2.105   3.496
 1965TIP3    H2 5902   0.979   2.026   3.465
 1966TIP3   OH2 5903   4.499   2.341   4.622
 1966TIP3    H1 5904   4.525   2.420   4.574
 1966TIP3    H2 5905   4.510   2.270   4.558
 1967TIP3   OH2 5906   2.623   3.608   2.181
 1967TIP3    H1 5907   2.575   3.653   2.252
 1967TIP3    H2 5908   2.554   3.566   2.129
 1968TIP3   OH2 5909   2.511   2.349   3.693
 1968TIP3    H1 5910   2.461   2.315   3.767
 1968TIP3    H2 5911   2.446   2.359   3.623
 1969TIP3   OH2 5912   2.245   0.067   3.263
 1969TIP3    H1 5913   2.150   0.070   3.261
 1969TIP3    H2 5914   2.268   0.085   3.354
 1970TIP3   OH2 5915   3.047   0.579   4.660
 1970TIP3    H1 5916   3.100   0.655   4.683
 1970TIP3    H2 5917   3.100   0.504   4.687
 1971TIP3   OH2 5918   3.993   2.970   4.643
 1971TIP3    H1 5919   4.083   2.963   4.611
 1971TIP3    H2 5920   3.998   3.037   4.711
 1972TIP3   OH2 5921   3.829   4.820   4.679
 1972TIP3    H1 5922   3.896   4.794   4.616
 1972TIP3    H2 5923   3.746   4.805   4.635
 1973TIP3   OH2 5924   5.990   0.076   1.031
 1973TIP3    H1 5925   6.071   0.122   1.051
 1973TIP3    H2 5926   6.004  -0.013   1.060
 1974TIP3   OH2 5927   3.426   0.010   1.408
 1974TIP3    H1 5928   3.408  -0.009   1.500
 1974TIP3    H2 5929   3.490   0.081   1.410
 1975TIP3   OH2 5930   4.803   1.198   0.856
 1975TIP3    H1 5931   4.719   1.243   0.865
 1975TIP3    H2 5932   4.837   1.229   0.772
 1976TIP3   OH2 5933   2.279   1.275   4.417
 1976TIP3    H1 5934   2.285   1.243   4.327
 1976TIP3    H2 5935   2.291   1.197   4.471
 1977TIP3   OH2 5936   4.035   4.794   1.814
 1977TIP3    H1 5937   4.051   4.802   1.908
 1977TIP3    H2 5938   4.111   4.836   1.773
 1978TIP3   OH2 5939   1.346   3.424   0.312
 1978TIP3    H1 5940   1.316   3.404   0.224
 1978TIP3    H2 5941   1.383   3.512   0.306
 1979TIP3   OH2 5942   2.773   2.249   4.179
 1979TIP3    H1 5943   2.692   2.294   4.154
 1979TIP3    H2 5944   2.767   2.164   4.135
 1980TIP3   OH2 5945   3.973   5.092   1.206
 1980TIP3    H1 5946   4.022   5.173   1.213
 1980TIP3    H2 5947   4.040   5.023   1.208
 1981TIP3   OH2 5948   5.724   5.717   2.954
 1981TIP3    H1 5949   5.671   5.653   3.000
 1981TIP3    H2 5950   5.796   5.666   2.917
 1982TIP3   OH2 5951   1.100   0.954   3.592
 1982TIP3    H1 5952   1.139   0.952   3.505
 1982TIP3    H2 5953   1.009   0.980   3.577
 1983TIP3   OH2 5954   0.019   0.468   0.127
 1983TIP3    H1 5955   0.051   0.411   0.197
 1983TIP3    H2 5956  -0.012   0.408   0.060
 1984TIP3   OH2 5957   5.346   5.640   1.668
 1984TIP3    H1 5958   5.397   5.720   1.654
 1984TIP3    H2 5959   5.298   5.627   1.586
 1985TIP3   OH2 5960   2.246   2.150   2.538
 1985TIP3    H1 5961   2.334   2.180   2.518
 1985TIP3    H2 5962   2.259   2.066   2.584
 1986TIP3   OH2 5963   5.134   5.093   0.665
 1986TIP3    H1 5964   5.130   5.124   0.575
 1986TIP3    H2 5965   5.123   5.172   0.719
 1987TIP3   OH2 5966   5.361   5.469   4.651
 1987TIP3    H1 5967   5.440   5.484   4.703
 1987TIP3    H2 5968   5.367   5.376   4.627
 1988TIP3   OH2 5969   1.273   3.686   1.716
 1988TIP3    H1 5970   1.327   3.758   1.684
 1988TIP3    H2 5971   1.319   3.607   1.687
 1989TIP3   OH2 5972   0.510   2.234   3.454
 1989TIP3    H1 5973   0.472   2.317   3.483
 1989TIP3    H2 5974   0.544   2.253   3.366
 1990TIP3   OH2 5975   3.630   5.049   2.045
 1990TIP3    H1 5976   3.568   4.984   2.079
 1990TIP3    H2 5977   3.675   5.003   1.973
 1991TIP3   OH2 5978   6.069   2.589   0.505
 1991TIP3    H1 5979   6.046   2.668   0.556
 1991TIP3    H2 5980   5.986   2.555   0.474
 1992TIP3   OH2 5981   0.876   2.153   0.377
 1992TIP3    H1 5982   0.900   2.214   0.446
 1992TIP3    H2 5983   0.790   2.183   0.347
 1993TIP3   OH2 5984   4.779   1.533   0.980
 1993TIP3    H1 5985   4.835   1.538   0.902
 1993TIP3    H2 5986   4.706   1.478   0.953
 1994TIP3   OH2 5987   3.285   3.576   2.650
 1994TIP3    H1 5988   3.358   3.527   2.612
 1994TIP3    H2 5989   3.206   3.531   2.619
 1995TIP3   OH2 5990   3.190   3.667   5.099
 1995TIP3    H1 5991   3.224   3.749   5.062
 1995TIP3    H2 5992   3.134   3.695   5.172
 1996TIP3   OH2 5993   6.040   3.944   4.464
 1996TIP3    H1 5994   5.960   3.968   4.510
 1996TIP3    H2 5995   6.015   3.943   4.371
 1997TIP3   OH2 5996   4.057   1.818   0.247
 1997TIP3    H1 5997   4.002   1.789   0.320
 1997TIP3    H2 5998   4.111   1.742   0.226
 1998TIP3   OH2 5999   5.719   1.751   4.455
 1998TIP3    H1 6000   5.810   1.736   4.482
 1998TIP3    H2 6001   5.679   1.796   4.530
 1999TIP3   OH2 6002   1.014   1.495   0.104
 1999TIP3    H1 6003   0.953   1.544   0.049
 1999TIP3    H2 6004   0.994   1.524   0.193
 2000TIP3   OH2 6005   4.258   3.486   3.825
 2000TIP3    H1 6006   4.220   3.401   3.850
 2000TIP3    H2 6007   4.296   3.520   3.905
 2001TIP3   OH2 6008   0.886   1.874   1.494
 2001TIP3    H1 6009   0.816   1.813   1.519
 2001TIP3    H2 6010   0.943   1.877   1.571
 2002TIP3   OH2 6011   5.995   4.221   0.137
 2002TIP3    H1 6012   5.987   4.164   0.061
 2002TIP3    H2 6013   5.958   4.170   0.209
 2003TIP3   OH2 6014   5.339   0.571   4.014
 2003TIP3    H1 6015   5.282   0.597   3.942
 2003TIP3    H2 6016   5.424   0.609   3.992
 2004TIP3   OH2 6017   3.172   1.688   1.604
 2004TIP3    H1 6018   3.224   1.609   1.616
 2004TIP3    H2 6019   3.214   1.734   1.531
 2005TIP3   OH2 6020   2.281   3.463   1.648
 2005TIP3    H1 6021   2.370   3.496   1.662
 2005TIP3    H2 6022   2.276   3.384   1.703
 2006TIP3   OH2 6023   3.415   4.066   1.525
 2006TIP3    H1 6024   3.389   4.025   1.607
 2006TIP3    H2 6025   3.459   3.996   1.476
 2007TIP3   OH2 6026   5.548   3.463   1.331
 2007TIP3    H1 6027   5.642   3.446   1.330
 2007TIP3    H2 6028   5.511   3.393   1.384
 2008TIP3   OH2 6029   2.144   2.245   3.594
 2008TIP3    H1 6030   2.170   2.260   3.685
 2008TIP3    H2 6031   2.076   2.177   3.600
 2009TIP3   OH2 6032   2.177   5.466   4.650
 2009TIP3    H1 6033   2.146   5.470   4.740
 2009TIP3    H2 6034   2.104   5.427   4.601
 2010TIP3   OH2 6035   3.404   3.088   4.848
 2010TIP3    H1 6036   3.451   3.124   4.773
 2010TIP3    H2 6037   3.314   3.076   4.816
 2011TIP3   OH2 6038   3.865   0.287   3.333
 2011TIP3    H1 6039   3.901   0.248   3.254
 2011TIP3    H2 6040   3.820   0.366   3.303
 2012TIP3   OH2 6041   3.735   5.432   3.740
 2012TIP3    H1 6042   3.755   5.507   3.686
 2012TIP3    H2 6043   3.701   5.469   3.822
 2013TIP3   OH2 6044   4.427   4.413   2.232
 2013TIP3    H1 6045   4.521   4.429   2.233
 2013TIP3    H2 6046   4.402   4.419   2.140
 2014TIP3   OH2 6047   4.944   3.206   2.126
 2014TIP3    H1 6048   5.028   3.168   2.102
 2014TIP3    H2 6049   4.899   3.137   2.175
 2015TIP3   OH2 6050   0.006   0.123   3.494
 2015TIP3    H1 6051   0.025   0.176   3.417
 2015TIP3    H2 6052   0.062   0.160   3.563
 2016TIP3   OH2 6053   4.103   1.884   2.397
 2016TIP3    H1 6054   4.121   1.819   2.465
 2016TIP3    H2 6055   4.038   1.942   2.436
 2017TIP3   OH2 6056   5.005   5.108   3.321
 2017TIP3    H1 6057   4.917   5.071   3.329
 2017TIP3    H2 6058   5.057   5.063   3.388
 2018TIP3   OH2 6059   1.399   3.467   4.695
 2018TIP3    H1 6060   1.472   3.406   4.679
 2018TIP3    H2 6061   1.327   3.432   4.642
 2019TIP3   OH2 6062   2.128   2.105   1.374
 2019TIP3    H1 6063   2.121   2.196   1.346
 2019TIP3    H2 6064   2.161   2.058   1.297
 2020TIP3   OH2 6065   4.015   2.144   1.107
 2020TIP3    H1 6066   4.021   2.110   1.018
 2020TIP3    H2 6067   3.967   2.226   1.098
 2021TIP3   OH2 6068   4.857   1.004   4.243
 2021TIP3    H1 6069   4.790   1.072   4.238
 2021TIP3    H2 6070   4.810   0.922   4.228
 2022TIP3   OH2 6071   0.275   5.018   0.932
 2022TIP3    H1 6072   0.246   5.046   0.845
 2022TIP3    H2 6073   0.367   4.995   0.920
 2023TIP3   OH2 6074   1.434   0.363   0.846
 2023TIP3    H1 6075   1.437   0.267   0.840
 2023TIP3    H2 6076   1.459   0.393   0.758
 2024TIP3   OH2 6077   1.782   0.350   4.749
 2024TIP3    H1 6078   1.690   0.333   4.766
 2024TIP3    H2 6079   1.800   0.432   4.796
 2025TIP3   OH2 6080   5.280   0.844   2.474
 2025TIP3    H1 6081   5.206   0.864   2.417
 2025TIP3    H2 6082   5.272   0.750   2.490
 2026TIP3   OH2 6083   5.648   2.505   4.222
 2026TIP3    H1 6084   5.643   2.571   4.152
 2026TIP3    H2 6085   5.699   2.548   4.291
 2027TIP3   OH2 6086   0.791   0.959   4.178
 2027TIP3    H1 6087   0.837   0.892   4.127
 2027TIP3    H2 6088   0.769   1.027   4.114
 2028TIP3   OH2 6089   0.512   3.792   1.044
 2028TIP3    H1 6090   0.439   3.729   1.044
 2028TIP3    H2 6091   0.524   3.816   0.952
 2029TIP3   OH2 6092   3.597   2.759   3.686
 2029TIP3    H1 6093   3.607   2.702   3.609
 2029TIP3    H2 6094   3.536   2.712   3.743
 2030TIP3   OH2 6095   5.650   5.957   4.671
 2030TIP3    H1 6096   5.743   5.935   4.661
 2030TIP3    H2 6097   5.603   5.879   4.642
 2031TIP3   OH2 6098   3.010   2.133   4.253
 2031TIP3    H1 6099   3.096   2.176   4.260
 2031TIP3    H2 6100   2.956   2.197   4.206
 2032TIP3   OH2 6101   3.910   4.527   3.679
 2032TIP3    H1 6102   3.862   4.595   3.632
 2032TIP3    H2 6103   3.900   4.449   3.624
 2033TIP3   OH2 6104   4.314   0.045   0.064
 2033TIP3    H1 6105   4.328   0.095   0.143
 2033TIP3    H2 6106   4.251   0.097   0.013
 2034TIP3   OH2 6107   5.163   0.886   4.046
 2034TIP3    H1 6108   5.198   0.932   3.969
 2034TIP3    H2 6109   5.104   0.819   4.010
 2035TIP3   OH2 6110   0.195   2.175   4.137
 2035TIP3    H1 6111   0.108   2.215   4.141
 2035TIP3    H2 6112   0.252   2.245   4.104
 2036TIP3   OH2 6113   5.761   5.542   2.085
 2036TIP3    H1 6114   5.833   5.597   2.056
 2036TIP3    H2 6115   5.698   5.546   2.013
 2037TIP3   OH2 6116   5.968   4.339   2.013
 2037TIP3    H1 6117   5.956   4.245   1.999
 2037TIP3    H2 6118   6.053   4.347   2.056
 2038TIP3   OH2 6119   0.666   1.932   2.667
 2038TIP3    H1 6120   0.628   1.944   2.580
 2038TIP3    H2 6121   0.594   1.953   2.727
 2039TIP3   OH2 6122   4.378   5.480   1.104
 2039TIP3    H1 6123   4.457   5.427   1.089
 2039TIP3    H2 6124   4.311   5.438   1.051
 2040TIP3   OH2 6125   6.215   2.265   2.426
 2040TIP3    H1 6126   6.182   2.289   2.339
 2040TIP3    H2 6127   6.270   2.339   2.452
 2041TIP3   OH2 6128   1.684   4.353   3.958
 2041TIP3    H1 6129   1.729   4.421   3.909
 2041TIP3    H2 6130   1.745   4.279   3.958
 2042TIP3   OH2 6131   5.059   5.890   1.671
 2042TIP3    H1 6132   5.152   5.901   1.689
 2042TIP3    H2 6133   5.046   5.933   1.587
 2043TIP3   OH2 6134   2.475   3.385   2.074
 2043TIP3    H1 6135   2.457   3.322   2.144
 2043TIP3    H2 6136   2.528   3.336   2.011
 2044TIP3   OH2 6137   3.723   0.322   2.775
 2044TIP3    H1 6138   3.647   0.330   2.718
 2044TIP3    H2 6139   3.698   0.258   2.841
 2045TIP3   OH2 6140   2.787   4.366   2.224
 2045TIP3    H1 6141   2.771   4.282   2.182
 2045TIP3    H2 6142   2.704   4.386   2.269
 2046TIP3   OH2 6143   0.249   0.574   0.046
 2046TIP3    H1 6144   0.159   0.572   0.079
 2046TIP3    H2 6145   0.291   0.498   0.087
 2047TIP3   OH2 6146   4.412   3.454   0.550
 2047TIP3    H1 6147   4.482   3.427   0.609
 2047TIP3    H2 6148   4.376   3.371   0.517
 2048TIP3   OH2 6149   5.531   5.267   1.784
 2048TIP3    H1 6150   5.538   5.258   1.689
 2048TIP3    H2 6151   5.604   5.216   1.819
 2049TIP3   OH2 6152   4.454   1.424   0.052
 2049TIP3    H1 6153   4.517   1.496   0.047
 2049TIP3    H2 6154   4.480   1.375   0.129
 2050TIP3   OH2 6155   0.743   0.126   1.138
 2050TIP3    H1 6156   0.667   0.166   1.096
 2050TIP3    H2 6157   0.721   0.033   1.144
 2051TIP3   OH2 6158   3.096   4.983   3.080
 2051TIP3    H1 6159   3.160   5.034   3.031
 2051TIP3    H2 6160   3.011   5.020   3.054
 2052TIP3   OH2 6161   1.848   3.787   4.023
 2052TIP3    H1 6162   1.863   3.708   4.075
 2052TIP3    H2 6163   1.880   3.764   3.935
 2053TIP3   OH2 6164   2.767   4.616   0.341
 2053TIP3    H1 6165   2.803   4.534   0.307
 2053TIP3    H2 6166   2.723   4.655   0.266
 2054TIP3   OH2 6167   1.097   1.270   1.252
 2054TIP3    H1 6168   1.143   1.349   1.280
 2054TIP3    H2 6169   1.010   1.278   1.293
 2055TIP3   OH2 6170   4.439   0.816   1.331
 2055TIP3    H1 6171   4.365   0.837   1.274
 2055TIP3    H2 6172   4.431   0.722   1.347
 2056TIP3   OH2 6173   2.769   5.675   4.412
 2056TIP3    H1 6174   2.847   5.727   4.431
 2056TIP3    H2 6175   2.733   5.713   4.332
 2057TIP3   OH2 6176   6.187   2.717   0.850
 2057TIP3    H1 6177   6.254   2.667   0.804
 2057TIP3    H2 6178   6.179   2.675   0.936
 2058TIP3   OH2 6179   4.851   3.146   3.192
 2058TIP3    H1 6180   4.891   3.059   3.191
 2058TIP3    H2 6181   4.816   3.156   3.280
 2059TIP3   OH2 6182   0.633   2.984   3.392
 2059TIP3    H1 6183   0.614   2.892   3.372
 2059TIP3    H2 6184   0.694   2.981   3.465
 2060TIP3   OH2 6185   2.430   2.671   4.774
 2060TIP3    H1 6186   2.364   2.609   4.805
 2060TIP3    H2 6187   2.488   2.618   4.719
 2061TIP3   OH2 6188   2.550   0.355   4.484
 2061TIP3    H1 6189   2.454   0.359   4.482
 2061TIP3    H2 6190   2.571   0.271   4.443
 2062TIP3   OH2 6191   3.658   4.885   2.700
 2062TIP3    H1 6192   3.640   4.975   2.726
 2062TIP3    H2 6193   3.617   4.832   2.768
 2063TIP3   OH2 6194   4.926   4.362   0.900
 2063TIP3    H1 6195   4.877   4.291   0.942
 2063TIP3    H2 6196   4.867   4.393   0.831
 2064TIP3   OH2 6197   3.757   0.981   4.303
 2064TIP3    H1 6198   3.816   0.933   4.361
 2064TIP3    H2 6199   3.759   1.071   4.335
 2065TIP3   OH2 6200   5.349   4.764   5.030
 2065TIP3    H1 6201   5.348   4.763   4.934
 2065TIP3    H2 6202   5.440   4.785   5.052
 2066TIP3   OH2 6203   0.365   5.402   5.163
 2066TIP3    H1 6204   0.361   5.439   5.251
 2066TIP3    H2 6205   0.459   5.389   5.147
 2067TIP3   OH2 6206   3.954   3.640   2.484
 2067TIP3    H1 6207   4.031   3.584   2.472
 2067TIP3    H2 6208   3.976   3.694   2.560
 2068TIP3   OH2 6209   5.131   0.475   5.026
 2068TIP3    H1 6210   5.080   0.460   4.947
 2068TIP3    H2 6211   5.176   0.392   5.042
 2069TIP3   OH2 6212   2.038   1.255   3.783
 2069TIP3    H1 6213   2.021   1.192   3.713
 2069TIP3    H2 6214   2.112   1.219   3.831
 2070TIP3   OH2 6215   1.955   0.535   0.443
 2070TIP3    H1 6216   1.992   0.550   0.356
 2070TIP3    H2 6217   1.863   0.513   0.426
 2071TIP3   OH2 6218   5.847   1.813   4.186
 2071TIP3    H1 6219   5.923   1.781   4.137
 2071TIP3    H2 6220   5.832   1.746   4.252
 2072TIP3   OH2 6221   3.544   0.605   2.969
 2072TIP3    H1 6222   3.449   0.608   2.969
 2072TIP3    H2 6223   3.572   0.696   2.980
 2073TIP3   OH2 6224   1.679   2.789   1.905
 2073TIP3    H1 6225   1.592   2.779   1.866
 2073TIP3    H2 6226   1.713   2.871   1.868
 2074TIP3   OH2 6227   4.858   5.099   0.911
 2074TIP3    H1 6228   4.923   5.156   0.869
 2074TIP3    H2 6229   4.789   5.089   0.846
 2075TIP3   OH2 6230   2.702   5.151   0.948
 2075TIP3    H1 6231   2.620   5.102   0.947
 2075TIP3    H2 6232   2.729   5.150   1.040
 2076TIP3   OH2 6233   5.102   0.078   2.023
 2076TIP3    H1 6234   5.061   0.079   1.936
 2076TIP3    H2 6235   5.084   0.165   2.059
 2077TIP3   OH2 6236   3.922   2.472   2.533
 2077TIP3    H1 6237   3.865   2.396   2.518
 2077TIP3    H2 6238   4.011   2.436   2.528
 2078TIP3   OH2 6239   0.140   4.971   4.680
 2078TIP3    H1 6240   0.088   4.946   4.603
 2078TIP3    H2 6241   0.153   4.889   4.727
 2079TIP3   OH2 6242   0.025   4.278   0.926
 2079TIP3    H1 6243   0.046   4.186   0.905
 2079TIP3    H2 6244   0.102   4.310   0.973
 2080TIP3   OH2 6245   6.016   1.411   5.094
 2080TIP3    H1 6246   6.013   1.445   5.183
 2080TIP3    H2 6247   5.929   1.376   5.078
 2081TIP3   OH2 6248   5.392   0.937   4.278
 2081TIP3    H1 6249   5.427   1.021   4.248
 2081TIP3    H2 6250   5.443   0.917   4.357
 2082TIP3   OH2 6251   3.117   5.604   0.807
 2082TIP3    H1 6252   3.124   5.622   0.713
 2082TIP3    H2 6253   3.114   5.690   0.848
 2083TIP3   OH2 6254   2.741   0.824   3.709
 2083TIP3    H1 6255   2.791   0.746   3.732
 2083TIP3    H2 6256   2.688   0.842   3.787
 2084TIP3   OH2 6257   3.617   1.922   0.674
 2084TIP3    H1 6258   3.705   1.916   0.637
 2084TIP3    H2 6259   3.559   1.904   0.600
 2085TIP3   OH2 6260   4.468   3.184   1.324
 2085TIP3    H1 6261   4.383   3.184   1.281
 2085TIP3    H2 6262   4.449   3.160   1.415
 2086TIP3   OH2 6263   2.651   2.779   0.948
 2086TIP3    H1 6264   2.670   2.873   0.952
 2086TIP3    H2 6265   2.664   2.756   0.856
 2087TIP3   OH2 6266   2.700   0.205   3.427
 2087TIP3    H1 6267   2.655   0.289   3.430
 2087TIP3    H2 6268   2.702   0.183   3.333
 2088TIP3   OH2 6269   4.238   1.414   0.953
 2088TIP3    H1 6270   4.250   1.413   0.858
 2088TIP3    H2 6271   4.144   1.431   0.965
 2089TIP3   OH2 6272   4.031   5.620   4.705
 2089TIP3    H1 6273   4.023   5.560   4.630
 2089TIP3    H2 6274   4.071   5.568   4.774
 2090TIP3   OH2 6275   0.405   2.913   3.176
 2090TIP3    H1 6276   0.459   2.853   3.228
 2090TIP3    H2 6277   0.455   2.926   3.096
 2091TIP3   OH2 6278   3.606   3.746   2.329
 2091TIP3    H1 6279   3.561   3.802   2.265
 2091TIP3    H2 6280   3.675   3.704   2.278
 2092TIP3   OH2 6281   5.940   5.252   4.257
 2092TIP3    H1 6282   5.906   5.170   4.293
 2092TIP3    H2 6283   5.981   5.295   4.332
 2093TIP3   OH2 6284   3.079   0.370   3.083
 2093TIP3    H1 6285   2.992   0.402   3.061
 2093TIP3    H2 6286   3.065   0.311   3.156
 2094TIP3   OH2 6287   1.512   4.972   4.890
 2094TIP3    H1 6288   1.469   4.890   4.868
 2094TIP3    H2 6289   1.500   5.027   4.813
 2095TIP3   OH2 6290   2.359   2.317   0.511
 2095TIP3    H1 6291   2.277   2.365   0.525
 2095TIP3    H2 6292   2.334   2.241   0.460
 2096TIP3   OH2 6293   1.530   4.964   2.702
 2096TIP3    H1 6294   1.529   4.929   2.613
 2096TIP3    H2 6295   1.438   4.970   2.726
 2097TIP3   OH2 6296   3.043   0.541   2.823
 2097TIP3    H1 6297   2.972   0.605   2.829
 2097TIP3    H2 6298   3.111   0.585   2.772
 2098TIP3   OH2 6299   2.485   0.683   2.981
 2098TIP3    H1 6300   2.482   0.594   2.947
 2098TIP3    H2 6301   2.437   0.679   3.064
 2099TIP3   OH2 6302   2.935   3.445   4.941
 2099TIP3    H1 6303   2.924   3.350   4.943
 2099TIP3    H2 6304   2.906   3.474   5.028
 2100TIP3   OH2 6305   1.034   4.066   3.709
 2100TIP3    H1 6306   1.004   4.146   3.666
 2100TIP3    H2 6307   1.129   4.079   3.720
 2101TIP3   OH2 6308   3.808   5.541   3.028
 2101TIP3    H1 6309   3.758   5.612   3.068
 2101TIP3    H2 6310   3.802   5.469   3.091
 2102TIP3   OH2 6311   0.214   5.260   1.604
 2102TIP3    H1 6312   0.191   5.211   1.683
 2102TIP3    H2 6313   0.247   5.194   1.543
 2103TIP3   OH2 6314   1.851   3.801   5.045
 2103TIP3    H1 6315   1.929   3.747   5.038
 2103TIP3    H2 6316   1.884   3.891   5.037
 2104TIP3   OH2 6317   3.534   3.440   2.627
 2104TIP3    H1 6318   3.492   3.358   2.600
 2104TIP3    H2 6319   3.539   3.435   2.722
 2105TIP3   OH2 6320   5.581   3.042   1.409
 2105TIP3    H1 6321   5.641   3.018   1.339
 2105TIP3    H2 6322   5.499   2.998   1.387
 2106TIP3   OH2 6323   4.118   0.682   2.803
 2106TIP3    H1 6324   4.046   0.621   2.819
 2106TIP3    H2 6325   4.105   0.710   2.712
 2107TIP3   OH2 6326   5.025   3.425   1.945
 2107TIP3    H1 6327   4.979   3.362   2.001
 2107TIP3    H2 6328   5.112   3.387   1.934
 2108TIP3   OH2 6329   3.106   3.097   3.219
 2108TIP3    H1 6330   3.121   3.183   3.259
 2108TIP3    H2 6331   3.019   3.071   3.250
 2109TIP3   OH2 6332   2.294   1.836   3.705
 2109TIP3    H1 6333   2.300   1.899   3.634
 2109TIP3    H2 6334   2.294   1.751   3.661
 2110TIP3   OH2 6335   3.812   4.860   1.195
 2110TIP3    H1 6336   3.872   4.926   1.161
 2110TIP3    H2 6337   3.868   4.797   1.239
 2111TIP3   OH2 6338   2.463   3.841   4.223
 2111TIP3    H1 6339   2.516   3.863   4.300
 2111TIP3    H2 6340   2.483   3.750   4.205
 2112TIP3   OH2 6341   4.722   4.107   4.431
 2112TIP3    H1 6342   4.689   4.116   4.521
 2112TIP3    H2 6343   4.775   4.028   4.433
 2113TIP3   OH2 6344   2.444   2.831   3.495
 2113TIP3    H1 6345   2.432   2.898   3.563
 2113TIP3    H2 6346   2.391   2.861   3.422
 2114TIP3   OH2 6347   2.711   3.014   2.094
 2114TIP3    H1 6348   2.665   2.933   2.116
 2114TIP3    H2 6349   2.795   3.008   2.140
 2115TIP3   OH2 6350   0.202   1.333   4.382
 2115TIP3    H1 6351   0.167   1.380   4.458
 2115TIP3    H2 6352   0.224   1.401   4.319
 2116TIP3   OH2 6353   1.086   4.058   0.977
 2116TIP3    H1 6354   1.118   4.097   1.058
 2116TIP3    H2 6355   1.096   4.127   0.911
 2117TIP3   OH2 6356   0.104   3.952   2.308
 2117TIP3    H1 6357   0.157   3.873   2.298
 2117TIP3    H2 6358   0.165   4.024   2.290
 2118TIP3   OH2 6359   1.909   3.483   4.924
 2118TIP3    H1 6360   1.882   3.544   4.855
 2118TIP3    H2 6361   1.997   3.512   4.948
 2119TIP3   OH2 6362   5.360   5.382   3.409
 2119TIP3    H1 6363   5.355   5.460   3.464
 2119TIP3    H2 6364   5.280   5.385   3.356
 2120TIP3   OH2 6365   3.124   2.478   1.134
 2120TIP3    H1 6366   3.080   2.397   1.158
 2120TIP3    H2 6367   3.064   2.522   1.075
 2121TIP3   OH2 6368   1.945   4.674   1.364
 2121TIP3    H1 6369   1.951   4.610   1.293
 2121TIP3    H2 6370   1.910   4.753   1.324
 2122TIP3   OH2 6371   2.255   2.954   3.331
 2122TIP3    H1 6372   2.226   3.009   3.259
 2122TIP3    H2 6373   2.180   2.950   3.391
 2123TIP3   OH2 6374   4.242   5.029   3.016
 2123TIP3    H1 6375   4.332   5.046   2.988
 2123TIP3    H2 6376   4.205   4.975   2.946
 2124TIP3   OH2 6377   3.878   0.181   2.581
 2124TIP3    H1 6378   3.887   0.109   2.644
 2124TIP3    H2 6379   3.831   0.249   2.629
 2125TIP3   OH2 6380   2.469   4.468   0.989
 2125TIP3    H1 6381   2.491   4.444   0.899
 2125TIP3    H2 6382   2.424   4.392   1.024
 2126TIP3   OH2 6383   2.010   2.496   2.848
 2126TIP3    H1 6384   1.950   2.433   2.807
 2126TIP3    H2 6385   1.953   2.551   2.903
 2127TIP3   OH2 6386   2.672   2.572   0.714
 2127TIP3    H1 6387   2.603   2.517   0.752
 2127TIP3    H2 6388   2.661   2.563   0.620
 2128TIP3   OH2 6389   3.224   1.627   2.267
 2128TIP3    H1 6390   3.250   1.686   2.338
 2128TIP3    H2 6391   3.178   1.683   2.205
 2129TIP3   OH2 6392   5.373   0.730   2.882
 2129TIP3    H1 6393   5.315   0.788   2.833
 2129TIP3    H2 6394   5.385   0.655   2.823
 2130TIP3   OH2 6395   3.296   1.192   1.960
 2130TIP3    H1 6396   3.279   1.280   1.995
 2130TIP3    H2 6397   3.279   1.200   1.866
 2131TIP3   OH2 6398   3.029   4.372   0.598
 2131TIP3    H1 6399   2.946   4.327   0.584
 2131TIP3    H2 6400   3.024   4.403   0.689
 2132TIP3   OH2 6401   5.944   2.656   4.178
 2132TIP3    H1 6402   5.979   2.645   4.266
 2132TIP3    H2 6403   5.874   2.720   4.188
 2133TIP3   OH2 6404   4.780   0.058   1.991
 2133TIP3    H1 6405   4.774   0.145   2.032
 2133TIP3    H2 6406   4.836   0.071   1.915
 2134TIP3   OH2 6407   4.690   1.777   3.903
 2134TIP3    H1 6408   4.662   1.866   3.923
 2134TIP3    H2 6409   4.609   1.729   3.885
 2135TIP3   OH2 6410   2.910   0.425   4.857
 2135TIP3    H1 6411   2.906   0.504   4.910
 2135TIP3    H2 6412   2.891   0.354   4.918
 2136TIP3   OH2 6413   5.223   0.501   0.609
 2136TIP3    H1 6414   5.237   0.509   0.703
 2136TIP3    H2 6415   5.291   0.440   0.580
 2137TIP3   OH2 6416   6.106   0.395   4.514
 2137TIP3    H1 6417   6.121   0.339   4.590
 2137TIP3    H2 6418   6.108   0.484   4.550
 2138TIP3   OH2 6419   2.881   0.692   1.697
 2138TIP3    H1 6420   2.826   0.631   1.747
 2138TIP3    H2 6421   2.835   0.775   1.700
 2139TIP3   OH2 6422   2.362   5.056   4.411
 2139TIP3    H1 6423   2.303   4.982   4.428
 2139TIP3    H2 6424   2.338   5.120   4.478
 2140TIP3   OH2 6425   5.628   2.075   1.067
 2140TIP3    H1 6426   5.613   2.000   1.009
 2140TIP3    H2 6427   5.602   2.043   1.154
 2141TIP3   OH2 6428   2.058   3.545   3.548
 2141TIP3    H1 6429   2.043   3.638   3.532
 2141TIP3    H2 6430   1.972   3.504   3.539
 2142TIP3   OH2 6431   0.936   3.879   1.264
 2142TIP3    H1 6432   1.022   3.836   1.262
 2142TIP3    H2 6433   0.874   3.808   1.246
 2143TIP3   OH2 6434   1.010   1.912   1.763
 2143TIP3    H1 6435   1.046   1.848   1.826
 2143TIP3    H2 6436   0.918   1.921   1.790
 2144TIP3   OH2 6437   3.209   3.811   1.979
 2144TIP3    H1 6438   3.250   3.739   2.027
 2144TIP3    H2 6439   3.248   3.890   2.016
 2145TIP3   OH2 6440   5.405   1.488   0.757
 2145TIP3    H1 6441   5.454   1.447   0.828
 2145TIP3    H2 6442   5.393   1.419   0.692
 2146TIP3   OH2 6443   6.027   5.626   4.014
 2146TIP3    H1 6444   5.998   5.693   3.952
 2146TIP3    H2 6445   6.072   5.561   3.960
 2147TIP3   OH2 6446   0.887   1.025   4.571
 2147TIP3    H1 6447   0.810   1.026   4.513
 2147TIP3    H2 6448   0.960   1.046   4.513
 2148TIP3   OH2 6449   6.058   4.937   4.482
 2148TIP3    H1 6450   6.088   4.980   4.402
 2148TIP3    H2 6451   5.966   4.916   4.465
 2149TIP3   OH2 6452   5.735   2.252   4.398
 2149TIP3    H1 6453   5.812   2.195   4.393
 2149TIP3    H2 6454   5.770   2.337   4.424
 2150TIP3   OH2 6455   5.729   5.450   3.971
 2150TIP3    H1 6456   5.671   5.395   3.918
 2150TIP3    H2 6457   5.816   5.439   3.932
 2151TIP3   OH2 6458   4.316   3.263   2.536
 2151TIP3    H1 6459   4.389   3.216   2.497
 2151TIP3    H2 6460   4.248   3.197   2.549
 2152TIP3   OH2 6461   3.179   0.518   4.120
 2152TIP3    H1 6462   3.227   0.591   4.160
 2152TIP3    H2 6463   3.215   0.510   4.032
 2153TIP3   OH2 6464   5.094   2.072   2.508
 2153TIP3    H1 6465   5.008   2.109   2.527
 2153TIP3    H2 6466   5.079   1.978   2.499
 2154TIP3   OH2 6467   5.251   3.788   2.218
 2154TIP3    H1 6468   5.158   3.789   2.243
 2154TIP3    H2 6469   5.285   3.708   2.258
 2155TIP3   OH2 6470   4.938   4.918   0.506
 2155TIP3    H1 6471   4.946   4.963   0.591
 2155TIP3    H2 6472   5.021   4.937   0.462
 2156TIP3   OH2 6473   0.955   5.447   3.110
 2156TIP3    H1 6474   1.003   5.413   3.185
 2156TIP3    H2 6475   0.889   5.505   3.149
 2157TIP3   OH2 6476   4.735   0.288   3.872
 2157TIP3    H1 6477   4.772   0.361   3.824
 2157TIP3    H2 6478   4.750   0.309   3.964
 2158TIP3   OH2 6479   6.355   3.646   2.828
 2158TIP3    H1 6480   6.263   3.623   2.815
 2158TIP3    H2 6481   6.353   3.731   2.870
 2159TIP3   OH2 6482   0.912   0.711   0.130
 2159TIP3    H1 6483   0.922   0.762   0.210
 2159TIP3    H2 6484   0.820   0.718   0.107
 2160TIP3   OH2 6485   4.551   0.177   4.467
 2160TIP3    H1 6486   4.537   0.126   4.387
 2160TIP3    H2 6487   4.616   0.243   4.442
 2161TIP3   OH2 6488   1.713   2.283   3.895
 2161TIP3    H1 6489   1.759   2.345   3.837
 2161TIP3    H2 6490   1.748   2.302   3.982
 2162TIP3   OH2 6491   5.324   1.688   1.908
 2162TIP3    H1 6492   5.306   1.659   1.818
 2162TIP3    H2 6493   5.376   1.767   1.897
 2163TIP3   OH2 6494   4.447   4.384   4.503
 2163TIP3    H1 6495   4.477   4.334   4.579
 2163TIP3    H2 6496   4.381   4.444   4.538
 2164TIP3   OH2 6497   0.773   3.747   3.280
 2164TIP3    H1 6498   0.775   3.781   3.370
 2164TIP3    H2 6499   0.756   3.654   3.290
 2165TIP3   OH2 6500   5.412   3.576   0.395
 2165TIP3    H1 6501   5.324   3.547   0.370
 2165TIP3    H2 6502   5.439   3.634   0.324
 2166TIP3   OH2 6503   1.062   1.453   4.795
 2166TIP3    H1 6504   1.110   1.395   4.738
 2166TIP3    H2 6505   1.129   1.507   4.838
 2167TIP3   OH2 6506   0.610   0.213   0.032
 2167TIP3    H1 6507   0.616   0.305   0.007
 2167TIP3    H2 6508   0.687   0.197   0.086
 2168TIP3   OH2 6509   3.437   5.514   5.057
 2168TIP3    H1 6510   3.525   5.524   5.095
 2168TIP3    H2 6511   3.434   5.580   4.987
 2169TIP3   OH2 6512   3.280   1.111   4.904
 2169TIP3    H1 6513   3.204   1.056   4.925
 2169TIP3    H2 6514   3.351   1.048   4.887
 2170TIP3   OH2 6515   1.935   3.113   2.348
 2170TIP3    H1 6516   1.958   3.057   2.274
 2170TIP3    H2 6517   1.993   3.189   2.339
 2171TIP3   OH2 6518   4.600   2.524   0.208
 2171TIP3    H1 6519   4.515   2.487   0.231
 2171TIP3    H2 6520   4.606   2.605   0.259
 2172TIP3   OH2 6521   3.520   3.201   2.483
 2172TIP3    H1 6522   3.429   3.230   2.479
 2172TIP3    H2 6523   3.517   3.121   2.535
 2173TIP3   OH2 6524   0.878   1.757   3.394
 2173TIP3    H1 6525   0.885   1.685   3.457
 2173TIP3    H2 6526   0.796   1.800   3.415
 2174TIP3   OH2 6527   5.435   3.036   0.448
 2174TIP3    H1 6528   5.432   2.976   0.523
 2174TIP3    H2 6529   5.344   3.049   0.424
 2175TIP3   OH2 6530   0.290   4.792   0.501
 2175TIP3    H1 6531   0.375   4.806   0.544
 2175TIP3    H2 6532   0.273   4.699   0.510
 2176TIP3   OH2 6533   0.194   3.411   0.661
 2176TIP3    H1 6534   0.182   3.399   0.567
 2176TIP3    H2 6535   0.286   3.435   0.671
 2177TIP3   OH2 6536   0.310   0.198   3.711
 2177TIP3    H1 6537   0.385   0.190   3.653
 2177TIP3    H2 6538   0.331   0.272   3.768
 2178TIP3   OH2 6539   4.721   5.699   5.202
 2178TIP3    H1 6540   4.767   5.682   5.119
 2178TIP3    H2 6541   4.633   5.724   5.175
 2179TIP3   OH2 6542   4.698   5.840   2.142
 2179TIP3    H1 6543   4.789   5.870   2.143
 2179TIP3    H2 6544   4.661   5.879   2.062
 2180TIP3   OH2 6545   3.833   1.620   1.482
 2180TIP3    H1 6546   3.913   1.672   1.476
 2180TIP3    H2 6547   3.839   1.578   1.568
 2181TIP3   OH2 6548   6.293   3.651   5.218
 2181TIP3    H1 6549   6.368   3.592   5.209
 2181TIP3    H2 6550   6.246   3.643   5.135
 2182TIP3   OH2 6551   0.083   0.991   2.481
 2182TIP3    H1 6552   0.109   0.903   2.507
 2182TIP3    H2 6553   0.059   0.983   2.389
 2183TIP3   OH2 6554   0.407   3.994   0.536
 2183TIP3    H1 6555   0.490   4.026   0.571
 2183TIP3    H2 6556   0.343   4.061   0.561
 2184TIP3   OH2 6557   4.952   3.700   2.014
 2184TIP3    H1 6558   4.982   3.609   2.013
 2184TIP3    H2 6559   4.961   3.727   2.106
 2185TIP3   OH2 6560   5.325   5.658   2.455
 2185TIP3    H1 6561   5.325   5.749   2.485
 2185TIP3    H2 6562   5.417   5.632   2.459
 2186TIP3   OH2 6563   4.173   2.892   2.274
 2186TIP3    H1 6564   4.220   2.810   2.285
 2186TIP3    H2 6565   4.230   2.947   2.220
 2187TIP3   OH2 6566   1.606   3.607   0.603
 2187TIP3    H1 6567   1.632   3.697   0.622
 2187TIP3    H2 6568   1.515   3.602   0.632
 2188TIP3   OH2 6569   0.641   3.480   0.923
 2188TIP3    H1 6570   0.657   3.571   0.898
 2188TIP3    H2 6571   0.609   3.439   0.843
 2189TIP3   OH2 6572   1.464   1.437   2.242
 2189TIP3    H1 6573   1.443   1.507   2.181
 2189TIP3    H2 6574   1.538   1.392   2.201
 2190TIP3   OH2 6575   3.525   4.610   2.633
 2190TIP3    H1 6576   3.619   4.593   2.622
 2190TIP3    H2 6577   3.505   4.677   2.568
 2191TIP3   OH2 6578   2.054   3.258   2.109
 2191TIP3    H1 6579   1.984   3.316   2.139
 2191TIP3    H2 6580   2.012   3.202   2.043
 2192TIP3   OH2 6581   2.799   2.060   0.949
 2192TIP3    H1 6582   2.894   2.068   0.963
 2192TIP3    H2 6583   2.761   2.114   1.018
 2193TIP3   OH2 6584   3.649   0.664   1.188
 2193TIP3    H1 6585   3.708   0.590   1.178
 2193TIP3    H2 6586   3.607   0.651   1.273
 2194TIP3   OH2 6587   2.390   0.921   4.805
 2194TIP3    H1 6588   2.393   0.840   4.754
 2194TIP3    H2 6589   2.476   0.927   4.846
 2195TIP3   OH2 6590   4.486   0.558   0.097
 2195TIP3    H1 6591   4.524   0.582   0.013
 2195TIP3    H2 6592   4.556   0.572   0.160
 2196TIP3   OH2 6593   5.557   2.472   0.345
 2196TIP3    H1 6594   5.583   2.381   0.330
 2196TIP3    H2 6595   5.466   2.467   0.375
 2197TIP3   OH2 6596   3.437   4.264   3.699
 2197TIP3    H1 6597   3.422   4.266   3.605
 2197TIP3    H2 6598   3.521   4.219   3.710
 2198TIP3   OH2 6599   0.115   0.795   0.307
 2198TIP3    H1 6600   0.135   0.888   0.312
 2198TIP3    H2 6601   0.088   0.781   0.216
 2199TIP3   OH2 6602   2.639   2.318   3.338
 2199TIP3    H1 6603   2.553   2.357   3.354
 2199TIP3    H2 6604   2.624   2.254   3.269
 2200TIP3   OH2 6605   5.957   5.860   4.711
 2200TIP3    H1 6606   6.043   5.902   4.704
 2200TIP3    H2 6607   5.973   5.769   4.684
 2201TIP3   OH2 6608   3.686   3.453   1.907
 2201TIP3    H1 6609   3.603   3.496   1.929
 2201TIP3    H2 6610   3.688   3.374   1.961
 2202TIP3   OH2 6611   3.587   3.769   3.982
 2202TIP3    H1 6612   3.608   3.766   4.075
 2202TIP3    H2 6613   3.533   3.691   3.967
 2203TIP3   OH2 6614   2.737   2.465   2.519
 2203TIP3    H1 6615   2.750   2.505   2.434
 2203TIP3    H2 6616   2.777   2.378   2.512
 2204TIP3   OH2 6617   6.333   3.033   4.867
 2204TIP3    H1 6618   6.309   2.978   4.793
 2204TIP3    H2 6619   6.349   2.971   4.938
 2205TIP3   OH2 6620   2.263   4.523   2.570
 2205TIP3    H1 6621   2.204   4.458   2.607
 2205TIP3    H2 6622   2.317   4.475   2.507
 2206TIP3   OH2 6623   0.489   4.486   4.321
 2206TIP3    H1 6624   0.522   4.576   4.327
 2206TIP3    H2 6625   0.395   4.496   4.304
 2207TIP3   OH2 6626   4.214   0.503   0.624
 2207TIP3    H1 6627   4.267   0.425   0.644
 2207TIP3    H2 6628   4.272   0.577   0.643
 2208TIP3   OH2 6629   4.690   5.358   4.455
 2208TIP3    H1 6630   4.659   5.269   4.436
 2208TIP3    H2 6631   4.719   5.354   4.546
 2209TIP3   OH2 6632   0.594   5.225   4.306
 2209TIP3    H1 6633   0.580   5.269   4.390
 2209TIP3    H2 6634   0.654   5.284   4.259
 2210TIP3   OH2 6635   4.362   2.999   1.501
 2210TIP3    H1 6636   4.421   2.931   1.469
 2210TIP3    H2 6637   4.275   2.972   1.469
 2211TIP3   OH2 6638   4.699   2.061   2.863
 2211TIP3    H1 6639   4.777   2.102   2.900
 2211TIP3    H2 6640   4.720   2.050   2.770
 2212TIP3   OH2 6641   0.897   1.151   3.101
 2212TIP3    H1 6642   0.912   1.112   3.015
 2212TIP3    H2 6643   0.803   1.140   3.116
 2213TIP3   OH2 6644   5.395   5.752   0.188
 2213TIP3    H1 6645   5.374   5.721   0.276
 2213TIP3    H2 6646   5.479   5.711   0.167
 2214TIP3   OH2 6647   2.305   2.699   3.176
 2214TIP3    H1 6648   2.320   2.717   3.083
 2214TIP3    H2 6649   2.289   2.785   3.215
 2215TIP3   OH2 6650   1.497   3.231   0.457
 2215TIP3    H1 6651   1.434   3.300   0.434
 2215TIP3    H2 6652   1.539   3.263   0.537
 2216TIP3   OH2 6653   1.634   4.146   0.630
 2216TIP3    H1 6654   1.659   4.193   0.710
 2216TIP3    H2 6655   1.587   4.069   0.662
 2217TIP3   OH2 6656   2.439   3.274   2.592
 2217TIP3    H1 6657   2.452   3.191   2.547
 2217TIP3    H2 6658   2.527   3.311   2.599
 2218TIP3   OH2 6659   2.789   1.089   3.221
 2218TIP3    H1 6660   2.788   1.059   3.312
 2218TIP3    H2 6661   2.830   1.176   3.225
 2219TIP3   OH2 6662   1.743   4.473   0.174
 2219TIP3    H1 6663   1.772   4.430   0.255
 2219TIP3    H2 6664   1.737   4.566   0.197
 2220TIP3   OH2 6665   3.233   1.827   4.857
 2220TIP3    H1 6666   3.302   1.806   4.919
 2220TIP3    H2 6667   3.165   1.761   4.872
 2221TIP3   OH2 6668   1.709   3.093   2.506
 2221TIP3    H1 6669   1.785   3.102   2.449
 2221TIP3    H2 6670   1.648   3.039   2.457
 2222TIP3   OH2 6671   1.344   3.218   0.919
 2222TIP3    H1 6672   1.330   3.212   1.013
 2222TIP3    H2 6673   1.257   3.202   0.881
 2223TIP3   OH2 6674   2.338   4.823   2.158
 2223TIP3    H1 6675   2.284   4.870   2.221
 2223TIP3    H2 6676   2.310   4.731   2.166
 2224TIP3   OH2 6677   4.692   3.488   3.556
 2224TIP3    H1 6678   4.673   3.539   3.477
 2224TIP3    H2 6679   4.609   3.485   3.603
 2225TIP3   OH2 6680   4.776   4.120   0.672
 2225TIP3    H1 6681   4.732   4.194   0.714
 2225TIP3    H2 6682   4.775   4.050   0.738
 2226TIP3   OH2 6683   2.592   1.717   4.698
 2226TIP3    H1 6684   2.539   1.683   4.625
 2226TIP3    H2 6685   2.541   1.790   4.733
 2227TIP3   OH2 6686   2.992   2.056   4.528
 2227TIP3    H1 6687   2.989   2.078   4.435
 2227TIP3    H2 6688   3.031   1.969   4.531
 2228TIP3   OH2 6689   2.435   3.770   3.072
 2228TIP3    H1 6690   2.391   3.840   3.119
 2228TIP3    H2 6691   2.388   3.762   2.989
 2229TIP3   OH2 6692   3.501   3.356   1.249
 2229TIP3    H1 6693   3.570   3.303   1.289
 2229TIP3    H2 6694   3.534   3.374   1.160
 2230TIP3   OH2 6695   3.164   5.247   2.594
 2230TIP3    H1 6696   3.122   5.281   2.674
 2230TIP3    H2 6697   3.091   5.214   2.541
 2231TIP3   OH2 6698   0.230   0.912   4.922
 2231TIP3    H1 6699   0.146   0.957   4.928
 2231TIP3    H2 6700   0.208   0.824   4.892
 2232TIP3   OH2 6701   4.442   2.840   0.725
 2232TIP3    H1 6702   4.508   2.812   0.662
 2232TIP3    H2 6703   4.492   2.870   0.800
 2233TIP3   OH2 6704   1.564   5.073   4.030
 2233TIP3    H1 6705   1.526   5.098   3.946
 2233TIP3    H2 6706   1.489   5.047   4.083
 2234TIP3   OH2 6707   4.598   3.309   3.866
 2234TIP3    H1 6708   4.524   3.341   3.917
 2234TIP3    H2 6709   4.570   3.317   3.774
 2235TIP3   OH2 6710   0.360   0.830   2.379
 2235TIP3    H1 6711   0.349   0.900   2.443
 2235TIP3    H2 6712   0.447   0.794   2.396
 2236TIP3   OH2 6713   4.429   0.013   1.956
 2236TIP3    H1 6714   4.474   0.097   1.949
 2236TIP3    H2 6715   4.467  -0.041   1.887
 2237TIP3   OH2 6716   3.736   4.323   2.398
 2237TIP3    H1 6717   3.802   4.349   2.335
 2237TIP3    H2 6718   3.653   4.326   2.349
 2238TIP3   OH2 6719   1.545   1.764   1.476
 2238TIP3    H1 6720   1.621   1.739   1.424
 2238TIP3    H2 6721   1.543   1.702   1.548
 2239TIP3   OH2 6722   3.833   2.022   2.411
 2239TIP3    H1 6723   3.823   2.116   2.395
 2239TIP3    H2 6724   3.860   2.016   2.503
 2240TIP3   OH2 6725   3.864   1.169   0.295
 2240TIP3    H1 6726   3.842   1.076   0.299
 2240TIP3    H2 6727   3.781   1.213   0.281
 2241TIP3   OH2 6728   5.299   1.150   1.538
 2241TIP3    H1 6729   5.259   1.144   1.625
 2241TIP3    H2 6730   5.235   1.198   1.486
 2242TIP3   OH2 6731   4.873   1.036   4.840
 2242TIP3    H1 6732   4.882   1.122   4.881
 2242TIP3    H2 6733   4.936   1.038   4.767
 2243TIP3   OH2 6734   1.020   5.388   3.582
 2243TIP3    H1 6735   0.932   5.377   3.619
 2243TIP3    H2 6736   1.011   5.358   3.491
 2244TIP3   OH2 6737   0.366   4.073   4.253
 2244TIP3    H1 6738   0.287   4.081   4.306
 2244TIP3    H2 6739   0.334   4.053   4.165
 2245TIP3   OH2 6740   4.912   2.788   1.304
 2245TIP3    H1 6741   4.886   2.866   1.353
 2245TIP3    H2 6742   4.891   2.715   1.363
 2246TIP3   OH2 6743   5.287   5.280   2.944
 2246TIP3    H1 6744   5.270   5.270   2.851
 2246TIP3    H2 6745   5.210   5.243   2.987
 2247TIP3   OH2 6746   1.223   0.752   0.331
 2247TIP3    H1 6747   1.177   0.836   0.330
 2247TIP3    H2 6748   1.243   0.737   0.423
 2248TIP3   OH2 6749   3.253   4.591   3.110
 2248TIP3    H1 6750   3.315   4.660   3.136
 2248TIP3    H2 6751   3.283   4.565   3.023
 2249TIP3   OH2 6752   1.216   3.752   3.479
 2249TIP3    H1 6753   1.220   3.830   3.424
 2249TIP3    H2 6754   1.236   3.679   3.420
 2250TIP3   OH2 6755   5.319   5.747   1.132
 2250TIP3    H1 6756   5.346   5.837   1.150
 2250TIP3    H2 6757   5.402   5.699   1.122
 2251TIP3   OH2 6758   3.086   5.297   3.523
 2251TIP3    H1 6759   3.087   5.352   3.602
 2251TIP3    H2 6760   3.171   5.313   3.482
 2252TIP3   OH2 6761   4.349   3.587   1.976
 2252TIP3    H1 6762   4.409   3.662   1.980
 2252TIP3    H2 6763   4.281   3.614   1.915
 2253TIP3   OH2 6764   3.906   4.156   2.763
 2253TIP3    H1 6765   3.831   4.106   2.731
 2253TIP3    H2 6766   3.867   4.231   2.807
 2254TIP3   OH2 6767   4.876   4.649   0.902
 2254TIP3    H1 6768   4.808   4.593   0.940
 2254TIP3    H2 6769   4.872   4.729   0.955
 2255TIP3   OH2 6770   4.424   1.979   0.048
 2255TIP3    H1 6771   4.512   2.012   0.029
 2255TIP3    H2 6772   4.415   1.987   0.143
 2256TIP3   OH2 6773   5.535   3.964   2.736
 2256TIP3    H1 6774   5.564   3.991   2.649
 2256TIP3    H2 6775   5.478   3.890   2.721
 2257TIP3   OH2 6776   2.348   0.702   3.223
 2257TIP3    H1 6777   2.312   0.614   3.230
 2257TIP3    H2 6778   2.416   0.706   3.290
 2258TIP3   OH2 6779   6.053   4.543   1.245
 2258TIP3    H1 6780   6.100   4.462   1.225
 2258TIP3    H2 6781   6.060   4.595   1.164
 2259TIP3   OH2 6782   1.852   1.798   3.668
 2259TIP3    H1 6783   1.761   1.815   3.646
 2259TIP3    H2 6784   1.854   1.793   3.764
 2260TIP3   OH2 6785   1.426   4.050   3.191
 2260TIP3    H1 6786   1.386   3.984   3.135
 2260TIP3    H2 6787   1.354   4.106   3.217
 2261TIP3   OH2 6788   3.569   2.422   3.347
 2261TIP3    H1 6789   3.517   2.345   3.368
 2261TIP3    H2 6790   3.658   2.388   3.335
 2262TIP3   OH2 6791   5.084   5.779   3.165
 2262TIP3    H1 6792   5.102   5.687   3.147
 2262TIP3    H2 6793   5.071   5.818   3.078
 2263TIP3   OH2 6794   5.310   0.898   2.110
 2263TIP3    H1 6795   5.324   0.838   2.037
 2263TIP3    H2 6796   5.383   0.880   2.170
 2264TIP3   OH2 6797   4.707   5.300   3.542
 2264TIP3    H1 6798   4.717   5.208   3.517
 2264TIP3    H2 6799   4.613   5.316   3.537
 2265TIP3   OH2 6800   2.750   0.991   0.120
 2265TIP3    H1 6801   2.748   0.952   0.033
 2265TIP3    H2 6802   2.671   0.959   0.163
 2266TIP3   OH2 6803   2.894   5.935   4.234
 2266TIP3    H1 6804   2.933   5.849   4.249
 2266TIP3    H2 6805   2.932   5.964   4.151
 2267TIP3   OH2 6806   1.068   2.610   3.289
 2267TIP3    H1 6807   1.116   2.607   3.372
 2267TIP3    H2 6808   1.067   2.520   3.258
 2268TIP3   OH2 6809   2.084   3.591   3.108
 2268TIP3    H1 6810   2.093   3.647   3.184
 2268TIP3    H2 6811   2.134   3.512   3.130
 2269TIP3   OH2 6812   6.128   0.313   0.486
 2269TIP3    H1 6813   6.211   0.359   0.498
 2269TIP3    H2 6814   6.072   0.378   0.442
 2270TIP3   OH2 6815   5.899   4.099   3.701
 2270TIP3    H1 6816   5.813   4.091   3.660
 2270TIP3    H2 6817   5.960   4.063   3.637
 2271TIP3   OH2 6818   1.146   0.994   2.194
 2271TIP3    H1 6819   1.172   1.069   2.142
 2271TIP3    H2 6820   1.185   1.009   2.280
 2272TIP3   OH2 6821   5.629   3.030   4.882
 2272TIP3    H1 6822   5.598   2.958   4.826
 2272TIP3    H2 6823   5.720   3.041   4.857
 2273TIP3   OH2 6824   2.090   3.641   0.085
 2273TIP3    H1 6825   2.153   3.572   0.064
 2273TIP3    H2 6826   2.060   3.621   0.173
 2274TIP3   OH2 6827   1.826   2.923   0.206
 2274TIP3    H1 6828   1.734   2.930   0.183
 2274TIP3    H2 6829   1.844   2.999   0.261
 2275TIP3   OH2 6830   1.019   1.126   2.827
 2275TIP3    H1 6831   1.046   1.034   2.831
 2275TIP3    H2 6832   1.088   1.173   2.875
 2276TIP3   OH2 6833   2.591   0.503   3.404
 2276TIP3    H1 6834   2.658   0.572   3.402
 2276TIP3    H2 6835   2.551   0.510   3.491
 2277TIP3   OH2 6836   2.232   4.569   0.452
 2277TIP3    H1 6837   2.206   4.492   0.402
 2277TIP3    H2 6838   2.223   4.642   0.391
 2278TIP3   OH2 6839   5.642   5.413   3.329
 2278TIP3    H1 6840   5.553   5.407   3.365
 2278TIP3    H2 6841   5.678   5.325   3.341
 2279TIP3   OH2 6842   5.949   0.594   2.323
 2279TIP3    H1 6843   5.873   0.620   2.270
 2279TIP3    H2 6844   6.022   0.592   2.261
 2280TIP3   OH2 6845   0.984   3.436   4.616
 2280TIP3    H1 6846   1.036   3.355   4.616
 2280TIP3    H2 6847   1.018   3.486   4.542
 2281TIP3   OH2 6848   1.850   3.968   2.990
 2281TIP3    H1 6849   1.862   3.910   2.914
 2281TIP3    H2 6850   1.938   4.000   3.010
 2282TIP3   OH2 6851   1.466   3.534   2.067
 2282TIP3    H1 6852   1.518   3.487   2.132
 2282TIP3    H2 6853   1.423   3.604   2.117
 2283TIP3   OH2 6854   4.047   2.379   0.083
 2283TIP3    H1 6855   4.078   2.307   0.028
 2283TIP3    H2 6856   4.075   2.458   0.037
 2284TIP3   OH2 6857   5.738   1.306   3.919
 2284TIP3    H1 6858   5.829   1.297   3.948
 2284TIP3    H2 6859   5.739   1.383   3.861
 2285TIP3   OH2 6860   3.824   0.083   2.048
 2285TIP3    H1 6861   3.785   0.028   2.116
 2285TIP3    H2 6862   3.898   0.127   2.091
 2286TIP3   OH2 6863   5.508   1.672   4.197
 2286TIP3    H1 6864   5.550   1.688   4.281
 2286TIP3    H2 6865   5.465   1.755   4.176
 2287TIP3   OH2 6866   0.270   3.751   2.235
 2287TIP3    H1 6867   0.239   3.662   2.221
 2287TIP3    H2 6868   0.348   3.759   2.181
 2288TIP3   OH2 6869   3.526   1.652   2.370
 2288TIP3    H1 6870   3.618   1.681   2.372
 2288TIP3    H2 6871   3.506   1.641   2.278
 2289TIP3   OH2 6872   3.489   5.280   1.978
 2289TIP3    H1 6873   3.432   5.298   2.053
 2289TIP3    H2 6874   3.533   5.199   2.001
 2290TIP3   OH2 6875   1.158   1.028   4.805
 2290TIP3    H1 6876   1.236   1.000   4.853
 2290TIP3    H2 6877   1.183   1.113   4.768
 2291TIP3   OH2 6878   4.226   1.589   2.463
 2291TIP3    H1 6879   4.168   1.548   2.399
 2291TIP3    H2 6880   4.180   1.581   2.547
 2292TIP3   OH2 6881   1.544   1.841   1.855
 2292TIP3    H1 6882   1.546   1.859   1.949
 2292TIP3    H2 6883   1.459   1.874   1.826
 2293TIP3   OH2 6884   4.056   1.556   3.591
 2293TIP3    H1 6885   4.074   1.473   3.637
 2293TIP3    H2 6886   3.963   1.571   3.605
 2294TIP3   OH2 6887   2.708   5.552   0.157
 2294TIP3    H1 6888   2.737   5.506   0.078
 2294TIP3    H2 6889   2.698   5.483   0.223
 2295TIP3   OH2 6890   6.169   0.877   4.359
 2295TIP3    H1 6891   6.194   0.835   4.277
 2295TIP3    H2 6892   6.216   0.960   4.359
 2296TIP3   OH2 6893   1.637   2.929   0.618
 2296TIP3    H1 6894   1.560   2.984   0.634
 2296TIP3    H2 6895   1.711   2.983   0.643
 2297TIP3   OH2 6896   3.633   2.603   5.096
 2297TIP3    H1 6897   3.572   2.608   5.021
 2297TIP3    H2 6898   3.714   2.640   5.063
 2298TIP3   OH2 6899   1.355   2.716   2.658
 2298TIP3    H1 6900   1.402   2.799   2.666
 2298TIP3    H2 6901   1.310   2.704   2.741
 2299TIP3   OH2 6902   6.206   0.239   1.133
 2299TIP3    H1 6903   6.225   0.324   1.173
 2299TIP3    H2 6904   6.249   0.176   1.190
 2300TIP3   OH2 6905   4.147   2.502   1.408
 2300TIP3    H1 6906   4.163   2.414   1.375
 2300TIP3    H2 6907   4.208   2.557   1.360
 2301TIP3   OH2 6908   2.009   2.945   2.810
 2301TIP3    H1 6909   2.025   2.878   2.744
 2301TIP3    H2 6910   2.066   3.018   2.784
 2302TIP3   OH2 6911   4.455   3.460   1.739
 2302TIP3    H1 6912   4.460   3.483   1.832
 2302TIP3    H2 6913   4.428   3.369   1.738
 2303TIP3   OH2 6914   5.501   4.135   2.459
 2303TIP3    H1 6915   5.428   4.195   2.453
 2303TIP3    H2 6916   5.502   4.089   2.375
 2304TIP3   OH2 6917   2.346   0.580   4.722
 2304TIP3    H1 6918   2.335   0.562   4.815
 2304TIP3    H2 6919   2.285   0.521   4.678
 2305TIP3   OH2 6920   0.329   5.799   4.710
 2305TIP3    H1 6921   0.242   5.765   4.689
 2305TIP3    H2 6922   0.368   5.732   4.767
 2306TIP3   OH2 6923   5.303   2.884   3.727
 2306TIP3    H1 6924   5.301   2.794   3.758
 2306TIP3    H2 6925   5.359   2.881   3.649
 2307TIP3   OH2 6926   1.216   4.103   2.976
 2307TIP3    H1 6927   1.222   4.162   2.901
 2307TIP3    H2 6928   1.294   4.048   2.969
 2308TIP3   OH2 6929   3.107   0.046   1.976
 2308TIP3    H1 6930   3.090   0.013   1.888
 2308TIP3    H2 6931   3.028   0.026   2.025
 2309TIP3   OH2 6932   3.096   0.064   0.679
 2309TIP3    H1 6933   3.131   0.057   0.768
 2309TIP3    H2 6934   3.163   0.025   0.623
 2310TIP3   OH2 6935   5.523   0.020   4.876
 2310TIP3    H1 6936   5.559   0.105   4.903
 2310TIP3    H2 6937   5.471  -0.008   4.951
 2311TIP3   OH2 6938   0.332   1.914   2.987
 2311TIP3    H1 6939   0.243   1.921   2.952
 2311TIP3    H2 6940   0.379   1.864   2.920
 2312TIP3   OH2 6941   4.507   5.613   3.706
 2312TIP3    H1 6942   4.553   5.567   3.775
 2312TIP3    H2 6943   4.537   5.704   3.713
 2313TIP3   OH2 6944   4.256   2.440   4.384
 2313TIP3    H1 6945   4.200   2.369   4.414
 2313TIP3    H2 6946   4.340   2.398   4.365
 2314TIP3   OH2 6947   1.096   1.822   0.617
 2314TIP3    H1 6948   1.025   1.816   0.681
 2314TIP3    H2 6949   1.176   1.828   0.670
 2315TIP3   OH2 6950   3.310   3.650   2.212
 2315TIP3    H1 6951   3.353   3.692   2.287
 2315TIP3    H2 6952   3.218   3.645   2.238
 2316TIP3   OH2 6953   4.030   4.857   3.781
 2316TIP3    H1 6954   3.955   4.815   3.738
 2316TIP3    H2 6955   3.992   4.917   3.844
 2317TIP3   OH2 6956   1.922   1.648   0.020
 2317TIP3    H1 6957   1.868   1.570   0.010
 2317TIP3    H2 6958   1.999   1.618   0.068
 2318TIP3   OH2 6959   0.924   1.522   4.445
 2318TIP3    H1 6960   0.855   1.469   4.485
 2318TIP3    H2 6961   0.878   1.587   4.393
 2319TIP3   OH2 6962   0.629   4.334   2.736
 2319TIP3    H1 6963   0.605   4.242   2.748
 2319TIP3    H2 6964   0.725   4.335   2.744
 2320TIP3   OH2 6965   1.797   3.414   0.575
 2320TIP3    H1 6966   1.739   3.490   0.584
 2320TIP3    H2 6967   1.870   3.446   0.522
 2321TIP3   OH2 6968   6.202   1.248   3.336
 2321TIP3    H1 6969   6.216   1.188   3.263
 2321TIP3    H2 6970   6.275   1.309   3.332
 2322TIP3   OH2 6971   1.294   1.525   3.195
 2322TIP3    H1 6972   1.337   1.516   3.110
 2322TIP3    H2 6973   1.348   1.588   3.242
 2323TIP3   OH2 6974   4.539   5.393   2.542
 2323TIP3    H1 6975   4.582   5.478   2.529
 2323TIP3    H2 6976   4.447   5.410   2.527
 2324TIP3   OH2 6977   1.498   1.949   2.119
 2324TIP3    H1 6978   1.562   1.890   2.160
 2324TIP3    H2 6979   1.413   1.911   2.139
 2325TIP3   OH2 6980   1.237   3.524   3.291
 2325TIP3    H1 6981   1.211   3.432   3.289
 2325TIP3    H2 6982   1.290   3.536   3.212
 2326TIP3   OH2 6983   0.438   4.387   0.806
 2326TIP3    H1 6984   0.503   4.437   0.854
 2326TIP3    H2 6985   0.410   4.446   0.735
 2327TIP3   OH2 6986   0.573   1.106   2.384
 2327TIP3    H1 6987   0.657   1.143   2.413
 2327TIP3    H2 6988   0.597   1.035   2.325
 2328TIP3   OH2 6989   0.110   0.255   2.564
 2328TIP3    H1 6990   0.027   0.293   2.592
 2328TIP3    H2 6991   0.097   0.160   2.571
 2329TIP3   OH2 6992   0.134   5.282   3.887
 2329TIP3    H1 6993   0.196   5.246   3.823
 2329TIP3    H2 6994   0.056   5.226   3.879
 2330TIP3   OH2 6995   4.635   0.056   3.729
 2330TIP3    H1 6996   4.631   0.148   3.702
 2330TIP3    H2 6997   4.625   0.059   3.824
 2331TIP3   OH2 6998   2.997   1.274   4.556
 2331TIP3    H1 6999   3.003   1.302   4.648
 2331TIP3    H2 7000   2.905   1.284   4.534
 2332TIP3   OH2 7001   1.231   2.695   2.918
 2332TIP3    H1 7002   1.322   2.674   2.938
 2332TIP3    H2 7003   1.181   2.622   2.955
 2333TIP3   OH2 7004   5.881   1.277   2.587
 2333TIP3    H1 7005   5.976   1.281   2.579
 2333TIP3    H2 7006   5.849   1.315   2.505
 2334TIP3   OH2 7007   5.781   2.740   1.932
 2334TIP3    H1 7008   5.743   2.706   1.851
 2334TIP3    H2 7009   5.726   2.815   1.955
 2335TIP3   OH2 7010   5.764   0.205   0.595
 2335TIP3    H1 7011   5.768   0.130   0.655
 2335TIP3    H2 7012   5.691   0.184   0.536
 2336TIP3   OH2 7013   5.846   4.116   1.459
 2336TIP3    H1 7014   5.774   4.063   1.492
 2336TIP3    H2 7015   5.898   4.136   1.537
 2337TIP3   OH2 7016   4.520   3.194   0.133
 2337TIP3    H1 7017   4.539   3.278   0.174
 2337TIP3    H2 7018   4.428   3.200   0.107
 2338TIP3   OH2 7019   1.195   2.978   3.776
 2338TIP3    H1 7020   1.278   3.007   3.739
 2338TIP3    H2 7021   1.216   2.898   3.823
 2339TIP3   OH2 7022   4.470   4.327   0.644
 2339TIP3    H1 7023   4.483   4.255   0.582
 2339TIP3    H2 7024   4.464   4.285   0.730
 2340TIP3   OH2 7025   2.846   0.117   0.614
 2340TIP3    H1 7026   2.941   0.107   0.607
 2340TIP3    H2 7027   2.830   0.132   0.707
 2341TIP3   OH2 7028   0.239   3.375   1.911
 2341TIP3    H1 7029   0.211   3.314   1.842
 2341TIP3    H2 7030   0.207   3.460   1.882
 2342TIP3   OH2 7031   0.127   2.133   1.400
 2342TIP3    H1 7032   0.105   2.183   1.321
 2342TIP3    H2 7033   0.163   2.198   1.460
 2343TIP3   OH2 7034   1.866   2.274   2.273
 2343TIP3    H1 7035   1.789   2.321   2.305
 2343TIP3    H2 7036   1.873   2.300   2.181
 2344TIP3   OH2 7037   6.163   5.618   0.882
 2344TIP3    H1 7038   6.191   5.622   0.791
 2344TIP3    H2 7039   6.080   5.570   0.879
 2345TIP3   OH2 7040   5.993   5.003   0.996
 2345TIP3    H1 7041   5.936   4.957   1.058
 2345TIP3    H2 7042   6.039   4.933   0.950
 2346TIP3   OH2 7043   4.339   2.581   0.658
 2346TIP3    H1 7044   4.369   2.672   0.666
 2346TIP3    H2 7045   4.265   2.586   0.598
 2347TIP3   OH2 7046   3.863   0.308   4.115
 2347TIP3    H1 7047   3.858   0.312   4.020
 2347TIP3    H2 7048   3.872   0.215   4.136
 2348TIP3   OH2 7049   3.455   5.919   0.185
 2348TIP3    H1 7050   3.479   5.881   0.270
 2348TIP3    H2 7051   3.512   5.996   0.177
 2349TIP3   OH2 7052   5.218   2.539   1.429
 2349TIP3    H1 7053   5.225   2.485   1.350
 2349TIP3    H2 7054   5.286   2.504   1.487
 2350TIP3   OH2 7055   3.144   4.871   4.339
 2350TIP3    H1 7056   3.050   4.871   4.356
 2350TIP3    H2 7057   3.157   4.944   4.278
 2351TIP3   OH2 7058   3.524   5.932   1.938
 2351TIP3    H1 7059   3.438   5.961   1.969
 2351TIP3    H2 7060   3.554   6.002   1.880
 2352TIP3   OH2 7061   4.011   0.373   1.065
 2352TIP3    H1 7062   4.020   0.283   1.096
 2352TIP3    H2 7063   4.096   0.395   1.027
 2353TIP3   OH2 7064   0.911   4.538   3.164
 2353TIP3    H1 7065   0.957   4.575   3.089
 2353TIP3    H2 7066   0.962   4.462   3.189
 2354TIP3   OH2 7067   1.577   4.948   0.898
 2354TIP3    H1 7068   1.507   4.999   0.939
 2354TIP3    H2 7069   1.657   4.990   0.927
 2355TIP3   OH2 7070   1.106   2.186   0.187
 2355TIP3    H1 7071   1.012   2.179   0.206
 2355TIP3    H2 7072   1.147   2.191   0.273
 2356TIP3   OH2 7073   1.090   3.096   5.074
 2356TIP3    H1 7074   1.063   3.171   5.126
 2356TIP3    H2 7075   1.029   3.094   5.000
 2357TIP3   OH2 7076   1.911   4.133   4.227
 2357TIP3    H1 7077   1.831   4.131   4.279
 2357TIP3    H2 7078   1.970   4.072   4.272
 2358TIP3   OH2 7079   3.692   4.532   3.235
 2358TIP3    H1 7080   3.666   4.440   3.235
 2358TIP3    H2 7081   3.675   4.562   3.146
 2359TIP3   OH2 7082   0.072   1.931   2.974
 2359TIP3    H1 7083   0.099   1.998   3.037
 2359TIP3    H2 7084  -0.022   1.921   2.988
 2360TIP3   OH2 7085   5.564   3.896   3.912
 2360TIP3    H1 7086   5.502   3.957   3.872
 2360TIP3    H2 7087   5.510   3.823   3.944
 2361TIP3   OH2 7088   1.454   2.928   1.078
 2361TIP3    H1 7089   1.358   2.926   1.069
 2361TIP3    H2 7090   1.471   3.007   1.128
 2362TIP3   OH2 7091   2.163   1.590   1.711
 2362TIP3    H1 7092   2.144   1.684   1.721
 2362TIP3    H2 7093   2.162   1.556   1.800
 2363TIP3   OH2 7094   0.989   3.029   2.031
 2363TIP3    H1 7095   0.988   2.936   2.052
 2363TIP3    H2 7096   1.066   3.063   2.076
 2364TIP3   OH2 7097   4.680   1.671   1.726
 2364TIP3    H1 7098   4.757   1.618   1.748
 2364TIP3    H2 7099   4.625   1.667   1.805
 2365TIP3   OH2 7100   0.453   2.342   2.164
 2365TIP3    H1 7101   0.482   2.360   2.254
 2365TIP3    H2 7102   0.530   2.358   2.110
 2366TIP3   OH2 7103   0.591   3.030   2.560
 2366TIP3    H1 7104   0.574   3.010   2.468
 2366TIP3    H2 7105   0.516   3.083   2.587
 2367TIP3   OH2 7106   1.974   4.098   0.163
 2367TIP3    H1 7107   1.906   4.120   0.226
 2367TIP3    H2 7108   2.042   4.054   0.215
 2368TIP3   OH2 7109   0.409   4.646   1.756
 2368TIP3    H1 7110   0.357   4.594   1.817
 2368TIP3    H2 7111   0.385   4.736   1.774
 2369TIP3   OH2 7112   6.160   3.889   2.246
 2369TIP3    H1 7113   6.068   3.863   2.235
 2369TIP3    H2 7114   6.175   3.953   2.176
 2370TIP3   OH2 7115   2.821   3.115   2.665
 2370TIP3    H1 7116   2.729   3.095   2.683
 2370TIP3    H2 7117   2.820   3.159   2.580
 2371TIP3   OH2 7118   4.621   1.006   1.421
 2371TIP3    H1 7119   4.548   0.948   1.399
 2371TIP3    H2 7120   4.612   1.021   1.515
 2372TIP3   OH2 7121   1.670   2.777   3.169
 2372TIP3    H1 7122   1.763   2.789   3.187
 2372TIP3    H2 7123   1.625   2.825   3.238
 2373TIP3   OH2 7124   6.274   0.694   1.479
 2373TIP3    H1 7125   6.254   0.733   1.394
 2373TIP3    H2 7126   6.201   0.720   1.535
 2374TIP3   OH2 7127   0.337   4.868   3.087
 2374TIP3    H1 7128   0.330   4.796   3.025
 2374TIP3    H2 7129   0.402   4.927   3.049
 2375TIP3   OH2 7130   3.970   2.296   3.484
 2375TIP3    H1 7131   3.997   2.360   3.550
 2375TIP3    H2 7132   3.938   2.221   3.534
 2376TIP3   OH2 7133   2.178   3.055   4.938
 2376TIP3    H1 7134   2.089   3.056   4.903
 2376TIP3    H2 7135   2.198   2.962   4.952
 2377TIP3   OH2 7136   1.116   5.968   3.015
 2377TIP3    H1 7137   1.068   5.904   3.068
 2377TIP3    H2 7138   1.110   6.050   3.065
 2378TIP3   OH2 7139   4.332   0.277   2.160
 2378TIP3    H1 7140   4.238   0.262   2.151
 2378TIP3    H2 7141   4.372   0.218   2.095
 2379TIP3   OH2 7142   3.671   2.848   1.410
 2379TIP3    H1 7143   3.634   2.838   1.498
 2379TIP3    H2 7144   3.751   2.795   1.412
 2380TIP3   OH2 7145   4.283   4.225   3.378
 2380TIP3    H1 7146   4.189   4.238   3.387
 2380TIP3    H2 7147   4.317   4.231   3.468
 2381TIP3   OH2 7148   3.117   4.659   3.367
 2381TIP3    H1 7149   3.136   4.753   3.376
 2381TIP3    H2 7150   3.191   4.616   3.411
 2382TIP3   OH2 7151   6.325   3.317   2.699
 2382TIP3    H1 7152   6.269   3.305   2.776
 2382TIP3    H2 7153   6.404   3.359   2.733
 2383TIP3   OH2 7154   0.893   3.560   1.070
 2383TIP3    H1 7155   0.861   3.485   1.019
 2383TIP3    H2 7156   0.960   3.599   1.015
 2384TIP3   OH2 7157   1.207   1.995   5.165
 2384TIP3    H1 7158   1.285   1.940   5.169
 2384TIP3    H2 7159   1.234   2.078   5.204
 2385TIP3   OH2 7160   0.571   5.053   3.640
 2385TIP3    H1 7161   0.518   5.123   3.602
 2385TIP3    H2 7162   0.661   5.074   3.613
 2386TIP3   OH2 7163   2.034   0.577   4.786
 2386TIP3    H1 7164   2.036   0.484   4.812
 2386TIP3    H2 7165   2.074   0.623   4.859
 2387TIP3   OH2 7166   3.488   1.882   2.112
 2387TIP3    H1 7167   3.571   1.909   2.073
 2387TIP3    H2 7168   3.498   1.902   2.205
 2388TIP3   OH2 7169   5.476   4.500   4.873
 2388TIP3    H1 7170   5.412   4.554   4.919
 2388TIP3    H2 7171   5.427   4.462   4.800
 2389TIP3   OH2 7172   5.218   0.425   3.384
 2389TIP3    H1 7173   5.312   0.413   3.368
 2389TIP3    H2 7174   5.194   0.499   3.329
 2390TIP3   OH2 7175   4.285   5.989   2.619
 2390TIP3    H1 7176   4.370   5.975   2.660
 2390TIP3    H2 7177   4.240   5.905   2.626
 2391TIP3   OH2 7178   2.991   2.177   3.530
 2391TIP3    H1 7179   3.055   2.222   3.475
 2391TIP3    H2 7180   2.923   2.243   3.544
 2392TIP3   OH2 7181   5.496   1.066   3.558
 2392TIP3    H1 7182   5.466   0.983   3.596
 2392TIP3    H2 7183   5.559   1.100   3.621
 2393TIP3   OH2 7184   3.267   3.271   4.445
 2393TIP3    H1 7185   3.325   3.286   4.519
 2393TIP3    H2 7186   3.236   3.181   4.456
 2394TIP3   OH2 7187   3.156   3.878   1.212
 2394TIP3    H1 7188   3.109   3.804   1.250
 2394TIP3    H2 7189   3.240   3.878   1.258
 2395TIP3   OH2 7190   0.274   2.941   2.868
 2395TIP3    H1 7191   0.262   2.938   2.963
 2395TIP3    H2 7192   0.317   3.024   2.852
 2396TIP3   OH2 7193   1.681   3.087   3.182
 2396TIP3    H1 7194   1.650   3.109   3.095
 2396TIP3    H2 7195   1.673   3.168   3.232
 2397TIP3   OH2 7196   3.368   3.309   5.022
 2397TIP3    H1 7197   3.377   3.383   4.962
 2397TIP3    H2 7198   3.360   3.232   4.965
 2398TIP3   OH2 7199   1.223   4.422   1.283
 2398TIP3    H1 7200   1.255   4.433   1.372
 2398TIP3    H2 7201   1.302   4.413   1.230
 2399TIP3   OH2 7202   0.507   2.826   1.343
 2399TIP3    H1 7203   0.472   2.790   1.425
 2399TIP3    H2 7204   0.587   2.774   1.327
 2400TIP3   OH2 7205   4.773   0.664   0.422
 2400TIP3    H1 7206   4.686   0.643   0.388
 2400TIP3    H2 7207   4.815   0.715   0.353
 2401TIP3   OH2 7208   4.653   4.986   2.031
 2401TIP3    H1 7209   4.708   5.055   2.068
 2401TIP3    H2 7210   4.674   4.986   1.937
 2402TIP3   OH2 7211   0.820   1.046   0.589
 2402TIP3    H1 7212   0.889   1.103   0.555
 2402TIP3    H2 7213   0.859   1.004   0.666
 2403TIP3   OH2 7214   3.392   1.084   0.906
 2403TIP3    H1 7215   3.374   1.170   0.868
 2403TIP3    H2 7216   3.308   1.040   0.906
 2404TIP3   OH2 7217   1.067   0.851   3.229
 2404TIP3    H1 7218   1.158   0.873   3.207
 2404TIP3    H2 7219   1.021   0.851   3.145
 2405TIP3   OH2 7220   0.074   2.489   2.773
 2405TIP3    H1 7221   0.018   2.566   2.783
 2405TIP3    H2 7222   0.022   2.427   2.722
 2406TIP3   OH2 7223   4.066   0.482   2.430
 2406TIP3    H1 7224   4.092   0.565   2.468
 2406TIP3    H2 7225   3.975   0.495   2.403
 2407TIP3   OH2 7226   4.356   0.819   5.032
 2407TIP3    H1 7227   4.431   0.856   5.078
 2407TIP3    H2 7228   4.279   0.856   5.077
 2408TIP3   OH2 7229   5.290   0.490   1.445
 2408TIP3    H1 7230   5.200   0.491   1.477
 2408TIP3    H2 7231   5.286   0.534   1.361
 2409TIP3   OH2 7232   2.721   0.981   2.663
 2409TIP3    H1 7233   2.772   0.901   2.679
 2409TIP3    H2 7234   2.682   0.967   2.577
 2410TIP3   OH2 7235   2.889   1.373   1.443
 2410TIP3    H1 7236   2.834   1.424   1.503
 2410TIP3    H2 7237   2.828   1.336   1.379
 2411TIP3   OH2 7238   0.238   1.149   1.259
 2411TIP3    H1 7239   0.280   1.150   1.173
 2411TIP3    H2 7240   0.161   1.093   1.247
 2412TIP3   OH2 7241   1.475   2.042   1.246
 2412TIP3    H1 7242   1.471   2.102   1.172
 2412TIP3    H2 7243   1.538   2.081   1.306
 2413TIP3   OH2 7244   5.659   4.854   4.905
 2413TIP3    H1 7245   5.721   4.899   4.962
 2413TIP3    H2 7246   5.706   4.776   4.875
 2414TIP3   OH2 7247   5.316   5.216   4.607
 2414TIP3    H1 7248   5.286   5.142   4.660
 2414TIP3    H2 7249   5.328   5.179   4.520
 2415TIP3   OH2 7250   4.637   4.334   2.604
 2415TIP3    H1 7251   4.620   4.379   2.686
 2415TIP3    H2 7252   4.565   4.271   2.595
 2416TIP3   OH2 7253   0.672   3.735   1.454
 2416TIP3    H1 7254   0.623   3.661   1.490
 2416TIP3    H2 7255   0.660   3.729   1.359
 2417TIP3   OH2 7256   5.597   5.206   0.161
 2417TIP3    H1 7257   5.663   5.146   0.195
 2417TIP3    H2 7258   5.645   5.264   0.102
 2418TIP3   OH2 7259   3.916   0.144   4.881
 2418TIP3    H1 7260   3.823   0.134   4.858
 2418TIP3    H2 7261   3.958   0.068   4.841
 2419TIP3   OH2 7262   2.132   5.737   3.664
 2419TIP3    H1 7263   2.117   5.808   3.601
 2419TIP3    H2 7264   2.135   5.782   3.749
 2420TIP3   OH2 7265   4.028   0.983   3.936
 2420TIP3    H1 7266   4.101   0.948   3.885
 2420TIP3    H2 7267   3.978   1.036   3.874
 2421TIP3   OH2 7268   0.016   2.977   1.240
 2421TIP3    H1 7269   0.058   3.035   1.303
 2421TIP3    H2 7270   0.086   2.920   1.209
 2422TIP3   OH2 7271   5.113   4.607   3.426
 2422TIP3    H1 7272   5.070   4.593   3.342
 2422TIP3    H2 7273   5.060   4.558   3.488
 2423TIP3   OH2 7274   1.089   5.316   3.318
 2423TIP3    H1 7275   1.158   5.380   3.306
 2423TIP3    H2 7276   1.124   5.235   3.281
 2424TIP3   OH2 7277   5.621   4.245   3.421
 2424TIP3    H1 7278   5.644   4.173   3.481
 2424TIP3    H2 7279   5.580   4.201   3.346
 2425TIP3   OH2 7280   1.487   0.187   4.148
 2425TIP3    H1 7281   1.530   0.198   4.063
 2425TIP3    H2 7282   1.412   0.246   4.145
 2426TIP3   OH2 7283   1.406   0.360   1.641
 2426TIP3    H1 7284   1.432   0.290   1.581
 2426TIP3    H2 7285   1.456   0.436   1.611
 2427TIP3   OH2 7286   2.894   3.177   4.914
 2427TIP3    H1 7287   2.799   3.168   4.903
 2427TIP3    H2 7288   2.915   3.117   4.986
 2428TIP3   OH2 7289   0.797   3.911   3.041
 2428TIP3    H1 7290   0.806   3.992   3.092
 2428TIP3    H2 7291   0.780   3.843   3.107
 2429TIP3   OH2 7292   4.385   1.171   2.444
 2429TIP3    H1 7293   4.374   1.257   2.485
 2429TIP3    H2 7294   4.401   1.191   2.351
 2430TIP3   OH2 7295   3.497   3.264   2.113
 2430TIP3    H1 7296   3.434   3.307   2.171
 2430TIP3    H2 7297   3.581   3.274   2.158
 2431TIP3   OH2 7298   4.101   1.620   4.357
 2431TIP3    H1 7299   4.053   1.539   4.339
 2431TIP3    H2 7300   4.193   1.595   4.354
 2432TIP3   OH2 7301   4.462   3.072   2.367
 2432TIP3    H1 7302   4.431   3.039   2.283
 2432TIP3    H2 7303   4.527   3.008   2.396
 2433TIP3   OH2 7304   3.836   5.061   4.426
 2433TIP3    H1 7305   3.876   5.043   4.341
 2433TIP3    H2 7306   3.905   5.043   4.489
 2434TIP3   OH2 7307   2.046   2.435   3.395
 2434TIP3    H1 7308   2.067   2.361   3.452
 2434TIP3    H2 7309   2.064   2.512   3.449
 2435TIP3   OH2 7310   5.024   2.928   2.639
 2435TIP3    H1 7311   4.944   2.916   2.691
 2435TIP3    H2 7312   5.035   3.023   2.633
 2436TIP3   OH2 7313   3.717   5.762   3.852
 2436TIP3    H1 7314   3.698   5.823   3.781
 2436TIP3    H2 7315   3.806   5.731   3.834
 2437TIP3   OH2 7316   6.352   5.522   3.593
 2437TIP3    H1 7317   6.319   5.578   3.524
 2437TIP3    H2 7318   6.311   5.437   3.577
 2438TIP3   OH2 7319   2.913   0.435   3.994
 2438TIP3    H1 7320   2.986   0.405   4.048
 2438TIP3    H2 7321   2.943   0.517   3.957
 2439TIP3   OH2 7322   3.403   3.265   3.311
 2439TIP3    H1 7323   3.391   3.198   3.377
 2439TIP3    H2 7324   3.317   3.307   3.304
 2440TIP3   OH2 7325   2.819   4.775   2.263
 2440TIP3    H1 7326   2.807   4.745   2.173
 2440TIP3    H2 7327   2.851   4.699   2.311
 2441TIP3   OH2 7328   0.695   2.998   1.174
 2441TIP3    H1 7329   0.605   3.015   1.148
 2441TIP3    H2 7330   0.721   2.921   1.123
 2442TIP3   OH2 7331   4.082   3.074   4.033
 2442TIP3    H1 7332   4.108   3.048   4.121
 2442TIP3    H2 7333   3.992   3.042   4.025
 2443TIP3   OH2 7334   4.171   4.181   4.730
 2443TIP3    H1 7335   4.244   4.121   4.717
 2443TIP3    H2 7336   4.199   4.238   4.802
 2444TIP3   OH2 7337   3.467   3.051   4.129
 2444TIP3    H1 7338   3.489   3.081   4.041
 2444TIP3    H2 7339   3.543   3.075   4.183
 2445TIP3   OH2 7340   5.890   3.423   3.981
 2445TIP3    H1 7341   5.974   3.384   3.956
 2445TIP3    H2 7342   5.911   3.515   3.998
 2446TIP3   OH2 7343   1.551   1.972   2.861
 2446TIP3    H1 7344   1.469   1.960   2.813
 2446TIP3    H2 7345   1.615   1.995   2.793
 2447TIP3   OH2 7346   2.537   5.551   2.786
 2447TIP3    H1 7347   2.625   5.515   2.781
 2447TIP3    H2 7348   2.549   5.646   2.785
 2448TIP3   OH2 7349   0.891   4.112   3.413
 2448TIP3    H1 7350   0.903   4.173   3.486
 2448TIP3    H2 7351   0.845   4.037   3.451
 2449TIP3   OH2 7352   5.520   4.190   3.185
 2449TIP3    H1 7353   5.610   4.195   3.151
 2449TIP3    H2 7354   5.472   4.142   3.119
 2450TIP3   OH2 7355   2.867   0.979   1.762
 2450TIP3    H1 7356   2.926   0.989   1.687
 2450TIP3    H2 7357   2.909   1.028   1.832
 2451TIP3   OH2 7358   4.686   1.300   2.586
 2451TIP3    H1 7359   4.651   1.346   2.510
 2451TIP3    H2 7360   4.755   1.243   2.551
 2452TIP3   OH2 7361   3.885   1.904   0.663
 2452TIP3    H1 7362   3.903   1.866   0.749
 2452TIP3    H2 7363   3.939   1.853   0.602
 2453TIP3   OH2 7364   0.467   1.737   2.277
 2453TIP3    H1 7365   0.417   1.672   2.226
 2453TIP3    H2 7366   0.481   1.809   2.216
 2454TIP3   OH2 7367   4.823   1.548   2.115
 2454TIP3    H1 7368   4.905   1.575   2.073
 2454TIP3    H2 7369   4.783   1.630   2.144
 2455TIP3   OH2 7370   1.195   2.025   0.928
 2455TIP3    H1 7371   1.245   2.082   0.987
 2455TIP3    H2 7372   1.258   1.957   0.902
 2456TIP3   OH2 7373   2.557   4.417   2.889
 2456TIP3    H1 7374   2.486   4.472   2.921
 2456TIP3    H2 7375   2.609   4.474   2.832
 2457TIP3   OH2 7376   0.385   1.351   1.399
 2457TIP3    H1 7377   0.309   1.304   1.363
 2457TIP3    H2 7378   0.438   1.373   1.322
 2458TIP3   OH2 7379   4.493   0.216   4.742
 2458TIP3    H1 7380   4.490   0.235   4.648
 2458TIP3    H2 7381   4.584   0.192   4.758
 2459TIP3   OH2 7382   0.060   2.958   0.173
 2459TIP3    H1 7383   0.005   3.034   0.187
 2459TIP3    H2 7384   0.127   2.963   0.241
 2460TIP3   OH2 7385   5.889   1.999   5.093
 2460TIP3    H1 7386   5.916   1.925   5.148
 2460TIP3    H2 7387   5.866   2.068   5.156
 2461TIP3   OH2 7388   0.164   3.770   0.858
 2461TIP3    H1 7389   0.176   3.766   0.953
 2461TIP3    H2 7390   0.070   3.784   0.846
 2462TIP3   OH2 7391   4.328   2.782   3.866
 2462TIP3    H1 7392   4.274   2.719   3.915
 2462TIP3    H2 7393   4.402   2.730   3.835
 2463TIP3   OH2 7394   4.836   2.295   2.431
 2463TIP3    H1 7395   4.831   2.380   2.474
 2463TIP3    H2 7396   4.883   2.312   2.349
 2464TIP3   OH2 7397   2.103   0.610   1.748
 2464TIP3    H1 7398   2.035   0.542   1.748
 2464TIP3    H2 7399   2.146   0.600   1.663
 2465TIP3   OH2 7400   4.790   0.520   2.520
 2465TIP3    H1 7401   4.825   0.448   2.468
 2465TIP3    H2 7402   4.695   0.513   2.511
 2466TIP3   OH2 7403   2.081   2.819   1.475
 2466TIP3    H1 7404   2.125   2.745   1.516
 2466TIP3    H2 7405   1.988   2.803   1.488
 2467TIP3   OH2 7406   1.119   2.161   3.842
 2467TIP3    H1 7407   1.163   2.076   3.833
 2467TIP3    H2 7408   1.030   2.147   3.810
 2468TIP3   OH2 7409   1.372   0.762   2.274
 2468TIP3    H1 7410   1.451   0.745   2.326
 2468TIP3    H2 7411   1.329   0.834   2.320
 2469TIP3   OH2 7412   3.475   5.135   1.225
 2469TIP3    H1 7413   3.434   5.051   1.244
 2469TIP3    H2 7414   3.435   5.164   1.143
 2470TIP3   OH2 7415   3.209   5.962   3.638
 2470TIP3    H1 7416   3.219   5.877   3.596
 2470TIP3    H2 7417   3.297   5.983   3.669
 2471TIP3   OH2 7418   0.021   1.736   2.329
 2471TIP3    H1 7419   0.030   1.705   2.239
 2471TIP3    H2 7420   0.047   1.829   2.325
 2472TIP3   OH2 7421   1.383   5.088   4.645
 2472TIP3    H1 7422   1.421   5.170   4.613
 2472TIP3    H2 7423   1.435   5.019   4.603
 2473TIP3   OH2 7424   3.928   3.762   4.441
 2473TIP3    H1 7425   3.939   3.775   4.346
 2473TIP3    H2 7426   3.989   3.824   4.481
 2474TIP3   OH2 7427   4.197   5.588   0.561
 2474TIP3    H1 7428   4.137   5.662   0.558
 2474TIP3    H2 7429   4.270   5.613   0.505
 2475TIP3   OH2 7430   5.795   2.491   4.559
 2475TIP3    H1 7431   5.727   2.557   4.547
 2475TIP3    H2 7432   5.788   2.466   4.652
 2476TIP3   OH2 7433   0.454   4.260   4.851
 2476TIP3    H1 7434   0.367   4.276   4.888
 2476TIP3    H2 7435   0.501   4.342   4.866
 2477TIP3   OH2 7436   4.361   1.962   0.344
 2477TIP3    H1 7437   4.269   1.935   0.349
 2477TIP3    H2 7438   4.394   1.948   0.432
 2478TIP3   OH2 7439   0.196   2.157   4.768
 2478TIP3    H1 7440   0.122   2.200   4.811
 2478TIP3    H2 7441   0.196   2.068   4.804
 2479TIP3   OH2 7442   5.375   0.267   2.751
 2479TIP3    H1 7443   5.428   0.297   2.678
 2479TIP3    H2 7444   5.305   0.216   2.710
 2480TIP3   OH2 7445   4.710   5.452   0.875
 2480TIP3    H1 7446   4.630   5.498   0.850
 2480TIP3    H2 7447   4.763   5.452   0.795
 2481TIP3   OH2 7448   5.375   2.149   4.692
 2481TIP3    H1 7449   5.345   2.107   4.772
 2481TIP3    H2 7450   5.302   2.206   4.666
 2482TIP3   OH2 7451   3.123   5.427   0.375
 2482TIP3    H1 7452   3.138   5.387   0.460
 2482TIP3    H2 7453   3.098   5.353   0.318
 2483TIP3   OH2 7454   5.892   4.816   2.545
 2483TIP3    H1 7455   5.852   4.787   2.463
 2483TIP3    H2 7456   5.851   4.761   2.612
 2484TIP3   OH2 7457   5.457   2.175   2.898
 2484TIP3    H1 7458   5.405   2.249   2.868
 2484TIP3    H2 7459   5.407   2.138   2.971
 2485TIP3   OH2 7460   6.053   2.049   0.707
 2485TIP3    H1 7461   5.963   2.055   0.674
 2485TIP3    H2 7462   6.107   2.056   0.628
 2486TIP3   OH2 7463   0.063   1.688   0.467
 2486TIP3    H1 7464   0.072   1.594   0.455
 2486TIP3    H2 7465   0.045   1.699   0.560
 2487TIP3   OH2 7466   0.215   1.896   2.668
 2487TIP3    H1 7467   0.297   1.906   2.621
 2487TIP3    H2 7468   0.207   1.802   2.683
 2488TIP3   OH2 7469   6.137   4.538   3.299
 2488TIP3    H1 7470   6.050   4.523   3.262
 2488TIP3    H2 7471   6.123   4.532   3.394
 2489TIP3   OH2 7472   3.811   2.177   0.719
 2489TIP3    H1 7473   3.795   2.088   0.686
 2489TIP3    H2 7474   3.893   2.170   0.767
 2490TIP3   OH2 7475   1.335   5.340   3.548
 2490TIP3    H1 7476   1.296   5.397   3.481
 2490TIP3    H2 7477   1.261   5.297   3.590
 2491TIP3   OH2 7478   2.857   2.967   3.984
 2491TIP3    H1 7479   2.949   2.956   4.006
 2491TIP3    H2 7480   2.857   3.019   3.904
 2492TIP3   OH2 7481   2.167   4.836   3.837
 2492TIP3    H1 7482   2.189   4.810   3.748
 2492TIP3    H2 7483   2.122   4.759   3.874
 2493TIP3   OH2 7484   2.728   2.438   1.203
 2493TIP3    H1 7485   2.785   2.365   1.228
 2493TIP3    H2 7486   2.787   2.502   1.164
 2494TIP3   OH2 7487   1.580   4.073   1.594
 2494TIP3    H1 7488   1.600   4.047   1.504
 2494TIP3    H2 7489   1.665   4.075   1.637
 2495TIP3   OH2 7490   2.434   2.982   4.532
 2495TIP3    H1 7491   2.444   3.030   4.614
 2495TIP3    H2 7492   2.359   2.924   4.548
 2496TIP3   OH2 7493   3.394   5.510   2.193
 2496TIP3    H1 7494   3.337   5.587   2.194
 2496TIP3    H2 7495   3.472   5.538   2.144
 2497TIP3   OH2 7496   5.570   1.613   2.347
 2497TIP3    H1 7497   5.507   1.649   2.409
 2497TIP3    H2 7498   5.655   1.628   2.388
 2498TIP3   OH2 7499   2.386   2.480   1.411
 2498TIP3    H1 7500   2.304   2.500   1.456
 2498TIP3    H2 7501   2.367   2.401   1.361
 2499TIP3   OH2 7502   5.414   1.822   0.003
 2499TIP3    H1 7503   5.507   1.800  -0.008
 2499TIP3    H2 7504   5.387   1.777   0.083
 2500TIP3   OH2 7505   2.743   1.121   1.059
 2500TIP3    H1 7506   2.662   1.115   1.009
 2500TIP3    H2 7507   2.811   1.138   0.994
 2501TIP3   OH2 7508   1.047   3.281   1.885
 2501TIP3    H1 7509   1.032   3.200   1.933
 2501TIP3    H2 7510   1.140   3.300   1.899
 2502TIP3   OH2 7511   6.142   1.873   2.076
 2502TIP3    H1 7512   6.173   1.958   2.044
 2502TIP3    H2 7513   6.185   1.809   2.020
 2503TIP3   OH2 7514   5.624   5.451   0.460
 2503TIP3    H1 7515   5.682   5.422   0.530
 2503TIP3    H2 7516   5.561   5.381   0.450
 2504TIP3   OH2 7517   6.353   4.003   3.326
 2504TIP3    H1 7518   6.421   4.034   3.386
 2504TIP3    H2 7519   6.284   4.069   3.333
 2505TIP3   OH2 7520   4.299   0.758   4.770
 2505TIP3    H1 7521   4.339   0.807   4.842
 2505TIP3    H2 7522   4.374   0.721   4.722
 2506TIP3   OH2 7523   3.794   4.016   4.372
 2506TIP3    H1 7524   3.850   4.093   4.383
 2506TIP3    H2 7525   3.831   3.969   4.298
 2507TIP3   OH2 7526   0.703   1.526   3.147
 2507TIP3    H1 7527   0.660   1.458   3.096
 2507TIP3    H2 7528   0.644   1.602   3.141
 2508TIP3   OH2 7529   1.219   5.190   3.753
 2508TIP3    H1 7530   1.130   5.199   3.720
 2508TIP3    H2 7531   1.214   5.118   3.815
 2509TIP3   OH2 7532   0.206   1.889   4.834
 2509TIP3    H1 7533   0.231   1.803   4.801
 2509TIP3    H2 7534   0.194   1.876   4.928
 2510TIP3   OH2 7535   3.566   3.487   4.154
 2510TIP3    H1 7536   3.639   3.482   4.093
 2510TIP3    H2 7537   3.499   3.429   4.117
 2511TIP3   OH2 7538   6.263   4.257   0.085
 2511TIP3    H1 7539   6.167   4.266   0.085
 2511TIP3    H2 7540   6.283   4.211   0.166
 2512TIP3   OH2 7541   1.281   2.147   4.910
 2512TIP3    H1 7542   1.353   2.194   4.952
 2512TIP3    H2 7543   1.259   2.077   4.971
 2513TIP3   OH2 7544   2.053   1.998   1.619
 2513TIP3    H1 7545   1.973   1.998   1.672
 2513TIP3    H2 7546   2.033   2.057   1.546
 2514TIP3   OH2 7547   5.720   3.856   4.652
 2514TIP3    H1 7548   5.774   3.799   4.706
 2514TIP3    H2 7549   5.724   3.941   4.696
 2515TIP3   OH2 7550   3.713   3.812   3.424
 2515TIP3    H1 7551   3.776   3.819   3.496
 2515TIP3    H2 7552   3.767   3.798   3.346
 2516TIP3   OH2 7553   0.733   1.933   1.747
 2516TIP3    H1 7554   0.692   1.973   1.670
 2516TIP3    H2 7555   0.729   1.839   1.730
 2517TIP3   OH2 7556   0.053   2.525   0.765
 2517TIP3    H1 7557   0.148   2.535   0.765
 2517TIP3    H2 7558   0.032   2.493   0.678
 2518TIP3   OH2 7559   5.917   0.379   1.048
 2518TIP3    H1 7560   5.938   0.348   1.136
 2518TIP3    H2 7561   5.857   0.313   1.014
 2519TIP3   OH2 7562   4.483   0.865   2.979
 2519TIP3    H1 7563   4.435   0.859   3.062
 2519TIP3    H2 7564   4.418   0.894   2.915
 2520TIP3   OH2 7565   3.572   1.042   3.682
 2520TIP3    H1 7566   3.593   1.094   3.760
 2520TIP3    H2 7567   3.655   1.002   3.657
 2521TIP3   OH2 7568   6.315   3.632   1.390
 2521TIP3    H1 7569   6.409   3.649   1.383
 2521TIP3    H2 7570   6.276   3.685   1.321
 2522TIP3   OH2 7571   1.943   3.011   2.049
 2522TIP3    H1 7572   1.998   2.976   1.979
 2522TIP3    H2 7573   1.864   2.957   2.048
 2523TIP3   OH2 7574   4.558   5.892   3.682
 2523TIP3    H1 7575   4.524   5.970   3.638
 2523TIP3    H2 7576   4.644   5.919   3.714
 2524TIP3   OH2 7577   1.410   5.759   3.946
 2524TIP3    H1 7578   1.471   5.735   3.876
 2524TIP3    H2 7579   1.374   5.676   3.977
 2525TIP3   OH2 7580   2.782   0.129   3.155
 2525TIP3    H1 7581   2.719   0.058   3.170
 2525TIP3    H2 7582   2.754   0.168   3.071
 2526TIP3   OH2 7583   5.512   2.385   1.369
 2526TIP3    H1 7584   5.500   2.444   1.295
 2526TIP3    H2 7585   5.596   2.342   1.353
 2527TIP3   OH2 7586   5.307   5.928   3.845
 2527TIP3    H1 7587   5.363   5.941   3.921
 2527TIP3    H2 7588   5.367   5.899   3.776
 2528TIP3   OH2 7589   1.316   4.429   1.763
 2528TIP3    H1 7590   1.389   4.407   1.821
 2528TIP3    H2 7591   1.247   4.459   1.821
 2529TIP3   OH2 7592   3.905   0.868   0.284
 2529TIP3    H1 7593   3.968   0.878   0.355
 2529TIP3    H2 7594   3.876   0.777   0.290
 2530TIP3   OH2 7595   2.608   3.265   0.771
 2530TIP3    H1 7596   2.618   3.354   0.804
 2530TIP3    H2 7597   2.532   3.269   0.714
 2531TIP3   OH2 7598   3.692   0.352   4.387
 2531TIP3    H1 7599   3.606   0.387   4.362
 2531TIP3    H2 7600   3.748   0.369   4.312
 2532TIP3   OH2 7601   2.391   2.779   2.365
 2532TIP3    H1 7602   2.483   2.762   2.344
 2532TIP3    H2 7603   2.344   2.758   2.285
 2533TIP3   OH2 7604   1.640   1.274   0.260
 2533TIP3    H1 7605   1.631   1.266   0.355
 2533TIP3    H2 7606   1.551   1.268   0.226
 2534TIP3   OH2 7607   0.102   4.894   1.365
 2534TIP3    H1 7608   0.108   4.865   1.273
 2534TIP3    H2 7609   0.189   4.929   1.384
 2535TIP3   OH2 7610   5.854   3.776   1.284
 2535TIP3    H1 7611   5.911   3.852   1.272
 2535TIP3    H2 7612   5.766   3.814   1.292
 2536TIP3   OH2 7613   6.137   5.205   1.666
 2536TIP3    H1 7614   6.147   5.294   1.634
 2536TIP3    H2 7615   6.087   5.160   1.598
 2537TIP3   OH2 7616   0.596   4.484   3.118
 2537TIP3    H1 7617   0.651   4.413   3.086
 2537TIP3    H2 7618   0.587   4.468   3.212
 2538TIP3   OH2 7619   1.465   0.021   0.770
 2538TIP3    H1 7620   1.543   0.005   0.824
 2538TIP3    H2 7621   1.491  -0.003   0.682
 2539TIP3   OH2 7622   2.523   0.034   4.852
 2539TIP3    H1 7623   2.587   0.084   4.802
 2539TIP3    H2 7624   2.500  -0.040   4.796
 2540TIP3   OH2 7625   3.604   3.320   2.904
 2540TIP3    H1 7626   3.536   3.279   2.958
 2540TIP3    H2 7627   3.652   3.247   2.866
 2541TIP3   OH2 7628   0.400   1.626   0.822
 2541TIP3    H1 7629   0.355   1.554   0.778
 2541TIP3    H2 7630   0.404   1.695   0.756
 2542TIP3   OH2 7631   1.713   2.177   5.117
 2542TIP3    H1 7632   1.787   2.196   5.060
 2542TIP3    H2 7633   1.750   2.174   5.205
 2543TIP3   OH2 7634   3.265   0.262   2.896
 2543TIP3    H1 7635   3.297   0.176   2.923
 2543TIP3    H2 7636   3.197   0.284   2.960
 2544TIP3   OH2 7637   2.771   1.656   1.227
 2544TIP3    H1 7638   2.720   1.679   1.304
 2544TIP3    H2 7639   2.857   1.633   1.261
 2545TIP3   OH2 7640   2.595   0.496   0.751
 2545TIP3    H1 7641   2.599   0.553   0.827
 2545TIP3    H2 7642   2.567   0.411   0.786
 2546TIP3   OH2 7643   5.815   3.503   1.150
 2546TIP3    H1 7644   5.830   3.444   1.224
 2546TIP3    H2 7645   5.791   3.587   1.190
 2547TIP3   OH2 7646   4.226   2.999   0.676
 2547TIP3    H1 7647   4.221   3.036   0.764
 2547TIP3    H2 7648   4.310   2.954   0.673
 2548TIP3   OH2 7649   3.094   5.755   1.917
 2548TIP3    H1 7650   3.077   5.667   1.950
 2548TIP3    H2 7651   3.027   5.769   1.850
 2549TIP3   OH2 7652   5.350   3.669   4.029
 2549TIP3    H1 7653   5.360   3.648   4.122
 2549TIP3    H2 7654   5.334   3.584   3.988
 2550TIP3   OH2 7655   0.979   4.322   1.485
 2550TIP3    H1 7656   1.072   4.303   1.469
 2550TIP3    H2 7657   0.932   4.259   1.429
 2551TIP3   OH2 7658   5.791   4.363   2.276
 2551TIP3    H1 7659   5.860   4.355   2.211
 2551TIP3    H2 7660   5.716   4.396   2.227
 2552TIP3   OH2 7661   2.400   1.464   0.708
 2552TIP3    H1 7662   2.480   1.514   0.723
 2552TIP3    H2 7663   2.354   1.467   0.792
 2553TIP3   OH2 7664   5.644   0.844   0.947
 2553TIP3    H1 7665   5.684   0.928   0.971
 2553TIP3    H2 7666   5.654   0.790   1.025
 2554TIP3   OH2 7667   5.392   2.397   1.626
 2554TIP3    H1 7668   5.450   2.412   1.552
 2554TIP3    H2 7669   5.405   2.304   1.648
 2555TIP3   OH2 7670   3.237   0.521   1.821
 2555TIP3    H1 7671   3.313   0.464   1.804
 2555TIP3    H2 7672   3.253   0.556   1.909
 2556TIP3   OH2 7673   4.383   3.728   0.848
 2556TIP3    H1 7674   4.456   3.678   0.885
 2556TIP3    H2 7675   4.308   3.705   0.903
 2557TIP3   OH2 7676   5.535   4.866   1.954
 2557TIP3    H1 7677   5.571   4.786   1.994
 2557TIP3    H2 7678   5.526   4.844   1.861
 2558TIP3   OH2 7679   5.342   5.924   2.559
 2558TIP3    H1 7680   5.276   5.993   2.557
 2558TIP3    H2 7681   5.385   5.935   2.644
 2559TIP3   OH2 7682   5.028   1.318   3.072
 2559TIP3    H1 7683   4.964   1.379   3.035
 2559TIP3    H2 7684   4.997   1.300   3.160
 2560TIP3   OH2 7685   4.668   3.076   1.174
 2560TIP3    H1 7686   4.738   3.086   1.239
 2560TIP3    H2 7687   4.592   3.117   1.216
 2561TIP3   OH2 7688   4.833   2.691   5.140
 2561TIP3    H1 7689   4.850   2.685   5.234
 2561TIP3    H2 7690   4.741   2.664   5.131
 2562TIP3   OH2 7691   0.027   0.451   0.479
 2562TIP3    H1 7692   0.089   0.420   0.414
 2562TIP3    H2 7693   0.082   0.487   0.549
 2563TIP3   OH2 7694   1.797   5.532   2.946
 2563TIP3    H1 7695   1.732   5.512   2.879
 2563TIP3    H2 7696   1.755   5.509   3.029
 2564TIP3   OH2 7697   1.647   5.601   2.588
 2564TIP3    H1 7698   1.637   5.538   2.659
 2564TIP3    H2 7699   1.563   5.597   2.541
 2565TIP3   OH2 7700   3.227   3.381   1.247
 2565TIP3    H1 7701   3.320   3.398   1.260
 2565TIP3    H2 7702   3.204   3.319   1.317
 2566TIP3   OH2 7703   5.417   3.699   2.710
 2566TIP3    H1 7704   5.402   3.695   2.804
 2566TIP3    H2 7705   5.342   3.653   2.672
 2567TIP3   OH2 7706   2.087   5.956   2.843
 2567TIP3    H1 7707   2.054   5.955   2.933
 2567TIP3    H2 7708   2.111   5.865   2.825
 2568TIP3   OH2 7709   4.342   0.180   2.752
 2568TIP3    H1 7710   4.279   0.112   2.774
 2568TIP3    H2 7711   4.304   0.224   2.676
 2569TIP3   OH2 7712   4.121   1.294   3.651
 2569TIP3    H1 7713   4.173   1.281   3.572
 2569TIP3    H2 7714   4.185   1.285   3.722
 2570TIP3   OH2 7715   3.372   3.012   0.131
 2570TIP3    H1 7716   3.285   2.994   0.166
 2570TIP3    H2 7717   3.432   2.982   0.200
 2571TIP3   OH2 7718   0.567   0.597   1.441
 2571TIP3    H1 7719   0.541   0.534   1.508
 2571TIP3    H2 7720   0.487   0.647   1.424
 2572TIP3   OH2 7721   2.909   5.902   0.639
 2572TIP3    H1 7722   2.921   5.995   0.617
 2572TIP3    H2 7723   2.970   5.855   0.582
 2573TIP3   OH2 7724   6.140   1.648   1.059
 2573TIP3    H1 7725   6.139   1.620   1.150
 2573TIP3    H2 7726   6.082   1.725   1.057
 2574TIP3   OH2 7727   0.796   0.479   1.209
 2574TIP3    H1 7728   0.847   0.508   1.133
 2574TIP3    H2 7729   0.857   0.484   1.282
 2575TIP3   OH2 7730   0.477   0.026   1.222
 2575TIP3    H1 7731   0.419   0.069   1.160
 2575TIP3    H2 7732   0.512  -0.050   1.175
 2576TIP3   OH2 7733   1.304   2.406   3.826
 2576TIP3    H1 7734   1.395   2.379   3.832
 2576TIP3    H2 7735   1.301   2.461   3.747
 2577TIP3   OH2 7736   1.592   3.175   2.941
 2577TIP3    H1 7737   1.497   3.169   2.931
 2577TIP3    H2 7738   1.627   3.132   2.863
 2578TIP3   OH2 7739   4.499   4.936   3.348
 2578TIP3    H1 7740   4.406   4.957   3.334
 2578TIP3    H2 7741   4.519   4.871   3.281
 2579TIP3   OH2 7742   5.370   2.615   3.754
 2579TIP3    H1 7743   5.438   2.574   3.807
 2579TIP3    H2 7744   5.302   2.548   3.745
 2580TIP3   OH2 7745   5.815   4.744   2.281
 2580TIP3    H1 7746   5.841   4.836   2.279
 2580TIP3    H2 7747   5.844   4.709   2.196
 2581TIP3   OH2 7748   2.130   0.400   3.534
 2581TIP3    H1 7749   2.066   0.335   3.506
 2581TIP3    H2 7750   2.087   0.447   3.606
 2582TIP3   OH2 7751   1.688   4.777   0.060
 2582TIP3    H1 7752   1.776   4.742   0.046
 2582TIP3    H2 7753   1.670   4.761   0.152
 2583TIP3   OH2 7754   1.604   1.797   4.117
 2583TIP3    H1 7755   1.696   1.782   4.139
 2583TIP3    H2 7756   1.555   1.745   4.181
 2584TIP3   OH2 7757   1.740   4.537   4.697
 2584TIP3    H1 7758   1.736   4.449   4.660
 2584TIP3    H2 7759   1.828   4.543   4.735
 2585TIP3   OH2 7760   4.508   1.187   1.862
 2585TIP3    H1 7761   4.445   1.252   1.834
 2585TIP3    H2 7762   4.575   1.237   1.909
 2586TIP3   OH2 7763   0.939   0.364   1.994
 2586TIP3    H1 7764   0.968   0.320   2.074
 2586TIP3    H2 7765   0.981   0.315   1.923
 2587TIP3   OH2 7766   0.177   3.998   2.618
 2587TIP3    H1 7767   0.256   3.953   2.587
 2587TIP3    H2 7768   0.207   4.084   2.646
 2588TIP3   OH2 7769   6.231   5.851   4.350
 2588TIP3    H1 7770   6.309   5.841   4.295
 2588TIP3    H2 7771   6.201   5.940   4.334
 2589TIP3   OH2 7772   4.314   1.558   2.980
 2589TIP3    H1 7773   4.314   1.512   3.064
 2589TIP3    H2 7774   4.394   1.527   2.936
 2590TIP3   OH2 7775   4.856   0.212   1.103
 2590TIP3    H1 7776   4.781   0.182   1.052
 2590TIP3    H2 7777   4.902   0.132   1.129
 2591TIP3   OH2 7778   2.122   2.224   3.901
 2591TIP3    H1 7779   2.158   2.287   3.963
 2591TIP3    H2 7780   2.043   2.266   3.868
 2592TIP3   OH2 7781   4.221   1.110   4.971
 2592TIP3    H1 7782   4.196   1.198   4.999
 2592TIP3    H2 7783   4.191   1.053   5.042
 2593TIP3   OH2 7784   1.005   3.904   4.218
 2593TIP3    H1 7785   1.039   3.907   4.307
 2593TIP3    H2 7786   1.075   3.941   4.165
 2594TIP3   OH2 7787   1.652   0.449   1.383
 2594TIP3    H1 7788   1.707   0.496   1.445
 2594TIP3    H2 7789   1.643   0.361   1.420
 2595TIP3   OH2 7790   2.122   0.128   2.038
 2595TIP3    H1 7791   2.062   0.166   1.974
 2595TIP3    H2 7792   2.109   0.033   2.029
 2596TIP3   OH2 7793   0.962   4.676   2.130
 2596TIP3    H1 7794   0.908   4.623   2.071
 2596TIP3    H2 7795   0.916   4.760   2.136
 2597TIP3   OH2 7796   3.534   3.899   0.487
 2597TIP3    H1 7797   3.462   3.856   0.534
 2597TIP3    H2 7798   3.565   3.833   0.425
 2598TIP3   OH2 7799   3.191   2.682   0.171
 2598TIP3    H1 7800   3.136   2.753   0.137
 2598TIP3    H2 7801   3.180   2.687   0.266
 2599TIP3   OH2 7802   2.689   3.348   2.519
 2599TIP3    H1 7803   2.729   3.413   2.460
 2599TIP3    H2 7804   2.715   3.263   2.482
 2600TIP3   OH2 7805   2.323   5.414   3.034
 2600TIP3    H1 7806   2.327   5.481   2.966
 2600TIP3    H2 7807   2.343   5.461   3.115
 2601TIP3   OH2 7808   0.666   0.799   1.307
 2601TIP3    H1 7809   0.658   0.711   1.344
 2601TIP3    H2 7810   0.636   0.790   1.217
 2602TIP3   OH2 7811   4.725   4.407   0.708
 2602TIP3    H1 7812   4.764   4.488   0.673
 2602TIP3    H2 7813   4.654   4.386   0.647
 2603TIP3   OH2 7814   3.848   2.334   4.791
 2603TIP3    H1 7815   3.757   2.334   4.762
 2603TIP3    H2 7816   3.875   2.425   4.784
 2604TIP3   OH2 7817   0.725   2.214   2.038
 2604TIP3    H1 7818   0.710   2.122   2.061
 2604TIP3    H2 7819   0.819   2.226   2.045
 2605TIP3   OH2 7820   5.542   4.378   2.905
 2605TIP3    H1 7821   5.498   4.293   2.911
 2605TIP3    H2 7822   5.485   4.431   2.849
 2606TIP3   OH2 7823   3.870   4.274   1.271
 2606TIP3    H1 7824   3.781   4.266   1.304
 2606TIP3    H2 7825   3.876   4.208   1.202
 2607TIP3   OH2 7826   1.513   3.937   2.127
 2607TIP3    H1 7827   1.562   4.019   2.122
 2607TIP3    H2 7828   1.551   3.883   2.057
 2608TIP3   OH2 7829   3.412   0.033   2.745
 2608TIP3    H1 7830   3.481  -0.003   2.689
 2608TIP3    H2 7831   3.416   0.128   2.729
 2609TIP3   OH2 7832   0.551   3.016   3.965
 2609TIP3    H1 7833   0.582   2.926   3.981
 2609TIP3    H2 7834   0.547   3.055   4.052
 2610TIP3   OH2 7835   1.031   2.794   1.551
 2610TIP3    H1 7836   1.061   2.848   1.624
 2610TIP3    H2 7837   1.033   2.704   1.586
 2611TIP3   OH2 7838   3.870   0.554   0.041
 2611TIP3    H1 7839   3.940   0.496   0.069
 2611TIP3    H2 7840   3.811   0.560   0.117
 2612TIP3   OH2 7841   4.895   1.037   3.959
 2612TIP3    H1 7842   4.949   1.018   4.035
 2612TIP3    H2 7843   4.863   0.952   3.930
 2613TIP3   OH2 7844   4.613   0.098   0.310
 2613TIP3    H1 7845   4.582   0.178   0.268
 2613TIP3    H2 7846   4.576   0.101   0.398
 2614TIP3   OH2 7847   5.421   4.478   0.242
 2614TIP3    H1 7848   5.383   4.564   0.261
 2614TIP3    H2 7849   5.514   4.495   0.227
 2615TIP3   OH2 7850   2.124   1.964   3.023
 2615TIP3    H1 7851   2.192   1.943   3.088
 2615TIP3    H2 7852   2.072   1.885   3.017
 2616TIP3   OH2 7853   0.968   4.293   2.060
 2616TIP3    H1 7854   1.028   4.227   2.024
 2616TIP3    H2 7855   0.908   4.242   2.115
 2617TIP3   OH2 7856   2.622   3.155   4.397
 2617TIP3    H1 7857   2.532   3.171   4.367
 2617TIP3    H2 7858   2.612   3.087   4.464
 2618TIP3   OH2 7859   0.218   3.367   4.246
 2618TIP3    H1 7860   0.206   3.404   4.334
 2618TIP3    H2 7861   0.291   3.416   4.209
 2619TIP3   OH2 7862   3.421   2.322   1.386
 2619TIP3    H1 7863   3.441   2.244   1.437
 2619TIP3    H2 7864   3.504   2.369   1.379
 2620TIP3   OH2 7865   4.673   1.091   3.799
 2620TIP3    H1 7866   4.625   1.161   3.842
 2620TIP3    H2 7867   4.746   1.072   3.857
 2621TIP3   OH2 7868   1.949   4.303   2.009
 2621TIP3    H1 7869   1.997   4.377   2.047
 2621TIP3    H2 7870   2.016   4.236   1.993
 2622TIP3   OH2 7871   3.183   3.875   0.318
 2622TIP3    H1 7872   3.095   3.905   0.296
 2622TIP3    H2 7873   3.238   3.953   0.306
 2623TIP3   OH2 7874   5.762   0.995   2.835
 2623TIP3    H1 7875   5.676   1.035   2.823
 2623TIP3    H2 7876   5.787   0.965   2.747
 2624TIP3   OH2 7877   5.166   4.627   0.386
 2624TIP3    H1 7878   5.226   4.563   0.424
 2624TIP3    H2 7879   5.221   4.701   0.363
 2625TIP3   OH2 7880   3.778   2.133   3.678
 2625TIP3    H1 7881   3.691   2.172   3.676
 2625TIP3    H2 7882   3.808   2.147   3.768
 2626TIP3   OH2 7883   1.212   4.705   3.800
 2626TIP3    H1 7884   1.236   4.727   3.710
 2626TIP3    H2 7885   1.169   4.784   3.832
 2627TIP3   OH2 7886   5.932   5.915   5.225
 2627TIP3    H1 7887   5.923   5.962   5.142
 2627TIP3    H2 7888   5.933   5.822   5.199
 2628TIP3   OH2 7889   0.735   5.910   1.071
 2628TIP3    H1 7890   0.818   5.865   1.055
 2628TIP3    H2 7891   0.725   5.910   1.166
 2629TIP3   OH2 7892   5.710   3.549   2.521
 2629TIP3    H1 7893   5.798   3.514   2.506
 2629TIP3    H2 7894   5.719   3.605   2.598
 2630TIP3   OH2 7895   5.669   0.669   0.745
 2630TIP3    H1 7896   5.639   0.732   0.810
 2630TIP3    H2 7897   5.689   0.723   0.668
 2631TIP3   OH2 7898   3.154   5.576   4.744
 2631TIP3    H1 7899   3.104   5.570   4.662
 2631TIP3    H2 7900   3.091   5.551   4.812
 2632TIP3   OH2 7901   3.494   4.852   0.891
 2632TIP3    H1 7902   3.539   4.771   0.868
 2632TIP3    H2 7903   3.510   4.862   0.985
 2633TIP3   OH2 7904   4.577   1.007   2.601
 2633TIP3    H1 7905   4.655   1.053   2.632
 2633TIP3    H2 7906   4.523   1.075   2.562
 2634TIP3   OH2 7907   3.606   3.906   4.992
 2634TIP3    H1 7908   3.679   3.856   4.955
 2634TIP3    H2 7909   3.556   3.935   4.915
 2635TIP3   OH2 7910   1.761   3.035   1.844
 2635TIP3    H1 7911   1.755   3.074   1.757
 2635TIP3    H2 7912   1.825   3.089   1.890
 2636TIP3   OH2 7913   1.579   5.459   2.808
 2636TIP3    H1 7914   1.557   5.369   2.782
 2636TIP3    H2 7915   1.517   5.480   2.878
 2637TIP3   OH2 7916   0.421   1.832   1.072
 2637TIP3    H1 7917   0.352   1.793   1.127
 2637TIP3    H2 7918   0.432   1.770   1.000
 2638TIP3   OH2 7919   5.670   0.286   4.459
 2638TIP3    H1 7920   5.722   0.206   4.465
 2638TIP3    H2 7921   5.627   0.281   4.374
 2639TIP3   OH2 7922   5.411   5.121   3.449
 2639TIP3    H1 7923   5.419   5.216   3.433
 2639TIP3    H2 7924   5.412   5.113   3.544
 2640TIP3   OH2 7925   0.649   3.488   3.003
 2640TIP3    H1 7926   0.690   3.404   2.981
 2640TIP3    H2 7927   0.695   3.552   2.949
 2641TIP3   OH2 7928   5.099   5.417   1.809
 2641TIP3    H1 7929   5.038   5.489   1.828
 2641TIP3    H2 7930   5.153   5.450   1.737
 2642TIP3   OH2 7931   1.928   4.541   1.086
 2642TIP3    H1 7932   2.006   4.500   1.047
 2642TIP3    H2 7933   1.885   4.585   1.012
 2643TIP3   OH2 7934   0.909   1.368   2.096
 2643TIP3    H1 7935   0.826   1.333   2.129
 2643TIP3    H2 7936   0.938   1.304   2.032
 2644TIP3   OH2 7937   0.825   2.203   4.069
 2644TIP3    H1 7938   0.823   2.131   4.006
 2644TIP3    H2 7939   0.748   2.188   4.124
 2645TIP3   OH2 7940   5.863   5.004   2.266
 2645TIP3    H1 7941   5.777   5.042   2.288
 2645TIP3    H2 7942   5.924   5.050   2.323
 2646TIP3   OH2 7943   1.101   0.796   2.486
 2646TIP3    H1 7944   1.173   0.855   2.463
 2646TIP3    H2 7945   1.028   0.825   2.431
 2647TIP3   OH2 7946   3.352   2.892   0.641
 2647TIP3    H1 7947   3.348   2.931   0.729
 2647TIP3    H2 7948   3.329   2.800   0.655
 2648TIP3   OH2 7949   0.319   4.210   2.717
 2648TIP3    H1 7950   0.310   4.282   2.655
 2648TIP3    H2 7951   0.325   4.251   2.803
 2649TIP3   OH2 7952   1.898   3.854   2.740
 2649TIP3    H1 7953   1.853   3.831   2.659
 2649TIP3    H2 7954   1.958   3.781   2.755
 2650TIP3   OH2 7955   2.713   5.745   1.255
 2650TIP3    H1 7956   2.691   5.811   1.189
 2650TIP3    H2 7957   2.725   5.665   1.205
 2651TIP3   OH2 7958   4.492   5.632   3.434
 2651TIP3    H1 7959   4.498   5.619   3.529
 2651TIP3    H2 7960   4.434   5.562   3.404
 2652TIP3   OH2 7961   3.668   5.451   1.123
 2652TIP3    H1 7962   3.583   5.489   1.143
 2652TIP3    H2 7963   3.683   5.473   1.030
 2653TIP3   OH2 7964   4.024   4.268   1.611
 2653TIP3    H1 7965   4.091   4.332   1.587
 2653TIP3    H2 7966   3.989   4.238   1.527
 2654TIP3   OH2 7967   0.848   2.497   4.499
 2654TIP3    H1 7968   0.926   2.443   4.515
 2654TIP3    H2 7969   0.804   2.501   4.584
 2655TIP3   OH2 7970   2.742   5.869   2.436
 2655TIP3    H1 7971   2.778   5.877   2.348
 2655TIP3    H2 7972   2.679   5.796   2.429
 2656TIP3   OH2 7973   4.042   5.094   2.601
 2656TIP3    H1 7974   3.957   5.131   2.577
 2656TIP3    H2 7975   4.090   5.090   2.518
 2657TIP3   OH2 7976   4.314   1.122   2.953
 2657TIP3    H1 7977   4.287   1.188   2.889
 2657TIP3    H2 7978   4.243   1.057   2.952
 2658TIP3   OH2 7979   4.763   0.747   5.070
 2658TIP3    H1 7980   4.748   0.654   5.089
 2658TIP3    H2 7981   4.852   0.751   5.036
 2659TIP3   OH2 7982   6.268   3.051   0.510
 2659TIP3    H1 7983   6.314   3.102   0.576
 2659TIP3    H2 7984   6.314   3.071   0.428
 2660TIP3   OH2 7985   4.266   4.403   4.020
 2660TIP3    H1 7986   4.198   4.461   3.988
 2660TIP3    H2 7987   4.266   4.416   4.115
 2661TIP3   OH2 7988   0.013   0.629   4.263
 2661TIP3    H1 7989   0.094   0.640   4.215
 2661TIP3    H2 7990  -0.053   0.674   4.211
 2662TIP3   OH2 7991   0.715   5.731   5.134
 2662TIP3    H1 7992   0.760   5.783   5.200
 2662TIP3    H2 7993   0.636   5.781   5.113
 2663TIP3   OH2 7994   0.123   5.221   2.808
 2663TIP3    H1 7995   0.128   5.193   2.900
 2663TIP3    H2 7996   0.038   5.188   2.778
 2664TIP3   OH2 7997   2.635   4.647   2.785
 2664TIP3    H1 7998   2.550   4.673   2.750
 2664TIP3    H2 7999   2.658   4.718   2.845
 2665TIP3   OH2 8000   1.436   0.594   3.025
 2665TIP3    H1 8001   1.423   0.501   3.005
 2665TIP3    H2 8002   1.494   0.625   2.955
 2666TIP3   OH2 8003   0.202   3.616   0.155
 2666TIP3    H1 8004   0.240   3.645   0.072
 2666TIP3    H2 8005   0.235   3.527   0.166
 2667TIP3   OH2 8006   3.606   2.795   0.929
 2667TIP3    H1 8007   3.580   2.740   1.003
 2667TIP3    H2 8008   3.579   2.745   0.851
 2668TIP3   OH2 8009   2.040   0.423   2.317
 2668TIP3    H1 8010   1.978   0.355   2.342
 2668TIP3    H2 8011   2.120   0.402   2.365
 2669TIP3   OH2 8012   1.020   0.201   0.561
 2669TIP3    H1 8013   1.040   0.123   0.510
 2669TIP3    H2 8014   1.021   0.272   0.497
 2670TIP3   OH2 8015   0.844   2.675   2.584
 2670TIP3    H1 8016   0.796   2.594   2.566
 2670TIP3    H2 8017   0.930   2.662   2.543
 2671TIP3   OH2 8018   4.806   2.309   1.141
 2671TIP3    H1 8019   4.745   2.373   1.178
 2671TIP3    H2 8020   4.813   2.241   1.208
 2672TIP3   OH2 8021   0.044   2.813   3.706
 2672TIP3    H1 8022   0.055   2.894   3.756
 2672TIP3    H2 8023  -0.037   2.775   3.741
 2673TIP3   OH2 8024   4.179   4.506   0.850
 2673TIP3    H1 8025   4.109   4.545   0.903
 2673TIP3    H2 8026   4.136   4.434   0.803
 2674TIP3   OH2 8027   3.609   3.716   4.263
 2674TIP3    H1 8028   3.602   3.625   4.232
 2674TIP3    H2 8029   3.586   3.711   4.356
 2675TIP3   OH2 8030   1.231   5.954   1.698
 2675TIP3    H1 8031   1.292   5.884   1.719
 2675TIP3    H2 8032   1.148   5.925   1.736
 2676TIP3   OH2 8033   1.968   0.887   0.449
 2676TIP3    H1 8034   2.005   0.819   0.392
 2676TIP3    H2 8035   1.918   0.838   0.514
 2677TIP3   OH2 8036   1.037   5.613   3.401
 2677TIP3    H1 8037   1.051   5.555   3.475
 2677TIP3    H2 8038   1.085   5.693   3.423
 2678TIP3   OH2 8039   0.217   1.715   3.923
 2678TIP3    H1 8040   0.149   1.770   3.883
 2678TIP3    H2 8041   0.169   1.640   3.959
 2679TIP3   OH2 8042   3.073   4.484   1.743
 2679TIP3    H1 8043   3.145   4.495   1.805
 2679TIP3    H2 8044   3.112   4.435   1.670
 2680TIP3   OH2 8045   4.803   4.780   0.316
 2680TIP3    H1 8046   4.787   4.847   0.250
 2680TIP3    H2 8047   4.831   4.829   0.393
 2681TIP3   OH2 8048   2.077   3.040   4.041
 2681TIP3    H1 8049   2.097   3.010   4.130
 2681TIP3    H2 8050   2.130   2.985   3.984
 2682TIP3   OH2 8051   3.608   5.620   1.763
 2682TIP3    H1 8052   3.650   5.615   1.677
 2682TIP3    H2 8053   3.514   5.611   1.744
 2683TIP3   OH2 8054   4.391   4.922   4.281
 2683TIP3    H1 8055   4.411   4.885   4.196
 2683TIP3    H2 8056   4.312   4.875   4.310
 2684TIP3   OH2 8057   1.500   3.311   4.290
 2684TIP3    H1 8058   1.569   3.270   4.343
 2684TIP3    H2 8059   1.434   3.338   4.354
 2685TIP3   OH2 8060   6.233   4.720   1.056
 2685TIP3    H1 8061   6.323   4.707   1.087
 2685TIP3    H2 8062   6.238   4.798   1.001
 2686TIP3   OH2 8063   4.886   1.315   3.924
 2686TIP3    H1 8064   4.792   1.326   3.938
 2686TIP3    H2 8065   4.904   1.224   3.948
 2687TIP3   OH2 8066   3.324   1.071   4.089
 2687TIP3    H1 8067   3.330   1.116   4.174
 2687TIP3    H2 8068   3.286   0.986   4.110
 2688TIP3   OH2 8069   2.688   5.462   3.217
 2688TIP3    H1 8070   2.634   5.434   3.143
 2688TIP3    H2 8071   2.772   5.486   3.178
 2689TIP3   OH2 8072   1.643   2.119   4.680
 2689TIP3    H1 8073   1.736   2.095   4.688
 2689TIP3    H2 8074   1.601   2.079   4.756
 2690TIP3   OH2 8075   5.729   4.662   1.296
 2690TIP3    H1 8076   5.651   4.637   1.248
 2690TIP3    H2 8077   5.770   4.579   1.320
 2691TIP3   OH2 8078   4.989   2.235   2.978
 2691TIP3    H1 8079   4.955   2.174   3.043
 2691TIP3    H2 8080   4.946   2.318   2.998
 2692TIP3   OH2 8081   1.947   5.305   5.140
 2692TIP3    H1 8082   1.892   5.338   5.069
 2692TIP3    H2 8083   1.959   5.212   5.119
 2693TIP3   OH2 8084   0.791   4.015   0.201
 2693TIP3    H1 8085   0.726   4.082   0.222
 2693TIP3    H2 8086   0.835   4.048   0.123
 2694TIP3   OH2 8087   0.903   2.388   4.935
 2694TIP3    H1 8088   0.866   2.301   4.922
 2694TIP3    H2 8089   0.991   2.383   4.898
 2695TIP3   OH2 8090   6.324   1.160   4.594
 2695TIP3    H1 8091   6.364   1.111   4.522
 2695TIP3    H2 8092   6.235   1.127   4.599
 2696TIP3   OH2 8093   3.450   1.216   1.150
 2696TIP3    H1 8094   3.358   1.201   1.174
 2696TIP3    H2 8095   3.460   1.170   1.067
 2697TIP3   OH2 8096   0.407   1.019   2.583
 2697TIP3    H1 8097   0.365   1.095   2.622
 2697TIP3    H2 8098   0.459   1.055   2.511
 2698TIP3   OH2 8099   0.961   2.756   0.582
 2698TIP3    H1 8100   1.014   2.832   0.607
 2698TIP3    H2 8101   0.871   2.788   0.584
 2699TIP3   OH2 8102   2.632   5.332   2.477
 2699TIP3    H1 8103   2.648   5.267   2.408
 2699TIP3    H2 8104   2.547   5.370   2.454
 2700TIP3   OH2 8105   4.575   0.457   4.867
 2700TIP3    H1 8106   4.538   0.398   4.801
 2700TIP3    H2 8107   4.579   0.542   4.823
 2701TIP3   OH2 8108   2.824   1.264   0.085
 2701TIP3    H1 8109   2.771   1.280   0.007
 2701TIP3    H2 8110   2.837   1.350   0.124
 2702TIP3   OH2 8111   4.719   3.552   2.224
 2702TIP3    H1 8112   4.790   3.546   2.288
 2702TIP3    H2 8113   4.640   3.535   2.275
 2703TIP3   OH2 8114   0.649   1.063   0.220
 2703TIP3    H1 8115   0.621   1.125   0.288
 2703TIP3    H2 8116   0.672   1.117   0.146
 2704TIP3   OH2 8117   5.035   4.563   1.492
 2704TIP3    H1 8118   4.945   4.553   1.524
 2704TIP3    H2 8119   5.067   4.641   1.537
 2705TIP3   OH2 8120   4.510   3.814   1.977
 2705TIP3    H1 8121   4.568   3.775   1.911
 2705TIP3    H2 8122   4.562   3.882   2.018
 2706TIP3   OH2 8123   2.650   2.175   0.302
 2706TIP3    H1 8124   2.719   2.145   0.362
 2706TIP3    H2 8125   2.677   2.263   0.277
 2707TIP3   OH2 8126   5.340   0.598   1.136
 2707TIP3    H1 8127   5.323   0.534   1.067
 2707TIP3    H2 8128   5.272   0.664   1.124
 2708TIP3   OH2 8129   1.345   2.687   0.244
 2708TIP3    H1 8130   1.430   2.665   0.206
 2708TIP3    H2 8131   1.335   2.781   0.229
 2709TIP3   OH2 8132   6.168   2.605   2.791
 2709TIP3    H1 8133   6.172   2.559   2.875
 2709TIP3    H2 8134   6.141   2.538   2.728
 2710TIP3   OH2 8135   4.517   2.697   2.894
 2710TIP3    H1 8136   4.534   2.786   2.925
 2710TIP3    H2 8137   4.467   2.656   2.965
 2711TIP3   OH2 8138   3.629   0.424   4.010
 2711TIP3    H1 8139   3.622   0.517   3.991
 2711TIP3    H2 8140   3.702   0.393   3.957
 2712TIP3   OH2 8141   2.494   4.772   0.320
 2712TIP3    H1 8142   2.401   4.792   0.322
 2712TIP3    H2 8143   2.500   4.688   0.274
 2713TIP3   OH2 8144   0.522   5.843   4.289
 2713TIP3    H1 8145   0.485   5.783   4.354
 2713TIP3    H2 8146   0.542   5.788   4.214
 2714TIP3   OH2 8147   2.664   5.101   4.392
 2714TIP3    H1 8148   2.669   5.160   4.317
 2714TIP3    H2 8149   2.571   5.082   4.403
 2715TIP3   OH2 8150   1.444   5.769   0.746
 2715TIP3    H1 8151   1.510   5.797   0.683
 2715TIP3    H2 8152   1.490   5.708   0.804
 2716TIP3   OH2 8153   0.812   5.439   4.765
 2716TIP3    H1 8154   0.824   5.499   4.839
 2716TIP3    H2 8155   0.855   5.482   4.692
 2717TIP3   OH2 8156   0.718   1.597   0.934
 2717TIP3    H1 8157   0.723   1.595   1.030
 2717TIP3    H2 8158   0.629   1.568   0.914
 2718TIP3   OH2 8159   2.311   1.724   0.982
 2718TIP3    H1 8160   2.222   1.745   0.954
 2718TIP3    H2 8161   2.317   1.629   0.971
 2719TIP3   OH2 8162   2.629   5.807   2.852
 2719TIP3    H1 8163   2.563   5.876   2.847
 2719TIP3    H2 8164   2.670   5.820   2.937
 2720TIP3   OH2 8165   5.003   2.289   4.979
 2720TIP3    H1 8166   5.091   2.325   4.981
 2720TIP3    H2 8167   4.999   2.239   4.897
 2721TIP3   OH2 8168   2.353   0.446   1.104
 2721TIP3    H1 8169   2.439   0.478   1.078
 2721TIP3    H2 8170   2.316   0.408   1.025
 2722TIP3   OH2 8171   2.817   4.375   3.728
 2722TIP3    H1 8172   2.886   4.356   3.664
 2722TIP3    H2 8173   2.745   4.410   3.676
 2723TIP3   OH2 8174   6.237   5.248   3.547
 2723TIP3    H1 8175   6.327   5.252   3.516
 2723TIP3    H2 8176   6.186   5.228   3.468
 2724TIP3   OH2 8177   3.188   5.939   0.110
 2724TIP3    H1 8178   3.204   5.949   0.016
 2724TIP3    H2 8179   3.269   5.901   0.144
 2725TIP3   OH2 8180   5.654   2.777   2.305
 2725TIP3    H1 8181   5.575   2.741   2.345
 2725TIP3    H2 8182   5.685   2.707   2.247
 2726TIP3   OH2 8183   6.280   0.885   2.791
 2726TIP3    H1 8184   6.313   0.886   2.881
 2726TIP3    H2 8185   6.351   0.846   2.740
 2727TIP3   OH2 8186   3.653   1.453   1.043
 2727TIP3    H1 8187   3.570   1.414   1.069
 2727TIP3    H2 8188   3.693   1.484   1.124
 2728TIP3   OH2 8189   0.613   0.710   4.328
 2728TIP3    H1 8190   0.620   0.798   4.363
 2728TIP3    H2 8191   0.699   0.693   4.289
 2729TIP3   OH2 8192   3.351   4.231   2.604
 2729TIP3    H1 8193   3.330   4.288   2.529
 2729TIP3    H2 8194   3.428   4.183   2.576
 2730TIP3   OH2 8195   5.860   5.359   1.823
 2730TIP3    H1 8196   5.848   5.422   1.894
 2730TIP3    H2 8197   5.861   5.412   1.744
 2731TIP3   OH2 8198   2.317   0.269   3.681
 2731TIP3    H1 8199   2.366   0.319   3.745
 2731TIP3    H2 8200   2.268   0.334   3.631
 2732TIP3   OH2 8201   4.459   0.178   1.066
 2732TIP3    H1 8202   4.525   0.124   1.023
 2732TIP3    H2 8203   4.400   0.116   1.108
 2733TIP3   OH2 8204   2.153   4.972   2.301
 2733TIP3    H1 8205   2.059   4.990   2.303
 2733TIP3    H2 8206   2.187   5.014   2.380
 2734TIP3   OH2 8207   0.537   1.125   3.752
 2734TIP3    H1 8208   0.517   1.088   3.838
 2734TIP3    H2 8209   0.562   1.050   3.699
 2735TIP3   OH2 8210   5.990   3.965   3.237
 2735TIP3    H1 8211   6.000   4.007   3.322
 2735TIP3    H2 8212   5.916   4.010   3.196
 2736TIP3   OH2 8213   6.032   4.332   3.805
 2736TIP3    H1 8214   5.973   4.257   3.801
 2736TIP3    H2 8215   6.111   4.298   3.845
 2737TIP3   OH2 8216   5.198   1.885   2.879
 2737TIP3    H1 8217   5.214   1.826   2.805
 2737TIP3    H2 8218   5.103   1.885   2.890
 2738TIP3   OH2 8219   2.268   2.480   1.058
 2738TIP3    H1 8220   2.330   2.553   1.060
 2738TIP3    H2 8221   2.199   2.509   0.998
 2739TIP3   OH2 8222   4.030   0.092   3.970
 2739TIP3    H1 8223   3.962   0.094   3.903
 2739TIP3    H2 8224   4.024   0.004   4.008
 2740TIP3   OH2 8225   3.070   5.786   1.017
 2740TIP3    H1 8226   3.077   5.736   1.098
 2740TIP3    H2 8227   3.121   5.865   1.034
 2741TIP3   OH2 8228   5.729   3.647   2.788
 2741TIP3    H1 8229   5.645   3.627   2.828
 2741TIP3    H2 8230   5.790   3.585   2.827
 2742TIP3   OH2 8231   5.807   0.424   0.371
 2742TIP3    H1 8232   5.858   0.495   0.411
 2742TIP3    H2 8233   5.836   0.345   0.418
 2743TIP3   OH2 8234   2.978   5.188   4.443
 2743TIP3    H1 8235   2.921   5.241   4.388
 2743TIP3    H2 8236   2.950   5.098   4.429
 2744TIP3   OH2 8237   1.910   1.757   4.750
 2744TIP3    H1 8238   1.917   1.852   4.760
 2744TIP3    H2 8239   1.996   1.725   4.777
 2745TIP3   OH2 8240   0.341   2.105   0.158
 2745TIP3    H1 8241   0.422   2.124   0.110
 2745TIP3    H2 8242   0.271   2.137   0.100
 2746TIP3   OH2 8243   3.919   4.040   4.730
 2746TIP3    H1 8244   3.987   4.098   4.696
 2746TIP3    H2 8245   3.912   4.063   4.823
 2747TIP3   OH2 8246   3.286   4.522   0.231
 2747TIP3    H1 8247   3.279   4.452   0.166
 2747TIP3    H2 8248   3.208   4.577   0.215
 2748TIP3   OH2 8249   3.486   0.615   0.262
 2748TIP3    H1 8250   3.434   0.642   0.337
 2748TIP3    H2 8251   3.510   0.524   0.282
 2749TIP3   OH2 8252   1.884   4.705   4.883
 2749TIP3    H1 8253   1.934   4.663   4.814
 2749TIP3    H2 8254   1.838   4.777   4.839
 2750TIP3   OH2 8255   2.482   2.321   1.108
 2750TIP3    H1 8256   2.538   2.399   1.103
 2750TIP3    H2 8257   2.393   2.355   1.099
 2751TIP3   OH2 8258   1.803   1.968   2.049
 2751TIP3    H1 8259   1.766   2.020   2.121
 2751TIP3    H2 8260   1.896   1.991   2.049
 2752TIP3   OH2 8261   1.422   5.979   3.314
 2752TIP3    H1 8262   1.511   5.945   3.301
 2752TIP3    H2 8263   1.406   5.970   3.408
 2753TIP3   OH2 8264   6.031   3.478   1.896
 2753TIP3    H1 8265   5.990   3.560   1.869
 2753TIP3    H2 8266   6.121   3.501   1.918
 2754TIP3   OH2 8267   5.680   2.259   1.773
 2754TIP3    H1 8268   5.748   2.219   1.826
 2754TIP3    H2 8269   5.703   2.236   1.683
 2755TIP3   OH2 8270   1.670   0.028   4.400
 2755TIP3    H1 8271   1.755   0.049   4.361
 2755TIP3    H2 8272   1.678  -0.065   4.423
 2756TIP3   OH2 8273   5.795   0.830   4.114
 2756TIP3    H1 8274   5.824   0.918   4.138
 2756TIP3    H2 8275   5.865   0.795   4.060
 2757TIP3   OH2 8276   2.377   5.983   1.682
 2757TIP3    H1 8277   2.459   6.026   1.706
 2757TIP3    H2 8278   2.400   5.929   1.606
 2758TIP3   OH2 8279   5.258   0.577   2.597
 2758TIP3    H1 8280   5.244   0.505   2.535
 2758TIP3    H2 8281   5.353   0.590   2.597
 2759TIP3   OH2 8282   1.238   1.873   4.634
 2759TIP3    H1 8283   1.289   1.850   4.712
 2759TIP3    H2 8284   1.153   1.832   4.648
 2760TIP3   OH2 8285   5.807   2.787   3.891
 2760TIP3    H1 8286   5.893   2.815   3.923
 2760TIP3    H2 8287   5.799   2.696   3.920
 2761TIP3   OH2 8288   3.817   5.610   3.554
 2761TIP3    H1 8289   3.871   5.682   3.587
 2761TIP3    H2 8290   3.825   5.617   3.458
 2762TIP3   OH2 8291   3.041   5.341   1.604
 2762TIP3    H1 8292   3.127   5.341   1.647
 2762TIP3    H2 8293   3.041   5.261   1.551
 2763TIP3   OH2 8294   4.275   2.706   4.807
 2763TIP3    H1 8295   4.313   2.677   4.725
 2763TIP3    H2 8296   4.316   2.650   4.874
 2764TIP3   OH2 8297   2.963   3.255   2.832
 2764TIP3    H1 8298   2.939   3.341   2.797
 2764TIP3    H2 8299   2.896   3.195   2.797
 2765TIP3   OH2 8300   4.664   2.249   3.984
 2765TIP3    H1 8301   4.682   2.326   3.930
 2765TIP3    H2 8302   4.621   2.187   3.924
 2766TIP3   OH2 8303   5.838   0.493   3.841
 2766TIP3    H1 8304   5.760   0.457   3.798
 2766TIP3    H2 8305   5.909   0.479   3.778
 2767TIP3   OH2 8306   3.821   1.431   1.819
 2767TIP3    H1 8307   3.829   1.350   1.769
 2767TIP3    H2 8308   3.883   1.421   1.891
 2768TIP3   OH2 8309   5.681   5.901   4.301
 2768TIP3    H1 8310   5.672   5.845   4.224
 2768TIP3    H2 8311   5.665   5.843   4.375
 2769TIP3   OH2 8312   0.836   4.684   0.353
 2769TIP3    H1 8313   0.798   4.600   0.329
 2769TIP3    H2 8314   0.780   4.718   0.423
 2770TIP3   OH2 8315   2.651   0.179   2.930
 2770TIP3    H1 8316   2.561   0.167   2.959
 2770TIP3    H2 8317   2.647   0.172   2.835
 2771TIP3   OH2 8318   1.713   3.358   1.666
 2771TIP3    H1 8319   1.749   3.285   1.616
 2771TIP3    H2 8320   1.785   3.387   1.722
 2772TIP3   OH2 8321   1.554   5.412   3.689
 2772TIP3    H1 8322   1.504   5.401   3.608
 2772TIP3    H2 8323   1.531   5.335   3.742
 2773TIP3   OH2 8324   2.239   2.776   5.197
 2773TIP3    H1 8325   2.257   2.691   5.238
 2773TIP3    H2 8326   2.199   2.755   5.114
 2774TIP3   OH2 8327   2.999   4.901   4.960
 2774TIP3    H1 8328   3.071   4.852   4.921
 2774TIP3    H2 8329   3.030   4.923   5.048
 2775TIP3   OH2 8330   5.446   4.333   0.829
 2775TIP3    H1 8331   5.524   4.347   0.775
 2775TIP3    H2 8332   5.385   4.402   0.802
 2776TIP3   OH2 8333   3.233   4.488   2.498
 2776TIP3    H1 8334   3.229   4.551   2.426
 2776TIP3    H2 8335   3.207   4.538   2.575
 2777TIP3   OH2 8336   3.283   5.932   0.611
 2777TIP3    H1 8337   3.234   5.899   0.535
 2777TIP3    H2 8338   3.245   6.018   0.629
 2778TIP3   OH2 8339   4.482   3.068   5.083
 2778TIP3    H1 8340   4.550   3.039   5.023
 2778TIP3    H2 8341   4.459   2.989   5.132
 2779TIP3   OH2 8342   6.276   0.505   3.270
 2779TIP3    H1 8343   6.229   0.588   3.274
 2779TIP3    H2 8344   6.319   0.497   3.355
 2780TIP3   OH2 8345   6.312   4.396   1.573
 2780TIP3    H1 8346   6.321   4.390   1.668
 2780TIP3    H2 8347   6.245   4.463   1.559
 2781TIP3   OH2 8348   1.370   5.944   4.796
 2781TIP3    H1 8349   1.401   6.009   4.859
 2781TIP3    H2 8350   1.418   5.864   4.818
 2782TIP3   OH2 8351   5.891   4.774   0.431
 2782TIP3    H1 8352   5.969   4.803   0.478
 2782TIP3    H2 8353   5.925   4.737   0.349
 2783TIP3   OH2 8354   4.632   5.118   3.180
 2783TIP3    H1 8355   4.579   5.136   3.102
 2783TIP3    H2 8356   4.580   5.151   3.253
 2784TIP3   OH2 8357   5.697   0.306   4.173
 2784TIP3    H1 8358   5.759   0.279   4.105
 2784TIP3    H2 8359   5.752   0.335   4.246
 2785TIP3   OH2 8360   4.664   1.209   4.274
 2785TIP3    H1 8361   4.684   1.288   4.325
 2785TIP3    H2 8362   4.610   1.239   4.202
 2786TIP3   OH2 8363   2.535   3.361   4.179
 2786TIP3    H1 8364   2.525   3.376   4.085
 2786TIP3    H2 8365   2.487   3.279   4.196
 2787TIP3   OH2 8366   2.438   1.064   2.159
 2787TIP3    H1 8367   2.412   1.156   2.156
 2787TIP3    H2 8368   2.417   1.036   2.248
 2788TIP3   OH2 8369   1.586   5.700   3.746
 2788TIP3    H1 8370   1.562   5.608   3.754
 2788TIP3    H2 8371   1.584   5.718   3.652
 2789TIP3   OH2 8372   0.350   3.810   1.614
 2789TIP3    H1 8373   0.438   3.844   1.631
 2789TIP3    H2 8374   0.321   3.776   1.699
 2790TIP3   OH2 8375   2.240   1.409   0.019
 2790TIP3    H1 8376   2.312   1.382   0.076
 2790TIP3    H2 8377   2.184   1.463   0.075
 2791TIP3   OH2 8378   5.296   2.901   1.718
 2791TIP3    H1 8379   5.241   2.861   1.651
 2791TIP3    H2 8380   5.234   2.940   1.780
 2792TIP3   OH2 8381   5.533   0.910   3.070
 2792TIP3    H1 8382   5.510   0.836   3.015
 2792TIP3    H2 8383   5.628   0.919   3.061
 2793TIP3   OH2 8384   4.349   3.938   3.818
 2793TIP3    H1 8385   4.409   4.004   3.852
 2793TIP3    H2 8386   4.264   3.962   3.854
 2794TIP3   OH2 8387   6.103   3.482   4.473
 2794TIP3    H1 8388   6.197   3.479   4.489
 2794TIP3    H2 8389   6.090   3.557   4.415
 2795TIP3   OH2 8390   1.219   3.453   4.194
 2795TIP3    H1 8391   1.300   3.455   4.142
 2795TIP3    H2 8392   1.221   3.368   4.238
 2796TIP3   OH2 8393   2.416   1.292   1.795
 2796TIP3    H1 8394   2.361   1.331   1.862
 2796TIP3    H2 8395   2.368   1.304   1.713
 2797TIP3   OH2 8396   0.564   2.141   3.918
 2797TIP3    H1 8397   0.517   2.057   3.913
 2797TIP3    H2 8398   0.530   2.183   3.996
 2798TIP3   OH2 8399   4.328   1.194   1.440
 2798TIP3    H1 8400   4.264   1.230   1.502
 2798TIP3    H2 8401   4.366   1.119   1.485
 2799TIP3   OH2 8402   4.335   1.239   4.432
 2799TIP3    H1 8403   4.424   1.260   4.461
 2799TIP3    H2 8404   4.324   1.289   4.352
 2800TIP3   OH2 8405   0.129   0.205   4.501
 2800TIP3    H1 8406   0.087   0.152   4.569
 2800TIP3    H2 8407   0.057   0.248   4.455
 2801TIP3   OH2 8408   4.440   1.130   2.165
 2801TIP3    H1 8409   4.478   1.070   2.102
 2801TIP3    H2 8410   4.388   1.191   2.112
 2802TIP3   OH2 8411   3.871   2.379   1.125
 2802TIP3    H1 8412   3.885   2.435   1.049
 2802TIP3    H2 8413   3.788   2.410   1.163
 2803TIP3   OH2 8414   5.696   5.298   0.953
 2803TIP3    H1 8415   5.693   5.230   1.020
 2803TIP3    H2 8416   5.608   5.336   0.953
 2804TIP3   OH2 8417   0.945   1.291   1.528
 2804TIP3    H1 8418   1.038   1.286   1.505
 2804TIP3    H2 8419   0.944   1.333   1.614
 2805TIP3   OH2 8420   4.351   5.723   0.366
 2805TIP3    H1 8421   4.382   5.682   0.285
 2805TIP3    H2 8422   4.369   5.816   0.354
 2806TIP3   OH2 8423   4.312   1.328   4.161
 2806TIP3    H1 8424   4.402   1.328   4.130
 2806TIP3    H2 8425   4.263   1.378   4.095
 2807TIP3   OH2 8426   4.754   2.374   3.060
 2807TIP3    H1 8427   4.793   2.456   3.093
 2807TIP3    H2 8428   4.706   2.339   3.135
 2808TIP3   OH2 8429   0.681   3.624   0.210
 2808TIP3    H1 8430   0.722   3.674   0.140
 2808TIP3    H2 8431   0.625   3.561   0.164
 2809TIP3   OH2 8432   6.204   4.242   3.397
 2809TIP3    H1 8433   6.113   4.272   3.400
 2809TIP3    H2 8434   6.225   4.219   3.488
 2810TIP3   OH2 8435   5.324   1.986   2.660
 2810TIP3    H1 8436   5.245   2.019   2.617
 2810TIP3    H2 8437   5.306   1.994   2.753
 2811TIP3   OH2 8438   0.362   2.780   3.801
 2811TIP3    H1 8439   0.272   2.808   3.781
 2811TIP3    H2 8440   0.408   2.861   3.821
 2812TIP3   OH2 8441   2.532   2.123   5.029
 2812TIP3    H1 8442   2.525   2.029   5.042
 2812TIP3    H2 8443   2.470   2.161   5.092
 2813TIP3   OH2 8444   5.187   2.242   4.490
 2813TIP3    H1 8445   5.169   2.149   4.475
 2813TIP3    H2 8446   5.275   2.255   4.453
 2814TIP3   OH2 8447   0.375   0.296   2.570
 2814TIP3    H1 8448   0.401   0.226   2.630
 2814TIP3    H2 8449   0.280   0.292   2.568
 2815TIP3   OH2 8450   3.873   0.642   3.365
 2815TIP3    H1 8451   3.859   0.561   3.316
 2815TIP3    H2 8452   3.815   0.635   3.441
 2816TIP3   OH2 8453   4.185   4.809   0.357
 2816TIP3    H1 8454   4.261   4.817   0.300
 2816TIP3    H2 8455   4.212   4.748   0.425
 2817TIP3   OH2 8456   1.392   0.161   4.458
 2817TIP3    H1 8457   1.368   0.244   4.498
 2817TIP3    H2 8458   1.368   0.095   4.523
 2818TIP3   OH2 8459   0.565   2.490   4.170
 2818TIP3    H1 8460   0.536   2.532   4.251
 2818TIP3    H2 8461   0.498   2.514   4.105
 2819TIP3   OH2 8462   5.327   2.467   4.314
 2819TIP3    H1 8463   5.339   2.460   4.220
 2819TIP3    H2 8464   5.388   2.402   4.351
 2820TIP3   OH2 8465   0.813   3.017   1.437
 2820TIP3    H1 8466   0.766   2.991   1.357
 2820TIP3    H2 8467   0.896   2.970   1.432
 2821TIP3   OH2 8468   5.726   1.156   4.536
 2821TIP3    H1 8469   5.770   1.229   4.493
 2821TIP3    H2 8470   5.700   1.190   4.621
 2822TIP3   OH2 8471   5.782   1.161   1.788
 2822TIP3    H1 8472   5.816   1.244   1.755
 2822TIP3    H2 8473   5.696   1.184   1.825
 2823TIP3   OH2 8474   1.741   4.287   4.377
 2823TIP3    H1 8475   1.788   4.346   4.318
 2823TIP3    H2 8476   1.799   4.276   4.452
 2824TIP3   OH2 8477   3.447   3.545   4.443
 2824TIP3    H1 8478   3.429   3.453   4.425
 2824TIP3    H2 8479   3.362   3.589   4.430
 2825TIP3   OH2 8480   3.022   0.497   4.378
 2825TIP3    H1 8481   3.054   0.552   4.450
 2825TIP3    H2 8482   3.071   0.527   4.302
 2826TIP3   OH2 8483   3.546   5.794   0.954
 2826TIP3    H1 8484   3.503   5.741   0.886
 2826TIP3    H2 8485   3.476   5.816   1.016
 2827TIP3   OH2 8486   4.864   5.902   2.960
 2827TIP3    H1 8487   4.949   5.946   2.949
 2827TIP3    H2 8488   4.803   5.974   2.979
 2828TIP3   OH2 8489   3.412   3.069   1.319
 2828TIP3    H1 8490   3.488   3.036   1.272
 2828TIP3    H2 8491   3.401   3.158   1.287
 2829TIP3   OH2 8492   0.735   0.206   0.593
 2829TIP3    H1 8493   0.720   0.205   0.498
 2829TIP3    H2 8494   0.821   0.245   0.603
 2830TIP3   OH2 8495  -0.015   3.409   3.389
 2830TIP3    H1 8496   0.025   3.398   3.475
 2830TIP3    H2 8497   0.026   3.341   3.335
 2831TIP3   OH2 8498   4.041   2.944   3.329
 2831TIP3    H1 8499   4.008   2.857   3.307
 2831TIP3    H2 8500   4.017   2.999   3.254
 2832TIP3   OH2 8501   1.881   4.288   4.604
 2832TIP3    H1 8502   1.916   4.210   4.647
 2832TIP3    H2 8503   1.944   4.357   4.625
 2833TIP3   OH2 8504   1.369   1.577   2.025
 2833TIP3    H1 8505   1.343   1.594   1.934
 2833TIP3    H2 8506   1.461   1.603   2.028
 2834TIP3   OH2 8507   3.495   0.030   3.866
 2834TIP3    H1 8508   3.479  -0.063   3.883
 2834TIP3    H2 8509   3.548   0.060   3.940
 2835TIP3   OH2 8510   2.115   1.747   2.463
 2835TIP3    H1 8511   2.181   1.738   2.393
 2835TIP3    H2 8512   2.053   1.812   2.429
 2836TIP3   OH2 8513   3.076   5.518   2.037
 2836TIP3    H1 8514   3.120   5.448   2.085
 2836TIP3    H2 8515   3.088   5.495   1.945
 2837TIP3   OH2 8516   5.892   0.379   0.090
 2837TIP3    H1 8517   5.854   0.383   0.178
 2837TIP3    H2 8518   5.860   0.457   0.046
 2838TIP3   OH2 8519   5.721   2.853   0.271
 2838TIP3    H1 8520   5.774   2.923   0.309
 2838TIP3    H2 8521   5.659   2.899   0.214
 2839TIP3   OH2 8522   3.450   2.665   4.899
 2839TIP3    H1 8523   3.414   2.734   4.955
 2839TIP3    H2 8524   3.484   2.711   4.822
 2840TIP3   OH2 8525   6.168   4.755   2.070
 2840TIP3    H1 8526   6.123   4.809   2.005
 2840TIP3    H2 8527   6.098   4.717   2.123
 2841TIP3   OH2 8528   4.626   4.489   4.981
 2841TIP3    H1 8529   4.671   4.569   5.008
 2841TIP3    H2 8530   4.536   4.518   4.964
 2842TIP3   OH2 8531   0.457   5.833   2.834
 2842TIP3    H1 8532   0.414   5.905   2.788
 2842TIP3    H2 8533   0.396   5.810   2.904
 2843TIP3   OH2 8534   6.168   2.256   5.157
 2843TIP3    H1 8535   6.210   2.170   5.163
 2843TIP3    H2 8536   6.115   2.263   5.237
 2844TIP3   OH2 8537   4.813   4.670   4.852
 2844TIP3    H1 8538   4.823   4.583   4.813
 2844TIP3    H2 8539   4.903   4.698   4.869
 2845TIP3   OH2 8540   5.452   2.329   3.931
 2845TIP3    H1 8541   5.491   2.302   4.014
 2845TIP3    H2 8542   5.359   2.341   3.951
 2846TIP3   OH2 8543   2.779   4.528   1.001
 2846TIP3    H1 8544   2.698   4.542   0.951
 2846TIP3    H2 8545   2.749   4.522   1.092
 2847TIP3   OH2 8546   4.815   3.522   4.417
 2847TIP3    H1 8547   4.721   3.507   4.404
 2847TIP3    H2 8548   4.856   3.441   4.386
 2848TIP3   OH2 8549   1.588   3.907   0.463
 2848TIP3    H1 8550   1.648   3.859   0.407
 2848TIP3    H2 8551   1.642   3.942   0.533
 2849TIP3   OH2 8552   5.377   3.582   2.338
 2849TIP3    H1 8553   5.345   3.497   2.309
 2849TIP3    H2 8554   5.433   3.562   2.413
 2850TIP3   OH2 8555   1.801   2.979   4.725
 2850TIP3    H1 8556   1.782   3.058   4.776
 2850TIP3    H2 8557   1.749   2.910   4.767
 2851TIP3   OH2 8558   2.167   0.875   2.784
 2851TIP3    H1 8559   2.149   0.969   2.774
 2851TIP3    H2 8560   2.263   0.869   2.785
 2852TIP3   OH2 8561   2.424   4.538   1.943
 2852TIP3    H1 8562   2.378   4.528   2.027
 2852TIP3    H2 8563   2.480   4.461   1.937
 2853TIP3   OH2 8564   6.303   2.406   3.475
 2853TIP3    H1 8565   6.222   2.453   3.493
 2853TIP3    H2 8566   6.372   2.470   3.491
 2854TIP3   OH2 8567   1.185   4.488   1.989
 2854TIP3    H1 8568   1.184   4.584   1.979
 2854TIP3    H2 8569   1.093   4.463   1.987
 2855TIP3   OH2 8570   6.134   4.444   5.096
 2855TIP3    H1 8571   6.079   4.511   5.055
 2855TIP3    H2 8572   6.120   4.366   5.043
 2856TIP3   OH2 8573   0.970   0.968   0.800
 2856TIP3    H1 8574   1.025   0.890   0.792
 2856TIP3    H2 8575   1.009   1.017   0.873
 2857TIP3   OH2 8576   2.111   1.771   2.737
 2857TIP3    H1 8577   2.196   1.814   2.722
 2857TIP3    H2 8578   2.086   1.737   2.651
 2858TIP3   OH2 8579   5.269   3.311   1.991
 2858TIP3    H1 8580   5.355   3.352   2.001
 2858TIP3    H2 8581   5.272   3.234   2.048
 2859TIP3   OH2 8582   3.394   2.430   1.116
 2859TIP3    H1 8583   3.305   2.456   1.094
 2859TIP3    H2 8584   3.384   2.367   1.187
 2860TIP3   OH2 8585   0.975   3.576   1.624
 2860TIP3    H1 8586   0.920   3.598   1.699
 2860TIP3    H2 8587   1.035   3.651   1.615
 2861TIP3   OH2 8588   5.120   2.905   3.158
 2861TIP3    H1 8589   5.053   2.896   3.090
 2861TIP3    H2 8590   5.090   2.847   3.229
 2862TIP3   OH2 8591   5.526   4.878   1.664
 2862TIP3    H1 8592   5.606   4.931   1.659
 2862TIP3    H2 8593   5.455   4.942   1.653
 2863TIP3   OH2 8594   1.937   4.651   0.554
 2863TIP3    H1 8595   1.878   4.663   0.480
 2863TIP3    H2 8596   1.988   4.732   0.557
 2864TIP3   OH2 8597   1.802   4.558   3.767
 2864TIP3    H1 8598   1.708   4.554   3.749
 2864TIP3    H2 8599   1.821   4.652   3.771
 2865TIP3   OH2 8600   3.304   4.660   0.921
 2865TIP3    H1 8601   3.368   4.730   0.910
 2865TIP3    H2 8602   3.225   4.692   0.879
 2866TIP3   OH2 8603   3.113   0.159   0.279
 2866TIP3    H1 8604   3.119   0.203   0.363
 2866TIP3    H2 8605   3.203   0.157   0.246
 2867TIP3   OH2 8606   5.146   2.607   4.503
 2867TIP3    H1 8607   5.201   2.554   4.446
 2867TIP3    H2 8608   5.075   2.549   4.529
 2868TIP3   OH2 8609   4.503   4.065   2.263
 2868TIP3    H1 8610   4.569   3.996   2.272
 2868TIP3    H2 8611   4.522   4.106   2.179
 2869TIP3   OH2 8612   1.021   4.636   2.934
 2869TIP3    H1 8613   1.000   4.673   2.848
 2869TIP3    H2 8614   1.028   4.713   2.991
 2870TIP3   OH2 8615   0.633   3.989   1.475
 2870TIP3    H1 8616   0.628   3.894   1.480
 2870TIP3    H2 8617   0.726   4.008   1.462
 2871TIP3   OH2 8618   5.581   0.697   3.963
 2871TIP3    H1 8619   5.587   0.791   3.979
 2871TIP3    H2 8620   5.669   0.665   3.979
 2872TIP3   OH2 8621   2.635   1.618   1.502
 2872TIP3    H1 8622   2.625   1.530   1.537
 2872TIP3    H2 8623   2.727   1.640   1.516
 2873TIP3   OH2 8624   0.987   2.859   0.097
 2873TIP3    H1 8625   0.915   2.920   0.084
 2873TIP3    H2 8626   0.986   2.839   0.190
 2874TIP3   OH2 8627   2.762   0.883   0.560
 2874TIP3    H1 8628   2.811   0.909   0.638
 2874TIP3    H2 8629   2.673   0.868   0.591
 2875TIP3   OH2 8630   5.901   0.877   1.055
 2875TIP3    H1 8631   5.889   0.830   1.138
 2875TIP3    H2 8632   5.896   0.809   0.988
 2876TIP3   OH2 8633   2.431   4.939   4.174
 2876TIP3    H1 8634   2.383   4.979   4.246
 2876TIP3    H2 8635   2.479   4.867   4.214
 2877TIP3   OH2 8636   4.601   0.096   1.319
 2877TIP3    H1 8637   4.557   0.144   1.249
 2877TIP3    H2 8638   4.622   0.162   1.384
 2878TIP3   OH2 8639   0.506   2.134   2.844
 2878TIP3    H1 8640   0.470   2.179   2.921
 2878TIP3    H2 8641   0.600   2.145   2.852
 2879TIP3   OH2 8642   4.696   2.082   0.081
 2879TIP3    H1 8643   4.720   2.118  -0.004
 2879TIP3    H2 8644   4.769   2.024   0.104
 2880TIP3   OH2 8645   4.125   0.752   1.814
 2880TIP3    H1 8646   4.126   0.784   1.723
 2880TIP3    H2 8647   4.107   0.659   1.806
 2881TIP3   OH2 8648   0.900   4.291   2.686
 2881TIP3    H1 8649   0.941   4.375   2.708
 2881TIP3    H2 8650   0.938   4.229   2.748
 2882TIP3   OH2 8651   5.992   2.759   0.228
 2882TIP3    H1 8652   5.935   2.688   0.256
 2882TIP3    H2 8653   5.954   2.837   0.268
 2883TIP3   OH2 8654   0.149   1.252   3.000
 2883TIP3    H1 8655   0.182   1.259   3.090
 2883TIP3    H2 8656   0.199   1.317   2.951
 2884TIP3   OH2 8657   2.732   0.728   3.373
 2884TIP3    H1 8658   2.750   0.810   3.418
 2884TIP3    H2 8659   2.817   0.696   3.344
 2885TIP3   OH2 8660   0.558   4.027   5.040
 2885TIP3    H1 8661   0.474   4.050   4.999
 2885TIP3    H2 8662   0.623   4.078   4.991
 2886TIP3   OH2 8663   4.542   2.595   2.229
 2886TIP3    H1 8664   4.594   2.656   2.280
 2886TIP3    H2 8665   4.508   2.532   2.293
 2887TIP3   OH2 8666   5.742   5.145   3.763
 2887TIP3    H1 8667   5.694   5.094   3.829
 2887TIP3    H2 8668   5.824   5.097   3.751
 2888TIP3   OH2 8669   3.431   2.608   2.932
 2888TIP3    H1 8670   3.354   2.566   2.972
 2888TIP3    H2 8671   3.505   2.561   2.969
 2889TIP3   OH2 8672   1.599   0.334   1.054
 2889TIP3    H1 8673   1.562   0.367   0.972
 2889TIP3    H2 8674   1.661   0.401   1.081
 2890TIP3   OH2 8675   2.870   2.139   0.462
 2890TIP3    H1 8676   2.867   2.234   0.474
 2890TIP3    H2 8677   2.879   2.104   0.550
 2891TIP3   OH2 8678   0.661   4.734   1.583
 2891TIP3    H1 8679   0.567   4.741   1.602
 2891TIP3    H2 8680   0.686   4.648   1.615
 2892TIP3   OH2 8681   3.287   5.093   3.885
 2892TIP3    H1 8682   3.360   5.032   3.894
 2892TIP3    H2 8683   3.329   5.176   3.862
 2893TIP3   OH2 8684   0.210   3.178   4.811
 2893TIP3    H1 8685   0.133   3.122   4.825
 2893TIP3    H2 8686   0.223   3.178   4.716
 2894TIP3   OH2 8687   2.511   5.702   3.673
 2894TIP3    H1 8688   2.464   5.752   3.740
 2894TIP3    H2 8689   2.532   5.767   3.606
 2895TIP3   OH2 8690   1.103   0.327   2.228
 2895TIP3    H1 8691   1.196   0.303   2.236
 2895TIP3    H2 8692   1.086   0.382   2.305
 2896TIP3   OH2 8693   4.135   2.969   0.411
 2896TIP3    H1 8694   4.154   2.967   0.505
 2896TIP3    H2 8695   4.051   3.016   0.405
 2897TIP3   OH2 8696   6.253   3.310   3.805
 2897TIP3    H1 8697   6.270   3.347   3.892
 2897TIP3    H2 8698   6.340   3.301   3.766
 2898TIP3   OH2 8699   3.987   5.136   3.618
 2898TIP3    H1 8700   3.924   5.086   3.567
 2898TIP3    H2 8701   4.072   5.098   3.596
 2899TIP3   OH2 8702   0.875   3.497   0.375
 2899TIP3    H1 8703   0.812   3.550   0.326
 2899TIP3    H2 8704   0.909   3.556   0.442
 2900TIP3   OH2 8705   2.256   5.956   4.150
 2900TIP3    H1 8706   2.343   5.996   4.151
 2900TIP3    H2 8707   2.265   5.879   4.206
 2901TIP3   OH2 8708   0.989   0.438   1.497
 2901TIP3    H1 8709   0.922   0.402   1.556
 2901TIP3    H2 8710   1.050   0.484   1.554
 2902TIP3   OH2 8711   3.116   0.856   0.424
 2902TIP3    H1 8712   3.180   0.893   0.363
 2902TIP3    H2 8713   3.134   0.899   0.508
 2903TIP3   OH2 8714   1.362   3.852   3.003
 2903TIP3    H1 8715   1.433   3.809   2.954
 2903TIP3    H2 8716   1.288   3.792   2.995
 2904TIP3   OH2 8717   2.487   1.924   3.180
 2904TIP3    H1 8718   2.430   1.944   3.254
 2904TIP3    H2 8719   2.514   1.833   3.193
 2905TIP3   OH2 8720   0.901   1.668   3.013
 2905TIP3    H1 8721   0.848   1.611   3.068
 2905TIP3    H2 8722   0.869   1.653   2.924
 2906TIP3   OH2 8723   3.399   5.232   0.065
 2906TIP3    H1 8724   3.455   5.274  -0.002
 2906TIP3    H2 8725   3.317   5.281   0.061
 2907TIP3   OH2 8726   3.976   4.248   3.614
 2907TIP3    H1 8727   4.017   4.163   3.603
 2907TIP3    H2 8728   4.022   4.288   3.688
 2908TIP3   OH2 8729   2.141   5.913   3.903
 2908TIP3    H1 8730   2.174   5.945   3.987
 2908TIP3    H2 8731   2.131   5.992   3.849
 2909TIP3   OH2 8732   0.948   4.926   1.979
 2909TIP3    H1 8733   0.904   4.851   1.940
 2909TIP3    H2 8734   1.038   4.920   1.946
 2910TIP3   OH2 8735   4.380   1.066   4.749
 2910TIP3    H1 8736   4.326   1.075   4.827
 2910TIP3    H2 8737   4.469   1.052   4.782
 2911TIP3   OH2 8738   2.960   2.965   2.249
 2911TIP3    H1 8739   2.992   2.886   2.207
 2911TIP3    H2 8740   3.039   3.018   2.264
 2912TIP3   OH2 8741   5.214   1.704   0.813
 2912TIP3    H1 8742   5.209   1.691   0.718
 2912TIP3    H2 8743   5.281   1.642   0.842
 2913TIP3   OH2 8744   4.902   1.906   1.908
 2913TIP3    H1 8745   4.975   1.968   1.909
 2913TIP3    H2 8746   4.913   1.858   1.826
 2914TIP3   OH2 8747   2.843   0.593   5.057
 2914TIP3    H1 8748   2.790   0.587   5.136
 2914TIP3    H2 8749   2.785   0.564   4.987
 2915TIP3   OH2 8750   4.157   0.331   0.292
 2915TIP3    H1 8751   4.162   0.426   0.306
 2915TIP3    H2 8752   4.118   0.297   0.373
 2916TIP3   OH2 8753   0.573   4.741   4.325
 2916TIP3    H1 8754   0.586   4.832   4.302
 2916TIP3    H2 8755   0.489   4.739   4.371
 2917TIP3   OH2 8756   0.820   3.636   0.780
 2917TIP3    H1 8757   0.813   3.730   0.800
 2917TIP3    H2 8758   0.853   3.634   0.691
 2918TIP3   OH2 8759   5.603   3.468   0.954
 2918TIP3    H1 8760   5.687   3.436   0.986
 2918TIP3    H2 8761   5.603   3.562   0.973
 2919TIP3   OH2 8762   4.281   0.995   4.521
 2919TIP3    H1 8763   4.308   1.017   4.610
 2919TIP3    H2 8764   4.291   1.077   4.472
 2920TIP3   OH2 8765   1.373   2.353   0.810
 2920TIP3    H1 8766   1.368   2.432   0.757
 2920TIP3    H2 8767   1.337   2.284   0.754
 2921TIP3   OH2 8768   5.260   1.460   0.400
 2921TIP3    H1 8769   5.280   1.389   0.461
 2921TIP3    H2 8770   5.186   1.429   0.348
 2922TIP3   OH2 8771   6.189   1.640   3.157
 2922TIP3    H1 8772   6.173   1.602   3.244
 2922TIP3    H2 8773   6.271   1.688   3.167
 2923TIP3   OH2 8774   5.665   4.880   3.358
 2923TIP3    H1 8775   5.572   4.866   3.339
 2923TIP3    H2 8776   5.711   4.835   3.288
 2924TIP3   OH2 8777   3.371   3.764   2.825
 2924TIP3    H1 8778   3.402   3.841   2.777
 2924TIP3    H2 8779   3.330   3.709   2.758
 2925TIP3   OH2 8780   4.037   2.265   3.072
 2925TIP3    H1 8781   4.030   2.250   2.978
 2925TIP3    H2 8782   4.123   2.230   3.096
 2926TIP3   OH2 8783   3.409   1.025   4.603
 2926TIP3    H1 8784   3.393   0.982   4.687
 2926TIP3    H2 8785   3.496   1.065   4.613
 2927TIP3   OH2 8786   4.397   1.385   2.641
 2927TIP3    H1 8787   4.418   1.426   2.557
 2927TIP3    H2 8788   4.457   1.427   2.703
 2928TIP3   OH2 8789   1.200   5.466   4.815
 2928TIP3    H1 8790   1.199   5.539   4.878
 2928TIP3    H2 8791   1.125   5.412   4.839
 2929TIP3   OH2 8792   0.663   0.314   1.369
 2929TIP3    H1 8793   0.689   0.242   1.312
 2929TIP3    H2 8794   0.705   0.391   1.329
 2930TIP3   OH2 8795   3.035   0.982   0.139
 2930TIP3    H1 8796   3.129   0.983   0.158
 2930TIP3    H2 8797   3.024   0.907   0.080
 2931TIP3   OH2 8798   0.523   5.785   3.719
 2931TIP3    H1 8799   0.612   5.819   3.709
 2931TIP3    H2 8800   0.466   5.854   3.685
 2932TIP3   OH2 8801   6.210   3.165   0.167
 2932TIP3    H1 8802   6.151   3.222   0.217
 2932TIP3    H2 8803   6.176   3.168   0.077
 2933TIP3   OH2 8804   3.634   5.169   2.795
 2933TIP3    H1 8805   3.554   5.205   2.757
 2933TIP3    H2 8806   3.703   5.191   2.732
 2934TIP3   OH2 8807   0.965   0.651   3.397
 2934TIP3    H1 8808   1.032   0.655   3.466
 2934TIP3    H2 8809   0.996   0.713   3.331
 2935TIP3   OH2 8810   6.230   5.668   3.410
 2935TIP3    H1 8811   6.239   5.764   3.406
 2935TIP3    H2 8812   6.153   5.649   3.356
 2936TIP3   OH2 8813   2.066   4.131   3.741
 2936TIP3    H1 8814   1.978   4.106   3.771
 2936TIP3    H2 8815   2.092   4.202   3.799
 2937TIP3   OH2 8816   0.935   4.919   2.400
 2937TIP3    H1 8817   0.843   4.906   2.422
 2937TIP3    H2 8818   0.934   4.987   2.332
 2938TIP3   OH2 8819   5.079   3.436   2.290
 2938TIP3    H1 8820   5.167   3.399   2.281
 2938TIP3    H2 8821   5.020   3.364   2.269
 2939TIP3   OH2 8822   4.856   0.542   1.557
 2939TIP3    H1 8823   4.926   0.559   1.619
 2939TIP3    H2 8824   4.888   0.576   1.474
 2940TIP3   OH2 8825   4.189   5.444   0.896
 2940TIP3    H1 8826   4.167   5.537   0.903
 2940TIP3    H2 8827   4.143   5.414   0.817
 2941TIP3   OH2 8828   3.282   4.951   1.613
 2941TIP3    H1 8829   3.375   4.945   1.635
 2941TIP3    H2 8830   3.259   4.864   1.581
 2942TIP3   OH2 8831   5.176   1.827   0.518
 2942TIP3    H1 8832   5.147   1.906   0.564
 2942TIP3    H2 8833   5.265   1.848   0.489
 2943TIP3   OH2 8834   4.355   5.543   0.132
 2943TIP3    H1 8835   4.271   5.506   0.159
 2943TIP3    H2 8836   4.412   5.468   0.116
 2944TIP3   OH2 8837   0.311   2.532   2.630
 2944TIP3    H1 8838   0.389   2.491   2.669
 2944TIP3    H2 8839   0.241   2.514   2.692
 2945TIP3   OH2 8840   2.262   3.314   4.671
 2945TIP3    H1 8841   2.176   3.282   4.642
 2945TIP3    H2 8842   2.305   3.236   4.705
 2946TIP3   OH2 8843   5.894   1.946   2.395
 2946TIP3    H1 8844   5.985   1.917   2.393
 2946TIP3    H2 8845   5.856   1.912   2.314
 2947TIP3   OH2 8846   5.710   0.482   2.840
 2947TIP3    H1 8847   5.670   0.426   2.774
 2947TIP3    H2 8848   5.772   0.536   2.791
 2948TIP3   OH2 8849   5.616   0.670   3.658
 2948TIP3    H1 8850   5.697   0.717   3.674
 2948TIP3    H2 8851   5.618   0.648   3.565
 2949TIP3   OH2 8852   4.783   3.188   3.449
 2949TIP3    H1 8853   4.823   3.266   3.487
 2949TIP3    H2 8854   4.741   3.145   3.524
 2950TIP3   OH2 8855   4.069   2.797   0.194
 2950TIP3    H1 8856   4.049   2.860   0.264
 2950TIP3    H2 8857   4.086   2.715   0.240
 2951TIP3   OH2 8858   6.043   4.596   0.277
 2951TIP3    H1 8859   6.043   4.610   0.183
 2951TIP3    H2 8860   6.061   4.502   0.288
 2952TIP3   OH2 8861   3.205   5.514   4.057
 2952TIP3    H1 8862   3.282   5.458   4.050
 2952TIP3    H2 8863   3.133   5.460   4.022
 2953TIP3   OH2 8864   5.409   4.106   3.727
 2953TIP3    H1 8865   5.327   4.111   3.776
 2953TIP3    H2 8866   5.388   4.142   3.640
 2954TIP3   OH2 8867   5.548   1.976   1.320
 2954TIP3    H1 8868   5.452   1.976   1.326
 2954TIP3    H2 8869   5.573   1.886   1.340
 2955TIP3   OH2 8870   6.196   4.918   3.391
 2955TIP3    H1 8871   6.163   4.984   3.452
 2955TIP3    H2 8872   6.162   4.944   3.306
 2956TIP3   OH2 8873   5.227   5.856   5.057
 2956TIP3    H1 8874   5.219   5.893   5.145
 2956TIP3    H2 8875   5.320   5.836   5.048
 2957TIP3   OH2 8876   5.520   5.765   1.419
 2957TIP3    H1 8877   5.608   5.756   1.384
 2957TIP3    H2 8878   5.533   5.794   1.510
 2958TIP3   OH2 8879   1.096   1.695   2.628
 2958TIP3    H1 8880   1.164   1.686   2.694
 2958TIP3    H2 8881   1.040   1.766   2.660
 2959TIP3   OH2 8882   1.396   4.363   4.050
 2959TIP3    H1 8883   1.481   4.364   4.004
 2959TIP3    H2 8884   1.368   4.454   4.052
 2960TIP3   OH2 8885   6.329   3.541   0.727
 2960TIP3    H1 8886   6.421   3.519   0.711
 2960TIP3    H2 8887   6.303   3.487   0.801
 2961TIP3   OH2 8888   0.394   1.844   0.665
 2961TIP3    H1 8889   0.438   1.846   0.580
 2961TIP3    H2 8890   0.352   1.929   0.673
 2962TIP3   OH2 8891   1.355   0.632   1.468
 2962TIP3    H1 8892   1.361   0.550   1.418
 2962TIP3    H2 8893   1.444   0.646   1.501
 2963TIP3   OH2 8894   4.280   3.954   4.134
 2963TIP3    H1 8895   4.351   3.991   4.187
 2963TIP3    H2 8896   4.271   4.014   4.061
 2964TIP3   OH2 8897   3.485   4.150   0.663
 2964TIP3    H1 8898   3.433   4.180   0.738
 2964TIP3    H2 8899   3.474   4.055   0.663
 2965TIP3   OH2 8900   3.600   5.226   4.223
 2965TIP3    H1 8901   3.567   5.227   4.134
 2965TIP3    H2 8902   3.545   5.163   4.269
 2966TIP3   OH2 8903   3.433   2.115   4.865
 2966TIP3    H1 8904   3.380   2.194   4.872
 2966TIP3    H2 8905   3.443   2.084   4.955
 2967TIP3   OH2 8906   4.662   3.339   0.418
 2967TIP3    H1 8907   4.756   3.324   0.413
 2967TIP3    H2 8908   4.647   3.414   0.361
 2968TIP3   OH2 8909   4.239   1.223   1.976
 2968TIP3    H1 8910   4.146   1.225   1.952
 2968TIP3    H2 8911   4.270   1.138   1.943
 2969TIP3   OH2 8912   1.608   1.902   3.553
 2969TIP3    H1 8913   1.574   1.989   3.532
 2969TIP3    H2 8914   1.534   1.843   3.541
 2970TIP3   OH2 8915   3.194   2.772   2.496
 2970TIP3    H1 8916   3.163   2.835   2.560
 2970TIP3    H2 8917   3.157   2.688   2.525
 2971TIP3   OH2 8918   4.658   2.720   4.112
 2971TIP3    H1 8919   4.749   2.719   4.144
 2971TIP3    H2 8920   4.633   2.627   4.111
 2972TIP3   OH2 8921   3.111   0.069   3.840
 2972TIP3    H1 8922   3.111   0.120   3.921
 2972TIP3    H2 8923   3.157  -0.012   3.864
 2973TIP3   OH2 8924   5.883   4.684   1.727
 2973TIP3    H1 8925   5.910   4.624   1.657
 2973TIP3    H2 8926   5.803   4.725   1.695
 2974TIP3   OH2 8927   5.068   5.981   4.171
 2974TIP3    H1 8928   5.095   6.019   4.255
 2974TIP3    H2 8929   5.053   5.888   4.190
 2975TIP3   OH2 8930   0.110   2.914   3.428
 2975TIP3    H1 8931   0.050   2.877   3.493
 2975TIP3    H2 8932   0.052   2.956   3.364
 2976TIP3   OH2 8933   4.311   1.769   1.050
 2976TIP3    H1 8934   4.249   1.841   1.059
 2976TIP3    H2 8935   4.291   1.711   1.123
 2977TIP3   OH2 8936   2.600   4.867   1.410
 2977TIP3    H1 8937   2.577   4.960   1.402
 2977TIP3    H2 8938   2.517   4.823   1.429
 2978TIP3   OH2 8939   6.319   0.118   2.878
 2978TIP3    H1 8940   6.320   0.085   2.789
 2978TIP3    H2 8941   6.408   0.104   2.911
 2979TIP3   OH2 8942   4.916   5.350   0.093
 2979TIP3    H1 8943   4.896   5.285   0.160
 2979TIP3    H2 8944   4.972   5.414   0.137
 2980TIP3   OH2 8945   2.874   0.349   4.579
 2980TIP3    H1 8946   2.902   0.372   4.490
 2980TIP3    H2 8947   2.904   0.422   4.633
 2981TIP3   OH2 8948   4.535   4.991   0.280
 2981TIP3    H1 8949   4.507   4.899   0.284
 2981TIP3    H2 8950   4.504   5.022   0.194
 2982TIP3   OH2 8951   0.464   5.243   2.170
 2982TIP3    H1 8952   0.471   5.295   2.250
 2982TIP3    H2 8953   0.537   5.180   2.177
 2983TIP3   OH2 8954   1.746   1.680   1.316
 2983TIP3    H1 8955   1.756   1.648   1.226
 2983TIP3    H2 8956   1.828   1.727   1.334
 2984TIP3   OH2 8957   0.871   0.136   4.388
 2984TIP3    H1 8958   0.962   0.115   4.412
 2984TIP3    H2 8959   0.819   0.098   4.459
 2985TIP3   OH2 8960   1.055   3.876   0.236
 2985TIP3    H1 8961   0.960   3.891   0.243
 2985TIP3    H2 8962   1.089   3.956   0.196
 2986TIP3   OH2 8963   0.890   4.558   1.189
 2986TIP3    H1 8964   0.888   4.499   1.264
 2986TIP3    H2 8965   0.800   4.560   1.157
 2987TIP3   OH2 8966   3.259   2.924   4.271
 2987TIP3    H1 8967   3.255   2.943   4.364
 2987TIP3    H2 8968   3.329   2.979   4.238
 2988TIP3   OH2 8969   1.093   1.155   2.538
 2988TIP3    H1 8970   1.077   1.159   2.632
 2988TIP3    H2 8971   1.154   1.082   2.527
 2989TIP3   OH2 8972   5.739   3.799   5.031
 2989TIP3    H1 8973   5.828   3.800   4.996
 2989TIP3    H2 8974   5.708   3.710   5.014
 2990TIP3   OH2 8975   0.482   5.369   4.565
 2990TIP3    H1 8976   0.388   5.383   4.555
 2990TIP3    H2 8977   0.517   5.452   4.597
 2991TIP3   OH2 8978   1.888   0.218   1.438
 2991TIP3    H1 8979   1.910   0.227   1.345
 2991TIP3    H2 8980   1.811   0.161   1.439
 2992TIP3   OH2 8981   4.822   0.429   4.602
 2992TIP3    H1 8982   4.880   0.355   4.583
 2992TIP3    H2 8983   4.767   0.437   4.524
 2993TIP3   OH2 8984   3.872   2.099   0.091
 2993TIP3    H1 8985   3.852   2.116   0.183
 2993TIP3    H2 8986   3.964   2.072   0.092
 2994TIP3   OH2 8987   2.179   4.461   1.008
 2994TIP3    H1 8988   2.184   4.502   0.921
 2994TIP3    H2 8989   2.240   4.512   1.062
 2995TIP3   OH2 8990   2.537   5.586   0.477
 2995TIP3    H1 8991   2.599   5.520   0.445
 2995TIP3    H2 8992   2.510   5.555   0.563
 2996TIP3   OH2 8993   2.386   3.969   1.546
 2996TIP3    H1 8994   2.439   4.019   1.485
 2996TIP3    H2 8995   2.448   3.911   1.591
 2997TIP3   OH2 8996   3.643   1.782   2.848
 2997TIP3    H1 8997   3.703   1.714   2.816
 2997TIP3    H2 8998   3.608   1.821   2.768
 2998TIP3   OH2 8999   4.060   2.545   4.787
 2998TIP3    H1 9000   4.127   2.611   4.771
 2998TIP3    H2 9001   4.095   2.492   4.859
 2999TIP3   OH2 9002   5.013   1.157   2.155
 2999TIP3    H1 9003   5.026   1.222   2.224
 2999TIP3    H2 9004   5.024   1.073   2.199
 3000TIP3   OH2 9005   1.145   5.301   0.993
 3000TIP3    H1 9006   1.178   5.250   0.919
 3000TIP3    H2 9007   1.076   5.356   0.956
 3001TIP3   OH2 9008   5.355   5.750   4.134
 3001TIP3    H1 9009   5.450   5.744   4.129
 3001TIP3    H2 9010   5.335   5.839   4.105
 3002TIP3   OH2 9011   3.860   1.173   5.058
 3002TIP3    H1 9012   3.917   1.234   5.012
 3002TIP3    H2 9013   3.846   1.102   4.996
 3003TIP3   OH2 9014   2.949   3.941   2.013
 3003TIP3    H1 9015   2.984   3.955   1.924
 3003TIP3    H2 9016   3.026   3.945   2.069
 3004TIP3   OH2 9017   3.638   0.044   4.421
 3004TIP3    H1 9018   3.641   0.110   4.490
 3004TIP3    H2 9019   3.715   0.063   4.367
 3005TIP3   OH2 9020   2.334   0.502   0.107
 3005TIP3    H1 9021   2.377   0.442   0.169
 3005TIP3    H2 9022   2.263   0.450   0.069
 3006TIP3   OH2 9023   2.097   5.956   4.581
 3006TIP3    H1 9024   2.179   5.932   4.623
 3006TIP3    H2 9025   2.080   6.046   4.609
 3007TIP3   OH2 9026   0.402   0.609   3.133
 3007TIP3    H1 9027   0.309   0.601   3.112
 3007TIP3    H2 9028   0.408   0.585   3.225
 3008TIP3   OH2 9029   5.687   3.116   4.196
 3008TIP3    H1 9030   5.622   3.064   4.244
 3008TIP3    H2 9031   5.647   3.133   4.111
 3009TIP3   OH2 9032   3.871   2.628   4.980
 3009TIP3    H1 9033   3.922   2.597   4.905
 3009TIP3    H2 9034   3.937   2.657   5.043
 3010TIP3   OH2 9035   2.564   3.532   0.499
 3010TIP3    H1 9036   2.580   3.496   0.412
 3010TIP3    H2 9037   2.544   3.625   0.483
 3011TIP3   OH2 9038   3.747   3.829   1.349
 3011TIP3    H1 9039   3.721   3.765   1.283
 3011TIP3    H2 9040   3.814   3.784   1.401
 3012TIP3   OH2 9041   2.447   3.625   3.427
 3012TIP3    H1 9042   2.515   3.609   3.362
 3012TIP3    H2 9043   2.473   3.707   3.470
 3013TIP3   OH2 9044   2.193   5.231   1.571
 3013TIP3    H1 9045   2.101   5.224   1.597
 3013TIP3    H2 9046   2.214   5.145   1.536
 3014TIP3   OH2 9047   1.698   2.187   0.298
 3014TIP3    H1 9048   1.786   2.159   0.273
 3014TIP3    H2 9049   1.640   2.135   0.244
 3015TIP3   OH2 9050   1.960   1.352   2.817
 3015TIP3    H1 9051   2.056   1.354   2.815
 3015TIP3    H2 9052   1.936   1.432   2.864
 3016TIP3   OH2 9053   2.922   5.026   2.145
 3016TIP3    H1 9054   2.928   4.934   2.170
 3016TIP3    H2 9055   2.847   5.030   2.085
 3017TIP3   OH2 9056   2.608   0.122   4.366
 3017TIP3    H1 9057   2.610   0.034   4.328
 3017TIP3    H2 9058   2.681   0.168   4.324
 3018TIP3   OH2 9059   0.507   5.666   4.913
 3018TIP3    H1 9060   0.527   5.747   4.961
 3018TIP3    H2 9061   0.529   5.596   4.974
 3019TIP3   OH2 9062   3.070   3.351   1.665
 3019TIP3    H1 9063   3.020   3.423   1.626
 3019TIP3    H2 9064   3.161   3.378   1.658
 3020TIP3   OH2 9065   3.463   4.781   3.137
 3020TIP3    H1 9066   3.503   4.792   3.223
 3020TIP3    H2 9067   3.456   4.870   3.103
 3021TIP3   OH2 9068   0.205   3.651   0.420
 3021TIP3    H1 9069   0.298   3.663   0.436
 3021TIP3    H2 9070   0.198   3.641   0.325
 3022TIP3   OH2 9071   6.275   0.129   1.387
 3022TIP3    H1 9072   6.365   0.154   1.365
 3022TIP3    H2 9073   6.282   0.036   1.410
 3023TIP3   OH2 9074   0.755   5.395   3.379
 3023TIP3    H1 9075   0.774   5.472   3.325
 3023TIP3    H2 9076   0.751   5.428   3.468
 3024TIP3   OH2 9077   0.803   1.634   1.211
 3024TIP3    H1 9078   0.887   1.632   1.166
 3024TIP3    H2 9079   0.808   1.562   1.274
 3025TIP3   OH2 9080   1.834   2.775   2.500
 3025TIP3    H1 9081   1.759   2.814   2.455
 3025TIP3    H2 9082   1.910   2.821   2.465
 3026TIP3   OH2 9083   0.855   2.955   2.360
 3026TIP3    H1 9084   0.941   2.914   2.367
 3026TIP3    H2 9085   0.797   2.886   2.326
 3027TIP3   OH2 9086   2.118   0.391   1.530
 3027TIP3    H1 9087   2.047   0.355   1.478
 3027TIP3    H2 9088   2.161   0.315   1.568
 3028TIP3   OH2 9089   0.692   1.458   3.432
 3028TIP3    H1 9090   0.703   1.498   3.345
 3028TIP3    H2 9091   0.759   1.500   3.486
 3029TIP3   OH2 9092   5.443   1.184   0.036
 3029TIP3    H1 9093   5.496   1.126   0.090
 3029TIP3    H2 9094   5.386   1.125  -0.014
 3030TIP3   OH2 9095   5.245   0.302   4.582
 3030TIP3    H1 9096   5.339   0.287   4.594
 3030TIP3    H2 9097   5.234   0.396   4.598
 3031TIP3   OH2 9098   4.998   2.018   1.230
 3031TIP3    H1 9099   4.911   2.029   1.192
 3031TIP3    H2 9100   5.001   2.080   1.303
 3032TIP3   OH2 9101   4.084   2.307   2.099
 3032TIP3    H1 9102   4.019   2.289   2.031
 3032TIP3    H2 9103   4.095   2.224   2.146
 3033TIP3   OH2 9104   4.852   4.945   0.107
 3033TIP3    H1 9105   4.804   4.942   0.024
 3033TIP3    H2 9106   4.943   4.934   0.083
 3034TIP3   OH2 9107   4.230   3.385   5.186
 3034TIP3    H1 9108   4.141   3.375   5.152
 3034TIP3    H2 9109   4.280   3.317   5.139
 3035TIP3   OH2 9110   2.523   2.723   0.436
 3035TIP3    H1 9111   2.486   2.726   0.524
 3035TIP3    H2 9112   2.485   2.798   0.392
 3036TIP3   OH2 9113   2.114   5.318   3.604
 3036TIP3    H1 9114   2.192   5.262   3.610
 3036TIP3    H2 9115   2.042   5.257   3.590
 3037TIP3   OH2 9116   1.634   4.189   2.135
 3037TIP3    H1 9117   1.589   4.255   2.082
 3037TIP3    H2 9118   1.727   4.209   2.124
 3038TIP3   OH2 9119   4.451   5.490   0.793
 3038TIP3    H1 9120   4.374   5.546   0.786
 3038TIP3    H2 9121   4.419   5.413   0.840
 3039TIP3   OH2 9122   3.790   4.946   1.791
 3039TIP3    H1 9123   3.837   5.027   1.774
 3039TIP3    H2 9124   3.857   4.878   1.787
 3040TIP3   OH2 9125   0.974   2.768   2.059
 3040TIP3    H1 9126   1.007   2.714   2.130
 3040TIP3    H2 9127   0.984   2.714   1.981
 3041TIP3   OH2 9128   4.642   0.452   0.967
 3041TIP3    H1 9129   4.673   0.377   0.916
 3041TIP3    H2 9130   4.579   0.496   0.910
 3042TIP3   OH2 9131   3.177   1.346   2.358
 3042TIP3    H1 9132   3.236   1.341   2.434
 3042TIP3    H2 9133   3.196   1.431   2.318
 3043TIP3   OH2 9134   2.869   0.272   5.069
 3043TIP3    H1 9135   2.930   0.261   5.141
 3043TIP3    H2 9136   2.783   0.264   5.109
 3044TIP3   OH2 9137   3.771   3.831   2.785
 3044TIP3    H1 9138   3.703   3.869   2.841
 3044TIP3    H2 9139   3.722   3.776   2.723
 3045TIP3   OH2 9140   2.816   3.698   0.164
 3045TIP3    H1 9141   2.878   3.771   0.162
 3045TIP3    H2 9142   2.783   3.693   0.074
 3046TIP3   OH2 9143   0.148   1.809   5.144
 3046TIP3    H1 9144   0.216   1.749   5.113
 3046TIP3    H2 9145   0.132   1.782   5.234
 3047TIP3   OH2 9146   4.114   4.941   0.053
 3047TIP3    H1 9147   4.176   4.984  -0.006
 3047TIP3    H2 9148   4.110   4.998   0.130
 3048TIP3   OH2 9149   1.530   0.513   0.034
 3048TIP3    H1 9150   1.606   0.560   0.069
 3048TIP3    H2 9151   1.467   0.583   0.012
 3049TIP3   OH2 9152   4.357   2.278   2.511
 3049TIP3    H1 9153   4.337   2.264   2.603
 3049TIP3    H2 9154   4.413   2.356   2.510
 3050TIP3   OH2 9155   0.316   5.182   3.239
 3050TIP3    H1 9156   0.348   5.255   3.185
 3050TIP3    H2 9157   0.377   5.177   3.312
 3051TIP3   OH2 9158   4.949   0.172   1.391
 3051TIP3    H1 9159   4.870   0.225   1.382
 3051TIP3    H2 9160   5.005   0.222   1.451
 3052TIP3   OH2 9161   2.905   0.401   0.820
 3052TIP3    H1 9162   2.854   0.358   0.752
 3052TIP3    H2 9163   2.868   0.367   0.902
 3053TIP3   OH2 9164   5.575   0.705   1.220
 3053TIP3    H1 9165   5.504   0.643   1.204
 3053TIP3    H2 9166   5.533   0.778   1.265
 3054TIP3   OH2 9167   2.907   1.374   3.902
 3054TIP3    H1 9168   2.822   1.388   3.943
 3054TIP3    H2 9169   2.970   1.400   3.970
 3055TIP3   OH2 9170   4.761   4.266   5.068
 3055TIP3    H1 9171   4.731   4.349   5.029
 3055TIP3    H2 9172   4.779   4.210   4.993
 3056TIP3   OH2 9173   2.072   4.790   2.671
 3056TIP3    H1 9174   2.058   4.710   2.620
 3056TIP3    H2 9175   2.163   4.785   2.699
 3057TIP3   OH2 9176   3.527   1.458  -0.001
 3057TIP3    H1 9177   3.473   1.533  -0.024
 3057TIP3    H2 9178   3.465   1.392   0.031
 3058TIP3   OH2 9179   4.555   1.913   1.346
 3058TIP3    H1 9180   4.612   1.955   1.410
 3058TIP3    H2 9181   4.556   1.821   1.370
 3059TIP3   OH2 9182   1.451   3.455   1.678
 3059TIP3    H1 9183   1.535   3.415   1.657
 3059TIP3    H2 9184   1.407   3.391   1.733
 3060TIP3   OH2 9185   3.956   3.549   2.049
 3060TIP3    H1 9186   3.919   3.569   2.135
 3060TIP3    H2 9187   3.900   3.479   2.015
 3061TIP3   OH2 9188   3.853   2.924   4.051
 3061TIP3    H1 9189   3.795   2.935   3.976
 3061TIP3    H2 9190   3.851   2.830   4.069
 3062TIP3   OH2 9191   4.563   3.910   4.939
 3062TIP3    H1 9192   4.607   3.825   4.939
 3062TIP3    H2 9193   4.550   3.930   5.032
 3063TIP3   OH2 9194   1.413   1.209   1.303
 3063TIP3    H1 9195   1.339   1.149   1.292
 3063TIP3    H2 9196   1.466   1.168   1.371
 3064TIP3   OH2 9197   1.999   3.703   1.996
 3064TIP3    H1 9198   1.960   3.695   2.083
 3064TIP3    H2 9199   2.077   3.648   2.000
 3065TIP3   OH2 9200   0.683   3.495   3.288
 3065TIP3    H1 9201   0.659   3.407   3.315
 3065TIP3    H2 9202   0.645   3.505   3.201
 3066TIP3   OH2 9203   1.698   1.208   4.367
 3066TIP3    H1 9204   1.691   1.276   4.435
 3066TIP3    H2 9205   1.710   1.257   4.286
 3067TIP3   OH2 9206   1.017   5.985   3.335
 3067TIP3    H1 9207   1.085   6.038   3.293
 3067TIP3    H2 9208   0.982   5.931   3.264
 3068TIP3   OH2 9209   2.369   4.222   1.064
 3068TIP3    H1 9210   2.376   4.128   1.044
 3068TIP3    H2 9211   2.350   4.225   1.158
 3069TIP3   OH2 9212   4.763   5.876   0.991
 3069TIP3    H1 9213   4.800   5.957   0.956
 3069TIP3    H2 9214   4.779   5.811   0.922
 3070TIP3   OH2 9215   5.658   3.194   0.374
 3070TIP3    H1 9216   5.711   3.182   0.453
 3070TIP3    H2 9217   5.572   3.157   0.397
 3071TIP3   OH2 9218   0.812   1.454   1.791
 3071TIP3    H1 9219   0.747   1.386   1.808
 3071TIP3    H2 9220   0.873   1.448   1.865
 3072TIP3   OH2 9221   1.946   5.173   1.660
 3072TIP3    H1 9222   1.873   5.235   1.658
 3072TIP3    H2 9223   1.909   5.091   1.630
 3073TIP3   OH2 9224   5.010   1.944   4.849
 3073TIP3    H1 9225   4.999   2.034   4.818
 3073TIP3    H2 9226   4.924   1.920   4.884
 3074TIP3   OH2 9227   4.979   5.385   3.972
 3074TIP3    H1 9228   4.939   5.390   3.885
 3074TIP3    H2 9229   5.053   5.445   3.968
 3075TIP3   OH2 9230   1.603   2.694   3.656
 3075TIP3    H1 9231   1.562   2.775   3.686
 3075TIP3    H2 9232   1.530   2.643   3.620
 3076TIP3   OH2 9233   4.352   4.080   1.493
 3076TIP3    H1 9234   4.353   3.999   1.442
 3076TIP3    H2 9235   4.312   4.145   1.435
 3077TIP3   OH2 9236   0.621   5.692   0.250
 3077TIP3    H1 9237   0.600   5.602   0.275
 3077TIP3    H2 9238   0.658   5.731   0.329
 3078TIP3   OH2 9239   3.624   2.344   0.458
 3078TIP3    H1 9240   3.571   2.280   0.505
 3078TIP3    H2 9241   3.568   2.373   0.386
 3079TIP3   OH2 9242   2.329   4.228   0.791
 3079TIP3    H1 9243   2.264   4.158   0.801
 3079TIP3    H2 9244   2.362   4.241   0.880
 3080TIP3   OH2 9245   5.397   1.447   0.042
 3080TIP3    H1 9246   5.419   1.354   0.053
 3080TIP3    H2 9247   5.304   1.446   0.018
 3081TIP3   OH2 9248   1.831   4.099   5.048
 3081TIP3    H1 9249   1.890   4.164   5.010
 3081TIP3    H2 9250   1.754   4.100   4.991
 3082TIP3   OH2 9251   5.390   0.216   1.415
 3082TIP3    H1 9252   5.322   0.149   1.413
 3082TIP3    H2 9253   5.343   0.298   1.432
 3083TIP3   OH2 9254   1.068   5.227   4.920
 3083TIP3    H1 9255   1.055   5.204   4.827
 3083TIP3    H2 9256   1.129   5.160   4.952
 3084TIP3   OH2 9257   4.139   1.144   0.268
 3084TIP3    H1 9258   4.044   1.154   0.265
 3084TIP3    H2 9259   4.170   1.183   0.186
 3085TIP3   OH2 9260   0.860   4.696   3.654
 3085TIP3    H1 9261   0.868   4.603   3.673
 3085TIP3    H2 9262   0.766   4.709   3.637
 3086TIP3   OH2 9263   4.165   3.112   1.902
 3086TIP3    H1 9264   4.226   3.178   1.869
 3086TIP3    H2 9265   4.133   3.068   1.823
 3087TIP3   OH2 9266   5.376   1.420   4.743
 3087TIP3    H1 9267   5.433   1.456   4.676
 3087TIP3    H2 9268   5.363   1.329   4.717
 3088TIP3   OH2 9269  -0.003   5.480   4.006
 3088TIP3    H1 9270   0.058   5.433   3.949
 3088TIP3    H2 9271  -0.035   5.413   4.067
 3089TIP3   OH2 9272   2.334   2.435   3.227
 3089TIP3    H1 9273   2.290   2.397   3.150
 3089TIP3    H2 9274   2.321   2.529   3.218
 3090TIP3   OH2 9275   1.855   2.224   3.237
 3090TIP3    H1 9276   1.913   2.290   3.274
 3090TIP3    H2 9277   1.882   2.217   3.145
 3091TIP3   OH2 9278   5.277   3.184   4.869
 3091TIP3    H1 9279   5.276   3.136   4.952
 3091TIP3    H2 9280   5.200   3.241   4.873
 3092TIP3   OH2 9281   2.347   3.693   4.606
 3092TIP3    H1 9282   2.351   3.612   4.555
 3092TIP3    H2 9283   2.390   3.758   4.550
 3093TIP3   OH2 9284   5.916   1.222   1.544
 3093TIP3    H1 9285   5.838   1.179   1.579
 3093TIP3    H2 9286   5.889   1.256   1.459
 3094TIP3   OH2 9287   3.156   1.840   4.585
 3094TIP3    H1 9288   3.206   1.857   4.665
 3094TIP3    H2 9289   3.151   1.745   4.580
 3095TIP3   OH2 9290   3.947   1.179   2.220
 3095TIP3    H1 9291   3.864   1.208   2.257
 3095TIP3    H2 9292   3.965   1.095   2.262
 3096TIP3   OH2 9293   1.273   2.843   3.416
 3096TIP3    H1 9294   1.358   2.883   3.398
 3096TIP3    H2 9295   1.290   2.749   3.413
 3097TIP3   OH2 9296   1.238   3.385   1.454
 3097TIP3    H1 9297   1.188   3.466   1.464
 3097TIP3    H2 9298   1.321   3.402   1.499
 3098TIP3   OH2 9299   3.520   3.975   2.547
 3098TIP3    H1 9300   3.527   3.883   2.523
 3098TIP3    H2 9301   3.608   4.010   2.536
 3099TIP3   OH2 9302   1.941   2.058   0.245
 3099TIP3    H1 9303   1.964   1.997   0.175
 3099TIP3    H2 9304   1.954   2.008   0.326
 3100TIP3   OH2 9305   5.149   1.851   1.052
 3100TIP3    H1 9306   5.173   1.779   0.994
 3100TIP3    H2 9307   5.055   1.842   1.064
 3101TIP3   OH2 9308   0.567   1.323   3.024
 3101TIP3    H1 9309   0.581   1.240   3.071
 3101TIP3    H2 9310   0.555   1.297   2.933
 3102TIP3   OH2 9311   1.704   0.122   2.992
 3102TIP3    H1 9312   1.714   0.119   2.897
 3102TIP3    H2 9313   1.707   0.215   3.013
 3103TIP3   OH2 9314   0.090   1.750   3.657
 3103TIP3    H1 9315   0.111   1.667   3.698
 3103TIP3    H2 9316   0.174   1.784   3.625
 3104TIP3   OH2 9317   2.162   3.351   0.039
 3104TIP3    H1 9318   2.119   3.342   0.124
 3104TIP3    H2 9319   2.254   3.332   0.057
 3105TIP3   OH2 9320   1.697   2.787   4.269
 3105TIP3    H1 9321   1.755   2.725   4.227
 3105TIP3    H2 9322   1.744   2.816   4.347
 3106TIP3   OH2 9323   5.072   1.678   4.830
 3106TIP3    H1 9324   5.161   1.695   4.861
 3106TIP3    H2 9325   5.031   1.765   4.825
 3107TIP3   OH2 9326   0.398   5.357   3.074
 3107TIP3    H1 9327   0.468   5.407   3.030
 3107TIP3    H2 9328   0.319   5.408   3.058
 3108TIP3   OH2 9329   0.257   1.079   2.145
 3108TIP3    H1 9330   0.238   1.119   2.230
 3108TIP3    H2 9331   0.272   0.987   2.165
 3109TIP3   OH2 9332   0.641   0.438   2.029
 3109TIP3    H1 9333   0.718   0.384   2.011
 3109TIP3    H2 9334   0.568   0.377   2.026
 3110TIP3   OH2 9335   2.585   0.047   3.646
 3110TIP3    H1 9336   2.495   0.079   3.636
 3110TIP3    H2 9337   2.627   0.068   3.562
 3111TIP3   OH2 9338   4.538   0.394   1.254
 3111TIP3    H1 9339   4.537   0.350   1.169
 3111TIP3    H2 9340   4.629   0.424   1.265
 3112TIP3   OH2 9341   4.723   5.422   2.853
 3112TIP3    H1 9342   4.628   5.416   2.861
 3112TIP3    H2 9343   4.745   5.509   2.888
 3113TIP3   OH2 9344   5.149   4.096   3.034
 3113TIP3    H1 9345   5.196   4.165   3.080
 3113TIP3    H2 9346   5.094   4.055   3.101
 3114TIP3   OH2 9347   2.118   4.058   1.518
 3114TIP3    H1 9348   2.202   4.043   1.562
 3114TIP3    H2 9349   2.067   4.110   1.580
 3115TIP3   OH2 9350   4.663   2.110   2.560
 3115TIP3    H1 9351   4.580   2.157   2.563
 3115TIP3    H2 9352   4.720   2.164   2.505
 3116TIP3   OH2 9353   6.300   5.758   0.226
 3116TIP3    H1 9354   6.234   5.777   0.292
 3116TIP3    H2 9355   6.347   5.682   0.262
 3117TIP3   OH2 9356   4.586   0.919   5.165
 3117TIP3    H1 9357   4.654   0.855   5.143
 3117TIP3    H2 9358   4.627   0.977   5.229
 3118TIP3   OH2 9359   4.134   3.054   0.958
 3118TIP3    H1 9360   4.169   3.097   1.036
 3118TIP3    H2 9361   4.146   2.960   0.975
 3119TIP3   OH2 9362   6.053   3.255   1.189
 3119TIP3    H1 9363   6.102   3.282   1.266
 3119TIP3    H2 9364   6.095   3.300   1.115
 3120TIP3   OH2 9365   4.166   1.713   0.656
 3120TIP3    H1 9366   4.154   1.675   0.569
 3120TIP3    H2 9367   4.136   1.646   0.716
 3121TIP3   OH2 9368   3.244   3.983   2.576
 3121TIP3    H1 9369   3.234   4.076   2.593
 3121TIP3    H2 9370   3.337   3.971   2.557
 3122TIP3   OH2 9371   4.758   0.711   2.163
 3122TIP3    H1 9372   4.843   0.716   2.207
 3122TIP3    H2 9373   4.753   0.622   2.130
 3123TIP3   OH2 9374   5.426   2.659   2.413
 3123TIP3    H1 9375   5.379   2.578   2.394
 3123TIP3    H2 9376   5.417   2.671   2.507
 3124TIP3   OH2 9377   4.829   2.028   3.758
 3124TIP3    H1 9378   4.871   1.945   3.736
 3124TIP3    H2 9379   4.738   2.004   3.777
 3125TIP3   OH2 9380   5.082   1.506   3.964
 3125TIP3    H1 9381   5.032   1.429   3.937
 3125TIP3    H2 9382   5.015   1.570   3.990
 3126TIP3   OH2 9383   3.521   1.387   3.401
 3126TIP3    H1 9384   3.497   1.342   3.482
 3126TIP3    H2 9385   3.473   1.470   3.406
 3127TIP3   OH2 9386   2.074   5.636   3.088
 3127TIP3    H1 9387   2.043   5.686   3.163
 3127TIP3    H2 9388   2.057   5.693   3.013
 3128TIP3   OH2 9389   4.400   0.802   4.157
 3128TIP3    H1 9390   4.464   0.752   4.208
 3128TIP3    H2 9391   4.316   0.762   4.180
 3129TIP3   OH2 9392   3.063   4.943   0.314
 3129TIP3    H1 9393   3.051   4.928   0.408
 3129TIP3    H2 9394   3.129   4.880   0.288
 3130TIP3   OH2 9395   5.984   2.388   2.342
 3130TIP3    H1 9396   6.013   2.475   2.371
 3130TIP3    H2 9397   6.011   2.383   2.251
 3131TIP3   OH2 9398   3.514   2.976   2.665
 3131TIP3    H1 9399   3.602   2.944   2.684
 3131TIP3    H2 9400   3.463   2.952   2.742
 3132TIP3   OH2 9401   4.577   4.386   3.442
 3132TIP3    H1 9402   4.489   4.349   3.432
 3132TIP3    H2 9403   4.624   4.320   3.493
 3133TIP3   OH2 9404   0.411   0.038   4.424
 3133TIP3    H1 9405   0.431   0.029   4.331
 3133TIP3    H2 9406   0.470  -0.022   4.468
 3134TIP3   OH2 9407   1.973   5.360   4.515
 3134TIP3    H1 9408   1.932   5.299   4.453
 3134TIP3    H2 9409   1.900   5.408   4.554
 3135TIP3   OH2 9410   6.108   4.191   3.028
 3135TIP3    H1 9411   6.174   4.260   3.039
 3135TIP3    H2 9412   6.052   4.199   3.106
 3136TIP3   OH2 9413   5.461   1.784   2.933
 3136TIP3    H1 9414   5.438   1.691   2.938
 3136TIP3    H2 9415   5.377   1.829   2.933
 3137TIP3   OH2 9416   1.515   4.466   4.432
 3137TIP3    H1 9417   1.575   4.393   4.423
 3137TIP3    H2 9418   1.533   4.522   4.356
 3138TIP3   OH2 9419   4.787   2.556   2.545
 3138TIP3    H1 9420   4.709   2.607   2.523
 3138TIP3    H2 9421   4.799   2.569   2.639
 3139TIP3   OH2 9422   2.634   1.119   1.954
 3139TIP3    H1 9423   2.601   1.086   2.038
 3139TIP3    H2 9424   2.556   1.135   1.902
 3140TIP3   OH2 9425   2.458   4.223   4.273
 3140TIP3    H1 9426   2.545   4.191   4.251
 3140TIP3    H2 9427   2.404   4.198   4.198
 3141TIP3   OH2 9428   1.257   1.810   2.134
 3141TIP3    H1 9429   1.278   1.731   2.083
 3141TIP3    H2 9430   1.233   1.776   2.220
 3142TIP3   OH2 9431   5.986   4.025   1.248
 3142TIP3    H1 9432   5.960   4.081   1.176
 3142TIP3    H2 9433   5.934   4.056   1.323
 3143TIP3   OH2 9434   0.582   1.147   4.644
 3143TIP3    H1 9435   0.615   1.067   4.603
 3143TIP3    H2 9436   0.489   1.129   4.660
 3144TIP3   OH2 9437   2.666   0.634   0.105
 3144TIP3    H1 9438   2.709   0.569   0.161
 3144TIP3    H2 9439   2.608   0.683   0.163
 3145TIP3   OH2 9440   4.669   3.277   2.473
 3145TIP3    H1 9441   4.589   3.330   2.466
 3145TIP3    H2 9442   4.639   3.188   2.455
 3146TIP3   OH2 9443   1.353   3.904   1.613
 3146TIP3    H1 9444   1.316   3.942   1.534
 3146TIP3    H2 9445   1.433   3.954   1.628
 3147TIP3   OH2 9446   0.489   5.760   0.780
 3147TIP3    H1 9447   0.546   5.794   0.711
 3147TIP3    H2 9448   0.472   5.836   0.836
 3148TIP3   OH2 9449   3.103   1.576   4.557
 3148TIP3    H1 9450   3.160   1.531   4.620
 3148TIP3    H2 9451   3.038   1.510   4.533
 3149TIP3   OH2 9452   3.188   5.374   2.878
 3149TIP3    H1 9453   3.189   5.467   2.903
 3149TIP3    H2 9454   3.103   5.342   2.910
 3150TIP3   OH2 9455   0.915   1.891   5.195
 3150TIP3    H1 9456   0.905   1.899   5.101
 3150TIP3    H2 9457   1.000   1.930   5.214
 3151TIP3   OH2 9458   0.629   2.465   5.086
 3151TIP3    H1 9459   0.576   2.387   5.101
 3151TIP3    H2 9460   0.608   2.492   4.997
 3152TIP3   OH2 9461   2.021   2.714   3.953
 3152TIP3    H1 9462   2.068   2.785   3.910
 3152TIP3    H2 9463   2.081   2.639   3.948
 3153TIP3   OH2 9464   5.249   3.532   3.158
 3153TIP3    H1 9465   5.238   3.474   3.084
 3153TIP3    H2 9466   5.160   3.564   3.178
 3154TIP3   OH2 9467   2.962   3.474   1.089
 3154TIP3    H1 9468   2.871   3.446   1.096
 3154TIP3    H2 9469   3.011   3.393   1.074
 3155TIP3   OH2 9470   3.773   0.416   1.166
 3155TIP3    H1 9471   3.747   0.324   1.166
 3155TIP3    H2 9472   3.867   0.415   1.149
 3156TIP3   OH2 9473   0.860   0.567   1.809
 3156TIP3    H1 9474   0.942   0.606   1.777
 3156TIP3    H2 9475   0.886   0.518   1.887
 3157TIP3   OH2 9476   1.305   1.702   2.803
 3157TIP3    H1 9477   1.320   1.781   2.751
 3157TIP3    H2 9478   1.340   1.723   2.890
 3158TIP3   OH2 9479   6.067   0.009   4.577
 3158TIP3    H1 9480   6.134  -0.017   4.640
 3158TIP3    H2 9481   6.095   0.095   4.546
 3159TIP3   OH2 9482   6.068   2.285   4.210
 3159TIP3    H1 9483   6.053   2.243   4.295
 3159TIP3    H2 9484   6.163   2.296   4.205
 3160TIP3   OH2 9485   1.447   5.355   4.580
 3160TIP3    H1 9486   1.405   5.314   4.504
 3160TIP3    H2 9487   1.421   5.447   4.575
 3161TIP3   OH2 9488   0.261   4.040   3.084
 3161TIP3    H1 9489   0.343   4.026   3.036
 3161TIP3    H2 9490   0.210   4.098   3.027
 3162TIP3   OH2 9491   5.663   2.851   0.637
 3162TIP3    H1 9492   5.665   2.935   0.590
 3162TIP3    H2 9493   5.755   2.825   0.642
 3163TIP3   OH2 9494   1.669   4.429   2.322
 3163TIP3    H1 9495   1.632   4.342   2.308
 3163TIP3    H2 9496   1.730   4.418   2.394
 3164TIP3   OH2 9497   0.730   1.660   4.863
 3164TIP3    H1 9498   0.657   1.715   4.836
 3164TIP3    H2 9499   0.733   1.590   4.798
 3165TIP3   OH2 9500   2.466   4.303   4.705
 3165TIP3    H1 9501   2.480   4.316   4.611
 3165TIP3    H2 9502   2.498   4.214   4.722
 3166TIP3   OH2 9503   5.947   2.757   0.704
 3166TIP3    H1 9504   5.886   2.698   0.749
 3166TIP3    H2 9505   6.023   2.761   0.762
 3167TIP3   OH2 9506   3.130   4.021   2.216
 3167TIP3    H1 9507   3.084   4.088   2.267
 3167TIP3    H2 9508   3.165   3.962   2.281
 3168TIP3   OH2 9509   2.577   1.156   4.794
 3168TIP3    H1 9510   2.667   1.128   4.779
 3168TIP3    H2 9511   2.524   1.096   4.742
 3169TIP3   OH2 9512   2.052   2.982   4.658
 3169TIP3    H1 9513   2.027   2.896   4.691
 3169TIP3    H2 9514   1.994   3.043   4.703
 3170TIP3   OH2 9515   0.807   5.373   3.863
 3170TIP3    H1 9516   0.870   5.423   3.914
 3170TIP3    H2 9517   0.732   5.361   3.921
 3171TIP3   OH2 9518   3.524   1.784   1.570
 3171TIP3    H1 9519   3.578   1.832   1.632
 3171TIP3    H2 9520   3.518   1.696   1.607
 3172TIP3   OH2 9521   6.269   3.632   4.930
 3172TIP3    H1 9522   6.353   3.677   4.923
 3172TIP3    H2 9523   6.273   3.564   4.862
 3173TIP3   OH2 9524   0.198   2.538   4.976
 3173TIP3    H1 9525   0.278   2.586   4.997
 3173TIP3    H2 9526   0.201   2.460   5.030
 3174TIP3   OH2 9527   2.799   5.530   2.866
 3174TIP3    H1 9528   2.805   5.474   2.943
 3174TIP3    H2 9529   2.839   5.613   2.893
 3175TIP3   OH2 9530   4.556   1.665   1.460
 3175TIP3    H1 9531   4.588   1.588   1.414
 3175TIP3    H2 9532   4.573   1.646   1.553
 3176TIP3   OH2 9533   3.923   1.137   2.826
 3176TIP3    H1 9534   3.971   1.117   2.746
 3176TIP3    H2 9535   3.976   1.100   2.896
 3177TIP3   OH2 9536   0.597   2.781   4.113
 3177TIP3    H1 9537   0.535   2.804   4.183
 3177TIP3    H2 9538   0.651   2.713   4.152
 3178TIP3   OH2 9539   5.347   0.387   1.757
 3178TIP3    H1 9540   5.257   0.418   1.767
 3178TIP3    H2 9541   5.372   0.414   1.668
 3179TIP3   OH2 9542   1.763   6.014   4.228
 3179TIP3    H1 9543   1.749   5.940   4.170
 3179TIP3    H2 9544   1.829   5.983   4.290
 3180TIP3   OH2 9545   2.270   3.497   2.773
 3180TIP3    H1 9546   2.276   3.425   2.836
 3180TIP3    H2 9547   2.319   3.466   2.696
 3181TIP3   OH2 9548   0.404   3.688   3.060
 3181TIP3    H1 9549   0.399   3.613   3.001
 3181TIP3    H2 9550   0.470   3.746   3.021
 3182TIP3   OH2 9551   5.295   1.993   4.895
 3182TIP3    H1 9552   5.306   2.060   4.962
 3182TIP3    H2 9553   5.214   1.948   4.919
 3183TIP3   OH2 9554   1.063   5.342   2.004
 3183TIP3    H1 9555   1.007   5.285   1.951
 3183TIP3    H2 9556   1.152   5.320   1.976
 3184TIP3   OH2 9557   3.336   2.280   0.467
 3184TIP3    H1 9558   3.313   2.350   0.529
 3184TIP3    H2 9559   3.273   2.291   0.395
 3185TIP3   OH2 9560   6.204   3.027   2.679
 3185TIP3    H1 9561   6.235   3.117   2.691
 3185TIP3    H2 9562   6.281   2.973   2.693
 3186TIP3   OH2 9563   0.737   5.158   1.096
 3186TIP3    H1 9564   0.799   5.177   1.025
 3186TIP3    H2 9565   0.792   5.127   1.168
 3187TIP3   OH2 9566   0.800   0.305   1.645
 3187TIP3    H1 9567   0.737   0.312   1.716
 3187TIP3    H2 9568   0.748   0.311   1.565
 3188TIP3   OH2 9569   2.011   5.819   0.137
 3188TIP3    H1 9570   2.028   5.751   0.202
 3188TIP3    H2 9571   2.097   5.857   0.118
 3189TIP3   OH2 9572   0.376   0.272   4.681
 3189TIP3    H1 9573   0.336   0.356   4.705
 3189TIP3    H2 9574   0.422   0.244   4.760
 3190TIP3   OH2 9575   4.571   5.673   2.584
 3190TIP3    H1 9576   4.531   5.692   2.499
 3190TIP3    H2 9577   4.593   5.760   2.619
 3191TIP3   OH2 9578   4.025   1.013   0.757
 3191TIP3    H1 9579   4.018   0.933   0.810
 3191TIP3    H2 9580   3.957   1.070   0.793
 3192TIP3   OH2 9581   6.021   0.750   1.612
 3192TIP3    H1 9582   5.965   0.824   1.635
 3192TIP3    H2 9583   5.962   0.675   1.610
 3193TIP3   OH2 9584   4.924   0.783   0.215
 3193TIP3    H1 9585   4.915   0.745   0.128
 3193TIP3    H2 9586   4.904   0.876   0.203
 3194TIP3   OH2 9587   4.814   3.159   3.952
 3194TIP3    H1 9588   4.856   3.236   3.992
 3194TIP3    H2 9589   4.727   3.190   3.927
 3195TIP3   OH2 9590   1.203   4.527   4.400
 3195TIP3    H1 9591   1.183   4.456   4.461
 3195TIP3    H2 9592   1.265   4.489   4.338
 3196TIP3   OH2 9593   4.797   2.185   4.340
 3196TIP3    H1 9594   4.719   2.162   4.289
 3196TIP3    H2 9595   4.795   2.125   4.415
 3197TIP3   OH2 9596   3.985   2.008   2.940
 3197TIP3    H1 9597   3.941   2.043   3.018
 3197TIP3    H2 9598   4.043   1.940   2.974
 3198TIP3   OH2 9599   4.807   2.627   3.202
 3198TIP3    H1 9600   4.895   2.637   3.238
 3198TIP3    H2 9601   4.754   2.690   3.251
 3199TIP3   OH2 9602   4.834   3.587   1.572
 3199TIP3    H1 9603   4.776   3.616   1.643
 3199TIP3    H2 9604   4.916   3.565   1.615
 3200TIP3   OH2 9605   1.545   0.465   3.988
 3200TIP3    H1 9606   1.570   0.555   3.970
 3200TIP3    H2 9607   1.603   0.438   4.060
 3201TIP3   OH2 9608   1.853   2.447   3.728
 3201TIP3    H1 9609   1.867   2.411   3.641
 3201TIP3    H2 9610   1.879   2.539   3.720
 3202TIP3   OH2 9611   6.340   4.750   0.683
 3202TIP3    H1 9612   6.331   4.835   0.640
 3202TIP3    H2 9613   6.269   4.749   0.748
 3203TIP3   OH2 9614   4.180   1.698   4.910
 3203TIP3    H1 9615   4.092   1.659   4.908
 3203TIP3    H2 9616   4.205   1.692   5.002
 3204TIP3   OH2 9617   4.705   0.205   0.823
 3204TIP3    H1 9618   4.722   0.215   0.730
 3204TIP3    H2 9619   4.692   0.111   0.835
 3205TIP3   OH2 9620   0.537   1.864   4.831
 3205TIP3    H1 9621   0.511   1.955   4.847
 3205TIP3    H2 9622   0.577   1.866   4.744
 3206TIP3   OH2 9623   0.133   3.184   3.291
 3206TIP3    H1 9624   0.109   3.170   3.200
 3206TIP3    H2 9625   0.207   3.125   3.306
 3207TIP3   OH2 9626   3.280   3.206   1.958
 3207TIP3    H1 9627   3.360   3.202   2.010
 3207TIP3    H2 9628   3.220   3.261   2.009
 3208TIP3   OH2 9629   2.681   5.219   1.525
 3208TIP3    H1 9630   2.731   5.267   1.458
 3208TIP3    H2 9631   2.614   5.172   1.475
 3209TIP3   OH2 9632   0.820   1.151   1.201
 3209TIP3    H1 9633   0.761   1.078   1.183
 3209TIP3    H2 9634   0.901   1.129   1.155
 3210TIP3   OH2 9635   0.204   2.164   2.753
 3210TIP3    H1 9636   0.190   2.073   2.728
 3210TIP3    H2 9637   0.299   2.175   2.756
 3211TIP3   OH2 9638   3.885   1.474   0.450
 3211TIP3    H1 9639   3.903   1.502   0.540
 3211TIP3    H2 9640   3.809   1.417   0.457
 3212TIP3   OH2 9641   4.242   0.897   0.312
 3212TIP3    H1 9642   4.225   0.857   0.397
 3212TIP3    H2 9643   4.208   0.986   0.320
 3213TIP3   OH2 9644   3.063   3.504   2.269
 3213TIP3    H1 9645   3.051   3.505   2.174
 3213TIP3    H2 9646   2.975   3.505   2.304
 3214TIP3   OH2 9647   0.891   1.890   4.912
 3214TIP3    H1 9648   0.849   1.804   4.906
 3214TIP3    H2 9649   0.949   1.894   4.836
 3215TIP3   OH2 9650   4.750   0.538   3.734
 3215TIP3    H1 9651   4.759   0.629   3.764
 3215TIP3    H2 9652   4.682   0.541   3.667
 3216TIP3   OH2 9653   2.943   3.016   1.449
 3216TIP3    H1 9654   2.889   3.005   1.370
 3216TIP3    H2 9655   2.887   3.064   1.509
 3217TIP3   OH2 9656   6.098   5.313   4.483
 3217TIP3    H1 9657   6.029   5.379   4.494
 3217TIP3    H2 9658   6.106   5.272   4.569
 3218TIP3   OH2 9659   3.207   0.812   4.711
 3218TIP3    H1 9660   3.299   0.820   4.684
 3218TIP3    H2 9661   3.211   0.785   4.803
 3219TIP3   OH2 9662   2.389   0.182   5.026
 3219TIP3    H1 9663   2.409   0.141   5.110
 3219TIP3    H2 9664   2.431   0.126   4.961
 3220TIP3   OH2 9665   1.777   3.902   4.417
 3220TIP3    H1 9666   1.871   3.884   4.417
 3220TIP3    H2 9667   1.758   3.931   4.506
 3221TIP3   OH2 9668   2.132   2.622   4.978
 3221TIP3    H1 9669   2.187   2.545   4.970
 3221TIP3    H2 9670   2.059   2.593   5.033
 3222TIP3   OH2 9671   2.961   0.558   2.524
 3222TIP3    H1 9672   2.980   0.643   2.562
 3222TIP3    H2 9673   2.939   0.502   2.599
 3223TIP3   OH2 9674   2.021   1.139   4.769
 3223TIP3    H1 9675   1.985   1.079   4.834
 3223TIP3    H2 9676   1.971   1.120   4.689
 3224TIP3   OH2 9677   2.289   4.940   1.546
 3224TIP3    H1 9678   2.292   4.905   1.635
 3224TIP3    H2 9679   2.268   4.865   1.491
 3225TIP3   OH2 9680   5.929   4.213   1.061
 3225TIP3    H1 9681   5.894   4.163   0.987
 3225TIP3    H2 9682   5.889   4.299   1.052
 3226TIP3   OH2 9683   4.209   5.844   3.541
 3226TIP3    H1 9684   4.231   5.936   3.531
 3226TIP3    H2 9685   4.160   5.822   3.462
 3227TIP3   OH2 9686   5.802   2.543   1.503
 3227TIP3    H1 9687   5.788   2.571   1.412
 3227TIP3    H2 9688   5.840   2.455   1.496
 3228TIP3   OH2 9689   1.803   1.083   3.026
 3228TIP3    H1 9690   1.891   1.047   3.030
 3228TIP3    H2 9691   1.745   1.007   3.033
 3229TIP3   OH2 9692   0.103   2.721   0.496
 3229TIP3    H1 9693   0.020   2.739   0.452
 3229TIP3    H2 9694   0.124   2.803   0.541
 3230TIP3   OH2 9695   1.195   2.955   1.038
 3230TIP3    H1 9696   1.150   2.907   0.968
 3230TIP3    H2 9697   1.127   3.010   1.077
 3231TIP3   OH2 9698   1.749   1.166   3.823
 3231TIP3    H1 9699   1.745   1.251   3.779
 3231TIP3    H2 9700   1.826   1.171   3.879
 3232TIP3   OH2 9701   0.695   1.194   2.069
 3232TIP3    H1 9702   0.664   1.215   1.982
 3232TIP3    H2 9703   0.653   1.110   2.090
 3233TIP3   OH2 9704   4.756   5.228   1.987
 3233TIP3    H1 9705   4.745   5.312   1.942
 3233TIP3    H2 9706   4.817   5.179   1.931
 3234TIP3   OH2 9707   1.268   5.367   2.930
 3234TIP3    H1 9708   1.232   5.445   2.972
 3234TIP3    H2 9709   1.269   5.388   2.837
 3235TIP3   OH2 9710   2.935   1.552   3.686
 3235TIP3    H1 9711   3.008   1.514   3.637
 3235TIP3    H2 9712   2.921   1.491   3.759
 3236TIP3   OH2 9713   0.545   1.264   2.731
 3236TIP3    H1 9714   0.570   1.314   2.653
 3236TIP3    H2 9715   0.600   1.186   2.728
 3237TIP3   OH2 9716   3.503   0.642   4.994
 3237TIP3    H1 9717   3.503   0.548   4.977
 3237TIP3    H2 9718   3.579   0.656   5.051
 3238TIP3   OH2 9719   5.789   3.492   5.053
 3238TIP3    H1 9720   5.862   3.528   5.104
 3238TIP3    H2 9721   5.832   3.445   4.981
 3239TIP3   OH2 9722   3.614   5.071   0.179
 3239TIP3    H1 9723   3.691   5.116   0.213
 3239TIP3    H2 9724   3.618   5.085   0.084
 3240TIP3   OH2 9725   4.159   0.779   0.523
 3240TIP3    H1 9726   4.066   0.784   0.546
 3240TIP3    H2 9727   4.203   0.756   0.605
 3241TIP3   OH2 9728   0.371   1.520   2.090
 3241TIP3    H1 9729   0.368   1.443   2.033
 3241TIP3    H2 9730   0.281   1.532   2.120
 3242TIP3   OH2 9731   5.944   5.581   4.735
 3242TIP3    H1 9732   5.961   5.577   4.641
 3242TIP3    H2 9733   5.922   5.492   4.760
 3243TIP3   OH2 9734   4.908   1.061   1.068
 3243TIP3    H1 9735   4.994   1.100   1.053
 3243TIP3    H2 9736   4.851   1.100   1.001
 3244TIP3   OH2 9737   1.007   3.561   1.329
 3244TIP3    H1 9738   0.938   3.546   1.264
 3244TIP3    H2 9739   0.961   3.562   1.413
 3245TIP3   OH2 9740   5.167   2.792   0.823
 3245TIP3    H1 9741   5.104   2.775   0.894
 3245TIP3    H2 9742   5.208   2.875   0.848
 3246TIP3   OH2 9743   2.618   2.817   3.258
 3246TIP3    H1 9744   2.702   2.773   3.245
 3246TIP3    H2 9745   2.585   2.781   3.340
 3247TIP3   OH2 9746   5.129   5.464   2.088
 3247TIP3    H1 9747   5.175   5.548   2.093
 3247TIP3    H2 9748   5.139   5.436   1.997
 3248TIP3   OH2 9749   2.148   2.684   0.228
 3248TIP3    H1 9750   2.053   2.670   0.220
 3248TIP3    H2 9751   2.157   2.742   0.304
 3249TIP3   OH2 9752   1.874   4.927   2.551
 3249TIP3    H1 9753   1.813   4.860   2.582
 3249TIP3    H2 9754   1.959   4.899   2.585
 3250TIP3   OH2 9755   5.523   1.472   4.497
 3250TIP3    H1 9756   5.587   1.507   4.558
 3250TIP3    H2 9757   5.575   1.428   4.430
 3251TIP3   OH2 9758   1.229   2.163   0.668
 3251TIP3    H1 9759   1.190   2.115   0.741
 3251TIP3    H2 9760   1.240   2.097   0.600
 3252TIP3   OH2 9761   2.360   2.890   0.941
 3252TIP3    H1 9762   2.410   2.820   0.983
 3252TIP3    H2 9763   2.268   2.867   0.956
 3253TIP3   OH2 9764   4.537   5.091   4.066
 3253TIP3    H1 9765   4.445   5.109   4.084
 3253TIP3    H2 9766   4.547   4.997   4.084
 3254TIP3   OH2 9767   4.740   4.536   0.375
 3254TIP3    H1 9768   4.686   4.490   0.311
 3254TIP3    H2 9769   4.774   4.612   0.329
 3255TIP3   OH2 9770   1.166   2.382   4.875
 3255TIP3    H1 9771   1.198   2.294   4.892
 3255TIP3    H2 9772   1.239   2.440   4.897
 3256TIP3   OH2 9773   5.578   5.249   1.513
 3256TIP3    H1 9774   5.663   5.214   1.486
 3256TIP3    H2 9775   5.552   5.306   1.441
 3257TIP3   OH2 9776   1.308   5.483   3.315
 3257TIP3    H1 9777   1.272   5.566   3.347
 3257TIP3    H2 9778   1.402   5.499   3.304
 3258TIP3   OH2 9779   2.088   3.644   1.524
 3258TIP3    H1 9780   2.157   3.582   1.545
 3258TIP3    H2 9781   2.070   3.689   1.606
 3259TIP3   OH2 9782   4.421   3.654   2.587
 3259TIP3    H1 9783   4.352   3.623   2.646
 3259TIP3    H2 9784   4.386   3.734   2.549
 3260TIP3   OH2 9785   4.334   0.906   3.206
 3260TIP3    H1 9786   4.268   0.965   3.171
 3260TIP3    H2 9787   4.371   0.952   3.280
 3261TIP3   OH2 9788   1.599   2.020   0.108
 3261TIP3    H1 9789   1.534   2.087   0.086
 3261TIP3    H2 9790   1.633   1.990   0.024
 3262TIP3   OH2 9791   2.848   0.664   1.202
 3262TIP3    H1 9792   2.767   0.692   1.245
 3262TIP3    H2 9793   2.840   0.696   1.112
 3263TIP3   OH2 9794   5.797   4.290   2.932
 3263TIP3    H1 9795   5.720   4.347   2.936
 3263TIP3    H2 9796   5.818   4.285   2.838
 3264TIP3   OH2 9797   4.086   1.396   3.328
 3264TIP3    H1 9798   4.000   1.375   3.290
 3264TIP3    H2 9799   4.066   1.424   3.417
 3265TIP3   OH2 9800   4.228   5.348   1.383
 3265TIP3    H1 9801   4.178   5.285   1.435
 3265TIP3    H2 9802   4.181   5.353   1.300
 3266TIP3   OH2 9803   2.553   3.443   1.730
 3266TIP3    H1 9804   2.576   3.532   1.705
 3266TIP3    H2 9805   2.631   3.409   1.772
 3267TIP3   OH2 9806   6.035   1.457   3.969
 3267TIP3    H1 9807   5.964   1.510   3.932
 3267TIP3    H2 9808   6.034   1.479   4.063
 3268TIP3   OH2 9809   6.267   5.341   2.989
 3268TIP3    H1 9810   6.297   5.261   3.032
 3268TIP3    H2 9811   6.198   5.311   2.930
 3269TIP3   OH2 9812   0.239   5.966   2.659
 3269TIP3    H1 9813   0.306   5.934   2.599
 3269TIP3    H2 9814   0.156   5.939   2.618
 3270TIP3   OH2 9815   3.812   2.128   0.384
 3270TIP3    H1 9816   3.768   2.185   0.447
 3270TIP3    H2 9817   3.768   2.044   0.393
 3271TIP3   OH2 9818   5.435   1.270   0.517
 3271TIP3    H1 9819   5.523   1.293   0.546
 3271TIP3    H2 9820   5.443   1.181   0.482
 3272TIP3   OH2 9821   1.880   2.445   4.801
 3272TIP3    H1 9822   1.917   2.531   4.779
 3272TIP3    H2 9823   1.786   2.456   4.787
 3273TIP3   OH2 9824   3.051   4.238   2.377
 3273TIP3    H1 9825   3.047   4.207   2.468
 3273TIP3    H2 9826   3.062   4.332   2.384
 3274TIP3   OH2 9827   3.795   5.356   2.052
 3274TIP3    H1 9828   3.873   5.300   2.052
 3274TIP3    H2 9829   3.776   5.368   1.959
 3275TIP3   OH2 9830   0.725   1.639   2.403
 3275TIP3    H1 9831   0.663   1.684   2.346
 3275TIP3    H2 9832   0.808   1.683   2.387
 3276TIP3   OH2 9833   6.354   4.042   0.567
 3276TIP3    H1 9834   6.311   3.957   0.572
 3276TIP3    H2 9835   6.391   4.055   0.654
 3277TIP3   OH2 9836   3.514   2.572   0.715
 3277TIP3    H1 9837   3.424   2.575   0.685
 3277TIP3    H2 9838   3.564   2.620   0.648
 3278TIP3   OH2 9839   3.671   2.382   0.855
 3278TIP3    H1 9840   3.612   2.418   0.788
 3278TIP3    H2 9841   3.690   2.293   0.825
 3279TIP3   OH2 9842   3.041   5.679   4.214
 3279TIP3    H1 9843   3.115   5.730   4.181
 3279TIP3    H2 9844   3.078   5.594   4.234
 3280TIP3   OH2 9845   0.537   3.513   0.659
 3280TIP3    H1 9846   0.631   3.503   0.646
 3280TIP3    H2 9847   0.503   3.535   0.572
 3281TIP3   OH2 9848   1.983   1.451   4.626
 3281TIP3    H1 9849   2.018   1.366   4.601
 3281TIP3    H2 9850   2.047   1.514   4.592
 3282TIP3   OH2 9851   0.706   3.798   2.823
 3282TIP3    H1 9852   0.742   3.846   2.898
 3282TIP3    H2 9853   0.754   3.715   2.823
 3283TIP3   OH2 9854   0.295   2.530   0.517
 3283TIP3    H1 9855   0.306   2.484   0.600
 3283TIP3    H2 9856   0.223   2.591   0.532
 3284TIP3   OH2 9857   4.354   4.577   4.879
 3284TIP3    H1 9858   4.270   4.564   4.836
 3284TIP3    H2 9859   4.336   4.641   4.949
 3285TIP3   OH2 9860   1.764   2.414   0.162
 3285TIP3    H1 9861   1.804   2.363   0.092
 3285TIP3    H2 9862   1.763   2.355   0.238
 3286TIP3   OH2 9863   4.579   1.485   3.692
 3286TIP3    H1 9864   4.609   1.439   3.771
 3286TIP3    H2 9865   4.546   1.569   3.723
 3287TIP3   OH2 9866   3.439   5.937   2.278
 3287TIP3    H1 9867   3.530   5.909   2.267
 3287TIP3    H2 9868   3.392   5.892   2.209
 3288TIP3   OH2 9869   0.339   2.125   0.593
 3288TIP3    H1 9870   0.314   2.085   0.510
 3288TIP3    H2 9871   0.425   2.164   0.575
 3289TIP3   OH2 9872   5.353   5.090   1.547
 3289TIP3    H1 9873   5.436   5.136   1.549
 3289TIP3    H2 9874   5.292   5.152   1.506
 3290TIP3   OH2 9875   4.762   5.373   4.742
 3290TIP3    H1 9876   4.845   5.332   4.719
 3290TIP3    H2 9877   4.725   5.317   4.810
 3291TIP3   OH2 9878   0.356   4.896   1.825
 3291TIP3    H1 9879   0.442   4.928   1.850
 3291TIP3    H2 9880   0.303   4.976   1.814
 3292TIP3   OH2 9881   0.716   2.869   0.583
 3292TIP3    H1 9882   0.680   2.937   0.640
 3292TIP3    H2 9883   0.650   2.856   0.516
 3293TIP3   OH2 9884   2.968   4.408   4.324
 3293TIP3    H1 9885   2.974   4.322   4.283
 3293TIP3    H2 9886   3.017   4.466   4.265
 3294TIP3   OH2 9887   6.298   2.943   4.275
 3294TIP3    H1 9888   6.229   2.901   4.326
 3294TIP3    H2 9889   6.320   3.022   4.325
 3295TIP3   OH2 9890   2.278   3.868   1.261
 3295TIP3    H1 9891   2.191   3.883   1.298
 3295TIP3    H2 9892   2.326   3.822   1.329
 3296TIP3   OH2 9893   5.578   0.384   2.590
 3296TIP3    H1 9894   5.580   0.329   2.511
 3296TIP3    H2 9895   5.613   0.468   2.561
 3297TIP3   OH2 9896   4.753   2.121   1.344
 3297TIP3    H1 9897   4.768   2.038   1.389
 3297TIP3    H2 9898   4.674   2.106   1.292
 3298TIP3   OH2 9899   4.793   0.355   4.114
 3298TIP3    H1 9900   4.802   0.301   4.192
 3298TIP3    H2 9901   4.787   0.445   4.148
 3299TIP3   OH2 9902   2.728   4.927   3.511
 3299TIP3    H1 9903   2.667   4.944   3.582
 3299TIP3    H2 9904   2.813   4.915   3.554
 3300TIP3   OH2 9905   5.696   3.488   2.167
 3300TIP3    H1 9906   5.656   3.410   2.206
 3300TIP3    H2 9907   5.790   3.469   2.167
 3301TIP3   OH2 9908   0.613   4.455   3.383
 3301TIP3    H1 9909   0.541   4.490   3.435
 3301TIP3    H2 9910   0.685   4.516   3.398
 3302TIP3   OH2 9911   0.021   5.292   0.065
 3302TIP3    H1 9912  -0.029   5.368   0.095
 3302TIP3    H2 9913   0.066   5.260   0.143
 3303TIP3   OH2 9914   6.316   2.276   4.846
 3303TIP3    H1 9915   6.242   2.215   4.845
 3303TIP3    H2 9916   6.293   2.340   4.913
 3304TIP3   OH2 9917   3.715   0.863   4.598
 3304TIP3    H1 9918   3.659   0.940   4.610
 3304TIP3    H2 9919   3.771   0.885   4.524
 3305TIP3   OH2 9920   4.867   5.504   3.378
 3305TIP3    H1 9921   4.813   5.445   3.430
 3305TIP3    H2 9922   4.807   5.573   3.350
 3306TIP3   OH2 9923   3.569   1.497   0.773
 3306TIP3    H1 9924   3.482   1.529   0.748
 3306TIP3    H2 9925   3.579   1.523   0.864
 3307TIP3   OH2 9926   2.772   4.098   1.824
 3307TIP3    H1 9927   2.753   4.179   1.872
 3307TIP3    H2 9928   2.786   4.033   1.893
 3308TIP3   OH2 9929   4.394   2.863   2.576
 3308TIP3    H1 9930   4.369   2.956   2.571
 3308TIP3    H2 9931   4.477   2.859   2.530
 3309TIP3   OH2 9932   1.554   1.101   1.536
 3309TIP3    H1 9933   1.594   1.188   1.544
 3309TIP3    H2 9934   1.504   1.090   1.616
 3310TIP3   OH2 9935   2.258   1.214   3.909
 3310TIP3    H1 9936   2.281   1.292   3.859
 3310TIP3    H2 9937   2.319   1.147   3.877
 3311TIP3   OH2 9938   0.592   3.129   4.203
 3311TIP3    H1 9939   0.649   3.136   4.280
 3311TIP3    H2 9940   0.509   3.168   4.232
 3312TIP3   OH2 9941   1.388   3.000   0.720
 3312TIP3    H1 9942   1.315   3.025   0.663
 3312TIP3    H2 9943   1.397   3.073   0.781
 3313TIP3   OH2 9944   1.229   2.455   0.141
 3313TIP3    H1 9945   1.263   2.530   0.188
 3313TIP3    H2 9946   1.233   2.383   0.204
 3314TIP3   OH2 9947   0.015   0.248   2.089
 3314TIP3    H1 9948   0.004   0.265   1.996
 3314TIP3    H2 9949   0.024   0.335   2.128
 3315TIP3   OH2 9950   1.851   3.691   4.758
 3315TIP3    H1 9951   1.832   3.784   4.751
 3315TIP3    H2 9952   1.868   3.663   4.668
 3316TIP3   OH2 9953   3.249   1.463   2.050
 3316TIP3    H1 9954   3.336   1.500   2.068
 3316TIP3    H2 9955   3.193   1.499   2.120
 3317TIP3   OH2 9956   2.312   5.204   2.841
 3317TIP3    H1 9957   2.294   5.264   2.914
 3317TIP3    H2 9958   2.310   5.260   2.763
 3318TIP3   OH2 9959   1.556   0.943   0.334
 3318TIP3    H1 9960   1.468   0.946   0.371
 3318TIP3    H2 9961   1.585   0.853   0.348
 3319TIP3   OH2 9962   5.459   2.241   4.417
 3319TIP3    H1 9963   5.554   2.241   4.418
 3319TIP3    H2 9964   5.434   2.183   4.489
 3320TIP3   OH2 9965   1.052   2.400   5.183
 3320TIP3    H1 9966   1.087   2.487   5.204
 3320TIP3    H2 9967   0.986   2.417   5.116
 3321TIP3   OH2 9968   5.459   0.965   4.803
 3321TIP3    H1 9969   5.513   0.991   4.877
 3321TIP3    H2 9970   5.518   0.919   4.745
 3322TIP3   OH2 9971   0.739   5.652   4.416
 3322TIP3    H1 9972   0.672   5.587   4.398
 3322TIP3    H2 9973   0.709   5.731   4.371
 3323TIP3   OH2 9974   3.874   2.825   0.602
 3323TIP3    H1 9975   3.938   2.762   0.635
 3323TIP3    H2 9976   3.900   2.840   0.511
 3324TIP3   OH2 9977   5.216   1.941   2.081
 3324TIP3    H1 9978   5.148   1.993   2.039
 3324TIP3    H2 9979   5.284   1.932   2.014
 3325TIP3   OH2 9980   3.882   1.925   4.626
 3325TIP3    H1 9981   3.846   1.936   4.714
 3325TIP3    H2 9982   3.977   1.930   4.639
 3326TIP3   OH2 9983   1.334   1.030   0.496
 3326TIP3    H1 9984   1.351   1.063   0.585
 3326TIP3    H2 9985   1.242   1.004   0.497
 3327TIP3   OH2 9986   3.799   2.653   4.134
 3327TIP3    H1 9987   3.825   2.585   4.072
 3327TIP3    H2 9988   3.829   2.621   4.219
 3328TIP3   OH2 9989   3.483   0.369   1.774
 3328TIP3    H1 9990   3.407   0.319   1.745
 3328TIP3    H2 9991   3.523   0.313   1.842
 3329TIP3   OH2 9992   2.628   2.138   3.115
 3329TIP3    H1 9993   2.585   2.169   3.035
 3329TIP3    H2 9994   2.596   2.049   3.127
 3330TIP3   OH2 9995   5.420   1.260   4.988
 3330TIP3    H1 9996   5.388   1.279   4.900
 3330TIP3    H2 9997   5.507   1.222   4.974
 3331TIP3   OH2 9998   3.006   2.033   1.766
 3331TIP3    H1 9999   3.100   2.024   1.750
 3331TIP3    H210000   2.983   1.955   1.816
 3332TIP3   OH210001   4.944   4.562   0.547
 3332TIP3    H110002   5.008   4.620   0.504
 3332TIP3    H210003   4.867   4.566   0.490
 3333TIP3   OH210004   6.008   2.351   2.064
 3333TIP3    H110005   5.989   2.261   2.091
 3333TIP3    H210006   6.103   2.354   2.057
 3334TIP3   OH210007   4.041   3.801   1.199
 3334TIP3    H110008   4.053   3.874   1.260
 3334TIP3    H210009   4.023   3.843   1.115
 3335TIP3   OH210010   5.770   3.663   4.192
 3335TIP3    H110011   5.771   3.575   4.231
 3335TIP3    H210012   5.809   3.651   4.105
 3336TIP3   OH210013   3.242   1.466   1.020
 3336TIP3    H110014   3.289   1.440   1.099
 3336TIP3    H210015   3.180   1.394   1.005
 3337TIP3   OH210016   5.155   3.548   0.267
 3337TIP3    H110017   5.140   3.482   0.335
 3337TIP3    H210018   5.120   3.629   0.304
 3338TIP3   OH210019   0.608   3.354   2.691
 3338TIP3    H110020   0.564   3.433   2.723
 3338TIP3    H210021   0.700   3.380   2.682
 3339TIP3   OH210022   0.679   2.515   0.573
 3339TIP3    H110023   0.676   2.559   0.658
 3339TIP3    H210024   0.590   2.482   0.560
 3340TIP3   OH210025   5.597   2.678   3.346
 3340TIP3    H110026   5.638   2.591   3.346
 3340TIP3    H210027   5.508   2.663   3.313
 3341TIP3   OH210028   4.460   5.371   2.900
 3341TIP3    H110029   4.410   5.411   2.971
 3341TIP3    H210030   4.396   5.362   2.829
 3342TIP3   OH210031   5.670   5.958   3.838
 3342TIP3    H110032   5.661   6.053   3.826
 3342TIP3    H210033   5.601   5.920   3.785
 3343TIP3   OH210034   1.823   4.324   3.209
 3343TIP3    H110035   1.902   4.272   3.225
 3343TIP3    H210036   1.767   4.266   3.158
 3344TIP3   OH210037   3.949   5.425   0.709
 3344TIP3    H110038   3.909   5.480   0.642
 3344TIP3    H210039   3.896   5.345   0.708
 3345TIP3   OH210040   5.362   4.262   3.506
 3345TIP3    H110041   5.310   4.260   3.426
 3345TIP3    H210042   5.446   4.299   3.480
 3346TIP3   OH210043   1.472   4.816   1.977
 3346TIP3    H110044   1.528   4.831   1.900
 3346TIP3    H210045   1.531   4.829   2.052
 3347TIP3   OH210046   3.327   5.795   1.723
 3347TIP3    H110047   3.256   5.783   1.786
 3347TIP3    H210048   3.397   5.836   1.774
 3348TIP3   OH210049   5.431   4.269   5.031
 3348TIP3    H110050   5.521   4.281   5.000
 3348TIP3    H210051   5.441   4.239   5.121
 3349TIP3   OH210052   3.894   3.650   1.501
 3349TIP3    H110053   3.897   3.582   1.435
 3349TIP3    H210054   3.858   3.607   1.579
 3350TIP3   OH210055   2.118   1.677   3.003
 3350TIP3    H110056   2.029   1.680   3.038
 3350TIP3    H210057   2.107   1.692   2.909
 3351TIP3   OH210058   0.324   4.739   4.453
 3351TIP3    H110059   0.237   4.774   4.435
 3351TIP3    H210060   0.308   4.664   4.510
 3352TIP3   OH210061   1.996   2.634   3.214
 3352TIP3    H110062   2.086   2.623   3.183
 3352TIP3    H210063   1.978   2.555   3.265
 3353TIP3   OH210064   3.878   4.764   2.566
 3353TIP3    H110065   3.827   4.686   2.585
 3353TIP3    H210066   3.866   4.820   2.642
 3354TIP3   OH210067   5.858   5.692   0.734
 3354TIP3    H110068   5.830   5.668   0.646
 3354TIP3    H210069   5.877   5.609   0.776
 3355TIP3   OH210070   5.216   3.965   2.756
 3355TIP3    H110071   5.152   3.986   2.824
 3355TIP3    H210072   5.188   3.879   2.722
 3356TIP3   OH210073   0.167   5.848   1.733
 3356TIP3    H110074   0.216   5.855   1.652
 3356TIP3    H210075   0.233   5.827   1.799
 3357TIP3   OH210076   0.175   1.376   0.073
 3357TIP3    H110077   0.117   1.368  -0.003
 3357TIP3    H210078   0.205   1.287   0.091
 3358TIP3   OH210079   4.298   3.235   1.630
 3358TIP3    H110080   4.210   3.226   1.595
 3358TIP3    H210081   4.330   3.145   1.637
 3359TIP3   OH210082   5.269   2.075   1.678
 3359TIP3    H110083   5.252   1.981   1.676
 3359TIP3    H210084   5.361   2.082   1.703
 3360TIP3   OH210085   0.182   4.148   5.069
 3360TIP3    H110086   0.177   4.064   5.116
 3360TIP3    H210087   0.231   4.206   5.128
 3361TIP3   OH210088   4.843   5.433   3.750
 3361TIP3    H110089   4.865   5.519   3.714
 3361TIP3    H210090   4.782   5.395   3.685
 3362TIP3   OH210091   4.989   0.301   0.026
 3362TIP3    H110092   5.070   0.263   0.059
 3362TIP3    H210093   4.997   0.395   0.045
 3363TIP3   OH210094   0.657   5.509   2.005
 3363TIP3    H110095   0.643   5.451   2.081
 3363TIP3    H210096   0.569   5.538   1.981
 3364TIP3   OH210097   2.395   1.677   3.037
 3364TIP3    H110098   2.303   1.674   3.064
 3364TIP3    H210099   2.444   1.684   3.119
 3365TIP3   OH210100   0.486   4.374   1.477
 3365TIP3    H110101   0.502   4.321   1.399
 3365TIP3    H210102   0.417   4.436   1.451
 3366TIP3   OH210103   4.198   2.474   5.018
 3366TIP3    H110104   4.227   2.419   5.090
 3366TIP3    H210105   4.205   2.563   5.052
 3367TIP3   OH210106   3.393   5.080   0.354
 3367TIP3    H110107   3.468   5.096   0.296
 3367TIP3    H210108   3.369   4.989   0.338
 3368TIP3   OH210109   3.548   1.535   1.664
 3368TIP3    H110110   3.605   1.460   1.683
 3368TIP3    H210111   3.460   1.505   1.688
 3369TIP3   OH210112   5.937   2.053   4.336
 3369TIP3    H110113   5.912   1.986   4.272
 3369TIP3    H210114   5.955   2.003   4.416
 3370TIP3   OH210115   2.144   0.645   1.450
 3370TIP3    H110116   2.240   0.635   1.449
 3370TIP3    H210117   2.111   0.556   1.452
 3371TIP3   OH210118   1.247   4.068   0.121
 3371TIP3    H110119   1.314   4.060   0.189
 3371TIP3    H210120   1.276   4.008   0.052
 3372TIP3   OH210121   0.979   4.570   1.600
 3372TIP3    H110122   0.914   4.562   1.669
 3372TIP3    H210123   0.967   4.491   1.546
 3373TIP3   OH210124   0.379   5.199   0.433
 3373TIP3    H110125   0.462   5.169   0.470
 3373TIP3    H210126   0.347   5.126   0.381
 3374TIP3   OH210127   4.798   1.891   2.648
 3374TIP3    H110128   4.760   1.955   2.588
 3374TIP3    H210129   4.874   1.857   2.600
 3375TIP3   OH210130   3.135   2.539   2.953
 3375TIP3    H110131   3.173   2.527   3.040
 3375TIP3    H210132   3.076   2.614   2.964
 3376TIP3   OH210133   3.154   3.794   2.393
 3376TIP3    H110134   3.176   3.850   2.468
 3376TIP3    H210135   3.086   3.736   2.427
 3377TIP3   OH210136   0.364   3.402   3.046
 3377TIP3    H110137   0.458   3.384   3.043
 3377TIP3    H210138   0.349   3.432   3.136
 3378TIP3   OH210139   4.477   0.219   3.976
 3378TIP3    H110140   4.401   0.238   3.921
 3378TIP3    H210141   4.546   0.276   3.941
 3379TIP3   OH210142   0.956   1.686   4.217
 3379TIP3    H110143   0.903   1.743   4.162
 3379TIP3    H210144   0.984   1.615   4.158
 3380TIP3   OH210145   5.057   5.492   4.721
 3380TIP3    H110146   5.152   5.482   4.722
 3380TIP3    H210147   5.024   5.408   4.689
 3381TIP3   OH210148   3.467   5.076   3.114
 3381TIP3    H110149   3.403   5.119   3.057
 3381TIP3    H210150   3.478   5.136   3.188
 3382TIP3   OH210151   1.214   0.823   0.871
 3382TIP3    H110152   1.263   0.896   0.908
 3382TIP3    H210153   1.236   0.749   0.927
 3383TIP3   OH210154   0.710   2.352   0.136
 3383TIP3    H110155   0.754   2.437   0.144
 3383TIP3    H210156   0.617   2.371   0.148
 3384TIP3   OH210157   0.155   4.800   1.118
 3384TIP3    H110158   0.148   4.835   1.029
 3384TIP3    H210159   0.225   4.736   1.114
 3385TIP3   OH210160   3.491   3.300   0.881
 3385TIP3    H110161   3.488   3.266   0.792
 3385TIP3    H210162   3.523   3.227   0.934
 3386TIP3   OH210163   0.369   1.442   0.419
 3386TIP3    H110164   0.389   1.530   0.386
 3386TIP3    H210165   0.444   1.389   0.392
 3387TIP3   OH210166   3.781   0.838   3.003
 3387TIP3    H110167   3.812   0.762   3.051
 3387TIP3    H210168   3.728   0.887   3.065
 3388TIP3   OH210169   3.595   5.925   3.659
 3388TIP3    H110170   3.641   6.009   3.660
 3388TIP3    H210171   3.548   5.924   3.576
 3389TIP3   OH210172   6.045   2.711   4.791
 3389TIP3    H110173   6.082   2.626   4.814
 3389TIP3    H210174   5.952   2.694   4.776
 3390TIP3   OH210175   5.773   4.931   4.474
 3390TIP3    H110176   5.704   4.966   4.530
 3390TIP3    H210177   5.727   4.870   4.415
 3391TIP3   OH210178   1.440   1.648   1.216
 3391TIP3    H110179   1.464   1.653   1.123
 3391TIP3    H210180   1.524   1.652   1.262
 3392TIP3   OH210181   4.617   2.661   0.583
 3392TIP3    H110182   4.653   2.690   0.499
 3392TIP3    H210183   4.578   2.576   0.565
 3393TIP3   OH210184   3.788   5.676   0.037
 3393TIP3    H110185   3.730   5.623   0.091
 3393TIP3    H210186   3.739   5.755   0.018
 3394TIP3   OH210187   2.361   4.605   4.835
 3394TIP3    H110188   2.312   4.524   4.847
 3394TIP3    H210189   2.301   4.674   4.860
 3395TIP3   OH210190   3.284   0.564   3.013
 3395TIP3    H110191   3.221   0.577   2.942
 3395TIP3    H210192   3.249   0.489   3.062
 3396TIP3   OH210193   2.446   2.191   1.455
 3396TIP3    H110194   2.489   2.112   1.488
 3396TIP3    H210195   2.353   2.174   1.468
 3397TIP3   OH210196   3.877   5.220   3.851
 3397TIP3    H110197   3.936   5.187   3.783
 3397TIP3    H210198   3.826   5.289   3.807
 3398TIP3   OH210199   2.539   3.919   3.914
 3398TIP3    H110200   2.559   3.990   3.853
 3398TIP3    H210201   2.462   3.951   3.962
 3399TIP3   OH210202   5.893   0.406   3.148
 3399TIP3    H110203   5.853   0.344   3.087
 3399TIP3    H210204   5.888   0.490   3.103
 3400TIP3   OH210205   5.326   0.398   2.998
 3400TIP3    H110206   5.350   0.385   2.906
 3400TIP3    H210207   5.235   0.370   3.004
 3401TIP3   OH210208   1.470   3.965   2.446
 3401TIP3    H110209   1.506   3.982   2.359
 3401TIP3    H210210   1.453   3.870   2.447
 3402TIP3   OH210211   4.505   4.188   0.365
 3402TIP3    H110212   4.594   4.157   0.378
 3402TIP3    H210213   4.456   4.111   0.338
 3403TIP3   OH210214   3.387   0.232   5.138
 3403TIP3    H110215   3.356   0.163   5.197
 3403TIP3    H210216   3.307   0.279   5.113
 3404TIP3   OH210217   2.207   2.376   2.977
 3404TIP3    H110218   2.152   2.436   2.927
 3404TIP3    H210219   2.296   2.395   2.948
 3405TIP3   OH210220   1.061   5.227   4.415
 3405TIP3    H110221   1.090   5.318   4.405
 3405TIP3    H210222   1.073   5.189   4.328
 3406TIP3   OH210223   2.568   5.078   3.134
 3406TIP3    H110224   2.579   5.098   3.228
 3406TIP3    H210225   2.533   5.159   3.097
 3407TIP3   OH210226   2.757   4.703   4.544
 3407TIP3    H110227   2.783   4.613   4.523
 3407TIP3    H210228   2.662   4.699   4.551
 3408TIP3   OH210229   2.922   0.667   0.719
 3408TIP3    H110230   2.888   0.578   0.726
 3408TIP3    H210231   2.887   0.699   0.636
 3409TIP3   OH210232   5.636   4.486   3.297
 3409TIP3    H110233   5.626   4.391   3.303
 3409TIP3    H210234   5.547   4.520   3.293
 3410TIP3   OH210235   0.636   3.163   0.520
 3410TIP3    H110236   0.587   3.151   0.439
 3410TIP3    H210237   0.724   3.186   0.491
 3411TIP3   OH210238   0.770   2.169   4.625
 3411TIP3    H110239   0.712   2.093   4.615
 3411TIP3    H210240   0.798   2.166   4.716
 3412TIP3   OH210241   0.718   5.203   3.154
 3412TIP3    H110242   0.744   5.234   3.068
 3412TIP3    H210243   0.750   5.270   3.214
 3413TIP3   OH210244   2.120   2.432   0.645
 3413TIP3    H110245   2.045   2.383   0.611
 3413TIP3    H210246   2.103   2.523   0.618
 3414TIP3   OH210247   0.179   3.295   0.193
 3414TIP3    H110248   0.215   3.219   0.147
 3414TIP3    H210249   0.094   3.309   0.152
 3415TIP3   OH210250   2.925   4.454   2.578
 3415TIP3    H110251   2.982   4.476   2.504
 3415TIP3    H210252   2.838   4.484   2.551
 3416TIP3   OH210253   4.692   2.840   3.367
 3416TIP3    H110254   4.704   2.873   3.457
 3416TIP3    H210255   4.600   2.857   3.348
 3417TIP3   OH210256   0.922   5.831   2.469
 3417TIP3    H110257   0.943   5.737   2.468
 3417TIP3    H210258   0.835   5.836   2.508
 3418TIP3   OH210259   5.198   2.741   4.086
 3418TIP3    H110260   5.156   2.719   4.003
 3418TIP3    H210261   5.252   2.818   4.067
 3419TIP3   OH210262   3.820   1.736   4.009
 3419TIP3    H110263   3.891   1.796   3.987
 3419TIP3    H210264   3.834   1.714   4.101
 3420TIP3   OH210265   4.313   3.285   3.050
 3420TIP3    H110266   4.257   3.212   3.025
 3420TIP3    H210267   4.336   3.328   2.968
 3421TIP3   OH210268   3.219   4.437   3.793
 3421TIP3    H110269   3.306   4.398   3.789
 3421TIP3    H210270   3.161   4.365   3.818
 3422TIP3   OH210271   2.998   1.580   2.587
 3422TIP3    H110272   3.051   1.554   2.662
 3422TIP3    H210273   3.062   1.610   2.522
 3423TIP3   OH210274   5.089   1.058   3.548
 3423TIP3    H110275   5.109   1.011   3.628
 3423TIP3    H210276   4.994   1.069   3.550
 3424TIP3   OH210277   3.151   0.705   1.653
 3424TIP3    H110278   3.058   0.696   1.673
 3424TIP3    H210279   3.196   0.661   1.725
 3425TIP3   OH210280   1.993   1.706   3.450
 3425TIP3    H110281   1.955   1.738   3.532
 3425TIP3    H210282   2.014   1.785   3.400
 3426TIP3   OH210283   0.672   0.364   4.831
 3426TIP3    H110284   0.660   0.416   4.752
 3426TIP3    H210285   0.753   0.397   4.870
 3427TIP3   OH210286   5.796   3.620   1.753
 3427TIP3    H110287   5.765   3.549   1.698
 3427TIP3    H210288   5.835   3.682   1.692
 3428TIP3   OH210289   1.816   3.659   1.749
 3428TIP3    H110290   1.890   3.719   1.752
 3428TIP3    H210291   1.854   3.573   1.766
 3429TIP3   OH210292   2.237   2.646   2.179
 3429TIP3    H110293   2.246   2.559   2.139
 3429TIP3    H210294   2.191   2.630   2.261
 3430TIP3   OH210295   3.891   4.131   0.353
 3430TIP3    H110296   3.931   4.214   0.378
 3430TIP3    H210297   3.852   4.098   0.433
 3431TIP3   OH210298   1.328   1.104   1.842
 3431TIP3    H110299   1.303   1.130   1.930
 3431TIP3    H210300   1.373   1.020   1.853
 3432TIP3   OH210301   6.385   5.718   2.897
 3432TIP3    H110302   6.323   5.699   2.968
 3432TIP3    H210303   6.333   5.767   2.834
 3433TIP3   OH210304   4.910   4.349   2.319
 3433TIP3    H110305   4.826   4.318   2.285
 3433TIP3    H210306   4.892   4.374   2.410
 3434TIP3   OH210307   5.872   0.716   5.034
 3434TIP3    H110308   5.920   0.747   4.957
 3434TIP3    H210309   5.804   0.659   4.999
 3435TIP3   OH210310   1.491   4.919   3.074
 3435TIP3    H110311   1.431   4.978   3.028
 3435TIP3    H210312   1.480   4.942   3.166
 3436TIP3   OH210313   5.019   1.882   0.276
 3436TIP3    H110314   5.045   1.830   0.199
 3436TIP3    H210315   5.062   1.839   0.349
 3437TIP3   OH210316   3.134   2.771   5.123
 3437TIP3    H110317   3.171   2.751   5.209
 3437TIP3    H210318   3.110   2.686   5.087
 3438TIP3   OH210319   4.816   5.656   0.079
 3438TIP3    H110320   4.764   5.576   0.072
 3438TIP3    H210321   4.843   5.660   0.171
 3439TIP3   OH210322   0.603   0.685   2.939
 3439TIP3    H110323   0.527   0.663   2.993
 3439TIP3    H210324   0.589   0.776   2.913
 3440TIP3   OH210325   5.496   3.454   1.978
 3440TIP3    H110326   5.485   3.548   1.966
 3440TIP3    H210327   5.585   3.445   2.013
 3441TIP3   OH210328   2.517   0.517   2.541
 3441TIP3    H110329   2.576   0.452   2.503
 3441TIP3    H210330   2.556   0.538   2.626
 3442TIP3   OH210331   2.572   5.153   5.057
 3442TIP3    H110332   2.648   5.110   5.018
 3442TIP3    H210333   2.496   5.108   5.019
 3443TIP3   OH210334   5.363   3.411   3.867
 3443TIP3    H110335   5.366   3.339   3.804
 3443TIP3    H210336   5.447   3.455   3.856
 3444TIP3   OH210337   1.064   3.566   4.400
 3444TIP3    H110338   1.046   3.660   4.398
 3444TIP3    H210339   1.121   3.551   4.324
 3445TIP3   OH210340   3.433   0.411   2.406
 3445TIP3    H110341   3.420   0.324   2.367
 3445TIP3    H210342   3.356   0.461   2.378
 3446TIP3   OH210343   5.092   3.493   4.377
 3446TIP3    H110344   5.080   3.551   4.452
 3446TIP3    H210345   5.032   3.527   4.311
 3447TIP3   OH210346   3.998   2.560   1.809
 3447TIP3    H110347   4.036   2.625   1.868
 3447TIP3    H210348   4.069   2.537   1.749
 3448TIP3   OH210349   2.076   2.664   3.533
 3448TIP3    H110350   2.164   2.664   3.570
 3448TIP3    H210351   2.051   2.756   3.531
 3449TIP3   OH210352   0.442   4.997   4.342
 3449TIP3    H110353   0.402   5.010   4.428
 3449TIP3    H210354   0.500   5.072   4.330
 3450TIP3   OH210355   0.361   4.486   0.484
 3450TIP3    H110356   0.382   4.405   0.438
 3450TIP3    H210357   0.265   4.489   0.485
 3451TIP3   OH210358   2.780   1.680   0.610
 3451TIP3    H110359   2.741   1.767   0.601
 3451TIP3    H210360   2.741   1.645   0.690
 3452TIP3   OH210361   4.274   5.119   4.028
 3452TIP3    H110362   4.299   5.071   3.949
 3452TIP3    H210363   4.219   5.191   3.997
 3453TIP3   OH210364   5.566   0.302   0.124
 3453TIP3    H110365   5.561   0.339   0.036
 3453TIP3    H210366   5.612   0.219   0.112
 3454TIP3   OH210367   3.881   1.991   1.510
 3454TIP3    H110368   3.921   2.072   1.542
 3454TIP3    H210369   3.854   2.011   1.421
 3455TIP3   OH210370   3.898   1.350   4.581
 3455TIP3    H110371   3.912   1.370   4.489
 3455TIP3    H210372   3.938   1.264   4.593
 3456TIP3   OH210373   1.101   4.144   4.948
 3456TIP3    H110374   1.153   4.218   4.982
 3456TIP3    H210375   1.153   4.067   4.971
 3457TIP3   OH210376   3.516   5.949   2.728
 3457TIP3    H110377   3.444   5.918   2.671
 3457TIP3    H210378   3.587   5.970   2.667
 3458TIP3   OH210379   0.742   1.023   5.041
 3458TIP3    H110380   0.700   0.938   5.058
 3458TIP3    H210381   0.789   1.009   4.959
 3459TIP3   OH210382   3.963   1.610   2.062
 3459TIP3    H110383   4.001   1.638   1.979
 3459TIP3    H210384   3.868   1.619   2.048
 3460TIP3   OH210385   1.345   5.220   0.525
 3460TIP3    H110386   1.406   5.147   0.536
 3460TIP3    H210387   1.374   5.262   0.444
 3461TIP3   OH210388   3.253   5.972   1.950
 3461TIP3    H110389   3.196   6.046   1.970
 3461TIP3    H210390   3.193   5.898   1.939
 3462TIP3   OH210391   4.323   0.090   0.418
 3462TIP3    H110392   4.348   0.008   0.375
 3462TIP3    H210393   4.228   0.083   0.429
 3463TIP3   OH210394   5.058   5.555   1.525
 3463TIP3    H110395   4.990   5.619   1.502
 3463TIP3    H210396   5.135   5.583   1.476
 3464TIP3   OH210397   0.266   1.600   1.183
 3464TIP3    H110398   0.203   1.547   1.232
 3464TIP3    H210399   0.336   1.539   1.161
 3465TIP3   OH210400   2.084   2.375   4.288
 3465TIP3    H110401   2.142   2.299   4.278
 3465TIP3    H210402   2.119   2.422   4.364
 3466TIP3   OH210403   3.047   5.797   3.219
 3466TIP3    H110404   3.066   5.890   3.210
 3466TIP3    H210405   3.005   5.773   3.136
 3467TIP3   OH210406   2.521   4.646   3.721
 3467TIP3    H110407   2.568   4.601   3.650
 3467TIP3    H210408   2.530   4.587   3.796
 3468TIP3   OH210409   1.161   5.189   0.728
 3468TIP3    H110410   1.141   5.099   0.755
 3468TIP3    H210411   1.225   5.179   0.658
 3469TIP3   OH210412   5.949   0.131   5.160
 3469TIP3    H110413   6.041   0.157   5.164
 3469TIP3    H210414   5.905   0.186   5.224
 3470TIP3   OH210415   1.295   3.962   4.613
 3470TIP3    H110416   1.313   3.895   4.680
 3470TIP3    H210417   1.367   3.951   4.550
 3471TIP3   OH210418   6.171   1.042   0.733
 3471TIP3    H110419   6.201   1.077   0.817
 3471TIP3    H210420   6.212   1.099   0.668
 3472TIP3   OH210421   1.361   5.942   0.297
 3472TIP3    H110422   1.418   5.993   0.355
 3472TIP3    H210423   1.308   6.008   0.252
 3473TIP3   OH210424   5.022   5.687   4.151
 3473TIP3    H110425   5.106   5.658   4.115
 3473TIP3    H210426   4.994   5.615   4.207
 3474TIP3   OH210427   6.204   1.491   4.661
 3474TIP3    H110428   6.155   1.431   4.605
 3474TIP3    H210429   6.217   1.442   4.742
 3475TIP3   OH210430   2.050   5.482   1.518
 3475TIP3    H110431   1.983   5.473   1.585
 3475TIP3    H210432   2.132   5.462   1.564
 3476TIP3   OH210433   1.009   1.517   4.004
 3476TIP3    H110434   1.046   1.428   4.007
 3476TIP3    H210435   1.023   1.546   3.914
 3477TIP3   OH210436   2.253   4.734   3.594
 3477TIP3    H110437   2.333   4.704   3.637
 3477TIP3    H210438   2.280   4.752   3.504
 3478TIP3   OH210439   3.782   5.507   4.924
 3478TIP3    H110440   3.789   5.417   4.957
 3478TIP3    H210441   3.760   5.559   5.001
 3479TIP3   OH210442   3.946   2.690   1.383
 3479TIP3    H110443   4.018   2.628   1.375
 3479TIP3    H210444   3.894   2.656   1.456
 3480TIP3   OH210445   5.701   3.088   3.409
 3480TIP3    H110446   5.687   3.046   3.494
 3480TIP3    H210447   5.784   3.052   3.378
 3481TIP3   OH210448   3.413   3.584   3.830
 3481TIP3    H110449   3.425   3.532   3.751
 3481TIP3    H210450   3.328   3.556   3.864
 3482TIP3   OH210451   4.128   0.736   3.811
 3482TIP3    H110452   4.130   0.768   3.721
 3482TIP3    H210453   4.198   0.671   3.815
 3483TIP3   OH210454   4.114   4.711   3.396
 3483TIP3    H110455   4.042   4.648   3.407
 3483TIP3    H210456   4.188   4.670   3.440
 3484TIP3   OH210457   5.574   4.138   1.375
 3484TIP3    H110458   5.599   4.186   1.296
 3484TIP3    H210459   5.594   4.198   1.447
 3485TIP3   OH210460   4.167   4.030   1.079
 3485TIP3    H110461   4.242   4.034   1.021
 3485TIP3    H210462   4.096   3.997   1.025
 3486TIP3   OH210463   3.870   0.774   0.605
 3486TIP3    H110464   3.865   0.694   0.657
 3486TIP3    H210465   3.807   0.833   0.646
 3487TIP3   OH210466   6.179   2.727   3.847
 3487TIP3    H110467   6.129   2.799   3.884
 3487TIP3    H210468   6.158   2.651   3.902
 3488TIP3   OH210469   4.290   0.401   4.549
 3488TIP3    H110470   4.296   0.468   4.617
 3488TIP3    H210471   4.232   0.334   4.586
 3489TIP3   OH210472   1.844   3.955   3.298
 3489TIP3    H110473   1.912   4.017   3.272
 3489TIP3    H210474   1.795   3.939   3.217
 3490TIP3   OH210475   2.226   4.332   3.911
 3490TIP3    H110476   2.305   4.353   3.961
 3490TIP3    H210477   2.246   4.364   3.822
 3491TIP3   OH210478   1.571   2.706   0.504
 3491TIP3    H110479   1.597   2.789   0.544
 3491TIP3    H210480   1.605   2.639   0.563
 3492TIP3   OH210481   4.799   1.065   3.483
 3492TIP3    H110482   4.758   1.118   3.551
 3492TIP3    H210483   4.814   0.980   3.524
 3493TIP3   OH210484   2.413   3.068   0.741
 3493TIP3    H110485   2.390   3.154   0.775
 3493TIP3    H210486   2.409   3.010   0.818
 3494TIP3   OH210487   4.776   3.173   1.801
 3494TIP3    H110488   4.750   3.093   1.846
 3494TIP3    H210489   4.761   3.243   1.864
 3495TIP3   OH210490   5.966   3.970   3.945
 3495TIP3    H110491   5.965   4.026   3.867
 3495TIP3    H210492   5.877   3.976   3.979
 3496TIP3   OH210493   0.210   5.556   1.599
 3496TIP3    H110494   0.136   5.547   1.658
 3496TIP3    H210495   0.235   5.466   1.578
 3497TIP3   OH210496   6.132   5.191   1.138
 3497TIP3    H110497   6.209   5.195   1.082
 3497TIP3    H210498   6.081   5.118   1.103
 3498TIP3   OH210499   3.841   5.023   3.399
 3498TIP3    H110500   3.836   4.995   3.308
 3498TIP3    H210501   3.752   5.054   3.419
 3499TIP3   OH210502   1.549   0.083   1.726
 3499TIP3    H110503   1.568   0.175   1.711
 3499TIP3    H210504   1.568   0.069   1.819
 3500TIP3   OH210505   2.075   3.956   4.411
 3500TIP3    H110506   2.155   4.009   4.408
 3500TIP3    H210507   2.103   3.869   4.385
 3501TIP3   OH210508   4.239   4.529   3.103
 3501TIP3    H110509   4.298   4.453   3.109
 3501TIP3    H210510   4.257   4.580   3.182
 3502TIP3   OH210511   4.701   1.853   3.463
 3502TIP3    H110512   4.650   1.928   3.494
 3502TIP3    H210513   4.742   1.818   3.543
 3503TIP3   OH210514   0.931   1.958   0.035
 3503TIP3    H110515   0.906   2.045   0.004
 3503TIP3    H210516   0.855   1.927   0.085
 3504TIP3   OH210517   5.399   5.759   4.689
 3504TIP3    H110518   5.445   5.677   4.707
 3504TIP3    H210519   5.342   5.738   4.615
 3505TIP3   OH210520   2.365   5.770   2.161
 3505TIP3    H110521   2.323   5.685   2.147
 3505TIP3    H210522   2.418   5.784   2.083
 3506TIP3   OH210523   3.867   2.402   3.254
 3506TIP3    H110524   3.901   2.382   3.341
 3506TIP3    H210525   3.932   2.367   3.193
 3507TIP3   OH210526   1.065   2.551   2.247
 3507TIP3    H110527   0.972   2.533   2.235
 3507TIP3    H210528   1.104   2.465   2.266
 3508TIP3   OH210529   1.557   5.194   5.203
 3508TIP3    H110530   1.520   5.254   5.139
 3508TIP3    H210531   1.616   5.139   5.153
 3509TIP3   OH210532   4.015   0.324   2.823
 3509TIP3    H110533   3.951   0.391   2.803
 3509TIP3    H210534   4.067   0.315   2.744
 3510TIP3   OH210535   1.867   5.628  -0.013
 3510TIP3    H110536   1.910   5.703   0.028
 3510TIP3    H210537   1.774   5.651  -0.013
 3511TIP3   OH210538   3.017   4.105   0.325
 3511TIP3    H110539   3.075   4.126   0.398
 3511TIP3    H210540   2.956   4.178   0.321
 3512TIP3   OH210541   6.135   0.358   1.513
 3512TIP3    H110542   6.083   0.318   1.583
 3512TIP3    H210543   6.206   0.295   1.498
 3513TIP3   OH210544   2.724   5.905   3.129
 3513TIP3    H110545   2.767   5.894   3.214
 3513TIP3    H210546   2.651   5.965   3.147
 3514TIP3   OH210547   2.161   3.227   1.803
 3514TIP3    H110548   2.158   3.161   1.734
 3514TIP3    H210549   2.225   3.193   1.866
 3515TIP3   OH210550   6.180   0.182   0.242
 3515TIP3    H110551   6.218   0.196   0.156
 3515TIP3    H210552   6.174   0.270   0.280
 3516TIP3   OH210553   5.420   1.448   1.503
 3516TIP3    H110554   5.377   1.386   1.562
 3516TIP3    H210555   5.353   1.513   1.483
 3517TIP3   OH210556   0.985   2.547   1.870
 3517TIP3    H110557   1.023   2.461   1.889
 3517TIP3    H210558   1.010   2.565   1.780
 3518TIP3   OH210559   5.141   1.049   3.259
 3518TIP3    H110560   5.150   1.055   3.354
 3518TIP3    H210561   5.084   1.122   3.235
 3519TIP3   OH210562   5.569   3.774   0.984
 3519TIP3    H110563   5.478   3.801   0.999
 3519TIP3    H210564   5.612   3.791   1.068
 3520TIP3   OH210565   0.363   2.656   2.907
 3520TIP3    H110566   0.363   2.655   2.811
 3520TIP3    H210567   0.300   2.725   2.930
 3521TIP3   OH210568   3.302   5.674   0.054
 3521TIP3    H110569   3.257   5.682   0.138
 3521TIP3    H210570   3.235   5.692  -0.012
 3522TIP3   OH210571   1.465   4.982   3.328
 3522TIP3    H110572   1.487   5.068   3.365
 3522TIP3    H210573   1.490   4.919   3.397
 3523TIP3   OH210574   5.880   4.787   3.502
 3523TIP3    H110575   5.817   4.851   3.468
 3523TIP3    H210576   5.919   4.830   3.578
 3524TIP3   OH210577   2.881   3.449   4.191
 3524TIP3    H110578   2.948   3.433   4.257
 3524TIP3    H210579   2.848   3.362   4.168
 3525TIP3   OH210580   2.541   3.669   4.020
 3525TIP3    H110581   2.549   3.763   4.004
 3525TIP3    H210582   2.535   3.629   3.933
 3526TIP3   OH210583   2.384   1.207   2.483
 3526TIP3    H110584   2.319   1.262   2.438
 3526TIP3    H210585   2.404   1.255   2.563
 3527TIP3   OH210586   2.772   5.141   4.673
 3527TIP3    H110587   2.679   5.119   4.686
 3527TIP3    H210588   2.777   5.170   4.582
 3528TIP3   OH210589   4.774   0.510   0.177
 3528TIP3    H110590   4.786   0.451   0.252
 3528TIP3    H210591   4.862   0.525   0.144
 3529TIP3   OH210592   4.265   5.034   1.905
 3529TIP3    H110593   4.252   4.982   1.826
 3529TIP3    H210594   4.204   4.997   1.968
 3530TIP3   OH210595   2.419   1.003   0.436
 3530TIP3    H110596   2.443   1.090   0.467
 3530TIP3    H210597   2.325   0.997   0.451
 3531TIP3   OH210598   2.792   0.987   3.502
 3531TIP3    H110599   2.887   0.983   3.490
 3531TIP3    H210600   2.774   0.926   3.573
 3532TIP3   OH210601   4.090   5.266   1.983
 3532TIP3    H110602   4.069   5.248   2.075
 3532TIP3    H210603   4.185   5.254   1.978
 3533TIP3   OH210604   5.023   0.427   3.782
 3533TIP3    H110605   5.065   0.503   3.742
 3533TIP3    H210606   4.930   0.438   3.760
 3534TIP3   OH210607   4.536   4.896   2.294
 3534TIP3    H110608   4.460   4.865   2.343
 3534TIP3    H210609   4.596   4.927   2.362
 3535TIP3   OH210610   4.924   2.807   2.069
 3535TIP3    H110611   5.019   2.796   2.079
 3535TIP3    H210612   4.902   2.876   2.132
 3536TIP3   OH210613   3.423   2.388   4.877
 3536TIP3    H110614   3.334   2.383   4.844
 3536TIP3    H210615   3.429   2.474   4.919
 3537TIP3   OH210616   3.839   5.338   3.195
 3537TIP3    H110617   3.889   5.340   3.277
 3537TIP3    H210618   3.891   5.283   3.136
 3538TIP3   OH210619   1.952   5.780   0.841
 3538TIP3    H110620   2.031   5.828   0.865
 3538TIP3    H210621   1.960   5.766   0.747
 3539TIP3   OH210622   2.853   0.129   2.153
 3539TIP3    H110623   2.761   0.139   2.179
 3539TIP3    H210624   2.903   0.147   2.233
 3540TIP3   OH210625   1.340   3.658   0.627
 3540TIP3    H110626   1.315   3.675   0.718
 3540TIP3    H210627   1.309   3.734   0.579
 3541TIP3   OH210628   1.575   0.711   1.648
 3541TIP3    H110629   1.565   0.779   1.715
 3541TIP3    H210630   1.617   0.638   1.694
 3542TIP3   OH210631   2.858   1.076   4.806
 3542TIP3    H110632   2.923   1.139   4.835
 3542TIP3    H210633   2.850   1.014   4.879
 3543TIP3   OH210634   2.149   1.163   4.169
 3543TIP3    H110635   2.056   1.150   4.153
 3543TIP3    H210636   2.190   1.152   4.083
 3544TIP3   OH210637   0.598   1.153   0.665
 3544TIP3    H110638   0.627   1.244   0.666
 3544TIP3    H210639   0.674   1.103   0.635
 3545TIP3   OH210640   2.215   3.925   3.687
 3545TIP3    H110641   2.292   3.953   3.639
 3545TIP3    H210642   2.172   4.006   3.714
 3546TIP3   OH210643   4.714   0.058   4.788
 3546TIP3    H110644   4.800   0.035   4.753
 3546TIP3    H210645   4.709   0.012   4.872
 3547TIP3   OH210646   3.200   4.349   2.113
 3547TIP3    H110647   3.143   4.291   2.164
 3547TIP3    H210648   3.234   4.294   2.042
 3548TIP3   OH210649   3.017   4.072   3.736
 3548TIP3    H110650   3.067   4.109   3.808
 3548TIP3    H210651   3.017   4.141   3.669
 3549TIP3   OH210652   5.632   3.488   3.824
 3549TIP3    H110653   5.653   3.525   3.910
 3549TIP3    H210654   5.704   3.428   3.805
 3550TIP3   OH210655   5.635   3.232   2.255
 3550TIP3    H110656   5.671   3.154   2.213
 3550TIP3    H210657   5.636   3.212   2.348
 3551TIP3   OH210658   2.144   4.834   4.714
 3551TIP3    H110659   2.118   4.926   4.711
 3551TIP3    H210660   2.180   4.816   4.627
 3552TIP3   OH210661   6.088   2.092   4.870
 3552TIP3    H110662   6.108   2.100   4.964
 3552TIP3    H210663   6.043   2.008   4.863
 3553TIP3   OH210664   0.807   4.472   3.818
 3553TIP3    H110665   0.731   4.415   3.826
 3553TIP3    H210666   0.837   4.485   3.907
 3554TIP3   OH210667   2.644   1.154   3.009
 3554TIP3    H110668   2.689   1.204   2.942
 3554TIP3    H210669   2.712   1.130   3.072
 3555TIP3   OH210670   0.120   4.104   4.790
 3555TIP3    H110671   0.197   4.092   4.735
 3555TIP3    H210672   0.155   4.132   4.875
 3556TIP3   OH210673   4.561   4.739   4.520
 3556TIP3    H110674   4.543   4.831   4.536
 3556TIP3    H210675   4.657   4.733   4.519
 3557TIP3   OH210676   2.333   1.064   3.505
 3557TIP3    H110677   2.390   1.108   3.441
 3557TIP3    H210678   2.279   1.005   3.452
 3558TIP3   OH210679   5.663   1.399   2.711
 3558TIP3    H110680   5.741   1.455   2.720
 3558TIP3    H210681   5.696   1.319   2.669
 3559TIP3   OH210682   3.282   5.388   0.720
 3559TIP3    H110683   3.196   5.370   0.683
 3559TIP3    H210684   3.264   5.433   0.802
 3560TIP3   OH210685   5.124   1.953   4.451
 3560TIP3    H110686   5.045   1.930   4.400
 3560TIP3    H210687   5.174   1.871   4.454
 3561TIP3   OH210688   0.622   2.248   1.778
 3561TIP3    H110689   0.668   2.327   1.752
 3561TIP3    H210690   0.654   2.228   1.866
 3562TIP3   OH210691   0.084   3.171   3.029
 3562TIP3    H110692   0.106   3.243   2.970
 3562TIP3    H210693   0.015   3.122   2.983
 3563TIP3   OH210694   4.613   0.281  -0.012
 3563TIP3    H110695   4.615   0.358   0.046
 3563TIP3    H210696   4.609   0.206   0.048
 3564TIP3   OH210697   5.182   5.043   2.776
 3564TIP3    H110698   5.170   4.948   2.777
 3564TIP3    H210699   5.132   5.074   2.851
 3565TIP3   OH210700   4.388   2.724   3.288
 3565TIP3    H110701   4.381   2.645   3.342
 3565TIP3    H210702   4.333   2.788   3.333
 3566TIP3   OH210703   5.731   1.954   3.679
 3566TIP3    H110704   5.654   2.011   3.673
 3566TIP3    H210705   5.732   1.926   3.770
 3567TIP3   OH210706   2.970   5.484   2.646
 3567TIP3    H110707   2.927   5.498   2.562
 3567TIP3    H210708   2.906   5.514   2.711
 3568TIP3   OH210709   1.040   5.487   4.327
 3568TIP3    H110710   1.127   5.526   4.313
 3568TIP3    H210711   0.999   5.545   4.391
 3569TIP3   OH210712   4.806   5.595   1.144
 3569TIP3    H110713   4.817   5.506   1.110
 3569TIP3    H210714   4.852   5.650   1.081
 3570TIP3   OH210715   5.657   3.278   2.528
 3570TIP3    H110716   5.670   3.366   2.495
 3570TIP3    H210717   5.724   3.267   2.596
 3571TIP3   OH210718   0.910   3.320   1.640
 3571TIP3    H110719   0.966   3.325   1.718
 3571TIP3    H210720   0.894   3.412   1.617
 3572TIP3   OH210721   4.442   5.835   4.582
 3572TIP3    H110722   4.395   5.810   4.502
 3572TIP3    H210723   4.533   5.841   4.555
 3573TIP3   OH210724   1.097   4.958   3.880
 3573TIP3    H110725   1.043   5.009   3.819
 3573TIP3    H210726   1.034   4.919   3.941
 3574TIP3   OH210727   4.915   5.035   3.736
 3574TIP3    H110728   4.832   5.078   3.714
 3574TIP3    H210729   4.949   5.005   3.652
 3575TIP3   OH210730   1.798   5.931   2.757
 3575TIP3    H110731   1.787   5.893   2.669
 3575TIP3    H210732   1.875   5.888   2.792
 3576TIP3   OH210733   4.154   5.380   4.257
 3576TIP3    H110734   4.222   5.443   4.235
 3576TIP3    H210735   4.142   5.329   4.176
 3577TIP3   OH210736   5.803   4.131   0.836
 3577TIP3    H110737   5.836   4.194   0.773
 3577TIP3    H210738   5.802   4.048   0.788
 3578TIP3   OH210739   1.949   5.849   1.318
 3578TIP3    H110740   2.044   5.845   1.323
 3578TIP3    H210741   1.921   5.881   1.404
 3579TIP3   OH210742   5.694   0.357   1.371
 3579TIP3    H110743   5.777   0.394   1.344
 3579TIP3    H210744   5.703   0.263   1.355
 3580TIP3   OH210745   0.380   4.561   3.963
 3580TIP3    H110746   0.372   4.644   3.916
 3580TIP3    H210747   0.367   4.495   3.895
 3581TIP3   OH210748   2.242   1.664   3.979
 3581TIP3    H110749   2.288   1.598   4.031
 3581TIP3    H210750   2.201   1.614   3.908
 3582TIP3   OH210751   0.632   4.996   4.602
 3582TIP3    H110752   0.702   5.020   4.542
 3582TIP3    H210753   0.574   5.073   4.603
 3583TIP3   OH210754   0.503   1.466   1.163
 3583TIP3    H110755   0.528   1.420   1.082
 3583TIP3    H210756   0.586   1.480   1.209
 3584TIP3   OH210757   3.125   2.507   4.988
 3584TIP3    H110758   3.073   2.437   5.026
 3584TIP3    H210759   3.140   2.479   4.897
 3585TIP3   OH210760   2.528   5.429   2.156
 3585TIP3    H110761   2.600   5.492   2.163
 3585TIP3    H210762   2.558   5.367   2.089
 3586TIP3   OH210763   5.292   4.073   4.887
 3586TIP3    H110764   5.358   4.008   4.909
 3586TIP3    H210765   5.318   4.151   4.935
 3587TIP3   OH210766   0.654   0.805   0.044
 3587TIP3    H110767   0.637   0.895   0.016
 3587TIP3    H210768   0.656   0.754  -0.037
 3588TIP3   OH210769   2.806   1.843   4.834
 3588TIP3    H110770   2.725   1.821   4.788
 3588TIP3    H210771   2.869   1.779   4.802
 3589TIP3   OH210772   4.817   5.729   3.953
 3589TIP3    H110773   4.889   5.725   4.016
 3589TIP3    H210774   4.855   5.698   3.871
 3590TIP3   OH210775   1.094   4.458   3.999
 3590TIP3    H110776   1.110   4.472   3.906
 3590TIP3    H210777   1.044   4.376   4.002
 3591TIP3   OH210778   1.052   3.129   4.663
 3591TIP3    H110779   1.013   3.160   4.745
 3591TIP3    H210780   1.051   3.034   4.670
 3592TIP3   OH210781   1.590   0.924   3.956
 3592TIP3    H110782   1.601   0.917   4.051
 3592TIP3    H210783   1.507   0.880   3.938
 3593TIP3   OH210784   0.978   5.200   2.980
 3593TIP3    H110785   1.052   5.251   3.011
 3593TIP3    H210786   0.917   5.265   2.944
 3594TIP3   OH210787   3.217   5.364   1.834
 3594TIP3    H110788   3.299   5.405   1.807
 3594TIP3    H210789   3.240   5.311   1.910
 3595TIP3   OH210790   3.183   0.377   0.797
 3595TIP3    H110791   3.213   0.443   0.860
 3595TIP3    H210792   3.091   0.362   0.821
 3596TIP3   OH210793   3.487   3.737   5.183
 3596TIP3    H110794   3.422   3.801   5.209
 3596TIP3    H210795   3.524   3.772   5.102
 3597TIP3   OH210796   1.053   3.619   3.832
 3597TIP3    H110797   1.029   3.595   3.743
 3597TIP3    H210798   1.037   3.539   3.883
 3598TIP3   OH210799   0.858   3.981   3.887
 3598TIP3    H110800   0.900   4.020   3.811
 3598TIP3    H210801   0.918   3.913   3.916
 3599TIP3   OH210802   1.428   1.415   0.040
 3599TIP3    H110803   1.404   1.362   0.115
 3599TIP3    H210804   1.506   1.372   0.004
 3600TIP3   OH210805   2.203   3.280   1.418
 3600TIP3    H110806   2.223   3.360   1.466
 3600TIP3    H210807   2.271   3.275   1.350
 3601TIP3   OH210808   1.373   1.396   2.522
 3601TIP3    H110809   1.423   1.393   2.441
 3601TIP3    H210810   1.287   1.360   2.499
 3602TIP3   OH210811   5.159   1.100   0.299
 3602TIP3    H110812   5.246   1.139   0.305
 3602TIP3    H210813   5.157   1.059   0.212
 3603TIP3   OH210814   2.455   2.537   0.182
 3603TIP3    H110815   2.381   2.534   0.242
 3603TIP3    H210816   2.469   2.630   0.165
 3604TIP3   OH210817   4.962   4.073   2.832
 3604TIP3    H110818   4.996   4.085   2.921
 3604TIP3    H210819   5.016   4.131   2.778
 3605TIP3   OH210820   4.565   0.004   2.821
 3605TIP3    H110821   4.547  -0.031   2.734
 3605TIP3    H210822   4.488   0.056   2.843
 3606TIP3   OH210823   1.191   3.118   2.180
 3606TIP3    H110824   1.248   3.085   2.110
 3606TIP3    H210825   1.233   3.089   2.261
 3607TIP3   OH210826   4.382   3.358   2.785
 3607TIP3    H110827   4.327   3.312   2.721
 3607TIP3    H210828   4.467   3.367   2.741
 3608TIP3   OH210829   2.014   5.390   1.824
 3608TIP3    H110830   2.077   5.394   1.895
 3608TIP3    H210831   2.017   5.300   1.792
 3609TIP3   OH210832   5.598   5.538   3.097
 3609TIP3    H110833   5.508   5.570   3.097
 3609TIP3    H210834   5.613   5.506   3.186
 3610TIP3   OH210835   3.446   3.581   1.952
 3610TIP3    H110836   3.425   3.583   2.046
 3610TIP3    H210837   3.483   3.667   1.934
 3611TIP3   OH210838   0.844   5.605   1.675
 3611TIP3    H110839   0.851   5.579   1.766
 3611TIP3    H210840   0.752   5.628   1.663
 3612TIP3   OH210841   0.769   3.523   4.734
 3612TIP3    H110842   0.849   3.499   4.687
 3612TIP3    H210843   0.760   3.455   4.801
 3613TIP3   OH210844   4.424   2.418   1.386
 3613TIP3    H110845   4.354   2.361   1.353
 3613TIP3    H210846   4.446   2.382   1.472
 3614TIP3   OH210847   1.935   4.613   2.387
 3614TIP3    H110848   1.855   4.649   2.425
 3614TIP3    H210849   1.937   4.522   2.416
 3615TIP3   OH210850   4.739   2.895   3.893
 3615TIP3    H110851   4.673   2.867   3.956
 3615TIP3    H210852   4.763   2.983   3.921
 3616TIP3   OH210853   1.986   3.882   1.025
 3616TIP3    H110854   2.029   3.803   1.058
 3616TIP3    H210855   1.953   3.926   1.103
 3617TIP3   OH210856   1.923   0.268   3.448
 3617TIP3    H110857   1.941   0.176   3.430
 3617TIP3    H210858   1.832   0.280   3.422
 3618TIP3   OH210859   1.282   1.471   4.154
 3618TIP3    H110860   1.265   1.412   4.227
 3618TIP3    H210861   1.309   1.553   4.195
 3619TIP3   OH210862   6.122   1.889   1.423
 3619TIP3    H110863   6.029   1.888   1.446
 3619TIP3    H210864   6.129   1.953   1.352
 3620TIP3   OH210865   3.535   1.559   0.438
 3620TIP3    H110866   3.455   1.574   0.489
 3620TIP3    H210867   3.590   1.635   0.456
 3621TIP3   OH210868   1.335   1.564   4.574
 3621TIP3    H110869   1.258   1.516   4.544
 3621TIP3    H210870   1.331   1.648   4.528
 3622TIP3   OH210871   5.796   4.094   3.107
 3622TIP3    H110872   5.792   4.170   3.048
 3622TIP3    H210873   5.798   4.019   3.048
 3623TIP3   OH210874   4.763   1.819   0.391
 3623TIP3    H110875   4.850   1.826   0.352
 3623TIP3    H210876   4.747   1.905   0.430
 3624TIP3   OH210877   2.655   4.514   3.523
 3624TIP3    H110878   2.603   4.498   3.445
 3624TIP3    H210879   2.739   4.547   3.490
 3625TIP3   OH210880   4.974   5.210   4.664
 3625TIP3    H110881   5.015   5.209   4.577
 3625TIP3    H210882   4.972   5.118   4.690
 3626TIP3   OH210883   1.055   2.485   2.966
 3626TIP3    H110884   0.985   2.467   2.903
 3626TIP3    H210885   1.036   2.427   3.040
 3627TIP3   OH210886   2.053   2.054   2.001
 3627TIP3    H110887   2.082   2.136   1.963
 3627TIP3    H210888   2.089   2.054   2.090
 3628TIP3   OH210889   2.496   1.166   2.748
 3628TIP3    H110890   2.431   1.104   2.779
 3628TIP3    H210891   2.580   1.123   2.763
 3629TIP3   OH210892   1.644   5.194   1.932
 3629TIP3    H110893   1.587   5.137   1.982
 3629TIP3    H210894   1.732   5.177   1.966
 3630TIP3   OH210895   0.856   4.498   4.400
 3630TIP3    H110896   0.855   4.525   4.309
 3630TIP3    H210897   0.855   4.579   4.450
 3631TIP3   OH210898   5.860   5.646   1.136
 3631TIP3    H110899   5.908   5.729   1.132
 3631TIP3    H210900   5.906   5.589   1.074
 3632TIP3   OH210901   6.281   0.458   1.284
 3632TIP3    H110902   6.250   0.528   1.227
 3632TIP3    H210903   6.216   0.456   1.355
 3633TIP3   OH210904   2.461   4.668   4.302
 3633TIP3    H110905   2.433   4.676   4.393
 3633TIP3    H210906   2.380   4.670   4.251
 3634TIP3   OH210907   4.436   2.648   1.576
 3634TIP3    H110908   4.457   2.636   1.483
 3634TIP3    H210909   4.520   2.638   1.621
 3635TIP3   OH210910   3.090   0.215   1.427
 3635TIP3    H110911   3.118   0.148   1.490
 3635TIP3    H210912   3.092   0.170   1.342
 3636TIP3   OH210913   1.301   4.281   1.526
 3636TIP3    H110914   1.289   4.333   1.606
 3636TIP3    H210915   1.394   4.262   1.524
 3637TIP3   OH210916   5.766   1.070   3.441
 3637TIP3    H110917   5.674   1.050   3.455
 3637TIP3    H210918   5.777   1.158   3.477
 3638TIP3   OH210919   2.331   0.136   4.328
 3638TIP3    H110920   2.421   0.124   4.358
 3638TIP3    H210921   2.299   0.047   4.311
 3639TIP3   OH210922   5.892   0.634   0.891
 3639TIP3    H110923   5.901   0.540   0.903
 3639TIP3    H210924   5.813   0.645   0.838
 3640TIP3   OH210925   0.426   4.028   4.710
 3640TIP3    H110926   0.471   4.041   4.627
 3640TIP3    H210927   0.445   4.107   4.761
 3641TIP3   OH210928   4.674   2.537   1.256
 3641TIP3    H110929   4.676   2.495   1.342
 3641TIP3    H210930   4.593   2.505   1.215
 3642TIP3   OH210931   2.457   1.801   0.734
 3642TIP3    H110932   2.401   1.828   0.807
 3642TIP3    H210933   2.544   1.792   0.772
 3643TIP3   OH210934   0.944   2.220   0.839
 3643TIP3    H110935   0.991   2.242   0.919
 3643TIP3    H210936   1.001   2.250   0.768
 3644TIP3   OH210937   5.638   5.222   2.612
 3644TIP3    H110938   5.661   5.290   2.676
 3644TIP3    H210939   5.639   5.267   2.528
 3645TIP3   OH210940   2.904   2.820   2.663
 3645TIP3    H110941   2.976   2.882   2.656
 3645TIP3    H210942   2.830   2.871   2.696
 3646TIP3   OH210943   4.385   2.957   3.084
 3646TIP3    H110944   4.421   2.989   3.167
 3646TIP3    H210945   4.373   2.863   3.099
 3647TIP3   OH210946   1.088   4.854   3.117
 3647TIP3    H110947   1.171   4.809   3.104
 3647TIP3    H210948   1.112   4.939   3.153
 3648TIP3   OH210949   2.000   5.945   4.975
 3648TIP3    H110950   2.061   5.894   5.027
 3648TIP3    H210951   2.044   6.029   4.962
 3649TIP3   OH210952   4.655   2.060   0.465
 3649TIP3    H110953   4.665   2.149   0.431
 3649TIP3    H210954   4.592   2.068   0.536
 3650TIP3   OH210955   2.111   1.238   0.915
 3650TIP3    H110956   2.079   1.156   0.876
 3650TIP3    H210957   2.033   1.293   0.924
 3651TIP3   OH210958   0.860   4.397   0.689
 3651TIP3    H110959   0.780   4.445   0.664
 3651TIP3    H210960   0.863   4.323   0.629
 3652TIP3   OH210961   5.806   1.761   0.548
 3652TIP3    H110962   5.881   1.762   0.608
 3652TIP3    H210963   5.732   1.734   0.602
 3653TIP3   OH210964   2.573   2.278   4.497
 3653TIP3    H110965   2.657   2.276   4.543
 3653TIP3    H210966   2.580   2.354   4.439
 3654TIP3   OH210967   0.160   4.575   3.163
 3654TIP3    H110968   0.157   4.639   3.234
 3654TIP3    H210969   0.201   4.498   3.203
 3655TIP3   OH210970   6.297   4.158   3.640
 3655TIP3    H110971   6.297   4.162   3.735
 3655TIP3    H210972   6.319   4.067   3.619
 3656TIP3   OH210973   5.879   5.510   3.036
 3656TIP3    H110974   5.802   5.470   3.076
 3656TIP3    H210975   5.895   5.589   3.087
 3657TIP3   OH210976   5.817   2.257   0.900
 3657TIP3    H110977   5.830   2.267   0.805
 3657TIP3    H210978   5.747   2.192   0.907
 3658TIP3   OH210979   4.229   5.647   1.322
 3658TIP3    H110980   4.214   5.653   1.227
 3658TIP3    H210981   4.279   5.566   1.333
 3659TIP3   OH210982   4.402   4.776   1.375
 3659TIP3    H110983   4.404   4.845   1.309
 3659TIP3    H210984   4.383   4.696   1.326
 3660TIP3   OH210985   0.051   5.902   0.943
 3660TIP3    H110986   0.137   5.916   0.983
 3660TIP3    H210987   0.062   5.825   0.888
 3661TIP3   OH210988   1.522   5.348   0.329
 3661TIP3    H110989   1.530   5.424   0.387
 3661TIP3    H210990   1.612   5.319   0.315
 3662TIP3   OH210991   2.195   0.362   0.870
 3662TIP3    H110992   2.156   0.440   0.831
 3662TIP3    H210993   2.220   0.308   0.795
 3663TIP3   OH210994   3.098   5.511   5.127
 3663TIP3    H110995   3.054   5.555   5.199
 3663TIP3    H210996   3.035   5.512   5.055
 3664TIP3   OH210997   3.735   0.188   0.361
 3664TIP3    H110998   3.770   0.201   0.273
 3664TIP3    H210999   3.746   0.095   0.378
 3665TIP3   OH211000   3.301   2.152   2.390
 3665TIP3    H111001   3.283   2.163   2.296
 3665TIP3    H211002   3.377   2.094   2.393
 3666TIP3   OH211003   5.503   4.986   4.730
 3666TIP3    H111004   5.558   4.930   4.785
 3666TIP3    H211005   5.438   4.926   4.692
 3667TIP3   OH211006   4.654   3.625   2.986
 3667TIP3    H111007   4.681   3.701   2.934
 3667TIP3    H211008   4.622   3.563   2.921
 3668TIP3   OH211009   2.994   2.577   2.618
 3668TIP3    H111010   2.929   2.507   2.630
 3668TIP3    H211011   2.951   2.655   2.652
 3669TIP3   OH211012   3.612   4.264   3.267
 3669TIP3    H111013   3.538   4.218   3.227
 3669TIP3    H211014   3.678   4.196   3.280
 3670TIP3   OH211015   0.327   0.284   3.991
 3670TIP3    H111016   0.414   0.253   4.015
 3670TIP3    H211017   0.274   0.205   3.986
 3671TIP3   OH211018   0.111   1.741   4.293
 3671TIP3    H111019   0.140   1.795   4.220
 3671TIP3    H211020   0.145   1.786   4.371
 3672TIP3   OH211021   6.240   2.075   1.946
 3672TIP3    H111022   6.261   2.150   2.001
 3672TIP3    H211023   6.265   2.102   1.858
 3673TIP3   OH211024   1.852   1.619   1.065
 3673TIP3    H111025   1.887   1.531   1.074
 3673TIP3    H211026   1.778   1.611   1.005
 3674TIP3   OH211027   5.062   0.057   3.623
 3674TIP3    H111028   5.066   0.111   3.702
 3674TIP3    H211029   5.141   0.004   3.626
 3675TIP3   OH211030   0.069   0.096   0.474
 3675TIP3    H111031   0.076   0.181   0.431
 3675TIP3    H211032   0.134   0.042   0.431
 3676TIP3   OH211033   0.050   5.212   1.040
 3676TIP3    H111034   0.054   5.299   0.999
 3676TIP3    H211035   0.141   5.182   1.041
 3677TIP3   OH211036   2.401   2.356   1.695
 3677TIP3    H111037   2.459   2.405   1.753
 3677TIP3    H211038   2.435   2.373   1.607
 3678TIP3   OH211039   0.265   0.279   0.063
 3678TIP3    H111040   0.280   0.186   0.047
 3678TIP3    H211041   0.233   0.313  -0.021
 3679TIP3   OH211042   2.865   4.941   4.379
 3679TIP3    H111043   2.804   5.014   4.371
 3679TIP3    H211044   2.809   4.866   4.404
 3680TIP3   OH211045   0.865   5.753   0.734
 3680TIP3    H111046   0.845   5.827   0.676
 3680TIP3    H211047   0.871   5.678   0.676
 3681TIP3   OH211048   3.120   3.804   3.977
 3681TIP3    H111049   3.042   3.756   4.004
 3681TIP3    H211050   3.122   3.881   4.034
 3682TIP3   OH211051   1.400   3.463   3.051
 3682TIP3    H111052   1.418   3.451   2.958
 3682TIP3    H211053   1.400   3.375   3.087
 3683TIP3   OH211054   1.999   4.642   2.992
 3683TIP3    H111055   2.032   4.564   3.036
 3683TIP3    H211056   2.007   4.622   2.899
 3684TIP3   OH211057   0.886   0.888   2.997
 3684TIP3    H111058   0.886   0.833   2.918
 3684TIP3    H211059   0.794   0.899   3.018
 3685TIP3   OH211060   4.482   4.027   2.529
 3685TIP3    H111061   4.431   3.946   2.539
 3685TIP3    H211062   4.470   4.051   2.437
 3686TIP3   OH211063   5.146   3.564   3.604
 3686TIP3    H111064   5.213   3.519   3.553
 3686TIP3    H211065   5.188   3.643   3.636
 3687TIP3   OH211066   5.896   1.215   0.769
 3687TIP3    H111067   5.961   1.182   0.707
 3687TIP3    H211068   5.916   1.308   0.778
 3688TIP3   OH211069   4.662   4.663   3.405
 3688TIP3    H111070   4.641   4.570   3.408
 3688TIP3    H211071   4.673   4.688   3.496
 3689TIP3   OH211072   4.504   4.301   4.770
 3689TIP3    H111073   4.455   4.270   4.846
 3689TIP3    H211074   4.566   4.365   4.806
 3690TIP3   OH211075   3.312   1.077   2.797
 3690TIP3    H111076   3.357   1.098   2.879
 3690TIP3    H211077   3.382   1.068   2.732
 3691TIP3   OH211078   0.969   0.159   4.714
 3691TIP3    H111079   0.963   0.251   4.738
 3691TIP3    H211080   0.933   0.111   4.789
 3692TIP3   OH211081   5.485   1.845   0.941
 3692TIP3    H111082   5.542   1.815   1.012
 3692TIP3    H211083   5.402   1.798   0.956
 3693TIP3   OH211084   1.514   5.581   1.528
 3693TIP3    H111085   1.456   5.652   1.556
 3693TIP3    H211086   1.602   5.617   1.538
 3694TIP3   OH211087   4.348   0.909   0.041
 3694TIP3    H111088   4.294   0.848  -0.010
 3694TIP3    H211089   4.302   0.916   0.125
 3695TIP3   OH211090   2.974   2.380   2.803
 3695TIP3    H111091   3.040   2.435   2.845
 3695TIP3    H211092   2.952   2.315   2.869
 3696TIP3   OH211093   4.566   2.500   2.720
 3696TIP3    H111094   4.534   2.579   2.762
 3696TIP3    H211095   4.609   2.451   2.791
 3697TIP3   OH211096   3.793   4.903   5.022
 3697TIP3    H111097   3.825   4.955   4.948
 3697TIP3    H211098   3.801   4.812   4.992
 3698TIP3   OH211099   3.173   2.982   1.173
 3698TIP3    H111100   3.081   2.989   1.200
 3698TIP3    H211101   3.223   3.004   1.252
 3699TIP3   OH211102   3.860   2.052   3.179
 3699TIP3    H111103   3.923   2.106   3.229
 3699TIP3    H211104   3.819   1.996   3.245
 3700TIP3   OH211105   2.881   0.794   4.372
 3700TIP3    H111106   2.805   0.738   4.385
 3700TIP3    H211107   2.902   0.826   4.460
 3701TIP3   OH211108   0.906   4.494   2.355
 3701TIP3    H111109   0.874   4.539   2.276
 3701TIP3    H211110   0.995   4.526   2.366
 3702TIP3   OH211111   6.032   1.762   0.730
 3702TIP3    H111112   6.111   1.707   0.727
 3702TIP3    H211113   6.065   1.850   0.745
 3703TIP3   OH211114   0.785   5.377   4.208
 3703TIP3    H111115   0.879   5.385   4.192
 3703TIP3    H211116   0.748   5.462   4.183
 3704TIP3   OH211117   3.834   5.075   4.772
 3704TIP3    H111118   3.833   4.985   4.738
 3704TIP3    H211119   3.786   5.125   4.707
 3705TIP3   OH211120   0.014   1.260   2.039
 3705TIP3    H111121  -0.045   1.263   2.115
 3705TIP3    H211122   0.087   1.317   2.063
 3706TIP3   OH211123   2.233   3.921   0.116
 3706TIP3    H111124   2.180   3.845   0.093
 3706TIP3    H211125   2.202   3.947   0.203
 3707TIP3   OH211126   4.059   1.501   2.869
 3707TIP3    H111127   4.094   1.429   2.816
 3707TIP3    H211128   4.135   1.538   2.913
 3708TIP3   OH211129   4.321   4.974   4.835
 3708TIP3    H111130   4.324   4.899   4.894
 3708TIP3    H211131   4.413   5.001   4.826
 3709TIP3   OH211132   2.347   4.533   2.215
 3709TIP3    H111133   2.408   4.518   2.287
 3709TIP3    H211134   2.270   4.480   2.237
 3710TIP3   OH211135   2.436   0.294   0.283
 3710TIP3    H111136   2.478   0.331   0.360
 3710TIP3    H211137   2.508   0.269   0.225
 3711TIP3   OH211138   0.025   5.912   2.480
 3711TIP3    H111139  -0.017   5.853   2.417
 3711TIP3    H211140   0.056   5.986   2.427
 3712TIP3   OH211141   1.153   2.628   0.993
 3712TIP3    H111142   1.206   2.627   1.072
 3712TIP3    H211143   1.214   2.600   0.924
 3713TIP3   OH211144   4.236   5.617   4.140
 3713TIP3    H111145   4.198   5.680   4.078
 3713TIP3    H211146   4.312   5.581   4.093
 3714TIP3   OH211147   5.726   4.311   4.873
 3714TIP3    H111148   5.726   4.374   4.945
 3714TIP3    H211149   5.816   4.312   4.840
 3715TIP3   OH211150   2.899   0.713   0.343
 3715TIP3    H111151   2.861   0.783   0.290
 3715TIP3    H211152   2.971   0.755   0.390
 3716TIP3   OH211153   2.730   0.918   1.425
 3716TIP3    H111154   2.666   0.975   1.467
 3716TIP3    H211155   2.788   0.890   1.496
 3717TIP3   OH211156   4.560   1.748   0.241
 3717TIP3    H111157   4.635   1.769   0.297
 3717TIP3    H211158   4.496   1.816   0.261
 3718TIP3   OH211159   0.201   5.398   0.709
 3718TIP3    H111160   0.285   5.418   0.669
 3718TIP3    H211161   0.211   5.422   0.801
 3719TIP3   OH211162   5.063   5.741   1.044
 3719TIP3    H111163   5.158   5.740   1.054
 3719TIP3    H211164   5.032   5.802   1.110
 3720TIP3   OH211165   5.570   0.257   3.615
 3720TIP3    H111166   5.487   0.269   3.569
 3720TIP3    H211167   5.546   0.219   3.699
 3721TIP3   OH211168   3.667   2.989   3.845
 3721TIP3    H111169   3.629   2.911   3.804
 3721TIP3    H211170   3.602   3.058   3.832
 3722TIP3   OH211171   0.419   3.103   1.690
 3722TIP3    H111172   0.436   3.043   1.762
 3722TIP3    H211173   0.333   3.140   1.709
 3723TIP3   OH211174   4.201   1.285   0.064
 3723TIP3    H111175   4.289   1.313   0.038
 3723TIP3    H211176   4.143   1.351   0.025
 3724TIP3   OH211177   3.222   1.079   1.242
 3724TIP3    H111178   3.267   0.997   1.261
 3724TIP3    H211179   3.130   1.054   1.231
 3725TIP3   OH211180   5.044   5.293   0.834
 3725TIP3    H111181   4.996   5.342   0.767
 3725TIP3    H211182   5.115   5.352   0.860
 3726TIP3   OH211183   4.854   0.772   0.862
 3726TIP3    H111184   4.888   0.730   0.783
 3726TIP3    H211185   4.881   0.863   0.854
 3727TIP3   OH211186   1.531   1.069   3.658
 3727TIP3    H111187   1.562   1.063   3.568
 3727TIP3    H211188   1.610   1.093   3.708
 3728TIP3   OH211189   0.254   4.393   2.489
 3728TIP3    H111190   0.338   4.433   2.512
 3728TIP3    H211191   0.188   4.456   2.519
 3729TIP3   OH211192   4.808   4.406   4.742
 3729TIP3    H111193   4.804   4.311   4.728
 3729TIP3    H211194   4.804   4.443   4.654
 3730TIP3   OH211195   1.236   4.044   2.563
 3730TIP3    H111196   1.188   3.962   2.565
 3730TIP3    H211197   1.324   4.020   2.533
 3731TIP3   OH211198   0.334   1.849   3.519
 3731TIP3    H111199   0.346   1.936   3.556
 3731TIP3    H211200   0.406   1.797   3.555
 3732TIP3   OH211201   6.210   5.332   4.188
 3732TIP3    H111202   6.199   5.427   4.183
 3732TIP3    H211203   6.128   5.301   4.226
 3733TIP3   OH211204   3.015   1.442   2.915
 3733TIP3    H111205   3.067   1.390   2.854
 3733TIP3    H211206   3.053   1.422   3.001
 3734TIP3   OH211207   0.579   5.001   5.032
 3734TIP3    H111208   0.575   5.051   4.951
 3734TIP3    H211209   0.673   4.996   5.052
 3735TIP3   OH211210   6.155   3.247   2.911
 3735TIP3    H111211   6.186   3.304   2.982
 3735TIP3    H211212   6.070   3.215   2.942
 3736TIP3   OH211213   2.903   3.608   3.318
 3736TIP3    H111214   2.874   3.524   3.282
 3736TIP3    H211215   2.958   3.584   3.392
 3737TIP3   OH211216   3.944   5.179   1.760
 3737TIP3    H111217   3.886   5.255   1.747
 3737TIP3    H211218   4.012   5.211   1.818
 3738TIP3   OH211219   3.844   5.391   0.267
 3738TIP3    H111220   3.818   5.440   0.345
 3738TIP3    H211221   3.936   5.369   0.281
 3739TIP3   OH211222   3.306   4.829   0.279
 3739TIP3    H111223   3.345   4.822   0.192
 3739TIP3    H211224   3.352   4.763   0.331
 3740TIP3   OH211225   5.114   3.486   3.888
 3740TIP3    H111226   5.124   3.543   3.812
 3740TIP3    H211227   5.199   3.443   3.897
 3741TIP3   OH211228   5.659   4.273   4.485
 3741TIP3    H111229   5.698   4.313   4.408
 3741TIP3    H211230   5.605   4.202   4.450
 3742TIP3   OH211231   5.586   4.651   2.991
 3742TIP3    H111232   5.525   4.614   2.927
 3742TIP3    H211233   5.607   4.578   3.050
 3743TIP3   OH211234   5.083   0.294   1.593
 3743TIP3    H111235   5.122   0.220   1.638
 3743TIP3    H211236   5.072   0.360   1.662
 3744TIP3   OH211237   1.594   1.321   0.711
 3744TIP3    H111238   1.615   1.243   0.661
 3744TIP3    H211239   1.518   1.358   0.667
 3745TIP3   OH211240   1.177   4.740   4.196
 3745TIP3    H111241   1.089   4.725   4.162
 3745TIP3    H211242   1.180   4.691   4.278
 3746TIP3   OH211243   4.258   0.479   0.988
 3746TIP3    H111244   4.339   0.428   0.998
 3746TIP3    H211245   4.281   0.567   1.015
 3747TIP3   OH211246   0.766   1.395   1.343
 3747TIP3    H111247   0.781   1.326   1.278
 3747TIP3    H211248   0.808   1.363   1.423
 3748TIP3   OH211249   1.933   0.131   4.304
 3748TIP3    H111250   1.972   0.174   4.228
 3748TIP3    H211251   1.974   0.174   4.379
 3749TIP3   OH211252   5.465   2.929   5.091
 3749TIP3    H111253   5.527   2.970   5.031
 3749TIP3    H211254   5.388   2.986   5.088
 3750TIP3   OH211255   1.051   5.654   1.391
 3750TIP3    H111256   1.006   5.609   1.463
 3750TIP3    H211257   1.087   5.583   1.338
 3751TIP3   OH211258   2.385   4.615   3.002
 3751TIP3    H111259   2.389   4.669   2.924
 3751TIP3    H211260   2.429   4.667   3.070
 3752TIP3   OH211261   2.226   0.962   3.265
 3752TIP3    H111262   2.253   0.871   3.252
 3752TIP3    H211263   2.293   1.014   3.220
 3753TIP3   OH211264   0.441   1.638   1.413
 3753TIP3    H111265   0.355   1.674   1.430
 3753TIP3    H211266   0.435   1.599   1.326
 3754TIP3   OH211267   4.526   2.800   1.328
 3754TIP3    H111268   4.585   2.784   1.402
 3754TIP3    H211269   4.582   2.835   1.259
 3755TIP3   OH211270   5.480   3.360   0.530
 3755TIP3    H111271   5.456   3.434   0.474
 3755TIP3    H211272   5.545   3.312   0.479
 3756TIP3   OH211273   2.813   0.141   0.310
 3756TIP3    H111274   2.827   0.126   0.404
 3756TIP3    H211275   2.899   0.169   0.278
 3757TIP3   OH211276   0.957   4.214   4.016
 3757TIP3    H111277   1.014   4.155   4.065
 3757TIP3    H211278   0.903   4.156   3.962
 3758TIP3   OH211279   0.146   3.051   4.585
 3758TIP3    H111280   0.116   2.960   4.592
 3758TIP3    H211281   0.088   3.090   4.520
 3759TIP3   OH211282   6.010   3.568   3.253
 3759TIP3    H111283   6.004   3.621   3.173
 3759TIP3    H211284   5.960   3.489   3.233
 3760TIP3   OH211285   2.109   0.407   2.006
 3760TIP3    H111286   2.034   0.440   1.956
 3760TIP3    H211287   2.073   0.386   2.092
 3761TIP3   OH211288   5.922   1.928   2.710
 3761TIP3    H111289   5.864   1.892   2.643
 3761TIP3    H211290   6.008   1.933   2.668
 3762TIP3   OH211291   2.084   0.658   2.601
 3762TIP3    H111292   2.137   0.579   2.592
 3762TIP3    H211293   2.096   0.684   2.693
 3763TIP3   OH211294   1.315   3.701   3.746
 3763TIP3    H111295   1.307   3.710   3.651
 3763TIP3    H211296   1.224   3.699   3.777
 3764TIP3   OH211297   2.453   3.045   2.412
 3764TIP3    H111298   2.438   2.954   2.385
 3764TIP3    H211299   2.397   3.097   2.354
 3765TIP3   OH211300   1.945   2.220   4.939
 3765TIP3    H111301   1.953   2.267   5.022
 3765TIP3    H211302   1.917   2.287   4.876
 3766TIP3   OH211303   0.060   1.256   5.035
 3766TIP3    H111304   0.078   1.193   4.965
 3766TIP3    H211305   0.144   1.264   5.081
 3767TIP3   OH211306   2.754   1.962   0.683
 3767TIP3    H111307   2.688   2.029   0.666
 3767TIP3    H211308   2.772   1.969   0.776
 3768TIP3   OH211309   5.033   2.753   3.355
 3768TIP3    H111310   5.021   2.823   3.419
 3768TIP3    H211311   5.091   2.691   3.397
 3769TIP3   OH211312   2.387   1.478   1.233
 3769TIP3    H111313   2.437   1.419   1.290
 3769TIP3    H211314   2.331   1.527   1.293
 3770TIP3   OH211315   6.277   3.416   3.114
 3770TIP3    H111316   6.368   3.438   3.130
 3770TIP3    H211317   6.235   3.422   3.199
 3771TIP3   OH211318   5.465   4.757   0.054
 3771TIP3    H111319   5.479   4.842   0.014
 3771TIP3    H211320   5.452   4.697  -0.020
 3772TIP3   OH211321   0.268   5.116   0.649
 3772TIP3    H111322   0.248   5.209   0.659
 3772TIP3    H211323   0.310   5.109   0.564
 3773TIP3   OH211324   1.302   2.328   1.331
 3773TIP3    H111325   1.231   2.333   1.395
 3773TIP3    H211326   1.366   2.270   1.371
 3774TIP3   OH211327   2.835   5.515   2.398
 3774TIP3    H111328   2.805   5.597   2.357
 3774TIP3    H211329   2.755   5.475   2.432
 3775TIP3   OH211330   0.197   4.180   0.070
 3775TIP3    H111331   0.108   4.210   0.089
 3775TIP3    H211332   0.189   4.131  -0.012
 3776TIP3   OH211333   3.598   5.584   2.713
 3776TIP3    H111334   3.520   5.528   2.708
 3776TIP3    H211335   3.598   5.616   2.804
 3777TIP3   OH211336   5.625   4.273   1.112
 3777TIP3    H111337   5.685   4.262   1.038
 3777TIP3    H211338   5.580   4.355   1.094
 3778TIP3   OH211339   2.655   5.086   1.770
 3778TIP3    H111340   2.668   4.993   1.747
 3778TIP3    H211341   2.711   5.133   1.709
 3779TIP3   OH211342   1.591   1.365   3.296
 3779TIP3    H111343   1.646   1.442   3.282
 3779TIP3    H211344   1.525   1.394   3.359
 3780TIP3   OH211345   6.348   1.895   1.644
 3780TIP3    H111346   6.392   1.810   1.640
 3780TIP3    H211347   6.300   1.901   1.562
 3781TIP3   OH211348   5.522   4.457   2.235
 3781TIP3    H111349   5.551   4.543   2.265
 3781TIP3    H211350   5.455   4.431   2.298
 3782TIP3   OH211351   5.745   2.265   0.470
 3782TIP3    H111352   5.713   2.228   0.553
 3782TIP3    H211353   5.738   2.192   0.408
 3783TIP3   OH211354   1.891   1.341   1.103
 3783TIP3    H111355   1.800   1.357   1.131
 3783TIP3    H211356   1.926   1.282   1.170
 3784TIP3   OH211357   3.646   1.337   4.876
 3784TIP3    H111358   3.736   1.350   4.907
 3784TIP3    H211359   3.591   1.380   4.942
 3785TIP3   OH211360   5.273   1.977   1.260
 3785TIP3    H111361   5.243   1.954   1.172
 3785TIP3    H211362   5.196   2.012   1.304
 3786TIP3   OH211363   5.371   1.373   1.249
 3786TIP3    H111364   5.282   1.337   1.247
 3786TIP3    H211365   5.385   1.397   1.341
 3787TIP3   OH211366   3.960   4.510   2.011
 3787TIP3    H111367   4.010   4.445   1.962
 3787TIP3    H211368   3.975   4.489   2.103
 3788TIP3   OH211369   4.913   3.753   4.119
 3788TIP3    H111370   4.877   3.783   4.202
 3788TIP3    H211371   4.841   3.706   4.076
 3789TIP3   OH211372   6.303   1.266   0.581
 3789TIP3    H111373   6.333   1.328   0.647
 3789TIP3    H211374   6.356   1.287   0.503
 3790TIP3   OH211375   0.135   3.417   2.898
 3790TIP3    H111376   0.098   3.504   2.881
 3790TIP3    H211377   0.227   3.433   2.917
 3791TIP3   OH211378   2.821   4.125   5.116
 3791TIP3    H111379   2.823   4.213   5.078
 3791TIP3    H211380   2.729   4.098   5.111
 3792TIP3   OH211381   6.024   3.637   3.666
 3792TIP3    H111382   5.929   3.645   3.669
 3792TIP3    H211383   6.040   3.544   3.653
 3793TIP3   OH211384   4.430   1.873   0.620
 3793TIP3    H111385   4.501   1.838   0.674
 3793TIP3    H211386   4.353   1.820   0.645
 3794TIP3   OH211387   6.118   3.172   4.995
 3794TIP3    H111388   6.161   3.101   4.948
 3794TIP3    H211389   6.171   3.185   5.074
 3795TIP3   OH211390   0.057   3.911   3.623
 3795TIP3    H111391   0.103   3.846   3.569
 3795TIP3    H211392   0.053   3.871   3.710
 3796TIP3   OH211393   3.296   2.432   3.148
 3796TIP3    H111394   3.279   2.348   3.104
 3796TIP3    H211395   3.258   2.422   3.235
 3797TIP3   OH211396   3.357   0.254   4.708
 3797TIP3    H111397   3.279   0.229   4.756
 3797TIP3    H211398   3.324   0.295   4.628
 3798TIP3   OH211399   2.378   2.402   4.681
 3798TIP3    H111400   2.337   2.327   4.724
 3798TIP3    H211401   2.447   2.363   4.626
 3799TIP3   OH211402   2.699   0.214   4.786
 3799TIP3    H111403   2.722   0.216   4.693
 3799TIP3    H211404   2.716   0.303   4.816
 3800TIP3   OH211405   0.705   3.186   2.982
 3800TIP3    H111406   0.787   3.140   2.964
 3800TIP3    H211407   0.646   3.119   3.014
 3801TIP3   OH211408   3.253   2.688   1.889
 3801TIP3    H111409   3.302   2.645   1.820
 3801TIP3    H211410   3.290   2.777   1.894
 3802TIP3   OH211411   2.812   2.789   0.390
 3802TIP3    H111412   2.727   2.747   0.383
 3802TIP3    H211413   2.804   2.846   0.467
 3803TIP3   OH211414   1.202   5.872   2.505
 3803TIP3    H111415   1.159   5.843   2.425
 3803TIP3    H211416   1.142   5.937   2.542
 3804TIP3   OH211417   3.991   4.701   1.293
 3804TIP3    H111418   4.074   4.659   1.273
 3804TIP3    H211419   3.944   4.637   1.346
 3805TIP3   OH211420   4.431   5.405   2.207
 3805TIP3    H111421   4.400   5.352   2.134
 3805TIP3    H211422   4.514   5.441   2.177
 3806TIP3   OH211423   4.764   4.529   4.006
 3806TIP3    H111424   4.813   4.450   4.029
 3806TIP3    H211425   4.683   4.497   3.967
 3807TIP3   OH211426   0.499   5.352   2.452
 3807TIP3    H111427   0.473   5.440   2.424
 3807TIP3    H211428   0.461   5.343   2.539
 3808TIP3   OH211429   2.307   0.400   4.300
 3808TIP3    H111430   2.313   0.306   4.280
 3808TIP3    H211431   2.248   0.435   4.233
 3809TIP3   OH211432   5.151   3.875   4.054
 3809TIP3    H111433   5.079   3.828   4.097
 3809TIP3    H211434   5.215   3.807   4.033
 3810TIP3   OH211435   5.554   2.131   3.425
 3810TIP3    H111436   5.492   2.202   3.442
 3810TIP3    H211437   5.518   2.084   3.350
 3811TIP3   OH211438   1.839   3.915   1.950
 3811TIP3    H111439   1.759   3.865   1.960
 3811TIP3    H211440   1.910   3.851   1.961
 3812TIP3   OH211441   0.107   5.669   3.232
 3812TIP3    H111442   0.022   5.660   3.277
 3812TIP3    H211443   0.108   5.597   3.169
 3813TIP3   OH211444   5.353   2.551   2.659
 3813TIP3    H111445   5.426   2.490   2.656
 3813TIP3    H211446   5.280   2.504   2.620
 3814TIP3   OH211447   6.362   1.067   4.849
 3814TIP3    H111448   6.323   1.122   4.782
 3814TIP3    H211449   6.290   1.047   4.909
 3815TIP3   OH211450   4.726   3.361   2.019
 3815TIP3    H111451   4.788   3.307   2.067
 3815TIP3    H211452   4.709   3.436   2.076
 3816TIP3   OH211453   4.495   2.363   0.443
 3816TIP3    H111454   4.420   2.340   0.388
 3816TIP3    H211455   4.467   2.342   0.532
 3817TIP3   OH211456   5.600   5.509   1.879
 3817TIP3    H111457   5.550   5.429   1.864
 3817TIP3    H211458   5.620   5.542   1.792
 3818TIP3   OH211459   4.645   3.080   2.767
 3818TIP3    H111460   4.687   3.157   2.729
 3818TIP3    H211461   4.610   3.110   2.851
 3819TIP3   OH211462   6.249   0.216   3.856
 3819TIP3    H111463   6.213   0.178   3.937
 3819TIP3    H211464   6.303   0.146   3.820
 3820TIP3   OH211465   4.146   3.499   0.344
 3820TIP3    H111466   4.092   3.438   0.394
 3820TIP3    H211467   4.235   3.485   0.377
 3821TIP3   OH211468   1.921   4.370   0.537
 3821TIP3    H111469   1.952   4.458   0.520
 3821TIP3    H211470   1.862   4.380   0.612
 3822TIP3   OH211471   1.536   3.172   1.221
 3822TIP3    H111472   1.604   3.232   1.190
 3822TIP3    H211473   1.455   3.224   1.219
 3823TIP3   OH211474   5.143   4.581   3.990
 3823TIP3    H111475   5.185   4.495   3.989
 3823TIP3    H211476   5.164   4.617   4.077
 3824TIP3   OH211477   4.941   5.645   1.821
 3824TIP3    H111478   5.002   5.694   1.766
 3824TIP3    H211479   4.964   5.670   1.911
 3825TIP3   OH211480   3.697   2.562   3.047
 3825TIP3    H111481   3.687   2.481   3.098
 3825TIP3    H211482   3.792   2.576   3.042
 3826TIP3   OH211483   2.383   3.699   1.887
 3826TIP3    H111484   2.394   3.708   1.792
 3826TIP3    H211485   2.314   3.633   1.896
 3827TIP3   OH211486   1.292   4.247   3.367
 3827TIP3    H111487   1.264   4.307   3.436
 3827TIP3    H211488   1.384   4.270   3.351
 3828TIP3   OH211489   6.372   5.836   5.191
 3828TIP3    H111490   6.299   5.816   5.250
 3828TIP3    H211491   6.330   5.858   5.108
 3829TIP3   OH211492   4.047   1.451   2.279
 3829TIP3    H111493   4.041   1.498   2.196
 3829TIP3    H211494   4.027   1.360   2.257
 3830TIP3   OH211495   0.660   0.419   3.230
 3830TIP3    H111496   0.669   0.493   3.171
 3830TIP3    H211497   0.566   0.409   3.242
 3831TIP3   OH211498   5.689   2.100   2.775
 3831TIP3    H111499   5.621   2.155   2.814
 3831TIP3    H211500   5.730   2.057   2.849
 3832TIP3   OH211501   4.313   4.815   2.428
 3832TIP3    H111502   4.306   4.726   2.395
 3832TIP3    H211503   4.303   4.807   2.523
 3833TIP3   OH211504   5.816   1.841   0.898
 3833TIP3    H111505   5.902   1.822   0.863
 3833TIP3    H211506   5.828   1.840   0.993
 3834TIP3   OH211507   1.065   3.578   1.917
 3834TIP3    H111508   1.081   3.488   1.892
 3834TIP3    H211509   1.141   3.627   1.883
 3835TIP3   OH211510   3.237   0.635   4.953
 3835TIP3    H111511   3.326   0.641   4.988
 3835TIP3    H211512   3.182   0.671   5.022
 3836TIP3   OH211513   5.529   2.885   1.866
 3836TIP3    H111514   5.455   2.878   1.806
 3836TIP3    H211515   5.587   2.949   1.825
 3837TIP3   OH211516   1.504   1.666   0.929
 3837TIP3    H111517   1.551   1.584   0.915
 3837TIP3    H211518   1.573   1.733   0.928
 3838TIP3   OH211519   5.007   3.949   1.887
 3838TIP3    H111520   4.961   3.993   1.959
 3838TIP3    H211521   5.015   3.858   1.917
 3839TIP3   OH211522   0.459   2.485   4.819
 3839TIP3    H111523   0.448   2.578   4.841
 3839TIP3    H211524   0.392   2.468   4.753
 3840TIP3   OH211525   6.244   4.073   2.067
 3840TIP3    H111526   6.338   4.075   2.084
 3840TIP3    H211527   6.236   4.047   1.975
 3841TIP3   OH211528   3.869   2.532   3.901
 3841TIP3    H111529   3.797   2.474   3.926
 3841TIP3    H211530   3.892   2.504   3.812
 3842TIP3   OH211531   4.084   4.356   5.167
 3842TIP3    H111532   4.035   4.370   5.086
 3842TIP3    H211533   4.171   4.392   5.149
 3843TIP3   OH211534   4.733   0.775   2.764
 3843TIP3    H111535   4.653   0.806   2.721
 3843TIP3    H211536   4.740   0.829   2.842
 3844TIP3   OH211537   5.864   5.942   2.260
 3844TIP3    H111538   5.812   5.865   2.236
 3844TIP3    H211539   5.905   5.969   2.177
 3845TIP3   OH211540   0.759   0.552   2.283
 3845TIP3    H111541   0.755   0.565   2.189
 3845TIP3    H211542   0.762   0.456   2.293
 3846TIP3   OH211543   3.213   4.035   4.131
 3846TIP3    H111544   3.266   3.984   4.192
 3846TIP3    H211545   3.258   4.026   4.047
 3847TIP3   OH211546   4.332   4.401   1.982
 3847TIP3    H111547   4.255   4.345   1.970
 3847TIP3    H211548   4.376   4.400   1.897
 3848TIP3   OH211549   2.563   4.905   3.750
 3848TIP3    H111550   2.530   4.816   3.738
 3848TIP3    H211551   2.488   4.953   3.785
 3849TIP3   OH211552   0.501   3.487   1.831
 3849TIP3    H111553   0.431   3.428   1.857
 3849TIP3    H211554   0.573   3.469   1.892
 3850TIP3   OH211555   3.171   1.735   3.700
 3850TIP3    H111556   3.151   1.647   3.730
 3850TIP3    H211557   3.201   1.781   3.779
 3851TIP3   OH211558   3.327   0.115   4.394
 3851TIP3    H111559   3.395   0.179   4.374
 3851TIP3    H211560   3.246   0.156   4.361
 3852TIP3   OH211561   5.713   1.115   4.104
 3852TIP3    H111562   5.703   1.185   4.040
 3852TIP3    H211563   5.643   1.130   4.167
 3853TIP3   OH211564   5.524   2.425   0.822
 3853TIP3    H111565   5.470   2.443   0.745
 3853TIP3    H211566   5.491   2.341   0.855
 3854TIP3   OH211567   5.980   1.565   4.298
 3854TIP3    H111568   5.979   1.523   4.384
 3854TIP3    H211569   6.052   1.628   4.302
 3855TIP3   OH211570   0.040   5.224   4.774
 3855TIP3    H111571   0.093   5.260   4.845
 3855TIP3    H211572   0.074   5.136   4.760
 3856TIP3   OH211573   4.267   1.745   3.588
 3856TIP3    H111574   4.274   1.748   3.493
 3856TIP3    H211575   4.200   1.679   3.605
 3857TIP3   OH211576   5.910   1.780   2.174
 3857TIP3    H111577   5.928   1.690   2.201
 3857TIP3    H211578   5.986   1.804   2.121
 3858TIP3   OH211579   0.290   5.077   0.201
 3858TIP3    H111580   0.214   5.023   0.225
 3858TIP3    H211581   0.291   5.076   0.106
 3859TIP3   OH211582   3.381   1.741   1.110
 3859TIP3    H111583   3.364   1.659   1.155
 3859TIP3    H211584   3.438   1.790   1.170
 3860TIP3   OH211585   4.319   5.690   4.386
 3860TIP3    H111586   4.376   5.612   4.388
 3860TIP3    H211587   4.290   5.695   4.295
 3861TIP3   OH211588   5.708   0.996   1.401
 3861TIP3    H111589   5.680   1.074   1.450
 3861TIP3    H211590   5.628   0.957   1.368
 3862TIP3   OH211591   5.955   1.386   2.863
 3862TIP3    H111592   6.049   1.385   2.844
 3862TIP3    H211593   5.950   1.368   2.957
 3863TIP3   OH211594   3.873   1.564   3.097
 3863TIP3    H111595   3.872   1.470   3.114
 3863TIP3    H211596   3.935   1.576   3.025
 3864TIP3   OH211597   1.156   0.699   3.617
 3864TIP3    H111598   1.247   0.681   3.639
 3864TIP3    H211599   1.148   0.795   3.625
 3865TIP3   OH211600   0.191   0.212   0.724
 3865TIP3    H111601   0.259   0.170   0.672
 3865TIP3    H211602   0.118   0.149   0.723
 3866TIP3   OH211603   2.729   0.493   3.819
 3866TIP3    H111604   2.761   0.448   3.741
 3866TIP3    H211605   2.786   0.464   3.890
 3867TIP3   OH211606   0.553   3.401   1.185
 3867TIP3    H111607   0.597   3.440   1.109
 3867TIP3    H211608   0.625   3.372   1.241
 3868TIP3   OH211609   2.651   3.752   1.958
 3868TIP3    H111610   2.562   3.751   1.921
 3868TIP3    H211611   2.648   3.688   2.029
 3869TIP3   OH211612   2.808   2.455   3.181
 3869TIP3    H111613   2.887   2.468   3.233
 3869TIP3    H211614   2.740   2.435   3.244
 3870TIP3   OH211615   4.176   1.827   3.079
 3870TIP3    H111616   4.190   1.822   3.173
 3870TIP3    H211617   4.248   1.776   3.041
 3871TIP3   OH211618   1.338   0.266   0.251
 3871TIP3    H111619   1.362   0.254   0.159
 3871TIP3    H211620   1.331   0.361   0.262
 3872TIP3   OH211621   3.620   0.414   0.752
 3872TIP3    H111622   3.705   0.403   0.709
 3872TIP3    H211623   3.624   0.500   0.792
 3873TIP3   OH211624   3.849   0.883   2.500
 3873TIP3    H111625   3.789   0.899   2.572
 3873TIP3    H211626   3.797   0.899   2.421
 3874TIP3   OH211627   2.816   4.984   0.209
 3874TIP3    H111628   2.884   4.947   0.152
 3874TIP3    H211629   2.859   5.000   0.292
 3875TIP3   OH211630   0.354   0.963   5.155
 3875TIP3    H111631   0.274   0.942   5.203
 3875TIP3    H211632   0.328   0.959   5.063
 3876TIP3   OH211633   0.523   4.815   3.968
 3876TIP3    H111634   0.569   4.895   3.994
 3876TIP3    H211635   0.436   4.824   4.007
 3877TIP3   OH211636   4.869   0.832   3.621
 3877TIP3    H111637   4.951   0.783   3.613
 3877TIP3    H211638   4.835   0.809   3.708
 3878TIP3   OH211639   1.673   5.883   3.216
 3878TIP3    H111640   1.659   5.827   3.139
 3878TIP3    H211641   1.732   5.951   3.186
 3879TIP3   OH211642   2.885  -0.011   2.905
 3879TIP3    H111643   2.793   0.000   2.928
 3879TIP3    H211644   2.925   0.074   2.925
 3880TIP3   OH211645   3.240   0.956   2.333
 3880TIP3    H111646   3.177   0.978   2.402
 3880TIP3    H211647   3.301   1.030   2.331
 3881TIP3   OH211648   4.478   0.877   3.889
 3881TIP3    H111649   4.465   0.969   3.914
 3881TIP3    H211650   4.445   0.827   3.964
 3882TIP3   OH211651   5.823   3.156   1.896
 3882TIP3    H111652   5.789   3.148   1.807
 3882TIP3    H211653   5.890   3.087   1.902
 3883TIP3   OH211654   3.265   2.564   1.533
 3883TIP3    H111655   3.308   2.485   1.500
 3883TIP3    H211656   3.196   2.531   1.590
 3884TIP3   OH211657   6.116   2.525   4.025
 3884TIP3    H111658   6.122   2.434   4.054
 3884TIP3    H211659   6.040   2.560   4.070
 3885TIP3   OH211660   6.223   2.237   3.846
 3885TIP3    H111661   6.290   2.270   3.786
 3885TIP3    H211662   6.142   2.279   3.817
 3886TIP3   OH211663   1.491   2.611   3.016
 3886TIP3    H111664   1.549   2.640   3.087
 3886TIP3    H211665   1.510   2.518   3.006
 3887TIP3   OH211666   4.542   2.043   3.821
 3887TIP3    H111667   4.457   2.042   3.864
 3887TIP3    H211668   4.523   2.019   3.730
 3888TIP3   OH211669   2.415   0.627   1.511
 3888TIP3    H111670   2.432   0.646   1.603
 3888TIP3    H211671   2.449   0.539   1.497
 3889TIP3   OH211672   0.334   3.479   2.168
 3889TIP3    H111673   0.407   3.419   2.181
 3889TIP3    H211674   0.265   3.426   2.129
 3890TIP3   OH211675   1.340   0.619   1.021
 3890TIP3    H111676   1.430   0.625   0.989
 3890TIP3    H211677   1.305   0.541   0.978
 3891TIP3   OH211678   2.483   2.157   2.906
 3891TIP3    H111679   2.495   2.244   2.868
 3891TIP3    H211680   2.390   2.153   2.929
 3892TIP3   OH211681   3.438   4.180   2.868
 3892TIP3    H111682   3.397   4.190   2.782
 3892TIP3    H211683   3.442   4.270   2.902
 3893TIP3   OH211684   4.588   3.221   4.514
 3893TIP3    H111685   4.601   3.133   4.477
 3893TIP3    H211686   4.493   3.232   4.514
 3894TIP3   OH211687   0.494   2.890   4.509
 3894TIP3    H111688   0.508   2.825   4.439
 3894TIP3    H211689   0.457   2.966   4.464
 3895TIP3   OH211690   1.283   1.865   1.263
 3895TIP3    H111691   1.349   1.935   1.262
 3895TIP3    H211692   1.334   1.784   1.261
 3896TIP3   OH211693   5.190   0.379   0.988
 3896TIP3    H111694   5.179   0.449   0.924
 3896TIP3    H211695   5.128   0.400   1.057
 3897TIP3   OH211696   0.949   0.435   4.879
 3897TIP3    H111697   1.002   0.449   4.958
 3897TIP3    H211698   0.903   0.518   4.866
 3898TIP3   OH211699   3.534   3.233   0.373
 3898TIP3    H111700   3.576   3.154   0.406
 3898TIP3    H211701   3.455   3.241   0.426
 3899TIP3   OH211702   4.645   3.824   0.550
 3899TIP3    H111703   4.556   3.829   0.585
 3899TIP3    H211704   4.701   3.856   0.621
 3900TIP3   OH211705   5.281   0.810   1.622
 3900TIP3    H111706   5.234   0.892   1.639
 3900TIP3    H211707   5.227   0.766   1.557
 3901TIP3   OH211708   6.230   0.148   0.701
 3901TIP3    H111709   6.147   0.182   0.668
 3901TIP3    H211710   6.280   0.125   0.623
 3902TIP3   OH211711   0.809   5.642   3.261
 3902TIP3    H111712   0.883   5.637   3.321
 3902TIP3    H211713   0.738   5.680   3.314
 3903TIP3   OH211714   1.990   3.795   0.518
 3903TIP3    H111715   2.035   3.761   0.595
 3903TIP3    H211716   2.047   3.865   0.485
 3904TIP3   OH211717   2.153   3.360   4.054
 3904TIP3    H111718   2.199   3.444   4.057
 3904TIP3    H211719   2.135   3.346   3.961
 3905TIP3   OH211720   2.252   3.608   0.359
 3905TIP3    H111721   2.305   3.530   0.344
 3905TIP3    H211722   2.305   3.662   0.418
 3906TIP3   OH211723   3.766   2.275   2.324
 3906TIP3    H111724   3.814   2.347   2.283
 3906TIP3    H211725   3.701   2.319   2.379
 3907TIP3   OH211726   4.090   1.076   2.593
 3907TIP3    H111727   4.009   1.113   2.559
 3907TIP3    H211728   4.140   1.052   2.515
 3908TIP3   OH211729   1.103   3.689   4.802
 3908TIP3    H111730   1.197   3.696   4.783
 3908TIP3    H211731   1.077   3.606   4.763
 3909TIP3   OH211732   2.362   4.806   5.097
 3909TIP3    H111733   2.345   4.784   5.188
 3909TIP3    H211734   2.301   4.751   5.048
 3910TIP3   OH211735   4.422   1.504   1.913
 3910TIP3    H111736   4.434   1.584   1.964
 3910TIP3    H211737   4.491   1.446   1.943
 3911TIP3   OH211738   2.558   0.405   3.159
 3911TIP3    H111739   2.467   0.377   3.161
 3911TIP3    H211740   2.571   0.448   3.244
 3912TIP3   OH211741   0.774   4.731   4.822
 3912TIP3    H111742   0.788   4.721   4.728
 3912TIP3    H211743   0.822   4.811   4.844
 3913TIP3   OH211744   0.392   3.913   2.462
 3913TIP3    H111745   0.368   3.998   2.424
 3913TIP3    H211746   0.385   3.851   2.389
 3914TIP3   OH211747   3.956   4.176   0.096
 3914TIP3    H111748   3.939   4.176   0.190
 3914TIP3    H211749   3.987   4.265   0.077
 3915TIP3   OH211750   0.554   4.679   2.948
 3915TIP3    H111751   0.461   4.660   2.938
 3915TIP3    H211752   0.589   4.607   3.000
 3916TIP3   OH211753   3.455   3.506   0.322
 3916TIP3    H111754   3.454   3.525   0.228
 3916TIP3    H211755   3.422   3.416   0.328
 3917TIP3   OH211756   5.786   2.667   1.247
 3917TIP3    H111757   5.740   2.705   1.173
 3917TIP3    H211758   5.877   2.660   1.218
 3918TIP3   OH211759   5.571   2.691   4.509
 3918TIP3    H111760   5.619   2.771   4.528
 3918TIP3    H211761   5.508   2.716   4.442
 3919TIP3   OH211762   1.639   2.398   2.355
 3919TIP3    H111763   1.579   2.370   2.286
 3919TIP3    H211764   1.586   2.398   2.435
 3920TIP3   OH211765   4.344   5.717   4.895
 3920TIP3    H111766   4.408   5.645   4.898
 3920TIP3    H211767   4.338   5.741   4.803
 3921TIP3   OH211768   5.872   2.067   1.812
 3921TIP3    H111769   5.940   2.062   1.744
 3921TIP3    H211770   5.819   1.989   1.799
 3922TIP3   OH211771   6.092   4.590   1.504
 3922TIP3    H111772   6.094   4.575   1.410
 3922TIP3    H211773   6.158   4.657   1.519
 3923TIP3   OH211774   4.533   2.685   5.128
 3923TIP3    H111775   4.493   2.760   5.172
 3923TIP3    H211776   4.510   2.610   5.184
 3924TIP3   OH211777   0.534   4.918   0.238
 3924TIP3    H111778   0.623   4.942   0.263
 3924TIP3    H211779   0.487   5.002   0.233
 3925TIP3   OH211780   1.699   5.805   1.215
 3925TIP3    H111781   1.768   5.827   1.277
 3925TIP3    H211782   1.684   5.711   1.228
 3926TIP3   OH211783   2.466   4.549   4.005
 3926TIP3    H111784   2.524   4.541   4.081
 3926TIP3    H211785   2.391   4.599   4.037
 3927TIP3   OH211786   0.350   3.500   2.473
 3927TIP3    H111787   0.334   3.529   2.563
 3927TIP3    H211788   0.268   3.519   2.428
 3928TIP3   OH211789   2.178   4.163   5.079
 3928TIP3    H111790   2.257   4.127   5.120
 3928TIP3    H211791   2.106   4.119   5.124
 3929TIP3   OH211792   4.271   2.296   0.283
 3929TIP3    H111793   4.242   2.272   0.194
 3929TIP3    H211794   4.238   2.225   0.338
 3930TIP3   OH211795   3.052   3.582   1.328
 3930TIP3    H111796   3.114   3.530   1.379
 3930TIP3    H211797   3.042   3.534   1.245
 3931TIP3   OH211798   3.168   4.152   4.921
 3931TIP3    H111799   3.206   4.201   4.994
 3931TIP3    H211800   3.165   4.216   4.849
 3932TIP3   OH211801   2.987   1.439   1.820
 3932TIP3    H111802   2.981   1.344   1.834
 3932TIP3    H211803   2.940   1.477   1.893
 3933TIP3   OH211804   4.838   2.511   4.595
 3933TIP3    H111805   4.862   2.461   4.673
 3933TIP3    H211806   4.770   2.571   4.625
 3934TIP3   OH211807   0.753   3.468   1.941
 3934TIP3    H111808   0.821   3.533   1.960
 3934TIP3    H211809   0.801   3.392   1.910
 3935TIP3   OH211810   4.369   3.727   0.577
 3935TIP3    H111811   4.386   3.634   0.563
 3935TIP3    H211812   4.351   3.734   0.670
 3936TIP3   OH211813   5.872   1.894   0.055
 3936TIP3    H111814   5.912   1.944  -0.016
 3936TIP3    H211815   5.794   1.854   0.015
 3937TIP3   OH211816   1.680   0.802   4.815
 3937TIP3    H111817   1.764   0.844   4.837
 3937TIP3    H211818   1.631   0.802   4.897
 3938TIP3   OH211819   3.721   4.436   1.885
 3938TIP3    H111820   3.705   4.516   1.836
 3938TIP3    H211821   3.810   4.446   1.920
 3939TIP3   OH211822   5.531   1.821   4.854
 3939TIP3    H111823   5.461   1.879   4.883
 3939TIP3    H211824   5.591   1.816   4.928
 3940TIP3   OH211825   0.777   3.298   1.316
 3940TIP3    H111826   0.872   3.287   1.318
 3940TIP3    H211827   0.749   3.281   1.406
 3941TIP3   OH211828   6.244   3.830   0.861
 3941TIP3    H111829   6.195   3.783   0.794
 3941TIP3    H211830   6.195   3.911   0.876
 3942TIP3   OH211831   2.766   3.625   1.355
 3942TIP3    H111832   2.760   3.704   1.301
 3942TIP3    H211833   2.860   3.609   1.363
 3943TIP3   OH211834   3.182   3.206   1.429
 3943TIP3    H111835   3.097   3.166   1.446
 3943TIP3    H211836   3.246   3.143   1.464
 3944TIP3   OH211837   1.391   5.919   3.031
 3944TIP3    H111838   1.394   5.905   3.126
 3944TIP3    H211839   1.308   5.963   3.016
 3945TIP3   OH211840   5.273   4.297   3.183
 3945TIP3    H111841   5.288   4.391   3.197
 3945TIP3    H211842   5.361   4.260   3.175
 3946TIP3   OH211843   1.815   4.897   4.163
 3946TIP3    H111844   1.756   4.941   4.102
 3946TIP3    H211845   1.757   4.861   4.230
 3947TIP3   OH211846   2.532   2.364   4.113
 3947TIP3    H111847   2.458   2.349   4.054
 3947TIP3    H211848   2.576   2.442   4.078
 3948TIP3   OH211849   0.499   1.011   1.367
 3948TIP3    H111850   0.531   0.921   1.360
 3948TIP3    H211851   0.447   1.024   1.288
 3949TIP3   OH211852   3.594   1.209   1.947
 3949TIP3    H111853   3.507   1.172   1.958
 3949TIP3    H211854   3.605   1.218   1.852
 3950TIP3   OH211855   4.436   3.281   2.045
 3950TIP3    H111856   4.526   3.286   2.078
 3950TIP3    H211857   4.394   3.360   2.079
 3951TIP3   OH211858   3.315   0.315   3.928
 3951TIP3    H111859   3.324   0.236   3.873
 3951TIP3    H211860   3.392   0.367   3.906
 3952TIP3   OH211861  -0.002   4.613   4.985
 3952TIP3    H111862  -0.070   4.617   5.052
 3952TIP3    H211863   0.079   4.634   5.031
 3953TIP3   OH211864   0.763   0.557   0.477
 3953TIP3    H111865   0.797   0.480   0.431
 3953TIP3    H211866   0.840   0.613   0.490
 3954TIP3   OH211867   0.147   0.892   3.310
 3954TIP3    H111868   0.134   0.871   3.402
 3954TIP3    H211869   0.183   0.981   3.311
 3955TIP3   OH211870   0.690   2.611   1.216
 3955TIP3    H111871   0.737   2.649   1.290
 3955TIP3    H211872   0.758   2.569   1.163
 3956TIP3   OH211873   5.924   3.325   2.093
 3956TIP3    H111874   5.869   3.279   2.029
 3956TIP3    H211875   5.988   3.372   2.040
 3957TIP3   OH211876   3.451   5.397   0.356
 3957TIP3    H111877   3.467   5.406   0.450
 3957TIP3    H211878   3.417   5.308   0.345
 3958TIP3   OH211879   2.472   1.241   0.094
 3958TIP3    H111880   2.441   1.152   0.076
 3958TIP3    H211881   2.550   1.250   0.038
 3959TIP3   OH211882   2.356   0.472   1.906
 3959TIP3    H111883   2.351   0.561   1.870
 3959TIP3    H211884   2.266   0.449   1.925
 3960TIP3   OH211885   6.277   4.946   0.945
 3960TIP3    H111886   6.298   4.986   0.860
 3960TIP3    H211887   6.342   4.982   1.005
 3961TIP3   OH211888   4.069   4.305   1.875
 3961TIP3    H111889   4.095   4.221   1.911
 3961TIP3    H211890   4.034   4.285   1.789
 3962TIP3   OH211891   5.168   5.493   4.422
 3962TIP3    H111892   5.106   5.421   4.418
 3962TIP3    H211893   5.233   5.466   4.487
 3963TIP3   OH211894   3.900   1.166   3.760
 3963TIP3    H111895   3.928   1.209   3.679
 3963TIP3    H211896   3.877   1.239   3.818
 3964TIP3   OH211897   0.574   3.357   2.151
 3964TIP3    H111898   0.637   3.405   2.097
 3964TIP3    H211899   0.628   3.308   2.213
 3965TIP3   OH211900   0.770   2.144   4.933
 3965TIP3    H111901   0.796   2.053   4.944
 3965TIP3    H211902   0.674   2.141   4.930
 3966TIP3   OH211903   6.372   1.016   3.588
 3966TIP3    H111904   6.390   1.069   3.510
 3966TIP3    H211905   6.294   0.966   3.565
 3967TIP3   OH211906   4.488   2.275   3.351
 3967TIP3    H111907   4.563   2.335   3.348
 3967TIP3    H211908   4.524   2.191   3.322
 3968TIP3   OH211909   2.845   3.173   0.612
 3968TIP3    H111910   2.764   3.198   0.657
 3968TIP3    H211911   2.817   3.153   0.523
 3969TIP3   OH211912   1.673   1.279   2.876
 3969TIP3    H111913   1.751   1.324   2.843
 3969TIP3    H211914   1.705   1.194   2.906
 3970TIP3   OH211915   2.737   4.728   3.950
 3970TIP3    H111916   2.794   4.780   4.007
 3970TIP3    H211917   2.671   4.789   3.918
 3971TIP3   OH211918   2.231   4.756   1.351
 3971TIP3    H111919   2.168   4.684   1.350
 3971TIP3    H211920   2.265   4.758   1.261
 3972TIP3   OH211921   1.142   1.347   0.740
 3972TIP3    H111922   1.180   1.283   0.800
 3972TIP3    H211923   1.082   1.399   0.794
 3973TIP3   OH211924   3.136   2.350   3.820
 3973TIP3    H111925   3.071   2.287   3.851
 3973TIP3    H211926   3.084   2.418   3.776
 3974TIP3   OH211927   3.485   5.660   4.223
 3974TIP3    H111928   3.546   5.719   4.178
 3974TIP3    H211929   3.442   5.611   4.152
 3975TIP3   OH211930   1.750   1.193   0.886
 3975TIP3    H111931   1.796   1.263   0.933
 3975TIP3    H211932   1.682   1.238   0.836
 3976TIP3   OH211933   1.728   5.033   5.039
 3976TIP3    H111934   1.809   5.045   4.989
 3976TIP3    H211935   1.662   5.010   4.974
 3977TIP3   OH211936   5.615   1.679   0.740
 3977TIP3    H111937   5.539   1.620   0.732
 3977TIP3    H211938   5.587   1.746   0.802
 3978TIP3   OH211939   5.644   0.745   4.332
 3978TIP3    H111940   5.704   0.764   4.260
 3978TIP3    H211941   5.591   0.672   4.300
 3979TIP3   OH211942   4.943   3.857   2.633
 3979TIP3    H111943   4.854   3.852   2.599
 3979TIP3    H211944   4.941   3.930   2.695
 3980TIP3   OH211945   1.449   3.590   4.059
 3980TIP3    H111946   1.462   3.681   4.089
 3980TIP3    H211947   1.538   3.558   4.042
 3981TIP3   OH211948   0.485   0.467   0.476
 3981TIP3    H111949   0.576   0.475   0.504
 3981TIP3    H211950   0.463   0.554   0.443
 3982TIP3   OH211951   5.147   5.599   0.436
 3982TIP3    H111952   5.078   5.594   0.503
 3982TIP3    H211953   5.223   5.635   0.482
 3983TIP3   OH211954   5.489   5.930   3.426
 3983TIP3    H111955   5.414   5.957   3.374
 3983TIP3    H211956   5.566   5.951   3.373
 3984TIP3   OH211957   6.020   4.325   4.810
 3984TIP3    H111958   6.108   4.356   4.789
 3984TIP3    H211959   5.968   4.345   4.733
 3985TIP3   OH211960   4.901   4.068   4.110
 3985TIP3    H111961   4.809   4.079   4.086
 3985TIP3    H211962   4.922   3.978   4.085
 3986TIP3   OH211963   4.472   1.737   4.119
 3986TIP3    H111964   4.556   1.704   4.085
 3986TIP3    H211965   4.433   1.662   4.163
 3987TIP3   OH211966   2.212   4.423   3.664
 3987TIP3    H111967   2.121   4.436   3.637
 3987TIP3    H211968   2.255   4.507   3.647
 3988TIP3   OH211969   2.940   4.886   2.537
 3988TIP3    H111970   2.951   4.805   2.586
 3988TIP3    H211971   2.855   4.921   2.567
 3989TIP3   OH211972   3.803   0.848   4.064
 3989TIP3    H111973   3.789   0.895   4.146
 3989TIP3    H211974   3.885   0.884   4.030
 3990TIP3   OH211975   0.683   2.797   1.786
 3990TIP3    H111976   0.678   2.818   1.879
 3990TIP3    H211977   0.702   2.882   1.744
 3991TIP3   OH211978   3.418   2.261   2.616
 3991TIP3    H111979   3.387   2.219   2.536
 3991TIP3    H211980   3.351   2.327   2.636
 3992TIP3   OH211981   5.185   4.937   0.382
 3992TIP3    H111982   5.253   4.921   0.317
 3992TIP3    H211983   5.231   4.940   0.466
 3993TIP3   OH211984   0.223   3.699   1.386
 3993TIP3    H111985   0.280   3.736   1.454
 3993TIP3    H211986   0.272   3.624   1.352
 3994TIP3   OH211987   4.354   5.513   3.184
 3994TIP3    H111988   4.262   5.528   3.160
 3994TIP3    H211989   4.400   5.589   3.147
 3995TIP3   OH211990   6.291   0.491   2.598
 3995TIP3    H111991   6.359   0.503   2.531
 3995TIP3    H211992   6.230   0.563   2.584
 3996TIP3   OH211993   2.415   3.820   5.193
 3996TIP3    H111994   2.356   3.837   5.120
 3996TIP3    H211995   2.411   3.726   5.207
 3997TIP3   OH211996   0.786   4.736   3.321
 3997TIP3    H111997   0.768   4.798   3.251
 3997TIP3    H211998   0.817   4.657   3.276
 3998TIP3   OH211999   3.113   6.006   1.637
 3998TIP3    H112000   3.087   5.941   1.572
 3998TIP3    H212001   3.207   5.995   1.646
 3999TIP3   OH212002   1.652   4.797   3.431
 3999TIP3    H112003   1.656   4.744   3.352
 3999TIP3    H212004   1.740   4.790   3.470
 4000TIP3   OH212005   3.122   0.189   3.571
 4000TIP3    H112006   3.086   0.145   3.649
 4000TIP3    H212007   3.209   0.218   3.599
 4001TIP3   OH212008   5.010   2.795   1.048
 4001TIP3    H112009   5.009   2.825   1.139
 4001TIP3    H212010   4.973   2.707   1.051
 4002TIP3   OH212011   3.691   2.350   4.296
 4002TIP3    H112012   3.742   2.281   4.339
 4002TIP3    H212013   3.735   2.431   4.322
 4003TIP3   OH212014   6.046   0.882   2.924
 4003TIP3    H112015   5.987   0.943   2.881
 4003TIP3    H212016   6.127   0.885   2.872
 4004TIP3   OH212017   4.066   1.116   3.160
 4004TIP3    H112018   4.100   1.192   3.113
 4004TIP3    H212019   4.072   1.044   3.098
 4005TIP3   OH212020   2.895   4.358   1.282
 4005TIP3    H112021   2.959   4.402   1.338
 4005TIP3    H212022   2.815   4.410   1.292
 4006TIP3   OH212023   1.416   3.385   2.431
 4006TIP3    H112024   1.408   3.463   2.485
 4006TIP3    H212025   1.340   3.388   2.373
 4007TIP3   OH212026   3.988   0.277   5.121
 4007TIP3    H112027   3.901   0.288   5.159
 4007TIP3    H212028   3.971   0.261   5.028
 4008TIP3   OH212029   3.688   0.684   3.564
 4008TIP3    H112030   3.738   0.754   3.606
 4008TIP3    H212031   3.622   0.729   3.511
 4009TIP3   OH212032   1.531   4.353   3.321
 4009TIP3    H112033   1.623   4.376   3.337
 4009TIP3    H212034   1.529   4.324   3.230
 4010TIP3   OH212035   2.492   3.674   2.639
 4010TIP3    H112036   2.448   3.635   2.563
 4010TIP3    H212037   2.421   3.715   2.688
 4011TIP3   OH212038   4.925   2.470   0.661
 4011TIP3    H112039   4.877   2.480   0.743
 4011TIP3    H212040   5.017   2.471   0.687
 4012TIP3   OH212041   1.200   0.157   3.613
 4012TIP3    H112042   1.296   0.162   3.612
 4012TIP3    H212043   1.173   0.212   3.539
 4013TIP3   OH212044   5.819   1.412   2.061
 4013TIP3    H112045   5.805   1.337   2.120
 4013TIP3    H212046   5.737   1.461   2.065
 4014TIP3   OH212047   5.080   3.912   3.271
 4014TIP3    H112048   5.070   3.821   3.245
 4014TIP3    H212049   5.102   3.909   3.364
 4015TIP3   OH212050   5.998   5.987   1.550
 4015TIP3    H112051   5.950   5.992   1.633
 4015TIP3    H212052   6.090   5.981   1.576
 4016TIP3   OH212053   4.515   4.713   0.794
 4016TIP3    H112054   4.492   4.623   0.775
 4016TIP3    H212055   4.586   4.733   0.732
 4017TIP3   OH212056   5.540   4.402   4.122
 4017TIP3    H112057   5.578   4.490   4.126
 4017TIP3    H212058   5.509   4.385   4.211
 4018TIP3   OH212059   2.887   5.919   4.968
 4018TIP3    H112060   2.964   5.863   4.960
 4018TIP3    H212061   2.917   5.994   5.020
 4019TIP3   OH212062   5.362   5.426   0.590
 4019TIP3    H112063   5.392   5.493   0.529
 4019TIP3    H212064   5.320   5.360   0.535
 4020TIP3   OH212065   1.534   1.973   0.667
 4020TIP3    H112066   1.561   2.057   0.705
 4020TIP3    H212067   1.597   1.958   0.597
 4021TIP3   OH212068   2.588   0.142   2.661
 4021TIP3    H112069   2.621   0.107   2.578
 4021TIP3    H212070   2.505   0.097   2.675
 4022TIP3   OH212071   0.621   5.066   3.922
 4022TIP3    H112072   0.617   5.059   3.826
 4022TIP3    H212073   0.594   5.156   3.940
 4023TIP3   OH212074   0.657   0.060   5.112
 4023TIP3    H112075   0.726   0.126   5.112
 4023TIP3    H212076   0.701  -0.019   5.144
 4024TIP3   OH212077   4.829   4.115   2.530
 4024TIP3    H112078   4.757   4.172   2.559
 4024TIP3    H212079   4.904   4.142   2.584
 4025TIP3   OH212080   2.967   0.263   2.737
 4025TIP3    H112081   2.876   0.286   2.758
 4025TIP3    H212082   3.019   0.335   2.773
 4026TIP3   OH212083   5.826   5.200   4.703
 4026TIP3    H112084   5.799   5.235   4.788
 4026TIP3    H212085   5.879   5.123   4.725
 4027TIP3   OH212086   6.185   1.756   4.284
 4027TIP3    H112087   6.160   1.824   4.221
 4027TIP3    H212088   6.280   1.764   4.292
 4028TIP3   OH212089   4.511   2.342   4.279
 4028TIP3    H112090   4.553   2.259   4.257
 4028TIP3    H212091   4.553   2.406   4.222
 4029TIP3   OH212092   5.910   2.796   1.589
 4029TIP3    H112093   5.826   2.834   1.614
 4029TIP3    H212094   5.892   2.703   1.575
 4030TIP3   OH212095   2.821   3.190   4.159
 4030TIP3    H112096   2.759   3.182   4.232
 4030TIP3    H212097   2.833   3.101   4.128
 4031TIP3   OH212098   4.837   0.122   2.532
 4031TIP3    H112099   4.926   0.110   2.568
 4031TIP3    H212100   4.816   0.037   2.493
 4032TIP3   OH212101   1.928   5.647   1.784
 4032TIP3    H112102   1.943   5.554   1.798
 4032TIP3    H212103   2.003   5.690   1.825
 4033TIP3   OH212104   0.216   4.042   1.654
 4033TIP3    H112105   0.242   3.953   1.630
 4033TIP3    H212106   0.299   4.087   1.671
 4034TIP3   OH212107   4.476   1.991   1.750
 4034TIP3    H112108   4.545   1.970   1.688
 4034TIP3    H212109   4.510   1.963   1.835
 4035TIP3   OH212110   4.828   4.546   4.480
 4035TIP3    H112111   4.752   4.533   4.423
 4035TIP3    H212112   4.904   4.531   4.423
 4036TIP3   OH212113   3.102   5.108   1.478
 4036TIP3    H112114   3.071   5.028   1.436
 4036TIP3    H212115   3.162   5.077   1.546
 4037TIP3   OH212116   2.372   5.893   4.605
 4037TIP3    H112117   2.409   5.973   4.569
 4037TIP3    H212118   2.444   5.851   4.652
 4038TIP3   OH212119   3.848   5.944   0.266
 4038TIP3    H112120   3.919   6.008   0.257
 4038TIP3    H212121   3.886   5.862   0.232
 4039TIP3   OH212122   1.407   5.192   4.355
 4039TIP3    H112123   1.340   5.209   4.289
 4039TIP3    H212124   1.411   5.097   4.361
 4040TIP3   OH212125   4.411   4.659   3.835
 4040TIP3    H112126   4.320   4.631   3.844
 4040TIP3    H212127   4.416   4.699   3.748
 4041TIP3   OH212128   5.845   0.179   3.659
 4041TIP3    H112129   5.893   0.193   3.577
 4041TIP3    H212130   5.773   0.242   3.655
 4042TIP3   OH212131   2.285   3.610   4.083
 4042TIP3    H112132   2.238   3.663   4.018
 4042TIP3    H212133   2.377   3.634   4.072
 4043TIP3   OH212134   4.877   5.573   2.257
 4043TIP3    H112135   4.942   5.607   2.195
 4043TIP3    H212136   4.929   5.541   2.331
 4044TIP3   OH212137   2.143   4.717   4.959
 4044TIP3    H112138   2.138   4.763   4.876
 4044TIP3    H212139   2.057   4.730   4.999
 4045TIP3   OH212140   5.766   1.561   3.825
 4045TIP3    H112141   5.690   1.538   3.770
 4045TIP3    H212142   5.739   1.641   3.871
 4046TIP3   OH212143   5.130   2.792   1.536
 4046TIP3    H112144   5.051   2.809   1.485
 4046TIP3    H212145   5.154   2.702   1.516
 4047TIP3   OH212146   1.176   1.426   0.337
 4047TIP3    H112147   1.233   1.362   0.294
 4047TIP3    H212148   1.143   1.480   0.265
 4048TIP3   OH212149   1.968   0.258   4.558
 4048TIP3    H112150   1.971   0.166   4.585
 4048TIP3    H212151   1.899   0.296   4.611
 4049TIP3   OH212152   3.442   5.579   1.196
 4049TIP3    H112153   3.406   5.667   1.196
 4049TIP3    H212154   3.390   5.532   1.261
 4050TIP3   OH212155   0.048   4.693   1.580
 4050TIP3    H112156   0.085   4.777   1.554
 4050TIP3    H212157   0.021   4.705   1.671
 4051TIP3   OH212158   2.411   4.014   2.477
 4051TIP3    H112159   2.358   4.069   2.421
 4051TIP3    H212160   2.499   4.051   2.472
 4052TIP3   OH212161   0.008   2.827   5.045
 4052TIP3    H112162  -0.016   2.736   5.063
 4052TIP3    H212163   0.103   2.830   5.060
 4053TIP3   OH212164   2.187   2.211   1.779
 4053TIP3    H112165   2.151   2.129   1.746
 4053TIP3    H212166   2.276   2.214   1.744
 4054TIP3   OH212167   4.986   2.876   4.822
 4054TIP3    H112168   5.078   2.892   4.803
 4054TIP3    H212169   4.938   2.934   4.762
 4055TIP3   OH212170   4.742   1.548   0.572
 4055TIP3    H112171   4.762   1.587   0.487
 4055TIP3    H212172   4.786   1.603   0.636
 4056TIP3   OH212173   4.537   2.625   3.746
 4056TIP3    H112174   4.588   2.690   3.697
 4056TIP3    H212175   4.601   2.585   3.805
 4057TIP3   OH212176   6.136   4.082   4.144
 4057TIP3    H112177   6.112   4.019   4.212
 4057TIP3    H212178   6.078   4.062   4.071
 4058TIP3   OH212179   0.261   3.666   1.818
 4058TIP3    H112180   0.227   3.740   1.869
 4058TIP3    H212181   0.348   3.650   1.854
 4059TIP3   OH212182   5.882   4.512   3.197
 4059TIP3    H112183   5.797   4.490   3.236
 4059TIP3    H212184   5.872   4.603   3.168
 4060TIP3   OH212185   6.143   2.614   3.347
 4060TIP3    H112186   6.203   2.685   3.367
 4060TIP3    H212187   6.082   2.651   3.283
 4061TIP3   OH212188   0.823   3.724   4.062
 4061TIP3    H112189   0.819   3.652   4.125
 4061TIP3    H212190   0.879   3.789   4.103
 4062TIP3   OH212191   4.779   1.002   2.001
 4062TIP3    H112192   4.842   0.937   1.971
 4062TIP3    H212193   4.828   1.058   2.061
 4063TIP3   OH212194   0.058   1.479   1.301
 4063TIP3    H112195   0.068   1.458   1.394
 4063TIP3    H212196  -0.033   1.508   1.293
 4064TIP3   OH212197   4.245   0.568   3.180
 4064TIP3    H112198   4.317   0.582   3.241
 4064TIP3    H212199   4.283   0.514   3.110
 4065TIP3   OH212200   4.263   3.615   3.203
 4065TIP3    H112201   4.233   3.600   3.114
 4065TIP3    H212202   4.191   3.586   3.258
 4066TIP3   OH212203   1.549   2.599   4.425
 4066TIP3    H112204   1.587   2.670   4.373
 4066TIP3    H212205   1.459   2.592   4.394
 4067TIP3   OH212206   3.737   5.015   3.004
 4067TIP3    H112207   3.720   5.101   2.966
 4067TIP3    H212208   3.659   4.996   3.057
 4068TIP3   OH212209   4.755   4.260   1.264
 4068TIP3    H112210   4.808   4.244   1.342
 4068TIP3    H212211   4.812   4.237   1.191
 4069TIP3   OH212212   2.533   0.316   1.779
 4069TIP3    H112213   2.470   0.374   1.820
 4069TIP3    H212214   2.568   0.263   1.851
 4070TIP3   OH212215   2.157   3.273   2.956
 4070TIP3    H112216   2.065   3.273   2.931
 4070TIP3    H212217   2.168   3.195   3.009
 4071TIP3   OH212218   6.091   4.607   4.081
 4071TIP3    H112219   6.172   4.562   4.055
 4071TIP3    H212220   6.055   4.641   3.999
 4072TIP3   OH212221   0.114   1.412   0.374
 4072TIP3    H112222   0.205   1.428   0.398
 4072TIP3    H212223   0.119   1.367   0.290
 4073TIP3   OH212224   5.356   5.080   1.066
 4073TIP3    H112225   5.411   5.042   0.998
 4073TIP3    H212226   5.273   5.033   1.058
 4074TIP3   OH212227   0.185   4.594   0.741
 4074TIP3    H112228   0.120   4.662   0.723
 4074TIP3    H212229   0.145   4.513   0.711
 4075TIP3   OH212230   4.025   3.292   4.625
 4075TIP3    H112231   3.996   3.382   4.629
 4075TIP3    H212232   3.970   3.251   4.559
 4076TIP3   OH212233   3.984   4.698   3.022
 4076TIP3    H112234   3.994   4.758   2.947
 4076TIP3    H212235   4.070   4.657   3.030
 4077TIP3   OH212236   6.231   5.731   1.713
 4077TIP3    H112237   6.318   5.744   1.750
 4077TIP3    H212238   6.238   5.761   1.623
 4078TIP3   OH212239   2.908   3.094   3.725
 4078TIP3    H112240   2.865   3.090   3.640
 4078TIP3    H212241   2.943   3.183   3.730
 4079TIP3   OH212242   2.983   1.508   5.115
 4079TIP3    H112243   2.963   1.566   5.189
 4079TIP3    H212244   3.051   1.449   5.149
 4080TIP3   OH212245   0.796   5.639   2.773
 4080TIP3    H112246   0.876   5.689   2.787
 4080TIP3    H212247   0.747   5.689   2.708
 4081TIP3   OH212248   4.104   0.249   0.043
 4081TIP3    H112249   4.175   0.310   0.023
 4081TIP3    H212250   4.107   0.239   0.138
 4082TIP3   OH212251   5.373   3.873   3.160
 4082TIP3    H112252   5.394   3.818   3.084
 4082TIP3    H212253   5.278   3.884   3.155
 4083TIP3   OH212254   5.254   3.778   1.705
 4083TIP3    H112255   5.333   3.756   1.655
 4083TIP3    H212256   5.260   3.872   1.720
 4084TIP3   OH212257   0.594   2.245   0.626
 4084TIP3    H112258   0.652   2.312   0.660
 4084TIP3    H212259   0.614   2.167   0.678
 4085TIP3   OH212260   5.365   1.922   4.120
 4085TIP3    H112261   5.326   1.987   4.062
 4085TIP3    H212262   5.407   1.974   4.189
 4086TIP3   OH212263   6.351   4.508   3.972
 4086TIP3    H112264   6.327   4.495   3.880
 4086TIP3    H212265   6.375   4.600   3.979
 4087TIP3   OH212266   2.479   4.641   0.564
 4087TIP3    H112267   2.510   4.708   0.503
 4087TIP3    H212268   2.404   4.600   0.519
 4088TIP3   OH212269   2.433   2.992   4.161
 4088TIP3    H112270   2.394   3.069   4.204
 4088TIP3    H212271   2.488   2.952   4.229
 4089TIP3   OH212272   5.146   5.393   2.724
 4089TIP3    H112273   5.097   5.466   2.761
 4089TIP3    H212274   5.147   5.410   2.629
 4090TIP3   OH212275   3.315   0.472   4.504
 4090TIP3    H112276   3.368   0.552   4.511
 4090TIP3    H212277   3.346   0.429   4.425
 4091TIP3   OH212278   0.227   3.094   0.989
 4091TIP3    H112279   0.156   3.040   0.954
 4091TIP3    H212280   0.184   3.176   1.014
 4092TIP3   OH212281   6.182   4.120   1.012
 4092TIP3    H112282   6.211   4.198   0.965
 4092TIP3    H212283   6.091   4.137   1.035
 4093TIP3   OH212284   4.720   4.030   0.396
 4093TIP3    H112285   4.756   4.079   0.471
 4093TIP3    H212286   4.688   3.949   0.435
 4094TIP3   OH212287   2.196   0.846   2.436
 4094TIP3    H112288   2.141   0.780   2.478
 4094TIP3    H212289   2.285   0.827   2.467
 4095TIP3   OH212290   5.254   0.722   1.899
 4095TIP3    H112291   5.182   0.663   1.874
 4095TIP3    H212292   5.267   0.777   1.822
 4096TIP3   OH212293   4.156   0.604   5.021
 4096TIP3    H112294   4.232   0.660   5.008
 4096TIP3    H212295   4.138   0.608   5.115
 4097TIP3   OH212296   0.866   1.767   0.789
 4097TIP3    H112297   0.824   1.690   0.828
 4097TIP3    H212298   0.870   1.830   0.861
 4098TIP3   OH212299   3.196   3.433   3.898
 4098TIP3    H112300   3.225   3.401   3.984
 4098TIP3    H212301   3.180   3.354   3.847
 4099TIP3   OH212302   0.811   2.782   4.714
 4099TIP3    H112303   0.777   2.693   4.723
 4099TIP3    H212304   0.749   2.837   4.762
 4100TIP3   OH212305   1.076   0.196   2.971
 4100TIP3    H112306   1.149   0.223   3.026
 4100TIP3    H212307   1.117   0.159   2.893
 4101TIP3   OH212308   4.629   5.575   2.121
 4101TIP3    H112309   4.696   5.561   2.188
 4101TIP3    H212310   4.649   5.662   2.086
 4102TIP3   OH212311   0.278   1.256   5.173
 4102TIP3    H112312   0.349   1.308   5.136
 4102TIP3    H212313   0.319   1.174   5.200
 4103TIP3   OH212314   0.372   0.694   0.398
 4103TIP3    H112315   0.373   0.722   0.489
 4103TIP3    H212316   0.288   0.725   0.363
 4104TIP3   OH212317   4.629   4.958   1.089
 4104TIP3    H112318   4.668   4.873   1.108
 4104TIP3    H212319   4.687   4.996   1.023
 4105TIP3   OH212320   4.935   3.240   0.297
 4105TIP3    H112321   4.982   3.259   0.378
 4105TIP3    H212322   5.003   3.243   0.229
 4106TIP3   OH212323   3.057   0.124   2.350
 4106TIP3    H112324   3.140   0.155   2.314
 4106TIP3    H212325   3.080   0.090   2.437
 4107TIP3   OH212326   1.541   2.971   0.283
 4107TIP3    H112327   1.465   2.962   0.225
 4107TIP3    H212328   1.510   3.025   0.355
 4108TIP3   OH212329   1.142   0.292   1.312
 4108TIP3    H112330   1.236   0.308   1.309
 4108TIP3    H212331   1.108   0.359   1.371
 4109TIP3   OH212332   2.728   3.752   2.521
 4109TIP3    H112333   2.664   3.720   2.584
 4109TIP3    H212334   2.798   3.788   2.575
 4110TIP3   OH212335   0.585   5.747   3.424
 4110TIP3    H112336   0.499   5.751   3.382
 4110TIP3    H212337   0.571   5.692   3.501
 4111TIP3   OH212338   3.729   3.347   1.056
 4111TIP3    H112339   3.721   3.253   1.067
 4111TIP3    H212340   3.806   3.358   1.000
 4112TIP3   OH212341   4.602   3.270   0.949
 4112TIP3    H112342   4.626   3.345   1.004
 4112TIP3    H212343   4.602   3.196   1.009
 4113TIP3   OH212344   3.981   3.351   5.095
 4113TIP3    H112345   3.932   3.433   5.089
 4113TIP3    H212346   3.940   3.294   5.030
 4114TIP3   OH212347   4.482   0.578   3.336
 4114TIP3    H112348   4.544   0.650   3.333
 4114TIP3    H212349   4.474   0.557   3.430
 4115TIP3   OH212350   0.006   1.985   4.594
 4115TIP3    H112351  -0.036   1.927   4.657
 4115TIP3    H212352   0.035   2.060   4.646
 4116TIP3   OH212353   1.456   5.979   1.038
 4116TIP3    H112354   1.479   5.912   1.103
 4116TIP3    H212355   1.521   5.969   0.969
 4117TIP3   OH212356   1.947   0.195   1.796
 4117TIP3    H112357   2.024   0.179   1.742
 4117TIP3    H212358   1.922   0.286   1.776
 4118TIP3   OH212359   1.196   4.966   2.436
 4118TIP3    H112360   1.118   4.912   2.448
 4118TIP3    H212361   1.164   5.056   2.439
 4119TIP3   OH212362   0.251   4.891   2.180
 4119TIP3    H112363   0.231   4.925   2.267
 4119TIP3    H212364   0.250   4.968   2.123
 4120TIP3   OH212365   0.064   4.773   3.997
 4120TIP3    H112366   0.131   4.781   3.930
 4120TIP3    H212367   0.014   4.855   3.992
 4121TIP3   OH212368   5.452   5.689   5.006
 4121TIP3    H112369   5.382   5.624   5.004
 4121TIP3    H212370   5.507   5.667   4.931
 4122TIP3   OH212371   1.837   5.449   3.256
 4122TIP3    H112372   1.845   5.363   3.298
 4122TIP3    H212373   1.914   5.497   3.286
 4123TIP3   OH212374   4.238   2.944   3.517
 4123TIP3    H112375   4.162   2.947   3.459
 4123TIP3    H212376   4.220   2.871   3.576
 4124TIP3   OH212377   0.067   4.490   2.856
 4124TIP3    H112378   0.090   4.527   2.771
 4124TIP3    H212379  -0.026   4.509   2.866
 4125TIP3   OH212380   3.599   0.952   0.333
 4125TIP3    H112381   3.533   0.888   0.308
 4125TIP3    H212382   3.679   0.922   0.290
 4126TIP3   OH212383   1.902   5.442   0.479
 4126TIP3    H112384   1.992   5.472   0.466
 4126TIP3    H212385   1.897   5.422   0.572
 4127TIP3   OH212386   4.067   0.465   4.189
 4127TIP3    H112387   3.992   0.406   4.198
 4127TIP3    H212388   4.138   0.409   4.159
 4128TIP3   OH212389   3.424   3.198   3.044
 4128TIP3    H112390   3.430   3.216   3.138
 4128TIP3    H212391   3.358   3.128   3.037
 4129TIP3   OH212392   3.909   5.159   0.946
 4129TIP3    H112393   3.991   5.208   0.948
 4129TIP3    H212394   3.906   5.113   1.030
 4130TIP3   OH212395   4.944   3.396   3.564
 4130TIP3    H112396   4.864   3.449   3.560
 4130TIP3    H212397   5.014   3.458   3.582
 4131TIP3   OH212398   6.140   5.149   2.086
 4131TIP3    H112399   6.059   5.129   2.133
 4131TIP3    H212400   6.148   5.080   2.020
 4132TIP3   OH212401   2.982   1.660   0.903
 4132TIP3    H112402   3.023   1.698   0.980
 4132TIP3    H212403   2.889   1.674   0.914
 4133TIP3   OH212404   3.542   3.851   2.008
 4133TIP3    H112405   3.578   3.874   1.922
 4133TIP3    H212406   3.559   3.928   2.062
 4134TIP3   OH212407   3.238   3.183   2.804
 4134TIP3    H112408   3.307   3.208   2.865
 4134TIP3    H212409   3.159   3.227   2.837
 4135TIP3   OH212410   0.680   0.388   4.340
 4135TIP3    H112411   0.728   0.455   4.292
 4135TIP3    H212412   0.730   0.307   4.327
 4136TIP3   OH212413   5.180   2.731   2.066
 4136TIP3    H112414   5.198   2.650   2.113
 4136TIP3    H212415   5.259   2.784   2.079
 4137TIP3   OH212416   3.380   1.602   5.022
 4137TIP3    H112417   3.470   1.628   5.006
 4137TIP3    H212418   3.384   1.507   5.033
 4138TIP3   OH212419   3.282   3.273   2.557
 4138TIP3    H112420   3.206   3.330   2.544
 4138TIP3    H212421   3.263   3.225   2.637
 4139TIP3   OH212422   4.936   1.833   2.895
 4139TIP3    H112423   4.875   1.848   2.822
 4139TIP3    H212424   4.939   1.738   2.905
 4140TIP3   OH212425   2.250   0.737   0.209
 4140TIP3    H112426   2.264   0.727   0.303
 4140TIP3    H212427   2.292   0.660   0.171
 4141TIP3   OH212428   3.924   5.893   2.586
 4141TIP3    H112429   3.831   5.870   2.582
 4141TIP3    H212430   3.927   5.984   2.555
 4142TIP3   OH212431   5.284   1.534   2.266
 4142TIP3    H112432   5.364   1.481   2.267
 4142TIP3    H212433   5.213   1.471   2.278
 4143TIP3   OH212434   4.671   1.770   3.130
 4143TIP3    H112435   4.721   1.710   3.075
 4143TIP3    H212436   4.705   1.755   3.218
 4144TIP3   OH212437   2.855   2.320   0.696
 4144TIP3    H112438   2.861   2.410   0.729
 4144TIP3    H212439   2.761   2.302   0.694
 4145TIP3   OH212440   2.289   5.515   3.626
 4145TIP3    H112441   2.232   5.439   3.635
 4145TIP3    H212442   2.229   5.589   3.617
 4146TIP3   OH212443   1.961   3.280   3.447
 4146TIP3    H112444   1.896   3.211   3.462
 4146TIP3    H212445   1.912   3.348   3.401
 4147TIP3   OH212446   4.357   0.977   0.638
 4147TIP3    H112447   4.346   0.883   0.649
 4147TIP3    H212448   4.349   1.013   0.727
 4148TIP3   OH212449   1.236   0.611   4.051
 4148TIP3    H112450   1.283   0.579   4.128
 4148TIP3    H212451   1.294   0.678   4.014
 4149TIP3   OH212452   0.246   1.341   3.981
 4149TIP3    H112453   0.197   1.398   3.921
 4149TIP3    H212454   0.263   1.396   4.057
 4150TIP3   OH212455   4.951   2.484   1.008
 4150TIP3    H112456   4.881   2.432   1.047
 4150TIP3    H212457   5.028   2.427   1.013
 4151TIP3   OH212458   2.781   0.388   0.188
 4151TIP3    H112459   2.837   0.362   0.115
 4151TIP3    H212460   2.754   0.305   0.228
 4152TIP3   OH212461   5.457   0.882   3.790
 4152TIP3    H112462   5.516   0.954   3.810
 4152TIP3    H212463   5.511   0.803   3.798
 4153TIP3   OH212464   5.301   5.295   2.212
 4153TIP3    H112465   5.231   5.338   2.163
 4153TIP3    H212466   5.285   5.201   2.199
 4154TIP3   OH212467   3.607   0.669   2.073
 4154TIP3    H112468   3.646   0.640   1.990
 4154TIP3    H212469   3.513   0.656   2.061
 4155TIP3   OH212470   0.221   5.390   4.552
 4155TIP3    H112471   0.177   5.342   4.622
 4155TIP3    H212472   0.153   5.447   4.515
 4156TIP3   OH212473   0.797   2.274   2.358
 4156TIP3    H112474   0.888   2.243   2.359
 4156TIP3    H212475   0.749   2.204   2.312
 4157TIP3   OH212476   2.503   1.374   3.110
 4157TIP3    H112477   2.532   1.290   3.075
 4157TIP3    H212478   2.562   1.438   3.070
 4158TIP3   OH212479   3.253   2.094   1.326
 4158TIP3    H112480   3.203   2.124   1.250
 4158TIP3    H212481   3.244   2.165   1.389
 4159TIP3   OH212482   3.120   4.040   1.781
 4159TIP3    H112483   3.157   4.049   1.694
 4159TIP3    H212484   3.185   4.078   1.839
 4160TIP3   OH212485   1.191   3.207   2.971
 4160TIP3    H112486   1.104   3.170   2.957
 4160TIP3    H212487   1.244   3.170   2.901
 4161TIP3   OH212488   1.521   3.260   4.008
 4161TIP3    H112489   1.509   3.263   4.103
 4161TIP3    H212490   1.593   3.320   3.991
 4162TIP3   OH212491   4.165   4.788   4.392
 4162TIP3    H112492   4.129   4.851   4.455
 4162TIP3    H212493   4.117   4.806   4.311
 4163TIP3   OH212494   0.500   3.784   0.769
 4163TIP3    H112495   0.423   3.825   0.730
 4163TIP3    H212496   0.497   3.693   0.740
 4164TIP3   OH212497   0.346   1.080   4.749
 4164TIP3    H112498   0.287   1.155   4.760
 4164TIP3    H212499   0.314   1.014   4.810
 4165TIP3   OH212500   4.364   5.258   0.309
 4165TIP3    H112501   4.451   5.297   0.317
 4165TIP3    H212502   4.368   5.208   0.227
 4166TIP3   OH212503   3.552   0.389   0.416
 4166TIP3    H112504   3.610   0.319   0.386
 4166TIP3    H212505   3.527   0.362   0.504
 4167TIP3   OH212506   2.906   1.208   3.674
 4167TIP3    H112507   2.912   1.254   3.758
 4167TIP3    H212508   2.814   1.214   3.651
 4168TIP3   OH212509   0.960   3.917   1.930
 4168TIP3    H112510   1.016   3.937   1.855
 4168TIP3    H212511   0.871   3.918   1.895
 4169TIP3   OH212512   2.684   4.388   1.582
 4169TIP3    H112513   2.709   4.477   1.607
 4169TIP3    H212514   2.762   4.335   1.601
 4170TIP3   OH212515   4.352   1.310   0.404
 4170TIP3    H112516   4.403   1.232   0.425
 4170TIP3    H212517   4.283   1.279   0.346
 4171TIP3   OH212518   1.571   5.913   2.222
 4171TIP3    H112519   1.601   5.824   2.202
 4171TIP3    H212520   1.492   5.899   2.275
 4172TIP3   OH212521   5.721   1.816   3.939
 4172TIP3    H112522   5.764   1.805   4.024
 4172TIP3    H212523   5.654   1.883   3.955
 4173TIP3   OH212524   5.592   3.019   2.649
 4173TIP3    H112525   5.655   3.091   2.660
 4173TIP3    H212526   5.645   2.940   2.659
 4174TIP3   OH212527   2.303   1.722   2.241
 4174TIP3    H112528   2.304   1.799   2.184
 4174TIP3    H212529   2.396   1.705   2.260
 4175TIP3   OH212530   1.370   2.596   4.725
 4175TIP3    H112531   1.445   2.538   4.715
 4175TIP3    H212532   1.407   2.680   4.752
 4176TIP3   OH212533   0.080   1.477   3.777
 4176TIP3    H112534  -0.008   1.443   3.792
 4176TIP3    H212535   0.103   1.446   3.689
 4177TIP3   OH212536   4.459   3.662   1.527
 4177TIP3    H112537   4.399   3.720   1.575
 4177TIP3    H212538   4.491   3.600   1.593
 4178TIP3   OH212539   1.182   1.888   0.120
 4178TIP3    H112540   1.113   1.856   0.178
 4178TIP3    H212541   1.148   1.971   0.086
 4179TIP3   OH212542   5.604   0.398   0.743
 4179TIP3    H112543   5.650   0.481   0.748
 4179TIP3    H212544   5.664   0.341   0.693
 4180TIP3   OH212545   5.111   3.141   0.917
 4180TIP3    H112546   5.197   3.117   0.951
 4180TIP3    H212547   5.052   3.126   0.991
 4181TIP3   OH212548   4.501   5.103   0.523
 4181TIP3    H112549   4.442   5.178   0.521
 4181TIP3    H212550   4.499   5.068   0.434
 4182TIP3   OH212551   3.990   0.488   0.462
 4182TIP3    H112552   4.060   0.472   0.526
 4182TIP3    H212553   4.030   0.542   0.395
 4183TIP3   OH212554   3.270   2.042   1.683
 4183TIP3    H112555   3.270   1.972   1.749
 4183TIP3    H212556   3.298   1.998   1.602
 4184TIP3   OH212557   3.623   3.699   2.607
 4184TIP3    H112558   3.604   3.606   2.623
 4184TIP3    H212559   3.619   3.709   2.512
 4185TIP3   OH212560   1.687   4.014   1.317
 4185TIP3    H112561   1.657   3.928   1.289
 4185TIP3    H212562   1.643   4.076   1.258
 4186TIP3   OH212563   1.572   3.766   1.185
 4186TIP3    H112564   1.643   3.768   1.121
 4186TIP3    H212565   1.506   3.826   1.149
 4187TIP3   OH212566   1.359   2.208   1.057
 4187TIP3    H112567   1.361   2.275   1.126
 4187TIP3    H212568   1.369   2.257   0.976
 4188TIP3   OH212569   2.247   1.326   0.360
 4188TIP3    H112570   2.200   1.244   0.346
 4188TIP3    H212571   2.203   1.389   0.303
 4189TIP3   OH212572   2.537   0.530   4.187
 4189TIP3    H112573   2.455   0.494   4.222
 4189TIP3    H212574   2.514   0.559   4.098
 4190TIP3   OH212575   2.944   5.237   5.098
 4190TIP3    H112576   2.912   5.292   5.169
 4190TIP3    H212577   2.906   5.276   5.019
 4191TIP3   OH212578   0.613   4.843   1.218
 4191TIP3    H112579   0.527   4.848   1.260
 4191TIP3    H212580   0.672   4.890   1.277
 4192TIP3   OH212581   6.008   5.150   0.548
 4192TIP3    H112582   5.924   5.189   0.524
 4192TIP3    H212583   6.024   5.181   0.638
 4193TIP3   OH212584   4.235   2.730   2.796
 4193TIP3    H112585   4.305   2.764   2.740
 4193TIP3    H212586   4.280   2.673   2.858
 4194TIP3   OH212587   0.710   4.493   1.655
 4194TIP3    H112588   0.665   4.442   1.722
 4194TIP3    H212589   0.700   4.442   1.574
 4195TIP3   OH212590   4.565   5.100   1.324
 4195TIP3    H112591   4.594   5.062   1.240
 4195TIP3    H212592   4.568   5.194   1.310
 4196TIP3   OH212593   4.092   1.399   3.984
 4196TIP3    H112594   4.160   1.352   3.934
 4196TIP3    H212595   4.053   1.331   4.039
 4197TIP3   OH212596   1.664   3.485   1.215
 4197TIP3    H112597   1.739   3.460   1.269
 4197TIP3    H212598   1.662   3.581   1.221
 4198TIP3   OH212599   4.488   0.555   3.615
 4198TIP3    H112600   4.487   0.650   3.601
 4198TIP3    H212601   4.460   0.543   3.705
 4199TIP3   OH212602   4.027   5.581   3.759
 4199TIP3    H112603   4.081   5.520   3.709
 4199TIP3    H212604   4.089   5.624   3.818
 4200TIP3   OH212605   2.068   4.548   4.470
 4200TIP3    H112606   2.117   4.468   4.453
 4200TIP3    H212607   2.054   4.548   4.565
 4201TIP3   OH212608   3.763   5.568   2.214
 4201TIP3    H112609   3.794   5.492   2.165
 4201TIP3    H212610   3.693   5.605   2.161
 4202TIP3   OH212611   3.682   5.848   5.137
 4202TIP3    H112612   3.752   5.914   5.133
 4202TIP3    H212613   3.685   5.804   5.052
 4203TIP3   OH212614   6.045   1.344   4.479
 4203TIP3    H112615   6.051   1.327   4.385
 4203TIP3    H212616   6.042   1.257   4.519
 4204TIP3   OH212617   2.399   0.952   1.907
 4204TIP3    H112618   2.409   0.996   1.991
 4204TIP3    H212619   2.315   0.905   1.914
 4205TIP3   OH212620   4.275   0.210   4.916
 4205TIP3    H112621   4.336   0.195   4.844
 4205TIP3    H212622   4.203   0.259   4.877
 4206TIP3   OH212623   1.833   4.666   0.837
 4206TIP3    H112624   1.847   4.687   0.745
 4206TIP3    H212625   1.827   4.750   0.881
 4207TIP3   OH212626   5.270   1.228   0.737
 4207TIP3    H112627   5.348   1.180   0.766
 4207TIP3    H212628   5.273   1.225   0.642
 4208TIP3   OH212629   2.544   1.060   0.861
 4208TIP3    H112630   2.504   1.101   0.784
 4208TIP3    H212631   2.532   0.966   0.848
 4209TIP3   OH212632   5.696   3.423   3.401
 4209TIP3    H112633   5.719   3.403   3.492
 4209TIP3    H212634   5.767   3.385   3.350
 4210TIP3   OH212635   2.599   5.909   3.497
 4210TIP3    H112636   2.683   5.916   3.453
 4210TIP3    H212637   2.595   5.985   3.555
 4211TIP3   OH212638   0.597   5.652   4.118
 4211TIP3    H112639   0.524   5.614   4.069
 4211TIP3    H212640   0.642   5.708   4.054
 4212TIP3   OH212641   2.762   1.390   2.832
 4212TIP3    H112642   2.855   1.408   2.845
 4212TIP3    H212643   2.716   1.462   2.876
 4213TIP3   OH212644   4.520   4.598   4.201
 4213TIP3    H112645   4.545   4.507   4.183
 4213TIP3    H212646   4.496   4.598   4.294
 4214TIP3   OH212647   1.485   1.606   4.275
 4214TIP3    H112648   1.468   1.658   4.354
 4214TIP3    H212649   1.493   1.516   4.306
 4215TIP3   OH212650   0.620   3.708   4.598
 4215TIP3    H112651   0.690   3.773   4.595
 4215TIP3    H212652   0.659   3.634   4.644
 4216TIP3   OH212653   5.572   5.292   2.229
 4216TIP3    H112654   5.479   5.315   2.230
 4216TIP3    H212655   5.614   5.362   2.178
 4217TIP3   OH212656   3.361   0.037   0.821
 4217TIP3    H112657   3.370   0.105   0.755
 4217TIP3    H212658   3.439   0.046   0.876
 4218TIP3   OH212659   1.395   0.434   1.264
 4218TIP3    H112660   1.484   0.425   1.298
 4218TIP3    H212661   1.405   0.482   1.182
 4219TIP3   OH212662   1.056   2.355   4.060
 4219TIP3    H112663   1.047   2.429   4.120
 4219TIP3    H212664   0.971   2.312   4.063
 4220TIP3   OH212665   5.739   3.759   3.665
 4220TIP3    H112666   5.728   3.854   3.668
 4220TIP3    H212667   5.655   3.724   3.698
 4221TIP3   OH212668   1.336   0.356   2.897
 4221TIP3    H112669   1.331   0.300   2.975
 4221TIP3    H212670   1.326   0.295   2.823
 4222TIP3   OH212671   0.352   0.651   1.222
 4222TIP3    H112672   0.303   0.663   1.141
 4222TIP3    H212673   0.435   0.612   1.195
 4223TIP3   OH212674   1.088   3.513   0.845
 4223TIP3    H112675   1.040   3.590   0.815
 4223TIP3    H212676   1.177   3.545   0.863
 4224TIP3   OH212677   2.344   2.685   4.072
 4224TIP3    H112678   2.406   2.709   4.004
 4224TIP3    H212679   2.335   2.765   4.125
 4225TIP3   OH212680   1.455   4.297   2.457
 4225TIP3    H112681   1.524   4.238   2.487
 4225TIP3    H212682   1.463   4.297   2.361
 4226TIP3   OH212683   1.494   4.176   4.232
 4226TIP3    H112684   1.511   4.238   4.162
 4226TIP3    H212685   1.556   4.200   4.301
 4227TIP3   OH212686   1.192   1.901   3.890
 4227TIP3    H112687   1.180   1.927   3.982
 4227TIP3    H212688   1.286   1.892   3.879
 4228TIP3   OH212689   5.712   3.725   3.115
 4228TIP3    H112690   5.703   3.816   3.089
 4228TIP3    H212691   5.696   3.725   3.209
 4229TIP3   OH212692   5.636   1.001   2.013
 4229TIP3    H112693   5.577   1.010   1.938
 4229TIP3    H212694   5.599   0.928   2.063
 4230TIP3   OH212695   0.032   0.105   4.764
 4230TIP3    H112696   0.090   0.123   4.839
 4230TIP3    H212697   0.035   0.010   4.753
 4231TIP3   OH212698   3.260   1.560   0.774
 4231TIP3    H112699   3.262   1.548   0.869
 4231TIP3    H212700   3.221   1.646   0.761
 4232TIP3   OH212701   1.040   0.607   5.093
 4232TIP3    H112702   1.047   0.684   5.037
 4232TIP3    H212703   1.026   0.642   5.181
 4233TIP3   OH212704   1.230   5.898   4.561
 4233TIP3    H112705   1.211   5.975   4.508
 4233TIP3    H212706   1.285   5.930   4.632
 4234TIP3   OH212707   6.238   5.554   4.766
 4234TIP3    H112708   6.260   5.464   4.791
 4234TIP3    H212709   6.143   5.556   4.767
 4235TIP3   OH212710   0.996   0.528   3.126
 4235TIP3    H112711   1.062   0.546   3.193
 4235TIP3    H212712   1.037   0.557   3.044
 4236TIP3   OH212713   4.134   0.846   1.534
 4236TIP3    H112714   4.074   0.790   1.485
 4236TIP3    H212715   4.123   0.933   1.495
 4237TIP3   OH212716   4.143   1.715   1.416
 4237TIP3    H112717   4.133   1.803   1.381
 4237TIP3    H212718   4.155   1.659   1.339
 4238TIP3   OH212719   3.880   2.701   1.003
 4238TIP3    H112720   3.832   2.637   1.055
 4238TIP3    H212721   3.812   2.757   0.965
 4239TIP3   OH212722   2.660   5.933   3.931
 4239TIP3    H112723   2.673   5.983   3.850
 4239TIP3    H212724   2.569   5.904   3.928
 4240TIP3   OH212725   0.203   5.883   3.078
 4240TIP3    H112726   0.157   5.918   3.154
 4240TIP3    H212727   0.148   5.811   3.048
 4241TIP3   OH212728   2.204   2.613   1.610
 4241TIP3    H112729   2.158   2.572   1.683
 4241TIP3    H212730   2.295   2.615   1.637
 4242TIP3   OH212731   5.735   1.555   0.348
 4242TIP3    H112732   5.734   1.633   0.404
 4242TIP3    H212733   5.642   1.535   0.334
 4243TIP3   OH212734   5.494   2.422   2.229
 4243TIP3    H112735   5.584   2.454   2.232
 4243TIP3    H212736   5.501   2.332   2.199
 4244TIP3   OH212737   2.213   0.642   3.757
 4244TIP3    H112738   2.140   0.580   3.749
 4244TIP3    H212739   2.172   0.724   3.784
 4245TIP3   OH212740   2.389   1.022   3.774
 4245TIP3    H112741   2.368   0.932   3.799
 4245TIP3    H212742   2.344   1.035   3.691
 4246TIP3   OH212743   0.889   5.343   5.105
 4246TIP3    H112744   0.949   5.315   5.037
 4246TIP3    H212745   0.944   5.361   5.181
 4247TIP3   OH212746   3.267   5.796   4.078
 4247TIP3    H112747   3.271   5.713   4.032
 4247TIP3    H212748   3.273   5.862   4.010
 4248TIP3   OH212749   0.615   0.790   0.557
 4248TIP3    H112750   0.705   0.757   0.558
 4248TIP3    H212751   0.595   0.801   0.464
 4249TIP3   OH212752   0.709  -0.004   2.102
 4249TIP3    H112753   0.681   0.076   2.058
 4249TIP3    H212754   0.793   0.018   2.142
 4250TIP3   OH212755   2.319   5.602   3.230
 4250TIP3    H112756   2.368   5.684   3.233
 4250TIP3    H212757   2.261   5.611   3.155
 4251TIP3   OH212758   1.485   2.160   1.676
 4251TIP3    H112759   1.481   2.165   1.772
 4251TIP3    H212760   1.458   2.070   1.655
 4252TIP3   OH212761   2.272   4.183   2.306
 4252TIP3    H112762   2.313   4.156   2.224
 4252TIP3    H212763   2.184   4.144   2.303
 4253TIP3   OH212764   3.113   4.254   2.885
 4253TIP3    H112765   3.051   4.188   2.853
 4253TIP3    H212766   3.196   4.208   2.894
 4254TIP3   OH212767   5.688   4.939   4.172
 4254TIP3    H112768   5.595   4.917   4.167
 4254TIP3    H212769   5.732   4.854   4.176
 4255TIP3   OH212770   6.164   1.020   5.043
 4255TIP3    H112771   6.208   1.059   5.119
 4255TIP3    H212772   6.175   0.926   5.055
 4256TIP3   OH212773   6.035   3.331   0.302
 4256TIP3    H112774   6.074   3.372   0.379
 4256TIP3    H212775   5.950   3.375   0.292
 4257TIP3   OH212776   3.144   1.028   2.578
 4257TIP3    H112777   3.193   1.044   2.659
 4257TIP3    H212778   3.058   1.066   2.595
 4258TIP3   OH212779   2.998   4.695   3.077
 4258TIP3    H112780   3.078   4.651   3.103
 4258TIP3    H212781   3.023   4.787   3.066
 4259TIP3   OH212782   3.840   3.244   2.080
 4259TIP3    H112783   3.794   3.174   2.126
 4259TIP3    H212784   3.920   3.257   2.130
 4260TIP3   OH212785   0.303   2.604   4.006
 4260TIP3    H112786   0.332   2.653   3.930
 4260TIP3    H212787   0.237   2.660   4.047
 4261TIP3   OH212788   0.042   3.877   3.928
 4261TIP3    H112789   0.079   3.828   4.001
 4261TIP3    H212790  -0.036   3.829   3.903
 4262TIP3   OH212791   0.431   5.458   0.401
 4262TIP3    H112792   0.435   5.363   0.402
 4262TIP3    H212793   0.386   5.481   0.483
 4263TIP3   OH212794   5.358   2.551   3.253
 4263TIP3    H112795   5.361   2.609   3.177
 4263TIP3    H212796   5.290   2.486   3.231
 4264TIP3   OH212797   5.329   3.822   1.341
 4264TIP3    H112798   5.316   3.906   1.385
 4264TIP3    H212799   5.242   3.800   1.308
 4265TIP3   OH212800   6.269   3.666   3.332
 4265TIP3    H112801   6.181   3.631   3.323
 4265TIP3    H212802   6.318   3.597   3.377
 4266TIP3   OH212803   4.801   0.220   3.490
 4266TIP3    H112804   4.859   0.293   3.513
 4266TIP3    H212805   4.715   0.260   3.477
 4267TIP3   OH212806   5.112   4.806   4.125
 4267TIP3    H112807   5.018   4.822   4.124
 4267TIP3    H212808   5.142   4.831   4.037
 4268TIP3   OH212809   4.986   4.466   3.606
 4268TIP3    H112810   4.959   4.381   3.643
 4268TIP3    H212811   4.938   4.530   3.659
 4269TIP3   OH212812   0.889   3.596   2.817
 4269TIP3    H112813   0.968   3.586   2.870
 4269TIP3    H212814   0.903   3.538   2.742
 4270TIP3   OH212815   3.015   2.432   1.910
 4270TIP3    H112816   2.965   2.492   1.965
 4270TIP3    H212817   2.975   2.438   1.824
 4271TIP3   OH212818   1.346   4.782   1.133
 4271TIP3    H112819   1.300   4.804   1.214
 4271TIP3    H212820   1.295   4.711   1.095
 4272TIP3   OH212821   5.181   4.385   1.026
 4272TIP3    H112822   5.230   4.362   1.104
 4272TIP3    H212823   5.187   4.309   0.969
 4273TIP3   OH212824   0.494   5.298   3.440
 4273TIP3    H112825   0.433   5.372   3.433
 4273TIP3    H212826   0.575   5.331   3.401
 4274TIP3   OH212827   1.232   4.476   2.946
 4274TIP3    H112828   1.153   4.530   2.944
 4274TIP3    H212829   1.255   4.463   2.854
 4275TIP3   OH212830   1.443   5.781   2.470
 4275TIP3    H112831   1.360   5.825   2.490
 4275TIP3    H212832   1.421   5.717   2.402
 4276TIP3   OH212833   5.700   0.241   3.025
 4276TIP3    H112834   5.663   0.328   3.013
 4276TIP3    H212835   5.634   0.181   2.991
 4277TIP3   OH212836   0.518   3.430   0.152
 4277TIP3    H112837   0.487   3.401   0.067
 4277TIP3    H212838   0.524   3.350   0.204
 4278TIP3   OH212839   1.143   3.998   3.340
 4278TIP3    H112840   1.203   4.073   3.344
 4278TIP3    H212841   1.065   4.026   3.387
 4279TIP3   OH212842   5.617   4.657   4.085
 4279TIP3    H112843   5.655   4.622   4.005
 4279TIP3    H212844   5.534   4.697   4.057
 4280TIP3   OH212845   5.848   4.907   5.093
 4280TIP3    H112846   5.919   4.865   5.046
 4280TIP3    H212847   5.883   4.993   5.118
 4281TIP3   OH212848   2.321   1.511   4.205
 4281TIP3    H112849   2.255   1.476   4.265
 4281TIP3    H212850   2.405   1.490   4.247
 4282TIP3   OH212851   3.062   3.428   2.528
 4282TIP3    H112852   3.045   3.461   2.440
 4282TIP3    H212853   2.981   3.444   2.576
 4283TIP3   OH212854   0.194   1.316   4.760
 4283TIP3    H112855   0.120   1.257   4.746
 4283TIP3    H212856   0.167   1.398   4.720
 4284TIP3   OH212857   1.126   0.649   1.606
 4284TIP3    H112858   1.076   0.717   1.563
 4284TIP3    H212859   1.212   0.652   1.564
 4285TIP3   OH212860   2.360   3.511   1.222
 4285TIP3    H112861   2.394   3.491   1.309
 4285TIP3    H212862   2.338   3.426   1.185
 4286TIP3   OH212863   1.245   0.428   1.900
 4286TIP3    H112864   1.226   0.521   1.896
 4286TIP3    H212865   1.267   0.404   1.810
 4287TIP3   OH212866   4.567   1.493   0.341
 4287TIP3    H112867   4.547   1.586   0.332
 4287TIP3    H212868   4.502   1.460   0.402
 4288TIP3   OH212869   1.876   3.704   3.759
 4288TIP3    H112870   1.869   3.728   3.667
 4288TIP3    H212871   1.836   3.617   3.764
 4289TIP3   OH212872   5.672   0.699   1.822
 4289TIP3    H112873   5.593   0.700   1.769
 4289TIP3    H212874   5.738   0.744   1.769
 4290TIP3   OH212875   3.514   3.792   1.502
 4290TIP3    H112876   3.593   3.788   1.447
 4290TIP3    H212877   3.465   3.713   1.479
 4291TIP3   OH212878   2.588   1.481   3.742
 4291TIP3    H112879   2.614   1.484   3.834
 4291TIP3    H212880   2.616   1.394   3.712
 4292TIP3   OH212881   5.630   1.840   2.713
 4292TIP3    H112882   5.662   1.930   2.715
 4292TIP3    H212883   5.584   1.829   2.796
 4293TIP3   OH212884   5.249   3.967   4.436
 4293TIP3    H112885   5.157   3.943   4.422
 4293TIP3    H212886   5.261   3.962   4.531
 4294TIP3   OH212887   1.673   2.486   3.475
 4294TIP3    H112888   1.684   2.546   3.549
 4294TIP3    H212889   1.578   2.482   3.461
 4295TIP3   OH212890   0.331   1.956   2.060
 4295TIP3    H112891   0.297   2.030   2.110
 4295TIP3    H212892   0.263   1.937   1.996
 4296TIP3   OH212893   4.360   0.252   3.363
 4296TIP3    H112894   4.276   0.259   3.409
 4296TIP3    H212895   4.336   0.235   3.272
 4297TIP3   OH212896   4.637   3.415   0.712
 4297TIP3    H112897   4.717   3.457   0.745
 4297TIP3    H212898   4.602   3.367   0.786
 4298TIP3   OH212899   3.950   0.199   3.060
 4298TIP3    H112900   3.874   0.148   3.031
 4298TIP3    H212901   3.996   0.221   2.979
 4299TIP3   OH212902   0.618   4.725   5.073
 4299TIP3    H112903   0.603   4.815   5.045
 4299TIP3    H212904   0.644   4.679   4.994
 4300TIP3   OH212905   3.203   4.221   1.569
 4300TIP3    H112906   3.289   4.181   1.579
 4300TIP3    H212907   3.198   4.245   1.476
 4301TIP3   OH212908   4.377   3.960   1.237
 4301TIP3    H112909   4.291   3.974   1.197
 4301TIP3    H212910   4.376   3.868   1.263
 4302TIP3   OH212911   4.381   2.662   2.005
 4302TIP3    H112912   4.400   2.663   2.099
 4302TIP3    H212913   4.347   2.574   1.989
 4303TIP3   OH212914   1.849   4.847   1.192
 4303TIP3    H112915   1.778   4.784   1.197
 4303TIP3    H212916   1.833   4.896   1.111
 4304TIP3   OH212917   4.926   0.540   1.013
 4304TIP3    H112918   4.906   0.624   0.970
 4304TIP3    H212919   4.840   0.499   1.023
 4305TIP3   OH212920   3.568   4.469   1.336
 4305TIP3    H112921   3.591   4.381   1.366
 4305TIP3    H212922   3.577   4.466   1.241
 4306TIP3   OH212923   2.577   1.168   4.249
 4306TIP3    H112924   2.656   1.143   4.298
 4306TIP3    H212925   2.560   1.094   4.191
 4307TIP3   OH212926   2.564   0.719   2.198
 4307TIP3    H112927   2.598   0.784   2.137
 4307TIP3    H212928   2.563   0.637   2.148
 4308TIP3   OH212929   4.029   5.471   2.406
 4308TIP3    H112930   3.937   5.474   2.433
 4308TIP3    H212931   4.034   5.399   2.344
 4309TIP3   OH212932   6.042   2.637   2.426
 4309TIP3    H112933   6.076   2.650   2.515
 4309TIP3    H212934   6.033   2.725   2.391
 4310TIP3   OH212935   0.437   5.413   1.021
 4310TIP3    H112936   0.515   5.468   1.019
 4310TIP3    H212937   0.461   5.335   0.971
 4311TIP3   OH212938   0.601   4.207   0.226
 4311TIP3    H112939   0.616   4.301   0.232
 4311TIP3    H212940   0.517   4.193   0.269
 4312TIP3   OH212941   1.786   2.053   2.429
 4312TIP3    H112942   1.814   2.100   2.350
 4312TIP3    H212943   1.743   1.974   2.395
 4313TIP3   OH212944   6.085   3.544   2.893
 4313TIP3    H112945   6.147   3.504   2.955
 4313TIP3    H212946   5.999   3.520   2.926
 4314TIP3   OH212947   3.751   2.074   1.269
 4314TIP3    H112948   3.669   2.099   1.227
 4314TIP3    H212949   3.801   2.156   1.275
 4315TIP3   OH212950   4.088   3.783   2.280
 4315TIP3    H112951   4.040   3.749   2.355
 4315TIP3    H212952   4.050   3.870   2.264
 4316TIP3   OH212953   3.404   0.460   3.287
 4316TIP3    H112954   3.416   0.555   3.283
 4316TIP3    H212955   3.309   0.448   3.287
 4317TIP3   OH212956   5.621   5.189   4.275
 4317TIP3    H112957   5.660   5.116   4.228
 4317TIP3    H212958   5.625   5.164   4.367
 4318TIP3   OH212959   1.436   2.822   5.128
 4318TIP3    H112960   1.393   2.855   5.207
 4318TIP3    H212961   1.374   2.757   5.093
 4319TIP3   OH212962   5.529   0.527   0.266
 4319TIP3    H112963   5.548   0.442   0.225
 4319TIP3    H212964   5.588   0.532   0.341
 4320TIP3   OH212965   2.469   2.901   4.926
 4320TIP3    H112966   2.470   2.846   4.848
 4320TIP3    H212967   2.541   2.869   4.980
 4321TIP3   OH212968   2.033   2.980   0.569
 4321TIP3    H112969   2.068   3.050   0.625
 4321TIP3    H212970   1.954   3.016   0.530
 4322TIP3   OH212971   2.237   5.569   0.866
 4322TIP3    H112972   2.238   5.662   0.888
 4322TIP3    H212973   2.241   5.524   0.951
 4323TIP3   OH212974   1.648   3.691   0.913
 4323TIP3    H112975   1.675   3.740   0.836
 4323TIP3    H212976   1.687   3.604   0.902
 4324TIP3   OH212977   4.464   0.350   0.273
 4324TIP3    H112978   4.448   0.404   0.196
 4324TIP3    H212979   4.377   0.325   0.304
 4325TIP3   OH212980   4.748   5.870   1.720
 4325TIP3    H112981   4.839   5.853   1.742
 4325TIP3    H212982   4.751   5.914   1.635
 4326TIP3   OH212983   1.936   0.200   2.430
 4326TIP3    H112984   2.015   0.151   2.409
 4326TIP3    H212985   1.892   0.147   2.497
 4327TIP3   OH212986   3.055   0.458   1.184
 4327TIP3    H112987   2.968   0.475   1.149
 4327TIP3    H212988   3.066   0.363   1.175
 4328TIP3   OH212989   5.062   5.837   2.613
 4328TIP3    H112990   4.984   5.784   2.626
 4328TIP3    H212991   5.130   5.794   2.665
 4329TIP3   OH212992   2.502   4.617   1.550
 4329TIP3    H112993   2.461   4.567   1.480
 4329TIP3    H212994   2.429   4.654   1.599
 4330TIP3   OH212995   2.159   5.096   2.045
 4330TIP3    H112996   2.225   5.044   2.000
 4330TIP3    H212997   2.204   5.129   2.123
 4331TIP3   OH212998   6.151   1.253   1.872
 4331TIP3    H112999   6.169   1.241   1.778
 4331TIP3    H213000   6.237   1.267   1.911
 4332TIP3   OH213001   0.470   0.165   2.249
 4332TIP3    H113002   0.456   0.258   2.264
 4332TIP3    H213003   0.501   0.160   2.158
 4333TIP3   OH213004   0.550   4.941   0.959
 4333TIP3    H113005   0.510   4.854   0.951
 4333TIP3    H213006   0.592   4.941   1.045
 4334TIP3   OH213007   3.764   2.220   2.966
 4334TIP3    H113008   3.793   2.214   3.057
 4334TIP3    H213009   3.735   2.132   2.944
 4335TIP3   OH213010   1.302   4.691   3.111
 4335TIP3    H113011   1.384   4.740   3.111
 4335TIP3    H213012   1.320   4.613   3.059
 4336TIP3   OH213013   0.062   1.616   0.999
 4336TIP3    H113014  -0.019   1.659   1.028
 4336TIP3    H213015   0.128   1.644   1.062
 4337TIP3   OH213016   0.169   3.131   4.108
 4337TIP3    H113017   0.084   3.122   4.150
 4337TIP3    H213018   0.212   3.201   4.156
 4338TIP3   OH213019   5.624   5.076   2.371
 4338TIP3    H113020   5.596   5.081   2.462
 4338TIP3    H213021   5.590   5.155   2.330
 4339TIP3   OH213022   2.586   4.251   3.099
 4339TIP3    H113023   2.664   4.278   3.148
 4339TIP3    H213024   2.589   4.304   3.019
 4340TIP3   OH213025   4.654   4.936   1.768
 4340TIP3    H113026   4.559   4.941   1.762
 4340TIP3    H213027   4.684   4.941   1.677
 4341TIP3   OH213028   2.338   0.340   2.356
 4341TIP3    H113029   2.354   0.409   2.420
 4341TIP3    H213030   2.416   0.341   2.299
 4342TIP3   OH213031   3.771   5.738   1.106
 4342TIP3    H113032   3.740   5.790   1.180
 4342TIP3    H213033   3.702   5.746   1.040
 4343TIP3   OH213034   1.525   3.241   4.608
 4343TIP3    H113035   1.569   3.158   4.593
 4343TIP3    H213036   1.432   3.220   4.609
 4344TIP3   OH213037   5.134   1.199   1.933
 4344TIP3    H113038   5.216   1.185   1.981
 4344TIP3    H213039   5.067   1.203   2.001
 4345TIP3   OH213040   0.556   2.396   2.707
 4345TIP3    H113041   0.634   2.421   2.756
 4345TIP3    H213042   0.540   2.305   2.733
 4346TIP3   OH213043   2.508   0.833   0.690
 4346TIP3    H113044   2.446   0.763   0.708
 4346TIP3    H213045   2.470   0.880   0.616
 4347TIP3   OH213046   0.927   2.367   0.543
 4347TIP3    H113047   1.016   2.399   0.552
 4347TIP3    H213048   0.872   2.445   0.551
 4348TIP3   OH213049   1.838   0.575   1.534
 4348TIP3    H113050   1.924   0.535   1.520
 4348TIP3    H213051   1.827   0.574   1.629
 4349TIP3   OH213052   0.042   3.177   0.723
 4349TIP3    H113053  -0.011   3.210   0.795
 4349TIP3    H213054   0.095   3.252   0.695
 4350TIP3   OH213055   1.664   5.177   4.743
 4350TIP3    H113056   1.700   5.236   4.809
 4350TIP3    H213057   1.642   5.233   4.669
 4351TIP3   OH213058   5.546   0.528   4.204
 4351TIP3    H113059   5.495   0.565   4.132
 4351TIP3    H213060   5.581   0.446   4.169
 4352TIP3   OH213061   0.748   2.712   2.273
 4352TIP3    H113062   0.744   2.659   2.352
 4352TIP3    H213063   0.688   2.668   2.212
 4353TIP3   OH213064   5.089   4.532   2.906
 4353TIP3    H113065   5.066   4.536   2.999
 4353TIP3    H213066   5.015   4.488   2.865
 4354TIP3   OH213067   2.489   3.726   1.369
 4354TIP3    H113068   2.576   3.688   1.374
 4354TIP3    H213069   2.441   3.669   1.309
 4355TIP3   OH213070   3.957   3.216   4.363
 4355TIP3    H113071   3.900   3.141   4.345
 4355TIP3    H213072   3.942   3.276   4.291
 4356TIP3   OH213073   5.895   4.637   2.043
 4356TIP3    H113074   5.920   4.547   2.023
 4356TIP3    H213075   5.852   4.668   1.963
 4357TIP3   OH213076   3.796   5.009   0.589
 4357TIP3    H113077   3.741   4.936   0.560
 4357TIP3    H213078   3.885   4.981   0.570
 4358TIP3   OH213079   1.841   1.555   2.956
 4358TIP3    H113080   1.846   1.650   2.943
 4358TIP3    H213081   1.748   1.538   2.975
 4359TIP3   OH213082   5.054   2.509   3.745
 4359TIP3    H113083   5.009   2.588   3.775
 4359TIP3    H213084   5.094   2.535   3.661
 4360TIP3   OH213085   3.082   0.233   4.363
 4360TIP3    H113086   3.019   0.164   4.385
 4360TIP3    H213087   3.039   0.314   4.391
 4361TIP3   OH213088   3.182   5.007   2.067
 4361TIP3    H113089   3.092   5.006   2.102
 4361TIP3    H213090   3.202   5.100   2.056
 4362TIP3   OH213091   1.147   1.384   4.474
 4362TIP3    H113092   1.119   1.293   4.468
 4362TIP3    H213093   1.070   1.436   4.452
 4363TIP3   OH213094   4.891   0.602   0.657
 4363TIP3    H113095   4.960   0.540   0.634
 4363TIP3    H213096   4.853   0.627   0.572
 4364TIP3   OH213097   6.261   4.000   1.243
 4364TIP3    H113098   6.270   4.049   1.161
 4364TIP3    H213099   6.167   4.001   1.262
 4365TIP3   OH213100   3.576   4.232   1.949
 4365TIP3    H113101   3.614   4.307   1.901
 4365TIP3    H213102   3.617   4.155   1.909
 4366TIP3   OH213103   6.070   1.181   0.440
 4366TIP3    H113104   6.151   1.203   0.487
 4366TIP3    H213105   6.039   1.265   0.405
 4367TIP3   OH213106   4.114   5.546   3.089
 4367TIP3    H113107   4.020   5.528   3.085
 4367TIP3    H213108   4.142   5.547   2.997
 4368TIP3   OH213109   1.735   5.926   0.945
 4368TIP3    H113110   1.787   5.865   0.891
 4368TIP3    H213111   1.725   5.880   1.029
 4369TIP3   OH213112   5.386   3.495   3.418
 4369TIP3    H113113   5.456   3.438   3.386
 4369TIP3    H213114   5.336   3.518   3.340
 4370TIP3   OH213115   4.843   0.382   0.450
 4370TIP3    H113116   4.837   0.477   0.460
 4370TIP3    H213117   4.774   0.348   0.508
 4371TIP3   OH213118   4.096   0.207   4.642
 4371TIP3    H113119   4.044   0.250   4.574
 4371TIP3    H213120   4.072   0.253   4.722
 4372TIP3   OH213121   3.256   3.842   0.579
 4372TIP3    H113122   3.239   3.756   0.616
 4372TIP3    H213123   3.209   3.843   0.496
 4373TIP3   OH213124   1.039   0.005   3.259
 4373TIP3    H113125   1.062   0.066   3.188
 4373TIP3    H213126   1.001  -0.070   3.215
 4374TIP3   OH213127   3.316   1.595   4.089
 4374TIP3    H113128   3.323   1.634   4.177
 4374TIP3    H213129   3.296   1.669   4.032
 4375TIP3   OH213130   4.663   1.606   0.040
 4375TIP3    H113131   4.746   1.636   0.005
 4375TIP3    H213132   4.654   1.652   0.123
 4376TIP3   OH213133   4.547   2.047   4.240
 4376TIP3    H113134   4.555   1.966   4.291
 4376TIP3    H213135   4.604   2.034   4.165
 4377TIP3   OH213136   2.541   3.337   3.194
 4377TIP3    H113137   2.490   3.321   3.114
 4377TIP3    H213138   2.503   3.277   3.258
 4378TIP3   OH213139   0.416   4.665   0.872
 4378TIP3    H113140   0.330   4.637   0.841
 4378TIP3    H213141   0.459   4.701   0.794
 4379TIP3   OH213142   2.319   3.219   4.282
 4379TIP3    H113143   2.256   3.227   4.210
 4379TIP3    H213144   2.265   3.205   4.360
 4380TIP3   OH213145   1.852   3.101   3.918
 4380TIP3    H113146   1.925   3.079   3.977
 4380TIP3    H213147   1.853   3.032   3.852
 4381TIP3   OH213148   1.327   3.675   0.907
 4381TIP3    H113149   1.419   3.701   0.911
 4381TIP3    H213150   1.304   3.653   0.998
 4382TIP3   OH213151   5.919   4.960   2.827
 4382TIP3    H113152   5.836   4.923   2.797
 4382TIP3    H213153   5.975   4.884   2.844
 4383TIP3   OH213154   5.344   2.407   0.609
 4383TIP3    H113155   5.277   2.438   0.670
 4383TIP3    H213156   5.299   2.401   0.524
 4384TIP3   OH213157   1.000   3.599   2.164
 4384TIP3    H113158   1.056   3.670   2.195
 4384TIP3    H213159   1.001   3.608   2.069
 4385TIP3   OH213160   3.975   4.276   3.344
 4385TIP3    H113161   3.959   4.185   3.323
 4385TIP3    H213162   4.000   4.276   3.437
 4386TIP3   OH213163   4.471   5.823   1.483
 4386TIP3    H113164   4.390   5.778   1.460
 4386TIP3    H213165   4.484   5.886   1.412
 4387TIP3   OH213166   2.279   5.153   2.490
 4387TIP3    H113167   2.272   5.214   2.417
 4387TIP3    H213168   2.209   5.178   2.549
 4388TIP3   OH213169   0.205   3.457   1.565
 4388TIP3    H113170   0.273   3.487   1.625
 4388TIP3    H213171   0.123   3.491   1.602
 4389TIP3   OH213172   1.611   4.720   1.152
 4389TIP3    H113173   1.525   4.761   1.148
 4389TIP3    H213174   1.603   4.654   1.220
 4390TIP3   OH213175   5.012   4.156   4.924
 4390TIP3    H113176   5.096   4.110   4.924
 4390TIP3    H213177   5.032   4.243   4.956
 4391TIP3   OH213178   1.988   1.917   0.486
 4391TIP3    H113179   1.937   1.850   0.442
 4391TIP3    H213180   2.078   1.884   0.484
 4392TIP3   OH213181   0.608   5.508   2.916
 4392TIP3    H113182   0.612   5.567   2.991
 4392TIP3    H213183   0.661   5.550   2.849
 4393TIP3   OH213184   1.208   5.529   2.704
 4393TIP3    H113185   1.120   5.561   2.725
 4393TIP3    H213186   1.262   5.608   2.704
 4394TIP3   OH213187   4.202   3.123   4.320
 4394TIP3    H113188   4.227   3.117   4.412
 4394TIP3    H213189   4.110   3.147   4.321
 4395TIP3   OH213190   4.736   1.933   1.565
 4395TIP3    H113191   4.747   1.851   1.614
 4395TIP3    H213192   4.761   2.002   1.626
 4396TIP3   OH213193   1.313   4.114   2.019
 4396TIP3    H113194   1.300   4.191   2.073
 4396TIP3    H213195   1.338   4.045   2.080
 4397TIP3   OH213196   2.236   5.943   0.722
 4397TIP3    H113197   2.174   5.904   0.661
 4397TIP3    H213198   2.320   5.941   0.676
 4398TIP3   OH213199   3.079   3.811   3.259
 4398TIP3    H113200   3.142   3.798   3.189
 4398TIP3    H213201   3.015   3.741   3.248
 4399TIP3   OH213202   3.732   3.142   4.969
 4399TIP3    H113203   3.705   3.176   5.054
 4399TIP3    H213204   3.669   3.073   4.950
 4400TIP3   OH213205   1.152   5.732   0.849
 4400TIP3    H113206   1.194   5.656   0.890
 4400TIP3    H213207   1.219   5.800   0.852
 4401TIP3   OH213208   2.036   4.124   3.184
 4401TIP3    H113209   2.070   4.152   3.269
 4401TIP3    H213210   2.064   4.033   3.176
 4402TIP3   OH213211   2.977   1.476   0.533
 4402TIP3    H113212   3.022   1.532   0.469
 4402TIP3    H213213   2.909   1.532   0.570
 4403TIP3   OH213214   2.849   2.636   1.093
 4403TIP3    H113215   2.778   2.680   1.046
 4403TIP3    H213216   2.898   2.708   1.132
 4404TIP3   OH213217   2.913   3.626   0.825
 4404TIP3    H113218   2.928   3.720   0.836
 4404TIP3    H213219   2.945   3.587   0.907
 4405TIP3   OH213220   1.794   4.204   3.507
 4405TIP3    H113221   1.851   4.134   3.540
 4405TIP3    H213222   1.754   4.167   3.428
 4406TIP3   OH213223   4.389   4.800   5.068
 4406TIP3    H113224   4.473   4.810   5.024
 4406TIP3    H213225   4.411   4.770   5.156
 4407TIP3   OH213226   4.215   5.882   2.085
 4407TIP3    H113227   4.215   5.881   1.990
 4407TIP3    H213228   4.204   5.790   2.110
 4408TIP3   OH213229   0.975   0.792   1.159
 4408TIP3    H113230   1.064   0.766   1.184
 4408TIP3    H213231   0.947   0.726   1.096
 4409TIP3   OH213232   4.147   1.008   4.286
 4409TIP3    H113233   4.214   0.973   4.344
 4409TIP3    H213234   4.101   0.930   4.254
 4410TIP3   OH213235   2.055   5.059   2.836
 4410TIP3    H113236   2.076   5.103   2.754
 4410TIP3    H213237   2.051   5.129   2.901
 4411TIP3   OH213238   4.266   3.816   4.987
 4411TIP3    H113239   4.241   3.834   4.897
 4411TIP3    H213240   4.293   3.724   4.987
 4412TIP3   OH213241   3.014   3.508   3.554
 4412TIP3    H113242   2.990   3.443   3.620
 4412TIP3    H213243   3.061   3.576   3.604
 4413TIP3   OH213244   3.058   0.552   0.140
 4413TIP3    H113245   2.996   0.595   0.081
 4413TIP3    H213246   3.089   0.623   0.197
 4414TIP3   OH213247   3.813   5.849   1.828
 4414TIP3    H113248   3.821   5.880   1.738
 4414TIP3    H213249   3.731   5.798   1.829
 4415TIP3   OH213250   2.001   5.103   4.947
 4415TIP3    H113251   2.067   5.064   5.005
 4415TIP3    H213252   2.022   5.067   4.860
 4416TIP3   OH213253   5.519   4.958   0.886
 4416TIP3    H113254   5.604   4.979   0.848
 4416TIP3    H213255   5.505   4.866   0.864
 4417TIP3   OH213256   4.403   1.575   4.423
 4417TIP3    H113257   4.472   1.512   4.444
 4417TIP3    H213258   4.356   1.587   4.506
 4418TIP3   OH213259   1.059   2.633   3.773
 4418TIP3    H113260   1.091   2.685   3.847
 4418TIP3    H213261   1.131   2.635   3.710
 4419TIP3   OH213262   3.662   4.770   0.522
 4419TIP3    H113263   3.581   4.732   0.488
 4419TIP3    H213264   3.725   4.760   0.451
 4420TIP3   OH213265   2.573   3.000   2.756
 4420TIP3    H113266   2.524   2.928   2.715
 4420TIP3    H213267   2.570   2.981   2.850
 4421TIP3   OH213268   3.106   2.375   0.031
 4421TIP3    H113269   3.156   2.305   0.073
 4421TIP3    H213270   3.169   2.421  -0.024
 4422TIP3   OH213271   4.015   4.675   0.997
 4422TIP3    H113272   3.968   4.676   1.081
 4422TIP3    H213273   3.983   4.753   0.951
 4423TIP3   OH213274   3.601   4.172   4.515
 4423TIP3    H113275   3.649   4.090   4.498
 4423TIP3    H213276   3.510   4.145   4.522
 4424TIP3   OH213277   0.004   2.012   2.358
 4424TIP3    H113278   0.071   2.030   2.424
 4424TIP3    H213279  -0.057   2.085   2.366
 4425TIP3   OH213280   4.558   5.015   2.627
 4425TIP3    H113281   4.598   4.932   2.604
 4425TIP3    H213282   4.627   5.064   2.672
 4426TIP3   OH213283   1.195   3.879   4.990
 4426TIP3    H113284   1.192   3.806   4.929
 4426TIP3    H213285   1.224   3.839   5.073
 4427TIP3   OH213286   6.194   4.136   5.058
 4427TIP3    H113287   6.273   4.165   5.104
 4427TIP3    H213288   6.160   4.064   5.112
 4428TIP3   OH213289   3.274   2.120   0.924
 4428TIP3    H113290   3.222   2.141   0.846
 4428TIP3    H213291   3.337   2.055   0.894
 4429TIP3   OH213292   1.481   4.682   5.096
 4429TIP3    H113293   1.515   4.602   5.136
 4429TIP3    H213294   1.494   4.669   5.002
 4430TIP3   OH213295   2.314   0.456   3.350
 4430TIP3    H113296   2.394   0.457   3.403
 4430TIP3    H213297   2.245   0.432   3.411
 4431TIP3   OH213298   4.515   1.830   4.435
 4431TIP3    H113299   4.598   1.796   4.470
 4431TIP3    H213300   4.449   1.767   4.464
 4432TIP3   OH213301   3.814   0.915   3.669
 4432TIP3    H113302   3.893   0.865   3.692
 4432TIP3    H213303   3.834   1.005   3.694
 4433TIP3   OH213304   4.760   3.627   3.899
 4433TIP3    H113305   4.670   3.636   3.867
 4433TIP3    H213306   4.809   3.595   3.823
 4434TIP3   OH213307   1.030   5.406   0.078
 4434TIP3    H113308   1.111   5.429   0.033
 4434TIP3    H213309   0.984   5.489   0.088
 4435TIP3   OH213310   1.013   4.918   0.214
 4435TIP3    H113311   0.987   4.889   0.126
 4435TIP3    H213312   1.049   4.840   0.256
 4436TIP3   OH213313   4.887   3.426   4.041
 4436TIP3    H113314   4.969   3.444   3.994
 4436TIP3    H213315   4.822   3.481   3.998
 4437TIP3   OH213316   0.527   1.317   4.374
 4437TIP3    H113317   0.517   1.407   4.342
 4437TIP3    H213318   0.441   1.293   4.408
 4438TIP3   OH213319   1.178   3.082   0.545
 4438TIP3    H113320   1.200   3.093   0.453
 4438TIP3    H213321   1.150   3.169   0.573
 4439TIP3   OH213322   4.525   3.120   0.535
 4439TIP3    H113323   4.489   3.057   0.472
 4439TIP3    H213324   4.573   3.183   0.481
 4440TIP3   OH213325   4.650   5.365   4.095
 4440TIP3    H113326   4.743   5.388   4.095
 4440TIP3    H213327   4.650   5.270   4.084
 4441TIP3   OH213328   6.273   3.916  -0.013
 4441TIP3    H113329   6.337   3.936   0.056
 4441TIP3    H213330   6.195   3.888   0.035
 4442TIP3   OH213331   0.572   4.792   3.708
 4442TIP3    H113332   0.555   4.801   3.802
 4442TIP3    H213333   0.573   4.882   3.675
 4443TIP3   OH213334   2.214   4.348   1.861
 4443TIP3    H113335   2.305   4.342   1.834
 4443TIP3    H213336   2.201   4.440   1.884
 4444TIP3   OH213337   3.299   1.829   1.426
 4444TIP3    H113338   3.385   1.802   1.460
 4444TIP3    H213339   3.314   1.918   1.393
 4445TIP3   OH213340   4.859   2.621   4.872
 4445TIP3    H113341   4.838   2.622   4.965
 4445TIP3    H213342   4.919   2.694   4.860
 4446TIP3   OH213343   3.018   4.035   0.663
 4446TIP3    H113344   3.008   4.085   0.744
 4446TIP3    H213345   3.086   3.970   0.682
 4447TIP3   OH213346   1.685   3.877   0.043
 4447TIP3    H113347   1.737   3.838   0.113
 4447TIP3    H213348   1.679   3.809  -0.024
 4448TIP3   OH213349   2.954   1.153   5.159
 4448TIP3    H113350   3.004   1.172   5.238
 4448TIP3    H213351   2.934   1.059   5.165
 4449TIP3   OH213352   2.949   0.657   3.196
 4449TIP3    H113353   2.910   0.571   3.182
 4449TIP3    H213354   2.928   0.707   3.117
 4450TIP3   OH213355   4.813   3.582   1.274
 4450TIP3    H113356   4.742   3.518   1.267
 4450TIP3    H213357   4.815   3.605   1.367
 4451TIP3   OH213358   4.026   0.906   0.011
 4451TIP3    H113359   4.003   0.945   0.096
 4451TIP3    H213360   4.047   0.815   0.032
 4452TIP3   OH213361   3.322   4.586   2.199
 4452TIP3    H113362   3.260   4.514   2.196
 4452TIP3    H213363   3.279   4.653   2.252
 4453TIP3   OH213364   0.899   4.197   0.506
 4453TIP3    H113365   0.993   4.188   0.517
 4453TIP3    H213366   0.872   4.115   0.464
 4454TIP3   OH213367   0.433   1.832   2.513
 4454TIP3    H113368   0.441   1.816   2.419
 4454TIP3    H213369   0.425   1.744   2.551
 4455TIP3   OH213370   5.045   4.241   2.621
 4455TIP3    H113371   5.033   4.335   2.606
 4455TIP3    H213372   5.134   4.223   2.591
 4456TIP3   OH213373   3.406   4.077   3.952
 4456TIP3    H113374   3.423   4.026   3.873
 4456TIP3    H213375   3.380   4.164   3.920
 4457TIP3   OH213376   3.787   2.835   1.956
 4457TIP3    H113377   3.840   2.843   2.035
 4457TIP3    H213378   3.699   2.814   1.988
 4458TIP3   OH213379   2.985   2.169   2.008
 4458TIP3    H113380   2.967   2.101   1.943
 4458TIP3    H213381   2.969   2.251   1.963
 4459TIP3   OH213382   3.643   0.427   2.229
 4459TIP3    H113383   3.565   0.451   2.280
 4459TIP3    H213384   3.641   0.483   2.152
 4460TIP3   OH213385   5.458   5.146   4.935
 4460TIP3    H113386   5.387   5.099   4.980
 4460TIP3    H213387   5.471   5.098   4.854
 4461TIP3   OH213388   0.136   5.262   3.435
 4461TIP3    H113389   0.206   5.323   3.409
 4461TIP3    H213390   0.120   5.210   3.356
 4462TIP3   OH213391   3.036   5.279   4.698
 4462TIP3    H113392   3.118   5.253   4.740
 4462TIP3    H213393   2.981   5.201   4.703
 4463TIP3   OH213394   6.005   5.565   3.598
 4463TIP3    H113395   6.078   5.616   3.562
 4463TIP3    H213396   5.939   5.565   3.528
 4464TIP3   OH213397   1.974   5.835   4.358
 4464TIP3    H113398   2.007   5.876   4.438
 4464TIP3    H213399   2.051   5.797   4.317
 4465TIP3   OH213400   0.075   3.446   2.477
 4465TIP3    H113401   0.027   3.392   2.540
 4465TIP3    H213402   0.045   3.416   2.392
 4466TIP3   OH213403   3.186   2.354   1.692
 4466TIP3    H113404   3.261   2.299   1.716
 4466TIP3    H213405   3.148   2.380   1.776
 4467TIP3   OH213406   3.027   2.789   1.592
 4467TIP3    H113407   3.007   2.870   1.545
 4467TIP3    H213408   3.120   2.774   1.573
 4468TIP3   OH213409   4.659   4.456   0.978
 4468TIP3    H113410   4.652   4.399   0.902
 4468TIP3    H213411   4.662   4.395   1.053
 4469TIP3   OH213412   1.392   5.748   1.742
 4469TIP3    H113413   1.345   5.675   1.781
 4469TIP3    H213414   1.452   5.778   1.811
 4470TIP3   OH213415   2.324   3.484   4.449
 4470TIP3    H113416   2.353   3.437   4.371
 4470TIP3    H213417   2.310   3.415   4.514
 4471TIP3   OH213418   5.022   1.469   0.258
 4471TIP3    H113419   5.000   1.529   0.330
 4471TIP3    H213420   4.982   1.386   0.283
 4472TIP3   OH213421   2.308   4.937   3.017
 4472TIP3    H113422   2.233   4.877   3.014
 4472TIP3    H213423   2.281   5.012   2.965
 4473TIP3   OH213424   3.008   5.593   1.467
 4473TIP3    H113425   3.016   5.620   1.559
 4473TIP3    H213426   2.945   5.521   1.469
 4474TIP3   OH213427   4.825   3.452   0.891
 4474TIP3    H113428   4.891   3.474   0.957
 4474TIP3    H213429   4.866   3.385   0.837
 4475TIP3   OH213430   1.241   2.318   0.414
 4475TIP3    H113431   1.206   2.400   0.450
 4475TIP3    H213432   1.239   2.257   0.487
 4476TIP3   OH213433   2.343   2.177   4.828
 4476TIP3    H113434   2.282   2.207   4.896
 4476TIP3    H213435   2.430   2.186   4.867
 4477TIP3   OH213436   1.457   0.442   3.480
 4477TIP3    H113437   1.473   0.352   3.510
 4477TIP3    H213438   1.362   0.447   3.470
 4478TIP3   OH213439   3.077   1.099   2.917
 4478TIP3    H113440   3.167   1.110   2.887
 4478TIP3    H213441   3.024   1.139   2.848
 4479TIP3   OH213442   3.247   5.282   2.128
 4479TIP3    H113443   3.180   5.270   2.196
 4479TIP3    H213444   3.295   5.360   2.155
 4480TIP3   OH213445   4.312   1.764   2.785
 4480TIP3    H113446   4.302   1.700   2.856
 4480TIP3    H213447   4.381   1.824   2.816
 4481TIP3   OH213448   0.388   4.771   3.361
 4481TIP3    H113449   0.480   4.796   3.375
 4481TIP3    H213450   0.364   4.812   3.278
 4482TIP3   OH213451   1.770   1.445   3.748
 4482TIP3    H113452   1.737   1.447   3.837
 4482TIP3    H213453   1.693   1.458   3.693
 4483TIP3   OH213454   1.460   0.430   2.485
 4483TIP3    H113455   1.480   0.524   2.484
 4483TIP3    H213456   1.543   0.388   2.461
 4484TIP3   OH213457   5.089   5.193   4.366
 4484TIP3    H113458   5.068   5.148   4.284
 4484TIP3    H213459   5.177   5.162   4.389
 4485TIP3   OH213460   2.572   2.091   2.487
 4485TIP3    H113461   2.663   2.117   2.500
 4485TIP3    H213462   2.540   2.146   2.416
 4486TIP3   OH213463   4.535   2.136   1.141
 4486TIP3    H113464   4.497   2.049   1.152
 4486TIP3    H213465   4.590   2.129   1.063
 4487TIP3   OH213466   3.289   2.925   3.133
 4487TIP3    H113467   3.290   2.846   3.187
 4487TIP3    H213468   3.214   2.975   3.166
 4488TIP3   OH213469   4.419   5.323   4.698
 4488TIP3    H113470   4.438   5.325   4.604
 4488TIP3    H213471   4.325   5.305   4.702
 4489TIP3   OH213472   2.822   2.381   1.478
 4489TIP3    H113473   2.751   2.354   1.419
 4489TIP3    H213474   2.819   2.476   1.478
 4490TIP3   OH213475   4.162   0.277   2.571
 4490TIP3    H113476   4.156   0.362   2.528
 4490TIP3    H213477   4.094   0.224   2.531
 4491TIP3   OH213478   1.750   0.652   0.111
 4491TIP3    H113479   1.837   0.615   0.124
 4491TIP3    H213480   1.763   0.747   0.114
 4492TIP3   OH213481   5.411   2.872   2.114
 4492TIP3    H113482   5.479   2.877   2.046
 4492TIP3    H213483   5.460   2.855   2.195
 4493TIP3   OH213484   1.711   5.093   2.881
 4493TIP3    H113485   1.625   5.058   2.860
 4493TIP3    H213486   1.770   5.018   2.874
 4494TIP3   OH213487   1.628   3.742   1.944
 4494TIP3    H113488   1.670   3.704   1.867
 4494TIP3    H213489   1.587   3.667   1.988
 4495TIP3   OH213490   2.458   5.798   4.962
 4495TIP3    H113491   2.381   5.848   4.987
 4495TIP3    H213492   2.435   5.757   4.879
 4496TIP3   OH213493   6.340   3.723   2.463
 4496TIP3    H113494   6.402   3.655   2.487
 4496TIP3    H213495   6.255   3.681   2.468
 4497TIP3   OH213496   0.493   3.749   4.007
 4497TIP3    H113497   0.523   3.830   3.965
 4497TIP3    H213498   0.546   3.742   4.086
 4498TIP3   OH213499   1.814   4.606   2.777
 4498TIP3    H113500   1.830   4.610   2.683
 4498TIP3    H213501   1.805   4.512   2.796
 4499TIP3   OH213502   2.273   2.165   4.271
 4499TIP3    H113503   2.314   2.160   4.184
 4499TIP3    H213504   2.344   2.148   4.332
 4500TIP3   OH213505   5.043   4.196   0.682
 4500TIP3    H113506   5.054   4.279   0.729
 4500TIP3    H213507   4.951   4.173   0.696
 4501TIP3   OH213508   3.411   0.339   3.540
 4501TIP3    H113509   3.448   0.406   3.597
 4501TIP3    H213510   3.413   0.379   3.453
 4502TIP3   OH213511   1.711   4.353   2.848
 4502TIP3    H113512   1.733   4.325   2.937
 4502TIP3    H213513   1.748   4.285   2.791
 4503TIP3   OH213514   3.640   2.557   1.074
 4503TIP3    H113515   3.646   2.508   0.992
 4503TIP3    H213516   3.567   2.517   1.120
 4504TIP3   OH213517   0.950   4.401   4.878
 4504TIP3    H113518   1.028   4.456   4.884
 4504TIP3    H213519   0.945   4.357   4.963
 4505TIP3   OH213520   2.125   5.200   4.032
 4505TIP3    H113521   2.095   5.162   3.949
 4505TIP3    H213522   2.098   5.291   4.028
 4506TIP3   OH213523   3.673   1.541   4.370
 4506TIP3    H113524   3.745   1.604   4.374
 4506TIP3    H213525   3.598   1.591   4.338
 4507TIP3   OH213526   3.006   1.756   2.902
 4507TIP3    H113527   2.987   1.666   2.929
 4507TIP3    H213528   2.958   1.766   2.819
 4508TIP3   OH213529   6.245   1.820   2.773
 4508TIP3    H113530   6.337   1.837   2.795
 4508TIP3    H213531   6.195   1.867   2.840
 4509TIP3   OH213532   4.701   4.130   1.652
 4509TIP3    H113533   4.752   4.048   1.648
 4509TIP3    H213534   4.757   4.191   1.700
 4510TIP3   OH213535   2.112   2.593   0.873
 4510TIP3    H113536   2.118   2.523   0.808
 4510TIP3    H213537   2.021   2.621   0.870
 4511TIP3   OH213538   1.666   1.356   4.120
 4511TIP3    H113539   1.595   1.320   4.067
 4511TIP3    H213540   1.743   1.353   4.063
 4512TIP3   OH213541   3.333   0.751   3.977
 4512TIP3    H113542   3.325   0.756   4.072
 4512TIP3    H213543   3.248   0.782   3.945
 4513TIP3   OH213544   3.592   1.170   5.159
 4513TIP3    H113545   3.581   1.110   5.233
 4513TIP3    H213546   3.680   1.152   5.126
 4514TIP3   OH213547   5.222   2.589   3.498
 4514TIP3    H113548   5.255   2.567   3.411
 4514TIP3    H213549   5.301   2.615   3.547
 4515TIP3   OH213550   4.796   0.483   2.840
 4515TIP3    H113551   4.796   0.387   2.844
 4515TIP3    H213552   4.846   0.510   2.916
 4516TIP3   OH213553   5.479   4.086   4.388
 4516TIP3    H113554   5.543   4.018   4.367
 4516TIP3    H213555   5.416   4.042   4.446
 4517TIP3   OH213556   5.816   5.660   0.435
 4517TIP3    H113557   5.873   5.654   0.358
 4517TIP3    H213558   5.762   5.581   0.431
 4518TIP3   OH213559   2.386   3.021   3.673
 4518TIP3    H113560   2.330   3.090   3.637
 4518TIP3    H213561   2.431   3.063   3.746
 4519TIP3   OH213562   4.951   5.060   1.605
 4519TIP3    H113563   4.956   5.155   1.603
 4519TIP3    H213564   4.863   5.039   1.573
 4520TIP3   OH213565   6.263   1.929   5.080
 4520TIP3    H113566   6.208   1.875   5.023
 4520TIP3    H213567   6.345   1.880   5.086
 4521TIP3   OH213568   0.898   2.911   4.455
 4521TIP3    H113569   0.884   2.881   4.545
 4521TIP3    H213570   0.874   3.003   4.456
 4522TIP3   OH213571   5.380   3.387   4.381
 4522TIP3    H113572   5.294   3.415   4.349
 4522TIP3    H213573   5.366   3.370   4.474
 4523TIP3   OH213574   6.090   1.781   4.013
 4523TIP3    H113575   6.110   1.870   4.042
 4523TIP3    H213576   6.113   1.780   3.921
 4524TIP3   OH213577   1.065   3.777   3.197
 4524TIP3    H113578   0.985   3.750   3.242
 4524TIP3    H213579   1.079   3.868   3.225
 4525TIP3   OH213580   1.077   2.781   2.429
 4525TIP3    H113581   1.141   2.724   2.473
 4525TIP3    H213582   1.079   2.753   2.338
 4526TIP3   OH213583   0.583   5.392   1.602
 4526TIP3    H113584   0.556   5.317   1.656
 4526TIP3    H213585   0.600   5.354   1.516
 4527TIP3   OH213586   1.916   0.881   4.945
 4527TIP3    H113587   1.976   0.820   4.989
 4527TIP3    H213588   1.869   0.923   5.016
 4528TIP3   OH213589   5.402   4.937   4.156
 4528TIP3    H113590   5.450   4.970   4.080
 4528TIP3    H213591   5.359   4.858   4.125
 4529TIP3   OH213592   5.832   1.159   1.208
 4529TIP3    H113593   5.900   1.096   1.187
 4529TIP3    H213594   5.783   1.120   1.281
 4530TIP3   OH213595   0.122   4.361   3.549
 4530TIP3    H113596   0.160   4.335   3.465
 4530TIP3    H213597   0.078   4.283   3.581
 4531TIP3   OH213598   6.147   1.065   3.138
 4531TIP3    H113599   6.141   1.008   3.061
 4531TIP3    H213600   6.080   1.031   3.197
 4532TIP3   OH213601   1.445   1.801   4.478
 4532TIP3    H113602   1.483   1.885   4.452
 4532TIP3    H213603   1.364   1.823   4.522
 4533TIP3   OH213604   0.392   2.481   1.486
 4533TIP3    H113605   0.459   2.546   1.508
 4533TIP3    H213606   0.385   2.486   1.390
 4534TIP3   OH213607   3.676   5.055   1.404
 4534TIP3    H113608   3.757   5.018   1.368
 4534TIP3    H213609   3.623   5.074   1.327
 4535TIP3   OH213610   5.175   3.255   0.085
 4535TIP3    H113611   5.251   3.215   0.127
 4535TIP3    H213612   5.213   3.318   0.023
 4536TIP3   OH213613   3.542   1.879   4.705
 4536TIP3    H113614   3.502   1.944   4.763
 4536TIP3    H213615   3.499   1.797   4.729
 4537TIP3   OH213616   5.426   0.564   4.961
 4537TIP3    H113617   5.357   0.497   4.970
 4537TIP3    H213618   5.382   0.638   4.920
 4538TIP3   OH213619   4.708   0.921   2.327
 4538TIP3    H113620   4.725   0.849   2.266
 4538TIP3    H213621   4.657   0.881   2.397
 4539TIP3   OH213622   1.330   2.230   3.250
 4539TIP3    H113623   1.355   2.221   3.342
 4539TIP3    H213624   1.375   2.156   3.207
 4540TIP3   OH213625   3.428   5.306   2.618
 4540TIP3    H113626   3.463   5.274   2.535
 4540TIP3    H213627   3.335   5.285   2.615
 4541TIP3   OH213628   0.814   0.290   2.267
 4541TIP3    H113629   0.767   0.256   2.343
 4541TIP3    H213630   0.899   0.246   2.270
 4542TIP3   OH213631   3.929   5.523   2.773
 4542TIP3    H113632   3.889   5.527   2.860
 4542TIP3    H213633   3.854   5.521   2.713
 4543TIP3   OH213634   0.605   4.467   0.245
 4543TIP3    H113635   0.522   4.511   0.260
 4543TIP3    H213636   0.633   4.498   0.159
 4544TIP3   OH213637   0.909   0.819   2.288
 4544TIP3    H113638   0.974   0.836   2.220
 4544TIP3    H213639   0.874   0.732   2.268
 4545TIP3   OH213640   1.090   5.944   4.867
 4545TIP3    H113641   1.036   6.023   4.861
 4545TIP3    H213642   1.173   5.969   4.826
 4546TIP3   OH213643   1.558   4.704   4.791
 4546TIP3    H113644   1.484   4.698   4.731
 4546TIP3    H213645   1.623   4.643   4.756
 4547TIP3   OH213646   2.866   0.869   5.136
 4547TIP3    H113647   2.816   0.813   5.076
 4547TIP3    H213648   2.807   0.885   5.210
 4548TIP3   OH213649   2.802   2.746   3.822
 4548TIP3    H113650   2.796   2.812   3.754
 4548TIP3    H213651   2.805   2.795   3.904
 4549TIP3   OH213652   4.114   4.846   2.069
 4549TIP3    H113653   4.164   4.777   2.113
 4549TIP3    H213654   4.028   4.844   2.112
 4550TIP3   OH213655   1.728   1.886   0.928
 4550TIP3    H113656   1.661   1.953   0.916
 4550TIP3    H213657   1.810   1.930   0.907
 4551TIP3   OH213658   3.135   4.999   1.097
 4551TIP3    H113659   3.174   4.924   1.142
 4551TIP3    H213660   3.202   5.067   1.100
 4552TIP3   OH213661  -0.008   2.581   4.810
 4552TIP3    H113662   0.073   2.574   4.860
 4552TIP3    H213663  -0.058   2.503   4.834
 4553TIP3   OH213664   5.294   5.914   1.874
 4553TIP3    H113665   5.289   5.828   1.916
 4553TIP3    H213666   5.372   5.955   1.912
 4554TIP3   OH213667   5.607   4.258   1.638
 4554TIP3    H113668   5.648   4.310   1.707
 4554TIP3    H213669   5.654   4.175   1.638
 4555TIP3   OH213670   5.314   4.431   3.729
 4555TIP3    H113671   5.280   4.383   3.653
 4555TIP3    H213672   5.280   4.383   3.805
 4556TIP3   OH213673   4.244   1.713   1.872
 4556TIP3    H113674   4.276   1.651   1.938
 4556TIP3    H213675   4.248   1.664   1.789
 4557TIP3   OH213676   3.963   5.561   4.380
 4557TIP3    H113677   4.022   5.510   4.324
 4557TIP3    H213678   3.877   5.522   4.366
 4558TIP3   OH213679   0.986   4.155   0.041
 4558TIP3    H113680   0.988   4.181  -0.051
 4558TIP3    H213681   1.067   4.105   0.053
 4559TIP3   OH213682   3.992   2.315   2.813
 4559TIP3    H113683   3.902   2.290   2.838
 4559TIP3    H213684   3.987   2.328   2.718
 4560TIP3   OH213685   4.142   1.888   4.688
 4560TIP3    H113686   4.161   1.981   4.705
 4560TIP3    H213687   4.167   1.843   4.768
 4561TIP3   OH213688   6.183   3.883   1.505
 4561TIP3    H113689   6.215   3.927   1.427
 4561TIP3    H213690   6.254   3.824   1.531
 4562TIP3   OH213691   2.941   5.953   3.970
 4562TIP3    H113692   2.947   6.049   3.971
 4562TIP3    H213693   2.851   5.935   3.943
 4563TIP3   OH213694   4.089   2.716   2.008
 4563TIP3    H113695   4.062   2.805   2.031
 4563TIP3    H213696   4.185   2.719   2.014
 4564TIP3   OH213697   3.215   4.378   3.261
 4564TIP3    H113698   3.226   4.455   3.205
 4564TIP3    H213699   3.158   4.320   3.211
 4565TIP3   OH213700   4.492   3.564   4.678
 4565TIP3    H113701   4.473   3.504   4.606
 4565TIP3    H213702   4.423   3.630   4.673
 4566TIP3   OH213703   6.359   5.242   2.208
 4566TIP3    H113704   6.281   5.221   2.157
 4566TIP3    H213705   6.325   5.265   2.295
 4567TIP3   OH213706   6.230   4.364   2.098
 4567TIP3    H113707   6.286   4.438   2.121
 4567TIP3    H213708   6.254   4.296   2.162
 4568TIP3   OH213709   0.070   1.064   4.359
 4568TIP3    H113710   0.111   1.036   4.277
 4568TIP3    H213711   0.092   1.157   4.366
 4569TIP3   OH213712   4.186   3.370   0.710
 4569TIP3    H113713   4.234   3.430   0.652
 4569TIP3    H213714   4.248   3.300   0.728
 4570TIP3   OH213715   1.120   2.871   4.303
 4570TIP3    H113716   1.036   2.864   4.347
 4570TIP3    H213717   1.120   2.958   4.264
 4571TIP3   OH213718   4.288   2.038   3.953
 4571TIP3    H113719   4.317   2.009   4.039
 4571TIP3    H213720   4.193   2.025   3.954
 4572TIP3   OH213721   2.614   4.147   3.772
 4572TIP3    H113722   2.541   4.175   3.717
 4572TIP3    H213723   2.663   4.086   3.718
 4573TIP3   OH213724   3.051   1.635   0.327
 4573TIP3    H113725   3.143   1.640   0.303
 4573TIP3    H213726   3.018   1.724   0.317
 4574TIP3   OH213727   2.761   3.469   5.159
 4574TIP3    H113728   2.708   3.521   5.098
 4574TIP3    H213729   2.735   3.499   5.246
 4575TIP3   OH213730   2.517   1.372   0.340
 4575TIP3    H113731   2.432   1.360   0.383
 4575TIP3    H213732   2.502   1.342   0.250
 4576TIP3   OH213733   0.555   4.135   3.090
 4576TIP3    H113734   0.639   4.180   3.104
 4576TIP3    H213735   0.556   4.110   2.998
 4577TIP3   OH213736   1.814   5.243   0.256
 4577TIP3    H113737   1.832   5.165   0.308
 4577TIP3    H213738   1.864   5.312   0.298
 4578TIP3   OH213739   0.185   0.230   4.962
 4578TIP3    H113740   0.279   0.228   4.942
 4578TIP3    H213741   0.165   0.323   4.972
 4579TIP3   OH213742   4.465   4.313   2.820
 4579TIP3    H113743   4.369   4.317   2.825
 4579TIP3    H213744   4.494   4.399   2.850
 4580TIP3   OH213745   5.555   2.033   3.895
 4580TIP3    H113746   5.554   2.120   3.936
 4580TIP3    H213747   5.470   1.995   3.916
 4581TIP3   OH213748   5.022   1.620   0.475
 4581TIP3    H113749   4.993   1.663   0.556
 4581TIP3    H213750   5.118   1.626   0.478
 4582TIP3   OH213751   2.424   4.293   1.666
 4582TIP3    H113752   2.414   4.206   1.626
 4582TIP3    H213753   2.462   4.347   1.597
 4583TIP3   OH213754   5.814   0.054   4.485
 4583TIP3    H113755   5.907   0.061   4.508
 4583TIP3    H213756   5.809  -0.021   4.426
 4584TIP3   OH213757   1.371   0.460   2.146
 4584TIP3    H113758   1.332   0.444   2.060
 4584TIP3    H213759   1.363   0.554   2.159
 4585TIP3   OH213760   5.234   2.275   3.516
 4585TIP3    H113761   5.322   2.288   3.551
 4585TIP3    H213762   5.185   2.239   3.590
 4586TIP3   OH213763   5.411   4.876   3.290
 4586TIP3    H113764   5.412   4.965   3.325
 4586TIP3    H213765   5.337   4.875   3.229
 4587TIP3   OH213766   1.676   0.597   3.162
 4587TIP3    H113767   1.714   0.682   3.137
 4587TIP3    H213768   1.582   0.608   3.148
 4588TIP3   OH213769   4.162   3.215   3.817
 4588TIP3    H113770   4.141   3.162   3.894
 4588TIP3    H213771   4.123   3.167   3.744
 4589TIP3   OH213772   0.178   5.521   2.024
 4589TIP3    H113773   0.265   5.552   2.000
 4589TIP3    H213774   0.179   5.519   2.120
 4590TIP3   OH213775   4.907   5.710   3.665
 4590TIP3    H113776   4.855   5.787   3.687
 4590TIP3    H213777   4.928   5.720   3.572
 4591TIP3   OH213778   4.000   1.137   1.811
 4591TIP3    H113779   4.025   1.205   1.749
 4591TIP3    H213780   3.973   1.063   1.756
 4592TIP3   OH213781   2.795   5.817   0.866
 4592TIP3    H113782   2.871   5.813   0.924
 4592TIP3    H213783   2.832   5.827   0.779
 4593TIP3   OH213784   3.912   3.260   2.482
 4593TIP3    H113785   3.839   3.292   2.430
 4593TIP3    H213786   3.983   3.322   2.465
 4594TIP3   OH213787   1.189   0.407   5.206
 4594TIP3    H113788   1.146   0.466   5.143
 4594TIP3    H213789   1.207   0.328   5.155
 4595TIP3   OH213790   1.508   4.149   5.080
 4595TIP3    H113791   1.517   4.199   5.161
 4595TIP3    H213792   1.518   4.057   5.106
 4596TIP3   OH213793   4.759   2.499   1.943
 4596TIP3    H113794   4.675   2.458   1.964
 4596TIP3    H213795   4.811   2.488   2.023
 4597TIP3   OH213796   3.346   5.753   1.456
 4597TIP3    H113797   3.320   5.731   1.546
 4597TIP3    H213798   3.435   5.720   1.448
 4598TIP3   OH213799   2.343   5.455   1.685
 4598TIP3    H113800   2.290   5.376   1.682
 4598TIP3    H213801   2.432   5.425   1.704
 4599TIP3   OH213802   4.662   0.776   3.452
 4599TIP3    H113803   4.743   0.789   3.502
 4599TIP3    H213804   4.595   0.824   3.501
 4600TIP3   OH213805   3.659   3.331   3.242
 4600TIP3    H113806   3.572   3.316   3.279
 4600TIP3    H213807   3.691   3.244   3.219
 4601TIP3   OH213808   2.112   2.310   0.296
 4601TIP3    H113809   2.051   2.238   0.307
 4601TIP3    H213810   2.194   2.268   0.269
 4602TIP3   OH213811   5.286   1.231   2.532
 4602TIP3    H113812   5.329   1.183   2.603
 4602TIP3    H213813   5.346   1.222   2.458
 4603TIP3   OH213814   2.717   0.037   1.892
 4603TIP3    H113815   2.752  -0.053   1.893
 4603TIP3    H213816   2.752   0.077   1.971
 4604TIP3   OH213817   0.942   5.637   1.136
 4604TIP3    H113818   1.004   5.600   1.198
 4604TIP3    H213819   0.976   5.725   1.116
 4605TIP3   OH213820   5.874   0.378   2.473
 4605TIP3    H113821   5.912   0.452   2.426
 4605TIP3    H213822   5.790   0.363   2.431
 4606TIP3   OH213823   2.383   2.262   3.926
 4606TIP3    H113824   2.414   2.172   3.936
 4606TIP3    H213825   2.289   2.254   3.913
 4607TIP3   OH213826   1.572   4.400   4.943
 4607TIP3    H113827   1.638   4.430   5.005
 4607TIP3    H213828   1.517   4.340   4.993
 4608TIP3   OH213829   1.056   1.694   3.771
 4608TIP3    H113830   1.141   1.651   3.778
 4608TIP3    H213831   1.067   1.776   3.820
 4609TIP3   OH213832   0.987   4.232   4.453
 4609TIP3    H113833   1.014   4.188   4.372
 4609TIP3    H213834   1.069   4.258   4.495
 4610TIP3   OH213835   5.908   3.305   4.868
 4610TIP3    H113836   5.989   3.265   4.901
 4610TIP3    H213837   5.909   3.286   4.775
 4611TIP3   OH213838   1.308   5.694   3.541
 4611TIP3    H113839   1.311   5.788   3.555
 4611TIP3    H213840   1.308   5.656   3.629
 4612TIP3   OH213841   5.202   5.330   1.124
 4612TIP3    H113842   5.199   5.402   1.061
 4612TIP3    H213843   5.261   5.265   1.085
 4613TIP3   OH213844   5.262   2.371   4.909
 4613TIP3    H113845   5.278   2.416   4.826
 4613TIP3    H213846   5.329   2.403   4.968
 4614TIP3   OH213847   5.852   5.358   0.078
 4614TIP3    H113848   5.893   5.315   0.003
 4614TIP3    H213849   5.779   5.408   0.041
 4615TIP3   OH213850   1.752   3.196   5.100
 4615TIP3    H113851   1.723   3.266   5.158
 4615TIP3    H213852   1.672   3.153   5.070
 4616TIP3   OH213853   5.752   0.667   2.128
 4616TIP3    H113854   5.762   0.573   2.111
 4616TIP3    H213855   5.763   0.709   2.043
 4617TIP3   OH213856   3.999   1.645   4.624
 4617TIP3    H113857   4.064   1.704   4.662
 4617TIP3    H213858   4.029   1.632   4.534
 4618TIP3   OH213859   0.094   5.128   4.244
 4618TIP3    H113860   0.084   5.112   4.151
 4618TIP3    H213861   0.057   5.215   4.258
 4619TIP3   OH213862   1.853   4.366   4.950
 4619TIP3    H113863   1.833   4.418   5.028
 4619TIP3    H213864   1.770   4.364   4.902
 4620TIP3   OH213865   0.972   5.540   2.428
 4620TIP3    H113866   0.964   5.505   2.516
 4620TIP3    H213867   0.884   5.531   2.391
 4621TIP3   OH213868   2.191   4.306   4.479
 4621TIP3    H113869   2.211   4.292   4.387
 4621TIP3    H213870   2.257   4.255   4.526
 4622TIP3   OH213871   0.207   5.879   0.122
 4622TIP3    H113872   0.116   5.879   0.153
 4622TIP3    H213873   0.259   5.902   0.199
 4623TIP3   OH213874   4.963   1.226   0.421
 4623TIP3    H113875   5.020   1.160   0.382
 4623TIP3    H213876   4.881   1.219   0.372
 4624TIP3   OH213877   1.285   2.999   4.891
 4624TIP3    H113878   1.228   3.014   4.966
 4624TIP3    H213879   1.226   2.968   4.822
 4625TIP3   OH213880   5.179   3.056   2.158
 4625TIP3    H113881   5.244   2.993   2.127
 4625TIP3    H213882   5.164   3.032   2.249
 4626TIP3   OH213883   6.126   0.676   2.142
 4626TIP3    H113884   6.086   0.756   2.175
 4626TIP3    H213885   6.157   0.698   2.055
 4627TIP3   OH213886   0.961   5.764   4.099
 4627TIP3    H113887   1.033   5.775   4.037
 4627TIP3    H213888   0.996   5.797   4.182
 4628TIP3   OH213889   3.688   5.505   4.657
 4628TIP3    H113890   3.727   5.506   4.744
 4628TIP3    H213891   3.693   5.596   4.627
 4629TIP3   OH213892   5.801   3.004   2.284
 4629TIP3    H113893   5.869   3.021   2.348
 4629TIP3    H213894   5.770   2.915   2.304
 4630TIP3   OH213895   4.292   5.904   1.789
 4630TIP3    H113896   4.348   5.954   1.729
 4630TIP3    H213897   4.259   5.832   1.736
 4631TIP3   OH213898   2.966   3.867   0.988
 4631TIP3    H113899   2.975   3.960   0.966
 4631TIP3    H213900   3.040   3.848   1.046
 4632TIP3   OH213901   5.094   3.737   1.244
 4632TIP3    H113902   5.007   3.774   1.233
 4632TIP3    H213903   5.080   3.642   1.243
 4633TIP3   OH213904   0.903   0.931   4.856
 4633TIP3    H113905   0.906   0.929   4.760
 4633TIP3    H213906   0.985   0.972   4.882
 4634TIP3   OH213907   0.080   3.441   4.012
 4634TIP3    H113908   0.130   3.424   4.092
 4634TIP3    H213909   0.141   3.422   3.941
 4635TIP3   OH213910   3.221   3.762   4.524
 4635TIP3    H113911   3.239   3.735   4.613
 4635TIP3    H213912   3.135   3.805   4.529
 4636TIP3   OH213913   0.888   4.078   2.222
 4636TIP3    H113914   0.853   4.129   2.295
 4636TIP3    H213915   0.815   4.024   2.192
 4637TIP3   OH213916   5.598   0.622   3.049
 4637TIP3    H113917   5.660   0.589   2.984
 4637TIP3    H213918   5.512   0.613   3.006
 4638TIP3   OH213919   4.574   4.191   0.873
 4638TIP3    H113920   4.597   4.102   0.847
 4638TIP3    H213921   4.494   4.181   0.925
 4639TIP3   OH213922   2.289   4.429   1.412
 4639TIP3    H113923   2.259   4.352   1.362
 4639TIP3    H213924   2.225   4.437   1.483
 4640TIP3   OH213925   4.469   2.821   1.797
 4640TIP3    H113926   4.427   2.806   1.713
 4640TIP3    H213927   4.417   2.770   1.860
 4641TIP3   OH213928   3.250   5.712   3.484
 4641TIP3    H113929   3.323   5.655   3.509
 4641TIP3    H213930   3.267   5.732   3.392
 4642TIP3   OH213931   0.247   4.736   5.102
 4642TIP3    H113932   0.256   4.823   5.140
 4642TIP3    H213933   0.316   4.684   5.144
 4643TIP3   OH213934   3.660   3.705   0.299
 4643TIP3    H113935   3.634   3.757   0.222
 4643TIP3    H213936   3.599   3.632   0.300
 4644TIP3   OH213937   1.949   1.196   1.332
 4644TIP3    H113938   1.964   1.272   1.389
 4644TIP3    H213939   2.036   1.158   1.319
 4645TIP3   OH213940   5.364   4.524   0.621
 4645TIP3    H113941   5.432   4.476   0.573
 4645TIP3    H213942   5.403   4.609   0.639
 4646TIP3   OH213943   5.587   1.051   0.249
 4646TIP3    H113944   5.551   0.962   0.254
 4646TIP3    H213945   5.654   1.054   0.317
 4647TIP3   OH213946   3.992   3.137   4.860
 4647TIP3    H113947   3.900   3.141   4.885
 4647TIP3    H213948   4.012   3.223   4.824
 4648TIP3   OH213949   1.839   4.116   3.910
 4648TIP3    H113950   1.765   4.088   3.856
 4648TIP3    H213951   1.844   4.050   3.980
 4649TIP3   OH213952   2.530   3.377   3.528
 4649TIP3    H113953   2.482   3.307   3.485
 4649TIP3    H213954   2.493   3.458   3.492
 4650TIP3   OH213955   5.189   2.278   2.795
 4650TIP3    H113956   5.115   2.240   2.843
 4650TIP3    H213957   5.186   2.236   2.709
 4651TIP3   OH213958   6.285   3.625   0.289
 4651TIP3    H113959   6.310   3.593   0.202
 4651TIP3    H213960   6.361   3.676   0.318
 4652TIP3   OH213961   5.961   1.249   4.801
 4652TIP3    H113962   5.993   1.201   4.725
 4652TIP3    H213963   5.932   1.181   4.862
 4653TIP3   OH213964   3.471   2.259   4.419
 4653TIP3    H113965   3.491   2.290   4.507
 4653TIP3    H213966   3.543   2.292   4.365
 4654TIP3   OH213967   0.081   5.220   0.340
 4654TIP3    H113968   0.062   5.149   0.401
 4654TIP3    H213969   0.173   5.207   0.316
 4655TIP3   OH213970   4.382   4.295   3.128
 4655TIP3    H113971   4.425   4.214   3.102
 4655TIP3    H213972   4.336   4.273   3.209
 4656TIP3   OH213973   5.813   4.377   1.334
 4656TIP3    H113974   5.805   4.282   1.347
 4656TIP3    H213975   5.907   4.394   1.337
 4657TIP3   OH213976   3.946   0.551   0.796
 4657TIP3    H113977   4.020   0.491   0.797
 4657TIP3    H213978   3.888   0.521   0.866
 4658TIP3   OH213979   3.421   0.525   0.988
 4658TIP3    H113980   3.443   0.432   0.995
 4658TIP3    H213981   3.505   0.568   0.971
 4659TIP3   OH213982   1.574   0.611   4.643
 4659TIP3    H113983   1.625   0.684   4.678
 4659TIP3    H213984   1.583   0.542   4.709
 4660TIP3   OH213985   2.515   0.149   1.140
 4660TIP3    H113986   2.469   0.211   1.197
 4660TIP3    H213987   2.595   0.127   1.188
 4661TIP3   OH213988   2.627   2.118   1.760
 4661TIP3    H113989   2.676   2.197   1.781
 4661TIP3    H213990   2.641   2.105   1.666
 4662TIP3   OH213991   1.026   1.046   1.066
 4662TIP3    H113992   1.115   1.078   1.079
 4662TIP3    H213993   1.014   0.980   1.135
 4663TIP3   OH213994   1.158   5.428   1.247
 4663TIP3    H113995   1.246   5.405   1.277
 4663TIP3    H213996   1.145   5.373   1.169
 4664TIP3   OH213997   6.003   4.316   0.750
 4664TIP3    H113998   6.079   4.347   0.798
 4664TIP3    H213999   6.021   4.339   0.659
 4665TIP3   OH214000   1.963   0.356   2.768
 4665TIP3    H114001   1.938   0.364   2.860
 4665TIP3    H214002   1.882   0.332   2.723
 4666TIP3   OH214003   3.487   0.680   4.665
 4666TIP3    H114004   3.580   0.702   4.657
 4666TIP3    H214005   3.486   0.593   4.703
 4667TIP3   OH214006   6.121   5.494   0.478
 4667TIP3    H114007   6.057   5.446   0.425
 4667TIP3    H214008   6.162   5.427   0.532
 4668TIP3   OH214009   1.137   2.608   4.573
 4668TIP3    H114010   1.109   2.519   4.548
 4668TIP3    H214011   1.202   2.593   4.642
 4669TIP3   OH214012   4.013   1.731   3.318
 4669TIP3    H114013   4.052   1.665   3.376
 4669TIP3    H214014   3.960   1.680   3.257
 4670TIP3   OH214015   6.311   4.563   4.470
 4670TIP3    H114016   6.348   4.635   4.419
 4670TIP3    H214017   6.221   4.591   4.489
 4671TIP3   OH214018   5.012   2.184   4.091
 4671TIP3    H114019   5.002   2.092   4.066
 4671TIP3    H214020   4.985   2.187   4.183
 4672TIP3   OH214021   0.838   3.219   2.218
 4672TIP3    H114022   0.865   3.171   2.140
 4672TIP3    H214023   0.838   3.154   2.288
 4673TIP3   OH214024   1.587   2.438   4.661
 4673TIP3    H114025   1.587   2.345   4.639
 4673TIP3    H214026   1.591   2.483   4.576
 4674TIP3   OH214027   1.656   5.530   1.862
 4674TIP3    H114028   1.718   5.597   1.832
 4674TIP3    H214029   1.665   5.460   1.797
 4675TIP3   OH214030   4.140   2.949   2.927
 4675TIP3    H114031   4.140   2.868   2.876
 4675TIP3    H214032   4.225   2.950   2.971
 4676TIP3   OH214033   2.984   4.120   4.279
 4676TIP3    H114034   3.043   4.077   4.216
 4676TIP3    H214035   2.982   4.060   4.354
 4677TIP3   OH214036   1.878   1.757   4.178
 4677TIP3    H114037   1.927   1.822   4.227
 4677TIP3    H214038   1.860   1.687   4.241
 4678TIP3   OH214039   0.316   3.601   5.028
 4678TIP3    H114040   0.360   3.570   4.949
 4678TIP3    H214041   0.268   3.679   5.000
 4679TIP3   OH214042   3.230   4.772   4.913
 4679TIP3    H114043   3.309   4.765   4.967
 4679TIP3    H214044   3.259   4.747   4.825
 4680TIP3   OH214045   4.078   2.664   4.391
 4680TIP3    H114046   4.137   2.732   4.359
 4680TIP3    H214047   4.136   2.593   4.418
 4681TIP3   OH214048   2.873   2.828   0.034
 4681TIP3    H114049   2.787   2.830   0.078
 4681TIP3    H214050   2.891   2.735   0.022
 4682TIP3   OH214051   1.530   4.257   3.710
 4682TIP3    H114052   1.572   4.294   3.788
 4682TIP3    H214053   1.566   4.168   3.703
 4683TIP3   OH214054   0.313   5.912   0.394
 4683TIP3    H114055   0.353   5.983   0.444
 4683TIP3    H214056   0.387   5.864   0.357
 4684TIP3   OH214057   1.717   0.404   3.365
 4684TIP3    H114058   1.732   0.466   3.293
 4684TIP3    H214059   1.633   0.431   3.402
 4685TIP3   OH214060   5.307   2.982   4.020
 4685TIP3    H114061   5.244   3.036   3.972
 4685TIP3    H214062   5.330   3.034   4.097
 4686TIP3   OH214063   2.038   3.087   0.818
 4686TIP3    H114064   2.085   3.165   0.850
 4686TIP3    H214065   2.057   3.020   0.884
 4687TIP3   OH214066   4.287   1.984   1.313
 4687TIP3    H114067   4.260   1.969   1.223
 4687TIP3    H214068   4.376   1.949   1.318
 4688TIP3   OH214069   0.917   3.866   2.578
 4688TIP3    H114070   0.873   3.857   2.663
 4688TIP3    H214071   0.847   3.861   2.513
 4689TIP3   OH214072   0.939   0.173   2.496
 4689TIP3    H114073   0.895   0.096   2.459
 4689TIP3    H214074   0.879   0.203   2.565
 4690TIP3   OH214075   1.770   3.839   0.683
 4690TIP3    H114076   1.790   3.916   0.736
 4690TIP3    H214077   1.842   3.834   0.621
 4691TIP3   OH214078   5.968   0.708   3.931
 4691TIP3    H114079   6.031   0.719   3.860
 4691TIP3    H214080   5.909   0.640   3.901
 4692TIP3   OH214081   1.516   4.887   3.656
 4692TIP3    H114082   1.430   4.853   3.629
 4692TIP3    H214083   1.575   4.859   3.586
 4693TIP3   OH214084   4.255   3.216   0.458
 4693TIP3    H114085   4.250   3.153   0.530
 4693TIP3    H214086   4.218   3.168   0.383
 4694TIP3   OH214087   5.162   4.984   4.749
 4694TIP3    H114088   5.184   4.921   4.681
 4694TIP3    H214089   5.094   4.941   4.801
 4695TIP3   OH214090   5.974   2.338   0.657
 4695TIP3    H114091   6.061   2.356   0.620
 4695TIP3    H214092   5.916   2.333   0.580
 4696TIP3   OH214093   0.292   5.837   1.452
 4696TIP3    H114094   0.370   5.819   1.400
 4696TIP3    H214095   0.270   5.753   1.491
 4697TIP3   OH214096   2.026   4.263   1.680
 4697TIP3    H114097   1.956   4.321   1.711
 4697TIP3    H214098   2.100   4.280   1.738
 4698TIP3   OH214099   1.338   3.093   2.426
 4698TIP3    H114100   1.249   3.089   2.461
 4698TIP3    H214101   1.355   3.186   2.414
 4699TIP3   OH214102   0.565   4.002   4.443
 4699TIP3    H114103   0.620   3.992   4.365
 4699TIP3    H214104   0.476   3.983   4.412
 4700TIP3   OH214105   1.324   3.320   1.178
 4700TIP3    H114106   1.364   3.405   1.156
 4700TIP3    H214107   1.270   3.339   1.255
 4701TIP3   OH214108   4.674   1.348   2.018
 4701TIP3    H114109   4.710   1.279   2.075
 4701TIP3    H214110   4.721   1.427   2.045
 4702TIP3   OH214111   3.843   3.431   0.394
 4702TIP3    H114112   3.815   3.424   0.303
 4702TIP3    H214113   3.761   3.439   0.443
 4703TIP3   OH214114   0.765   5.207   2.464
 4703TIP3    H114115   0.760   5.132   2.524
 4703TIP3    H214116   0.685   5.257   2.482
 4704TIP3   OH214117   5.605   1.403   3.313
 4704TIP3    H114118   5.565   1.330   3.265
 4704TIP3    H214119   5.641   1.460   3.245
 4705TIP3   OH214120   3.271   3.268   4.159
 4705TIP3    H114121   3.222   3.272   4.242
 4705TIP3    H214122   3.320   3.186   4.165
 4706TIP3   OH214123   0.758   3.760   2.053
 4706TIP3    H114124   0.837   3.811   2.037
 4706TIP3    H214125   0.774   3.716   2.137
 4707TIP3   OH214126   5.590   5.736   0.829
 4707TIP3    H114127   5.600   5.819   0.783
 4707TIP3    H214128   5.679   5.700   0.833
 4708TIP3   OH214129   5.220   2.738   2.836
 4708TIP3    H114130   5.274   2.687   2.776
 4708TIP3    H214131   5.156   2.781   2.781
 4709TIP3   OH214132   5.389   4.765   0.302
 4709TIP3    H114133   5.475   4.739   0.335
 4709TIP3    H214134   5.396   4.757   0.207
 4710TIP3   OH214135   1.279   4.424   0.383
 4710TIP3    H114136   1.254   4.421   0.291
 4710TIP3    H214137   1.291   4.332   0.408
 4711TIP3   OH214138   5.531   3.313   4.937
 4711TIP3    H114139   5.463   3.248   4.918
 4711TIP3    H214140   5.610   3.262   4.952
 4712TIP3   OH214141   6.003   0.761   4.773
 4712TIP3    H114142   6.023   0.731   4.685
 4712TIP3    H214143   5.979   0.854   4.762
 4713TIP3   OH214144   6.090   0.293   3.289
 4713TIP3    H114145   6.157   0.359   3.308
 4713TIP3    H214146   6.032   0.335   3.226
 4714TIP3   OH214147   0.497   0.141   2.768
 4714TIP3    H114148   0.471   0.194   2.843
 4714TIP3    H214149   0.583   0.176   2.743
 4715TIP3   OH214150   4.264   4.115   0.128
 4715TIP3    H114151   4.304   4.055   0.066
 4715TIP3    H214152   4.185   4.070   0.157
 4716TIP3   OH214153   6.194   4.812   3.652
 4716TIP3    H114154   6.237   4.730   3.675
 4716TIP3    H214155   6.206   4.820   3.558
 4717TIP3   OH214156   5.253   0.314   2.201
 4717TIP3    H114157   5.323   0.307   2.137
 4717TIP3    H214158   5.189   0.372   2.160
 4718TIP3   OH214159   3.381   1.261   4.289
 4718TIP3    H114160   3.445   1.288   4.355
 4718TIP3    H214161   3.305   1.231   4.340
 4719TIP3   OH214162   2.424   0.682   3.938
 4719TIP3    H114163   2.370   0.666   3.861
 4719TIP3    H214164   2.362   0.715   4.004
 4720TIP3   OH214165   4.427   3.513   4.950
 4720TIP3    H114166   4.460   3.529   4.861
 4720TIP3    H214167   4.504   3.519   5.005
 4721TIP3   OH214168   0.243   4.060   3.969
 4721TIP3    H114169   0.168   4.001   3.969
 4721TIP3    H214170   0.280   4.052   3.881
 4722TIP3   OH214171   0.777   2.227   2.835
 4722TIP3    H114172   0.811   2.256   2.751
 4722TIP3    H214173   0.847   2.174   2.872
 4723TIP3   OH214174   6.336   1.638   4.058
 4723TIP3    H114175   6.249   1.678   4.055
 4723TIP3    H214176   6.367   1.655   4.147
 4724TIP3   OH214177   6.130   5.290   4.794
 4724TIP3    H114178   6.087   5.204   4.793
 4724TIP3    H214179   6.219   5.273   4.764
 4725TIP3   OH214180   5.973   1.391   0.283
 4725TIP3    H114181   6.058   1.425   0.254
 4725TIP3    H214182   5.919   1.469   0.295
 4726TIP3   OH214183   0.523   0.366   1.801
 4726TIP3    H114184   0.496   0.425   1.872
 4726TIP3    H214185   0.465   0.387   1.729
 4727TIP3   OH214186   3.783   5.259   1.536
 4727TIP3    H114187   3.866   5.255   1.489
 4727TIP3    H214188   3.735   5.181   1.508
 4728TIP3   OH214189   2.117   5.765   1.997
 4728TIP3    H114190   2.197   5.812   2.018
 4728TIP3    H214191   2.111   5.696   2.063
 4729TIP3   OH214192   4.959   4.537   3.190
 4729TIP3    H114193   4.873   4.495   3.185
 4729TIP3    H214194   4.944   4.624   3.152
 4730TIP3   OH214195   3.758   1.020   3.313
 4730TIP3    H114196   3.686   1.076   3.287
 4730TIP3    H214197   3.718   0.934   3.326
 4731TIP3   OH214198   2.861   2.605   1.763
 4731TIP3    H114199   2.919   2.670   1.724
 4731TIP3    H214200   2.786   2.656   1.796
 4732TIP3   OH214201   0.413   5.298   2.717
 4732TIP3    H114202   0.404   5.388   2.747
 4732TIP3    H214203   0.351   5.248   2.770
 4733TIP3   OH214204   3.983   2.569   3.015
 4733TIP3    H114205   4.070   2.563   3.055
 4733TIP3    H214206   3.965   2.480   2.985
 4734TIP3   OH214207   3.799   5.715   4.122
 4734TIP3    H114208   3.860   5.783   4.151
 4734TIP3    H214209   3.751   5.755   4.049
 4735TIP3   OH214210   0.786   0.660   4.832
 4735TIP3    H114211   0.807   0.753   4.841
 4735TIP3    H214212   0.691   0.658   4.822
 4736TIP3   OH214213   6.306   1.864   0.223
 4736TIP3    H114214   6.236   1.813   0.264
 4736TIP3    H214215   6.385   1.812   0.235
 4737TIP3   OH214216   1.980   2.118   2.750
 4737TIP3    H114217   1.973   2.130   2.845
 4737TIP3    H214218   2.035   2.190   2.721
 4738TIP3   OH214219   5.455   3.266   1.506
 4738TIP3    H114220   5.507   3.192   1.473
 4738TIP3    H214221   5.470   3.267   1.600
 4739TIP3   OH214222   5.692   3.764   1.970
 4739TIP3    H114223   5.598   3.747   1.979
 4739TIP3    H214224   5.723   3.696   1.909
 4740TIP3   OH214225   1.117   2.924   1.783
 4740TIP3    H114226   1.049   2.978   1.823
 4740TIP3    H214227   1.196   2.943   1.833
 4741TIP3   OH214228   5.014   2.947   0.606
 4741TIP3    H114229   4.920   2.963   0.616
 4741TIP3    H214230   5.034   2.876   0.666
 4742TIP3   OH214231   1.172   4.751   4.798
 4742TIP3    H114232   1.100   4.814   4.800
 4742TIP3    H214233   1.137   4.673   4.841
 4743TIP3   OH214234   4.858   1.853   5.165
 4743TIP3    H114235   4.802   1.872   5.091
 4743TIP3    H214236   4.803   1.871   5.242
 4744TIP3   OH214237   3.958   4.226   3.929
 4744TIP3    H114238   3.883   4.180   3.968
 4744TIP3    H214239   3.941   4.319   3.946
 4745TIP3   OH214240   2.940   5.801   2.204
 4745TIP3    H114241   2.899   5.735   2.148
 4745TIP3    H214242   2.968   5.870   2.144
 4746TIP3   OH214243   2.246   5.382   1.973
 4746TIP3    H114244   2.323   5.325   1.966
 4746TIP3    H214245   2.273   5.463   1.929
 4747TIP3   OH214246   5.394   1.153   2.048
 4747TIP3    H114247   5.444   1.185   2.123
 4747TIP3    H214248   5.355   1.071   2.079
 4748TIP3   OH214249   5.799   3.178   2.762
 4748TIP3    H114250   5.808   3.130   2.844
 4748TIP3    H214251   5.887   3.176   2.723
 4749TIP3   OH214252   1.562   2.178   1.970
 4749TIP3    H114253   1.531   2.114   2.035
 4749TIP3    H214254   1.656   2.159   1.961
 4750TIP3   OH214255   2.573   2.614   3.869
 4750TIP3    H114256   2.666   2.638   3.859
 4750TIP3    H214257   2.559   2.547   3.803
 4751TIP3   OH214258   0.459   2.126   2.452
 4751TIP3    H114259   0.457   2.035   2.482
 4751TIP3    H214260   0.522   2.127   2.381
 4752TIP3   OH214261   2.318   3.222   1.142
 4752TIP3    H114262   2.284   3.222   1.052
 4752TIP3    H214263   2.303   3.132   1.172
 4753TIP3   OH214264   1.476   5.550   0.520
 4753TIP3    H114265   1.445   5.520   0.606
 4753TIP3    H214266   1.396   5.559   0.468
 4754TIP3   OH214267   0.395   2.757   4.744
 4754TIP3    H114268   0.414   2.815   4.670
 4754TIP3    H214269   0.368   2.816   4.815
 4755TIP3   OH214270   6.095   4.304   4.315
 4755TIP3    H114271   6.159   4.289   4.385
 4755TIP3    H214272   6.136   4.264   4.238
 4756TIP3   OH214273   4.925   4.299   1.735
 4756TIP3    H114274   4.941   4.248   1.814
 4756TIP3    H214275   5.008   4.342   1.717
 4757TIP3   OH214276   5.086   0.233   0.464
 4757TIP3    H114277   5.040   0.316   0.453
 4757TIP3    H214278   5.051   0.176   0.395
 4758TIP3   OH214279   3.796   5.840   4.873
 4758TIP3    H114280   3.703   5.819   4.865
 4758TIP3    H214281   3.839   5.784   4.808
 4759TIP3   OH214282   2.706   5.649   1.525
 4759TIP3    H114283   2.713   5.675   1.433
 4759TIP3    H214284   2.635   5.585   1.527
 4760TIP3   OH214285   0.315   2.088   3.660
 4760TIP3    H114286   0.349   2.168   3.702
 4760TIP3    H214287   0.250   2.055   3.722
 4761TIP3   OH214288   4.075   0.229   1.858
 4761TIP3    H114289   4.064   0.229   1.953
 4761TIP3    H214290   4.080   0.136   1.834
 4762TIP3   OH214291   2.302   0.156   0.700
 4762TIP3    H114292   2.244   0.162   0.624
 4762TIP3    H214293   2.312   0.062   0.715
 4763TIP3   OH214294   2.739   0.720   2.879
 4763TIP3    H114295   2.661   0.721   2.934
 4763TIP3    H214296   2.797   0.785   2.919
 4764TIP3   OH214297   0.277   4.569   1.509
 4764TIP3    H114298   0.343   4.579   1.577
 4764TIP3    H214299   0.195   4.598   1.549
 4765TIP3   OH214300   3.185   2.341   4.291
 4765TIP3    H114301   3.207   2.434   4.280
 4765TIP3    H214302   3.268   2.299   4.314
 4766TIP3   OH214303   5.329   5.109   3.708
 4766TIP3    H114304   5.251   5.055   3.723
 4766TIP3    H214305   5.296   5.198   3.701
 4767TIP3   OH214306   4.995   0.180   0.812
 4767TIP3    H114307   4.913   0.201   0.856
 4767TIP3    H214308   5.052   0.147   0.882
 4768TIP3   OH214309   2.796   4.410   4.521
 4768TIP3    H114310   2.852   4.420   4.444
 4768TIP3    H214311   2.707   4.404   4.485
 4769TIP3   OH214312   1.067   4.653   0.033
 4769TIP3    H114313   1.081   4.637  -0.061
 4769TIP3    H214314   0.974   4.678   0.039
 4770TIP3   OH214315   1.790   5.263   3.985
 4770TIP3    H114316   1.721   5.222   4.037
 4770TIP3    H214317   1.836   5.190   3.943
 4771TIP3   OH214318   0.801   2.358   1.499
 4771TIP3    H114319   0.743   2.299   1.547
 4771TIP3    H214320   0.746   2.433   1.476
 4772TIP3   OH214321   3.788   5.256   5.003
 4772TIP3    H114322   3.714   5.195   5.006
 4772TIP3    H214323   3.844   5.222   4.933
 4773TIP3   OH214324   4.143   4.661   0.036
 4773TIP3    H114325   4.219   4.667  -0.023
 4773TIP3    H214326   4.121   4.753   0.054
 4774TIP3   OH214327   1.842   0.538   4.416
 4774TIP3    H114328   1.849   0.475   4.488
 4774TIP3    H214329   1.766   0.509   4.366
 4775TIP3   OH214330   1.416   4.891   0.276
 4775TIP3    H114331   1.480   4.839   0.324
 4775TIP3    H214332   1.376   4.829   0.215
 4776TIP3   OH214333   1.351   5.881   4.259
 4776TIP3    H114334   1.272   5.930   4.237
 4776TIP3    H214335   1.409   5.945   4.300
 4777TIP3   OH214336   4.682   5.684   3.250
 4777TIP3    H114337   4.607   5.665   3.306
 4777TIP3    H214338   4.703   5.776   3.268
 4778TIP3   OH214339   3.707   4.017   3.914
 4778TIP3    H114340   3.674   4.073   3.984
 4778TIP3    H214341   3.640   3.950   3.903
 4779TIP3   OH214342   5.118   0.391   2.455
 4779TIP3    H114343   5.146   0.362   2.368
 4779TIP3    H214344   5.109   0.310   2.506
 4780TIP3   OH214345   3.896   1.562   0.153
 4780TIP3    H114346   3.911   1.503   0.227
 4780TIP3    H214347   3.946   1.524   0.081
 4781TIP3   OH214348   2.716   1.955   0.086
 4781TIP3    H114349   2.694   2.043   0.055
 4781TIP3    H214350   2.650   1.937   0.153
 4782TIP3   OH214351   0.434   1.123   1.585
 4782TIP3    H114352   0.471   1.071   1.514
 4782TIP3    H214353   0.418   1.209   1.546
 4783TIP3   OH214354   4.686   1.465   1.240
 4783TIP3    H114355   4.608   1.417   1.213
 4783TIP3    H214356   4.710   1.517   1.163
 4784TIP3   OH214357   0.797   4.239   3.082
 4784TIP3    H114358   0.872   4.239   3.141
 4784TIP3    H214359   0.835   4.246   2.994
 4785TIP3   OH214360   0.890   0.378   3.368
 4785TIP3    H114361   0.815   0.374   3.308
 4785TIP3    H214362   0.879   0.462   3.413
 4786TIP3   OH214363   1.425   2.342   2.188
 4786TIP3    H114364   1.426   2.319   2.095
 4786TIP3    H214365   1.334   2.331   2.215
 4787TIP3   OH214366   1.711   0.392   0.386
 4787TIP3    H114367   1.683   0.346   0.307
 4787TIP3    H214368   1.694   0.331   0.458
 4788TIP3   OH214369   3.669   3.332   2.325
 4788TIP3    H114370   3.695   3.243   2.300
 4788TIP3    H214371   3.609   3.319   2.398
 4789TIP3   OH214372   2.569   1.012   2.426
 4789TIP3    H114373   2.508   0.940   2.409
 4789TIP3    H214374   2.520   1.072   2.482
 4790TIP3   OH214375   0.749   2.469   3.936
 4790TIP3    H114376   0.706   2.475   4.022
 4790TIP3    H214377   0.796   2.385   3.938
 4791TIP3   OH214378   1.913   3.953   2.352
 4791TIP3    H114379   1.959   3.996   2.279
 4791TIP3    H214380   1.870   3.878   2.312
 4792TIP3   OH214381   3.497   3.426   3.592
 4792TIP3    H114382   3.424   3.376   3.554
 4792TIP3    H214383   3.524   3.486   3.523
 4793TIP3   OH214384   0.442   1.123   4.005
 4793TIP3    H114385   0.371   1.178   3.973
 4793TIP3    H214386   0.402   1.071   4.075
 4794TIP3   OH214387   4.995   2.320   0.430
 4794TIP3    H114388   4.916   2.327   0.378
 4794TIP3    H214389   4.980   2.378   0.505
 4795TIP3   OH214390   3.598   5.261   3.278
 4795TIP3    H114391   3.614   5.306   3.361
 4795TIP3    H214392   3.660   5.301   3.217
 4796TIP3   OH214393   2.762   4.101   2.134
 4796TIP3    H114394   2.841   4.059   2.102
 4796TIP3    H214395   2.738   4.051   2.212
 4797TIP3   OH214396   4.302   0.532   3.822
 4797TIP3    H114397   4.282   0.445   3.856
 4797TIP3    H214398   4.342   0.579   3.895
 4798TIP3   OH214399   3.959   4.075   5.026
 4798TIP3    H114400   4.000   4.147   4.979
 4798TIP3    H214401   4.008   4.068   5.108
 4799TIP3   OH214402   5.964   2.384   3.208
 4799TIP3    H114403   5.991   2.463   3.255
 4799TIP3    H214404   6.001   2.312   3.258
 4800TIP3   OH214405   5.667   4.650   4.387
 4800TIP3    H114406   5.611   4.634   4.312
 4800TIP3    H214407   5.753   4.670   4.349
 4801TIP3   OH214408   6.013   4.882   1.879
 4801TIP3    H114409   5.970   4.833   1.809
 4801TIP3    H214410   5.964   4.964   1.884
 4802TIP3   OH214411   0.791   2.944   3.633
 4802TIP3    H114412   0.804   2.876   3.698
 4802TIP3    H214413   0.877   2.956   3.593
 4803TIP3   OH214414   4.746   2.737   1.062
 4803TIP3    H114415   4.719   2.668   1.123
 4803TIP3    H214416   4.800   2.795   1.115
 4804TIP3   OH214417   1.531   3.979   2.725
 4804TIP3    H114418   1.446   4.015   2.747
 4804TIP3    H214419   1.548   4.008   2.635
 4805TIP3   OH214420   3.612   3.539   0.825
 4805TIP3    H114421   3.586   3.454   0.861
 4805TIP3    H214422   3.558   3.550   0.747
 4806TIP3   OH214423   4.537   3.795   4.135
 4806TIP3    H114424   4.539   3.789   4.230
 4806TIP3    H214425   4.475   3.728   4.108
 4807TIP3   OH214426   2.337   2.753   2.905
 4807TIP3    H114427   2.383   2.754   2.821
 4807TIP3    H214428   2.244   2.754   2.881
 4808TIP3   OH214429   4.236   4.928   1.662
 4808TIP3    H114430   4.300   4.998   1.647
 4808TIP3    H214431   4.193   4.916   1.578
 4809TIP3   OH214432   5.124   0.104   5.139
 4809TIP3    H114433   5.152   0.155   5.215
 4809TIP3    H214434   5.192   0.119   5.074
 4810TIP3   OH214435   4.229   4.633   2.240
 4810TIP3    H114436   4.284   4.555   2.249
 4810TIP3    H214437   4.157   4.618   2.303
 4811TIP3   OH214438   3.436   2.892   2.351
 4811TIP3    H114439   3.472   2.923   2.434
 4811TIP3    H214440   3.366   2.833   2.375
 4812TIP3   OH214441   3.309   2.493   2.115
 4812TIP3    H114442   3.401   2.474   2.098
 4812TIP3    H214443   3.274   2.518   2.029
 4813TIP3   OH214444   6.248   3.714   1.123
 4813TIP3    H114445   6.210   3.724   1.036
 4813TIP3    H214446   6.268   3.803   1.151
 4814TIP3   OH214447   4.847   3.039   1.425
 4814TIP3    H114448   4.842   3.119   1.477
 4814TIP3    H214449   4.785   2.979   1.468
 4815TIP3   OH214450   1.566   5.541   1.229
 4815TIP3    H114451   1.495   5.512   1.172
 4815TIP3    H214452   1.527   5.607   1.285
 4816TIP3   OH214453   6.138   0.549   0.716
 4816TIP3    H114454   6.175   0.613   0.654
 4816TIP3    H214455   6.214   0.505   0.752
 4817TIP3   OH214456   3.434   0.013   3.595
 4817TIP3    H114457   3.456   0.106   3.589
 4817TIP3    H214458   3.427  -0.005   3.688
 4818TIP3   OH214459   0.477   1.862   0.376
 4818TIP3    H114460   0.494   1.895   0.288
 4818TIP3    H214461   0.563   1.864   0.419
 4819TIP3   OH214462   3.915   1.733   0.901
 4819TIP3    H114463   3.836   1.765   0.943
 4819TIP3    H214464   3.972   1.707   0.973
 4820TIP3   OH214465   1.587   3.715   2.832
 4820TIP3    H114466   1.543   3.644   2.785
 4820TIP3    H214467   1.574   3.792   2.778
 4821TIP3   OH214468   2.619   3.509   0.873
 4821TIP3    H114469   2.693   3.496   0.933
 4821TIP3    H214470   2.615   3.603   0.859
 4822TIP3   OH214471   0.537   4.128   0.850
 4822TIP3    H114472   0.473   4.079   0.901
 4822TIP3    H214473   0.497   4.213   0.835
 4823TIP3   OH214474   4.579   4.317   1.497
 4823TIP3    H114475   4.558   4.270   1.417
 4823TIP3    H214476   4.638   4.258   1.545
 4824TIP3   OH214477   2.664   3.976   2.733
 4824TIP3    H114478   2.751   3.954   2.768
 4824TIP3    H214479   2.612   3.897   2.747
 4825TIP3   OH214480   0.550   4.278   1.216
 4825TIP3    H114481   0.541   4.186   1.193
 4825TIP3    H214482   0.637   4.303   1.184
 4826TIP3   OH214483   4.476   4.612   1.127
 4826TIP3    H114484   4.437   4.679   1.070
 4826TIP3    H214485   4.529   4.558   1.068
 4827TIP3   OH214486   3.866   0.591   3.817
 4827TIP3    H114487   3.934   0.651   3.846
 4827TIP3    H214488   3.784   0.638   3.831
 4828TIP3   OH214489   5.317   5.713   0.761
 4828TIP3    H114490   5.319   5.806   0.740
 4828TIP3    H214491   5.408   5.692   0.784
 4829TIP3   OH214492   4.460   5.332   5.102
 4829TIP3    H114493   4.380   5.378   5.124
 4829TIP3    H214494   4.474   5.271   5.174
 4830TIP3   OH214495   6.163   0.068   4.081
 4830TIP3    H114496   6.152  -0.011   4.029
 4830TIP3    H214497   6.255   0.068   4.106
 4831TIP3   OH214498   2.138   3.893   3.101
 4831TIP3    H114499   2.166   3.836   3.031
 4831TIP3    H214500   2.159   3.845   3.181
 4832TIP3   OH214501   5.409   4.444   1.583
 4832TIP3    H114502   5.460   4.522   1.562
 4832TIP3    H214503   5.474   4.376   1.597
 4833TIP3   OH214504   0.417   0.095   3.112
 4833TIP3    H114505   0.507   0.099   3.143
 4833TIP3    H214506   0.366   0.066   3.188
 4834TIP3   OH214507   2.639   0.829   3.965
 4834TIP3    H114508   2.607   0.887   4.035
 4834TIP3    H214509   2.565   0.773   3.944
 4835TIP3   OH214510   3.828   1.243   0.843
 4835TIP3    H114511   3.848   1.324   0.889
 4835TIP3    H214512   3.785   1.271   0.762
 4836TIP3   OH214513   2.677   0.644   1.907
 4836TIP3    H114514   2.683   0.562   1.956
 4836TIP3    H214515   2.749   0.697   1.940
 4837TIP3   OH214516   0.705   3.806   0.392
 4837TIP3    H114517   0.685   3.736   0.330
 4837TIP3    H214518   0.753   3.871   0.339
 4838TIP3   OH214519   5.236   3.655   4.662
 4838TIP3    H114520   5.309   3.617   4.614
 4838TIP3    H214521   5.205   3.584   4.719
 4839TIP3   OH214522   6.284   3.136   2.083
 4839TIP3    H114523   6.234   3.131   2.164
 4839TIP3    H214524   6.353   3.069   2.092
 4840TIP3   OH214525   5.038   0.419   4.369
 4840TIP3    H114526   4.973   0.351   4.386
 4840TIP3    H214527   5.115   0.393   4.420
 4841TIP3   OH214528   3.761   1.907   4.898
 4841TIP3    H114529   3.734   1.871   4.983
 4841TIP3    H214530   3.693   1.881   4.837
 4842TIP3   OH214531   5.331   5.295   4.111
 4842TIP3    H114532   5.409   5.248   4.143
 4842TIP3    H214533   5.270   5.291   4.184
 4843TIP3   OH214534   2.622   3.683   5.024
 4843TIP3    H114535   2.570   3.648   4.951
 4843TIP3    H214536   2.559   3.693   5.095
 4844TIP3   OH214537   1.841   4.606   1.833
 4844TIP3    H114538   1.784   4.613   1.910
 4844TIP3    H214539   1.818   4.521   1.794
 4845TIP3   OH214540   3.050   1.240   0.285
 4845TIP3    H114541   3.052   1.252   0.380
 4845TIP3    H214542   3.118   1.298   0.251
 4846TIP3   OH214543   1.371   1.131   4.245
 4846TIP3    H114544   1.337   1.140   4.156
 4846TIP3    H214545   1.461   1.165   4.240
 4847TIP3   OH214546   2.364   5.440   0.076
 4847TIP3    H114547   2.451   5.407   0.055
 4847TIP3    H214548   2.350   5.413   0.167
 4848TIP3   OH214549   4.781   4.988   4.555
 4848TIP3    H114550   4.780   4.984   4.459
 4848TIP3    H214551   4.714   5.053   4.577
 4849TIP3   OH214552   0.191   4.858   3.520
 4849TIP3    H114553   0.109   4.822   3.485
 4849TIP3    H214554   0.256   4.838   3.453
 4850TIP3   OH214555   4.290   1.248   3.876
 4850TIP3    H114556   4.378   1.284   3.879
 4850TIP3    H214557   4.294   1.168   3.928
 4851TIP3   OH214558   1.871   3.764   3.492
 4851TIP3    H114559   1.865   3.819   3.414
 4851TIP3    H214560   1.795   3.707   3.487
 4852TIP3   OH214561   3.950   2.936   1.172
 4852TIP3    H114562   3.939   2.842   1.184
 4852TIP3    H214563   3.965   2.946   1.078
 4853TIP3   OH214564   3.488   3.530   4.861
 4853TIP3    H114565   3.558   3.523   4.926
 4853TIP3    H214566   3.524   3.584   4.791
 4854TIP3   OH214567   3.588   5.425   3.492
 4854TIP3    H114568   3.613   5.433   3.585
 4854TIP3    H214569   3.542   5.506   3.472
 4855TIP3   OH214570   2.675   3.939   1.626
 4855TIP3    H114571   2.706   4.004   1.689
 4855TIP3    H214572   2.729   3.954   1.548
 4856TIP3   OH214573   0.080   0.026   3.799
 4856TIP3    H114574   0.164   0.057   3.766
 4856TIP3    H214575   0.087  -0.069   3.800
 4857TIP3   OH214576   5.346   1.056   1.100
 4857TIP3    H114577   5.374   1.058   1.009
 4857TIP3    H214578   5.279   1.125   1.106
 4858TIP3   OH214579   2.166   3.129   2.578
 4858TIP3    H114580   2.254   3.164   2.593
 4858TIP3    H214581   2.123   3.194   2.523
 4859TIP3   OH214582   0.936   5.253   0.566
 4859TIP3    H114583   0.965   5.249   0.475
 4859TIP3    H214584   1.003   5.204   0.615
 4860TIP3   OH214585   4.939   3.967   2.301
 4860TIP3    H114586   4.866   3.978   2.363
 4860TIP3    H214587   4.958   3.873   2.302
 4861TIP3   OH214588   3.106   0.317   0.527
 4861TIP3    H114589   3.045   0.390   0.536
 4861TIP3    H214590   3.167   0.328   0.601
 4862TIP3   OH214591   5.083   2.126   1.491
 4862TIP3    H114592   5.147   2.111   1.561
 4862TIP3    H214593   5.001   2.145   1.536
 4863TIP3   OH214594   4.929   2.083   2.246
 4863TIP3    H114595   4.916   1.991   2.223
 4863TIP3    H214596   4.845   2.124   2.227
 4864TIP3   OH214597   3.242   1.725   4.319
 4864TIP3    H114598   3.331   1.761   4.314
 4864TIP3    H214599   3.221   1.727   4.412
 4865TIP3   OH214600   2.195   4.781   4.426
 4865TIP3    H114601   2.143   4.840   4.371
 4865TIP3    H214602   2.149   4.697   4.422
 4866TIP3   OH214603   0.563   2.724   3.314
 4866TIP3    H114604   0.505   2.656   3.347
 4866TIP3    H214605   0.648   2.681   3.304
 4867TIP3   OH214606   0.227   4.228   0.594
 4867TIP3    H114607   0.146   4.261   0.555
 4867TIP3    H214608   0.210   4.227   0.688
 4868TIP3   OH214609   3.304   4.546   1.892
 4868TIP3    H114610   3.389   4.584   1.873
 4868TIP3    H214611   3.314   4.507   1.979
 4869TIP3   OH214612   5.793   0.207   3.950
 4869TIP3    H114613   5.851   0.191   3.875
 4869TIP3    H214614   5.705   0.192   3.917
 4870TIP3   OH214615   6.151   2.280   0.234
 4870TIP3    H114616   6.063   2.320   0.234
 4870TIP3    H214617   6.178   2.283   0.142
 4871TIP3   OH214618   1.725   4.159   2.471
 4871TIP3    H114619   1.720   4.143   2.565
 4871TIP3    H214620   1.761   4.078   2.434
 4872TIP3   OH214621   2.820   1.472   2.416
 4872TIP3    H114622   2.889   1.507   2.473
 4872TIP3    H214623   2.747   1.454   2.476
 4873TIP3   OH214624   0.302   2.687   2.386
 4873TIP3    H114625   0.303   2.628   2.462
 4873TIP3    H214626   0.344   2.767   2.417
 4874TIP3   OH214627   0.704   5.838   2.630
 4874TIP3    H114628   0.685   5.915   2.684
 4874TIP3    H214629   0.634   5.838   2.564
 4875TIP3   OH214630   5.328   5.574   3.107
 4875TIP3    H114631   5.308   5.595   3.015
 4875TIP3    H214632   5.314   5.479   3.113
 4876TIP3   OH214633   1.601   2.112   3.153
 4876TIP3    H114634   1.672   2.135   3.212
 4876TIP3    H214635   1.599   2.183   3.089
 4877TIP3   OH214636   1.240   3.472   3.602
 4877TIP3    H114637   1.243   3.437   3.692
 4877TIP3    H214638   1.151   3.452   3.572
 4878TIP3   OH214639   1.067   4.521   3.510
 4878TIP3    H114640   1.065   4.617   3.514
 4878TIP3    H214641   1.150   4.498   3.551
 4879TIP3   OH214642   2.617   5.193   0.509
 4879TIP3    H114643   2.665   5.218   0.588
 4879TIP3    H214644   2.643   5.102   0.493
 4880TIP3   OH214645   5.380   3.381   1.092
 4880TIP3    H114646   5.448   3.414   1.033
 4880TIP3    H214647   5.399   3.423   1.176
 4881TIP3   OH214648   5.908   5.925   3.599
 4881TIP3    H114649   5.996   5.950   3.568
 4881TIP3    H214650   5.913   5.831   3.613
 4882TIP3   OH214651   1.302   3.346   1.927
 4882TIP3    H114652   1.358   3.289   1.875
 4882TIP3    H214653   1.359   3.416   1.957
 4883TIP3   OH214654   2.660   2.895   5.141
 4883TIP3    H114655   2.749   2.923   5.160
 4883TIP3    H214656   2.645   2.821   5.199
 4884TIP3   OH214657   2.230   1.436   2.832
 4884TIP3    H114658   2.254   1.500   2.899
 4884TIP3    H214659   2.297   1.446   2.764
 4885TIP3   OH214660   0.173   1.891   1.864
 4885TIP3    H114661   0.085   1.902   1.827
 4885TIP3    H214662   0.228   1.951   1.813
 4886TIP3   OH214663   0.449   0.600   3.433
 4886TIP3    H114664   0.459   0.695   3.427
 4886TIP3    H214665   0.464   0.580   3.525
 4887TIP3   OH214666   0.160   4.277   4.133
 4887TIP3    H114667   0.187   4.216   4.065
 4887TIP3    H214668   0.149   4.361   4.088
 4888TIP3   OH214669   2.778   3.697   3.544
 4888TIP3    H114670   2.811   3.688   3.454
 4888TIP3    H214671   2.783   3.608   3.580
 4889TIP3   OH214672   0.045   0.897   0.901
 4889TIP3    H114673   0.093   0.971   0.863
 4889TIP3    H214674   0.000   0.857   0.827
 4890TIP3   OH214675   5.798   3.293   3.684
 4890TIP3    H114676   5.790   3.197   3.688
 4890TIP3    H214677   5.890   3.309   3.665
 4891TIP3   OH214678   1.479   2.857   4.753
 4891TIP3    H114679   1.439   2.910   4.822
 4891TIP3    H214680   1.431   2.882   4.674
 4892TIP3   OH214681   2.099   4.446   2.255
 4892TIP3    H114682   2.066   4.395   2.330
 4892TIP3    H214683   2.085   4.537   2.281
 4893TIP3   OH214684  -0.002   1.495   0.769
 4893TIP3    H114685  -0.042   1.581   0.753
 4893TIP3    H214686   0.052   1.508   0.847
 4894TIP3   OH214687   4.813   1.321   3.619
 4894TIP3    H114688   4.728   1.323   3.664
 4894TIP3    H214689   4.875   1.355   3.683
 4895TIP3   OH214690   4.069   4.188   0.804
 4895TIP3    H114691   4.001   4.239   0.759
 4895TIP3    H214692   4.115   4.142   0.734
 4896TIP3   OH214693   2.456   2.668   1.100
 4896TIP3    H114694   2.495   2.690   1.185
 4896TIP3    H214695   2.524   2.689   1.036
 4897TIP3   OH214696   0.402   3.516   4.147
 4897TIP3    H114697   0.448   3.450   4.094
 4897TIP3    H214698   0.444   3.599   4.123
 4898TIP3   OH214699   0.005   3.987   1.810
 4898TIP3    H114700   0.068   4.038   1.760
 4898TIP3    H214701  -0.020   3.916   1.752
 4899TIP3   OH214702   4.184   3.392   3.503
 4899TIP3    H114703   4.169   3.391   3.408
 4899TIP3    H214704   4.149   3.476   3.532
 4900TIP3   OH214705   5.980   0.558   2.752
 4900TIP3    H114706   6.022   0.630   2.705
 4900TIP3    H214707   5.985   0.483   2.692
 4901TIP3   OH214708   5.483   2.343   3.652
 4901TIP3    H114709   5.541   2.420   3.658
 4901TIP3    H214710   5.464   2.321   3.743
 4902TIP3   OH214711   3.246   4.208   0.477
 4902TIP3    H114712   3.184   4.268   0.518
 4902TIP3    H214713   3.301   4.178   0.550
 4903TIP3   OH214714   2.720   0.326   4.205
 4903TIP3    H114715   2.785   0.395   4.192
 4903TIP3    H214716   2.636   0.372   4.206
 4904TIP3   OH214717   5.606   3.852   4.311
 4904TIP3    H114718   5.589   3.771   4.263
 4904TIP3    H214719   5.660   3.825   4.386
 4905TIP3   OH214720   0.491   2.353   3.722
 4905TIP3    H114721   0.569   2.308   3.754
 4905TIP3    H214722   0.514   2.446   3.723
 4906TIP3   OH214723   4.738   5.135   0.679
 4906TIP3    H114724   4.772   5.222   0.662
 4906TIP3    H214725   4.682   5.116   0.603
 4907TIP3   OH214726   3.498   0.873   3.065
 4907TIP3    H114727   3.497   0.969   3.068
 4907TIP3    H214728   3.425   0.847   3.120
 4908TIP3   OH214729   4.505   2.769   4.344
 4908TIP3    H114730   4.547   2.840   4.391
 4908TIP3    H214731   4.562   2.752   4.270
 4909TIP3   OH214732   4.643   1.354   5.096
 4909TIP3    H114733   4.586   1.366   5.020
 4909TIP3    H214734   4.615   1.271   5.134
 4910TIP3   OH214735   2.848   0.266   1.082
 4910TIP3    H114736   2.777   0.239   1.140
 4910TIP3    H214737   2.835   0.214   1.002
 4911TIP3   OH214738   3.447   3.629   0.091
 4911TIP3    H114739   3.396   3.710   0.092
 4911TIP3    H214740   3.381   3.560   0.087
 4912TIP3   OH214741   2.364   5.273   4.136
 4912TIP3    H114742   2.331   5.340   4.196
 4912TIP3    H214743   2.285   5.223   4.111
 4913TIP3   OH214744   6.273   2.695   0.236
 4913TIP3    H114745   6.179   2.704   0.250
 4913TIP3    H214746   6.304   2.784   0.225
 4914TIP3   OH214747   1.573   0.887   2.800
 4914TIP3    H114748   1.659   0.914   2.767
 4914TIP3    H214749   1.510   0.929   2.741
 4915TIP3   OH214750   0.511   2.686   1.618
 4915TIP3    H114751   0.430   2.664   1.664
 4915TIP3    H214752   0.558   2.744   1.678
 4916TIP3   OH214753   0.851   0.315   3.020
 4916TIP3    H114754   0.853   0.396   3.072
 4916TIP3    H214755   0.943   0.290   3.010
 4917TIP3   OH214756   3.169   3.840   3.717
 4917TIP3    H114757   3.118   3.921   3.711
 4917TIP3    H214758   3.152   3.808   3.805
 4918TIP3   OH214759   2.875   0.130   1.644
 4918TIP3    H114760   2.808   0.130   1.713
 4918TIP3    H214761   2.918   0.215   1.652
 4919TIP3   OH214762   3.232   0.673   1.153
 4919TIP3    H114763   3.166   0.613   1.188
 4919TIP3    H214764   3.293   0.616   1.106
 4920TIP3   OH214765   5.588   1.422   3.620
 4920TIP3    H114766   5.620   1.404   3.532
 4920TIP3    H214767   5.496   1.396   3.618
 4921TIP3   OH214768   1.792   2.242   1.074
 4921TIP3    H114769   1.811   2.260   1.167
 4921TIP3    H214770   1.771   2.328   1.037
 4922TIP3   OH214771   4.997   4.797   2.179
 4922TIP3    H114772   5.048   4.767   2.104
 4922TIP3    H214773   5.054   4.859   2.224
 4923TIP3   OH214774   3.317   4.571   3.583
 4923TIP3    H114775   3.266   4.509   3.633
 4923TIP3    H214776   3.357   4.519   3.513
 4924TIP3   OH214777   3.212   1.193   1.692
 4924TIP3    H114778   3.172   1.109   1.670
 4924TIP3    H214779   3.149   1.258   1.659
 4925TIP3   OH214780   4.272   3.891   2.690
 4925TIP3    H114781   4.266   3.813   2.746
 4925TIP3    H214782   4.190   3.892   2.641
 4926TIP3   OH214783   3.252   0.194   1.747
 4926TIP3    H114784   3.186   0.183   1.815
 4926TIP3    H214785   3.288   0.106   1.734
 4927TIP3   OH214786   2.172   4.378   0.213
 4927TIP3    H114787   2.170   4.284   0.196
 4927TIP3    H214788   2.137   4.417   0.133
 4928TIP3   OH214789   4.645   2.942   4.522
 4928TIP3    H114790   4.724   2.908   4.482
 4928TIP3    H214791   4.626   2.881   4.593
 4929TIP3   OH214792   5.354   1.695   1.337
 4929TIP3    H114793   5.305   1.776   1.320
 4929TIP3    H214794   5.388   1.670   1.251
 4930TIP3   OH214795   1.655   1.914   0.429
 4930TIP3    H114796   1.735   1.868   0.402
 4930TIP3    H214797   1.588   1.883   0.368
 4931TIP3   OH214798   0.824   2.614   0.153
 4931TIP3    H114799   0.752   2.659   0.197
 4931TIP3    H214800   0.900   2.630   0.210
 4932TIP3   OH214801   3.300   3.722   3.501
 4932TIP3    H114802   3.249   3.757   3.574
 4932TIP3    H214803   3.266   3.769   3.424
 4933TIP3   OH214804   0.368   4.486   4.621
 4933TIP3    H114805   0.377   4.457   4.531
 4933TIP3    H214806   0.280   4.458   4.647
 4934TIP3   OH214807   5.807   1.992   3.000
 4934TIP3    H114808   5.745   1.963   3.067
 4934TIP3    H214809   5.873   1.923   2.997
 4935TIP3   OH214810   5.458   5.393   0.842
 4935TIP3    H114811   5.415   5.394   0.757
 4935TIP3    H214812   5.391   5.422   0.904
 4936TIP3   OH214813   6.083   0.493   4.861
 4936TIP3    H114814   6.089   0.572   4.808
 4936TIP3    H214815   6.117   0.423   4.804
 4937TIP3   OH214816   1.393   3.164   3.660
 4937TIP3    H114817   1.364   3.240   3.711
 4937TIP3    H214818   1.346   3.172   3.577
 4938TIP3   OH214819   0.389   1.109   1.037
 4938TIP3    H114820   0.341   1.071   0.963
 4938TIP3    H214821   0.473   1.063   1.037
 4939TIP3   OH214822   4.847   1.979   0.675
 4939TIP3    H114823   4.854   2.033   0.753
 4939TIP3    H214824   4.777   2.020   0.623
 4940TIP3   OH214825   4.900   0.984   1.630
 4940TIP3    H114826   4.915   0.985   1.536
 4940TIP3    H214827   4.804   0.978   1.639
 4941TIP3   OH214828   4.909   0.671   4.718
 4941TIP3    H114829   4.860   0.725   4.656
 4941TIP3    H214830   4.878   0.582   4.703
 4942TIP3   OH214831   5.865   3.137   3.929
 4942TIP3    H114832   5.844   3.223   3.966
 4942TIP3    H214833   5.781   3.097   3.911
 4943TIP3   OH214834   4.826   4.061   0.948
 4943TIP3    H114835   4.759   4.020   1.002
 4943TIP3    H214836   4.907   4.052   0.999
 4944TIP3   OH214837   0.457   2.489   1.221
 4944TIP3    H114838   0.538   2.538   1.207
 4944TIP3    H214839   0.448   2.434   1.144
 4945TIP3   OH214840   2.577   1.072   5.126
 4945TIP3    H114841   2.616   1.006   5.069
 4945TIP3    H214842   2.612   1.155   5.095
 4946TIP3   OH214843   2.668   3.481   0.241
 4946TIP3    H114844   2.631   3.440   0.162
 4946TIP3    H214845   2.716   3.556   0.208
 4947TIP3   OH214846   1.836   2.054   3.940
 4947TIP3    H114847   1.783   2.050   4.019
 4947TIP3    H214848   1.807   2.133   3.896
 4948TIP3   OH214849   4.850   5.898   3.345
 4948TIP3    H114850   4.861   5.993   3.342
 4948TIP3    H214851   4.926   5.863   3.299
 4949TIP3   OH214852   5.806   5.465   2.408
 4949TIP3    H114853   5.772   5.453   2.319
 4949TIP3    H214854   5.895   5.430   2.404
 4950TIP3   OH214855   2.068   1.526   3.826
 4950TIP3    H114856   2.062   1.443   3.778
 4950TIP3    H214857   1.982   1.567   3.814
 4951TIP3   OH214858   2.834   5.235   0.725
 4951TIP3    H114859   2.783   5.304   0.767
 4951TIP3    H214860   2.851   5.172   0.795
 4952TIP3   OH214861   4.298   1.609   1.607
 4952TIP3    H114862   4.240   1.657   1.547
 4952TIP3    H214863   4.386   1.632   1.579
 4953TIP3   OH214864   3.530   1.914   3.485
 4953TIP3    H114865   3.496   1.939   3.571
 4953TIP3    H214866   3.506   1.822   3.475
 4954TIP3   OH214867   4.186   5.620   2.067
 4954TIP3    H114868   4.150   5.551   2.123
 4954TIP3    H214869   4.226   5.572   1.994
 4955TIP3   OH214870   4.200   0.972   3.628
 4955TIP3    H114871   4.242   1.057   3.639
 4955TIP3    H214872   4.119   0.991   3.580
 4956TIP3   OH214873   1.239   2.142   4.623
 4956TIP3    H114874   1.243   2.047   4.610
 4956TIP3    H214875   1.267   2.155   4.714
 4957TIP3   OH214876   0.076   0.431   3.536
 4957TIP3    H114877   0.171   0.426   3.545
 4957TIP3    H214878   0.046   0.469   3.618
 4958TIP3   OH214879   6.035   0.095   3.437
 4958TIP3    H114880   6.100   0.118   3.503
 4958TIP3    H214881   6.044   0.163   3.370
 4959TIP3   OH214882   4.716   5.756   4.454
 4959TIP3    H114883   4.805   5.735   4.483
 4959TIP3    H214884   4.710   5.715   4.367
 4960TIP3   OH214885   2.217   2.866   3.844
 4960TIP3    H114886   2.262   2.785   3.821
 4960TIP3    H214887   2.255   2.931   3.785
 4961TIP3   OH214888   1.393   3.109   1.541
 4961TIP3    H114889   1.446   3.130   1.465
 4961TIP3    H214890   1.313   3.070   1.505
 4962TIP3   OH214891   1.623   3.838   4.185
 4962TIP3    H114892   1.666   3.839   4.271
 4962TIP3    H214893   1.695   3.849   4.123
 4963TIP3   OH214894   2.511   1.802   2.450
 4963TIP3    H114895   2.557   1.884   2.433
 4963TIP3    H214896   2.557   1.737   2.397
 4964TIP3   OH214897   5.745   3.839   0.749
 4964TIP3    H114898   5.692   3.786   0.690
 4964TIP3    H214899   5.684   3.869   0.817
 4965TIP3   OH214900   2.754   3.851   4.338
 4965TIP3    H114901   2.773   3.759   4.357
 4965TIP3    H214902   2.782   3.863   4.247
 4966TIP3   OH214903   4.554   0.295   3.524
 4966TIP3    H114904   4.531   0.383   3.554
 4966TIP3    H214905   4.479   0.269   3.469
 4967TIP3   OH214906   5.777   0.621   0.020
 4967TIP3    H114907   5.766   0.705   0.066
 4967TIP3    H214908   5.817   0.645  -0.064
 4968TIP3   OH214909   0.640   2.566   2.048
 4968TIP3    H114910   0.680   2.551   1.962
 4968TIP3    H214911   0.557   2.610   2.027
 4969TIP3   OH214912   2.595   0.987   1.657
 4969TIP3    H114913   2.687   0.981   1.685
 4969TIP3    H214914   2.545   0.981   1.738
 4970TIP3   OH214915   3.233   3.067   2.245
 4970TIP3    H114916   3.315   3.020   2.260
 4970TIP3    H214917   3.251   3.156   2.277
 4971TIP3   OH214918   1.570   5.145   0.123
 4971TIP3    H114919   1.640   5.205   0.147
 4971TIP3    H214920   1.539   5.110   0.206
 4972TIP3   OH214921   0.087   4.211   2.949
 4972TIP3    H114922   0.048   4.253   3.026
 4972TIP3    H214923   0.082   4.278   2.881
 4973TIP3   OH214924   0.285   0.982   3.767
 4973TIP3    H114925   0.341   0.989   3.845
 4973TIP3    H214926   0.288   1.069   3.728
 4974TIP3   OH214927   5.720   2.056   0.237
 4974TIP3    H114928   5.757   1.986   0.183
 4974TIP3    H214929   5.709   2.130   0.176
 4975TIP3   OH214930   2.229   1.969   3.306
 4975TIP3    H114931   2.289   1.989   3.377
 4975TIP3    H214932   2.142   1.980   3.343
 4976TIP3   OH214933   5.366   5.363   2.481
 4976TIP3    H114934   5.323   5.360   2.395
 4976TIP3    H214935   5.389   5.455   2.493
 4977TIP3   OH214936   4.186   4.628   0.564
 4977TIP3    H114937   4.248   4.565   0.527
 4977TIP3    H214938   4.175   4.601   0.655
 4978TIP3   OH214939   3.958   1.709   2.697
 4978TIP3    H114940   3.875   1.665   2.676
 4978TIP3    H214941   4.011   1.641   2.738
 4979TIP3   OH214942   2.840   5.362   1.344
 4979TIP3    H114943   2.918   5.313   1.318
 4979TIP3    H214944   2.807   5.399   1.262
 4980TIP3   OH214945   4.254   2.842   4.315
 4980TIP3    H114946   4.267   2.932   4.287
 4980TIP3    H214947   4.341   2.802   4.311
 4981TIP3   OH214948   2.498   1.675   4.435
 4981TIP3    H114949   2.434   1.698   4.368
 4981TIP3    H214950   2.582   1.699   4.396
 4982TIP3   OH214951   3.669   1.139   4.699
 4982TIP3    H114952   3.640   1.211   4.754
 4982TIP3    H214953   3.761   1.127   4.721
 4983TIP3   OH214954   2.184   4.215   1.290
 4983TIP3    H114955   2.122   4.189   1.221
 4983TIP3    H214956   2.172   4.149   1.358
 4984TIP3   OH214957   0.373   1.551   2.612
 4984TIP3    H114958   0.436   1.494   2.569
 4984TIP3    H214959   0.287   1.519   2.582
 4985TIP3   OH214960   1.537   0.875   0.852
 4985TIP3    H114961   1.565   0.909   0.936
 4985TIP3    H214962   1.564   0.783   0.853
 4986TIP3   OH214963   5.799   0.570   1.599
 4986TIP3    H114964   5.849   0.495   1.631
 4986TIP3    H214965   5.709   0.540   1.594
 4987TIP3   OH214966   2.911   2.439   0.429
 4987TIP3    H114967   2.913   2.439   0.525
 4987TIP3    H214968   2.818   2.439   0.407
 4988TIP3   OH214969   4.159   2.738   3.663
 4988TIP3    H114970   4.207   2.770   3.739
 4988TIP3    H214971   4.067   2.745   3.688
 4989TIP3   OH214972   4.951   5.132   4.038
 4989TIP3    H114973   4.926   5.119   3.947
 4989TIP3    H214974   4.980   5.223   4.042
 4990TIP3   OH214975   0.385   2.547   0.806
 4990TIP3    H114976   0.479   2.562   0.820
 4990TIP3    H214977   0.343   2.627   0.838
 4991TIP3   OH214978   5.845   1.612   2.765
 4991TIP3    H114979   5.850   1.686   2.825
 4991TIP3    H214980   5.895   1.543   2.809
 4992TIP3   OH214981   5.649   1.009   4.975
 4992TIP3    H114982   5.721   1.070   4.994
 4992TIP3    H214983   5.657   0.941   5.042
 4993TIP3   OH214984   5.995   1.050   0.185
 4993TIP3    H114985   6.051   1.072   0.259
 4993TIP3    H214986   6.000   1.127   0.128
 4994TIP3   OH214987   2.009   0.044   0.395
 4994TIP3    H114988   2.063   0.081   0.326
 4994TIP3    H214989   1.928   0.019   0.350
 4995TIP3   OH214990   1.471   4.971   1.368
 4995TIP3    H114991   1.384   4.931   1.364
 4995TIP3    H214992   1.530   4.898   1.388
 4996TIP3   OH214993   5.979   5.003   3.713
 4996TIP3    H114994   6.055   4.945   3.706
 4996TIP3    H214995   5.986   5.041   3.800
 4997TIP3   OH214996   5.096   1.332   1.445
 4997TIP3    H114997   5.003   1.328   1.422
 4997TIP3    H214998   5.112   1.425   1.464
 4998TIP3   OH214999   2.200   0.153   0.218
 4998TIP3    H115000   2.282   0.194   0.246
 4998TIP3    H215001   2.169   0.208   0.146
 4999TIP3   OH215002   2.709   5.490   1.118
 4999TIP3    H115003   2.742   5.489   1.028
 4999TIP3    H215004   2.631   5.436   1.116
 5000TIP3   OH215005   1.111   0.060   4.480
 5000TIP3    H115006   1.064   0.070   4.563
 5000TIP3    H215007   1.124  -0.034   4.471
 5001TIP3   OH215008   1.031   2.541   4.265
 5001TIP3    H115009   0.942   2.576   4.265
 5001TIP3    H215010   1.060   2.549   4.356
 5002TIP3   OH215011   2.279   2.384   5.033
 5002TIP3    H115012   2.345   2.441   5.073
 5002TIP3    H215013   2.275   2.308   5.091
 5003TIP3   OH215014   3.515   1.522   3.829
 5003TIP3    H115015   3.462   1.493   3.903
 5003TIP3    H215016   3.560   1.443   3.798
 5004TIP3   OH215017   0.725   3.964   4.228
 5004TIP3    H115018   0.820   3.951   4.232
 5004TIP3    H215019   0.709   4.001   4.142
 5005TIP3   OH215020   0.046   5.339   1.304
 5005TIP3    H115021   0.028   5.290   1.384
 5005TIP3    H215022  -0.027   5.318   1.246
 5006TIP3   OH215023   0.347   1.004   0.556
 5006TIP3    H115024   0.442   1.009   0.570
 5006TIP3    H215025   0.324   0.915   0.584
 5007TIP3   OH215026   0.185   2.950   0.634
 5007TIP3    H115027   0.140   3.032   0.653
 5007TIP3    H215028   0.249   2.941   0.705
 5008TIP3   OH215029   1.907   2.039   4.702
 5008TIP3    H115030   1.932   2.112   4.759
 5008TIP3    H215031   1.960   2.051   4.623
 5009TIP3   OH215032   4.871   4.787   1.316
 5009TIP3    H115033   4.951   4.766   1.364
 5009TIP3    H215034   4.822   4.705   1.314
 5010TIP3   OH215035   5.817   4.351   4.288
 5010TIP3    H115036   5.911   4.355   4.307
 5010TIP3    H215037   5.810   4.366   4.194
 5011TIP3   OH215038   4.056   0.451   3.663
 5011TIP3    H115039   4.093   0.518   3.606
 5011TIP3    H215040   3.997   0.499   3.721
 5012TIP3   OH215041   2.637   4.715   5.055
 5012TIP3    H115042   2.544   4.733   5.040
 5012TIP3    H215043   2.646   4.621   5.035
 5013TIP3   OH215044   3.667   3.944   0.168
 5013TIP3    H115045   3.745   3.977   0.212
 5013TIP3    H215046   3.624   4.022   0.133
 5014TIP3   OH215047   3.903   3.551   4.610
 5014TIP3    H115048   3.908   3.611   4.536
 5014TIP3    H215049   3.811   3.552   4.636
 5015TIP3   OH215050   4.671   0.131   3.215
 5015TIP3    H115051   4.629   0.210   3.180
 5015TIP3    H215052   4.730   0.163   3.283
 5016TIP3   OH215053   6.048   0.284   2.054
 5016TIP3    H115054   6.086   0.226   2.119
 5016TIP3    H215055   6.121   0.308   1.997
 5017TIP3   OH215056   5.151   2.515   2.982
 5017TIP3    H115057   5.186   2.448   2.923
 5017TIP3    H215058   5.181   2.598   2.944
 5018TIP3   OH215059   0.556   5.211   0.850
 5018TIP3    H115060   0.527   5.163   0.772
 5018TIP3    H215061   0.582   5.143   0.912
 5019TIP3   OH215062   2.580   4.886   2.298
 5019TIP3    H115063   2.658   4.830   2.299
 5019TIP3    H215064   2.522   4.846   2.234
 5020TIP3   OH215065   2.986   4.579   1.375
 5020TIP3    H115066   2.996   4.581   1.280
 5020TIP3    H215067   3.060   4.630   1.408
 5021TIP3   OH215068   1.172   1.672   2.354
 5021TIP3    H115069   1.172   1.578   2.338
 5021TIP3    H215070   1.155   1.680   2.448
 5022TIP3   OH215071   5.771   0.123   0.192
 5022TIP3    H115072   5.806   0.209   0.169
 5022TIP3    H215073   5.848   0.072   0.217
 5023TIP3   OH215074   5.065   3.241   1.617
 5023TIP3    H115075   4.975   3.247   1.585
 5023TIP3    H215076   5.105   3.325   1.593
 5024TIP3   OH215077   3.689   1.735   0.149
 5024TIP3    H115078   3.683   1.789   0.070
 5024TIP3    H215079   3.766   1.681   0.135
 5025TIP3   OH215080   4.315   4.391   1.512
 5025TIP3    H115081   4.274   4.358   1.592
 5025TIP3    H215082   4.408   4.372   1.523
 5026TIP3   OH215083   0.674   0.743   1.680
 5026TIP3    H115084   0.680   0.737   1.585
 5026TIP3    H215085   0.740   0.681   1.712
 5027TIP3   OH215086   5.823   0.989   4.753
 5027TIP3    H115087   5.755   1.002   4.687
 5027TIP3    H215088   5.775   0.972   4.834
 5028TIP3   OH215089   0.566   2.605   3.661
 5028TIP3    H115090   0.644   2.656   3.683
 5028TIP3    H215091   0.493   2.661   3.688
 5029TIP3   OH215092   0.127   1.623   3.154
 5029TIP3    H115093   0.172   1.695   3.197
 5029TIP3    H215094   0.144   1.636   3.061
 5030TIP3   OH215095   5.053   1.683   0.063
 5030TIP3    H115096   5.027   1.606   0.114
 5030TIP3    H215097   4.986   1.691  -0.004
 5031TIP3   OH215098   3.198   5.053   4.152
 5031TIP3    H115099   3.216   5.050   4.058
 5031TIP3    H215100   3.110   5.089   4.158
 5032TIP3   OH215101   6.078   4.759   2.947
 5032TIP3    H115102   6.173   4.747   2.954
 5032TIP3    H215103   6.043   4.671   2.931
 5033TIP3   OH215104   0.607   1.363   2.494
 5033TIP3    H115105   0.685   1.410   2.523
 5033TIP3    H215106   0.612   1.366   2.398
 5034TIP3   OH215107   0.115   0.465   2.824
 5034TIP3    H115108   0.054   0.396   2.850
 5034TIP3    H215109   0.083   0.495   2.739
 5035TIP3   OH215110   2.101   4.992   3.496
 5035TIP3    H115111   2.152   5.017   3.418
 5035TIP3    H215112   2.163   5.000   3.568
 5036TIP3   OH215113   6.017   3.773   1.957
 5036TIP3    H115114   5.986   3.834   1.890
 5036TIP3    H215115   5.949   3.776   2.025
 5037TIP3   OH215116   0.224   4.072   3.422
 5037TIP3    H115117   0.276   4.029   3.354
 5037TIP3    H215118   0.267   4.048   3.504
 5038TIP3   OH215119   4.110   5.694   2.537
 5038TIP3    H115120   4.065   5.616   2.504
 5038TIP3    H215121   4.040   5.758   2.551
 5039TIP3   OH215122   3.739   2.309   1.660
 5039TIP3    H115123   3.702   2.397   1.654
 5039TIP3    H215124   3.794   2.302   1.582
 5040TIP3   OH215125   5.904   3.284   4.218
 5040TIP3    H115126   5.835   3.219   4.231
 5040TIP3    H215127   5.875   3.335   4.143
 5041TIP3   OH215128   2.425   3.338   0.078
 5041TIP3    H115129   2.497   3.277   0.058
 5041TIP3    H215130   2.425   3.399   0.004
 5042TIP3   OH215131   1.698   4.596   2.084
 5042TIP3    H115132   1.698   4.681   2.128
 5042TIP3    H215133   1.715   4.533   2.154
 5043TIP3   OH215134   3.622   4.610   2.949
 5043TIP3    H115135   3.544   4.581   2.903
 5043TIP3    H215136   3.589   4.659   3.025
 5044TIP3   OH215137   3.894   5.320   4.591
 5044TIP3    H115138   3.810   5.363   4.607
 5044TIP3    H215139   3.890   5.293   4.500
 5045TIP3   OH215140   3.299   0.943   2.034
 5045TIP3    H115141   3.244   0.949   2.112
 5045TIP3    H215142   3.309   1.034   2.005
 5046TIP3   OH215143   2.212   0.460   4.013
 5046TIP3    H115144   2.283   0.414   3.968
 5046TIP3    H215145   2.170   0.513   3.946
 5047TIP3   OH215146   6.282   2.719   2.546
 5047TIP3    H115147   6.323   2.795   2.503
 5047TIP3    H215148   6.302   2.731   2.639
 5048TIP3   OH215149   1.491   5.158   3.779
 5048TIP3    H115150   1.508   5.076   3.733
 5048TIP3    H215151   1.398   5.175   3.765
 5049TIP3   OH215152   4.203   5.755   1.569
 5049TIP3    H115153   4.204   5.719   1.481
 5049TIP3    H215154   4.133   5.706   1.614
 5050TIP3   OH215155   2.806   1.482   2.041
 5050TIP3    H115156   2.710   1.471   2.044
 5050TIP3    H215157   2.840   1.406   2.088
 5051TIP3   OH215158   4.000   5.236   2.232
 5051TIP3    H115159   4.067   5.180   2.270
 5051TIP3    H215160   3.917   5.195   2.258
 5052TIP3   OH215161   4.110   4.919   1.419
 5052TIP3    H115162   4.069   4.832   1.412
 5052TIP3    H215163   4.155   4.931   1.336
 5053TIP3   OH215164   3.865   5.142   0.208
 5053TIP3    H115165   3.944   5.130   0.261
 5053TIP3    H215166   3.843   5.235   0.220
 5054TIP3   OH215167   6.227   3.156   1.797
 5054TIP3    H115168   6.251   3.165   1.889
 5054TIP3    H215169   6.181   3.072   1.792
 5055TIP3   OH215170   4.869   5.911   2.384
 5055TIP3    H115171   4.884   5.838   2.324
 5055TIP3    H215172   4.833   5.981   2.328
 5056TIP3   OH215173   1.135   5.788   0.277
 5056TIP3    H115174   1.141   5.709   0.331
 5056TIP3    H215175   1.221   5.830   0.285
 5057TIP3   OH215176   3.090   2.107   3.235
 5057TIP3    H115177   3.131   2.068   3.312
 5057TIP3    H215178   2.996   2.095   3.249
 5058TIP3   OH215179   5.809   0.411   2.028
 5058TIP3    H115180   5.778   0.393   1.939
 5058TIP3    H215181   5.902   0.389   2.026
 5059TIP3   OH215182   5.149   2.570   0.107
 5059TIP3    H115183   5.103   2.608   0.032
 5059TIP3    H215184   5.095   2.495   0.133
 5060TIP3   OH215185   4.488   3.639   0.134
 5060TIP3    H115186   4.443   3.712   0.177
 5060TIP3    H215187   4.419   3.577   0.115
 5061TIP3   OH215188   4.860   0.149   4.351
 5061TIP3    H115189   4.884   0.161   4.443
 5061TIP3    H215190   4.922   0.084   4.318
 5062TIP3   OH215191   1.482   4.503   0.008
 5062TIP3    H115192   1.403   4.448   0.009
 5062TIP3    H215193   1.548   4.450   0.052
 5063TIP3   OH215194   1.771   3.953   4.710
 5063TIP3    H115195   1.699   4.009   4.739
 5063TIP3    H215196   1.848   4.009   4.715
 5064TIP3   OH215197   0.035   2.479   2.471
 5064TIP3    H115198   0.017   2.571   2.494
 5064TIP3    H215199   0.126   2.480   2.442
 5065TIP3   OH215200   3.805   4.413   2.845
 5065TIP3    H115201   3.727   4.466   2.864
 5065TIP3    H215202   3.857   4.416   2.925
 5066TIP3   OH215203   4.593   0.253   2.352
 5066TIP3    H115204   4.519   0.313   2.353
 5066TIP3    H215205   4.624   0.251   2.443
 5067TIP3   OH215206   4.943   0.467   3.483
 5067TIP3    H115207   4.969   0.554   3.516
 5067TIP3    H215208   5.018   0.438   3.432
 5068TIP3   OH215209   0.185   1.207   2.594
 5068TIP3    H115210   0.150   1.135   2.541
 5068TIP3    H215211   0.113   1.231   2.652
 5069TIP3   OH215212   3.900   2.850   2.202
 5069TIP3    H115213   3.936   2.762   2.212
 5069TIP3    H215214   3.959   2.906   2.253
 5070TIP3   OH215215   2.164   4.424   3.035
 5070TIP3    H115216   2.257   4.448   3.038
 5070TIP3    H215217   2.142   4.403   3.125
 5071TIP3   OH215218   3.522   2.711   4.138
 5071TIP3    H115219   3.506   2.776   4.206
 5071TIP3    H215220   3.614   2.686   4.150
 5072TIP3   OH215221   5.805   4.078   2.284
 5072TIP3    H115222   5.799   4.173   2.293
 5072TIP3    H215223   5.718   4.050   2.259
 5073TIP3   OH215224   5.295   4.119   4.123
 5073TIP3    H115225   5.253   4.033   4.127
 5073TIP3    H215226   5.374   4.110   4.176
 5074TIP3   OH215227   6.062   1.512   3.373
 5074TIP3    H115228   6.069   1.419   3.393
 5074TIP3    H215229   6.006   1.547   3.443
 5075TIP3   OH215230   6.107   1.021   4.003
 5075TIP3    H115231   6.171   1.063   3.945
 5075TIP3    H215232   6.024   1.025   3.955
 5076TIP3   OH215233   3.460   1.423   2.526
 5076TIP3    H115234   3.517   1.361   2.482
 5076TIP3    H215235   3.489   1.509   2.495
 5077TIP3   OH215236   1.230   3.135   3.437
 5077TIP3    H115237   1.172   3.062   3.462
 5077TIP3    H215238   1.174   3.213   3.444
 5078TIP3   OH215239   0.585   1.400   2.214
 5078TIP3    H115240   0.624   1.332   2.159
 5078TIP3    H215241   0.507   1.428   2.166
 5079TIP3   OH215242   0.142   5.136   1.828
 5079TIP3    H115243   0.158   5.136   1.922
 5079TIP3    H215244   0.064   5.081   1.817
 5080TIP3   OH215245   6.016   0.819   0.708
 5080TIP3    H115246   6.012   0.762   0.785
 5080TIP3    H215247   6.048   0.903   0.742
 5081TIP3   OH215248   4.291   5.234   3.239
 5081TIP3    H115249   4.313   5.311   3.187
 5081TIP3    H215250   4.206   5.206   3.205
 5082TIP3   OH215251   3.960   4.322   4.893
 5082TIP3    H115252   3.867   4.315   4.869
 5082TIP3    H215253   4.003   4.348   4.812
 5083TIP3   OH215254   4.879   1.276   4.971
 5083TIP3    H115255   4.807   1.321   5.016
 5083TIP3    H215256   4.955   1.333   4.985
 5084TIP3   OH215257   1.203   5.701   4.990
 5084TIP3    H115258   1.294   5.692   4.962
 5084TIP3    H215259   1.171   5.777   4.940
 5085TIP3   OH215260   4.719   1.374   3.190
 5085TIP3    H115261   4.657   1.312   3.152
 5085TIP3    H215262   4.725   1.445   3.126
 5086TIP3   OH215263   6.106   5.102   1.406
 5086TIP3    H115264   6.130   5.014   1.376
 5086TIP3    H215265   6.110   5.155   1.326
 5087TIP3   OH215266   3.058   1.563   1.297
 5087TIP3    H115267   3.049   1.604   1.383
 5087TIP3    H215268   3.101   1.480   1.314
 5088TIP3   OH215269   3.793   1.180   1.309
 5088TIP3    H115270   3.800   1.163   1.215
 5088TIP3    H215271   3.721   1.123   1.339
 5089TIP3   OH215272   3.479   2.398   0.229
 5089TIP3    H115273   3.427   2.328   0.190
 5089TIP3    H215274   3.478   2.469   0.164
 5090TIP3   OH215275   2.320   4.211   0.521
 5090TIP3    H115276   2.226   4.193   0.529
 5090TIP3    H215277   2.350   4.220   0.611
 5091TIP3   OH215278   4.540   1.715   2.615
 5091TIP3    H115279   4.453   1.752   2.631
 5091TIP3    H215280   4.601   1.780   2.648
 5092TIP3   OH215281   4.965   5.945   4.567
 5092TIP3    H115282   4.998   5.956   4.656
 5092TIP3    H215283   4.973   5.851   4.550
 5093TIP3   OH215284   3.361   4.864   3.616
 5093TIP3    H115285   3.323   4.776   3.608
 5093TIP3    H215286   3.308   4.907   3.683
 5094TIP3   OH215287   1.382   3.961   1.104
 5094TIP3    H115288   1.294   3.929   1.086
 5094TIP3    H215289   1.369   4.047   1.144
 5095TIP3   OH215290   1.547   3.277   3.387
 5095TIP3    H115291   1.486   3.255   3.316
 5095TIP3    H215292   1.524   3.367   3.411
 5096TIP3   OH215293   4.411   2.126   2.274
 5096TIP3    H115294   4.494   2.164   2.245
 5096TIP3    H215295   4.399   2.160   2.363
 5097TIP3   OH215296   2.611   1.418   2.594
 5097TIP3    H115297   2.632   1.402   2.686
 5097TIP3    H215298   2.534   1.475   2.596
 5098TIP3   OH215299   0.587   0.617   1.059
 5098TIP3    H115300   0.660   0.565   1.094
 5098TIP3    H215301   0.629   0.682   1.003
 5099TIP3   OH215302   3.746   5.873   1.551
 5099TIP3    H115303   3.792   5.804   1.504
 5099TIP3    H215304   3.677   5.902   1.492
 5100TIP3   OH215305   0.757   5.095   2.084
 5100TIP3    H115306   0.826   5.051   2.036
 5100TIP3    H215307   0.798   5.121   2.166
 5101TIP3   OH215308   6.244   5.701   1.134
 5101TIP3    H115309   6.216   5.685   1.044
 5101TIP3    H215310   6.251   5.797   1.140
 5102TIP3   OH215311   2.779   1.804   3.082
 5102TIP3    H115312   2.801   1.880   3.136
 5102TIP3    H215313   2.842   1.806   3.010
 5103TIP3   OH215314   5.565   5.265   2.953
 5103TIP3    H115315   5.593   5.356   2.952
 5103TIP3    H215316   5.473   5.268   2.978
 5104TIP3   OH215317   5.247   3.560   4.940
 5104TIP3    H115318   5.229   3.605   5.022
 5104TIP3    H215319   5.342   3.565   4.929
 5105TIP3   OH215320   1.042   3.279   0.094
 5105TIP3    H115321   1.007   3.354   0.142
 5105TIP3    H215322   1.126   3.309   0.061
 5106TIP3   OH215323   2.545   1.651   0.412
 5106TIP3    H115324   2.535   1.568   0.366
 5106TIP3    H215325   2.633   1.647   0.450
 5107TIP3   OH215326   3.557   4.607   4.306
 5107TIP3    H115327   3.583   4.673   4.370
 5107TIP3    H215328   3.463   4.621   4.294
 5108TIP3   OH215329   5.145   4.845   3.869
 5108TIP3    H115330   5.128   4.768   3.816
 5108TIP3    H215331   5.092   4.915   3.831
 5109TIP3   OH215332   2.450   4.964   0.952
 5109TIP3    H115333   2.526   4.906   0.965
 5109TIP3    H215334   2.412   4.934   0.869
 5110TIP3   OH215335   0.483   3.602   2.771
 5110TIP3    H115336   0.406   3.644   2.733
 5110TIP3    H215337   0.549   3.671   2.774
 5111TIP3   OH215338   2.189   5.527   0.485
 5111TIP3    H115339   2.216   5.446   0.441
 5111TIP3    H215340   2.221   5.518   0.574
 5112TIP3   OH215341   3.146   0.083   2.634
 5112TIP3    H115342   3.079   0.133   2.682
 5112TIP3    H215343   3.225   0.093   2.686
 5113TIP3   OH215344   0.312   2.609   1.812
 5113TIP3    H115345   0.277   2.520   1.808
 5113TIP3    H215346   0.295   2.637   1.902
 5114TIP3   OH215347   1.079   1.101   4.396
 5114TIP3    H115348   1.023   1.174   4.371
 5114TIP3    H215349   1.106   1.062   4.313
 5115TIP3   OH215350   1.705   0.975   4.209
 5115TIP3    H115351   1.690   0.905   4.272
 5115TIP3    H215352   1.707   1.055   4.262
 5116TIP3   OH215353   5.519   1.197   4.301
 5116TIP3    H115354   5.476   1.245   4.230
 5116TIP3    H215355   5.576   1.262   4.343
 5117TIP3   OH215356   6.146   3.506   0.492
 5117TIP3    H115357   6.202   3.491   0.568
 5117TIP3    H215358   6.204   3.543   0.426
 5118TIP3   OH215359   4.182   5.953   1.125
 5118TIP3    H115360   4.259   5.901   1.149
 5118TIP3    H215361   4.206   5.994   1.041
 5119TIP3   OH215362   6.147   1.274   2.563
 5119TIP3    H115363   6.206   1.244   2.633
 5119TIP3    H215364   6.145   1.369   2.573
 5120TIP3   OH215365   2.358   5.231   4.676
 5120TIP3    H115366   2.307   5.173   4.733
 5120TIP3    H215367   2.312   5.315   4.678
 5121TIP3   OH215368   6.295   3.935   2.863
 5121TIP3    H115369   6.358   4.007   2.863
 5121TIP3    H215370   6.225   3.964   2.804
 5122TIP3   OH215371   5.219   5.009   5.072
 5122TIP3    H115372   5.143   5.018   5.128
 5122TIP3    H215373   5.246   4.917   5.082
 5123TIP3   OH215374   3.407   5.751   2.516
 5123TIP3    H115375   3.391   5.806   2.440
 5123TIP3    H215376   3.364   5.668   2.495
 5124TIP3   OH215377   5.000   3.701   2.298
 5124TIP3    H115378   4.967   3.690   2.387
 5124TIP3    H215379   5.053   3.622   2.282
 5125TIP3   OH215380   1.897   5.579   1.290
 5125TIP3    H115381   1.972   5.555   1.344
 5125TIP3    H215382   1.913   5.671   1.268
 5126TIP3   OH215383   0.765   3.305   3.602
 5126TIP3    H115384   0.736   3.253   3.677
 5126TIP3    H215385   0.684   3.328   3.556
 5127TIP3   OH215386   2.391   5.824   3.908
 5127TIP3    H115387   2.305   5.865   3.896
 5127TIP3    H215388   2.378   5.762   3.979
 5128TIP3   OH215389   0.171   5.376   4.969
 5128TIP3    H115390   0.137   5.449   5.020
 5128TIP3    H215391   0.264   5.374   4.991
 5129TIP3   OH215392   1.108   0.499   0.492
 5129TIP3    H115393   1.125   0.547   0.410
 5129TIP3    H215394   1.067   0.563   0.550
 5130TIP3   OH215395   5.550   3.610   4.964
 5130TIP3    H115396   5.559   3.582   5.055
 5130TIP3    H215397   5.604   3.549   4.914
 5131TIP3   OH215398   3.091   2.730   2.128
 5131TIP3    H115399   3.120   2.652   2.175
 5131TIP3    H215400   3.154   2.740   2.056
 5132TIP3   OH215401   4.111   5.062   0.313
 5132TIP3    H115402   4.120   4.973   0.345
 5132TIP3    H215403   4.176   5.113   0.361
 5133TIP3   OH215404   1.884   1.825   2.897
 5133TIP3    H115405   1.847   1.897   2.846
 5133TIP3    H215406   1.953   1.789   2.841
 5134TIP3   OH215407   5.341   4.715   1.174
 5134TIP3    H115408   5.321   4.670   1.256
 5134TIP3    H215409   5.360   4.805   1.201
 5135TIP3   OH215410   0.576   0.661   2.462
 5135TIP3    H115411   0.612   0.607   2.532
 5135TIP3    H215412   0.639   0.652   2.390
 5136TIP3   OH215413   3.142   1.333   0.689
 5136TIP3    H115414   3.059   1.365   0.653
 5136TIP3    H215415   3.187   1.412   0.720
 5137TIP3   OH215416   5.368   4.720   4.744
 5137TIP3    H115417   5.287   4.671   4.729
 5137TIP3    H215418   5.432   4.681   4.686
 5138TIP3   OH215419   0.268   0.467   0.670
 5138TIP3    H115420   0.347   0.460   0.618
 5138TIP3    H215421   0.251   0.379   0.702
 5139TIP3   OH215422   1.522   0.711   2.494
 5139TIP3    H115423   1.484   0.790   2.534
 5139TIP3    H215424   1.616   0.723   2.502
 5140TIP3   OH215425   1.693   1.130   0.492
 5140TIP3    H115426   1.648   1.063   0.440
 5140TIP3    H215427   1.754   1.080   0.547
 5141TIP3   OH215428   3.872   2.962   0.848
 5141TIP3    H115429   3.864   2.921   0.762
 5141TIP3    H215430   3.964   2.985   0.855
 5142TIP3   OH215431   2.809   1.773   2.653
 5142TIP3    H115432   2.714   1.763   2.639
 5142TIP3    H215433   2.847   1.694   2.614
 5143TIP3   OH215434   6.204   1.751   4.733
 5143TIP3    H115435   6.238   1.662   4.726
 5143TIP3    H215436   6.141   1.747   4.806
 5144TIP3   OH215437   3.464   2.094   0.310
 5144TIP3    H115438   3.502   2.159   0.250
 5144TIP3    H215439   3.421   2.146   0.377
 5145TIP3   OH215440   3.502   2.517   1.826
 5145TIP3    H115441   3.578   2.547   1.876
 5145TIP3    H215442   3.467   2.443   1.876
 5146TIP3   OH215443   4.800   1.476   4.345
 5146TIP3    H115444   4.895   1.470   4.333
 5146TIP3    H215445   4.765   1.484   4.256
 5147TIP3   OH215446   0.706   4.080   1.876
 5147TIP3    H115447   0.631   4.126   1.839
 5147TIP3    H215448   0.779   4.140   1.865
 5148TIP3   OH215449   2.114   2.072   4.529
 5148TIP3    H115450   2.164   2.143   4.488
 5148TIP3    H215451   2.179   2.005   4.549
 5149TIP3   OH215452   1.655   4.479   0.644
 5149TIP3    H115453   1.568   4.520   0.639
 5149TIP3    H215454   1.703   4.533   0.707
 5150TIP3   OH215455   0.282   2.600   0.228
 5150TIP3    H115456   0.205   2.554   0.194
 5150TIP3    H215457   0.252   2.637   0.311
 5151TIP3   OH215458   4.014   5.647   1.733
 5151TIP3    H115459   3.947   5.705   1.769
 5151TIP3    H215460   4.031   5.583   1.802
 5152TIP3   OH215461   3.245   3.009   4.531
 5152TIP3    H115462   3.154   2.994   4.558
 5152TIP3    H215463   3.296   2.952   4.589
 5153TIP3   OH215464   4.302   2.282   2.789
 5153TIP3    H115465   4.338   2.213   2.844
 5153TIP3    H215466   4.214   2.297   2.822
 5154TIP3   OH215467   1.549   2.247   1.440
 5154TIP3    H115468   1.499   2.204   1.510
 5154TIP3    H215469   1.639   2.247   1.471
 5155TIP3   OH215470   3.963   4.231   4.362
 5155TIP3    H115471   4.036   4.279   4.323
 5155TIP3    H215472   3.888   4.291   4.354
 5156TIP3   OH215473   1.867   2.641   1.300
 5156TIP3    H115474   1.892   2.716   1.246
 5156TIP3    H215475   1.786   2.610   1.260
 5157TIP3   OH215476   4.008   0.214   1.406
 5157TIP3    H115477   4.022   0.212   1.311
 5157TIP3    H215478   4.093   0.187   1.443
 5158TIP3   OH215479   1.610   0.669   1.213
 5158TIP3    H115480   1.601   0.738   1.278
 5158TIP3    H215481   1.606   0.588   1.263
 5159TIP3   OH215482   0.740   5.269   2.857
 5159TIP3    H115483   0.709   5.198   2.801
 5159TIP3    H215484   0.670   5.334   2.854
 5160TIP3   OH215485   6.193   3.544   4.049
 5160TIP3    H115486   6.192   3.627   4.000
 5160TIP3    H215487   6.283   3.513   4.042
 5161TIP3   OH215488  -0.006   2.179   1.707
 5161TIP3    H115489   0.038   2.099   1.676
 5161TIP3    H215490   0.037   2.250   1.660
 5162TIP3   OH215491   1.686   0.768   3.512
 5162TIP3    H115492   1.761   0.736   3.463
 5162TIP3    H215493   1.723   0.821   3.583
 5163TIP3   OH215494   0.774   4.893   3.019
 5163TIP3    H115495   0.709   4.823   3.014
 5163TIP3    H215496   0.723   4.971   3.042
 5164TIP3   OH215497   3.088   2.680   3.933
 5164TIP3    H115498   3.136   2.651   4.011
 5164TIP3    H215499   3.008   2.627   3.935
 5165TIP3   OH215500   4.278   1.374   0.691
 5165TIP3    H115501   4.221   1.314   0.642
 5165TIP3    H215502   4.360   1.375   0.642
 5166TIP3   OH215503   5.659   2.596   1.719
 5166TIP3    H115504   5.579   2.549   1.740
 5166TIP3    H215505   5.684   2.563   1.633
 5167TIP3   OH215506   3.048   5.366   2.332
 5167TIP3    H115507   3.034   5.281   2.373
 5167TIP3    H215508   2.972   5.418   2.358
 5168TIP3   OH215509   0.346   5.876   1.950
 5168TIP3    H115510   0.325   5.922   2.031
 5168TIP3    H215511   0.430   5.911   1.923
 5169TIP3   OH215512   3.363   4.459   2.828
 5169TIP3    H115513   3.314   4.388   2.788
 5169TIP3    H215514   3.382   4.519   2.755
 5170TIP3   OH215515   4.408   5.252   1.994
 5170TIP3    H115516   4.371   5.180   1.942
 5170TIP3    H215517   4.436   5.316   1.929
 5171TIP3   OH215518   3.560   1.132   1.659
 5171TIP3    H115519   3.517   1.167   1.581
 5171TIP3    H215520   3.520   1.046   1.672
 5172TIP3   OH215521   6.263   5.502   2.689
 5172TIP3    H115522   6.350   5.508   2.649
 5172TIP3    H215523   6.280   5.488   2.782
 5173TIP3   OH215524   0.170   4.042   0.807
 5173TIP3    H115525   0.175   3.947   0.806
 5173TIP3    H215526   0.224   4.068   0.881
 5174TIP3   OH215527   0.543   4.728   0.622
 5174TIP3    H115528   0.620   4.780   0.644
 5174TIP3    H215529   0.576   4.662   0.562
 5175TIP3   OH215530   3.734   0.118   1.349
 5175TIP3    H115531   3.818   0.159   1.371
 5175TIP3    H215532   3.673   0.191   1.339
 5176TIP3   OH215533   2.976   4.532   0.826
 5176TIP3    H115534   2.984   4.625   0.805
 5176TIP3    H215535   2.905   4.527   0.891
 5177TIP3   OH215536   5.227   0.245   0.130
 5177TIP3    H115537   5.238   0.329   0.174
 5177TIP3    H215538   5.258   0.181   0.194
 5178TIP3   OH215539   0.962   3.047   2.977
 5178TIP3    H115540   1.012   3.001   3.044
 5178TIP3    H215541   0.972   2.992   2.899
 5179TIP3   OH215542   2.492   5.881   0.567
 5179TIP3    H115543   2.528   5.792   0.557
 5179TIP3    H215544   2.569   5.938   0.566
 5180TIP3   OH215545   4.522   4.427   3.896
 5180TIP3    H115546   4.484   4.496   3.841
 5180TIP3    H215547   4.451   4.404   3.956
 5181TIP3   OH215548   1.701   4.844   3.866
 5181TIP3    H115549   1.768   4.905   3.836
 5181TIP3    H215550   1.626   4.860   3.808
 5182TIP3   OH215551   1.892   2.647   0.210
 5182TIP3    H115552   1.854   2.735   0.215
 5182TIP3    H215553   1.819   2.591   0.183
 5183TIP3   OH215554   2.042   5.732   0.594
 5183TIP3    H115555   1.969   5.773   0.547
 5183TIP3    H215556   2.102   5.704   0.524
 5184TIP3   OH215557   5.134   1.381  -0.002
 5184TIP3    H115558   5.127   1.426   0.083
 5184TIP3    H215559   5.045   1.353  -0.022
 5185TIP3   OH215560   0.792   4.194   1.038
 5185TIP3    H115561   0.725   4.144   0.993
 5185TIP3    H215562   0.823   4.257   0.973
 5186TIP3   OH215563   5.619   5.153   4.548
 5186TIP3    H115564   5.562   5.122   4.619
 5186TIP3    H215565   5.700   5.179   4.592
 5187TIP3   OH215566   5.595   3.013   0.981
 5187TIP3    H115567   5.625   2.926   0.955
 5187TIP3    H215568   5.520   2.997   1.037
 5188TIP3   OH215569   2.633   1.229   3.649
 5188TIP3    H115570   2.652   1.250   3.558
 5188TIP3    H215571   2.557   1.171   3.645
 5189TIP3   OH215572   5.265   5.080   2.509
 5189TIP3    H115573   5.236   5.063   2.599
 5189TIP3    H215574   5.283   5.174   2.507
 5190TIP3   OH215575   3.086   2.193   0.752
 5190TIP3    H115576   3.000   2.227   0.777
 5190TIP3    H215577   3.090   2.205   0.657
 5191TIP3   OH215578   1.840   2.627   0.889
 5191TIP3    H115579   1.777   2.555   0.895
 5191TIP3    H215580   1.787   2.702   0.862
 5192TIP3   OH215581   3.178   0.508   2.348
 5192TIP3    H115582   3.147   0.594   2.316
 5192TIP3    H215583   3.129   0.494   2.429
 5193TIP3   OH215584   0.220   1.280   3.571
 5193TIP3    H115585   0.195   1.320   3.488
 5193TIP3    H215586   0.305   1.320   3.592
 5194TIP3   OH215587   5.150   0.690   4.263
 5194TIP3    H115588   5.144   0.629   4.189
 5194TIP3    H215589   5.105   0.646   4.334
 5195TIP3   OH215590   3.546   2.262   3.751
 5195TIP3    H115591   3.474   2.319   3.724
 5195TIP3    H215592   3.558   2.281   3.844
 5196TIP3   OH215593   5.324   1.519   2.994
 5196TIP3    H115594   5.259   1.459   2.957
 5196TIP3    H215595   5.398   1.463   3.018
 5197TIP3   OH215596   1.691   0.856   0.635
 5197TIP3    H115597   1.654   0.877   0.720
 5197TIP3    H215598   1.666   0.765   0.620
 5198TIP3   OH215599   0.435   5.042   2.635
 5198TIP3    H115600   0.459   5.130   2.665
 5198TIP3    H215601   0.501   4.985   2.675
 5199TIP3   OH215602   3.049   4.306   3.561
 5199TIP3    H115603   2.967   4.311   3.512
 5199TIP3    H215604   3.115   4.346   3.503
 5200TIP3   OH215605   5.613   4.054   1.924
 5200TIP3    H115606   5.547   4.112   1.962
 5200TIP3    H215607   5.627   3.986   1.990
 5201TIP3   OH215608   4.406   0.629   2.784
 5201TIP3    H115609   4.438   0.710   2.824
 5201TIP3    H215610   4.311   0.641   2.776
 5202TIP3   OH215611   2.456   0.700   1.778
 5202TIP3    H115612   2.444   0.780   1.829
 5202TIP3    H215613   2.536   0.661   1.813
 5203TIP3   OH215614   2.966   5.475   4.899
 5203TIP3    H115615   2.874   5.491   4.918
 5203TIP3    H215616   2.965   5.419   4.821
 5204TIP3   OH215617   0.919   2.662   5.121
 5204TIP3    H115618   0.876   2.605   5.057
 5204TIP3    H215619   0.851   2.682   5.185
 5205TIP3   OH215620   2.815   3.373   1.817
 5205TIP3    H115621   2.891   3.390   1.873
 5205TIP3    H215622   2.826   3.434   1.743
 5206TIP3   OH215623   2.815   0.422   3.043
 5206TIP3    H115624   2.780   0.436   2.955
 5206TIP3    H215625   2.740   0.397   3.096
 5207TIP3   OH215626   2.172   0.120   2.302
 5207TIP3    H115627   2.135   0.113   2.213
 5207TIP3    H215628   2.217   0.204   2.302
 5208TIP3   OH215629   5.609   5.669   2.500
 5208TIP3    H115630   5.646   5.737   2.555
 5208TIP3    H215631   5.685   5.617   2.473
 5209TIP3   OH215632   0.212   0.383   1.840
 5209TIP3    H115633   0.227   0.415   1.928
 5209TIP3    H215634   0.162   0.453   1.797
 5210TIP3   OH215635   3.460   4.625   3.840
 5210TIP3    H115636   3.384   4.648   3.892
 5210TIP3    H215637   3.428   4.622   3.750
 5211TIP3   OH215638   2.756   3.280   1.101
 5211TIP3    H115639   2.761   3.197   1.054
 5211TIP3    H215640   2.677   3.273   1.154
 5212TIP3   OH215641   2.628   3.786   4.744
 5212TIP3    H115642   2.663   3.711   4.694
 5212TIP3    H215643   2.671   3.779   4.829
 5213TIP3   OH215644   2.098   2.107   0.773
 5213TIP3    H115645   2.137   2.074   0.692
 5213TIP3    H215646   2.018   2.152   0.745
 5214TIP3   OH215647   5.631   1.587   4.734
 5214TIP3    H115648   5.577   1.661   4.763
 5214TIP3    H215649   5.708   1.590   4.791
 5215TIP3   OH215650   3.811   3.289   0.153
 5215TIP3    H115651   3.730   3.265   0.109
 5215TIP3    H215652   3.874   3.303   0.082
 5216TIP3   OH215653   1.870   0.206   3.734
 5216TIP3    H115654   1.858   0.231   3.643
 5216TIP3    H215655   1.932   0.133   3.731
 5217TIP3   OH215656   0.269   3.161   2.122
 5217TIP3    H115657   0.293   3.076   2.087
 5217TIP3    H215658   0.235   3.210   2.047
 5218TIP3   OH215659   3.220   2.444   2.602
 5218TIP3    H115660   3.152   2.502   2.638
 5218TIP3    H215661   3.207   2.448   2.507
 5219TIP3   OH215662   3.746   0.635   1.838
 5219TIP3    H115663   3.728   0.599   1.752
 5219TIP3    H215664   3.824   0.588   1.868
 5220TIP3   OH215665   0.329   4.095   1.038
 5220TIP3    H115666   0.355   4.184   1.060
 5220TIP3    H215667   0.312   4.053   1.122
 5221TIP3   OH215668   2.976   0.993   1.235
 5221TIP3    H115669   2.892   1.027   1.203
 5221TIP3    H215670   2.952   0.928   1.301
 5222TIP3   OH215671   0.921   5.566   1.939
 5222TIP3    H115672   0.979   5.497   1.971
 5222TIP3    H215673   0.835   5.544   1.974
 5223TIP3   OH215674   4.000   3.541   3.313
 5223TIP3    H115675   3.995   3.636   3.311
 5223TIP3    H215676   3.909   3.512   3.299
 5224TIP3   OH215677   5.312   5.044   4.397
 5224TIP3    H115678   5.363   5.020   4.319
 5224TIP3    H215679   5.294   4.960   4.440
 5225TIP3   OH215680   1.071   5.124   4.659
 5225TIP3    H115681   1.061   5.174   4.579
 5225TIP3    H215682   1.160   5.087   4.654
 5226TIP3   OH215683   3.769   0.495   3.140
 5226TIP3    H115684   3.822   0.467   3.065
 5226TIP3    H215685   3.681   0.505   3.104
 5227TIP3   OH215686   4.487   2.407   1.076
 5227TIP3    H115687   4.503   2.397   0.982
 5227TIP3    H215688   4.498   2.318   1.111
 5228TIP3   OH215689   1.409   2.929   3.071
 5228TIP3    H115690   1.470   2.924   3.145
 5228TIP3    H215691   1.391   2.838   3.048
 5229TIP3   OH215692   6.253   5.714   2.317
 5229TIP3    H115693   6.189   5.667   2.371
 5229TIP3    H215694   6.205   5.740   2.239
 5230TIP3   OH215695   3.339   1.505   0.247
 5230TIP3    H115696   3.412   1.535   0.301
 5230TIP3    H215697   3.309   1.425   0.290
 5231TIP3   OH215698   5.223   2.271   1.290
 5231TIP3    H115699   5.309   2.241   1.316
 5231TIP3    H215700   5.162   2.222   1.345
 5232TIP3   OH215701   2.556   2.554   1.934
 5232TIP3    H115702   2.553   2.615   2.008
 5232TIP3    H215703   2.586   2.472   1.972
 5233TIP3   OH215704   5.724   3.981   2.527
 5233TIP3    H115705   5.785   3.990   2.454
 5233TIP3    H215706   5.648   4.034   2.502
 5234TIP3   OH215707   4.779   4.342   4.223
 5234TIP3    H115708   4.859   4.389   4.200
 5234TIP3    H215709   4.807   4.280   4.291
 5235TIP3   OH215710   2.554   1.866   5.098
 5235TIP3    H115711   2.617   1.795   5.104
 5235TIP3    H215712   2.508   1.851   5.015
 5236TIP3   OH215713   4.002   3.122   1.625
 5236TIP3    H115714   4.023   3.119   1.532
 5236TIP3    H215715   3.929   3.184   1.632
 5237TIP3   OH215716   1.233   5.069   0.173
 5237TIP3    H115717   1.153   5.016   0.176
 5237TIP3    H215718   1.292   5.026   0.236
 5238TIP3   OH215719   1.906   5.399   0.751
 5238TIP3    H115720   1.999   5.400   0.773
 5238TIP3    H215721   1.866   5.457   0.816
 5239TIP3   OH215722   5.126   0.636   3.631
 5239TIP3    H115723   5.210   0.598   3.655
 5239TIP3    H215724   5.135   0.658   3.538
 5240TIP3   OH215725   3.062   3.461   1.944
 5240TIP3    H115726   3.026   3.549   1.952
 5240TIP3    H215727   3.115   3.463   1.865
 5241TIP3   OH215728   4.918   2.435   2.214
 5241TIP3    H115729   4.934   2.523   2.247
 5241TIP3    H215730   5.003   2.405   2.181
 5242TIP3   OH215731   3.983   1.628   5.195
 5242TIP3    H115732   3.971   1.566   5.123
 5242TIP3    H215733   3.970   1.714   5.155
 5243TIP3   OH215734   2.987   4.614   5.092
 5243TIP3    H115735   3.045   4.646   5.023
 5243TIP3    H215736   2.918   4.681   5.098
 5244TIP3   OH215737   6.323   2.348   4.074
 5244TIP3    H115738   6.297   2.438   4.055
 5244TIP3    H215739   6.284   2.297   4.003
 5245TIP3   OH215740   3.476   4.970   4.718
 5245TIP3    H115741   3.398   4.924   4.687
 5245TIP3    H215742   3.507   4.917   4.792
 5246TIP3   OH215743   6.073   1.211   3.567
 5246TIP3    H115744   5.985   1.236   3.538
 5246TIP3    H215745   6.129   1.228   3.491
 5247TIP3   OH215746   0.793   4.664   0.084
 5247TIP3    H115747   0.739   4.741   0.063
 5247TIP3    H215748   0.831   4.684   0.170
 5248TIP3   OH215749   0.828   1.270   4.271
 5248TIP3    H115750   0.813   1.326   4.194
 5248TIP3    H215751   0.756   1.292   4.330
 5249TIP3   OH215752   1.764   4.346   1.785
 5249TIP3    H115753   1.672   4.341   1.811
 5249TIP3    H215754   1.812   4.313   1.861
 5250TIP3   OH215755   3.556   4.059   2.205
 5250TIP3    H115756   3.570   4.127   2.140
 5250TIP3    H215757   3.495   4.098   2.268
 5251TIP3   OH215758   3.012   1.649   4.875
 5251TIP3    H115759   2.971   1.584   4.819
 5251TIP3    H215760   2.991   1.621   4.964
 5252TIP3   OH215761   4.854   5.660   2.626
 5252TIP3    H115762   4.807   5.733   2.586
 5252TIP3    H215763   4.788   5.593   2.640
 5253TIP3   OH215764   5.339   4.357   2.422
 5253TIP3    H115765   5.268   4.304   2.386
 5253TIP3    H215766   5.298   4.408   2.492
 5254TIP3   OH215767   1.529   2.923   3.919
 5254TIP3    H115768   1.491   2.861   3.981
 5254TIP3    H215769   1.546   3.002   3.971
 5255TIP3   OH215770   3.942   4.423   0.322
 5255TIP3    H115771   3.912   4.506   0.359
 5255TIP3    H215772   3.933   4.435   0.227
 5256TIP3   OH215773   2.048   2.571   2.392
 5256TIP3    H115774   2.029   2.664   2.401
 5256TIP3    H215775   1.962   2.529   2.389
 5257TIP3   OH215776   2.212   3.520   2.048
 5257TIP3    H115777   2.303   3.490   2.052
 5257TIP3    H215778   2.160   3.441   2.062
 5258TIP3   OH215779   1.649   4.851   2.213
 5258TIP3    H115780   1.727   4.905   2.224
 5258TIP3    H215781   1.583   4.894   2.267
 5259TIP3   OH215782   1.543   2.874   2.402
 5259TIP3    H115783   1.460   2.900   2.444
 5259TIP3    H215784   1.526   2.786   2.369
 5260TIP3   OH215785   0.124   5.599   1.227
 5260TIP3    H115786   0.109   5.527   1.288
 5260TIP3    H215787   0.037   5.630   1.204
 5261TIP3   OH215788   2.215   3.994   0.925
 5261TIP3    H115789   2.272   3.939   0.870
 5261TIP3    H215790   2.137   3.940   0.939
 5262TIP3   OH215791   5.348   0.248   4.968
 5262TIP3    H115792   5.430   0.268   5.012
 5262TIP3    H215793   5.372   0.243   4.875
 5263TIP3   OH215794   2.713   4.950   4.926
 5263TIP3    H115795   2.806   4.951   4.951
 5263TIP3    H215796   2.682   4.864   4.955
 5264TIP3   OH215797   1.155   1.484   1.570
 5264TIP3    H115798   1.204   1.491   1.488
 5264TIP3    H215799   1.169   1.394   1.598
 5265TIP3   OH215800   0.722   1.814   3.828
 5265TIP3    H115801   0.756   1.831   3.916
 5265TIP3    H215802   0.796   1.831   3.770
 5266TIP3   OH215803   0.813   3.905   0.664
 5266TIP3    H115804   0.721   3.892   0.644
 5266TIP3    H215805   0.813   3.958   0.744
 5267TIP3   OH215806   1.460   3.694   0.305
 5267TIP3    H115807   1.454   3.740   0.389
 5267TIP3    H215808   1.551   3.665   0.299
 5268TIP3   OH215809   4.229   4.562   1.271
 5268TIP3    H115810   4.292   4.549   1.200
 5268TIP3    H215811   4.257   4.502   1.340
 5269TIP3   OH215812   1.132   0.322   4.405
 5269TIP3    H115813   1.106   0.345   4.495
 5269TIP3    H215814   1.140   0.227   4.406
 5270TIP3   OH215815   1.368   1.433   0.565
 5270TIP3    H115816   1.308   1.432   0.491
 5270TIP3    H215817   1.312   1.421   0.642
 5271TIP3   OH215818   6.218   5.880   2.718
 5271TIP3    H115819   6.255   5.881   2.630
 5271TIP3    H215820   6.151   5.949   2.716
 5272TIP3   OH215821   3.914   0.388   4.538
 5272TIP3    H115822   3.831   0.376   4.492
 5272TIP3    H215823   3.896   0.454   4.605
 5273TIP3   OH215824   5.955   2.985   4.865
 5273TIP3    H115825   5.974   2.897   4.897
 5273TIP3    H215826   5.957   3.040   4.943
 5274TIP3   OH215827   0.084   1.558   4.508
 5274TIP3    H115828   0.115   1.632   4.457
 5274TIP3    H215829  -0.001   1.585   4.541
 5275TIP3   OH215830   4.038   3.771   4.747
 5275TIP3    H115831   4.005   3.860   4.733
 5275TIP3    H215832   3.976   3.715   4.700
 5276TIP3   OH215833   0.639   1.241   1.795
 5276TIP3    H115834   0.648   1.161   1.743
 5276TIP3    H215835   0.577   1.294   1.747
 5277TIP3   OH215836   5.808   1.934   3.365
 5277TIP3    H115837   5.752   1.892   3.300
 5277TIP3    H215838   5.750   1.950   3.439
 5278TIP3   OH215839   1.687   5.274   4.372
 5278TIP3    H115840   1.686   5.357   4.326
 5278TIP3    H215841   1.595   5.247   4.376
 5279TIP3   OH215842   5.411   1.848   0.373
 5279TIP3    H115843   5.453   1.768   0.342
 5279TIP3    H215844   5.483   1.906   0.396
 5280TIP3   OH215845   1.793   1.611   4.507
 5280TIP3    H115846   1.849   1.597   4.584
 5280TIP3    H215847   1.828   1.550   4.442
 5281TIP3   OH215848   4.722   2.949   4.971
 5281TIP3    H115849   4.781   2.907   5.033
 5281TIP3    H215850   4.779   2.989   4.906
 5282TIP3   OH215851   1.785   4.155   0.400
 5282TIP3    H115852   1.736   4.143   0.482
 5282TIP3    H215853   1.814   4.246   0.403
 5283TIP3   OH215854   5.344   5.403   4.959
 5283TIP3    H115855   5.409   5.334   4.949
 5283TIP3    H215856   5.259   5.358   4.953
 5284TIP3   OH215857   2.067   0.305   0.544
 5284TIP3    H115858   2.057   0.259   0.461
 5284TIP3    H215859   2.022   0.388   0.531
 5285TIP3   OH215860   0.452   5.501   3.728
 5285TIP3    H115861   0.450   5.590   3.762
 5285TIP3    H215862   0.428   5.510   3.636
 5286TIP3   OH215863   4.730   3.611   0.347
 5286TIP3    H115864   4.716   3.663   0.426
 5286TIP3    H215865   4.656   3.634   0.290
 5287TIP3   OH215866   2.694   1.986   2.130
 5287TIP3    H115867   2.719   1.929   2.057
 5287TIP3    H215868   2.761   1.970   2.196
 5288TIP3   OH215869   0.591   0.110   0.811
 5288TIP3    H115870   0.648   0.157   0.751
 5288TIP3    H215871   0.571   0.172   0.881
 5289TIP3   OH215872   6.078   1.795   3.486
 5289TIP3    H115873   6.080   1.710   3.443
 5289TIP3    H215874   5.988   1.827   3.471
 5290TIP3   OH215875   0.365   3.114   3.693
 5290TIP3    H115876   0.456   3.125   3.722
 5290TIP3    H215877   0.371   3.093   3.600
 5291TIP3   OH215878   1.404   5.467   2.509
 5291TIP3    H115879   1.432   5.382   2.542
 5291TIP3    H215880   1.340   5.498   2.573
 5292TIP3   OH215881   0.865   5.031   5.156
 5292TIP3    H115882   0.891   4.989   5.238
 5292TIP3    H215883   0.884   5.124   5.169
 5293TIP3   OH215884   0.098   4.634   2.561
 5293TIP3    H115885   0.131   4.723   2.558
 5293TIP3    H215886   0.003   4.644   2.560
 5294TIP3   OH215887   2.932   2.333   5.047
 5294TIP3    H115888   2.870   2.333   5.120
 5294TIP3    H215889   2.898   2.268   4.986
 5295TIP3   OH215890   0.573   3.162   0.223
 5295TIP3    H115891   0.535   3.130   0.141
 5295TIP3    H215892   0.654   3.111   0.233
 5296TIP3   OH215893   2.853   5.097   3.113
 5296TIP3    H115894   2.765   5.059   3.108
 5296TIP3    H215895   2.869   5.108   3.207
 5297TIP3   OH215896   1.137   5.535   0.650
 5297TIP3    H115897   1.070   5.470   0.673
 5297TIP3    H215898   1.134   5.598   0.722
 5298TIP3   OH215899   0.007   2.016   4.294
 5298TIP3    H115900   0.020   2.002   4.388
 5298TIP3    H215901   0.071   2.084   4.272
 5299TIP3   OH215902   2.813   2.664   1.440
 5299TIP3    H115903   2.865   2.691   1.364
 5299TIP3    H215904   2.846   2.719   1.511
 5300TIP3   OH215905   1.330   3.410   3.848
 5300TIP3    H115906   1.343   3.505   3.848
 5300TIP3    H215907   1.380   3.378   3.923
 5301TIP3   OH215908   0.877   0.218   5.126
 5301TIP3    H115909   0.966   0.195   5.097
 5301TIP3    H215910   0.882   0.311   5.147
 5302TIP3   OH215911   2.122   3.196   0.296
 5302TIP3    H115912   2.032   3.228   0.294
 5302TIP3    H215913   2.121   3.115   0.244
 5303TIP3   OH215914   3.324   1.348   4.637
 5303TIP3    H115915   3.293   1.257   4.645
 5303TIP3    H215916   3.396   1.343   4.574
 5304TIP3   OH215917   0.139   4.567   1.918
 5304TIP3    H115918   0.053   4.598   1.891
 5304TIP3    H215919   0.152   4.605   2.005
 5305TIP3   OH215920   4.341   3.820   2.354
 5305TIP3    H115921   4.366   3.897   2.303
 5305TIP3    H215922   4.248   3.807   2.335
 5306TIP3   OH215923   5.376   3.670   4.306
 5306TIP3    H115924   5.444   3.630   4.359
 5306TIP3    H215925   5.311   3.701   4.370
 5307TIP3   OH215926   4.346   0.473   2.343
 5307TIP3    H115927   4.254   0.498   2.348
 5307TIP3    H215928   4.356   0.436   2.255
 5308TIP3   OH215929   1.000   1.315   3.293
 5308TIP3    H115930   0.976   1.273   3.211
 5308TIP3    H215931   0.931   1.380   3.308
 5309TIP3   OH215932   6.052   4.476   2.626
 5309TIP3    H115933   5.967   4.453   2.587
 5309TIP3    H215934   6.070   4.405   2.687
 5310TIP3   OH215935   4.546   5.938   1.924
 5310TIP3    H115936   4.598   5.922   1.846
 5310TIP3    H215937   4.472   5.878   1.917
 5311TIP3   OH215938   2.267   3.570   0.968
 5311TIP3    H115939   2.178   3.585   0.999
 5311TIP3    H215940   2.323   3.599   1.040
 5312TIP3   OH215941   5.004   5.081   1.980
 5312TIP3    H115942   4.998   4.991   1.948
 5312TIP3    H215943   5.088   5.113   1.945
 5313TIP3   OH215944   3.213   5.930   4.308
 5313TIP3    H115945   3.236   6.015   4.270
 5313TIP3    H215946   3.247   5.866   4.245
 5314TIP3   OH215947   5.669   3.733   2.322
 5314TIP3    H115948   5.684   3.683   2.403
 5314TIP3    H215949   5.664   3.666   2.254
 5315TIP3   OH215950   5.212   4.785   4.394
 5315TIP3    H115951   5.130   4.803   4.440
 5315TIP3    H215952   5.200   4.822   4.307
 5316TIP3   OH215953   1.684   4.757   3.142
 5316TIP3    H115954   1.765   4.777   3.095
 5316TIP3    H215955   1.627   4.831   3.124
 5317TIP3   OH215956   2.352   5.162   0.746
 5317TIP3    H115957   2.339   5.074   0.711
 5317TIP3    H215958   2.266   5.188   0.778
 5318TIP3   OH215959   4.251   1.116   0.889
 5318TIP3    H115960   4.201   1.078   0.817
 5318TIP3    H215961   4.278   1.202   0.857
 5319TIP3   OH215962   0.447   2.111   4.859
 5319TIP3    H115963   0.379   2.121   4.792
 5319TIP3    H215964   0.399   2.114   4.942
 5320TIP3   OH215965   0.744   3.574   3.829
 5320TIP3    H115966   0.814   3.571   3.763
 5320TIP3    H215967   0.779   3.630   3.898
 5321TIP3   OH215968   2.839   2.198   2.541
 5321TIP3    H115969   2.934   2.195   2.533
 5321TIP3    H215970   2.821   2.164   2.628
 5322TIP3   OH215971   2.706   2.078   3.965
 5322TIP3    H115972   2.617   2.047   3.950
 5322TIP3    H215973   2.751   2.003   4.005
 5323TIP3   OH215974   2.152   1.704   4.883
 5323TIP3    H115975   2.180   1.749   4.963
 5323TIP3    H215976   2.201   1.622   4.883
 5324TIP3   OH215977   2.467   5.081   1.410
 5324TIP3    H115978   2.413   5.115   1.339
 5324TIP3    H215979   2.405   5.037   1.469
 5325TIP3   OH215980   1.988   0.684   4.225
 5325TIP3    H115981   1.914   0.641   4.268
 5325TIP3    H215982   2.030   0.735   4.294
 5326TIP3   OH215983   3.063   2.041   1.089
 5326TIP3    H115984   3.062   1.949   1.118
 5326TIP3    H215985   3.139   2.046   1.031
 5327TIP3   OH215986   0.197   2.202   2.454
 5327TIP3    H115987   0.180   2.233   2.542
 5327TIP3    H215988   0.287   2.171   2.456
 5328TIP3   OH215989   1.859   1.319   3.499
 5328TIP3    H115990   1.904   1.322   3.584
 5328TIP3    H215991   1.929   1.305   3.435
 5329TIP3   OH215992   3.492   5.932   3.406
 5329TIP3    H115993   3.560   5.962   3.346
 5329TIP3    H215994   3.410   5.960   3.366
 5330TIP3   OH215995   1.132   4.562   1.063
 5330TIP3    H115996   1.047   4.603   1.080
 5330TIP3    H215997   1.156   4.523   1.146
 5331TIP3   OH215998   3.256   5.184   4.818
 5331TIP3    H115999   3.344   5.217   4.837
 5331TIP3    H216000   3.269   5.109   4.761
 5332TIP3   OH216001   1.597   1.047   1.059
 5332TIP3    H116002   1.645   1.101   0.996
 5332TIP3    H216003   1.662   1.025   1.126
 5333TIP3   OH216004   4.927   5.441   4.316
 5333TIP3    H116005   4.839   5.421   4.349
 5333TIP3    H216006   4.946   5.369   4.256
 5334TIP3   OH216007   1.909   1.304   3.149
 5334TIP3    H116008   1.939   1.307   3.058
 5334TIP3    H216009   1.822   1.266   3.145
 5335TIP3   OH216010   2.919   4.327   3.142
 5335TIP3    H116011   2.918   4.333   3.046
 5335TIP3    H216012   2.945   4.237   3.160
 5336TIP3   OH216013   0.562   1.942   1.541
 5336TIP3    H116014   0.581   2.031   1.513
 5336TIP3    H216015   0.470   1.929   1.517
 5337TIP3   OH216016   5.166   4.664   0.944
 5337TIP3    H116017   5.219   4.676   1.023
 5337TIP3    H216018   5.191   4.737   0.887
 5338TIP3   OH216019   0.566   5.249   1.348
 5338TIP3    H116020   0.473   5.254   1.326
 5338TIP3    H216021   0.608   5.215   1.269
 5339TIP3   OH216022   0.014   0.835   3.037
 5339TIP3    H116023   0.054   0.880   3.111
 5339TIP3    H216024   0.060   0.751   3.033
 5340TIP3   OH216025   3.595   1.838   1.300
 5340TIP3    H116026   3.582   1.805   1.389
 5340TIP3    H216027   3.622   1.929   1.312
 5341TIP3   OH216028   1.685   3.324   2.681
 5341TIP3    H116029   1.735   3.383   2.625
 5341TIP3    H216030   1.702   3.237   2.646
 5342TIP3   OH216031   2.996   0.770   1.429
 5342TIP3    H116032   3.056   0.731   1.492
 5342TIP3    H216033   2.954   0.695   1.386
 5343TIP3   OH216034   4.183   4.219   1.285
 5343TIP3    H116035   4.093   4.251   1.286
 5343TIP3    H216036   4.190   4.168   1.204
 5344TIP3   OH216037   4.878   2.020   3.094
 5344TIP3    H116038   4.861   1.960   3.020
 5344TIP3    H216039   4.871   1.964   3.171
 5345TIP3   OH216040   2.705   2.106   2.760
 5345TIP3    H116041   2.684   2.024   2.716
 5345TIP3    H216042   2.629   2.123   2.815
 5346TIP3   OH216043   0.948   5.909   1.736
 5346TIP3    H116044   0.915   5.820   1.723
 5346TIP3    H216045   0.880   5.965   1.699
 5347TIP3   OH216046   2.943   1.904   5.098
 5347TIP3    H116047   2.944   1.820   5.143
 5347TIP3    H216048   2.921   1.883   5.007
 5348TIP3   OH216049   2.116   2.759   1.964
 5348TIP3    H116050   2.196   2.766   1.911
 5348TIP3    H216051   2.148   2.734   2.051
 5349TIP3   OH216052   0.340   1.286   2.344
 5349TIP3    H116053   0.433   1.268   2.326
 5349TIP3    H216054   0.318   1.228   2.416
 5350TIP3   OH216055   4.533   1.012   0.856
 5350TIP3    H116056   4.479   1.010   0.935
 5350TIP3    H216057   4.606   0.954   0.875
 5351TIP3   OH216058   3.639   0.119   4.080
 5351TIP3    H116059   3.608   0.207   4.102
 5351TIP3    H216060   3.721   0.110   4.128
 5352TIP3   OH216061   1.316   5.340   0.128
 5352TIP3    H116062   1.305   5.246   0.116
 5352TIP3    H216063   1.379   5.348   0.199
 5353TIP3   OH216064   3.785   0.066   0.715
 5353TIP3    H116065   3.814   0.040   0.803
 5353TIP3    H216066   3.827   0.150   0.699
 5354TIP3   OH216067   2.121   5.842   1.668
 5354TIP3    H116068   2.040   5.865   1.714
 5354TIP3    H216069   2.187   5.901   1.705
 5355TIP3   OH216070   0.381   2.323   0.967
 5355TIP3    H116071   0.403   2.396   0.909
 5355TIP3    H216072   0.316   2.272   0.919
 5356TIP3   OH216073   2.043   1.734   0.907
 5356TIP3    H116074   2.033   1.684   0.826
 5356TIP3    H216075   1.967   1.709   0.960
 5357TIP3   OH216076   3.207   1.812   3.965
 5357TIP3    H116077   3.267   1.880   3.998
 5357TIP3    H216078   3.123   1.834   4.004
 5358TIP3   OH216079   0.150   3.226   0.451
 5358TIP3    H116080   0.213   3.155   0.446
 5358TIP3    H216081   0.132   3.249   0.360
 5359TIP3   OH216082   4.295   2.415   1.936
 5359TIP3    H116083   4.263   2.335   1.977
 5359TIP3    H216084   4.256   2.414   1.848
 5360TIP3   OH216085   3.795   0.992   1.967
 5360TIP3    H116086   3.750   1.076   1.955
 5360TIP3    H216087   3.885   1.009   1.938
 5361TIP3   OH216088   2.944   2.522   3.704
 5361TIP3    H116089   2.871   2.584   3.705
 5361TIP3    H216090   2.912   2.447   3.655
 5362TIP3   OH216091   5.787   3.096   0.614
 5362TIP3    H116092   5.785   3.114   0.708
 5362TIP3    H216093   5.879   3.082   0.594
 5363TIP3   OH216094   3.696   2.635   4.648
 5363TIP3    H116095   3.608   2.610   4.619
 5363TIP3    H216096   3.680   2.698   4.719
 5364TIP3   OH216097   2.456   2.979   1.347
 5364TIP3    H116098   2.386   2.954   1.287
 5364TIP3    H216099   2.453   2.911   1.415
 5365TIP3   OH216100   0.242   2.754   0.917
 5365TIP3    H116101   0.252   2.775   1.010
 5365TIP3    H216102   0.181   2.820   0.883
 5366TIP3   OH216103   6.097   2.419   1.143
 5366TIP3    H116104   6.055   2.368   1.074
 5366TIP3    H216105   6.043   2.497   1.151
 5367TIP3   OH216106   5.525   3.268   1.776
 5367TIP3    H116107   5.487   3.330   1.838
 5367TIP3    H216108   5.503   3.182   1.811
 5368TIP3   OH216109   5.015   2.764   3.856
 5368TIP3    H116110   5.074   2.840   3.863
 5368TIP3    H216111   4.928   2.801   3.869
 5369TIP3   OH216112   0.479   2.014   4.470
 5369TIP3    H116113   0.414   1.992   4.402
 5369TIP3    H216114   0.530   1.934   4.480
 5370TIP3   OH216115   1.888   5.077   2.003
 5370TIP3    H116116   1.979   5.080   2.033
 5370TIP3    H216117   1.869   4.983   1.994
 5371TIP3   OH216118   3.605   2.111   1.789
 5371TIP3    H116119   3.629   2.075   1.875
 5371TIP3    H216120   3.681   2.164   1.763
 5372TIP3   OH216121   1.308   1.825   3.510
 5372TIP3    H116122   1.257   1.753   3.547
 5372TIP3    H216123   1.243   1.888   3.480
 5373TIP3   OH216124   2.226   0.886   0.709
 5373TIP3    H116125   2.133   0.905   0.720
 5373TIP3    H216126   2.253   0.847   0.792
 5374TIP3   OH216127   0.240   5.500   4.221
 5374TIP3    H116128   0.254   5.408   4.200
 5374TIP3    H216129   0.271   5.548   4.144
 5375TIP3   OH216130   4.628   1.270   4.761
 5375TIP3    H116131   4.545   1.314   4.742
 5375TIP3    H216132   4.604   1.199   4.821
 5376TIP3   OH216133   1.964   4.798   2.130
 5376TIP3    H116134   1.975   4.876   2.184
 5376TIP3    H216135   1.920   4.735   2.187
 5377TIP3   OH216136   4.608   3.523   2.733
 5377TIP3    H116137   4.671   3.525   2.660
 5377TIP3    H216138   4.529   3.564   2.697
 5378TIP3   OH216139   4.765   2.488   3.809
 5378TIP3    H116140   4.846   2.499   3.760
 5378TIP3    H216141   4.791   2.491   3.901
 5379TIP3   OH216142   4.720   4.944   1.492
 5379TIP3    H116143   4.672   4.997   1.428
 5379TIP3    H216144   4.769   4.882   1.439
 5380TIP3   OH216145   5.034   4.026   0.415
 5380TIP3    H116146   5.038   4.064   0.503
 5380TIP3    H216147   4.975   4.084   0.367
 5381TIP3   OH216148   3.248   3.455   2.945
 5381TIP3    H116149   3.269   3.520   2.878
 5381TIP3    H216150   3.332   3.437   2.988
 5382TIP3   OH216151   1.538   1.986   5.022
 5382TIP3    H116152   1.597   1.915   5.049
 5382TIP3    H216153   1.581   2.066   5.054
 5383TIP3   OH216154   2.417   5.421   0.689
 5383TIP3    H116155   2.424   5.328   0.710
 5383TIP3    H216156   2.352   5.455   0.751
 5384TIP3   OH216157   5.742   2.587   2.702
 5384TIP3    H116158   5.715   2.569   2.792
 5384TIP3    H216159   5.819   2.532   2.689
 5385TIP3   OH216160   2.886   4.652   1.611
 5385TIP3    H116161   2.912   4.656   1.519
 5385TIP3    H216162   2.955   4.601   1.653
 5386TIP3   OH216163   0.968   0.856   1.470
 5386TIP3    H116164   0.913   0.918   1.518
 5386TIP3    H216165   0.924   0.844   1.386
 5387TIP3   OH216166   1.562   1.559   3.937
 5387TIP3    H116167   1.487   1.566   3.878
 5387TIP3    H216168   1.524   1.557   4.024
 5388TIP3   OH216169   3.865   1.302   3.163
 5388TIP3    H116170   3.774   1.279   3.181
 5388TIP3    H216171   3.912   1.219   3.165
 5389TIP3   OH216172   6.030   1.929   3.185
 5389TIP3    H116173   6.099   1.903   3.246
 5389TIP3    H216174   5.963   1.969   3.241
 5390TIP3   OH216175   2.858   4.381   1.887
 5390TIP3    H116176   2.939   4.409   1.844
 5390TIP3    H216177   2.860   4.424   1.973
 5391TIP3   OH216178   3.190   2.372   4.742
 5391TIP3    H116179   3.240   2.371   4.660
 5391TIP3    H216180   3.150   2.285   4.747
 5392TIP3   OH216181   3.470   2.140   3.315
 5392TIP3    H116182   3.518   2.096   3.385
 5392TIP3    H216183   3.511   2.108   3.235
 5393TIP3   OH216184   0.362   3.080   4.357
 5393TIP3    H116185   0.305   3.034   4.296
 5393TIP3    H216186   0.305   3.103   4.431
 5394TIP3   OH216187   1.927   1.379   4.011
 5394TIP3    H116188   1.965   1.461   3.981
 5394TIP3    H216189   1.953   1.315   3.946
 5395TIP3   OH216190   0.953   4.208   1.745
 5395TIP3    H116191   1.009   4.131   1.738
 5395TIP3    H216192   0.929   4.228   1.654
 5396TIP3   OH216193   3.849   0.306   0.599
 5396TIP3    H116194   3.833   0.253   0.520
 5396TIP3    H216195   3.890   0.386   0.566
 5397TIP3   OH216196   0.308   4.359   1.876
 5397TIP3    H116197   0.236   4.415   1.905
 5397TIP3    H216198   0.299   4.279   1.928
 5398TIP3   OH216199   2.912   4.864   1.368
 5398TIP3    H116200   2.822   4.848   1.396
 5398TIP3    H216201   2.922   4.812   1.288
 5399TIP3   OH216202   1.818   0.557   1.040
 5399TIP3    H116203   1.865   0.618   0.983
 5399TIP3    H216204   1.779   0.612   1.108
 5400TIP3   OH216205   3.401   3.662   1.149
 5400TIP3    H116206   3.353   3.634   1.071
 5400TIP3    H216207   3.379   3.597   1.215
 5401TIP3   OH216208   5.304   2.045   0.206
 5401TIP3    H116209   5.338   1.978   0.266
 5401TIP3    H216210   5.329   2.013   0.119
 5402TIP3   OH216211   1.857   2.594   1.565
 5402TIP3    H116212   1.874   2.587   1.471
 5402TIP3    H216213   1.891   2.513   1.602
 5403TIP3   OH216214   2.092   1.800   1.873
 5403TIP3    H116215   2.070   1.889   1.900
 5403TIP3    H216216   2.097   1.751   1.954
 5404TIP3   OH216217   1.733   1.515   0.846
 5404TIP3    H116218   1.812   1.537   0.797
 5404TIP3    H216219   1.682   1.461   0.785
 5405TIP3   OH216220   5.112   5.508   0.185
 5405TIP3    H116221   5.106   5.535   0.277
 5405TIP3    H216222   5.197   5.464   0.179
 5406TIP3   OH216223   5.439   0.355   0.533
 5406TIP3    H116224   5.489   0.372   0.613
 5406TIP3    H216225   5.485   0.282   0.492
 5407TIP3   OH216226   5.903   4.681   1.001
 5407TIP3    H116227   5.878   4.685   1.093
 5407TIP3    H216228   5.863   4.600   0.969
 5408TIP3   OH216229   3.454   4.142   1.052
 5408TIP3    H116230   3.513   4.217   1.039
 5408TIP3    H216231   3.368   4.175   1.026
 5409TIP3   OH216232   3.396   1.176   3.043
 5409TIP3    H116233   3.466   1.240   3.055
 5409TIP3    H216234   3.329   1.203   3.107
 5410TIP3   OH216235   4.445   5.756   2.339
 5410TIP3    H116236   4.506   5.747   2.265
 5410TIP3    H216237   4.362   5.724   2.306
 5411TIP3   OH216238   2.571   0.084   0.561
 5411TIP3    H116239   2.548   0.171   0.529
 5411TIP3    H216240   2.663   0.092   0.588
 5412TIP3   OH216241   4.123   3.234   2.166
 5412TIP3    H116242   4.130   3.214   2.072
 5412TIP3    H216243   4.178   3.169   2.209
 5413TIP3   OH216244   2.952   5.897   2.626
 5413TIP3    H116245   2.867   5.899   2.582
 5413TIP3    H216246   2.981   5.807   2.617
 5414TIP3   OH216247   1.014   3.126   1.138
 5414TIP3    H116248   0.924   3.145   1.112
 5414TIP3    H216249   1.017   3.147   1.231
 5415TIP3   OH216250   4.612   3.857   4.607
 5415TIP3    H116251   4.570   3.801   4.542
 5415TIP3    H216252   4.689   3.807   4.635
 5416TIP3   OH216253   2.479   5.359   1.058
 5416TIP3    H116254   2.520   5.352   0.971
 5416TIP3    H216255   2.446   5.271   1.076
 5417TIP3   OH216256   4.534   2.490   4.041
 5417TIP3    H116257   4.511   2.531   3.958
 5417TIP3    H216258   4.516   2.397   4.027
 5418TIP3   OH216259   5.773   5.926   0.198
 5418TIP3    H116260   5.721   5.846   0.205
 5418TIP3    H216261   5.861   5.895   0.176
 5419TIP3   OH216262   0.802   5.775   3.680
 5419TIP3    H116263   0.814   5.785   3.775
 5419TIP3    H216264   0.875   5.824   3.642
 5420TIP3   OH216265   3.720   0.971   2.743
 5420TIP3    H116266   3.703   0.906   2.811
 5420TIP3    H216267   3.786   1.029   2.781
 5421TIP3   OH216268   2.380   3.287   0.342
 5421TIP3    H116269   2.292   3.251   0.327
 5421TIP3    H216270   2.416   3.299   0.254
 5422TIP3   OH216271   5.137   1.405   3.494
 5422TIP3    H116272   5.216   1.353   3.479
 5422TIP3    H216273   5.069   1.358   3.446
 5423TIP3   OH216274   1.830   4.583   3.290
 5423TIP3    H116275   1.813   4.492   3.267
 5423TIP3    H216276   1.772   4.634   3.233
 5424TIP3   OH216277   1.072   0.948   3.918
 5424TIP3    H116278   1.029   0.978   3.838
 5424TIP3    H216279   1.055   1.017   3.982
 5425TIP3   OH216280   2.089   1.096   0.296
 5425TIP3    H116281   2.066   1.014   0.340
 5425TIP3    H216282   2.011   1.120   0.246
 5426TIP3   OH216283   5.125   4.929   3.508
 5426TIP3    H116284   5.214   4.965   3.502
 5426TIP3    H216285   5.138   4.837   3.530
 5427TIP3   OH216286   6.234   2.293   3.239
 5427TIP3    H116287   6.281   2.343   3.306
 5427TIP3    H216288   6.274   2.206   3.242
 5428TIP3   OH216289   2.971   2.593   0.768
 5428TIP3    H116290   3.019   2.663   0.812
 5428TIP3    H216291   2.882   2.627   0.760
 5429TIP3   OH216292   1.454   2.142   3.835
 5429TIP3    H116293   1.446   2.047   3.849
 5429TIP3    H216294   1.545   2.162   3.856
 5430TIP3   OH216295   4.246   0.190   3.101
 5430TIP3    H116296   4.151   0.185   3.090
 5430TIP3    H216297   4.272   0.271   3.057
 5431TIP3   OH216298   3.484   3.546   0.592
 5431TIP3    H116299   3.488   3.587   0.506
 5431TIP3    H216300   3.446   3.459   0.575
 5432TIP3   OH216301   2.270   5.326   2.259
 5432TIP3    H116302   2.342   5.390   2.263
 5432TIP3    H216303   2.223   5.348   2.179
 5433TIP3   OH216304   6.055   3.779   0.131
 5433TIP3    H116305   6.004   3.838   0.186
 5433TIP3    H216306   6.102   3.723   0.192
 5434TIP3   OH216307   5.346   0.590   2.142
 5434TIP3    H116308   5.320   0.627   2.057
 5434TIP3    H216309   5.373   0.501   2.122
 5435TIP3   OH216310   5.112   0.696   3.342
 5435TIP3    H116311   5.196   0.742   3.344
 5435TIP3    H216312   5.071   0.725   3.260
 5436TIP3   OH216313   1.561   1.205   5.179
 5436TIP3    H116314   1.561   1.201   5.083
 5436TIP3    H216315   1.654   1.213   5.202
 5437TIP3   OH216316   0.617   2.896   2.984
 5437TIP3    H116317   0.627   2.878   2.890
 5437TIP3    H216318   0.702   2.874   3.021
 5438TIP3   OH216319   5.028   3.181   4.502
 5438TIP3    H116320   5.059   3.266   4.472
 5438TIP3    H216321   4.937   3.177   4.473
 5439TIP3   OH216322   5.186   3.746   2.558
 5439TIP3    H116323   5.249   3.794   2.504
 5439TIP3    H216324   5.108   3.801   2.558
 5440TIP3   OH216325   1.946   0.688   3.356
 5440TIP3    H116326   1.959   0.691   3.261
 5440TIP3    H216327   1.965   0.597   3.380
 5441TIP3   OH216328   1.810   3.108   0.397
 5441TIP3    H116329   1.746   3.095   0.467
 5441TIP3    H216330   1.820   3.203   0.390
 5442TIP3   OH216331   1.509   4.882   4.494
 5442TIP3    H116332   1.580   4.830   4.455
 5442TIP3    H216333   1.442   4.817   4.517
 5443TIP3   OH216334   1.485   2.323   5.067
 5443TIP3    H116335   1.561   2.272   5.039
 5443TIP3    H216336   1.520   2.386   5.130
 5444TIP3   OH216337   1.091   3.092   2.556
 5444TIP3    H116338   1.103   3.003   2.591
 5444TIP3    H216339   0.997   3.106   2.557
 5445TIP3   OH216340   3.770   2.873   2.702
 5445TIP3    H116341   3.716   2.796   2.720
 5445TIP3    H216342   3.859   2.838   2.690
 5446TIP3   OH216343   1.908   0.176   0.127
 5446TIP3    H116344   1.821   0.200   0.161
 5446TIP3    H216345   1.927   0.243   0.061
 5447TIP3   OH216346   1.916   3.188   4.864
 5447TIP3    H116347   1.846   3.160   4.923
 5447TIP3    H216348   1.914   3.284   4.869
 5448TIP3   OH216349   6.120   2.958   1.132
 5448TIP3    H116350   6.214   2.949   1.151
 5448TIP3    H216351   6.103   3.052   1.140
 5449TIP3   OH216352   5.897   3.645   4.750
 5449TIP3    H116353   5.964   3.628   4.684
 5449TIP3    H216354   5.946   3.674   4.827
 5450TIP3   OH216355   2.470   2.418   2.837
 5450TIP3    H116356   2.562   2.431   2.862
 5450TIP3    H216357   2.463   2.461   2.751
 5451TIP3   OH216358   5.855   5.847   1.991
 5451TIP3    H116359   5.930   5.901   1.967
 5451TIP3    H216360   5.845   5.786   1.917
 5452TIP3   OH216361   3.846   4.571   4.507
 5452TIP3    H116362   3.756   4.566   4.539
 5452TIP3    H216363   3.858   4.491   4.456
 5453TIP3   OH216364   1.823   5.943   1.843
 5453TIP3    H116365   1.756   5.983   1.900
 5453TIP3    H216366   1.863   5.876   1.898
 5454TIP3   OH216367   2.125   2.868   2.494
 5454TIP3    H116368   2.110   2.959   2.518
 5454TIP3    H216369   2.220   2.856   2.503
 5455TIP3   OH216370   3.352   5.653   0.367
 5455TIP3    H116371   3.361   5.558   0.362
 5455TIP3    H216372   3.441   5.685   0.378
 5456TIP3   OH216373   2.904   5.993   1.189
 5456TIP3    H116374   2.890   6.029   1.276
 5456TIP3    H216375   2.933   5.903   1.204
 5457TIP3   OH216376   1.480   2.609   1.023
 5457TIP3    H116377   1.416   2.649   1.081
 5457TIP3    H216378   1.516   2.682   0.973
 5458TIP3   OH216379   5.301   1.602   3.407
 5458TIP3    H116380   5.252   1.528   3.443
 5458TIP3    H216381   5.262   1.618   3.321
 5459TIP3   OH216382   4.040   4.910   0.579
 5459TIP3    H116383   4.078   4.977   0.635
 5459TIP3    H216384   4.115   4.863   0.543
 5460TIP3   OH216385   1.302   2.658   1.229
 5460TIP3    H116386   1.280   2.735   1.282
 5460TIP3    H216387   1.267   2.584   1.279
 5461TIP3   OH216388   5.472   3.248   2.800
 5461TIP3    H116389   5.556   3.242   2.755
 5461TIP3    H216390   5.464   3.165   2.846
 5462TIP3   OH216391   1.319   3.021   1.943
 5462TIP3    H116392   1.399   3.016   1.996
 5462TIP3    H216393   1.339   3.085   1.874
 5463TIP3   OH216394   5.825   0.914   1.689
 5463TIP3    H116395   5.759   0.913   1.619
 5463TIP3    H216396   5.819   1.002   1.726
 5464TIP3   OH216397   3.944   5.366   3.455
 5464TIP3    H116398   3.882   5.408   3.515
 5464TIP3    H216399   3.956   5.278   3.490
 5465TIP3   OH216400   6.064   4.683   4.530
 5465TIP3    H116401   6.069   4.777   4.514
 5465TIP3    H216402   6.104   4.672   4.616
 5466TIP3   OH216403   4.795   3.917   0.166
 5466TIP3    H116404   4.745   3.959   0.096
 5466TIP3    H216405   4.768   3.962   0.246
 5467TIP3   OH216406   5.680   1.366   0.550
 5467TIP3    H116407   5.721   1.421   0.617
 5467TIP3    H216408   5.718   1.397   0.467
 5468TIP3   OH216409   4.311   1.328   1.690
 5468TIP3    H116410   4.260   1.339   1.771
 5468TIP3    H216411   4.291   1.405   1.638
 5469TIP3   OH216412   0.632   4.473   0.533
 5469TIP3    H116413   0.537   4.482   0.537
 5469TIP3    H216414   0.647   4.427   0.450
 5470TIP3   OH216415   4.518   1.444   0.911
 5470TIP3    H116416   4.495   1.414   0.823
 5470TIP3    H216417   4.437   1.437   0.961
 5471TIP3   OH216418   0.291   3.454   3.819
 5471TIP3    H116419   0.371   3.439   3.871
 5471TIP3    H216420   0.282   3.549   3.816
 5472TIP3   OH216421   6.052   2.919   3.186
 5472TIP3    H116422   5.987   2.850   3.174
 5472TIP3    H216423   6.077   2.913   3.278
 5473TIP3   OH216424   3.392   3.530   1.493
 5473TIP3    H116425   3.394   3.494   1.582
 5473TIP3    H216426   3.443   3.469   1.441
 5474TIP3   OH216427   0.486   1.713   3.676
 5474TIP3    H116428   0.565   1.732   3.727
 5474TIP3    H216429   0.441   1.646   3.728
 5475TIP3   OH216430   0.598   0.372   5.184
 5475TIP3    H116431   0.686   0.410   5.184
 5475TIP3    H216432   0.589   0.332   5.097
 5476TIP3   OH216433   5.934   0.639   4.268
 5476TIP3    H116434   5.978   0.687   4.338
 5476TIP3    H216435   5.860   0.695   4.243
 5477TIP3   OH216436   1.050   0.746   4.388
 5477TIP3    H116437   1.050   0.784   4.476
 5477TIP3    H216438   1.099   0.808   4.335
 5478TIP3   OH216439   0.504   1.711   3.127
 5478TIP3    H116440   0.468   1.736   3.042
 5478TIP3    H216441   0.470   1.777   3.188
 5479TIP3   OH216442   3.577   1.356   3.117
 5479TIP3    H116443   3.602   1.440   3.078
 5479TIP3    H216444   3.540   1.380   3.202
 5480TIP3   OH216445   3.975   4.402   2.272
 5480TIP3    H116446   3.968   4.476   2.333
 5480TIP3    H216447   4.037   4.343   2.313
 5481TIP3   OH216448   2.494   0.563   3.648
 5481TIP3    H116449   2.561   0.581   3.714
 5481TIP3    H216450   2.412   0.562   3.697
 5482TIP3   OH216451   0.437   0.408   2.904
 5482TIP3    H116452   0.405   0.417   2.994
 5482TIP3    H216453   0.358   0.416   2.850
 5483TIP3   OH216454   3.250   0.626   3.693
 5483TIP3    H116455   3.329   0.576   3.714
 5483TIP3    H216456   3.283   0.714   3.672
 5484TIP3   OH216457   5.790   3.385   0.657
 5484TIP3    H116458   5.872   3.382   0.608
 5484TIP3    H216459   5.790   3.304   0.708
 5485TIP3   OH216460   1.506   3.327   0.729
 5485TIP3    H116461   1.467   3.407   0.692
 5485TIP3    H216462   1.449   3.306   0.804
 5486TIP3   OH216463   3.496   3.031   3.541
 5486TIP3    H116464   3.509   2.937   3.553
 5486TIP3    H216465   3.584   3.066   3.527
 5487TIP3   OH216466   1.608   2.715   0.236
 5487TIP3    H116467   1.595   2.667   0.318
 5487TIP3    H216468   1.618   2.806   0.262
 5488TIP3   OH216469   0.241   2.301   1.605
 5488TIP3    H116470   0.303   2.372   1.589
 5488TIP3    H216471   0.251   2.281   1.698
 5489TIP3   OH216472   4.346   3.239   4.892
 5489TIP3    H116473   4.371   3.164   4.945
 5489TIP3    H216474   4.390   3.314   4.933
 5490TIP3   OH216475   5.013   0.642   2.685
 5490TIP3    H116476   5.089   0.598   2.647
 5490TIP3    H216477   5.041   0.732   2.699
 5491TIP3   OH216478   1.009   1.931   2.158
 5491TIP3    H116479   1.102   1.948   2.176
 5491TIP3    H216480   0.979   1.882   2.235
 5492TIP3   OH216481   0.280   2.359   4.594
 5492TIP3    H116482   0.253   2.322   4.678
 5492TIP3    H216483   0.364   2.316   4.575
 5493TIP3   OH216484   1.803   5.140   0.694
 5493TIP3    H116485   1.824   5.233   0.697
 5493TIP3    H216486   1.806   5.112   0.786
 5494TIP3   OH216487   2.213   2.906   1.240
 5494TIP3    H116488   2.164   2.866   1.168
 5494TIP3    H216489   2.173   2.870   1.319
 5495TIP3   OH216490   1.654   5.190   2.314
 5495TIP3    H116491   1.590   5.140   2.263
 5495TIP3    H216492   1.641   5.281   2.285
 5496TIP3   OH216493   6.142   1.958   0.976
 5496TIP3    H116494   6.225   1.927   0.940
 5496TIP3    H216495   6.129   2.045   0.937
 5497TIP3   OH216496   1.103   0.798   4.641
 5497TIP3    H116497   1.103   0.887   4.676
 5497TIP3    H216498   1.187   0.791   4.594
 5498TIP3   OH216499   0.702   1.796   0.540
 5498TIP3    H116500   0.778   1.809   0.483
 5498TIP3    H216501   0.739   1.787   0.628
 5499TIP3   OH216502   5.070   3.350   4.930
 5499TIP3    H116503   5.037   3.390   4.850
 5499TIP3    H216504   5.134   3.412   4.965
 5500TIP3   OH216505   5.678   1.161   0.960
 5500TIP3    H116506   5.733   1.190   0.888
 5500TIP3    H216507   5.739   1.142   1.031
 5501TIP3   OH216508   2.978   3.833   1.698
 5501TIP3    H116509   3.002   3.792   1.782
 5501TIP3    H216510   3.015   3.921   1.703
 5502TIP3   OH216511   2.008   3.577   2.843
 5502TIP3    H116512   2.019   3.601   2.935
 5502TIP3    H216513   2.094   3.546   2.815
 5503TIP3   OH216514   2.104   0.313   4.826
 5503TIP3    H116515   2.146   0.236   4.789
 5503TIP3    H216516   2.036   0.278   4.884
 5504TIP3   OH216517   4.764   1.762   4.568
 5504TIP3    H116518   4.777   1.705   4.644
 5504TIP3    H216519   4.845   1.753   4.518
 5505TIP3   OH216520   1.755   3.510   3.605
 5505TIP3    H116521   1.674   3.498   3.555
 5505TIP3    H216522   1.749   3.446   3.676
 5506TIP3   OH216523   0.375   1.438   4.939
 5506TIP3    H116524   0.453   1.394   4.906
 5506TIP3    H216525   0.305   1.410   4.881
 5507TIP3   OH216526   4.014   2.779   2.644
 5507TIP3    H116527   4.090   2.762   2.699
 5507TIP3    H216528   3.997   2.696   2.600
 5508TIP3   OH216529   6.136   2.101   1.252
 5508TIP3    H116530   6.180   2.164   1.309
 5508TIP3    H216531   6.155   2.132   1.164
 5509TIP3   OH216532   5.991   5.676   4.991
 5509TIP3    H116533   5.940   5.624   5.053
 5509TIP3    H216534   5.964   5.642   4.905
 5510TIP3   OH216535   2.621   3.517   2.864
 5510TIP3    H116536   2.566   3.445   2.896
 5510TIP3    H216537   2.563   3.569   2.808
 5511TIP3   OH216538   3.142   3.384   5.166
 5511TIP3    H116539   3.229   3.364   5.131
 5511TIP3    H216540   3.120   3.469   5.128
 5512TIP3   OH216541   0.775   4.133   4.886
 5512TIP3    H116542   0.813   4.221   4.881
 5512TIP3    H216543   0.837   4.077   4.839
 5513TIP3   OH216544   3.121   2.468   2.350
 5513TIP3    H116545   3.190   2.466   2.284
 5513TIP3    H216546   3.076   2.384   2.341
 5514TIP3   OH216547   2.952   2.846   4.839
 5514TIP3    H116548   2.958   2.911   4.909
 5514TIP3    H216549   2.899   2.775   4.876
 5515TIP3   OH216550   5.661   1.721   1.130
 5515TIP3    H116551   5.645   1.638   1.084
 5515TIP3    H216552   5.744   1.708   1.176
 5516TIP3   OH216553   5.928   5.461   0.950
 5516TIP3    H116554   5.998   5.396   0.950
 5516TIP3    H216555   5.851   5.413   0.981
 5517TIP3   OH216556   2.354   0.919   1.493
 5517TIP3    H116557   2.435   0.943   1.536
 5517TIP3    H216558   2.328   0.836   1.534
 5518TIP3   OH216559   4.509   0.555   4.026
 5518TIP3    H116560   4.508   0.487   4.093
 5518TIP3    H216561   4.590   0.603   4.042
 5519TIP3   OH216562   1.471   5.255   0.971
 5519TIP3    H116563   1.402   5.189   0.968
 5519TIP3    H216564   1.439   5.326   0.914
 5520TIP3   OH216565   6.178   1.797   3.741
 5520TIP3    H116566   6.270   1.800   3.718
 5520TIP3    H216567   6.133   1.774   3.660
 5521TIP3   OH216568   0.053   4.852   3.069
 5521TIP3    H116569   0.034   4.770   3.114
 5521TIP3    H216570   0.148   4.854   3.063
 5522TIP3   OH216571   0.580   3.814   1.811
 5522TIP3    H116572   0.644   3.883   1.827
 5522TIP3    H216573   0.612   3.739   1.861
 5523TIP3   OH216574   0.749   5.050   2.705
 5523TIP3    H116575   0.836   5.021   2.732
 5523TIP3    H216576   0.692   4.975   2.722
 5524TIP3   OH216577   3.185   4.693   2.671
 5524TIP3    H116578   3.103   4.677   2.717
 5524TIP3    H216579   3.242   4.731   2.737
 5525TIP3   OH216580   5.026   4.474   4.284
 5525TIP3    H116581   5.118   4.497   4.273
 5525TIP3    H216582   5.027   4.391   4.332
 5526TIP3   OH216583   0.165   2.017   0.375
 5526TIP3    H116584   0.213   2.035   0.295
 5526TIP3    H216585   0.075   2.001   0.346
 5527TIP3   OH216586   4.967   3.288   0.725
 5527TIP3    H116587   5.040   3.234   0.757
 5527TIP3    H216588   4.891   3.231   0.730
 5528TIP3   OH216589   1.474   0.066   3.297
 5528TIP3    H116590   1.560   0.025   3.290
 5528TIP3    H216591   1.480   0.122   3.374
 5529TIP3   OH216592   4.291   2.055   2.981
 5529TIP3    H116593   4.374   2.006   2.983
 5529TIP3    H216594   4.223   1.988   2.981
 5530TIP3   OH216595   1.331   5.119   2.975
 5530TIP3    H116596   1.281   5.085   2.901
 5530TIP3    H216597   1.332   5.214   2.963
 5531TIP3   OH216598   2.705   3.570   4.351
 5531TIP3    H116599   2.636   3.514   4.313
 5531TIP3    H216600   2.786   3.535   4.314
 5532TIP3   OH216601   3.828   5.796   4.439
 5532TIP3    H116602   3.879   5.863   4.484
 5532TIP3    H216603   3.890   5.724   4.424
 5533TIP3   OH216604   5.121   5.900   0.284
 5533TIP3    H116605   5.137   5.809   0.258
 5533TIP3    H216606   5.206   5.931   0.316
 5534TIP3   OH216607   3.548   2.796   2.069
 5534TIP3    H116608   3.489   2.835   2.134
 5534TIP3    H216609   3.581   2.716   2.112
 5535TIP3   OH216610   4.256   4.469   0.201
 5535TIP3    H116611   4.206   4.543   0.166
 5535TIP3    H216612   4.302   4.434   0.125
 5536TIP3   OH216613   4.062   3.976   1.453
 5536TIP3    H116614   4.052   4.031   1.531
 5536TIP3    H216615   4.120   3.905   1.482
 5537TIP3   OH216616   3.340   0.109   0.128
 5537TIP3    H116617   3.380   0.186   0.087
 5537TIP3    H216618   3.323   0.049   0.056
 5538TIP3   OH216619   3.111   2.181   2.585
 5538TIP3    H116620   3.179   2.175   2.518
 5538TIP3    H216621   3.108   2.274   2.609
 5539TIP3   OH216622   2.847   1.509   4.669
 5539TIP3    H116623   2.828   1.510   4.575
 5539TIP3    H216624   2.766   1.478   4.710
 5540TIP3   OH216625   2.283   1.489   4.778
 5540TIP3    H116626   2.330   1.454   4.702
 5540TIP3    H216627   2.290   1.420   4.844
 5541TIP3   OH216628   1.234   1.215   1.606
 5541TIP3    H116629   1.252   1.163   1.684
 5541TIP3    H216630   1.270   1.163   1.534
 5542TIP3   OH216631   3.409   2.885   1.604
 5542TIP3    H116632   3.474   2.815   1.598
 5542TIP3    H216633   3.385   2.888   1.697
 5543TIP3   OH216634   5.175   2.340   1.023
 5543TIP3    H116635   5.203   2.323   1.113
 5543TIP3    H216636   5.234   2.286   0.969
 5544TIP3   OH216637   1.784   5.904   1.552
 5544TIP3    H116638   1.792   5.929   1.644
 5544TIP3    H216639   1.712   5.958   1.518
 5545TIP3   OH216640   1.458   4.331   4.695
 5545TIP3    H116641   1.504   4.366   4.771
 5545TIP3    H216642   1.479   4.392   4.624
 5546TIP3   OH216643   0.122   0.643   4.910
 5546TIP3    H116644   0.090   0.568   4.860
 5546TIP3    H216645   0.049   0.668   4.967
 5547TIP3   OH216646   1.323   5.611   1.077
 5547TIP3    H116647   1.312   5.539   1.139
 5547TIP3    H216648   1.372   5.678   1.126
 5548TIP3   OH216649   1.493   2.405   0.244
 5548TIP3    H116650   1.467   2.438   0.330
 5548TIP3    H216651   1.588   2.405   0.246
 5549TIP3   OH216652   1.161   0.159   5.085
 5549TIP3    H116653   1.192   0.095   5.149
 5549TIP3    H216654   1.172   0.115   5.001
 5550TIP3   OH216655   1.552   3.247   0.172
 5550TIP3    H116656   1.567   3.239   0.266
 5550TIP3    H216657   1.481   3.186   0.153
 5551TIP3   OH216658   0.132   3.308   3.630
 5551TIP3    H116659   0.192   3.239   3.602
 5551TIP3    H216660   0.187   3.370   3.678
 5552TIP3   OH216661   1.512   4.740   0.736
 5552TIP3    H116662   1.490   4.766   0.646
 5552TIP3    H216663   1.548   4.818   0.776
 5553TIP3   OH216664   3.845   3.773   4.940
 5553TIP3    H116665   3.870   3.864   4.960
 5553TIP3    H216666   3.928   3.731   4.917
 5554TIP3   OH216667   4.976   5.678   4.504
 5554TIP3    H116668   5.022   5.631   4.573
 5554TIP3    H216669   5.023   5.655   4.424
 5555TIP3   OH216670   2.920   5.522   0.610
 5555TIP3    H116671   2.956   5.435   0.591
 5555TIP3    H216672   2.943   5.575   0.533
 5556TIP3   OH216673   5.643   5.110   2.014
 5556TIP3    H116674   5.598   5.025   2.020
 5556TIP3    H216675   5.619   5.155   2.095
 5557TIP3   OH216676   4.547   1.085   3.334
 5557TIP3    H116677   4.615   1.067   3.399
 5557TIP3    H216678   4.595   1.121   3.259
 5558TIP3   OH216679   3.606   5.626   1.478
 5558TIP3    H116680   3.699   5.641   1.463
 5558TIP3    H216681   3.583   5.556   1.417
 5559TIP3   OH216682   5.028   3.113   1.191
 5559TIP3    H116683   5.114   3.124   1.231
 5559TIP3    H216684   4.972   3.083   1.263
 5560TIP3   OH216685   3.780   5.811   0.610
 5560TIP3    H116686   3.759   5.880   0.674
 5560TIP3    H216687   3.867   5.834   0.578
 5561TIP3   OH216688   5.851   1.594   3.558
 5561TIP3    H116689   5.770   1.627   3.519
 5561TIP3    H216690   5.839   1.607   3.652
 5562TIP3   OH216691   5.568   4.797   3.751
 5562TIP3    H116692   5.591   4.706   3.731
 5562TIP3    H216693   5.548   4.836   3.666
 5563TIP3   OH216694   3.330   2.507   5.163
 5563TIP3    H116695   3.391   2.581   5.158
 5563TIP3    H216696   3.259   2.532   5.104
 5564TIP3   OH216697   3.926   4.911   2.826
 5564TIP3    H116698   3.898   4.994   2.788
 5564TIP3    H216699   3.880   4.906   2.910
 5565TIP3   OH216700   1.042   0.630   2.129
 5565TIP3    H116701   1.107   0.672   2.073
 5565TIP3    H216702   1.036   0.541   2.097
 5566TIP3   OH216703   5.290   0.313   3.994
 5566TIP3    H116704   5.296   0.409   3.997
 5566TIP3    H216705   5.197   0.295   4.000
 5567TIP3   OH216706   2.966   0.792   2.647
 5567TIP3    H116707   3.056   0.821   2.663
 5567TIP3    H216708   2.950   0.814   2.555
 5568TIP3   OH216709   3.153   2.408   0.312
 5568TIP3    H116710   3.148   2.446   0.224
 5568TIP3    H216711   3.069   2.428   0.352
 5569TIP3   OH216712   6.287   3.377   2.202
 5569TIP3    H116713   6.269   3.465   2.170
 5569TIP3    H216714   6.302   3.325   2.123
 5570TIP3   OH216715   6.017   3.765   0.698
 5570TIP3    H116716   5.992   3.734   0.611
 5570TIP3    H216717   5.936   3.795   0.738
 5571TIP3   OH216718   2.219   0.133   3.927
 5571TIP3    H116719   2.231   0.140   3.832
 5571TIP3    H216720   2.306   0.111   3.961
 5572TIP3   OH216721   0.608   5.363   5.024
 5572TIP3    H116722   0.694   5.359   5.067
 5572TIP3    H216723   0.619   5.313   4.943
 5573TIP3   OH216724   4.571   1.379   1.569
 5573TIP3    H116725   4.494   1.373   1.625
 5573TIP3    H216726   4.552   1.320   1.496
 5574TIP3   OH216727   1.676   3.759   2.522
 5574TIP3    H116728   1.582   3.742   2.513
 5574TIP3    H216729   1.714   3.727   2.441
 5575TIP3   OH216730   3.685   3.647   1.080
 5575TIP3    H116731   3.596   3.677   1.101
 5575TIP3    H216732   3.675   3.602   0.996
 5576TIP3   OH216733   0.884   2.372   2.619
 5576TIP3    H116734   0.835   2.319   2.555
 5576TIP3    H216735   0.966   2.394   2.575
 5577TIP3   OH216736   1.416   0.653   3.654
 5577TIP3    H116737   1.440   0.564   3.682
 5577TIP3    H216738   1.444   0.658   3.563
 5578TIP3   OH216739   6.232   0.179   5.064
 5578TIP3    H116740   6.296   0.220   5.122
 5578TIP3    H216741   6.275   0.099   5.034
 5579TIP3   OH216742   5.313   4.180   0.637
 5579TIP3    H116743   5.230   4.175   0.685
 5579TIP3    H216744   5.375   4.218   0.700
 5580TIP3   OH216745   6.313   3.353   4.857
 5580TIP3    H116746   6.375   3.296   4.813
 5580TIP3    H216747   6.247   3.294   4.894
 5581TIP3   OH216748   5.704   2.786   4.233
 5581TIP3    H116749   5.648   2.812   4.160
 5581TIP3    H216750   5.682   2.847   4.303
 5582TIP3   OH216751   0.559   0.926   2.796
 5582TIP3    H116752   0.633   0.982   2.775
 5582TIP3    H216753   0.499   0.937   2.722
 5583TIP3   OH216754   3.506   0.828   0.102
 5583TIP3    H116755   3.518   0.738   0.132
 5583TIP3    H216756   3.568   0.837   0.029
 5584TIP3   OH216757   0.153   5.634   2.267
 5584TIP3    H116758   0.195   5.716   2.241
 5584TIP3    H216759   0.059   5.654   2.268
 5585TIP3   OH216760   4.353   1.423   3.223
 5585TIP3    H116761   4.273   1.417   3.274
 5585TIP3    H216762   4.423   1.407   3.287
 5586TIP3   OH216763   2.072   2.861   4.247
 5586TIP3    H116764   2.066   2.817   4.332
 5586TIP3    H216765   2.029   2.802   4.186
 5587TIP3   OH216766   4.226   3.218   1.195
 5587TIP3    H116767   4.155   3.235   1.257
 5587TIP3    H216768   4.228   3.296   1.139
 5588TIP3   OH216769   5.398   5.824   2.897
 5588TIP3    H116770   5.375   5.734   2.872
 5588TIP3    H216771   5.488   5.817   2.930
 5589TIP3   OH216772   2.910   4.442   2.881
 5589TIP3    H116773   2.996   4.400   2.879
 5589TIP3    H216774   2.893   4.466   2.790
 5590TIP3   OH216775   6.211   5.863   4.972
 5590TIP3    H116776   6.123   5.826   4.968
 5590TIP3    H216777   6.255   5.829   4.894
 5591TIP3   OH216778   3.658   2.684   0.523
 5591TIP3    H116779   3.723   2.739   0.566
 5591TIP3    H216780   3.689   2.677   0.432
 5592TIP3   OH216781   1.136   3.641   2.964
 5592TIP3    H116782   1.192   3.578   3.009
 5592TIP3    H216783   1.100   3.695   3.034
 5593TIP3   OH216784   3.843   0.272   2.307
 5593TIP3    H116785   3.844   0.249   2.400
 5593TIP3    H216786   3.775   0.339   2.299
 5594TIP3   OH216787   5.057   0.532   0.120
 5594TIP3    H116788   5.121   0.532   0.192
 5594TIP3    H216789   5.108   0.556   0.043
 5595TIP3   OH216790   4.249   4.564   2.832
 5595TIP3    H116791   4.303   4.642   2.843
 5595TIP3    H216792   4.225   4.538   2.921
 5596TIP3   OH216793   4.262   2.159   3.533
 5596TIP3    H116794   4.193   2.105   3.494
 5596TIP3    H216795   4.295   2.211   3.460
 5597TIP3   OH216796   0.081   4.071   4.324
 5597TIP3    H116797   0.080   4.125   4.245
 5597TIP3    H216798   0.007   4.102   4.376
 5598TIP3   OH216799   3.807   4.656   4.945
 5598TIP3    H116800   3.743   4.592   4.912
 5598TIP3    H216801   3.891   4.621   4.916
 5599TIP3   OH216802   6.099   0.410   3.718
 5599TIP3    H116803   6.150   0.347   3.769
 5599TIP3    H216804   6.153   0.490   3.718
 5600TIP3   OH216805   6.091   0.427   5.138
 5600TIP3    H116806   6.114   0.340   5.107
 5600TIP3    H216807   6.102   0.484   5.062
 5601TIP3   OH216808   5.322   4.341   0.019
 5601TIP3    H116809   5.408   4.324  -0.021
 5601TIP3    H216810   5.342   4.391   0.098
 5602TIP3   OH216811   4.156   4.613   3.791
 5602TIP3    H116812   4.143   4.699   3.752
 5602TIP3    H216813   4.073   4.568   3.779
 5603TIP3   OH216814   2.940   3.886   2.635
 5603TIP3    H116815   2.967   3.975   2.612
 5603TIP3    H216816   2.989   3.866   2.714
 5604TIP3   OH216817   5.464   0.263   0.959
 5604TIP3    H116818   5.543   0.304   0.923
 5604TIP3    H216819   5.392   0.311   0.919
 5605TIP3   OH216820   4.501   3.491   2.386
 5605TIP3    H116821   4.475   3.563   2.443
 5605TIP3    H216822   4.435   3.489   2.317
 5606TIP3   OH216823   3.781   5.514   2.521
 5606TIP3    H116824   3.714   5.557   2.575
 5606TIP3    H216825   3.758   5.537   2.431
 5607TIP3   OH216826   4.549   0.429   0.553
 5607TIP3    H116827   4.486   0.370   0.594
 5607TIP3    H216828   4.525   0.429   0.460
 5608TIP3   OH216829   2.991   4.071   3.243
 5608TIP3    H116830   2.971   4.072   3.336
 5608TIP3    H216831   2.997   3.978   3.221
 5609TIP3   OH216832   0.731   5.515   3.619
 5609TIP3    H116833   0.673   5.499   3.694
 5609TIP3    H216834   0.772   5.599   3.638
 5610TIP3   OH216835   4.337   3.263   4.014
 5610TIP3    H116836   4.303   3.258   3.925
 5610TIP3    H216837   4.354   3.173   4.039
 5611TIP3   OH216838   3.352   2.724   1.099
 5611TIP3    H116839   3.384   2.636   1.120
 5611TIP3    H216840   3.349   2.770   1.183
 5612TIP3   OH216841   0.407   4.652   0.248
 5612TIP3    H116842   0.446   4.739   0.243
 5612TIP3    H216843   0.384   4.641   0.341
 5613TIP3   OH216844   1.485   3.100   2.193
 5613TIP3    H116845   1.526   3.185   2.206
 5613TIP3    H216846   1.470   3.066   2.281
 5614TIP3   OH216847   3.454   2.866   4.638
 5614TIP3    H116848   3.522   2.919   4.596
 5614TIP3    H216849   3.457   2.782   4.592
 5615TIP3   OH216850   5.249   0.480   0.311
 5615TIP3    H116851   5.249   0.421   0.386
 5615TIP3    H216852   5.335   0.522   0.313
 5616TIP3   OH216853   5.207   3.170   1.395
 5616TIP3    H116854   5.164   3.185   1.480
 5616TIP3    H216855   5.295   3.206   1.407
 5617TIP3   OH216856   4.145   0.608   0.290
 5617TIP3    H116857   4.174   0.656   0.212
 5617TIP3    H216858   4.195   0.647   0.362
 5618TIP3   OH216859   6.133   0.585   1.076
 5618TIP3    H116860   6.056   0.543   1.115
 5618TIP3    H216861   6.113   0.590   0.983
 5619TIP3   OH216862   0.433   2.368   0.203
 5619TIP3    H116863   0.379   2.293   0.228
 5619TIP3    H216864   0.371   2.438   0.186
 5620TIP3   OH216865   4.638   5.243   2.239
 5620TIP3    H116866   4.644   5.227   2.145
 5620TIP3    H216867   4.545   5.238   2.258
 5621TIP3   OH216868   6.253   3.643   2.028
 5621TIP3    H116869   6.321   3.707   2.050
 5621TIP3    H216870   6.174   3.695   2.017
 5622TIP3   OH216871   5.093   0.736   0.471
 5622TIP3    H116872   5.057   0.733   0.382
 5622TIP3    H216873   5.168   0.677   0.470
 5623TIP3   OH216874   2.691   2.425   0.137
 5623TIP3    H116875   2.616   2.482   0.153
 5623TIP3    H216876   2.756   2.482   0.097
 5624TIP3   OH216877   3.027   1.258   4.893
 5624TIP3    H116878   3.029   1.231   4.985
 5624TIP3    H216879   3.081   1.337   4.890
 5625TIP3   OH216880   5.159   2.515   0.774
 5625TIP3    H116881   5.136   2.492   0.864
 5625TIP3    H216882   5.156   2.610   0.772
 5626TIP3   OH216883   1.497   3.087   5.043
 5626TIP3    H116884   1.429   3.105   4.978
 5626TIP3    H216885   1.475   3.000   5.077
 5627TIP3   OH216886   5.285   5.334   1.404
 5627TIP3    H116887   5.267   5.423   1.433
 5627TIP3    H216888   5.271   5.337   1.309
 5628TIP3   OH216889   3.127   1.226   0.983
 5628TIP3    H116890   3.115   1.143   1.030
 5628TIP3    H216891   3.060   1.225   0.915
 5629TIP3   OH216892   6.322   2.663   1.164
 5629TIP3    H116893   6.339   2.578   1.123
 5629TIP3    H216894   6.371   2.661   1.245
 5630TIP3   OH216895   4.451   3.789   3.120
 5630TIP3    H116896   4.523   3.729   3.102
 5630TIP3    H216897   4.381   3.733   3.155
 5631TIP3   OH216898   2.411   3.606   4.866
 5631TIP3    H116899   2.443   3.516   4.864
 5631TIP3    H216900   2.409   3.632   4.774
 5632TIP3   OH216901   5.042   1.631   4.551
 5632TIP3    H116902   5.048   1.650   4.644
 5632TIP3    H216903   5.132   1.638   4.519
 5633TIP3   OH216904   5.798   2.546   0.831
 5633TIP3    H116905   5.715   2.500   0.820
 5633TIP3    H216906   5.864   2.482   0.805
 5634TIP3   OH216907   1.748   4.320   1.116
 5634TIP3    H116908   1.798   4.244   1.087
 5634TIP3    H216909   1.808   4.394   1.103
 5635TIP3   OH216910   4.290   5.452   2.486
 5635TIP3    H116911   4.296   5.405   2.403
 5635TIP3    H216912   4.202   5.490   2.487
 5636TIP3   OH216913   1.176   4.154   1.219
 5636TIP3    H116914   1.170   4.249   1.220
 5636TIP3    H216915   1.161   4.128   1.310
 5637TIP3   OH216916   0.912   5.818   0.453
 5637TIP3    H116917   0.985   5.843   0.509
 5637TIP3    H216918   0.952   5.799   0.368
 5638TIP3   OH216919   1.797   2.838   1.075
 5638TIP3    H116920   1.758   2.891   1.145
 5638TIP3    H216921   1.723   2.815   1.019
 5639TIP3   OH216922   0.163   0.043   2.290
 5639TIP3    H116923   0.181  -0.049   2.308
 5639TIP3    H216924   0.250   0.084   2.288
 5640TIP3   OH216925   6.246   4.785   0.329
 5640TIP3    H116926   6.189   4.831   0.391
 5640TIP3    H216927   6.191   4.716   0.293
 5641TIP3   OH216928   2.981   5.500   4.526
 5641TIP3    H116929   3.001   5.412   4.557
 5641TIP3    H216930   2.904   5.488   4.469
 5642TIP3   OH216931   4.554   1.525   2.816
 5642TIP3    H116932   4.570   1.589   2.747
 5642TIP3    H216933   4.628   1.533   2.875
 5643TIP3   OH216934   3.521   1.979   4.447
 5643TIP3    H116935   3.524   1.952   4.539
 5643TIP3    H216936   3.494   2.071   4.450
 5644TIP3   OH216937   5.365   3.108   2.510
 5644TIP3    H116938   5.444   3.091   2.561
 5644TIP3    H216939   5.341   3.023   2.473
 5645TIP3   OH216940   0.774   2.685   1.462
 5645TIP3    H116941   0.710   2.691   1.533
 5645TIP3    H216942   0.852   2.729   1.496
 5646TIP3   OH216943   1.973   5.944   3.569
 5646TIP3    H116944   1.921   5.948   3.649
 5646TIP3    H216945   1.971   6.034   3.535
 5647TIP3   OH216946   5.492   0.982   0.535
 5647TIP3    H116947   5.580   0.960   0.563
 5647TIP3    H216948   5.471   0.916   0.468
 5648TIP3   OH216949   5.516   1.289   1.833
 5648TIP3    H116950   5.428   1.327   1.824
 5648TIP3    H216951   5.504   1.218   1.897
 5649TIP3   OH216952   1.733   0.133   2.044
 5649TIP3    H116953   1.659   0.181   2.006
 5649TIP3    H216954   1.808   0.192   2.035
 5650TIP3   OH216955   1.734   1.875   4.505
 5650TIP3    H116956   1.803   1.895   4.569
 5650TIP3    H216957   1.738   1.779   4.496
 5651TIP3   OH216958   2.098   3.883   4.066
 5651TIP3    H116959   2.110   3.822   3.993
 5651TIP3    H216960   2.010   3.863   4.099
 5652TIP3   OH216961   2.634   1.713   4.021
 5652TIP3    H116962   2.659   1.704   4.113
 5652TIP3    H216963   2.565   1.779   4.022
 5653TIP3   OH216964   1.993   0.471   3.770
 5653TIP3    H116965   1.960   0.382   3.759
 5653TIP3    H216966   1.944   0.506   3.844
 5654TIP3   OH216967   3.281   1.930   1.947
 5654TIP3    H116968   3.366   1.891   1.965
 5654TIP3    H216969   3.218   1.874   1.993
 5655TIP3   OH216970   2.233   4.684   3.260
 5655TIP3    H116971   2.322   4.717   3.249
 5655TIP3    H216972   2.177   4.752   3.223
 5656TIP3   OH216973   3.099   5.593   1.217
 5656TIP3    H116974   3.123   5.501   1.209
 5656TIP3    H216975   3.068   5.602   1.307
 5657TIP3   OH216976   5.107   3.680   0.639
 5657TIP3    H116977   5.068   3.718   0.561
 5657TIP3    H216978   5.087   3.741   0.709
 5658TIP3   OH216979   1.603   0.663   0.352
 5658TIP3    H116980   1.520   0.684   0.310
 5658TIP3    H216981   1.632   0.583   0.309
 5659TIP3   OH216982   2.858   1.369   3.186
 5659TIP3    H116983   2.943   1.330   3.164
 5659TIP3    H216984   2.875   1.463   3.189
 5660TIP3   OH216985   5.777   2.302   1.185
 5660TIP3    H116986   5.757   2.261   1.100
 5660TIP3    H216987   5.814   2.231   1.238
 5661TIP3   OH216988   1.479   1.072   0.095
 5661TIP3    H116989   1.526   1.038   0.171
 5661TIP3    H216990   1.530   1.041   0.020
 5662TIP3   OH216991   0.516   4.280   4.108
 5662TIP3    H116992   0.459   4.225   4.162
 5662TIP3    H216993   0.517   4.365   4.152
 5663TIP3   OH216994   0.870   5.681   4.876
 5663TIP3    H116995   0.822   5.728   4.944
 5663TIP3    H216996   0.929   5.748   4.839
 5664TIP3   OH216997   5.491   0.981   1.767
 5664TIP3    H116998   5.402   1.015   1.753
 5664TIP3    H216999   5.507   0.925   1.692
 5665TIP3   OH217000   4.768   2.043   4.594
 5665TIP3    H117001   4.740   1.952   4.592
 5665TIP3    H217002   4.697   2.089   4.640
 5666TIP3   OH217003   3.623   1.787   3.829
 5666TIP3    H117004   3.580   1.702   3.817
 5666TIP3    H217005   3.688   1.770   3.898
 5667TIP3   OH217006   5.471   3.927   3.395
 5667TIP3    H117007   5.525   3.848   3.398
 5667TIP3    H217008   5.427   3.924   3.310
 5668TIP3   OH217009   0.926   1.970   0.999
 5668TIP3    H117010   1.007   2.019   0.984
 5668TIP3    H217011   0.891   2.005   1.081
 5669TIP3   OH217012   4.498   3.077   3.292
 5669TIP3    H117013   4.563   3.145   3.309
 5669TIP3    H217014   4.417   3.112   3.329
 5670TIP3   OH217015   0.273   5.511   0.160
 5670TIP3    H117016   0.338   5.517   0.230
 5670TIP3    H217017   0.188   5.518   0.205
 5671TIP3   OH217018   5.539   0.679   2.612
 5671TIP3    H117019   5.551   0.704   2.521
 5671TIP3    H217020   5.521   0.762   2.657
 5672TIP3   OH217021   0.364   0.418   1.545
 5672TIP3    H117022   0.307   0.362   1.597
 5672TIP3    H217023   0.308   0.454   1.477
 5673TIP3   OH217024   1.206   1.906   4.167
 5673TIP3    H117025   1.176   1.973   4.228
 5673TIP3    H217026   1.184   1.823   4.209
 5674TIP3   OH217027   0.854   2.212   1.278
 5674TIP3    H117028   0.887   2.134   1.322
 5674TIP3    H217029   0.830   2.272   1.350
 5675TIP3   OH217030   3.786   2.894   0.316
 5675TIP3    H117031   3.804   2.908   0.223
 5675TIP3    H217032   3.803   2.980   0.356
 5676TIP3   OH217033   0.989   4.830   1.237
 5676TIP3    H117034   0.927   4.895   1.271
 5676TIP3    H217035   0.934   4.757   1.207
 5677TIP3   OH217036   1.932   4.690   0.044
 5677TIP3    H117037   1.973   4.715   0.127
 5677TIP3    H217038   1.971   4.605   0.023
 5678TIP3   OH217039   2.999   1.281   3.440
 5678TIP3    H117040   2.996   1.253   3.532
 5678TIP3    H217041   2.920   1.334   3.428
 5679TIP3   OH217042   6.119   2.887   1.767
 5679TIP3    H117043   6.210   2.881   1.737
 5679TIP3    H217044   6.069   2.838   1.702
 5680TIP3   OH217045   0.557   3.255   1.502
 5680TIP3    H117046   0.528   3.197   1.572
 5680TIP3    H217047   0.526   3.213   1.422
 5681TIP3   OH217048   3.095   3.811   2.881
 5681TIP3    H117049   3.060   3.757   2.952
 5681TIP3    H217050   3.189   3.795   2.884
 5682TIP3   OH217051   2.362   2.278   3.442
 5682TIP3    H117052   2.356   2.342   3.371
 5682TIP3    H217053   2.271   2.264   3.469
 5683TIP3   OH217054   3.459   0.245   1.072
 5683TIP3    H117055   3.493   0.156   1.079
 5683TIP3    H217056   3.364   0.236   1.084
 5684TIP3   OH217057   6.165   4.381   0.378
 5684TIP3    H117058   6.120   4.297   0.383
 5684TIP3    H217059   6.217   4.385   0.459
 5685TIP3   OH217060   5.889   1.866   4.818
 5685TIP3    H117061   5.808   1.913   4.839
 5685TIP3    H217062   5.911   1.818   4.897
 5686TIP3   OH217063   1.065   0.387   2.668
 5686TIP3    H117064   1.033   0.443   2.598
 5686TIP3    H217065   1.129   0.329   2.626
 5687TIP3   OH217066   1.111   5.212   2.569
 5687TIP3    H117067   1.073   5.290   2.609
 5687TIP3    H217068   1.090   5.221   2.476
 5688TIP3   OH217069   5.738   4.033   4.122
 5688TIP3    H117070   5.668   3.982   4.161
 5688TIP3    H217071   5.700   4.073   4.044
 5689TIP3   OH217072   3.501   2.946   0.392
 5689TIP3    H117073   3.442   2.895   0.448
 5689TIP3    H217074   3.577   2.889   0.379
 5690TIP3   OH217075   3.705   3.910   4.612
 5690TIP3    H117076   3.778   3.950   4.660
 5690TIP3    H217077   3.722   3.934   4.521
 5691TIP3   OH217078   2.546   5.532   4.267
 5691TIP3    H117079   2.534   5.566   4.356
 5691TIP3    H217080   2.573   5.608   4.216
 5692TIP3   OH217081   4.694   3.461   5.089
 5692TIP3    H117082   4.699   3.373   5.126
 5692TIP3    H217083   4.686   3.519   5.165
 5693TIP3   OH217084   3.218   2.309   3.397
 5693TIP3    H117085   3.288   2.247   3.376
 5693TIP3    H217086   3.254   2.363   3.468
 5694TIP3   OH217087   3.503   2.670   3.431
 5694TIP3    H117088   3.556   2.724   3.372
 5694TIP3    H217089   3.536   2.581   3.418
 5695TIP3   OH217090   0.182   0.305   0.314
 5695TIP3    H117091   0.253   0.285   0.374
 5695TIP3    H217092   0.222   0.303   0.227
 5696TIP3   OH217093   3.192   0.368   5.027
 5696TIP3    H117094   3.150   0.310   4.964
 5696TIP3    H217095   3.198   0.452   4.982
 5697TIP3   OH217096   4.768   1.583   4.096
 5697TIP3    H117097   4.716   1.517   4.051
 5697TIP3    H217098   4.771   1.657   4.036
 5698TIP3   OH217099   5.844   5.417   2.778
 5698TIP3    H117100   5.862   5.444   2.868
 5698TIP3    H217101   5.870   5.492   2.724
 5699TIP3   OH217102   3.094   0.795   3.480
 5699TIP3    H117103   3.104   0.711   3.525
 5699TIP3    H217104   3.155   0.854   3.526
 5700TIP3   OH217105   0.141   1.465   2.238
 5700TIP3    H117106   0.151   1.542   2.294
 5700TIP3    H217107   0.200   1.400   2.276
 5701TIP3   OH217108   3.375   5.740   4.459
 5701TIP3    H117109   3.321   5.820   4.452
 5701TIP3    H217110   3.422   5.736   4.376
 5702TIP3   OH217111   1.007   3.392   4.010
 5702TIP3    H117112   1.086   3.411   4.059
 5702TIP3    H217113   0.935   3.421   4.067
 5703TIP3   OH217114   3.545   3.614   3.407
 5703TIP3    H117115   3.613   3.679   3.427
 5703TIP3    H217116   3.464   3.653   3.440
 5704TIP3   OH217117   0.688   4.656   2.196
 5704TIP3    H117118   0.609   4.688   2.152
 5704TIP3    H217119   0.681   4.690   2.285
 5705TIP3   OH217120   4.435   1.341   1.230
 5705TIP3    H117121   4.454   1.260   1.182
 5705TIP3    H217122   4.386   1.312   1.307
 5706TIP3   OH217123   5.557   3.854   0.381
 5706TIP3    H117124   5.568   3.776   0.435
 5706TIP3    H217125   5.476   3.893   0.412
 5707TIP3   OH217126   5.623   2.580   2.992
 5707TIP3    H117127   5.618   2.528   3.072
 5707TIP3    H217128   5.591   2.666   3.017
 5708TIP3   OH217129   4.786   5.147   0.265
 5708TIP3    H117130   4.698   5.109   0.270
 5708TIP3    H217131   4.838   5.082   0.217
 5709TIP3   OH217132   0.856   5.015   4.414
 5709TIP3    H117133   0.866   4.991   4.322
 5709TIP3    H217134   0.909   5.095   4.423
 5710TIP3   OH217135   4.839   0.493   3.132
 5710TIP3    H117136   4.763   0.436   3.128
 5710TIP3    H217137   4.804   0.578   3.161
 5711TIP3   OH217138   5.888   3.681   0.448
 5711TIP3    H117139   5.801   3.660   0.483
 5711TIP3    H217140   5.933   3.597   0.444
 5712TIP3   OH217141   2.615   3.606   3.215
 5712TIP3    H117142   2.553   3.644   3.153
 5712TIP3    H217143   2.605   3.512   3.206
 5713TIP3   OH217144   0.475   1.429   5.181
 5713TIP3    H117145   0.446   1.447   5.091
 5713TIP3    H217146   0.530   1.504   5.204
 5714TIP3   OH217147   3.041   3.126   1.839
 5714TIP3    H117148   3.122   3.120   1.890
 5714TIP3    H217149   3.054   3.201   1.781
 5715TIP3   OH217150   0.145   3.011   3.866
 5715TIP3    H117151   0.203   3.051   3.802
 5715TIP3    H217152   0.173   3.046   3.950
 5716TIP3   OH217153   2.000   2.209   3.005
 5716TIP3    H117154   2.077   2.266   3.010
 5716TIP3    H217155   2.036   2.121   3.010
 5717TIP3   OH217156   4.457   5.523   3.999
 5717TIP3    H117157   4.516   5.457   4.036
 5717TIP3    H217158   4.479   5.603   4.045
 5718TIP3   OH217159   0.772   2.846   0.911
 5718TIP3    H117160   0.714   2.916   0.881
 5718TIP3    H217161   0.855   2.863   0.866
 5719TIP3   OH217162   4.037   2.143   4.178
 5719TIP3    H117163   4.011   2.166   4.267
 5719TIP3    H217164   4.067   2.053   4.184
 5720TIP3   OH217165   1.330   0.983   1.106
 5720TIP3    H117166   1.396   1.052   1.099
 5720TIP3    H217167   1.380   0.903   1.126
 5721TIP3   OH217168   0.622   5.827   1.592
 5721TIP3    H117169   0.543   5.777   1.610
 5721TIP3    H217170   0.609   5.910   1.638
 5722TIP3   OH217171   1.583   0.201   0.550
 5722TIP3    H117172   1.562   0.110   0.534
 5722TIP3    H217173   1.498   0.246   0.552
 5723TIP3   OH217174   3.598   3.267   5.175
 5723TIP3    H117175   3.518   3.261   5.122
 5723TIP3    H217176   3.615   3.361   5.182
 5724TIP3   OH217177   6.348   5.850   2.049
 5724TIP3    H117178   6.281   5.781   2.056
 5724TIP3    H217179   6.411   5.816   1.986
 5725TIP3   OH217180   3.357   2.939   1.865
 5725TIP3    H117181   3.328   3.028   1.887
 5725TIP3    H217182   3.407   2.911   1.941
 5726TIP3   OH217183   2.237   5.840   0.973
 5726TIP3    H117184   2.257   5.889   0.893
 5726TIP3    H217185   2.214   5.907   1.037
 5727TIP3   OH217186   2.887   1.657   2.235
 5727TIP3    H117187   2.862   1.589   2.298
 5727TIP3    H217188   2.855   1.624   2.151
 5728TIP3   OH217189   2.889   3.032   1.168
 5728TIP3    H117190   2.833   3.011   1.093
 5728TIP3    H217191   2.840   3.100   1.215
 5729TIP3   OH217192   5.512   2.332   2.646
 5729TIP3    H117193   5.600   2.295   2.655
 5729TIP3    H217194   5.454   2.261   2.675
 5730TIP3   OH217195   2.838   4.703   0.585
 5730TIP3    H117196   2.825   4.687   0.491
 5730TIP3    H217197   2.924   4.667   0.604
 5731TIP3   OH217198   5.489   2.129   0.607
 5731TIP3    H117199   5.426   2.098   0.672
 5731TIP3    H217200   5.470   2.223   0.598
 5732TIP3   OH217201   3.596   0.146   4.979
 5732TIP3    H117202   3.524   0.168   5.038
 5732TIP3    H217203   3.674   0.149   5.035
 5733TIP3   OH217204   5.651   2.550   3.698
 5733TIP3    H117205   5.695   2.536   3.782
 5733TIP3    H217206   5.721   2.575   3.639
 5734TIP3   OH217207   2.125   3.168   4.457
 5734TIP3    H117208   2.131   3.093   4.515
 5734TIP3    H217209   2.032   3.189   4.453
 5735TIP3   OH217210   6.169   0.869   3.517
 5735TIP3    H117211   6.189   0.808   3.446
 5735TIP3    H217212   6.087   0.911   3.491
 5736TIP3   OH217213   5.910   1.143   5.045
 5736TIP3    H117214   5.994   1.097   5.046
 5736TIP3    H217215   5.882   1.143   5.136
 5737TIP3   OH217216   6.020   5.026   4.747
 5737TIP3    H117217   6.038   4.998   4.657
 5737TIP3    H217218   6.039   4.950   4.801
 5738TIP3   OH217219   3.362   3.884   4.309
 5738TIP3    H117220   3.429   3.829   4.271
 5738TIP3    H217221   3.311   3.826   4.366
 5739TIP3   OH217222   0.945   5.136   3.754
 5739TIP3    H117223   0.899   5.125   3.670
 5739TIP3    H217224   0.889   5.195   3.804
 5740TIP3   OH217225   6.226   5.176   3.820
 5740TIP3    H117226   6.141   5.213   3.844
 5740TIP3    H217227   6.228   5.178   3.725
 5741TIP3   OH217228   4.624   4.820   3.075
 5741TIP3    H117229   4.684   4.774   3.132
 5741TIP3    H217230   4.637   4.913   3.096
 5742TIP3   OH217231   0.148   4.202   2.070
 5742TIP3    H117232   0.211   4.157   2.127
 5742TIP3    H217233   0.142   4.290   2.107
 5743TIP3   OH217234   4.926   3.432   2.940
 5743TIP3    H117235   4.838   3.425   2.976
 5743TIP3    H217236   4.974   3.359   2.979
 5744TIP3   OH217237   4.606   5.357   0.308
 5744TIP3    H117238   4.663   5.287   0.340
 5744TIP3    H217239   4.570   5.398   0.387
 5745TIP3   OH217240   1.701   0.369   2.643
 5745TIP3    H117241   1.756   0.428   2.591
 5745TIP3    H217242   1.618   0.415   2.651
 5746TIP3   OH217243   5.077   4.250   1.993
 5746TIP3    H117244   5.027   4.189   2.048
 5746TIP3    H217245   5.033   4.334   2.005
 5747TIP3   OH217246   2.488   1.214   0.622
 5747TIP3    H117247   2.563   1.233   0.566
 5747TIP3    H217248   2.450   1.300   0.642
 5748TIP3   OH217249   5.509   0.178   3.874
 5748TIP3    H117250   5.431   0.218   3.912
 5748TIP3    H217251   5.497   0.084   3.887
 5749TIP3   OH217252   0.193   1.211   1.701
 5749TIP3    H117253   0.197   1.240   1.792
 5749TIP3    H217254   0.281   1.179   1.682
 5750TIP3   OH217255   5.409   4.742   2.589
 5750TIP3    H117256   5.424   4.720   2.497
 5750TIP3    H217257   5.430   4.835   2.594
 5751TIP3   OH217258   1.574   2.579  -0.016
 5751TIP3    H117259   1.617   2.520   0.046
 5751TIP3    H217260   1.576   2.664   0.028
 5752TIP3   OH217261   5.468   5.012   2.716
 5752TIP3    H117262   5.385   5.042   2.752
 5752TIP3    H217263   5.508   5.091   2.678
 5753TIP3   OH217264   4.964   5.873   1.293
 5753TIP3    H117265   4.914   5.810   1.344
 5753TIP3    H217266   5.001   5.933   1.357
 5754TIP3   OH217267   0.810   0.274   2.755
 5754TIP3    H117268   0.885   0.334   2.752
 5754TIP3    H217269   0.802   0.250   2.847
 5755TIP3   OH217270   0.105   4.418   1.300
 5755TIP3    H117271   0.138   4.490   1.353
 5755TIP3    H217272   0.115   4.340   1.356
 5756TIP3   OH217273   2.102   1.953   3.922
 5756TIP3    H117274   2.136   2.042   3.935
 5756TIP3    H217275   2.007   1.963   3.928
 5757TIP3   OH217276   2.935   5.117   4.067
 5757TIP3    H117277   2.957   5.208   4.046
 5757TIP3    H217278   2.840   5.113   4.055
 5758TIP3   OH217279   5.912   0.028   4.156
 5758TIP3    H117280   5.895   0.096   4.222
 5758TIP3    H217281   6.002   0.042   4.129
 5759TIP3   OH217282   4.726   4.770   3.655
 5759TIP3    H117283   4.682   4.844   3.698
 5759TIP3    H217284   4.800   4.749   3.713
 5760TIP3   OH217285   2.460   0.962   3.130
 5760TIP3    H117286   2.517   1.033   3.101
 5760TIP3    H217287   2.513   0.883   3.118
 5761TIP3   OH217288   5.856   4.248   2.666
 5761TIP3    H117289   5.806   4.226   2.587
 5761TIP3    H217290   5.910   4.171   2.683
 5762TIP3   OH217291   0.373   5.104   4.593
 5762TIP3    H117292   0.302   5.050   4.629
 5762TIP3    H217293   0.331   5.188   4.573
 5763TIP3   OH217294   1.938   3.395   1.800
 5763TIP3    H117295   1.913   3.406   1.892
 5763TIP3    H217296   2.031   3.370   1.803
 5764TIP3   OH217297   6.223   0.428   1.854
 5764TIP3    H117298   6.268   0.499   1.809
 5764TIP3    H217299   6.244   0.350   1.802
 5765TIP3   OH217300   4.688   2.989   3.618
 5765TIP3    H117301   4.604   3.025   3.645
 5765TIP3    H217302   4.722   2.947   3.697
 5766TIP3   OH217303   4.919   4.494   2.604
 5766TIP3    H117304   4.875   4.445   2.674
 5766TIP3    H217305   4.873   4.578   2.600
 5767TIP3   OH217306   4.423   3.754   3.481
 5767TIP3    H117307   4.388   3.797   3.404
 5767TIP3    H217308   4.507   3.717   3.452
 5768TIP3   OH217309   1.202   5.544   2.263
 5768TIP3    H117310   1.130   5.560   2.324
 5768TIP3    H217311   1.178   5.594   2.185
 5769TIP3   OH217312   6.176   1.588   1.933
 5769TIP3    H117313   6.113   1.538   1.881
 5769TIP3    H217314   6.146   1.578   2.023
 5770TIP3   OH217315   0.050   1.586   2.546
 5770TIP3    H117316  -0.043   1.572   2.568
 5770TIP3    H217317   0.048   1.650   2.476
 5771TIP3   OH217318   4.307   5.618   2.706
 5771TIP3    H117319   4.257   5.665   2.640
 5771TIP3    H217320   4.399   5.631   2.681
 5772TIP3   OH217321   1.163   0.348   3.421
 5772TIP3    H117322   1.191   0.426   3.373
 5772TIP3    H217323   1.068   0.347   3.413
 5773TIP3   OH217324   2.057   5.568   4.159
 5773TIP3    H117325   2.053   5.551   4.065
 5773TIP3    H217326   1.965   5.572   4.186
 5774TIP3   OH217327   0.841   2.991   0.300
 5774TIP3    H117328   0.935   3.008   0.298
 5774TIP3    H217329   0.825   2.956   0.388
 5775TIP3   OH217330   5.078   3.104   3.969
 5775TIP3    H117331   5.092   3.156   4.048
 5775TIP3    H217332   4.983   3.107   3.956
 5776TIP3   OH217333   2.717   4.496   4.834
 5776TIP3    H117334   2.776   4.438   4.785
 5776TIP3    H217335   2.630   4.479   4.796
 5777TIP3   OH217336   1.610   5.467   2.328
 5777TIP3    H117337   1.674   5.487   2.397
 5777TIP3    H217338   1.525   5.473   2.373
 5778TIP3   OH217339   2.321   5.726   1.529
 5778TIP3    H117340   2.247   5.725   1.590
 5778TIP3    H217341   2.361   5.640   1.540
 5779TIP3   OH217342   4.685   0.297   1.483
 5779TIP3    H117343   4.726   0.382   1.468
 5779TIP3    H217344   4.715   0.272   1.571
 5780TIP3   OH217345   6.368   4.703   3.357
 5780TIP3    H117346   6.316   4.625   3.374
 5780TIP3    H217347   6.303   4.774   3.349
 5781TIP3   OH217348   2.461   3.326   3.818
 5781TIP3    H117349   2.527   3.314   3.750
 5781TIP3    H217350   2.461   3.243   3.867
 5782TIP3   OH217351   0.899   3.115   4.896
 5782TIP3    H117352   0.836   3.053   4.858
 5782TIP3    H217353   0.845   3.184   4.935
 5783TIP3   OH217354   0.063   4.955   0.455
 5783TIP3    H117355   0.152   4.921   0.467
 5783TIP3    H217356   0.016   4.884   0.410
 5784TIP3   OH217357   6.033   1.145   2.268
 5784TIP3    H117358   6.081   1.091   2.206
 5784TIP3    H217359   6.085   1.225   2.277
 5785TIP3   OH217360   2.942   4.752   2.814
 5785TIP3    H117361   2.934   4.695   2.891
 5785TIP3    H217362   2.857   4.795   2.807
 5786TIP3   OH217363   0.125   1.150   0.828
 5786TIP3    H117364   0.165   1.196   0.754
 5786TIP3    H217365   0.110   1.218   0.894
 5787TIP3   OH217366   4.509   1.121   0.159
 5787TIP3    H117367   4.494   1.031   0.132
 5787TIP3    H217368   4.487   1.123   0.252
 5788TIP3   OH217369   6.244   2.388   0.513
 5788TIP3    H117370   6.208   2.477   0.507
 5788TIP3    H217371   6.234   2.351   0.426
 5789TIP3   OH217372   5.105   1.339   2.331
 5789TIP3    H117373   5.147   1.307   2.411
 5789TIP3    H217374   5.024   1.379   2.361
 5790TIP3   OH217375   5.923   5.349   0.332
 5790TIP3    H117376   5.871   5.291   0.388
 5790TIP3    H217377   5.870   5.359   0.252
 5791TIP3   OH217378   1.894   4.476   4.232
 5791TIP3    H117379   1.977   4.456   4.188
 5791TIP3    H217380   1.919   4.523   4.311
 5792TIP3   OH217381   4.187   1.283   2.744
 5792TIP3    H117382   4.275   1.311   2.717
 5792TIP3    H217383   4.164   1.214   2.682
 5793TIP3   OH217384   3.238   5.532   2.462
 5793TIP3    H117385   3.156   5.499   2.424
 5793TIP3    H217386   3.299   5.459   2.452
 5794TIP3   OH217387   4.183   2.061   5.136
 5794TIP3    H117388   4.216   2.150   5.146
 5794TIP3    H217389   4.233   2.010   5.200
 5795TIP3   OH217390   2.479   2.511   2.588
 5795TIP3    H117391   2.563   2.479   2.556
 5795TIP3    H217392   2.414   2.460   2.541
 5796TIP3   OH217393   4.158   5.526   3.517
 5796TIP3    H117394   4.086   5.495   3.462
 5796TIP3    H217395   4.179   5.612   3.482
 5797TIP3   OH217396   2.865   1.632   3.328
 5797TIP3    H117397   2.871   1.639   3.423
 5797TIP3    H217398   2.824   1.713   3.300
 5798TIP3   OH217399   4.551   4.819   4.036
 5798TIP3    H117400   4.556   4.742   4.093
 5798TIP3    H217401   4.493   4.792   3.965
 5799TIP3   OH217402   0.541   0.025   4.189
 5799TIP3    H117403   0.541   0.106   4.138
 5799TIP3    H217404   0.634   0.001   4.195
 5800TIP3   OH217405   3.108   2.960   0.179
 5800TIP3    H117406   3.029   2.922   0.140
 5800TIP3    H217407   3.077   3.006   0.257
 5801TIP3   OH217408   2.963   3.356   3.766
 5801TIP3    H117409   3.027   3.389   3.828
 5801TIP3    H217410   2.878   3.374   3.806
 5802TIP3   OH217411   5.551   4.547   1.040
 5802TIP3    H117412   5.602   4.597   0.976
 5802TIP3    H217413   5.464   4.588   1.038
 5803TIP3   OH217414   2.864   2.283   1.737
 5803TIP3    H117415   2.913   2.201   1.732
 5803TIP3    H217416   2.849   2.307   1.646
 5804TIP3   OH217417   5.914   3.124   1.452
 5804TIP3    H117418   5.876   3.088   1.371
 5804TIP3    H217419   5.998   3.079   1.461
 5805TIP3   OH217420   1.755   5.958   3.756
 5805TIP3    H117421   1.678   6.010   3.733
 5805TIP3    H217422   1.724   5.868   3.753
 5806TIP3   OH217423   3.772   4.056   2.470
 5806TIP3    H117424   3.769   4.151   2.459
 5806TIP3    H217425   3.824   4.024   2.397
 5807TIP3   OH217426   2.148   3.968   0.380
 5807TIP3    H117427   2.141   4.044   0.438
 5807TIP3    H217428   2.203   3.907   0.428
 5808TIP3   OH217429   2.484   4.811   1.941
 5808TIP3    H117430   2.423   4.831   2.013
 5808TIP3    H217431   2.490   4.715   1.942
 5809TIP3   OH217432   5.903   2.288   1.554
 5809TIP3    H117433   5.971   2.223   1.574
 5809TIP3    H217434   5.828   2.235   1.526
 5810TIP3   OH217435   5.243   0.166   0.708
 5810TIP3    H117436   5.227   0.172   0.614
 5810TIP3    H217437   5.157   0.182   0.748
 5811TIP3   OH217438   0.187   2.326   0.352
 5811TIP3    H117439   0.251   2.395   0.369
 5811TIP3    H217440   0.196   2.265   0.425
 5812TIP3   OH217441   6.069   4.833   4.962
 5812TIP3    H117442   6.094   4.743   4.942
 5812TIP3    H217443   6.144   4.869   5.010
 5813TIP3   OH217444   3.166   1.555   0.014
 5813TIP3    H117445   3.201   1.631  -0.033
 5813TIP3    H217446   3.227   1.541   0.086
 5814TIP3   OH217447   1.555   0.487   4.352
 5814TIP3    H117448   1.553   0.497   4.447
 5814TIP3    H217449   1.463   0.494   4.325
 5815TIP3   OH217450   1.883   3.510   2.570
 5815TIP3    H117451   1.921   3.547   2.650
 5815TIP3    H217452   1.859   3.586   2.518
 5816TIP3   OH217453   4.128   5.864   0.227
 5816TIP3    H117454   4.181   5.823   0.159
 5816TIP3    H217455   4.139   5.958   0.212
 5817TIP3   OH217456   4.541   3.466   4.394
 5817TIP3    H117457   4.556   3.374   4.415
 5817TIP3    H217458   4.461   3.466   4.341
 5818TIP3   OH217459   3.371   5.851   1.153
 5818TIP3    H117460   3.301   5.908   1.120
 5818TIP3    H217461   3.421   5.906   1.213
 5819TIP3   OH217462   2.770   5.517   0.834
 5819TIP3    H117463   2.822   5.503   0.755
 5819TIP3    H217464   2.784   5.609   0.857
 5820TIP3   OH217465   1.916   1.015   4.053
 5820TIP3    H117466   1.945   0.939   4.002
 5820TIP3    H217467   1.841   0.983   4.103
 5821TIP3   OH217468   6.241   4.227   3.921
 5821TIP3    H117469   6.302   4.289   3.961
 5821TIP3    H217470   6.223   4.164   3.990
 5822TIP3   OH217471   0.657   4.626   2.489
 5822TIP3    H117472   0.586   4.588   2.541
 5822TIP3    H217473   0.735   4.577   2.515
 5823TIP3   OH217474   4.944   2.700   4.241
 5823TIP3    H117475   5.014   2.700   4.177
 5823TIP3    H217476   4.960   2.623   4.295
 5824TIP3   OH217477   1.475   3.188   1.784
 5824TIP3    H117478   1.561   3.228   1.771
 5824TIP3    H217479   1.461   3.136   1.704
 5825TIP3   OH217480   0.998   5.293   1.407
 5825TIP3    H117481   1.047   5.348   1.346
 5825TIP3    H217482   0.985   5.211   1.361
 5826TIP3   OH217483   5.711   1.432   4.283
 5826TIP3    H117484   5.657   1.442   4.205
 5826TIP3    H217485   5.792   1.479   4.263
 5827TIP3   OH217486   5.530   1.568   2.053
 5827TIP3    H117487   5.452   1.582   1.999
 5827TIP3    H217488   5.499   1.583   2.143
 5828TIP3   OH217489   4.165   2.700   5.134
 5828TIP3    H117490   4.193   2.743   5.215
 5828TIP3    H217491   4.142   2.772   5.075
 5829TIP3   OH217492   1.779   5.613   1.543
 5829TIP3    H117493   1.802   5.606   1.450
 5829TIP3    H217494   1.840   5.677   1.579
 5830TIP3   OH217495   5.166   4.332   1.562
 5830TIP3    H117496   5.122   4.415   1.543
 5830TIP3    H217497   5.256   4.357   1.584
 5831TIP3   OH217498   3.074   4.614   0.418
 5831TIP3    H117499   3.043   4.639   0.330
 5831TIP3    H217500   3.059   4.520   0.423
 5832TIP3   OH217501   3.729   1.594   3.331
 5832TIP3    H117502   3.782   1.602   3.252
 5832TIP3    H217503   3.652   1.543   3.304
 5833TIP3   OH217504   3.284   3.848   0.028
 5833TIP3    H117505   3.190   3.859   0.042
 5833TIP3    H217506   3.317   3.937   0.017
 5834TIP3   OH217507   1.820   1.116   4.586
 5834TIP3    H117508   1.800   1.140   4.496
 5834TIP3    H217509   1.735   1.097   4.626
 5835TIP3   OH217510   2.258   4.362   4.883
 5835TIP3    H117511   2.320   4.336   4.815
 5835TIP3    H217512   2.243   4.283   4.934
 5836TIP3   OH217513   2.064   4.140   2.888
 5836TIP3    H117514   2.121   4.063   2.891
 5836TIP3    H217515   2.050   4.164   2.979
 5837TIP3   OH217516   1.860   2.310   1.332
 5837TIP3    H117517   1.788   2.368   1.358
 5837TIP3    H217518   1.860   2.240   1.398
 5838TIP3   OH217519   5.857   1.604   2.488
 5838TIP3    H117520   5.830   1.606   2.580
 5838TIP3    H217521   5.937   1.657   2.485
 5839TIP3   OH217522   2.684   1.783   0.991
 5839TIP3    H117523   2.717   1.873   0.993
 5839TIP3    H217524   2.705   1.748   1.078
 5840TIP3   OH217525   5.857   2.501   3.502
 5840TIP3    H117526   5.829   2.410   3.515
 5840TIP3    H217527   5.949   2.501   3.531
 5841TIP3   OH217528   4.963   4.744   5.083
 5841TIP3    H117529   4.910   4.793   5.146
 5841TIP3    H217530   5.034   4.707   5.136
 5842TIP3   OH217531   3.727   5.461   4.063
 5842TIP3    H117532   3.772   5.411   4.130
 5842TIP3    H217533   3.744   5.553   4.085
 5843TIP3   OH217534   3.656   2.288  -0.007
 5843TIP3    H117535   3.694   2.356   0.048
 5843TIP3    H217536   3.709   2.210   0.010
 5844TIP3   OH217537   1.924   3.587   4.205
 5844TIP3    H117538   1.908   3.492   4.201
 5844TIP3    H217539   2.015   3.595   4.232
 5845TIP3   OH217540   2.204   5.738   1.283
 5845TIP3    H117541   2.216   5.662   1.226
 5845TIP3    H217542   2.248   5.712   1.365
 5846TIP3   OH217543   1.790   0.586   2.469
 5846TIP3    H117544   1.750   0.604   2.384
 5846TIP3    H217545   1.872   0.634   2.467
 5847TIP3   OH217546   5.776   4.381   1.814
 5847TIP3    H117547   5.845   4.383   1.748
 5847TIP3    H217548   5.821   4.361   1.896
 5848TIP3   OH217549   3.699   4.044   1.813
 5848TIP3    H117550   3.789   4.015   1.823
 5848TIP3    H217551   3.681   4.034   1.719
 5849TIP3   OH217552   2.775   4.206   3.460
 5849TIP3    H117553   2.746   4.148   3.530
 5849TIP3    H217554   2.701   4.265   3.445
 5850TIP3   OH217555   3.123   5.793   0.409
 5850TIP3    H117556   3.215   5.770   0.404
 5850TIP3    H217557   3.081   5.740   0.341
 5851TIP3   OH217558   1.228   5.507   0.400
 5851TIP3    H117559   1.167   5.450   0.354
 5851TIP3    H217560   1.184   5.529   0.482
 5852TIP3   OH217561   1.302   1.245   2.077
 5852TIP3    H117562   1.349   1.283   2.152
 5852TIP3    H217563   1.243   1.315   2.048
 5853TIP3   OH217564   5.655   5.600   4.818
 5853TIP3    H117565   5.731   5.632   4.768
 5853TIP3    H217566   5.689   5.526   4.867
 5854TIP3   OH217567   5.454   0.946   1.318
 5854TIP3    H117568   5.413   0.999   1.250
 5854TIP3    H217569   5.409   0.970   1.399
 5855TIP3   OH217570   4.650   2.284   3.619
 5855TIP3    H117571   4.697   2.322   3.544
 5855TIP3    H217572   4.675   2.339   3.693
 5856TIP3   OH217573   3.277   1.492   1.780
 5856TIP3    H117574   3.279   1.463   1.871
 5856TIP3    H217575   3.185   1.488   1.755
 5857TIP3   OH217576   3.133   4.260   4.543
 5857TIP3    H117577   3.077   4.298   4.475
 5857TIP3    H217578   3.128   4.321   4.616
 5858TIP3   OH217579   2.923   1.051   0.759
 5858TIP3    H117580   3.015   1.050   0.734
 5858TIP3    H217581   2.887   1.127   0.713
 5859TIP3   OH217582   4.133   2.400   4.117
 5859TIP3    H117583   4.105   2.309   4.127
 5859TIP3    H217584   4.200   2.412   4.184
 5860TIP3   OH217585   4.354   3.008   2.123
 5860TIP3    H117586   4.380   3.098   2.102
 5860TIP3    H217587   4.313   2.976   2.043
 5861TIP3   OH217588   3.472   0.919   4.878
 5861TIP3    H117589   3.549   0.957   4.920
 5861TIP3    H217590   3.449   0.844   4.933
 5862TIP3   OH217591   4.657   1.104   0.630
 5862TIP3    H117592   4.601   1.063   0.696
 5862TIP3    H217593   4.732   1.046   0.623
 5863TIP3   OH217594   3.979   3.296   0.918
 5863TIP3    H117595   4.034   3.330   0.848
 5863TIP3    H217596   4.013   3.208   0.934
 5864TIP3   OH217597   1.362   4.384   0.970
 5864TIP3    H117598   1.445   4.428   0.952
 5864TIP3    H217599   1.302   4.419   0.904
 5865TIP3   OH217600   5.997   4.153   0.398
 5865TIP3    H117601   5.917   4.130   0.445
 5865TIP3    H217602   6.051   4.074   0.402
 5866TIP3   OH217603   5.090   3.298   5.206
 5866TIP3    H117604   5.082   3.301   5.110
 5866TIP3    H217605   5.126   3.384   5.229
 5867TIP3   OH217606   3.669   1.650   5.007
 5867TIP3    H117607   3.735   1.611   4.950
 5867TIP3    H217608   3.690   1.614   5.094
 5868TIP3   OH217609   4.259   3.859   2.056
 5868TIP3    H117610   4.233   3.797   2.124
 5868TIP3    H217611   4.355   3.854   2.055
 5869TIP3   OH217612   2.830   0.316   1.928
 5869TIP3    H117613   2.853   0.264   2.005
 5869TIP3    H217614   2.837   0.407   1.957
 5870TIP3   OH217615   2.058   2.925   3.556
 5870TIP3    H117616   1.998   2.906   3.628
 5870TIP3    H217617   2.117   2.992   3.590
 5871TIP3   OH217618   5.692   5.591   3.722
 5871TIP3    H117619   5.649   5.515   3.761
 5871TIP3    H217620   5.757   5.618   3.787
 5872TIP3   OH217621   3.963   3.178   1.317
 5872TIP3    H117622   3.870   3.157   1.314
 5872TIP3    H217623   4.004   3.119   1.254
 5873TIP3   OH217624   2.851   5.913   4.687
 5873TIP3    H117625   2.878   5.895   4.777
 5873TIP3    H217626   2.929   5.893   4.635
 5874TIP3   OH217627   4.979   3.652   3.149
 5874TIP3    H117628   4.905   3.602   3.116
 5874TIP3    H217629   5.003   3.711   3.077
 5875TIP3   OH217630   1.916   0.761   1.323
 5875TIP3    H117631   2.008   0.746   1.343
 5875TIP3    H217632   1.869   0.724   1.397
 5876TIP3   OH217633   2.839   1.087   0.373
 5876TIP3    H117634   2.803   1.018   0.428
 5876TIP3    H217635   2.795   1.167   0.401
 5877TIP3   OH217636   5.165   4.948   2.301
 5877TIP3    H117637   5.191   5.014   2.364
 5877TIP3    H217638   5.236   4.946   2.237
 5878TIP3   OH217639   1.064   4.311   3.187
 5878TIP3    H117640   1.138   4.276   3.137
 5878TIP3    H217641   1.079   4.278   3.276
 5879TIP3   OH217642   3.594   2.242   4.686
 5879TIP3    H117643   3.541   2.302   4.739
 5879TIP3    H217644   3.584   2.157   4.730
 5880TIP3   OH217645   0.792   1.312   4.568
 5880TIP3    H117646   0.866   1.281   4.620
 5880TIP3    H217647   0.729   1.240   4.570
 5881TIP3   OH217648   1.165   4.008   1.799
 5881TIP3    H117649   1.228   3.957   1.748
 5881TIP3    H217650   1.218   4.052   1.866
 5882TIP3   OH217651   0.274   4.356   1.093
 5882TIP3    H117652   0.223   4.375   1.172
 5882TIP3    H217653   0.324   4.436   1.076
 5883TIP3   OH217654   1.183   4.128   4.212
 5883TIP3    H117655   1.226   4.201   4.166
 5883TIP3    H217656   1.254   4.087   4.262
 5884TIP3   OH217657   6.090   3.324   1.636
 5884TIP3    H117658   6.120   3.253   1.693
 5884TIP3    H217659   5.996   3.308   1.625
 5885TIP3   OH217660   3.250   5.191   4.488
 5885TIP3    H117661   3.285   5.271   4.448
 5885TIP3    H217662   3.155   5.202   4.484
 5886TIP3   OH217663   3.304   3.236   3.568
 5886TIP3    H117664   3.269   3.224   3.656
 5886TIP3    H217665   3.363   3.162   3.555
 5887TIP3   OH217666   5.854   4.451   4.597
 5887TIP3    H117667   5.896   4.477   4.514
 5887TIP3    H217668   5.782   4.394   4.570
 5888TIP3   OH217669   2.756   5.377   4.358
 5888TIP3    H117670   2.665   5.370   4.387
 5888TIP3    H217671   2.771   5.472   4.350
 5889TIP3   OH217672   2.944   5.173   3.731
 5889TIP3    H117673   3.021   5.205   3.683
 5889TIP3    H217674   2.939   5.080   3.709
 5890TIP3   OH217675   6.063   0.174   2.488
 5890TIP3    H117676   5.988   0.230   2.466
 5890TIP3    H217677   6.104   0.217   2.562
 5891TIP3   OH217678   5.976   0.101   3.042
 5891TIP3    H117679   5.980   0.045   2.965
 5891TIP3    H217680   5.904   0.161   3.025
 5892TIP3   OH217681   0.067   1.977   0.988
 5892TIP3    H117682   0.069   2.066   0.953
 5892TIP3    H217683   0.107   1.984   1.075
 5893TIP3   OH217684   6.193   0.658   3.740
 5893TIP3    H117685   6.289   0.662   3.736
 5893TIP3    H217686   6.164   0.703   3.661
 5894TIP3   OH217687   4.095   2.885   1.502
 5894TIP3    H117688   4.037   2.924   1.567
 5894TIP3    H217689   4.038   2.833   1.446
 5895TIP3   OH217690   3.726   4.863   2.352
 5895TIP3    H117691   3.764   4.820   2.276
 5895TIP3    H217692   3.787   4.841   2.424
 5896TIP3   OH217693   2.271   5.787   4.372
 5896TIP3    H117694   2.308   5.827   4.450
 5896TIP3    H217695   2.318   5.704   4.362
 5897TIP3   OH217696   2.091   2.829   1.014
 5897TIP3    H117697   2.095   2.738   0.983
 5897TIP3    H217698   1.998   2.846   1.028
 5898TIP3   OH217699   4.591   4.192   2.020
 5898TIP3    H117700   4.617   4.281   2.042
 5898TIP3    H217701   4.520   4.203   1.956
 5899TIP3   OH217702   0.169   3.783   3.164
 5899TIP3    H117703   0.236   3.719   3.137
 5899TIP3    H217704   0.207   3.868   3.141
 5900TIP3   OH217705   0.230   2.178   2.187
 5900TIP3    H117706   0.310   2.230   2.193
 5900TIP3    H217707   0.196   2.174   2.276
 5901TIP3   OH217708   1.424   1.840   0.242
 5901TIP3    H117709   1.341   1.875   0.208
 5901TIP3    H217710   1.491   1.878   0.185
 5902TIP3   OH217711   1.573   1.020   4.662
 5902TIP3    H117712   1.485   1.012   4.624
 5902TIP3    H217713   1.596   0.930   4.687
 5903TIP3   OH217714   5.416   0.894   3.324
 5903TIP3    H117715   5.427   0.878   3.230
 5903TIP3    H217716   5.375   0.980   3.329
 5904TIP3   OH217717   0.884   1.630   0.313
 5904TIP3    H117718   0.885   1.579   0.394
 5904TIP3    H217719   0.905   1.719   0.340
 5905TIP3   OH217720   5.772   0.883   2.347
 5905TIP3    H117721   5.855   0.845   2.319
 5905TIP3    H217722   5.787   0.911   2.437
 5906TIP3   OH217723   4.790   3.796   4.354
 5906TIP3    H117724   4.763   3.821   4.442
 5906TIP3    H217725   4.801   3.701   4.358
 5907TIP3   OH217726   1.942   4.342   2.507
 5907TIP3    H117727   2.006   4.318   2.574
 5907TIP3    H217728   1.880   4.269   2.507
 5908TIP3   OH217729   2.788   1.109   4.451
 5908TIP3    H117730   2.850   1.067   4.511
 5908TIP3    H217731   2.715   1.046   4.445
 5909TIP3   OH217732   2.989   5.206   0.249
 5909TIP3    H117733   3.007   5.223   0.157
 5909TIP3    H217734   3.028   5.120   0.266
 5910TIP3   OH217735   2.048   4.562   3.928
 5910TIP3    H117736   1.970   4.545   3.875
 5910TIP3    H217737   2.098   4.481   3.923
 5911TIP3   OH217738   0.503   0.792   4.068
 5911TIP3    H117739   0.538   0.791   3.979
 5911TIP3    H217740   0.542   0.715   4.110
 5912TIP3   OH217741   4.780   3.094   0.695
 5912TIP3    H117742   4.729   3.040   0.755
 5912TIP3    H217743   4.717   3.124   0.630
 5913TIP3   OH217744   6.230   0.755   5.051
 5913TIP3    H117745   6.140   0.728   5.033
 5913TIP3    H217746   6.253   0.709   5.132
 5914TIP3   OH217747   2.723   4.147   1.233
 5914TIP3    H117748   2.780   4.224   1.242
 5914TIP3    H217749   2.728   4.124   1.141
 5915TIP3   OH217750   4.483   4.263   0.072
 5915TIP3    H117751   4.467   4.224  -0.014
 5915TIP3    H217752   4.406   4.240   0.123
 5916TIP3   OH217753   4.752   0.290   1.757
 5916TIP3    H117754   4.788   0.376   1.735
 5916TIP3    H217755   4.828   0.234   1.766
 5917TIP3   OH217756   0.489   3.669   3.442
 5917TIP3    H117757   0.579   3.642   3.425
 5917TIP3    H217758   0.473   3.742   3.383
 5918TIP3   OH217759   1.931   0.959   3.350
 5918TIP3    H117760   1.937   0.865   3.365
 5918TIP3    H217761   2.007   0.980   3.295
 5919TIP3   OH217762   4.629   0.799   1.036
 5919TIP3    H117763   4.637   0.753   1.120
 5919TIP3    H217764   4.662   0.736   0.972
 5920TIP3   OH217765   2.224   0.090   4.650
 5920TIP3    H117766   2.283   0.133   4.589
 5920TIP3    H217767   2.272   0.012   4.678
 5921TIP3   OH217768   0.279   0.822   4.233
 5921TIP3    H117769   0.367   0.825   4.195
 5921TIP3    H217770   0.220   0.840   4.160
 5922TIP3   OH217771   0.254   2.798   1.207
 5922TIP3    H117772   0.336   2.834   1.243
 5922TIP3    H217773   0.253   2.708   1.237
 5923TIP3   OH217774   6.343   2.700   3.054
 5923TIP3    H117775   6.408   2.684   3.122
 5923TIP3    H217776   6.313   2.613   3.029
 5924TIP3   OH217777   2.469   4.721   4.605
 5924TIP3    H117778   2.415   4.687   4.676
 5924TIP3    H217779   2.452   4.815   4.604
 5925TIP3   OH217780   1.509   4.390   1.969
 5925TIP3    H117781   1.548   4.463   2.016
 5925TIP3    H217782   1.424   4.377   2.011
 5926TIP3   OH217783   5.525   1.619   2.625
 5926TIP3    H117784   5.556   1.539   2.666
 5926TIP3    H217785   5.579   1.688   2.663
 5927TIP3   OH217786   2.970   3.470   0.031
 5927TIP3    H117787   3.005   3.480   0.119
 5927TIP3    H217788   3.009   3.542  -0.019
 5928TIP3   OH217789   5.735   4.437   0.062
 5928TIP3    H117790   5.739   4.350   0.023
 5928TIP3    H217791   5.743   4.421   0.156
 5929TIP3   OH217792   0.254   3.980   1.275
 5929TIP3    H117793   0.172   4.024   1.297
 5929TIP3    H217794   0.240   3.888   1.298
 5930TIP3   OH217795   4.303   4.764   0.969
 5930TIP3    H117796   4.365   4.757   0.896
 5930TIP3    H217797   4.236   4.698   0.949
 5931TIP3   OH217798   2.417   4.361   2.428
 5931TIP3    H117799   2.481   4.313   2.481
 5931TIP3    H217800   2.363   4.292   2.388
 5932TIP3   OH217801   4.646   3.307   4.766
 5932TIP3    H117802   4.609   3.282   4.682
 5932TIP3    H217803   4.573   3.300   4.828
 5933TIP3   OH217804   6.145   5.458   1.593
 5933TIP3    H117805   6.202   5.518   1.641
 5933TIP3    H217806   6.147   5.490   1.503
 5934TIP3   OH217807   3.910   2.311   1.890
 5934TIP3    H117808   3.824   2.309   1.848
 5934TIP3    H217809   3.945   2.397   1.868
 5935TIP3   OH217810   2.342   2.800   0.656
 5935TIP3    H117811   2.342   2.896   0.653
 5935TIP3    H217812   2.366   2.779   0.746
 5936TIP3   OH217813   3.902   4.722   0.374
 5936TIP3    H117814   3.852   4.758   0.301
 5936TIP3    H217815   3.986   4.769   0.371
 5937TIP3   OH217816   1.889   4.981   0.335
 5937TIP3    H117817   1.957   4.977   0.268
 5937TIP3    H217818   1.849   4.894   0.334
 5938TIP3   OH217819   5.621   1.862   3.147
 5938TIP3    H117820   5.572   1.840   3.068
 5938TIP3    H217821   5.554   1.893   3.209
 5939TIP3   OH217822   0.343   0.793   2.016
 5939TIP3    H117823   0.427   0.772   2.056
 5939TIP3    H217824   0.366   0.828   1.930
 5940TIP3   OH217825   0.422   3.759   4.778
 5940TIP3    H117826   0.414   3.855   4.778
 5940TIP3    H217827   0.504   3.743   4.732
 5941TIP3   OH217828   6.300   2.209   2.842
 5941TIP3    H117829   6.253   2.126   2.847
 5941TIP3    H217830   6.380   2.189   2.793
 5942TIP3   OH217831   4.349   5.825   0.640
 5942TIP3    H117832   4.349   5.790   0.551
 5942TIP3    H217833   4.433   5.869   0.649
 5943TIP3   OH217834   4.266   3.749   1.757
 5943TIP3    H117835   4.171   3.737   1.759
 5943TIP3    H217836   4.286   3.800   1.836
 5944TIP3   OH217837   1.397   3.685   2.466
 5944TIP3    H117838   1.314   3.700   2.513
 5944TIP3    H217839   1.378   3.709   2.375
 5945TIP3   OH217840   1.334   1.812   0.795
 5945TIP3    H117841   1.378   1.751   0.853
 5945TIP3    H217842   1.405   1.858   0.750
 5946TIP3   OH217843   2.299   3.825   4.954
 5946TIP3    H117844   2.222   3.842   4.900
 5946TIP3    H217845   2.329   3.738   4.927
 5947TIP3   OH217846   4.457   4.303   1.212
 5947TIP3    H117847   4.389   4.318   1.277
 5947TIP3    H217848   4.410   4.276   1.133
 5948TIP3   OH217849   2.922   1.169   1.970
 5948TIP3    H117850   2.829   1.181   1.951
 5948TIP3    H217851   2.932   1.196   2.061
 5949TIP3   OH217852   3.954   2.512   2.248
 5949TIP3    H117853   3.986   2.503   2.337
 5949TIP3    H217854   4.020   2.468   2.194
 5950TIP3   OH217855   3.855   4.224   2.104
 5950TIP3    H117856   3.775   4.273   2.081
 5950TIP3    H217857   3.915   4.291   2.136
 5951TIP3   OH217858   0.763   5.811   1.976
 5951TIP3    H117859   0.744   5.801   2.069
 5951TIP3    H217860   0.839   5.755   1.961
 5952TIP3   OH217861   1.560   5.729   4.513
 5952TIP3    H117862   1.482   5.697   4.559
 5952TIP3    H217863   1.559   5.824   4.528
 5953TIP3   OH217864   5.564   1.349   2.957
 5953TIP3    H117865   5.618   1.414   3.003
 5953TIP3    H217866   5.598   1.350   2.867
 5954TIP3   OH217867   4.998   5.538   5.165
 5954TIP3    H117868   5.058   5.464   5.175
 5954TIP3    H217869   4.974   5.535   5.072
 5955TIP3   OH217870   0.864   1.111   2.405
 5955TIP3    H117871   0.932   1.113   2.472
 5955TIP3    H217872   0.893   1.044   2.344
 5956TIP3   OH217873   4.649   4.014   1.180
 5956TIP3    H117874   4.673   4.105   1.200
 5956TIP3    H217875   4.554   4.011   1.192
 5957TIP3   OH217876   3.138   3.205   4.785
 5957TIP3    H117877   3.064   3.188   4.843
 5957TIP3    H217878   3.110   3.279   4.731
 5958TIP3   OH217879   0.079   5.638   4.411
 5958TIP3    H117880   0.122   5.600   4.334
 5958TIP3    H217881  -0.012   5.650   4.383
 5959TIP3   OH217882   6.255   5.871   1.472
 5959TIP3    H117883   6.324   5.901   1.412
 5959TIP3    H217884   6.183   5.846   1.414
 5960TIP3   OH217885   0.075   0.979   1.953
 5960TIP3    H117886   0.137   1.000   2.022
 5960TIP3    H217887   0.047   1.064   1.918
 5961TIP3   OH217888   2.896   2.667   2.382
 5961TIP3    H117889   2.967   2.614   2.346
 5961TIP3    H217890   2.937   2.713   2.456
 5962TIP3   OH217891   5.575   1.898   2.195
 5962TIP3    H117892   5.638   1.826   2.193
 5962TIP3    H217893   5.559   1.913   2.288
 5963TIP3   OH217894   5.054   3.604   1.722
 5963TIP3    H117895   5.133   3.657   1.727
 5963TIP3    H217896   5.054   3.554   1.804
 5964TIP3   OH217897   4.745   0.799   3.864
 5964TIP3    H117898   4.758   0.766   3.953
 5964TIP3    H217899   4.652   0.823   3.861
 5965TIP3   OH217900   3.733   3.053   3.225
 5965TIP3    H117901   3.810   3.052   3.167
 5965TIP3    H217902   3.689   2.970   3.207
 5966TIP3   OH217903   4.532   0.274   1.909
 5966TIP3    H117904   4.601   0.292   1.844
 5966TIP3    H217905   4.466   0.341   1.894
 5967TIP3   OH217906   0.683   5.191   4.804
 5967TIP3    H117907   0.709   5.129   4.737
 5967TIP3    H217908   0.737   5.269   4.787
 5968TIP3   OH217909   0.124   1.555   2.834
 5968TIP3    H117910   0.201   1.499   2.840
 5968TIP3    H217911   0.108   1.564   2.740
 5969TIP3   OH217912   6.107   2.810   4.416
 5969TIP3    H117913   6.178   2.831   4.477
 5969TIP3    H217914   6.110   2.715   4.407
 5970TIP3   OH217915   3.601   5.781   2.919
 5970TIP3    H117916   3.688   5.806   2.887
 5970TIP3    H217917   3.541   5.841   2.876
 5971TIP3   OH217918   0.148   3.709   4.124
 5971TIP3    H117919   0.151   3.616   4.102
 5971TIP3    H217920   0.239   3.739   4.114
 5972TIP3   OH217921   2.616   0.128   3.936
 5972TIP3    H117922   2.625   0.062   3.868
 5972TIP3    H217923   2.698   0.124   3.985
 5973TIP3   OH217924   5.412   6.002   4.835
 5973TIP3    H117925   5.345   5.958   4.784
 5973TIP3    H217926   5.486   6.011   4.774
 5974TIP3   OH217927   2.979   1.823   3.505
 5974TIP3    H117928   3.004   1.815   3.597
 5974TIP3    H217929   3.039   1.889   3.470
 5975TIP3   OH217930   2.171   2.490   4.007
 5975TIP3    H117931   2.107   2.471   4.075
 5975TIP3    H217932   2.229   2.555   4.046
 5976TIP3   OH217933   4.458   1.442   4.928
 5976TIP3    H117934   4.469   1.536   4.943
 5976TIP3    H217935   4.373   1.422   4.967
 5977TIP3   OH217936   4.456   5.737   2.988
 5977TIP3    H117937   4.536   5.697   2.954
 5977TIP3    H217938   4.439   5.811   2.930
 5978TIP3   OH217939   2.259   5.692   0.146
 5978TIP3    H117940   2.251   5.600   0.122
 5978TIP3    H217941   2.353   5.710   0.145
 5979TIP3   OH217942   0.947   1.047   0.053
 5979TIP3    H117943   1.001   1.117   0.015
 5979TIP3    H217944   0.870   1.043  -0.004
 5980TIP3   OH217945   0.498   5.097   3.037
 5980TIP3    H117946   0.580   5.140   3.060
 5980TIP3    H217947   0.430   5.155   3.073
 5981TIP3   OH217948   3.464   0.329   2.662
 5981TIP3    H117949   3.406   0.365   2.730
 5981TIP3    H217950   3.442   0.380   2.583
 5982TIP3   OH217951   4.209   2.479   2.385
 5982TIP3    H117952   4.292   2.523   2.403
 5982TIP3    H217953   4.231   2.386   2.381
 5983TIP3   OH217954   0.344   1.351   3.216
 5983TIP3    H117955   0.405   1.333   3.144
 5983TIP3    H217956   0.331   1.446   3.212
 5984TIP3   OH217957   5.551   2.795   3.598
 5984TIP3    H117958   5.529   2.714   3.643
 5984TIP3    H217959   5.587   2.767   3.513
 5985TIP3   OH217960   4.145   1.869  -0.027
 5985TIP3    H117961   4.221   1.917   0.008
 5985TIP3    H217962   4.129   1.801   0.039
 5986TIP3   OH217963   2.533   3.874   4.487
 5986TIP3    H117964   2.569   3.860   4.574
 5986TIP3    H217965   2.609   3.889   4.431
 5987TIP3   OH217966   2.286   4.685   1.718
 5987TIP3    H117967   2.330   4.649   1.795
 5987TIP3    H217968   2.206   4.633   1.709
 5988TIP3   OH217969   4.644   1.018   1.697
 5988TIP3    H117970   4.639   0.931   1.736
 5988TIP3    H217971   4.587   1.072   1.752
 5989TIP3   OH217972   5.382   5.368   0.219
 5989TIP3    H117973   5.393   5.406   0.132
 5989TIP3    H217974   5.443   5.294   0.222
 5990TIP3   OH217975   2.545   3.109   3.939
 5990TIP3    H117976   2.493   3.058   4.002
 5990TIP3    H217977   2.636   3.098   3.968
 5991TIP3   OH217978   5.967   3.879   4.215
 5991TIP3    H117979   5.899   3.944   4.200
 5991TIP3    H217980   5.921   3.795   4.218
 5992TIP3   OH217981   5.377   2.769   0.575
 5992TIP3    H117982   5.461   2.742   0.614
 5992TIP3    H217983   5.315   2.764   0.647
 5993TIP3   OH217984   0.375   5.931   0.974
 5993TIP3    H117985   0.347   5.847   1.011
 5993TIP3    H217986   0.395   5.985   1.050
 5994TIP3   OH217987   1.826   0.313   0.672
 5994TIP3    H117988   1.765   0.251   0.632
 5994TIP3    H217989   1.912   0.280   0.646
 5995TIP3   OH217990   1.954   0.996   0.810
 5995TIP3    H117991   1.874   1.044   0.787
 5995TIP3    H217992   1.928   0.942   0.885
 5996TIP3   OH217993   0.638   3.144   3.750
 5996TIP3    H117994   0.622   3.104   3.836
 5996TIP3    H217995   0.686   3.077   3.701
 5997TIP3   OH217996   3.085   0.825   3.960
 5997TIP3    H117997   3.020   0.773   3.913
 5997TIP3    H217998   3.035   0.867   4.031
 5998TIP3   OH217999   0.639   5.823   0.516
 5998TIP3    H118000   0.733   5.823   0.499
 5998TIP3    H218001   0.616   5.915   0.527
 5999TIP3   OH218002   1.089   3.841   4.485
 5999TIP3    H118003   1.142   3.902   4.536
 5999TIP3    H218004   0.999   3.860   4.511
 6000TIP3   OH218005   0.783   5.118   1.619
 6000TIP3    H118006   0.839   5.046   1.646
 6000TIP3    H218007   0.836   5.197   1.634
 6001TIP3   OH218008   3.338   1.764   0.537
 6001TIP3    H118009   3.310   1.793   0.450
 6001TIP3    H218010   3.260   1.774   0.592
 6002TIP3   OH218011   4.742   1.248   2.855
 6002TIP3    H118012   4.749   1.337   2.888
 6002TIP3    H218013   4.717   1.258   2.763
 6003TIP3   OH218014   5.964   2.322   3.792
 6003TIP3    H118015   5.931   2.280   3.871
 6003TIP3    H218016   5.942   2.261   3.722
 6004TIP3   OH218017   2.767   4.297   0.585
 6004TIP3    H118018   2.727   4.211   0.575
 6004TIP3    H218019   2.710   4.343   0.646
 6005TIP3   OH218020   1.360   0.394   4.571
 6005TIP3    H118021   1.326   0.387   4.660
 6005TIP3    H218022   1.340   0.484   4.545
 6006TIP3   OH218023   2.564   3.376   4.837
 6006TIP3    H118024   2.598   3.304   4.889
 6006TIP3    H218025   2.611   3.370   4.754
 6007TIP3   OH218026   4.245   2.049   1.585
 6007TIP3    H118027   4.273   2.010   1.502
 6007TIP3    H218028   4.319   2.035   1.645
 6008TIP3   OH218029   6.121   2.230   0.936
 6008TIP3    H118030   6.165   2.228   0.851
 6008TIP3    H218031   6.028   2.219   0.915
 6009TIP3   OH218032   1.450   2.108   4.444
 6009TIP3    H118033   1.508   2.114   4.520
 6009TIP3    H218034   1.365   2.139   4.477
 6010TIP3   OH218035   2.628   1.997   1.513
 6010TIP3    H118036   2.573   1.919   1.524
 6010TIP3    H218037   2.707   1.965   1.471
 6011TIP3   OH218038   1.335   1.040   4.509
 6011TIP3    H118039   1.239   1.043   4.504
 6011TIP3    H218040   1.364   1.088   4.431
 6012TIP3   OH218041   2.191   3.292   3.317
 6012TIP3    H118042   2.116   3.323   3.368
 6012TIP3    H218043   2.152   3.239   3.247
 6013TIP3   OH218044   6.065   5.234   0.819
 6013TIP3    H118045   6.075   5.143   0.846
 6013TIP3    H218046   6.136   5.250   0.757
 6014TIP3   OH218047   3.771   1.464   4.071
 6014TIP3    H118048   3.678   1.441   4.075
 6014TIP3    H218049   3.772   1.554   4.037
 6015TIP3   OH218050   5.377   4.577   4.309
 6015TIP3    H118051   5.329   4.634   4.369
 6015TIP3    H218052   5.348   4.489   4.332
 6016TIP3   OH218053   5.300   0.046   1.039
 6016TIP3    H118054   5.360   0.099   0.987
 6016TIP3    H218055   5.237   0.108   1.075
 6017TIP3   OH218056   5.723   2.226   2.252
 6017TIP3    H118057   5.632   2.211   2.228
 6017TIP3    H218058   5.774   2.176   2.189
 6018TIP3   OH218059   6.204   5.984   0.745
 6018TIP3    H118060   6.273   5.998   0.680
 6018TIP3    H218061   6.250   5.950   0.822
 6019TIP3   OH218062   1.355   5.381   5.034
 6019TIP3    H118063   1.313   5.344   5.112
 6019TIP3    H218064   1.289   5.374   4.966
 6020TIP3   OH218065   3.187   3.144   3.792
 6020TIP3    H118066   3.112   3.110   3.743
 6020TIP3    H218067   3.183   3.099   3.876
 6021TIP3   OH218068   2.921   3.679   1.987
 6021TIP3    H118069   2.832   3.661   1.958
 6021TIP3    H218070   2.921   3.771   2.011
 6022TIP3   OH218071   6.067   1.700   4.983
 6022TIP3    H118072   6.022   1.615   4.977
 6022TIP3    H218073   6.118   1.693   5.064
 6023TIP3   OH218074   1.138   4.047   1.498
 6023TIP3    H118075   1.192   4.123   1.520
 6023TIP3    H218076   1.100   4.020   1.581
 6024TIP3   OH218077   0.244   5.056   2.408
 6024TIP3    H118078   0.293   5.080   2.487
 6024TIP3    H218079   0.165   5.109   2.413
 6025TIP3   OH218080   4.824   3.515   2.501
 6025TIP3    H118081   4.776   3.434   2.484
 6025TIP3    H218082   4.910   3.486   2.533
 6026TIP3   OH218083   3.229   4.266   5.171
 6026TIP3    H118084   3.310   4.302   5.135
 6026TIP3    H218085   3.187   4.340   5.214
 6027TIP3   OH218086   5.053   1.450   4.243
 6027TIP3    H118087   5.110   1.485   4.174
 6027TIP3    H218088   5.101   1.376   4.279
 6028TIP3   OH218089   2.930   3.351   3.123
 6028TIP3    H118090   2.912   3.268   3.167
 6028TIP3    H218091   2.978   3.326   3.044
 6029TIP3   OH218092   5.845   1.607   1.300
 6029TIP3    H118093   5.872   1.519   1.276
 6029TIP3    H218094   5.897   1.627   1.378
 6030TIP3   OH218095   6.333   3.473   1.736
 6030TIP3    H118096   6.261   3.411   1.737
 6030TIP3    H218097   6.293   3.556   1.761
 6031TIP3   OH218098   2.875   0.007   4.795
 6031TIP3    H118099   2.800   0.066   4.800
 6031TIP3    H218100   2.854  -0.053   4.724
 6032TIP3   OH218101   4.032   1.973   3.426
 6032TIP3    H118102   3.944   1.950   3.456
 6032TIP3    H218103   4.060   1.897   3.375
 6033TIP3   OH218104   0.176   2.291   1.190
 6033TIP3    H118105   0.265   2.284   1.156
 6033TIP3    H218106   0.133   2.354   1.133
 6034TIP3   OH218107   2.983   5.366   3.944
 6034TIP3    H118108   2.958   5.317   3.866
 6034TIP3    H218109   2.913   5.430   3.956
 6035TIP3   OH218110   0.084   1.030   1.514
 6035TIP3    H118111   0.125   1.092   1.574
 6035TIP3    H218112   0.054   1.084   1.441
 6036TIP3   OH218113   3.544   2.663   1.590
 6036TIP3    H118114   3.542   2.616   1.674
 6036TIP3    H218115   3.474   2.624   1.539
 6037TIP3   OH218116   1.765   1.971   2.697
 6037TIP3    H118117   1.765   1.966   2.601
 6037TIP3    H218118   1.830   2.037   2.718
 6038TIP3   OH218119   3.643   3.091   0.984
 6038TIP3    H118120   3.573   3.031   0.955
 6038TIP3    H218121   3.722   3.058   0.942
 6039TIP3   OH218122   3.235   4.777   2.387
 6039TIP3    H118123   3.318   4.801   2.429
 6039TIP3    H218124   3.168   4.800   2.450
 6040TIP3   OH218125   4.844   2.964   0.189
 6040TIP3    H118126   4.938   2.945   0.187
 6040TIP3    H218127   4.839   3.058   0.201
 6041TIP3   OH218128   3.945   5.848   3.637
 6041TIP3    H118129   4.020   5.810   3.591
 6041TIP3    H218130   3.901   5.901   3.571
 6042TIP3   OH218131   4.781   5.626   0.365
 6042TIP3    H118132   4.844   5.580   0.420
 6042TIP3    H218133   4.696   5.600   0.398
 6043TIP3   OH218134   1.364   4.914   4.132
 6043TIP3    H118135   1.410   4.847   4.081
 6043TIP3    H218136   1.294   4.867   4.177
 6044TIP3   OH218137   3.595   1.253   0.649
 6044TIP3    H118138   3.549   1.241   0.566
 6044TIP3    H218139   3.575   1.342   0.676
 6045TIP3   OH218140   0.399   3.922   0.268
 6045TIP3    H118141   0.470   3.985   0.259
 6045TIP3    H218142   0.387   3.913   0.363
 6046TIP3   OH218143   4.271   1.575   4.656
 6046TIP3    H118144   4.221   1.609   4.730
 6046TIP3    H218145   4.262   1.480   4.663
 6047TIP3   OH218146   0.688   4.398   2.110
 6047TIP3    H118147   0.661   4.487   2.135
 6047TIP3    H218148   0.783   4.405   2.096
 6048TIP3   OH218149   4.319   2.594   3.045
 6048TIP3    H118150   4.326   2.502   3.069
 6048TIP3    H218151   4.325   2.641   3.128
 6049TIP3   OH218152   6.051   1.522   2.192
 6049TIP3    H118153   6.111   1.449   2.208
 6049TIP3    H218154   5.972   1.480   2.157
 6050TIP3   OH218155   2.517   4.025   3.276
 6050TIP3    H118156   2.447   4.089   3.281
 6050TIP3    H218157   2.551   4.032   3.187
 6051TIP3   OH218158   4.258   2.555   1.073
 6051TIP3    H118159   4.260   2.617   1.146
 6051TIP3    H218160   4.341   2.507   1.081
 6052TIP3   OH218161   5.432   4.814   0.564
 6052TIP3    H118162   5.477   4.793   0.483
 6052TIP3    H218163   5.500   4.850   0.621
 6053TIP3   OH218164   2.548   5.413   3.784
 6053TIP3    H118165   2.608   5.338   3.779
 6053TIP3    H218166   2.535   5.427   3.878
 6054TIP3   OH218167   2.414   3.167   3.396
 6054TIP3    H118168   2.393   3.076   3.376
 6054TIP3    H218169   2.330   3.212   3.395
 6055TIP3   OH218170   5.551   0.773   1.580
 6055TIP3    H118171   5.456   0.773   1.590
 6055TIP3    H218172   5.574   0.681   1.566
 6056TIP3   OH218173   3.176   5.521   3.716
 6056TIP3    H118174   3.131   5.570   3.785
 6056TIP3    H218175   3.181   5.582   3.643
 6057TIP3   OH218176   3.833   0.201   0.053
 6057TIP3    H118177   3.873   0.116   0.035
 6057TIP3    H218178   3.844   0.250  -0.029
 6058TIP3   OH218179   2.118   1.081   2.549
 6058TIP3    H118180   2.169   1.131   2.485
 6058TIP3    H218181   2.136   0.989   2.527
 6059TIP3   OH218182   4.207   4.957   1.155
 6059TIP3    H118183   4.245   4.899   1.089
 6059TIP3    H218184   4.257   5.038   1.148
 6060TIP3   OH218185   4.256   5.077   3.512
 6060TIP3    H118186   4.278   5.167   3.488
 6060TIP3    H218187   4.242   5.033   3.428
 6061TIP3   OH218188   1.310   4.542   0.714
 6061TIP3    H118189   1.222   4.577   0.700
 6061TIP3    H218190   1.367   4.618   0.710
 6062TIP3   OH218191   0.300   1.570   4.161
 6062TIP3    H118192   0.225   1.605   4.209
 6062TIP3    H218193   0.376   1.610   4.203
 6063TIP3   OH218194   3.501   3.141   1.579
 6063TIP3    H118195   3.473   3.065   1.629
 6063TIP3    H218196   3.472   3.124   1.490
 6064TIP3   OH218197   5.467   4.506   4.586
 6064TIP3    H118198   5.522   4.546   4.519
 6064TIP3    H218199   5.430   4.428   4.544
 6065TIP3   OH218200   0.627   0.708   3.840
 6065TIP3    H118201   0.649   0.620   3.869
 6065TIP3    H218202   0.707   0.740   3.798
 6066TIP3   OH218203   1.339   1.577   3.647
 6066TIP3    H118204   1.286   1.542   3.576
 6066TIP3    H218205   1.430   1.563   3.619
 6067TIP3   OH218206   6.376   5.494   0.266
 6067TIP3    H118207   6.384   5.413   0.317
 6067TIP3    H218208   6.298   5.481   0.213
 6068TIP3   OH218209   1.293   2.643   4.277
 6068TIP3    H118210   1.238   2.575   4.239
 6068TIP3    H218211   1.231   2.707   4.312
 6069TIP3   OH218212   4.612   3.395   1.198
 6069TIP3    H118213   4.555   3.471   1.195
 6069TIP3    H218214   4.564   3.331   1.252
 6070TIP3   OH218215   4.453   5.054   1.597
 6070TIP3    H118216   4.488   5.011   1.519
 6070TIP3    H218217   4.479   5.145   1.588
 6071TIP3   OH218218   1.186   1.297   3.941
 6071TIP3    H118219   1.266   1.340   3.971
 6071TIP3    H218220   1.215   1.238   3.871
 6072TIP3   OH218221   2.323   1.430   3.770
 6072TIP3    H118222   2.280   1.499   3.720
 6072TIP3    H218223   2.417   1.446   3.759
 6073TIP3   OH218224   3.408   0.801   1.595
 6073TIP3    H118225   3.317   0.780   1.614
 6073TIP3    H218226   3.445   0.824   1.680
 6074TIP3   OH218227   5.762   3.347   1.684
 6074TIP3    H118228   5.681   3.303   1.712
 6074TIP3    H218229   5.797   3.384   1.765
 6075TIP3   OH218230   2.972   2.923   4.573
 6075TIP3    H118231   2.951   2.884   4.657
 6075TIP3    H218232   2.942   2.858   4.508
 6076TIP3   OH218233   5.023   1.178   2.844
 6076TIP3    H118234   4.928   1.171   2.840
 6076TIP3    H218235   5.039   1.237   2.918
 6077TIP3   OH218236   3.115   3.582   0.449
 6077TIP3    H118237   3.021   3.593   0.461
 6077TIP3    H218238   3.152   3.585   0.537
 6078TIP3   OH218239   5.194   3.632   0.002
 6078TIP3    H118240   5.165   3.610   0.091
 6078TIP3    H218241   5.115   3.625  -0.051
 6079TIP3   OH218242   0.756   5.811   2.257
 6079TIP3    H118243   0.828   5.853   2.303
 6079TIP3    H218244   0.677   5.846   2.299
 6080TIP3   OH218245   4.060   2.641   0.559
 6080TIP3    H118246   4.106   2.607   0.482
 6080TIP3    H218247   3.996   2.573   0.581
 6081TIP3   OH218248   0.142   3.793   4.389
 6081TIP3    H118249   0.133   3.888   4.387
 6081TIP3    H218250   0.134   3.767   4.297
 6082TIP3   OH218251   4.410   1.690   2.097
 6082TIP3    H118252   4.342   1.756   2.112
 6082TIP3    H218253   4.485   1.721   2.146
 6083TIP3   OH218254   6.324   1.127   3.829
 6083TIP3    H118255   6.294   1.212   3.797
 6083TIP3    H218256   6.343   1.077   3.750
 6084TIP3   OH218257   4.931   5.286   2.196
 6084TIP3    H118258   4.901   5.250   2.113
 6084TIP3    H218259   4.988   5.359   2.171
 6085TIP3   OH218260   3.335   4.113   0.003
 6085TIP3    H118261   3.294   4.198  -0.013
 6085TIP3    H218262   3.354   4.112   0.096
 6086TIP3   OH218263   4.555   4.547   0.042
 6086TIP3    H118264   4.495   4.489  -0.005
 6086TIP3    H218265   4.623   4.489   0.075
 6087TIP3   OH218266   1.897   3.320   4.132
 6087TIP3    H118267   1.854   3.235   4.144
 6087TIP3    H218268   1.983   3.299   4.097
 6088TIP3   OH218269   5.026   3.773   0.896
 6088TIP3    H118270   4.981   3.811   0.971
 6088TIP3    H218271   5.057   3.687   0.927
 6089TIP3   OH218272   4.902   5.205   5.136
 6089TIP3    H118273   4.953   5.254   5.071
 6089TIP3    H218274   4.885   5.267   5.206
 6090TIP3   OH218275   4.288   4.571   4.583
 6090TIP3    H118276   4.260   4.647   4.532
 6090TIP3    H218277   4.361   4.603   4.636
 6091TIP3   OH218278   4.587   4.965   3.769
 6091TIP3    H118279   4.618   5.020   3.841
 6091TIP3    H218280   4.491   4.972   3.774
 6092TIP3   OH218281   0.422   5.620   1.946
 6092TIP3    H118282   0.403   5.713   1.960
 6092TIP3    H218283   0.433   5.612   1.851
 6093TIP3   OH218284   5.905   0.911   1.982
 6093TIP3    H118285   5.904   0.882   1.892
 6093TIP3    H218286   5.823   0.961   1.992
 6094TIP3   OH218287   1.399   4.568   3.383
 6094TIP3    H118288   1.342   4.592   3.310
 6094TIP3    H218289   1.449   4.493   3.350
 6095TIP3   OH218290   5.993   1.342   3.133
 6095TIP3    H118291   6.029   1.260   3.165
 6095TIP3    H218292   6.040   1.410   3.180
 6096TIP3   OH218293   1.214   5.016   5.016
 6096TIP3    H118294   1.202   4.936   5.067
 6096TIP3    H218295   1.307   5.019   4.996
 6097TIP3   OH218296   1.405   3.768   4.775
 6097TIP3    H118297   1.455   3.817   4.840
 6097TIP3    H218298   1.438   3.678   4.783
 6098TIP3   OH218299   3.072   0.739   2.277
 6098TIP3    H118300   3.133   0.813   2.281
 6098TIP3    H218301   2.993   0.770   2.320
 6099TIP3   OH218302   2.054   2.098   1.038
 6099TIP3    H118303   2.081   2.095   0.947
 6099TIP3    H218304   1.983   2.163   1.040
 6100TIP3   OH218305   2.100   3.046   3.086
 6100TIP3    H118306   2.072   2.999   3.007
 6100TIP3    H218307   2.032   3.025   3.151
 6101TIP3   OH218308   1.702   4.710   2.512
 6101TIP3    H118309   1.641   4.681   2.579
 6101TIP3    H218310   1.652   4.709   2.431
 6102TIP3   OH218311   0.437   1.434   1.654
 6102TIP3    H118312   0.430   1.452   1.560
 6102TIP3    H218313   0.447   1.520   1.695
 6103TIP3   OH218314   2.602   0.527   4.704
 6103TIP3    H118315   2.507   0.540   4.704
 6103TIP3    H218316   2.617   0.461   4.636
 6104TIP3   OH218317   2.169   0.794   1.933
 6104TIP3    H118318   2.133   0.761   2.016
 6104TIP3    H218319   2.137   0.733   1.867
 6105TIP3   OH218320   1.991   5.962   2.140
 6105TIP3    H118321   2.073   5.916   2.119
 6105TIP3    H218322   1.929   5.892   2.160
 6106TIP3   OH218323   1.104   3.869   2.201
 6106TIP3    H118324   1.066   3.904   2.281
 6106TIP3    H218325   1.067   3.922   2.131
 6107TIP3   OH218326   0.686   3.789   5.108
 6107TIP3    H118327   0.638   3.852   5.053
 6107TIP3    H218328   0.686   3.708   5.056
 6108TIP3   OH218329   0.300   5.492   3.476
 6108TIP3    H118330   0.224   5.496   3.535
 6108TIP3    H218331   0.302   5.578   3.435
 6109TIP3   OH218332   6.249   5.012   1.848
 6109TIP3    H118333   6.210   5.067   1.781
 6109TIP3    H218334   6.202   4.929   1.841
 6110TIP3   OH218335   6.140   0.280   2.719
 6110TIP3    H118336   6.150   0.240   2.806
 6110TIP3    H218337   6.186   0.364   2.727
 6111TIP3   OH218338   1.925   5.568   2.581
 6111TIP3    H118339   1.914   5.499   2.515
 6111TIP3    H218340   1.836   5.587   2.612
 6112TIP3   OH218341   2.589   0.362   0.508
 6112TIP3    H118342   2.675   0.394   0.481
 6112TIP3    H218343   2.566   0.417   0.583
 6113TIP3   OH218344   6.341   0.417   0.865
 6113TIP3    H118345   6.374   0.354   0.801
 6113TIP3    H218346   6.317   0.365   0.941
 6114TIP3   OH218347   1.975   2.361   1.694
 6114TIP3    H118348   2.063   2.325   1.701
 6114TIP3    H218349   1.966   2.418   1.770
 6115TIP3   OH218350   1.714   4.286   0.838
 6115TIP3    H118351   1.707   4.324   0.925
 6115TIP3    H218352   1.681   4.353   0.779
 6116TIP3   OH218353   5.216   0.642   0.863
 6116TIP3    H118354   5.133   0.669   0.825
 6116TIP3    H218355   5.246   0.719   0.912
 6117TIP3   OH218356   5.426   0.170   4.182
 6117TIP3    H118357   5.364   0.207   4.119
 6117TIP3    H218358   5.506   0.222   4.171
 6118TIP3   OH218359   6.198   0.100   2.257
 6118TIP3    H118360   6.131   0.032   2.249
 6118TIP3    H218361   6.189   0.133   2.346
 6119TIP3   OH218362   3.501   2.090   1.518
 6119TIP3    H118363   3.593   2.097   1.543
 6119TIP3    H218364   3.453   2.085   1.601
 6120TIP3   OH218365   5.018   3.706   2.865
 6120TIP3    H118366   4.983   3.726   2.779
 6120TIP3    H218367   4.972   3.626   2.892
 6121TIP3   OH218368   0.790   4.383   4.666
 6121TIP3    H118369   0.852   4.437   4.715
 6121TIP3    H218370   0.704   4.405   4.704
 6122TIP3   OH218371   6.144   1.031   2.040
 6122TIP3    H118372   6.054   0.999   2.039
 6122TIP3    H218373   6.142   1.112   1.989
 6123TIP3   OH218374   4.471   4.464   1.769
 6123TIP3    H118375   4.428   4.519   1.704
 6123TIP3    H218376   4.560   4.500   1.776
 6124TIP3   OH218377   6.027   3.755   4.961
 6124TIP3    H118378   6.103   3.701   4.942
 6124TIP3    H218379   6.050   3.802   5.042
 6125TIP3   OH218380   2.795   2.358   3.562
 6125TIP3    H118381   2.752   2.351   3.477
 6125TIP3    H218382   2.723   2.352   3.625
 6126TIP3   OH218383   5.123   3.194   2.622
 6126TIP3    H118384   5.124   3.286   2.647
 6126TIP3    H218385   5.213   3.176   2.594
 6127TIP3   OH218386   2.198   1.464   5.076
 6127TIP3    H118387   2.233   1.384   5.037
 6127TIP3    H218388   2.105   1.462   5.053
 6128TIP3   OH218389   1.048   4.787   3.412
 6128TIP3    H118390   0.952   4.779   3.411
 6128TIP3    H218391   1.071   4.804   3.320
 6129TIP3   OH218392   4.569   5.753   4.074
 6129TIP3    H118393   4.583   5.840   4.113
 6129TIP3    H218394   4.642   5.741   4.014
 6130TIP3   OH218395   3.766   4.529   2.598
 6130TIP3    H118396   3.797   4.473   2.669
 6130TIP3    H218397   3.763   4.471   2.522
 6131TIP3   OH218398   1.560   3.786   3.767
 6131TIP3    H118399   1.601   3.723   3.707
 6131TIP3    H218400   1.469   3.758   3.771
 6132TIP3   OH218401   0.094   4.862   0.132
 6132TIP3    H118402   0.092   4.784   0.077
 6132TIP3    H218403   0.036   4.842   0.205
 6133TIP3   OH218404   2.405   1.855   1.254
 6133TIP3    H118405   2.461   1.871   1.177
 6133TIP3    H218406   2.322   1.824   1.217
 6134TIP3   OH218407   6.170   1.584   1.344
 6134TIP3    H118408   6.161   1.654   1.409
 6134TIP3    H218409   6.105   1.519   1.371
 6135TIP3   OH218410   5.617   3.466   0.041
 6135TIP3    H118411   5.552   3.399   0.018
 6135TIP3    H218412   5.565   3.546   0.054
 6136TIP3   OH218413   5.727   5.431   4.357
 6136TIP3    H118414   5.677   5.363   4.402
 6136TIP3    H218415   5.745   5.395   4.270
 6137TIP3   OH218416   2.831   0.240   2.478
 6137TIP3    H118417   2.867   0.228   2.566
 6137TIP3    H218418   2.904   0.220   2.419
 6138TIP3   OH218419   3.636   0.676   0.848
 6138TIP3    H118420   3.705   0.714   0.902
 6138TIP3    H218421   3.611   0.746   0.787
 6139TIP3   OH218422   3.576   1.198   3.901
 6139TIP3    H118423   3.631   1.145   3.958
 6139TIP3    H218424   3.501   1.223   3.956
 6140TIP3   OH218425   2.240   1.218   3.020
 6140TIP3    H118426   2.217   1.274   2.946
 6140TIP3    H218427   2.333   1.237   3.037
 6141TIP3   OH218428   2.093   2.114   2.299
 6141TIP3    H118429   2.028   2.184   2.303
 6141TIP3    H218430   2.147   2.126   2.377
 6142TIP3   OH218431   5.743   2.647   4.863
 6142TIP3    H118432   5.654   2.684   4.865
 6142TIP3    H218433   5.729   2.553   4.862
 6143TIP3   OH218434   2.364   3.812   0.791
 6143TIP3    H118435   2.326   3.757   0.859
 6143TIP3    H218436   2.459   3.801   0.801
 6144TIP3   OH218437   4.613   2.289   2.235
 6144TIP3    H118438   4.676   2.278   2.307
 6144TIP3    H218439   4.624   2.380   2.208
 6145TIP3   OH218440   1.016   5.944   0.965
 6145TIP3    H118441   0.987   5.874   0.906
 6145TIP3    H218442   1.109   5.956   0.945
 6146TIP3   OH218443   5.792   5.558   1.609
 6146TIP3    H118444   5.806   5.472   1.571
 6146TIP3    H218445   5.820   5.620   1.542
 6147TIP3   OH218446   3.082   4.230   3.954
 6147TIP3    H118447   3.116   4.186   4.031
 6147TIP3    H218448   2.987   4.232   3.968
 6148TIP3   OH218449   4.876   0.974   1.356
 6148TIP3    H118450   4.868   0.976   1.260
 6148TIP3    H218451   4.786   0.982   1.387
 6149TIP3   OH218452   3.131   4.971   3.377
 6149TIP3    H118453   3.118   4.971   3.282
 6149TIP3    H218454   3.225   4.964   3.388
 6150TIP3   OH218455   4.261   2.937   4.575
 6150TIP3    H118456   4.319   2.914   4.647
 6150TIP3    H218457   4.256   2.858   4.521
 6151TIP3   OH218458   0.047   2.479   0.135
 6151TIP3    H118459  -0.018   2.550   0.137
 6151TIP3    H218460   0.034   2.434   0.218
 6152TIP3   OH218461   0.819   2.019   4.322
 6152TIP3    H118462   0.786   1.952   4.381
 6152TIP3    H218463   0.762   2.095   4.338
 6153TIP3   OH218464   0.873   3.411   2.605
 6153TIP3    H118465   0.850   3.320   2.589
 6153TIP3    H218466   0.859   3.454   2.520
 6154TIP3   OH218467   6.010   1.356   1.305
 6154TIP3    H118468   6.100   1.323   1.292
 6154TIP3    H218469   5.960   1.318   1.233
 6155TIP3   OH218470   3.159   0.902   0.982
 6155TIP3    H118471   3.084   0.921   1.038
 6155TIP3    H218472   3.194   0.819   1.015
 6156TIP3   OH218473   5.575   3.860   1.250
 6156TIP3    H118474   5.570   3.953   1.271
 6156TIP3    H218475   5.496   3.823   1.291
 6157TIP3   OH218476   2.489   1.718   1.717
 6157TIP3    H118477   2.540   1.667   1.654
 6157TIP3    H218478   2.398   1.705   1.690
 6158TIP3   OH218479   3.101   1.851   0.669
 6158TIP3    H118480   3.033   1.807   0.721
 6158TIP3    H218481   3.058   1.872   0.586
 6159TIP3   OH218482   6.204   4.624   1.840
 6159TIP3    H118483   6.206   4.640   1.934
 6159TIP3    H218484   6.111   4.630   1.817
 6160TIP3   OH218485   2.747   3.067   0.918
 6160TIP3    H118486   2.710   3.146   0.880
 6160TIP3    H218487   2.756   3.007   0.844
 6161TIP3   OH218488   4.672   4.204   2.980
 6161TIP3    H118489   4.626   4.241   2.905
 6161TIP3    H218490   4.611   4.138   3.015
 6162TIP3   OH218491   5.701   5.409   0.712
 6162TIP3    H118492   5.739   5.347   0.775
 6162TIP3    H218493   5.613   5.426   0.745
 6163TIP3   OH218494   1.426   4.672   0.474
 6163TIP3    H118495   1.515   4.662   0.441
 6163TIP3    H218496   1.377   4.599   0.435
 6164TIP3   OH218497   0.910   5.839   3.112
 6164TIP3    H118498   0.865   5.761   3.142
 6164TIP3    H218499   0.856   5.871   3.039
 6165TIP3   OH218500   5.541   0.505   1.542
 6165TIP3    H118501   5.454   0.498   1.501
 6165TIP3    H218502   5.599   0.458   1.482
 6166TIP3   OH218503   1.347   5.401   0.764
 6166TIP3    H118504   1.267   5.453   0.758
 6166TIP3    H218505   1.338   5.334   0.697
 6167TIP3   OH218506   3.886   2.768   3.739
 6167TIP3    H118507   3.799   2.767   3.699
 6167TIP3    H218508   3.871   2.738   3.829
 6168TIP3   OH218509   3.045   4.833   0.883
 6168TIP3    H118510   3.079   4.914   0.921
 6168TIP3    H218511   3.063   4.841   0.789
 6169TIP3   OH218512   4.616   3.631   0.965
 6169TIP3    H118513   4.611   3.618   1.060
 6169TIP3    H218514   4.671   3.559   0.934
 6170TIP3   OH218515   3.394   4.100   3.210
 6170TIP3    H118516   3.305   4.075   3.183
 6170TIP3    H218517   3.402   4.065   3.299
 6171TIP3   OH218518   0.385   0.460   2.359
 6171TIP3    H118519   0.425   0.538   2.397
 6171TIP3    H218520   0.365   0.404   2.435
 6172TIP3   OH218521   2.613   5.383   1.751
 6172TIP3    H118522   2.626   5.338   1.834
 6172TIP3    H218523   2.604   5.312   1.686
 6173TIP3   OH218524   5.366   1.271   3.867
 6173TIP3    H118525   5.321   1.340   3.819
 6173TIP3    H218526   5.393   1.208   3.799
 6174TIP3   OH218527   0.012   3.216   4.398
 6174TIP3    H118528  -0.050   3.252   4.335
 6174TIP3    H218529   0.066   3.291   4.423
 6175TIP3   OH218530   2.123   4.442   3.310
 6175TIP3    H118531   2.160   4.530   3.316
 6175TIP3    H218532   2.052   4.441   3.374
 6176TIP3   OH218533   2.634   1.439   4.009
 6176TIP3    H118534   2.632   1.534   4.006
 6176TIP3    H218535   2.576   1.415   4.081
 6177TIP3   OH218536   5.204   4.077   0.205
 6177TIP3    H118537   5.247   4.146   0.255
 6177TIP3    H218538   5.144   4.036   0.267
 6178TIP3   OH218539   5.509   2.440   5.080
 6178TIP3    H118540   5.534   2.383   5.153
 6178TIP3    H218541   5.518   2.528   5.115
 6179TIP3   OH218542   0.656   1.974   2.317
 6179TIP3    H118543   0.743   1.973   2.358
 6179TIP3    H218544   0.673   1.962   2.224
 6180TIP3   OH218545   4.431   4.750   3.562
 6180TIP3    H118546   4.502   4.751   3.498
 6180TIP3    H218547   4.404   4.841   3.570
 6181TIP3   OH218548   2.756   3.785   2.899
 6181TIP3    H118549   2.785   3.693   2.896
 6181TIP3    H218550   2.745   3.804   2.992
 6182TIP3   OH218551   0.745   2.489   1.766
 6182TIP3    H118552   0.828   2.534   1.779
 6182TIP3    H218553   0.682   2.559   1.749
 6183TIP3   OH218554   1.640   3.682   4.936
 6183TIP3    H118555   1.699   3.657   4.864
 6183TIP3    H218556   1.689   3.748   4.985
 6184TIP3   OH218557   0.330   5.589   3.979
 6184TIP3    H118558   0.309   5.535   3.903
 6184TIP3    H218559   0.304   5.677   3.954
 6185TIP3   OH218560   4.033   2.205   1.629
 6185TIP3    H118561   4.126   2.187   1.616
 6185TIP3    H218562   4.020   2.194   1.724
 6186TIP3   OH218563   2.137   0.676   2.190
 6186TIP3    H118564   2.139   0.740   2.261
 6186TIP3    H218565   2.105   0.596   2.231
 6187TIP3   OH218566   5.629   0.422   1.804
 6187TIP3    H118567   5.550   0.440   1.754
 6187TIP3    H218568   5.662   0.508   1.830
 6188TIP3   OH218569   4.086   0.223   3.479
 6188TIP3    H118570   4.007   0.243   3.428
 6188TIP3    H218571   4.078   0.278   3.557
 6189TIP3   OH218572   2.737   2.904   0.707
 6189TIP3    H118573   2.669   2.937   0.647
 6189TIP3    H218574   2.808   2.967   0.698
 6190TIP3   OH218575   2.996   0.652   3.739
 6190TIP3    H118576   3.090   0.640   3.725
 6190TIP3    H218577   2.954   0.599   3.671
 6191TIP3   OH218578   1.429   1.002   3.300
 6191TIP3    H118579   1.477   1.079   3.331
 6191TIP3    H218580   1.390   1.030   3.217
 6192TIP3   OH218581   2.673   5.168   3.726
 6192TIP3    H118582   2.650   5.082   3.760
 6192TIP3    H218583   2.768   5.172   3.731
 6193TIP3   OH218584   1.028   5.123   1.162
 6193TIP3    H118585   1.057   5.032   1.160
 6193TIP3    H218586   1.080   5.167   1.095
 6194TIP3   OH218587   5.935   0.570   3.556
 6194TIP3    H118588   5.902   0.517   3.483
 6194TIP3    H218589   6.002   0.515   3.597
 6195TIP3   OH218590   3.213   4.158   1.203
 6195TIP3    H118591   3.304   4.127   1.195
 6195TIP3    H218592   3.168   4.086   1.247
 6196TIP3   OH218593   2.437   0.862   2.764
 6196TIP3    H118594   2.473   0.820   2.842
 6196TIP3    H218595   2.513   0.900   2.720
 6197TIP3   OH218596   4.122   1.197   0.570
 6197TIP3    H118597   4.073   1.139   0.628
 6197TIP3    H218598   4.087   1.179   0.482
 6198TIP3   OH218599   0.127   1.335   1.027
 6198TIP3    H118600   0.107   1.310   1.118
 6198TIP3    H218601   0.101   1.427   1.022
 6199TIP3   OH218602   2.888   2.455   4.002
 6199TIP3    H118603   2.904   2.491   4.090
 6199TIP3    H218604   2.885   2.361   4.016
 6200TIP3   OH218605   1.119   3.078   0.256
 6200TIP3    H118606   1.087   3.153   0.207
 6200TIP3    H218607   1.183   3.036   0.198
 6201TIP3   OH218608   3.452   4.008   4.798
 6201TIP3    H118609   3.372   3.965   4.826
 6201TIP3    H218610   3.427   4.057   4.720
 6202TIP3   OH218611   6.027   4.771   0.791
 6202TIP3    H118612   6.025   4.688   0.743
 6202TIP3    H218613   5.977   4.753   0.871
 6203TIP3   OH218614   1.093   1.198   0.504
 6203TIP3    H118615   1.094   1.226   0.596
 6203TIP3    H218616   1.129   1.272   0.456
 6204TIP3   OH218617   3.890   3.864   3.634
 6204TIP3    H118618   3.905   3.804   3.707
 6204TIP3    H218619   3.822   3.924   3.665
 6205TIP3   OH218620   4.015   0.987   3.432
 6205TIP3    H118621   4.049   1.052   3.369
 6205TIP3    H218622   3.930   0.962   3.396
 6206TIP3   OH218623   1.561   2.969   3.654
 6206TIP3    H118624   1.502   3.040   3.631
 6206TIP3    H218625   1.555   2.963   3.750
 6207TIP3   OH218626   0.461   4.529   2.670
 6207TIP3    H118627   0.439   4.575   2.751
 6207TIP3    H218628   0.519   4.458   2.698
 6208TIP3   OH218629   4.112   2.388   0.867
 6208TIP3    H118630   4.069   2.452   0.810
 6208TIP3    H218631   4.153   2.441   0.935
 6209TIP3   OH218632   3.222   1.376   2.705
 6209TIP3    H118633   3.270   1.293   2.703
 6209TIP3    H218634   3.290   1.442   2.720
 6210TIP3   OH218635   3.758   5.390   1.789
 6210TIP3    H118636   3.734   5.348   1.706
 6210TIP3    H218637   3.699   5.465   1.796
 6211TIP3   OH218638   1.988   1.536   0.710
 6211TIP3    H118639   2.065   1.570   0.665
 6211TIP3    H218640   1.978   1.447   0.678
 6212TIP3   OH218641   5.645   5.882   5.083
 6212TIP3    H118642   5.603   5.950   5.136
 6212TIP3    H218643   5.575   5.820   5.063
 6213TIP3   OH218644   1.914   2.577   5.147
 6213TIP3    H118645   1.842   2.637   5.166
 6213TIP3    H218646   1.913   2.515   5.220
 6214TIP3   OH218647   2.881   5.158   3.387
 6214TIP3    H118648   2.862   5.112   3.468
 6214TIP3    H218649   2.949   5.222   3.411
 6215TIP3   OH218650   4.212   0.973   2.341
 6215TIP3    H118651   4.274   1.043   2.364
 6215TIP3    H218652   4.228   0.956   2.248
 6216TIP3   OH218653   0.584   1.263   4.885
 6216TIP3    H118654   0.577   1.251   4.790
 6216TIP3    H218655   0.625   1.183   4.917
 6217TIP3   OH218656   0.646   1.906   3.430
 6217TIP3    H118657   0.637   1.987   3.480
 6217TIP3    H218658   0.599   1.922   3.349
 6218TIP3   OH218659   1.572   4.555   0.925
 6218TIP3    H118660   1.575   4.606   1.006
 6218TIP3    H218661   1.561   4.621   0.857
 6219TIP3   OH218662   4.510   2.557   4.908
 6219TIP3    H118663   4.538   2.600   4.989
 6219TIP3    H218664   4.545   2.469   4.915
 6220TIP3   OH218665   6.192   4.827   1.330
 6220TIP3    H118666   6.286   4.845   1.338
 6220TIP3    H218667   6.186   4.769   1.254
 6221TIP3   OH218668   0.503   1.361   0.910
 6221TIP3    H118669   0.450   1.386   0.834
 6221TIP3    H218670   0.466   1.278   0.939
 6222TIP3   OH218671   0.279   5.759   3.410
 6222TIP3    H118672   0.215   5.742   3.341
 6222TIP3    H218673   0.249   5.840   3.452
 6223TIP3   OH218674   2.910   4.173   2.635
 6223TIP3    H118675   2.877   4.260   2.612
 6223TIP3    H218676   2.851   4.142   2.703
 6224TIP3   OH218677   5.912   4.568   5.021
 6224TIP3    H118678   5.865   4.555   5.103
 6224TIP3    H218679   5.844   4.574   4.954
 6225TIP3   OH218680   1.979   0.536   0.746
 6225TIP3    H118681   1.936   0.452   0.760
 6225TIP3    H218682   1.968   0.554   0.652
 6226TIP3   OH218683   4.440   1.721   3.813
 6226TIP3    H118684   4.389   1.720   3.732
 6226TIP3    H218685   4.376   1.737   3.882
 6227TIP3   OH218686   0.147   0.082   4.158
 6227TIP3    H118687   0.093   0.154   4.188
 6227TIP3    H218688   0.158   0.026   4.235
 6228TIP3   OH218689   5.966   5.973   3.269
 6228TIP3    H118690   6.053   5.954   3.305
 6228TIP3    H218691   5.983   6.023   3.190
 6229TIP3   OH218692   5.214   2.303   0.270
 6229TIP3    H118693   5.221   2.210   0.246
 6229TIP3    H218694   5.136   2.308   0.324
 6230TIP3   OH218695   5.967   3.015   4.587
 6230TIP3    H118696   5.977   3.005   4.682
 6230TIP3    H218697   6.032   2.956   4.549
 6231TIP3   OH218698   3.366   5.247   3.484
 6231TIP3    H118699   3.442   5.283   3.438
 6231TIP3    H218700   3.363   5.155   3.456
 6232TIP3   OH218701   3.311   4.221   1.892
 6232TIP3    H118702   3.402   4.220   1.924
 6232TIP3    H218703   3.317   4.257   1.804
 6233TIP3   OH218704   0.728   1.901   1.221
 6233TIP3    H118705   0.760   1.812   1.224
 6233TIP3    H218706   0.785   1.950   1.281
 6234TIP3   OH218707   0.140   2.785   4.109
 6234TIP3    H118708   0.063   2.821   4.153
 6234TIP3    H218709   0.159   2.848   4.039
 6235TIP3   OH218710   3.554   1.345   4.498
 6235TIP3    H118711   3.621   1.298   4.548
 6235TIP3    H218712   3.601   1.417   4.456
 6236TIP3   OH218713   4.448   4.742   0.232
 6236TIP3    H118714   4.459   4.683   0.306
 6236TIP3    H218715   4.471   4.689   0.156
 6237TIP3   OH218716   5.603   4.597   1.834
 6237TIP3    H118717   5.662   4.521   1.834
 6237TIP3    H218718   5.576   4.607   1.743
 6238TIP3   OH218719   1.083   0.996   0.300
 6238TIP3    H118720   1.090   1.079   0.346
 6238TIP3    H218721   1.000   1.001   0.253
 6239TIP3   OH218722   2.683   4.953   2.610
 6239TIP3    H118723   2.604   4.986   2.653
 6239TIP3    H218724   2.659   4.949   2.518
 6240TIP3   OH218725   3.896   3.606   0.857
 6240TIP3    H118726   3.917   3.546   0.786
 6240TIP3    H218727   3.802   3.597   0.870
 6241TIP3   OH218728   3.461   0.793   2.594
 6241TIP3    H118729   3.554   0.783   2.615
 6241TIP3    H218730   3.446   0.888   2.596
 6242TIP3   OH218731   6.195   1.365   3.788
 6242TIP3    H118732   6.154   1.402   3.866
 6242TIP3    H218733   6.122   1.327   3.738
 6243TIP3   OH218734   1.602   2.503   1.236
 6243TIP3    H118735   1.562   2.432   1.285
 6243TIP3    H218736   1.538   2.524   1.168
 6244TIP3   OH218737   4.738   5.136   2.793
 6244TIP3    H118738   4.731   5.219   2.839
 6244TIP3    H218739   4.802   5.086   2.844
 6245TIP3   OH218740   3.529   0.846   1.838
 6245TIP3    H118741   3.498   0.886   1.919
 6245TIP3    H218742   3.599   0.787   1.865
 6246TIP3   OH218743   1.309   3.977   3.656
 6246TIP3    H118744   1.251   3.914   3.613
 6246TIP3    H218745   1.353   3.926   3.724
 6247TIP3   OH218746   4.163   3.677   0.995
 6247TIP3    H118747   4.164   3.726   1.077
 6247TIP3    H218748   4.071   3.656   0.980
 6248TIP3   OH218749   4.148   4.243   0.400
 6248TIP3    H118750   4.104   4.326   0.382
 6248TIP3    H218751   4.208   4.231   0.327
 6249TIP3   OH218752   1.770   3.606   2.990
 6249TIP3    H118753   1.849   3.586   2.939
 6249TIP3    H218754   1.704   3.628   2.924
 6250TIP3   OH218755   0.985   3.975   4.748
 6250TIP3    H118756   1.040   3.898   4.765
 6250TIP3    H218757   1.028   4.045   4.797
 6251TIP3   OH218758   5.093   1.631   2.034
 6251TIP3    H118759   5.140   1.548   2.048
 6251TIP3    H218760   5.158   1.688   1.993
 6252TIP3   OH218761   6.365   0.538   2.158
 6252TIP3    H118762   6.273   0.565   2.159
 6252TIP3    H218763   6.405   0.592   2.089
 6253TIP3   OH218764   2.589   0.720   1.293
 6253TIP3    H118765   2.637   0.789   1.339
 6253TIP3    H218766   2.520   0.693   1.354
 6254TIP3   OH218767   6.210   0.018   3.185
 6254TIP3    H118768   6.170   0.084   3.242
 6254TIP3    H218769   6.141  -0.003   3.122
 6255TIP3   OH218770   3.296   0.958   0.224
 6255TIP3    H118771   3.329   1.047   0.216
 6255TIP3    H218772   3.358   0.904   0.175
 6256TIP3   OH218773   2.379   5.623   1.899
 6256TIP3    H118774   2.387   5.588   1.811
 6256TIP3    H218775   2.453   5.683   1.909
 6257TIP3   OH218776   0.126   0.586   3.098
 6257TIP3    H118777   0.049   0.545   3.138
 6257TIP3    H218778   0.142   0.533   3.019
 6258TIP3   OH218779   3.432   5.726   0.706
 6258TIP3    H118780   3.405   5.643   0.667
 6258TIP3    H218781   3.367   5.789   0.676
 6259TIP3   OH218782   1.767   3.115   4.217
 6259TIP3    H118783   1.710   3.051   4.175
 6259TIP3    H218784   1.792   3.074   4.300
 6260TIP3   OH218785   5.846   5.158   1.440
 6260TIP3    H118786   5.936   5.128   1.427
 6260TIP3    H218787   5.848   5.251   1.418
 6261TIP3   OH218788   5.939   3.469   2.655
 6261TIP3    H118789   5.976   3.400   2.599
 6261TIP3    H218790   6.001   3.476   2.728
 6262TIP3   OH218791   1.216   0.719   1.247
 6262TIP3    H118792   1.268   0.682   1.176
 6262TIP3    H218793   1.252   0.680   1.326
 6263TIP3   OH218794   0.879   3.999   5.173
 6263TIP3    H118795   0.860   3.991   5.080
 6263TIP3    H218796   0.793   3.991   5.216
 6264TIP3   OH218797   3.651   3.629   4.659
 6264TIP3    H118798   3.599   3.620   4.579
 6264TIP3    H218799   3.664   3.723   4.669
 6265TIP3   OH218800   2.609   2.284   2.067
 6265TIP3    H118801   2.529   2.261   2.115
 6265TIP3    H218802   2.654   2.201   2.055
 6266TIP3   OH218803   1.194   4.898   0.789
 6266TIP3    H118804   1.127   4.836   0.761
 6266TIP3    H218805   1.261   4.895   0.720
 6267TIP3   OH218806   0.239   3.917   1.945
 6267TIP3    H118807   0.188   3.988   1.907
 6267TIP3    H218808   0.318   3.959   1.979
 6268TIP3   OH218809   2.041   0.267   4.087
 6268TIP3    H118810   2.077   0.355   4.076
 6268TIP3    H218811   2.080   0.215   4.017
 6269TIP3   OH218812   1.875   3.705   1.352
 6269TIP3    H118813   1.804   3.683   1.413
 6269TIP3    H218814   1.955   3.680   1.400
 6270TIP3   OH218815   5.678   1.310   4.772
 6270TIP3    H118816   5.661   1.404   4.771
 6270TIP3    H218817   5.773   1.303   4.787
 6271TIP3   OH218818   2.125   5.597   5.071
 6271TIP3    H118819   2.147   5.540   5.145
 6271TIP3    H218820   2.029   5.604   5.074
 6272TIP3   OH218821   6.120   2.042   0.427
 6272TIP3    H118822   6.119   2.113   0.363
 6272TIP3    H218823   6.098   1.964   0.377
 6273TIP3   OH218824   5.491   0.313   4.666
 6273TIP3    H118825   5.522   0.374   4.733
 6273TIP3    H218826   5.565   0.304   4.606
 6274TIP3   OH218827   0.756   2.660   4.305
 6274TIP3    H118828   0.774   2.603   4.380
 6274TIP3    H218829   0.758   2.748   4.341
 6275TIP3   OH218830   5.766   5.196   0.477
 6275TIP3    H118831   5.673   5.205   0.499
 6275TIP3    H218832   5.768   5.122   0.415
 6276TIP3   OH218833   2.830   0.487   0.450
 6276TIP3    H118834   2.804   0.576   0.427
 6276TIP3    H218835   2.862   0.449   0.368
 6277TIP3   OH218836   4.023   0.822   4.742
 6277TIP3    H118837   4.117   0.806   4.739
 6277TIP3    H218838   4.001   0.814   4.835
 6278TIP3   OH218839   4.735   4.719   2.192
 6278TIP3    H118840   4.824   4.725   2.156
 6278TIP3    H218841   4.739   4.647   2.255
 6279TIP3   OH218842   6.076   2.531   1.625
 6279TIP3    H118843   6.048   2.541   1.716
 6279TIP3    H218844   6.005   2.482   1.583
 6280TIP3   OH218845   4.725   5.909   2.615
 6280TIP3    H118846   4.782   5.936   2.542
 6280TIP3    H218847   4.742   5.973   2.684
 6281TIP3   OH218848   3.502   3.282   4.663
 6281TIP3    H118849   3.563   3.324   4.603
 6281TIP3    H218850   3.505   3.337   4.742
 6282TIP3   OH218851   3.703   1.659   1.931
 6282TIP3    H118852   3.724   1.734   1.875
 6282TIP3    H218853   3.712   1.583   1.873
 6283TIP3   OH218854   3.485   4.721   0.088
 6283TIP3    H118855   3.569   4.716   0.133
 6283TIP3    H218856   3.451   4.631   0.092
 6284TIP3   OH218857   2.303   1.015   5.084
 6284TIP3    H118858   2.396   1.016   5.107
 6284TIP3    H218859   2.298   0.959   5.007
 6285TIP3   OH218860   5.304   4.961   1.315
 6285TIP3    H118861   5.356   5.010   1.379
 6285TIP3    H218862   5.309   5.014   1.236
 6286TIP3   OH218863   5.820   3.391   1.415
 6286TIP3    H118864   5.895   3.332   1.419
 6286TIP3    H218865   5.780   3.385   1.502
 6287TIP3   OH218866   5.284   4.159   0.959
 6287TIP3    H118867   5.364   4.208   0.941
 6287TIP3    H218868   5.311   4.067   0.956
 6288TIP3   OH218869   0.296   1.937   1.478
 6288TIP3    H118870   0.223   1.999   1.466
 6288TIP3    H218871   0.257   1.862   1.522
 6289TIP3   OH218872   0.183   1.664   1.570
 6289TIP3    H118873   0.149   1.576   1.551
 6289TIP3    H218874   0.257   1.648   1.628
 6290TIP3   OH218875   2.555   4.210   0.398
 6290TIP3    H118876   2.568   4.137   0.338
 6290TIP3    H218877   2.464   4.203   0.425
 6291TIP3   OH218878   1.277   1.281   1.003
 6291TIP3    H118879   1.219   1.357   1.000
 6291TIP3    H218880   1.300   1.273   1.096
 6292TIP3   OH218881   0.103   4.511   0.373
 6292TIP3    H118882   0.162   4.498   0.298
 6292TIP3    H218883   0.034   4.446   0.361
 6293TIP3   OH218884   2.172   3.673   4.330
 6293TIP3    H118885   2.217   3.652   4.248
 6293TIP3    H218886   2.210   3.613   4.394
 6294TIP3   OH218887   3.851   5.888   2.846
 6294TIP3    H118888   3.886   5.902   2.758
 6294TIP3    H218889   3.919   5.837   2.891
 6295TIP3   OH218890   3.136   4.404   4.770
 6295TIP3    H118891   3.066   4.458   4.806
 6295TIP3    H218892   3.215   4.459   4.775
 6296TIP3   OH218893   5.377   3.059   4.319
 6296TIP3    H118894   5.370   3.089   4.410
 6296TIP3    H218895   5.386   2.964   4.326
 6297TIP3   OH218896   0.812   3.938   0.949
 6297TIP3    H118897   0.891   3.988   0.970
 6297TIP3    H218898   0.751   3.957   1.020
 6298TIP3   OH218899   2.879   3.567   1.629
 6298TIP3    H118900   2.819   3.569   1.554
 6298TIP3    H218901   2.919   3.654   1.630
 6299TIP3   OH218902   4.056   5.035   4.945
 6299TIP3    H118903   4.000   5.060   4.871
 6299TIP3    H218904   4.143   5.025   4.907
 6300TIP3   OH218905   0.794   4.758   4.522
 6300TIP3    H118906   0.705   4.751   4.487
 6300TIP3    H218907   0.828   4.839   4.485
 6301TIP3   OH218908   1.040   2.951   0.787
 6301TIP3    H118909   1.015   3.040   0.762
 6301TIP3    H218910   1.127   2.940   0.751
 6302TIP3   OH218911   5.266   2.802   0.284
 6302TIP3    H118912   5.246   2.715   0.249
 6302TIP3    H218913   5.303   2.786   0.370
 6303TIP3   OH218914   3.479   1.377   4.074
 6303TIP3    H118915   3.424   1.453   4.093
 6303TIP3    H218916   3.455   1.313   4.140
 6304TIP3   OH218917   4.512   1.723   0.892
 6304TIP3    H118918   4.433   1.737   0.945
 6304TIP3    H218919   4.539   1.634   0.914
 6305TIP3   OH218920   0.434   5.949   3.182
 6305TIP3    H118921   0.349   5.926   3.144
 6305TIP3    H218922   0.414   5.979   3.271
 6306TIP3   OH218923   2.325   4.682   1.081
 6306TIP3    H118924   2.367   4.768   1.068
 6306TIP3    H218925   2.395   4.619   1.061
 6307TIP3   OH218926   0.481   0.196   4.940
 6307TIP3    H118927   0.523   0.123   4.985
 6307TIP3    H218928   0.553   0.250   4.908
 6308TIP3   OH218929   1.808   2.066   4.277
 6308TIP3    H118930   1.752   2.041   4.351
 6308TIP3    H218931   1.875   1.998   4.273
 6309TIP3   OH218932   0.429   1.737   1.711
 6309TIP3    H118933   0.500   1.754   1.649
 6309TIP3    H218934   0.435   1.808   1.775
 6310TIP3   OH218935   3.460   1.980   3.729
 6310TIP3    H118936   3.501   1.900   3.764
 6310TIP3    H218937   3.529   2.046   3.735
 6311TIP3   OH218938   5.733   4.605   4.818
 6311TIP3    H118939   5.657   4.547   4.816
 6311TIP3    H218940   5.786   4.578   4.743
 6312TIP3   OH218941   4.410   0.310   1.531
 6312TIP3    H118942   4.384   0.335   1.620
 6312TIP3    H218943   4.505   0.317   1.530
 6313TIP3   OH218944   4.022   4.559   4.725
 6313TIP3    H118945   3.949   4.556   4.663
 6313TIP3    H218946   4.100   4.551   4.671
 6314TIP3   OH218947   5.069   1.861   1.672
 6314TIP3    H118948   5.049   1.872   1.579
 6314TIP3    H218949   5.155   1.819   1.673
 6315TIP3   OH218950   3.423   4.371   3.432
 6315TIP3    H118951   3.506   4.381   3.385
 6315TIP3    H218952   3.359   4.351   3.365
 6316TIP3   OH218953   1.627   4.597   4.228
 6316TIP3    H118954   1.702   4.575   4.174
 6316TIP3    H218955   1.560   4.624   4.166
 6317TIP3   OH218956   4.921   4.651   3.834
 6317TIP3    H118957   4.843   4.630   3.885
 6317TIP3    H218958   4.993   4.638   3.896
 6318TIP3   OH218959   1.383   1.818   4.851
 6318TIP3    H118960   1.462   1.780   4.813
 6318TIP3    H218961   1.416   1.883   4.914
 6319TIP3   OH218962   5.221   1.503   3.743
 6319TIP3    H118963   5.159   1.515   3.814
 6319TIP3    H218964   5.168   1.475   3.669
 6320TIP3   OH218965   0.663   2.610   0.875
 6320TIP3    H118966   0.702   2.695   0.857
 6320TIP3    H218967   0.725   2.567   0.933
 6321TIP3   OH218968   0.908   4.404   0.309
 6321TIP3    H118969   0.930   4.372   0.221
 6321TIP3    H218970   0.913   4.325   0.364
 6322TIP3   OH218971   4.162   5.058   2.375
 6322TIP3    H118972   4.192   4.967   2.383
 6322TIP3    H218973   4.240   5.110   2.396
 6323TIP3   OH218974   3.651   0.290   1.996
 6323TIP3    H118975   3.641   0.337   2.079
 6323TIP3    H218976   3.740   0.254   2.000
 6324TIP3   OH218977   0.124   2.732   4.609
 6324TIP3    H118978   0.084   2.671   4.670
 6324TIP3    H218979   0.216   2.736   4.634
 6325TIP3   OH218980   5.240   1.257   4.406
 6325TIP3    H118981   5.332   1.252   4.383
 6325TIP3    H218982   5.239   1.261   4.502
 6326TIP3   OH218983   0.799   1.045   1.550
 6326TIP3    H118984   0.854   1.124   1.549
 6326TIP3    H218985   0.731   1.062   1.485
 6327TIP3   OH218986   1.836   0.863   2.601
 6327TIP3    H118987   1.883   0.939   2.636
 6327TIP3    H218988   1.888   0.788   2.629
 6328TIP3   OH218989   0.143   3.193   1.729
 6328TIP3    H118990   0.155   3.157   1.641
 6328TIP3    H218991   0.054   3.229   1.727
 6329TIP3   OH218992   3.692   5.853   2.249
 6329TIP3    H118993   3.726   5.763   2.253
 6329TIP3    H218994   3.751   5.898   2.188
 6330TIP3   OH218995   2.911   0.888   3.026
 6330TIP3    H118996   2.865   0.936   3.095
 6330TIP3    H218997   2.960   0.954   2.979
 6331TIP3   OH218998   3.891   4.517   1.451
 6331TIP3    H118999   3.944   4.452   1.404
 6331TIP3    H219000   3.934   4.526   1.536
 6332TIP3   OH219001   3.702   2.996   4.590
 6332TIP3    H119002   3.695   3.088   4.565
 6332TIP3    H219003   3.789   2.988   4.629
 6333TIP3   OH219004   1.321   5.009   1.000
 6333TIP3    H119005   1.346   4.934   1.054
 6333TIP3    H219006   1.260   4.973   0.936
 6334TIP3   OH219007   1.050   3.198   1.392
 6334TIP3    H119008   1.108   3.273   1.405
 6334TIP3    H219009   0.990   3.200   1.466
 6335TIP3   OH219010   1.004   2.860   2.751
 6335TIP3    H119011   0.993   2.831   2.660
 6335TIP3    H219012   1.006   2.779   2.802
 6336TIP3   OH219013   0.719   2.526   4.762
 6336TIP3    H119014   0.631   2.489   4.766
 6336TIP3    H219015   0.761   2.495   4.842
 6337TIP3   OH219016   0.327   2.972   2.355
 6337TIP3    H119017   0.289   2.977   2.268
 6337TIP3    H219018   0.359   3.060   2.374
 6338TIP3   OH219019   5.094   2.078   0.580
 6338TIP3    H119020   5.000   2.059   0.582
 6338TIP3    H219021   5.102   2.153   0.521
 6339TIP3   OH219022   5.506   1.177   3.172
 6339TIP3    H119023   5.510   1.229   3.091
 6339TIP3    H219024   5.529   1.088   3.144
 6340TIP3   OH219025   5.337   5.561   2.835
 6340TIP3    H119026   5.248   5.596   2.824
 6340TIP3    H219027   5.330   5.470   2.809
 6341TIP3   OH219028   2.231   5.493   1.140
 6341TIP3    H119029   2.178   5.426   1.183
 6341TIP3    H219030   2.315   5.451   1.125
 6342TIP3   OH219031   1.692   2.206   3.566
 6342TIP3    H119032   1.600   2.181   3.565
 6342TIP3    H219033   1.693   2.294   3.529
 6343TIP3   OH219034   5.467   1.379   4.099
 6343TIP3    H119035   5.435   1.348   4.014
 6343TIP3    H219036   5.461   1.475   4.093
 6344TIP3   OH219037   3.275   4.644   4.277
 6344TIP3    H119038   3.219   4.719   4.296
 6344TIP3    H219039   3.221   4.585   4.226
 6345TIP3   OH219040   5.065   1.373   0.895
 6345TIP3    H119041   5.002   1.326   0.841
 6345TIP3    H219042   5.139   1.389   0.837
 6346TIP3   OH219043   0.908   0.824   2.716
 6346TIP3    H119044   0.972   0.817   2.645
 6346TIP3    H219045   0.871   0.736   2.723
 6347TIP3   OH219046   2.263   3.279   0.862
 6347TIP3    H119047   2.249   3.343   0.932
 6347TIP3    H219048   2.283   3.333   0.785
 6348TIP3   OH219049   5.960   4.561   0.614
 6348TIP3    H119050   5.956   4.604   0.529
 6348TIP3    H219051   5.876   4.516   0.622
 6349TIP3   OH219052   0.034   2.856   2.778
 6349TIP3    H119053  -0.010   2.817   2.854
 6349TIP3    H219054   0.120   2.882   2.811
 6350TIP3   OH219055   0.798   0.501   3.929
 6350TIP3    H119056   0.869   0.565   3.933
 6350TIP3    H219057   0.827   0.437   3.864
 6351TIP3   OH219058   2.809   2.715   2.046
 6351TIP3    H119059   2.900   2.725   2.073
 6351TIP3    H219060   2.792   2.621   2.054
 6352TIP3   OH219061   1.587   0.620   0.875
 6352TIP3    H119062   1.591   0.578   0.789
 6352TIP3    H219063   1.673   0.601   0.914
 6353TIP3   OH219064   1.790   4.127   2.746
 6353TIP3    H119065   1.715   4.096   2.797
 6353TIP3    H219066   1.863   4.074   2.777
 6354TIP3   OH219067   0.086   4.691   2.149
 6354TIP3    H119068  -0.003   4.718   2.127
 6354TIP3    H219069   0.135   4.773   2.155
 6355TIP3   OH219070   0.089   2.529   1.358
 6355TIP3    H119071   0.013   2.471   1.362
 6355TIP3    H219072   0.164   2.470   1.352
 6356TIP3   OH219073   5.217   5.500   0.895
 6356TIP3    H119074   5.269   5.543   0.827
 6356TIP3    H219075   5.163   5.569   0.932
 6357TIP3   OH219076   2.909   1.729   1.505
 6357TIP3    H119077   2.991   1.745   1.553
 6357TIP3    H219078   2.893   1.811   1.458
 6358TIP3   OH219079   1.215   2.918   1.371
 6358TIP3    H119080   1.173   2.993   1.330
 6358TIP3    H219081   1.147   2.879   1.425
 6359TIP3   OH219082   5.935   0.914   3.304
 6359TIP3    H119083   5.892   0.985   3.351
 6359TIP3    H219084   5.878   0.838   3.317
 6360TIP3   OH219085   5.011   5.728   2.077
 6360TIP3    H119086   5.076   5.719   2.147
 6360TIP3    H219087   4.994   5.822   2.071
 6361TIP3   OH219088   3.572   5.669   2.032
 6361TIP3    H119089   3.563   5.761   2.009
 6361TIP3    H219090   3.604   5.627   1.952
 6362TIP3   OH219091   2.138   4.567   0.753
 6362TIP3    H119092   2.206   4.550   0.687
 6362TIP3    H219093   2.061   4.592   0.701
 6363TIP3   OH219094   0.106   4.430   2.261
 6363TIP3    H119095   0.111   4.522   2.237
 6363TIP3    H219096   0.175   4.418   2.327
 6364TIP3   OH219097   0.588   1.309   0.349
 6364TIP3    H119098   0.608   1.362   0.272
 6364TIP3    H219099   0.638   1.349   0.420
 6365TIP3   OH219100   5.985   0.005   2.096
 6365TIP3    H119101   6.000   0.098   2.081
 6365TIP3    H219102   5.970  -0.031   2.009
 6366TIP3   OH219103   5.078   1.442   5.116
 6366TIP3    H119104   5.036   1.528   5.124
 6366TIP3    H219105   5.164   1.455   5.158
 6367TIP3   OH219106   5.222   1.406   2.751
 6367TIP3    H119107   5.257   1.361   2.674
 6367TIP3    H219108   5.130   1.423   2.730
 6368TIP3   OH219109   3.765   3.115   3.490
 6368TIP3    H119110   3.768   3.123   3.394
 6368TIP3    H219111   3.855   3.090   3.514
 6369TIP3   OH219112   3.274   5.457   0.998
 6369TIP3    H119113   3.212   5.499   0.938
 6369TIP3    H219114   3.309   5.530   1.050
 6370TIP3   OH219115   2.586   4.282   2.643
 6370TIP3    H119116   2.576   4.322   2.730
 6370TIP3    H219117   2.603   4.190   2.660
 6371TIP3   OH219118   3.357   2.950   0.937
 6371TIP3    H119119   3.372   2.865   0.978
 6371TIP3    H219120   3.305   2.999   1.001
 6372TIP3   OH219121   4.735   2.272   0.882
 6372TIP3    H119122   4.749   2.279   0.976
 6372TIP3    H219123   4.708   2.360   0.855
 6373TIP3   OH219124   3.909   3.128   0.390
 6373TIP3    H119125   3.857   3.161   0.463
 6373TIP3    H219126   3.902   3.196   0.323
 6374TIP3   OH219127   3.248   1.794   2.478
 6374TIP3    H119128   3.333   1.837   2.476
 6374TIP3    H219129   3.235   1.768   2.569
 6375TIP3   OH219130   4.633   2.152   4.803
 6375TIP3    H119131   4.673   2.200   4.875
 6375TIP3    H219132   4.572   2.214   4.763
 6376TIP3   OH219133   4.042   5.053   4.257
 6376TIP3    H119134   4.108   5.072   4.191
 6376TIP3    H219135   4.086   5.071   4.340
 6377TIP3   OH219136   0.247   5.902   2.246
 6377TIP3    H119137   0.165   5.942   2.275
 6377TIP3    H219138   0.303   5.903   2.324
 6378TIP3   OH219139   1.089   0.490   4.635
 6378TIP3    H119140   1.044   0.478   4.719
 6378TIP3    H219141   1.057   0.574   4.603
 6379TIP3   OH219142   0.148   1.089   0.385
 6379TIP3    H119143   0.234   1.075   0.426
 6379TIP3    H219144   0.091   1.113   0.459
 6380TIP3   OH219145   1.377   0.975   5.002
 6380TIP3    H119146   1.318   1.005   5.071
 6380TIP3    H219147   1.442   1.045   4.993
 6381TIP3   OH219148   0.460   0.921   3.309
 6381TIP3    H119149   0.384   0.864   3.291
 6381TIP3    H219150   0.421   1.005   3.334
 6382TIP3   OH219151   3.841   0.546   4.797
 6382TIP3    H119152   3.758   0.512   4.829
 6382TIP3    H219153   3.854   0.628   4.846
 6383TIP3   OH219154   3.037   5.712   3.837
 6383TIP3    H119155   2.971   5.694   3.771
 6383TIP3    H219156   3.027   5.805   3.857
 6384TIP3   OH219157   4.527   5.970   3.342
 6384TIP3    H119158   4.464   6.041   3.330
 6384TIP3    H219159   4.483   5.909   3.401
 6385TIP3   OH219160   1.498   2.949   2.783
 6385TIP3    H119161   1.585   2.979   2.757
 6385TIP3    H219162   1.508   2.925   2.875
 6386TIP3   OH219163   4.675   3.851   2.564
 6386TIP3    H119164   4.623   3.794   2.620
 6386TIP3    H219165   4.631   3.936   2.568
 6387TIP3   OH219166   2.702   2.731   2.893
 6387TIP3    H119167   2.607   2.730   2.879
 6387TIP3    H219168   2.727   2.639   2.892
 6388TIP3   OH219169   4.051   3.615   3.024
 6388TIP3    H119170   4.002   3.689   3.058
 6388TIP3    H219171   3.985   3.549   3.003
 6389TIP3   OH219172   2.960   1.915   4.082
 6389TIP3    H119173   2.989   1.983   4.143
 6389TIP3    H219174   2.953   1.836   4.136
 6390TIP3   OH219175   1.219   1.645   1.784
 6390TIP3    H119176   1.173   1.600   1.713
 6390TIP3    H219177   1.155   1.647   1.856
 6391TIP3   OH219178   2.903   1.520   0.121
 6391TIP3    H119179   2.927   1.558   0.205
 6391TIP3    H219180   2.981   1.532   0.066
 6392TIP3   OH219181   2.907   1.933   2.309
 6392TIP3    H119182   2.977   1.964   2.366
 6392TIP3    H219183   2.926   1.840   2.296
 6393TIP3   OH219184   3.558   1.980   3.074
 6393TIP3    H119185   3.514   2.031   3.007
 6393TIP3    H219186   3.621   1.926   3.026
 6394TIP3   OH219187   4.625   3.203   3.037
 6394TIP3    H119188   4.702   3.154   3.066
 6394TIP3    H219189   4.553   3.166   3.088
 6395TIP3   OH219190   4.024   2.025   2.043
 6395TIP3    H119191   4.046   1.984   1.959
 6395TIP3    H219192   4.090   1.990   2.104
 6396TIP3   OH219193   3.684   5.726   3.186
 6396TIP3    H119194   3.716   5.805   3.230
 6396TIP3    H219195   3.648   5.758   3.103
 6397TIP3   OH219196   4.238   4.030   5.152
 6397TIP3    H119197   4.237   3.944   5.109
 6397TIP3    H219198   4.328   4.038   5.186
 6398TIP3   OH219199   4.164   5.217   4.477
 6398TIP3    H119200   4.168   5.273   4.555
 6398TIP3    H219201   4.155   5.279   4.405
 6399TIP3   OH219202   3.423   5.411   1.621
 6399TIP3    H119203   3.381   5.331   1.653
 6399TIP3    H219204   3.460   5.386   1.536
 6400TIP3   OH219205   0.798   5.096   3.524
 6400TIP3    H119206   0.827   5.020   3.473
 6400TIP3    H219207   0.814   5.170   3.467
 6401TIP3   OH219208   2.574   5.650   2.363
 6401TIP3    H119209   2.513   5.663   2.290
 6401TIP3    H219210   2.522   5.668   2.441
 6402TIP3   OH219211   2.497   4.767   3.212
 6402TIP3    H119212   2.468   4.845   3.166
 6402TIP3    H219213   2.587   4.786   3.240
 6403TIP3   OH219214   0.986   1.471   0.920
 6403TIP3    H119215   1.020   1.544   0.973
 6403TIP3    H219216   0.891   1.485   0.919
 6404TIP3   OH219217   2.527   4.509   3.293
 6404TIP3    H119218   2.603   4.526   3.237
 6404TIP3    H219219   2.461   4.571   3.262
 6405TIP3   OH219220   5.142   4.683   1.994
 6405TIP3    H119221   5.146   4.739   1.916
 6405TIP3    H219222   5.221   4.629   1.987
 6406TIP3   OH219223   1.453   2.441   1.843
 6406TIP3    H119224   1.482   2.474   1.928
 6406TIP3    H219225   1.500   2.357   1.833
 6407TIP3   OH219226   3.723   4.362   4.360
 6407TIP3    H119227   3.665   4.436   4.340
 6407TIP3    H219228   3.680   4.318   4.433
 6408TIP3   OH219229   3.430   2.620   0.062
 6408TIP3    H119230   3.411   2.649  -0.028
 6408TIP3    H219231   3.347   2.630   0.108
 6409TIP3   OH219232   4.101   5.373   5.013
 6409TIP3    H119233   4.161   5.407   5.079
 6409TIP3    H219234   4.029   5.335   5.063
 6410TIP3   OH219235   2.274   2.087   0.393
 6410TIP3    H119236   2.352   2.085   0.337
 6410TIP3    H219237   2.267   1.997   0.426
 6411TIP3   OH219238   1.138   0.597   2.892
 6411TIP3    H119239   1.211   0.629   2.839
 6411TIP3    H219240   1.128   0.505   2.866
 6412TIP3   OH219241   1.914   2.079   3.630
 6412TIP3    H119242   1.896   1.986   3.641
 6412TIP3    H219243   1.828   2.121   3.637
 6413TIP3   OH219244   0.834   3.504   4.231
 6413TIP3    H119245   0.898   3.521   4.299
 6413TIP3    H219246   0.749   3.523   4.271
 6414TIP3   OH219247   1.232   0.519   0.173
 6414TIP3    H119248   1.175   0.523   0.097
 6414TIP3    H219249   1.258   0.609   0.189
 6415TIP3   OH219250   4.906   0.949   0.578
 6415TIP3    H119251   4.967   0.879   0.553
 6415TIP3    H219252   4.948   1.029   0.548
 6416TIP3   OH219253   2.935   1.905   0.340
 6416TIP3    H119254   2.886   1.918   0.259
 6416TIP3    H219255   2.926   1.988   0.387
 6417TIP3   OH219256   0.253   5.121   3.645
 6417TIP3    H119257   0.254   5.030   3.615
 6417TIP3    H219258   0.236   5.172   3.566
 6418TIP3   OH219259   0.047   5.145   3.132
 6418TIP3    H119260   0.018   5.056   3.116
 6418TIP3    H219261   0.140   5.136   3.154
 6419TIP3   OH219262   0.818   5.013   1.356
 6419TIP3    H119263   0.861   4.968   1.429
 6419TIP3    H219264   0.757   5.073   1.398
 6420TIP3   OH219265   2.830   0.455   2.317
 6420TIP3    H119266   2.867   0.529   2.366
 6420TIP3    H219267   2.817   0.386   2.382
 6421TIP3   OH219268   0.695   2.341   3.224
 6421TIP3    H119269   0.642   2.388   3.160
 6421TIP3    H219270   0.735   2.410   3.277
 6422TIP3   OH219271   2.935   4.546   3.894
 6422TIP3    H119272   2.902   4.482   3.831
 6422TIP3    H219273   2.863   4.609   3.902
 6423TIP3   OH219274   5.163   0.894   3.760
 6423TIP3    H119275   5.254   0.902   3.734
 6423TIP3    H219276   5.139   0.804   3.737
 6424TIP3   OH219277   0.104   0.607   3.790
 6424TIP3    H119278   0.122   0.575   3.879
 6424TIP3    H219279   0.181   0.657   3.766
 6425TIP3   OH219280   0.072   4.189   1.451
 6425TIP3    H119281   0.119   4.137   1.517
 6425TIP3    H219282   0.014   4.246   1.501
 6426TIP3   OH219283   1.506   3.515   3.512
 6426TIP3    H119284   1.416   3.506   3.544
 6426TIP3    H219285   1.513   3.606   3.484
 6427TIP3   OH219286   3.905   3.034   3.027
 6427TIP3    H119287   3.973   2.994   2.973
 6427TIP3    H219288   3.840   3.066   2.964
 6428TIP3   OH219289   5.001   2.960   3.536
 6428TIP3    H119290   4.918   3.006   3.547
 6428TIP3    H219291   5.065   3.013   3.584
 6429TIP3   OH219292   3.469   1.100   2.329
 6429TIP3    H119293   3.530   1.026   2.326
 6429TIP3    H219294   3.511   1.167   2.276
 6430TIP3   OH219295   3.853   3.934   0.708
 6430TIP3    H119296   3.825   4.012   0.660
 6430TIP3    H219297   3.877   3.871   0.640
 6431TIP3   OH219298   5.380   1.284   3.452
 6431TIP3    H119299   5.380   1.266   3.358
 6431TIP3    H219300   5.425   1.210   3.491
 6432TIP3   OH219301   2.796   2.122   4.907
 6432TIP3    H119302   2.827   2.031   4.904
 6432TIP3    H219303   2.713   2.117   4.955
 6433TIP3   OH219304   1.997   3.271   5.148
 6433TIP3    H119305   1.907   3.248   5.123
 6433TIP3    H219306   2.046   3.271   5.066
 6434TIP3   OH219307   2.181   1.551   0.544
 6434TIP3    H119308   2.144   1.470   0.509
 6434TIP3    H219309   2.261   1.523   0.589
 6435TIP3   OH219310   4.905   0.089   0.320
 6435TIP3    H119311   4.931   0.028   0.251
 6435TIP3    H219312   4.810   0.097   0.311
 6436TIP3   OH219313   4.902   4.913   2.921
 6436TIP3    H119314   4.826   4.859   2.942
 6436TIP3    H219315   4.959   4.857   2.869
 6437TIP3   OH219316   1.257   0.238   2.485
 6437TIP3    H119317   1.298   0.325   2.487
 6437TIP3    H219318   1.274   0.205   2.396
 6438TIP3   OH219319   6.071   5.626   2.482
 6438TIP3    H119320   6.011   5.556   2.457
 6438TIP3    H219321   6.142   5.581   2.529
 6439TIP3   OH219322   4.599   4.583   2.733
 6439TIP3    H119323   4.540   4.632   2.790
 6439TIP3    H219324   4.642   4.651   2.680
 6440TIP3   OH219325   3.428   0.256   0.662
 6440TIP3    H119326   3.353   0.308   0.689
 6440TIP3    H219327   3.503   0.298   0.705
 6441TIP3   OH219328   5.353   2.769   4.369
 6441TIP3    H119329   5.283   2.766   4.433
 6441TIP3    H219330   5.335   2.697   4.309
 6442TIP3   OH219331   3.513   0.295   0.034
 6442TIP3    H119332   3.603   0.327   0.039
 6442TIP3    H219333   3.472   0.349  -0.033
 6443TIP3   OH219334   2.814   3.551   2.381
 6443TIP3    H119335   2.779   3.629   2.425
 6443TIP3    H219336   2.774   3.553   2.294
 6444TIP3   OH219337   2.942   5.784   2.936
 6444TIP3    H119338   2.978   5.834   2.863
 6444TIP3    H219339   2.866   5.835   2.964
 6445TIP3   OH219340   4.230   4.924   3.277
 6445TIP3    H119341   4.167   4.855   3.299
 6445TIP3    H219342   4.211   4.947   3.187
 6446TIP3   OH219343   2.093   5.268   2.664
 6446TIP3    H119344   1.998   5.270   2.650
 6446TIP3    H219345   2.111   5.346   2.715
 6447TIP3   OH219346   1.518   0.247   3.815
 6447TIP3    H119347   1.582   0.202   3.870
 6447TIP3    H219348   1.506   0.332   3.857
 6448TIP3   OH219349   2.549   5.052   0.204
 6448TIP3    H119350   2.641   5.027   0.191
 6448TIP3    H219351   2.519   4.995   0.275
 6449TIP3   OH219352   4.571   2.278   1.618
 6449TIP3    H119353   4.570   2.351   1.681
 6449TIP3    H219354   4.535   2.204   1.667
 6450TIP3   OH219355   2.995   1.725   1.822
 6450TIP3    H119356   2.912   1.721   1.775
 6450TIP3    H219357   3.061   1.706   1.755
 6451TIP3   OH219358   3.237   4.751   3.967
 6451TIP3    H119359   3.204   4.736   4.056
 6451TIP3    H219360   3.170   4.805   3.926
 6452TIP3   OH219361   5.284   4.357   3.998
 6452TIP3    H119362   5.378   4.369   4.014
 6452TIP3    H219363   5.266   4.268   4.029
 6453TIP3   OH219364   5.222   4.246   4.654
 6453TIP3    H119365   5.171   4.207   4.725
 6453TIP3    H219366   5.313   4.240   4.684
 6454TIP3   OH219367   1.900   5.445   2.312
 6454TIP3    H119368   1.837   5.437   2.240
 6454TIP3    H219369   1.977   5.398   2.281
 6455TIP3   OH219370   6.183   4.313   1.265
 6455TIP3    H119371   6.278   4.326   1.264
 6455TIP3    H219372   6.165   4.273   1.350
 6456TIP3   OH219373   4.132   5.304   4.752
 6456TIP3    H119374   4.042   5.318   4.721
 6456TIP3    H219375   4.128   5.321   4.846
 6457TIP3   OH219376   0.399   0.654   2.723
 6457TIP3    H119377   0.432   0.577   2.676
 6457TIP3    H219378   0.472   0.715   2.724
 6458TIP3   OH219379   5.690   5.100   1.144
 6458TIP3    H119380   5.740   5.109   1.226
 6458TIP3    H219381   5.685   5.005   1.130
 6459TIP3   OH219382   3.549   1.968   2.399
 6459TIP3    H119383   3.645   1.960   2.401
 6459TIP3    H219384   3.520   1.925   2.479
 6460TIP3   OH219385   3.577   0.942   0.759
 6460TIP3    H119386   3.609   1.032   0.755
 6460TIP3    H219387   3.492   0.949   0.802
 6461TIP3   OH219388   5.249   5.235   0.427
 6461TIP3    H119389   5.155   5.246   0.413
 6461TIP3    H219390   5.288   5.258   0.343
 6462TIP3   OH219391   0.386   1.256   1.969
 6462TIP3    H119392   0.331   1.189   2.009
 6462TIP3    H219393   0.446   1.208   1.912
 6463TIP3   OH219394   4.081   5.733   2.863
 6463TIP3    H119395   4.042   5.678   2.796
 6463TIP3    H219396   4.175   5.718   2.854
 6464TIP3   OH219397   2.563   0.676   5.139
 6464TIP3    H119398   2.560   0.587   5.103
 6464TIP3    H219399   2.503   0.674   5.213
 6465TIP3   OH219400   0.544   5.338   3.956
 6465TIP3    H119401   0.465   5.318   4.004
 6465TIP3    H219402   0.514   5.383   3.877
 6466TIP3   OH219403   3.397   1.488   1.257
 6466TIP3    H119404   3.482   1.505   1.298
 6466TIP3    H219405   3.347   1.441   1.324
 6467TIP3   OH219406   0.295   5.255   1.239
 6467TIP3    H119407   0.203   5.270   1.259
 6467TIP3    H219408   0.309   5.297   1.154
 6468TIP3   OH219409   4.644   2.784   0.339
 6468TIP3    H119410   4.568   2.842   0.343
 6468TIP3    H219411   4.707   2.831   0.283
 6469TIP3   OH219412   2.958   2.178   3.937
 6469TIP3    H119413   3.001   2.093   3.937
 6469TIP3    H219414   2.866   2.158   3.917
 6470TIP3   OH219415   1.814   5.523   3.996
 6470TIP3    H119416   1.820   5.428   4.010
 6470TIP3    H219417   1.835   5.535   3.903
 6471TIP3   OH219418   2.962   2.987   5.086
 6471TIP3    H119419   3.026   2.919   5.106
 6471TIP3    H219420   2.960   3.042   5.165
 6472TIP3   OH219421   1.432   5.808   1.258
 6472TIP3    H119422   1.519   5.842   1.280
 6472TIP3    H219423   1.373   5.856   1.316
 6473TIP3   OH219424   5.593   4.201   3.926
 6473TIP3    H119425   5.520   4.219   3.866
 6473TIP3    H219426   5.578   4.258   4.001
 6474TIP3   OH219427   0.593  -0.011   3.743
 6474TIP3    H119428   0.644  -0.020   3.823
 6474TIP3    H219429   0.636   0.059   3.694
 6475TIP3   OH219430   5.060   5.903   4.838
 6475TIP3    H119431   5.119   5.922   4.911
 6475TIP3    H219432   5.002   5.835   4.872
 6476TIP3   OH219433   1.171   5.907   0.562
 6476TIP3    H119434   1.223   5.903   0.482
 6476TIP3    H219435   1.228   5.871   0.630
 6477TIP3   OH219436   2.745   0.490   2.743
 6477TIP3    H119437   2.716   0.579   2.765
 6477TIP3    H219438   2.667   0.436   2.754
 6478TIP3   OH219439   2.633   3.782   0.847
 6478TIP3    H119440   2.651   3.836   0.924
 6478TIP3    H219441   2.667   3.833   0.773
 6479TIP3   OH219442   3.673   0.468   1.588
 6479TIP3    H119443   3.615   0.446   1.661
 6479TIP3    H219444   3.622   0.446   1.510
 6480TIP3   OH219445   4.626   2.720   4.711
 6480TIP3    H119446   4.716   2.713   4.745
 6480TIP3    H219447   4.576   2.658   4.765
 6481TIP3   OH219448   0.060   5.729   4.682
 6481TIP3    H119449  -0.006   5.666   4.708
 6481TIP3    H219450   0.075   5.711   4.589
 6482TIP3   OH219451   1.922   3.612   4.509
 6482TIP3    H119452   1.992   3.637   4.449
 6482TIP3    H219453   1.860   3.564   4.454
 6483TIP3   OH219454   2.062   5.043   1.188
 6483TIP3    H119455   2.036   5.124   1.232
 6483TIP3    H219456   1.991   4.982   1.209
 6484TIP3   OH219457   4.333   0.727   0.746
 6484TIP3    H119458   4.315   0.755   0.836
 6484TIP3    H219459   4.428   0.711   0.745
 6485TIP3   OH219460   5.009   3.755   0.378
 6485TIP3    H119461   5.009   3.848   0.402
 6485TIP3    H219462   4.925   3.742   0.335
 6486TIP3   OH219463   0.600   5.685   1.241
 6486TIP3    H119464   0.650   5.692   1.160
 6486TIP3    H219465   0.583   5.591   1.251
 6487TIP3   OH219466   4.721   3.636   1.839
 6487TIP3    H119467   4.795   3.682   1.878
 6487TIP3    H219468   4.736   3.544   1.860
 6488TIP3   OH219469   5.372   4.533   1.972
 6488TIP3    H119470   5.414   4.526   2.058
 6488TIP3    H219471   5.446   4.538   1.911
 6489TIP3   OH219472   2.721   2.442   2.916
 6489TIP3    H119473   2.762   2.445   3.003
 6489TIP3    H219474   2.782   2.393   2.862
 6490TIP3   OH219475   2.736   5.219   2.727
 6490TIP3    H119476   2.690   5.255   2.651
 6490TIP3    H219477   2.778   5.139   2.694
 6491TIP3   OH219478   1.051   4.948   0.514
 6491TIP3    H119479   1.075   5.023   0.459
 6491TIP3    H219480   1.133   4.899   0.523
 6492TIP3   OH219481   0.715   3.332   4.926
 6492TIP3    H119482   0.627   3.336   4.888
 6492TIP3    H219483   0.702   3.342   5.020
 6493TIP3   OH219484   1.141   3.457   2.645
 6493TIP3    H119485   1.187   3.384   2.685
 6493TIP3    H219486   1.057   3.421   2.617
 6494TIP3   OH219487   3.621   4.790   3.366
 6494TIP3    H119488   3.700   4.826   3.327
 6494TIP3    H219489   3.627   4.696   3.349
 6495TIP3   OH219490   3.531   4.874   4.969
 6495TIP3    H119491   3.501   4.805   5.028
 6495TIP3    H219492   3.625   4.880   4.985
 6496TIP3   OH219493   3.131   1.039   3.748
 6496TIP3    H119494   3.081   0.970   3.793
 6496TIP3    H219495   3.064   1.092   3.705
 6497TIP3   OH219496   0.441   0.385   1.221
 6497TIP3    H119497   0.378   0.432   1.276
 6497TIP3    H219498   0.508   0.355   1.282
 6498TIP3   OH219499   0.914   1.573   3.577
 6498TIP3    H119500   0.950   1.636   3.639
 6498TIP3    H219501   0.929   1.487   3.617
 6499TIP3   OH219502   0.752   3.213   0.976
 6499TIP3    H119503   0.723   3.304   0.970
 6499TIP3    H219504   0.714   3.181   1.059
 6500TIP3   OH219505   5.960   5.425   3.819
 6500TIP3    H119506   5.910   5.354   3.779
 6500TIP3    H219507   5.999   5.471   3.746
 6501TIP3   OH219508   4.407   5.159   2.452
 6501TIP3    H119509   4.455   5.085   2.489
 6501TIP3    H219510   4.466   5.234   2.464
 6502TIP3   OH219511   3.419   1.953   4.085
 6502TIP3    H119512   3.385   2.031   4.041
 6502TIP3    H219513   3.511   1.975   4.104
 6503TIP3   OH219514   6.204   1.346   4.877
 6503TIP3    H119515   6.282   1.312   4.921
 6503TIP3    H219516   6.141   1.361   4.947
 6504TIP3   OH219517   0.771   5.041   0.295
 6504TIP3    H119518   0.847   4.983   0.295
 6504TIP3    H219519   0.780   5.092   0.215
 6505TIP3   OH219520   0.209   4.361   4.923
 6505TIP3    H119521   0.149   4.315   4.982
 6505TIP3    H219522   0.169   4.447   4.911
 6506TIP3   OH219523   3.535   5.424   0.633
 6506TIP3    H119524   3.591   5.361   0.679
 6506TIP3    H219525   3.454   5.425   0.684
 6507TIP3   OH219526   0.849   4.917   4.137
 6507TIP3    H119527   0.775   4.923   4.077
 6507TIP3    H219528   0.870   4.824   4.140
 6508TIP3   OH219529   2.176   1.617   4.457
 6508TIP3    H119530   2.186   1.676   4.383
 6508TIP3    H219531   2.231   1.542   4.435
 6509TIP3   OH219532   1.905   0.355   5.154
 6509TIP3    H119533   1.852   0.433   5.139
 6509TIP3    H219534   1.906   0.311   5.069
 6510TIP3   OH219535   3.457   0.587   1.405
 6510TIP3    H119536   3.458   0.640   1.485
 6510TIP3    H219537   3.367   0.555   1.399
 6511TIP3   OH219538   3.063   2.256   1.473
 6511TIP3    H119539   2.976   2.284   1.501
 6511TIP3    H219540   3.123   2.294   1.537
 6512TIP3   OH219541   2.833   4.331   0.334
 6512TIP3    H119542   2.761   4.298   0.281
 6512TIP3    H219543   2.796   4.339   0.422
 6513TIP3   OH219544   2.342   3.809   0.530
 6513TIP3    H119545   2.328   3.807   0.625
 6513TIP3    H219546   2.435   3.829   0.520
 6514TIP3   OH219547   0.963   4.087   2.898
 6514TIP3    H119548   0.936   3.996   2.886
 6514TIP3    H219549   1.049   4.082   2.939
 6515TIP3   OH219550   5.423   0.188   2.379
 6515TIP3    H119551   5.342   0.227   2.347
 6515TIP3    H219552   5.428   0.103   2.335
 6516TIP3   OH219553   0.941   5.618   4.582
 6516TIP3    H119554   0.989   5.694   4.615
 6516TIP3    H219555   0.879   5.654   4.518
 6517TIP3   OH219556   2.079   4.621   1.950
 6517TIP3    H119557   2.010   4.615   1.885
 6517TIP3    H219558   2.058   4.699   2.001
 6518TIP3   OH219559   4.388   4.696   1.622
 6518TIP3    H119560   4.345   4.782   1.619
 6518TIP3    H219561   4.461   4.703   1.561
 6519TIP3   OH219562   4.656   1.943   0.980
 6519TIP3    H119563   4.663   1.996   0.900
 6519TIP3    H219564   4.603   1.868   0.954
 6520TIP3   OH219565   3.648   2.783   3.235
 6520TIP3    H119566   3.614   2.718   3.174
 6520TIP3    H219567   3.743   2.773   3.231
 6521TIP3   OH219568   0.276   4.606   4.189
 6521TIP3    H119569   0.304   4.693   4.162
 6521TIP3    H219570   0.305   4.548   4.119
 6522TIP3   OH219571   2.805   0.736   4.789
 6522TIP3    H119572   2.890   0.703   4.759
 6522TIP3    H219573   2.741   0.680   4.744
 6523TIP3   OH219574   5.331   1.639   4.938
 6523TIP3    H119575   5.399   1.704   4.918
 6523TIP3    H219576   5.332   1.580   4.862
 6524TIP3   OH219577   2.951   1.193   4.230
 6524TIP3    H119578   2.922   1.128   4.166
 6524TIP3    H219579   2.963   1.144   4.311
 6525TIP3   OH219580   1.539   4.657   2.766
 6525TIP3    H119581   1.535   4.750   2.786
 6525TIP3    H219582   1.623   4.628   2.801
 6526TIP3   OH219583   2.567   1.326   2.303
 6526TIP3    H119584   2.498   1.309   2.238
 6526TIP3    H219585   2.531   1.293   2.385
 6527TIP3   OH219586   0.446   3.456   4.654
 6527TIP3    H119587   0.457   3.416   4.741
 6527TIP3    H219588   0.479   3.545   4.664
 6528TIP3   OH219589   2.363   2.889   1.761
 6528TIP3    H119590   2.398   2.800   1.750
 6528TIP3    H219591   2.282   2.889   1.711
 6529TIP3   OH219592   0.917   4.949   4.892
 6529TIP3    H119593   0.941   4.967   4.983
 6529TIP3    H219594   0.955   5.021   4.842
 6530TIP3   OH219595   2.729   5.310   0.279
 6530TIP3    H119596   2.818   5.275   0.274
 6530TIP3    H219597   2.689   5.266   0.353
 6531TIP3   OH219598   3.258   0.756   2.782
 6531TIP3    H119599   3.272   0.841   2.824
 6531TIP3    H219600   3.332   0.747   2.722
 6532TIP3   OH219601   4.443   0.123   5.160
 6532TIP3    H119602   4.409   0.161   5.079
 6532TIP3    H219603   4.391   0.043   5.173
 6533TIP3   OH219604   3.106   0.170   1.119
 6533TIP3    H119605   3.127   0.119   1.041
 6533TIP3    H219606   3.012   0.161   1.130
 6534TIP3   OH219607   0.946   2.752   3.019
 6534TIP3    H119608   1.002   2.674   3.019
 6534TIP3    H219609   0.966   2.796   3.102
 6535TIP3   OH219610   3.782   0.610   0.301
 6535TIP3    H119611   3.834   0.567   0.370
 6535TIP3    H219612   3.694   0.574   0.312
 6536TIP3   OH219613   0.231   4.743   4.811
 6536TIP3    H119614   0.322   4.739   4.780
 6536TIP3    H219615   0.237   4.736   4.906
 6537TIP3   OH219616   0.538   3.726   3.718
 6537TIP3    H119617   0.597   3.676   3.775
 6537TIP3    H219618   0.540   3.678   3.635
 6538TIP3   OH219619   4.234   2.462   1.661
 6538TIP3    H119620   4.305   2.526   1.663
 6538TIP3    H219621   4.211   2.454   1.569
 6539TIP3   OH219622   2.952   5.487   3.144
 6539TIP3    H119623   3.026   5.528   3.099
 6539TIP3    H219624   2.985   5.402   3.170
 6540TIP3   OH219625   5.457   1.952   1.943
 6540TIP3    H119626   5.429   2.043   1.949
 6540TIP3    H219627   5.497   1.934   2.028
 6541TIP3   OH219628   3.696   3.068   2.252
 6541TIP3    H119629   3.760   2.999   2.233
 6541TIP3    H219630   3.618   3.021   2.280
 6542TIP3   OH219631   3.608   0.414   4.849
 6542TIP3    H119632   3.624   0.354   4.921
 6542TIP3    H219633   3.572   0.359   4.779
 6543TIP3   OH219634   4.964   1.578   3.260
 6543TIP3    H119635   4.965   1.488   3.290
 6543TIP3    H219636   4.907   1.577   3.183
 6544TIP3   OH219637   2.937   0.409   3.566
 6544TIP3    H119638   3.026   0.384   3.591
 6544TIP3    H219639   2.894   0.327   3.544
 6545TIP3   OH219640   5.513   5.021   3.902
 6545TIP3    H119641   5.541   4.936   3.868
 6545TIP3    H219642   5.442   5.047   3.843
 6546TIP3   OH219643   4.483   3.939   2.859
 6546TIP3    H119644   4.441   3.857   2.884
 6546TIP3    H219645   4.428   3.975   2.789
 6547TIP3   OH219646   0.060   0.641   1.715
 6547TIP3    H119647   0.017   0.643   1.630
 6547TIP3    H219648   0.140   0.692   1.703
 6548TIP3   OH219649   1.782   3.154   0.694
 6548TIP3    H119650   1.840   3.133   0.767
 6548TIP3    H219651   1.794   3.248   0.680
 6549TIP3   OH219652   1.521   1.343   1.816
 6549TIP3    H119653   1.467   1.264   1.818
 6549TIP3    H219654   1.563   1.345   1.902
 6550TIP3   OH219655   1.351   4.478   2.650
 6550TIP3    H119656   1.412   4.549   2.670
 6550TIP3    H219657   1.389   4.434   2.574
 6551TIP3   OH219658   2.147   2.364   1.291
 6551TIP3    H119659   2.052   2.367   1.295
 6551TIP3    H219660   2.170   2.410   1.210
 6552TIP3   OH219661   1.672   4.782   1.456
 6552TIP3    H119662   1.701   4.691   1.461
 6552TIP3    H219663   1.753   4.832   1.449
 6553TIP3   OH219664   5.429   2.203   0.940
 6553TIP3    H119665   5.388   2.129   0.896
 6553TIP3    H219666   5.487   2.164   1.005
 6554TIP3   OH219667   0.915   0.594   0.981
 6554TIP3    H119668   0.835   0.605   0.929
 6554TIP3    H219669   0.968   0.532   0.932
 6555TIP3   OH219670   5.764   5.053   3.032
 6555TIP3    H119671   5.836   5.049   2.969
 6555TIP3    H219672   5.695   5.100   2.986
 6556TIP3   OH219673   6.234   2.777   2.056
 6556TIP3    H119674   6.203   2.843   2.119
 6556TIP3    H219675   6.207   2.811   1.971
 6557TIP3   OH219676   1.457   4.663   3.992
 6557TIP3    H119677   1.378   4.662   3.938
 6557TIP3    H219678   1.529   4.669   3.930
 6558TIP3   OH219679   4.401   2.945   0.345
 6558TIP3    H119680   4.400   2.974   0.254
 6558TIP3    H219681   4.308   2.936   0.368
 6559TIP3   OH219682   5.058   1.777   1.399
 6559TIP3    H119683   5.077   1.860   1.354
 6559TIP3    H219684   5.050   1.713   1.328
 6560TIP3   OH219685   5.115   2.496   2.557
 6560TIP3    H119686   5.038   2.507   2.612
 6560TIP3    H219687   5.086   2.520   2.469
 6561TIP3   OH219688   1.030   3.229   0.816
 6561TIP3    H119689   0.954   3.233   0.874
 6561TIP3    H219690   1.060   3.320   0.811
 6562TIP3   OH219691   2.884   2.761   3.154
 6562TIP3    H119692   2.912   2.676   3.187
 6562TIP3    H219693   2.928   2.771   3.070
 6563TIP3   OH219694   4.229   4.150   3.937
 6563TIP3    H119695   4.136   4.160   3.958
 6563TIP3    H219696   4.270   4.229   3.972
 6564TIP3   OH219697   0.925   4.635   4.132
 6564TIP3    H119698   0.977   4.586   4.068
 6564TIP3    H219699   0.835   4.621   4.105
 6565TIP3   OH219700   4.326   4.570   2.580
 6565TIP3    H119701   4.417   4.545   2.568
 6565TIP3    H219702   4.308   4.555   2.673
 6566TIP3   OH219703   0.727   5.853   4.005
 6566TIP3    H119704   0.734   5.945   4.027
 6566TIP3    H219705   0.807   5.813   4.040
 6567TIP3   OH219706   3.504   1.118   3.325
 6567TIP3    H119707   3.521   1.210   3.346
 6567TIP3    H219708   3.410   1.114   3.307
 6568TIP3   OH219709   0.393   0.217   0.469
 6568TIP3    H119710   0.444   0.298   0.470
 6568TIP3    H219711   0.427   0.165   0.542
 6569TIP3   OH219712   2.534   5.349   4.492
 6569TIP3    H119713   2.457   5.338   4.437
 6569TIP3    H219714   2.516   5.298   4.570
 6570TIP3   OH219715   0.718   1.604   2.751
 6570TIP3    H119716   0.764   1.630   2.671
 6570TIP3    H219717   0.730   1.510   2.757
 6571TIP3   OH219718   4.786   5.246   2.523
 6571TIP3    H119719   4.715   5.309   2.530
 6571TIP3    H219720   4.816   5.234   2.613
 6572TIP3   OH219721   1.031   1.705   1.985
 6572TIP3    H119722   1.054   1.756   2.063
 6572TIP3    H219723   0.961   1.647   2.015
 6573TIP3   OH219724   2.020   5.925   3.115
 6573TIP3    H119725   2.012   5.881   3.199
 6573TIP3    H219726   2.082   5.997   3.130
 6574TIP3   OH219727   3.733   1.564   2.694
 6574TIP3    H119728   3.748   1.488   2.750
 6574TIP3    H219729   3.638   1.566   2.681
 6575TIP3   OH219730   2.107   0.883   4.409
 6575TIP3    H119731   2.073   0.889   4.499
 6575TIP3    H219732   2.111   0.974   4.379
 6576TIP3   OH219733   3.326   1.291   0.446
 6576TIP3    H119734   3.366   1.204   0.454
 6576TIP3    H219735   3.286   1.306   0.532
 6577TIP3   OH219736   1.981   3.161   1.215
 6577TIP3    H119737   1.914   3.097   1.238
 6577TIP3    H219738   1.985   3.220   1.291
 6578TIP3   OH219739   2.701   4.810   1.722
 6578TIP3    H119740   2.762   4.760   1.669
 6578TIP3    H219741   2.614   4.779   1.695
 6579TIP3   OH219742   2.974   0.392   1.703
 6579TIP3    H119743   3.065   0.410   1.726
 6579TIP3    H219744   2.930   0.377   1.786
 6580TIP3   OH219745   1.201   0.706   1.894
 6580TIP3    H119746   1.265   0.777   1.905
 6580TIP3    H219747   1.175   0.712   1.803
 6581TIP3   OH219748   4.622   5.417   0.032
 6581TIP3    H119749   4.621   5.413   0.128
 6581TIP3    H219750   4.702   5.370   0.007
 6582TIP3   OH219751   1.079   2.841   4.720
 6582TIP3    H119752   0.987   2.821   4.734
 6582TIP3    H219753   1.116   2.760   4.685
 6583TIP3   OH219754   0.732   1.190   3.511
 6583TIP3    H119755   0.721   1.279   3.478
 6583TIP3    H219756   0.782   1.145   3.444
 6584TIP3   OH219757   4.982   2.194   4.713
 6584TIP3    H119758   4.899   2.159   4.680
 6584TIP3    H219759   5.010   2.256   4.646
 6585TIP3   OH219760   0.229   0.039   2.906
 6585TIP3    H119761   0.304   0.038   2.845
 6585TIP3    H219762   0.267   0.062   2.990
 6586TIP3   OH219763   1.628   1.365   1.198
 6586TIP3    H119764   1.546   1.315   1.187
 6586TIP3    H219765   1.634   1.380   1.292
 6587TIP3   OH219766   3.305   3.727   3.089
 6587TIP3    H119767   3.361   3.654   3.114
 6587TIP3    H219768   3.346   3.763   3.010
 6588TIP3   OH219769   1.143   4.097   0.568
 6588TIP3    H119770   1.228   4.138   0.577
 6588TIP3    H219771   1.140   4.031   0.637
 6589TIP3   OH219772   1.606   5.157   1.197
 6589TIP3    H119773   1.564   5.195   1.120
 6589TIP3    H219774   1.548   5.086   1.223
 6590TIP3   OH219775   6.344   0.989   2.232
 6590TIP3    H119776   6.274   0.994   2.167
 6590TIP3    H219777   6.402   0.920   2.201
 6591TIP3   OH219778   5.211   3.058   5.110
 6591TIP3    H119779   5.170   2.972   5.111
 6591TIP3    H219780   5.187   3.097   5.194
 6592TIP3   OH219781   6.278   0.738   1.932
 6592TIP3    H119782   6.326   0.718   1.852
 6592TIP3    H219783   6.296   0.831   1.948
 6593TIP3   OH219784   4.299   4.255   4.987
 6593TIP3    H119785   4.285   4.170   5.029
 6593TIP3    H219786   4.330   4.312   5.058
 6594TIP3   OH219787   4.152   1.522   0.457
 6594TIP3    H119788   4.061   1.502   0.432
 6594TIP3    H219789   4.194   1.436   0.464
 6595TIP3   OH219790   2.429   1.235   1.375
 6595TIP3    H119791   2.344   1.198   1.349
 6595TIP3    H219792   2.408   1.289   1.452
 6596TIP3   OH219793   0.286   1.627   4.734
 6596TIP3    H119794   0.238   1.598   4.656
 6596TIP3    H219795   0.362   1.569   4.737
 6597TIP3   OH219796   0.631   3.081   4.634
 6597TIP3    H119797   0.612   3.002   4.583
 6597TIP3    H219798   0.592   3.063   4.720
 6598TIP3   OH219799   6.229   2.388   1.389
 6598TIP3    H119800   6.200   2.457   1.449
 6598TIP3    H219801   6.175   2.400   1.311
 6599TIP3   OH219802   2.971   4.927   3.614
 6599TIP3    H119803   2.987   4.848   3.666
 6599TIP3    H219804   3.035   4.923   3.544
 6600TIP3   OH219805   4.707   2.533   0.827
 6600TIP3    H119806   4.697   2.578   0.743
 6600TIP3    H219807   4.708   2.604   0.891
 6601TIP3   OH219808   2.043   4.453   4.756
 6601TIP3    H119809   2.124   4.402   4.752
 6601TIP3    H219810   2.008   4.437   4.843
 6602TIP3   OH219811   4.894   2.838   4.463
 6602TIP3    H119812   4.971   2.804   4.508
 6602TIP3    H219813   4.910   2.819   4.370
 6603TIP3   OH219814   0.469   4.752   2.083
 6603TIP3    H119815   0.500   4.840   2.104
 6603TIP3    H219816   0.374   4.758   2.083
 6604TIP3   OH219817   3.347   5.026   2.638
 6604TIP3    H119818   3.292   5.094   2.599
 6604TIP3    H219819   3.386   4.981   2.563
 6605TIP3   OH219820   0.423   5.604   2.363
 6605TIP3    H119821   0.458   5.693   2.362
 6605TIP3    H219822   0.329   5.615   2.356
 6606TIP3   OH219823   0.525   0.157   1.970
 6606TIP3    H119824   0.446   0.107   1.952
 6606TIP3    H219825   0.533   0.219   1.898
 6607TIP3   OH219826   0.636   5.148   0.541
 6607TIP3    H119827   0.701   5.095   0.495
 6607TIP3    H219828   0.686   5.190   0.612
 6608TIP3   OH219829   0.566   3.257   3.390
 6608TIP3    H119830   0.474   3.260   3.361
 6608TIP3    H219831   0.586   3.163   3.392
 6609TIP3   OH219832   4.332   3.391   4.251
 6609TIP3    H119833   4.241   3.398   4.282
 6609TIP3    H219834   4.326   3.336   4.173
 6610TIP3   OH219835   0.155   5.686   0.829
 6610TIP3    H119836   0.190   5.683   0.740
 6610TIP3    H219837   0.231   5.708   0.884
 6611TIP3   OH219838   4.290   4.289   0.946
 6611TIP3    H119839   4.224   4.224   0.921
 6611TIP3    H219840   4.260   4.370   0.906
 6612TIP3   OH219841   5.585   0.132   1.217
 6612TIP3    H119842   5.515   0.165   1.274
 6612TIP3    H219843   5.559   0.159   1.129
 6613TIP3   OH219844   4.669   0.283   5.107
 6613TIP3    H119845   4.592   0.234   5.135
 6613TIP3    H219846   4.640   0.332   5.030
 6614TIP3   OH219847   3.674   5.834   2.535
 6614TIP3    H119848   3.598   5.778   2.556
 6614TIP3    H219849   3.661   5.859   2.443
 6615TIP3   OH219850   5.783   3.959   2.848
 6615TIP3    H119851   5.760   3.869   2.823
 6615TIP3    H219852   5.721   4.014   2.800
 6616TIP3   OH219853   4.204   0.297   3.886
 6616TIP3    H119854   4.144   0.230   3.919
 6616TIP3    H219855   4.155   0.341   3.817
 6617TIP3   OH219856   3.453   3.892   3.769
 6617TIP3    H119857   3.491   3.828   3.829
 6617TIP3    H219858   3.382   3.845   3.726
 6618TIP3   OH219859   0.741   2.079   3.154
 6618TIP3    H119860   0.649   2.050   3.158
 6618TIP3    H219861   0.739   2.170   3.183
 6619TIP3   OH219862   3.413   1.337   5.043
 6619TIP3    H119863   3.375   1.258   5.005
 6619TIP3    H219864   3.487   1.305   5.096
 6620TIP3   OH219865   5.582   5.423   1.283
 6620TIP3    H119866   5.489   5.402   1.282
 6620TIP3    H219867   5.596   5.477   1.205
 6621TIP3   OH219868   1.305   0.546   4.313
 6621TIP3    H119869   1.232   0.490   4.341
 6621TIP3    H219870   1.296   0.625   4.366
 6622TIP3   OH219871   4.092   0.584   4.429
 6622TIP3    H119872   4.085   0.573   4.334
 6622TIP3    H219873   4.050   0.506   4.465
 6623TIP3   OH219874   4.412   2.068   4.462
 6623TIP3    H119875   4.419   1.974   4.475
 6623TIP3    H219876   4.449   2.083   4.375
 6624TIP3   OH219877   3.771   0.944   4.950
 6624TIP3    H119878   3.828   0.875   4.985
 6624TIP3    H219879   3.761   0.922   4.858
 6625TIP3   OH219880   6.073   3.493   1.044
 6625TIP3    H119881   6.099   3.547   1.119
 6625TIP3    H219882   5.977   3.502   1.041
 6626TIP3   OH219883   0.521   3.415   3.936
 6626TIP3    H119884   0.550   3.324   3.924
 6626TIP3    H219885   0.591   3.468   3.899
 6627TIP3   OH219886   1.028   5.925   1.367
 6627TIP3    H119887   1.118   5.948   1.343
 6627TIP3    H219888   1.026   5.830   1.364
 6628TIP3   OH219889   1.293   4.760   3.538
 6628TIP3    H119890   1.211   4.786   3.495
 6628TIP3    H219891   1.340   4.710   3.471
 6629TIP3   OH219892   3.544   5.431   4.389
 6629TIP3    H119893   3.527   5.517   4.350
 6629TIP3    H219894   3.571   5.377   4.315
 6630TIP3   OH219895   1.156  -0.009   0.798
 6630TIP3    H119896   1.239   0.003   0.845
 6630TIP3    H219897   1.089   0.013   0.862
 6631TIP3   OH219898   3.365   0.855   1.302
 6631TIP3    H119899   3.332   0.789   1.240
 6631TIP3    H219900   3.367   0.810   1.386
 6632TIP3   OH219901   3.974   1.428   1.056
 6632TIP3    H119902   3.968   1.340   1.094
 6632TIP3    H219903   3.888   1.466   1.071
 6633TIP3   OH219904   2.822   2.952   1.812
 6633TIP3    H119905   2.907   2.996   1.813
 6633TIP3    H219906   2.812   2.918   1.901
 6634TIP3   OH219907   4.613   4.848   4.946
 6634TIP3    H119908   4.611   4.904   4.868
 6634TIP3    H219909   4.686   4.788   4.931
 6635TIP3   OH219910   5.903   2.078   2.108
 6635TIP3    H119911   5.945   1.996   2.136
 6635TIP3    H219912   5.935   2.092   2.019
 6636TIP3   OH219913   1.257   5.159   4.089
 6636TIP3    H119914   1.163   5.145   4.084
 6636TIP3    H219915   1.295   5.071   4.091
 6637TIP3   OH219916   2.620   3.805   0.375
 6637TIP3    H119917   2.607   3.871   0.307
 6637TIP3    H219918   2.701   3.760   0.349
 6638TIP3   OH219919   2.117   5.524   3.891
 6638TIP3    H119920   2.038   5.524   3.836
 6638TIP3    H219921   2.189   5.513   3.829
 6639TIP3   OH219922   5.525   0.964   2.316
 6639TIP3    H119923   5.482   0.893   2.364
 6639TIP3    H219924   5.618   0.941   2.316
 6640TIP3   OH219925   6.032   2.834   2.799
 6640TIP3    H119926   6.101   2.896   2.821
 6640TIP3    H219927   6.076   2.749   2.793
 6641TIP3   OH219928   1.283   5.439   4.023
 6641TIP3    H119929   1.275   5.346   4.045
 6641TIP3    H219930   1.375   5.460   4.043
 6642TIP3   OH219931   6.183   5.540   1.334
 6642TIP3    H119932   6.192   5.600   1.260
 6642TIP3    H219933   6.271   5.505   1.347
 6643TIP3   OH219934   6.128   1.548   2.569
 6643TIP3    H119935   6.083   1.586   2.645
 6643TIP3    H219936   6.118   1.613   2.500
 6644TIP3   OH219937   2.714   1.749   4.274
 6644TIP3    H119938   2.807   1.732   4.264
 6644TIP3    H219939   2.708   1.841   4.300
 6645TIP3   OH219940   2.831   2.602   4.984
 6645TIP3    H119941   2.857   2.510   4.980
 6645TIP3    H219942   2.830   2.622   5.078
   6.35541   5.99193   5.18917   0.00000   0.00000  -2.11848   0.00000  -2.11848  -2.99597
