Title
19942
    1ASP      N    1   0.155   2.836   3.340 -0.1593  0.2390 -0.4389
    1ASP    HT1    2   0.080   2.878   3.399 -2.3917 -1.9580 -1.5424
    1ASP    HT2    3   0.124   2.852   3.242  1.2929  1.0378 -0.7923
    1ASP    HT3    4   0.244   2.888   3.352  0.1078 -0.1040 -0.9104
    1ASP     CA    5   0.176   2.689   3.358 -0.0244 -0.5231 -1.0034
    1ASP     HA    6   0.207   2.677   3.461 -1.2784  1.3689 -0.3473
    1ASP     CB    7   0.049   2.608   3.327  0.2765 -0.1252 -0.0209
    1ASP    HB1    8   0.035   2.612   3.217  1.9420 -0.4573 -0.2753
    1ASP    HB2    9  -0.036   2.641   3.390 -0.6836  0.2764 -1.4923
    1ASP     CG   10   0.084   2.464   3.373  0.2785  0.4937 -0.2214
    1ASP    OD1   11   0.036   2.366   3.309 -0.3629 -0.2399  0.1763
    1ASP    OD2   12   0.149   2.439   3.477  0.1236  0.4544  0.3992
    1ASP      C   13   0.289   2.647   3.260  0.4259  0.5253 -0.4675
    1ASP      O   14   0.288   2.687   3.142  0.0673  0.1187 -0.3864
    2ALA      N   15   0.380   2.560   3.307  0.3687  0.3089  0.2112
    2ALA     HN   16   0.380   2.522   3.399  1.0883 -0.7812 -0.2185
    2ALA     CA   17   0.487   2.504   3.216  0.1862  0.2703 -0.1161
    2ALA     HA   18   0.535   2.590   3.171  0.5438  1.3291  2.1451
    2ALA     CB   19   0.594   2.422   3.293 -0.1340  0.2528 -0.0506
    2ALA    HB1   20   0.687   2.395   3.238 -0.9377 -1.0527 -0.8384
    2ALA    HB2   21   0.551   2.328   3.334  0.7951 -0.8541 -1.4955
    2ALA    HB3   22   0.617   2.484   3.382 -0.5086  2.3134 -1.3142
    2ALA      C   23   0.422   2.407   3.115 -0.1411 -0.0098  0.5722
    2ALA      O   24   0.317   2.343   3.143 -0.1377 -1.1606 -0.5179
    3ASP      N   25   0.481   2.380   2.994 -0.0260  0.1907  0.6213
    3ASP     HN   26   0.564   2.429   2.969 -0.1418 -0.7698 -1.9443
    3ASP     CA   27   0.431   2.293   2.883  0.2078 -0.5401  0.5730
    3ASP     HA   28   0.326   2.316   2.873  0.1324  0.4251  2.8519
    3ASP     CB   29   0.501   2.310   2.741  0.3503  0.5022 -0.1423
    3ASP    HB1   30   0.461   2.231   2.674  1.7952 -1.4592  1.1857
    3ASP    HB2   31   0.608   2.297   2.765 -0.1603 -0.6305  1.7655
    3ASP     CG   32   0.466   2.448   2.684 -0.5401 -0.5474 -0.2025
    3ASP    OD1   33   0.424   2.533   2.766  0.1680 -0.3616 -0.0930
    3ASP    OD2   34   0.500   2.478   2.568 -0.0752 -0.1260 -0.9171
    3ASP      C   35   0.428   2.147   2.930  0.0616  0.0266  0.0317
    3ASP      O   36   0.491   2.104   3.027  0.6152  0.4769  0.1535
    4GLY      N   37   0.338   2.066   2.869  0.9575  0.8589  0.0763
    4GLY     HN   38   0.280   2.096   2.793  1.0786 -0.2829 -0.4853
    4GLY     CA   39   0.321   1.928   2.905 -0.1369 -0.5674  0.3753
    4GLY    HA1   40   0.221   1.907   2.872  0.2627  0.8270 -1.9386
    4GLY    HA2   41   0.337   1.915   3.011 -0.1697  4.6575  1.2809
    4GLY      C   42   0.410   1.827   2.837 -0.3334 -0.9092  0.1243
    4GLY      O   43   0.506   1.868   2.772 -0.1167 -0.1286 -0.0852
    5PRO      N   44   0.389   1.700   2.848 -0.3417  0.1587 -0.1252
    5PRO     CD   45   0.307   1.646   2.951 -0.2278  0.0369  0.4504
    5PRO    HD1   46   0.202   1.668   2.922 -0.0035 -0.1267 -0.5237
    5PRO    HD2   47   0.333   1.685   3.051 -1.1329  1.2320  0.2348
    5PRO     CA   48   0.424   1.603   2.744  0.7290  0.0127 -0.2648
    5PRO     HA   49   0.532   1.594   2.751  0.6636 -0.5905 -0.0183
    5PRO     CB   50   0.335   1.483   2.784 -0.0396  0.2493  0.0162
    5PRO    HB1   51   0.374   1.383   2.756  0.4223  0.4546 -0.0897
    5PRO    HB2   52   0.238   1.491   2.731 -1.0984  0.9287  1.9720
    5PRO     CG   53   0.322   1.494   2.936  0.8523  0.2571 -0.3396
    5PRO    HG1   54   0.230   1.439   2.967  0.5694 -0.3405 -2.1553
    5PRO    HG2   55   0.409   1.462   2.999 -0.0002  2.6147  2.2334
    5PRO      C   56   0.398   1.642   2.593 -0.0544 -0.1563 -0.5545
    5PRO      O   57   0.285   1.677   2.567  0.1300 -0.5967 -0.1163
    6GLY      N   58   0.494   1.627   2.507  0.2683 -0.6166  0.2919
    6GLY     HN   59   0.585   1.588   2.519  0.2694 -1.1909 -1.3226
    6GLY     CA   60   0.494   1.664   2.362 -0.1168  0.1333 -0.1253
    6GLY    HA1   61   0.592   1.663   2.316  0.2550 -0.7600  0.6641
    6GLY    HA2   62   0.441   1.757   2.345 -2.7433 -1.5009 -1.4916
    6GLY      C   63   0.402   1.565   2.280  0.4187  0.4268  0.3519
    6GLY      O   64   0.371   1.453   2.329  0.0743  0.1451 -0.8096
    7ASP      N   65   0.356   1.608   2.161  0.2544  0.1971  0.2997
    7ASP     HN   66   0.370   1.698   2.122 -2.1834 -0.2595 -1.9303
    7ASP     CA   67   0.266   1.530   2.081 -0.3543 -0.5645  0.1913
    7ASP     HA   68   0.217   1.455   2.141 -1.6959 -1.0805 -1.4759
    7ASP     CB   69   0.162   1.617   2.010 -0.1122 -0.2357 -0.4914
    7ASP    HB1   70   0.212   1.674   1.929  0.6708 -0.5894 -0.2676
    7ASP    HB2   71   0.130   1.694   2.084  0.8645  0.7930 -1.1178
    7ASP     CG   72   0.043   1.543   1.951  0.0362 -0.4740  0.6885
    7ASP    OD1   73  -0.018   1.587   1.852 -0.2697  0.4968  0.3946
    7ASP    OD2   74   0.003   1.437   2.014  0.3528 -0.7618  0.4393
    7ASP      C   75   0.362   1.464   1.984  0.1750  0.6247 -0.1670
    7ASP      O   76   0.421   1.544   1.910 -0.3639 -0.3837 -0.2139
    8PRO      N   77   0.396   1.332   1.970 -0.4005 -0.1140 -0.2326
    8PRO     CD   78   0.350   1.234   2.064  0.6805 -0.0283 -0.2179
    8PRO    HD1   79   0.241   1.246   2.084  0.0321 -1.2611 -2.6385
    8PRO    HD2   80   0.402   1.247   2.161 -1.1661  0.7655  0.7272
    8PRO     CA   81   0.484   1.274   1.873  0.3807  0.3327 -0.6169
    8PRO     HA   82   0.579   1.325   1.884  0.8409 -0.7521  0.7065
    8PRO     CB   83   0.510   1.136   1.932  0.4155  0.1371  0.3102
    8PRO    HB1   84   0.595   1.142   2.004 -0.2809 -2.2492  1.4499
    8PRO    HB2   85   0.540   1.056   1.862  1.5713  1.9915 -1.4167
    8PRO     CG   86   0.388   1.093   2.010 -0.3003  0.1532 -0.1579
    8PRO    HG1   87   0.310   1.057   1.940  1.8113 -0.8416 -2.1302
    8PRO    HG2   88   0.413   1.014   2.085  0.5603 -0.2268 -0.8277
    8PRO      C   89   0.434   1.271   1.734 -0.2479  0.8687  0.1019
    8PRO      O   90   0.503   1.223   1.641  0.2546  0.5260  0.7550
    9ASP      N   91   0.304   1.295   1.715 -0.2447  0.1602  0.4168
    9ASP     HN   92   0.248   1.333   1.788 -0.5457  0.0962  0.2234
    9ASP     CA   93   0.245   1.295   1.581  0.3330 -0.6926 -0.2194
    9ASP     HA   94   0.278   1.208   1.527 -0.1639  0.9620 -3.4419
    9ASP     CB   95   0.087   1.291   1.596  0.6329 -0.6083  0.8635
    9ASP    HB1   96   0.034   1.299   1.498 -0.3451 -1.4394  1.3058
    9ASP    HB2   97   0.062   1.384   1.650 -0.2553  0.3550 -1.0964
    9ASP     CG   98   0.027   1.175   1.663 -0.1039 -0.2509  0.9189
    9ASP    OD1   99   0.104   1.078   1.676  0.1389  0.1828 -0.1272
    9ASP    OD2  100  -0.092   1.183   1.699  0.4133  0.1425 -0.4476
    9ASP      C  101   0.290   1.407   1.498  0.3441 -0.2056  0.3612
    9ASP      O  102   0.305   1.397   1.376 -0.2478 -0.4257  0.4855
   10ALA      N  103   0.312   1.527   1.564 -0.4836  0.3163 -0.5541
   10ALA     HN  104   0.298   1.536   1.662 -0.2610  0.2932 -0.5213
   10ALA     CA  105   0.366   1.639   1.489 -0.4372 -0.1439  0.0817
   10ALA     HA  106   0.318   1.652   1.393 -0.2172 -0.0696 -0.0187
   10ALA     CB  107   0.357   1.773   1.575  0.5468 -0.1139 -0.2695
   10ALA    HB1  108   0.250   1.797   1.594  0.7618  0.7490 -0.1114
   10ALA    HB2  109   0.408   1.851   1.515 -0.8795 -0.5824 -2.1848
   10ALA    HB3  110   0.400   1.772   1.677 -2.2836  1.8503  1.0759
   10ALA      C  111   0.512   1.629   1.438 -0.1353 -0.3413  0.3761
   10ALA      O  112   0.596   1.560   1.496  1.0961  0.0631  0.4090
   11GLY      N  113   0.543   1.698   1.333 -0.0124  0.0016  0.0698
   11GLY     HN  114   0.470   1.750   1.289 -1.6446  0.8388  3.3960
   11GLY     CA  115   0.681   1.679   1.275  0.9608 -0.1569 -0.2248
   11GLY    HA1  116   0.664   1.625   1.183  0.9143  1.3179 -1.1141
   11GLY    HA2  117   0.750   1.620   1.335 -0.0763 -1.2466 -0.0604
   11GLY      C  118   0.740   1.818   1.231  0.0895  0.1030 -0.0214
   11GLY    OT1  119   0.844   1.859   1.288 -0.3988  0.2710  0.4869
   11GLY    OT2  120   0.672   1.894   1.151 -0.4663 -0.2377  0.1600
   12LIT    LIT  121   4.719   5.849   1.853 -0.0963 -0.4333  0.4459
   13LIT    LIT  122   4.994   4.280   3.687  0.1055 -0.1760 -1.0523
   14LIT    LIT  123   3.504   1.926   1.478 -0.3387 -0.4812 -0.7855
   15LIT    LIT  124   0.854   4.248   4.918 -0.6664 -0.3129 -1.1658
   16LIT    LIT  125   1.500   2.161   0.793  0.1218 -0.3921 -0.4132
   17LIT    LIT  126   3.533   2.566   4.906 -0.4722  0.1667 -0.6649
   18LIT    LIT  127   0.878   1.970   1.127 -0.1880 -0.6743 -0.8916
   19LIT    LIT  128   1.815   1.925   2.093 -0.4001  0.6420  0.8475
   20LIT    LIT  129   3.954   4.060   3.337 -0.4937  0.8450 -0.2058
   21LIT    LIT  130   0.733   5.923   3.492  1.2304 -0.1256  0.2923
   22LIT    LIT  131   1.340   1.135   3.840 -0.4195 -0.0829  0.1706
   23LIT    LIT  132   2.533   2.314   2.041 -0.2686  0.2292  0.4100
   24LIT    LIT  133   4.953   2.773   1.241  0.2203 -0.6541  0.4016
   25LIT    LIT  134   3.536   5.391   1.328  0.6042 -0.0824 -0.2572
   26LIT    LIT  135   3.856   1.650   2.762  0.3422 -0.9998 -0.3841
   27LIT    LIT  136   1.240   3.132   0.043 -0.9341  0.3893  0.6388
   28LIT    LIT  137   0.123   2.301   3.163 -0.1191 -0.0021  1.3986
   29LIT    LIT  138   6.100   5.334   1.700 -0.0326 -0.4031  0.0095
   30LIT    LIT  139   3.789   4.436   0.760 -0.6300 -0.3027  0.4951
   31LIT    LIT  140   0.688   5.908   4.816 -0.0658 -0.4908  0.6894
   32LIT    LIT  141   1.736   3.537   2.041  1.0764 -0.5317 -0.0999
   33LIT    LIT  142   3.048   5.744   5.125 -0.2547  0.5259  0.7402
   34CLA    CLA  143   0.800   3.111   2.495  0.0606 -0.3750 -0.1325
   35CLA    CLA  144   0.167   1.889   4.018  0.1167  0.0722 -0.4300
   36CLA    CLA  145   1.692   1.474   4.507  0.2373  0.2394 -0.0732
   37CLA    CLA  146   2.206   4.029   5.040 -0.0514 -0.0883 -0.0046
   38CLA    CLA  147   1.942   4.691   3.772 -0.2853 -0.2607  0.3923
   39CLA    CLA  148   6.152   4.914   1.372 -0.2911 -0.1435 -0.1579
   40CLA    CLA  149   0.979   2.644   0.399 -0.2234 -0.0424 -0.1270
   41CLA    CLA  150   4.358   5.110   0.113  0.2810 -0.1110  0.2379
   42CLA    CLA  151   3.232   3.744   0.277  0.0232 -0.1155  0.3063
   43CLA    CLA  152   3.212   1.295   1.151  0.0818 -0.3783  0.0494
   44CLA    CLA  153   2.315   5.967   0.117 -0.0186  0.9402 -0.1303
   45CLA    CLA  154   5.535   3.578   3.623 -0.2074  0.1116 -0.5211
   46CLA    CLA  155   2.668   4.203   0.060 -0.2288 -0.1124  0.5431
   47CLA    CLA  156   1.391   0.967   2.731 -0.4609  0.5914 -0.2235
   48CLA    CLA  157   4.408   2.638   3.156 -0.1474 -0.4364 -0.2243
   49CLA    CLA  158   4.756   3.777   2.839  0.1231 -0.5103  0.0909
   50CLA    CLA  159   0.170   3.228   2.015 -0.2115 -0.3761 -0.4625
   51CLA    CLA  160   3.107   2.660   5.004  0.2023  0.2325 -0.0518
   52TIP3   OH2  161   4.910   2.658   5.037  0.3327  0.3738  0.0536
   52TIP3    H1  162   4.884   2.738   4.991  0.9105  0.8548  0.5377
   52TIP3    H2  163   4.964   2.611   4.975 -0.4695  0.0765 -0.4370
   53TIP3   OH2  164   4.005   3.125   0.256  0.3094 -0.2491 -0.3873
   53TIP3    H1  165   4.060   3.114   0.178 -0.0071  0.6160 -0.7402
   53TIP3    H2  166   4.063   3.106   0.329  0.3983 -1.9246 -0.8464
   54TIP3   OH2  167   5.729   5.035   2.537  0.3503  0.2559  0.0642
   54TIP3    H1  168   5.807   4.980   2.539  0.9705  1.0701 -0.8627
   54TIP3    H2  169   5.739   5.093   2.613  0.9713  0.7597 -0.3869
   55TIP3   OH2  170   3.172   5.183   1.402 -0.0128 -0.2096 -0.1242
   55TIP3    H1  171   3.118   5.258   1.377  0.8012 -0.0090 -1.3608
   55TIP3    H2  172   3.163   5.122   1.329  1.3241 -0.2138 -0.3060
   56TIP3   OH2  173   5.892   2.016   4.298 -0.3592  0.2226 -0.3208
   56TIP3    H1  174   5.975   2.023   4.250 -1.3111  0.2431 -2.0245
   56TIP3    H2  175   5.897   2.086   4.364  0.6517  0.7256 -0.9009
   57TIP3   OH2  176   4.531   1.048   3.917  0.1563  0.2674 -0.4108
   57TIP3    H1  177   4.513   1.126   3.863  1.7493 -0.7201 -2.5171
   57TIP3    H2  178   4.620   1.062   3.948  0.1774 -0.3779 -0.1867
   58TIP3   OH2  179   3.569   5.350   1.780 -0.0188 -0.6542 -0.5839
   58TIP3    H1  180   3.580   5.280   1.844 -2.3628  0.3807  1.1071
   58TIP3    H2  181   3.520   5.310   1.708 -0.4222 -1.0351 -0.1059
   59TIP3   OH2  182   3.368   4.808   0.423  0.0513  0.3351 -0.2045
   59TIP3    H1  183   3.322   4.810   0.340  0.1565 -0.4615 -0.2929
   59TIP3    H2  184   3.309   4.850   0.485  0.6205  2.3717 -0.9680
   60TIP3   OH2  185   1.051   4.933   2.981 -0.4592  0.1799 -0.1405
   60TIP3    H1  186   1.032   4.885   3.062  0.9077  0.6291  0.4804
   60TIP3    H2  187   1.099   4.870   2.927 -2.5897 -0.5934 -1.2483
   61TIP3   OH2  188   0.987   3.466   0.087 -0.0095 -0.4193  0.4415
   61TIP3    H1  189   0.920   3.478   0.154 -0.3519 -0.8915  0.1849
   61TIP3    H2  190   0.940   3.470   0.004  0.5811  1.4961  0.1378
   62TIP3   OH2  191   0.878   2.369   2.897 -0.0536 -0.5803 -0.7557
   62TIP3    H1  192   0.844   2.445   2.944 -3.3358 -1.4692 -1.4758
   62TIP3    H2  193   0.887   2.399   2.807  2.9985  0.1186 -0.3621
   63TIP3   OH2  194   3.160   5.004   1.713 -0.5448 -0.6021  0.5414
   63TIP3    H1  195   3.149   5.099   1.712  1.5805 -0.2973  0.6277
   63TIP3    H2  196   3.219   4.987   1.786 -0.5385 -1.9560  0.2639
   64TIP3   OH2  197   3.485   2.871   4.166  0.9133  0.1146 -0.4279
   64TIP3    H1  198   3.407   2.921   4.145 -1.2653 -2.0081  1.8844
   64TIP3    H2  199   3.533   2.926   4.228 -1.3454 -0.3537  1.9352
   65TIP3   OH2  200   5.660   1.906   4.198 -0.1089  0.2831 -0.2548
   65TIP3    H1  201   5.736   1.951   4.235  1.4124 -0.4865 -2.2002
   65TIP3    H2  202   5.684   1.813   4.200 -0.4385  0.1223 -1.9794
   66TIP3   OH2  203   3.455   3.579   0.408 -0.1019  0.4471 -1.0034
   66TIP3    H1  204   3.383   3.630   0.370  1.2617  2.3171 -1.2582
   66TIP3    H2  205   3.496   3.537   0.333 -1.2815 -1.1753 -0.7829
   67TIP3   OH2  206   0.224   2.737   4.547 -0.2031 -0.2697 -0.2993
   67TIP3    H1  207   0.189   2.740   4.636 -0.0688 -2.3989 -0.1135
   67TIP3    H2  208   0.158   2.690   4.497  0.9966 -1.7051 -0.6133
   68TIP3   OH2  209   3.792   1.987   0.359 -0.1772 -0.3636  0.2064
   68TIP3    H1  210   3.853   1.915   0.373  0.9514  0.5096 -0.0940
   68TIP3    H2  211   3.771   1.983   0.266 -0.3043 -0.4373  0.2371
   69TIP3   OH2  212   1.483   4.276   1.650 -0.5039  0.3972 -0.1797
   69TIP3    H1  213   1.516   4.274   1.560  0.2114 -1.4083  0.0881
   69TIP3    H2  214   1.457   4.367   1.663 -0.9728  0.6380 -2.3270
   70TIP3   OH2  215   3.243   4.014   1.934 -0.0268  0.3427 -0.3012
   70TIP3    H1  216   3.264   3.921   1.928 -2.9431 -0.7054  2.5089
   70TIP3    H2  217   3.148   4.018   1.927 -0.0396  3.0625  0.1192
   71TIP3   OH2  218   2.661   1.726   1.150 -0.3204 -0.3647 -0.0743
   71TIP3    H1  219   2.681   1.671   1.074 -0.0383  1.0172 -1.0265
   71TIP3    H2  220   2.698   1.677   1.224  0.9448 -0.9227 -1.0215
   72TIP3   OH2  221   1.215   5.122   3.530  0.7618 -0.1657  0.1052
   72TIP3    H1  222   1.205   5.029   3.550  0.7320  0.1618  1.7824
   72TIP3    H2  223   1.306   5.142   3.553  0.0891  0.7383  2.3124
   73TIP3   OH2  224   2.875   0.991   0.331  0.1498 -0.3380 -0.4679
   73TIP3    H1  225   2.845   0.961   0.417 -1.5129 -0.6496 -1.1216
   73TIP3    H2  226   2.798   0.984   0.275  0.3013  2.9332 -1.2410
   74TIP3   OH2  227   1.590   3.377   2.270 -0.9617 -0.3275  0.1474
   74TIP3    H1  228   1.598   3.447   2.335 -0.8187  0.5813 -0.8102
   74TIP3    H2  229   1.518   3.323   2.301 -0.8459  0.0397  1.0893
   75TIP3   OH2  230   4.995   4.776   1.557 -0.4275  0.1193  0.0845
   75TIP3    H1  231   5.079   4.755   1.599 -0.0477 -1.0857 -1.2066
   75TIP3    H2  232   4.932   4.779   1.630  0.1791 -2.0531  0.7717
   76TIP3   OH2  233   5.897   3.104   4.788  0.1262 -0.1850 -0.0195
   76TIP3    H1  234   5.884   3.069   4.700  0.1234  1.6300 -0.7650
   76TIP3    H2  235   5.989   3.130   4.790  1.3484 -3.9055  1.9433
   77TIP3   OH2  236   1.140   4.308   3.696  0.0846 -0.2011 -0.3057
   77TIP3    H1  237   1.091   4.247   3.751 -1.0096  0.5378 -0.4399
   77TIP3    H2  238   1.214   4.256   3.663 -0.6690 -1.3703 -0.2000
   78TIP3   OH2  239   2.263   4.478   3.549  0.1033  0.2360 -0.2717
   78TIP3    H1  240   2.254   4.429   3.467  2.5395 -1.9618  0.6481
   78TIP3    H2  241   2.218   4.423   3.614 -0.6581  1.3055  0.1318
   79TIP3   OH2  242   1.679   5.692   1.830 -0.2204  0.4833 -0.3628
   79TIP3    H1  243   1.619   5.754   1.872 -0.9372 -0.1794 -0.3821
   79TIP3    H2  244   1.623   5.641   1.771  0.5612  0.5644 -1.1902
   80TIP3   OH2  245   1.886   2.971   0.330  0.1469 -0.0928 -0.3312
   80TIP3    H1  246   1.909   2.933   0.245  1.6651 -1.5419  0.6536
   80TIP3    H2  247   1.940   3.051   0.336 -0.4178  0.3449 -0.9570
   81TIP3   OH2  248   3.051   4.715   1.154  0.1176 -0.3211 -0.4638
   81TIP3    H1  249   3.124   4.698   1.094  0.2495  1.9457 -1.0696
   81TIP3    H2  250   3.057   4.646   1.220  1.5399 -1.3945 -1.6350
   82TIP3   OH2  251   2.831   2.839   0.846 -0.2683 -0.4802  0.9209
   82TIP3    H1  252   2.854   2.819   0.756 -1.6579  0.0367  0.4258
   82TIP3    H2  253   2.894   2.789   0.899  1.9705  0.8604 -0.3094
   83TIP3   OH2  254   2.356   5.874   4.025  0.0688 -0.1636 -0.6434
   83TIP3    H1  255   2.364   5.850   3.933 -0.6035 -1.4596 -0.3826
   83TIP3    H2  256   2.443   5.856   4.062  0.4940  0.8384 -1.1016
   84TIP3   OH2  257   4.488   4.560   5.093 -0.0851  0.1132  0.0134
   84TIP3    H1  258   4.461   4.572   5.184 -0.9874  0.5589 -0.2960
   84TIP3    H2  259   4.432   4.620   5.044  0.2671 -0.2568 -0.8544
   85TIP3   OH2  260   1.120   2.516   1.506 -0.4689  0.0121  0.2139
   85TIP3    H1  261   1.107   2.546   1.596  1.4813 -0.2004  0.6025
   85TIP3    H2  262   1.178   2.582   1.468 -1.6160  0.3335 -1.0544
   86TIP3   OH2  263   1.183   5.733   4.330 -0.0640 -0.0454  0.0913
   86TIP3    H1  264   1.141   5.801   4.279  1.5122  0.6972 -0.2643
   86TIP3    H2  265   1.192   5.659   4.270 -1.2343 -0.3851  0.3064
   87TIP3   OH2  266   2.325   4.961   3.787  0.1877 -0.3255  0.3076
   87TIP3    H1  267   2.262   4.929   3.722 -0.7652  0.3872  0.8706
   87TIP3    H2  268   2.395   5.000   3.735 -0.2054 -0.4295 -0.3075
   88TIP3   OH2  269   2.875   1.620   0.334  0.1100 -0.0014 -0.4469
   88TIP3    H1  270   2.943   1.683   0.308  0.3476  0.4570  1.1839
   88TIP3    H2  271   2.884   1.548   0.271  2.0237  0.1000 -0.3530
   89TIP3   OH2  272   3.845   5.806   3.908 -0.4823  0.0713 -0.0178
   89TIP3    H1  273   3.858   5.753   3.830 -2.4064 -0.1804 -0.2188
   89TIP3    H2  274   3.808   5.888   3.876 -1.9933 -0.3099  0.6311
   90TIP3   OH2  275   4.099   2.875   3.933  0.2632 -0.0387 -0.6789
   90TIP3    H1  276   4.148   2.886   3.851  2.0612  2.6811  0.6026
   90TIP3    H2  277   4.021   2.930   3.923  0.5295  0.3665 -0.5587
   91TIP3   OH2  278   2.484   5.172   0.434  0.1579 -0.0140 -0.0555
   91TIP3    H1  279   2.476   5.219   0.351  1.5646 -1.1994 -0.9136
   91TIP3    H2  280   2.487   5.080   0.409  1.6505 -0.3519  1.2154
   92TIP3   OH2  281   0.685   5.874   2.601  0.4903 -0.2639  0.2795
   92TIP3    H1  282   0.618   5.828   2.551 -1.0755 -0.0443  2.0570
   92TIP3    H2  283   0.750   5.807   2.621 -0.3462 -1.0381  0.4552
   93TIP3   OH2  284   0.051   4.552   3.472  0.5675  0.6185 -0.1122
   93TIP3    H1  285   0.005   4.531   3.392 -0.8680  0.6385  0.6742
   93TIP3    H2  286   0.038   4.476   3.529 -1.6716  2.0474  1.4487
   94TIP3   OH2  287   0.151   3.141   0.883  0.1932  0.2739  0.3739
   94TIP3    H1  288   0.150   3.236   0.896  1.2639  0.3104  0.3138
   94TIP3    H2  289   0.162   3.106   0.971 -2.4304  0.0864  0.6836
   95TIP3   OH2  290   2.207   2.821   3.351 -0.0235 -0.1076  0.1540
   95TIP3    H1  291   2.222   2.759   3.280  0.9338 -0.5149  0.6903
   95TIP3    H2  292   2.191   2.766   3.428  0.7422  0.2837  0.6153
   96TIP3   OH2  293   3.583   5.005   1.401  0.3068  0.0434 -0.2643
   96TIP3    H1  294   3.676   4.985   1.409  0.1933 -0.8505 -0.9422
   96TIP3    H2  295   3.539   4.925   1.429 -0.2309  0.0898 -0.9386
   97TIP3   OH2  296   0.637   5.614   3.959 -0.3194 -0.0884 -0.1257
   97TIP3    H1  297   0.683   5.597   3.877  1.1046  0.3499  0.5546
   97TIP3    H2  298   0.691   5.572   4.026 -0.7254  0.7468  0.7386
   98TIP3   OH2  299   0.526   1.206   0.949 -0.1325 -0.9364 -0.4674
   98TIP3    H1  300   0.584   1.151   0.896  1.6346 -0.4136  0.8456
   98TIP3    H2  301   0.528   1.291   0.905  0.5090 -0.7809 -0.1405
   99TIP3   OH2  302   5.338   5.042   0.954 -0.0603 -0.2081  0.2371
   99TIP3    H1  303   5.329   4.962   1.005 -1.9611 -0.3445 -0.2352
   99TIP3    H2  304   5.267   5.037   0.889  1.0035  0.9250 -1.0823
  100TIP3   OH2  305   3.503   3.437   1.089 -0.0063 -0.5958  0.1217
  100TIP3    H1  306   3.593   3.465   1.073 -0.5068  1.9340  1.1212
  100TIP3    H2  307   3.464   3.433   1.001  0.5935  0.2647 -0.2074
  101TIP3   OH2  308   0.817   1.927   2.068 -0.3563 -0.4560  0.3896
  101TIP3    H1  309   0.814   1.959   2.158  0.0390 -0.1802  0.3056
  101TIP3    H2  310   0.746   1.862   2.064 -2.3641  1.6429  0.0752
  102TIP3   OH2  311   3.867   2.967   4.866 -0.0451  0.0474  0.0905
  102TIP3    H1  312   3.864   2.899   4.799 -0.3540  2.3321 -2.4186
  102TIP3    H2  313   3.777   2.971   4.900  0.4286 -2.0554  1.7486
  103TIP3   OH2  314   4.625   1.799   2.482  0.1438 -0.8516  0.3723
  103TIP3    H1  315   4.609   1.787   2.576 -1.3009  0.2667  0.3064
  103TIP3    H2  316   4.541   1.782   2.441  0.1772  0.7967 -0.4876
  104TIP3   OH2  317   5.053   0.331   2.466  0.8774  0.4542 -0.7589
  104TIP3    H1  318   5.136   0.289   2.487 -0.2451 -0.7844  1.5887
  104TIP3    H2  319   5.027   0.377   2.547  0.0411  2.2251 -1.9528
  105TIP3   OH2  320   0.506   2.872   1.295 -0.2292  0.0380  0.1745
  105TIP3    H1  321   0.417   2.866   1.327  0.0096 -0.2702  0.7918
  105TIP3    H2  322   0.548   2.791   1.325 -0.0213 -0.3035 -0.9838
  106TIP3   OH2  323   1.951   0.674   3.509  0.1666 -0.1904  0.6766
  106TIP3    H1  324   1.946   0.707   3.598 -0.2914  0.6060  0.3660
  106TIP3    H2  325   1.983   0.584   3.518  0.8255  0.1300  1.5795
  107TIP3   OH2  326   4.018   2.264   1.792 -0.0076 -0.1692 -0.3560
  107TIP3    H1  327   4.080   2.321   1.838 -0.2188 -0.1842 -0.0570
  107TIP3    H2  328   3.938   2.268   1.844 -0.2831 -0.0928 -0.7848
  108TIP3   OH2  329   2.642   2.539   4.497  0.6157 -0.5498 -0.7679
  108TIP3    H1  330   2.626   2.631   4.516 -3.1004 -0.0625 -4.5576
  108TIP3    H2  331   2.720   2.539   4.442  1.7454 -0.0058  0.7659
  109TIP3   OH2  332   2.626   0.346   1.681  0.7388 -0.0239  0.6928
  109TIP3    H1  333   2.709   0.326   1.638  0.4055 -0.9458  0.4622
  109TIP3    H2  334   2.649   0.367   1.771  1.2947  0.5184  0.4355
  110TIP3   OH2  335   2.601   1.077   1.685  0.2246 -0.5684  0.2041
  110TIP3    H1  336   2.641   1.002   1.641 -0.2680 -0.1585 -0.9862
  110TIP3    H2  337   2.531   1.038   1.738 -1.2773 -0.8565 -1.8464
  111TIP3   OH2  338   1.657   1.503   2.866  0.2296 -0.3979 -0.0505
  111TIP3    H1  339   1.610   1.421   2.850 -0.8363 -0.0044  0.8908
  111TIP3    H2  340   1.732   1.479   2.919 -0.9313 -0.5897  1.5582
  112TIP3   OH2  341   5.369   3.925   0.532 -0.7775 -0.5506 -0.3121
  112TIP3    H1  342   5.407   3.838   0.522  0.5395 -0.2304  1.3501
  112TIP3    H2  343   5.407   3.977   0.461 -1.1740 -1.1765 -0.9997
  113TIP3   OH2  344   1.922   1.585   1.473  0.1043 -0.1887  0.0428
  113TIP3    H1  345   1.836   1.567   1.509  0.2759 -0.4945  0.3050
  113TIP3    H2  346   1.907   1.652   1.407 -0.1253  0.9177  1.1796
  114TIP3   OH2  347   1.020   1.469   3.821  0.3185  0.1362 -0.1655
  114TIP3    H1  348   1.074   1.466   3.900  0.8291  1.1342 -0.4762
  114TIP3    H2  349   0.970   1.550   3.829 -1.6637 -1.0689  0.4432
  115TIP3   OH2  350   2.267   4.645   2.414  0.0852 -0.1929  0.2294
  115TIP3    H1  351   2.323   4.714   2.451  0.6375 -0.6370  0.2368
  115TIP3    H2  352   2.258   4.581   2.484 -0.3194 -0.1901  0.1794
  116TIP3   OH2  353   2.309   5.322   3.406 -0.7305  0.1162  0.1444
  116TIP3    H1  354   2.262   5.315   3.323 -0.4970  2.2165 -0.2303
  116TIP3    H2  355   2.241   5.318   3.473 -0.8885 -1.9416 -0.0724
  117TIP3   OH2  356   1.694   0.842   5.042 -0.1424  0.2503 -0.2163
  117TIP3    H1  357   1.700   0.925   5.089  1.3788 -0.6836  1.4093
  117TIP3    H2  358   1.605   0.840   5.007 -0.1868  2.5703 -0.3936
  118TIP3   OH2  359   3.417   5.294   0.904 -0.5175  0.3549 -0.5320
  118TIP3    H1  360   3.414   5.342   0.821 -1.5079  1.1539 -0.0456
  118TIP3    H2  361   3.482   5.341   0.957 -0.2104  0.1070 -0.6831
  119TIP3   OH2  362   3.107   0.173   0.177 -0.1409 -0.1617 -0.2178
  119TIP3    H1  363   3.145   0.185   0.264 -1.4207  0.4319  0.2929
  119TIP3    H2  364   3.146   0.242   0.124  0.1848 -0.1402  0.0459
  120TIP3   OH2  365   0.097   0.240   2.812 -0.0680 -0.0919 -0.5100
  120TIP3    H1  366   0.190   0.250   2.792  0.2067  0.8673  1.0719
  120TIP3    H2  367   0.052   0.284   2.741  0.8191  2.1154  0.2036
  121TIP3   OH2  368   5.123   0.803   2.402  0.1146  0.4895 -0.3031
  121TIP3    H1  369   5.184   0.877   2.409  1.2322 -0.4291 -0.0665
  121TIP3    H2  370   5.172   0.736   2.354 -0.3581 -0.6196  0.7044
  122TIP3   OH2  371   5.540   1.921   0.496 -0.2170 -0.2591 -0.4493
  122TIP3    H1  372   5.488   1.964   0.564 -3.0835 -0.3420 -2.4324
  122TIP3    H2  373   5.540   1.828   0.520 -0.8583 -0.2356 -0.3625
  123TIP3   OH2  374   0.995   2.163   4.411  0.0701  0.1249 -0.3399
  123TIP3    H1  375   0.937   2.091   4.438 -0.7537  0.9378  0.1280
  123TIP3    H2  376   1.044   2.128   4.337  0.6430 -1.3640  0.6857
  124TIP3   OH2  377   3.605   2.058   1.368  0.1201 -0.6061  0.7232
  124TIP3    H1  378   3.538   2.114   1.329  0.3178  0.8035  2.3002
  124TIP3    H2  379   3.687   2.091   1.333  0.1569 -0.8247  0.5979
  125TIP3   OH2  380   5.183   0.903   2.915 -0.3733 -0.2011 -0.3340
  125TIP3    H1  381   5.230   0.841   2.860  1.7870 -0.4096  1.6058
  125TIP3    H2  382   5.157   0.853   2.992  1.9336  1.2958  1.5487
  126TIP3   OH2  383   0.473   0.041   4.219  0.0289  0.0125  0.1435
  126TIP3    H1  384   0.398   0.097   4.237  0.8639  1.4469 -0.6674
  126TIP3    H2  385   0.543   0.101   4.193  0.8279 -1.4301 -1.2321
  127TIP3   OH2  386   5.356   2.101   3.196 -0.0842  0.4921  0.6689
  127TIP3    H1  387   5.376   2.180   3.245 -1.1020  1.4472 -0.4201
  127TIP3    H2  388   5.339   2.131   3.107 -1.6605 -0.8089  0.4958
  128TIP3   OH2  389   3.957   2.214   0.629  0.6627  0.6229  0.0320
  128TIP3    H1  390   3.873   2.228   0.673  1.0840 -1.2937  1.5977
  128TIP3    H2  391   3.964   2.119   0.621  0.4673  0.7830 -4.6352
  129TIP3   OH2  392   3.369   1.567   1.065  0.5626  1.0945  0.2458
  129TIP3    H1  393   3.283   1.536   1.092  0.7187  0.7508  0.3518
  129TIP3    H2  394   3.354   1.605   0.978 -0.5252  4.8025  1.8651
  130TIP3   OH2  395   2.646   0.327   3.272  0.2229 -0.1559 -0.7414
  130TIP3    H1  396   2.622   0.322   3.179  0.2376  2.3309 -0.9224
  130TIP3    H2  397   2.572   0.370   3.314  1.6629  1.9260 -0.2348
  131TIP3   OH2  398   3.328   1.252   1.437  0.1888 -0.1433 -0.1247
  131TIP3    H1  399   3.294   1.265   1.348  1.5826 -1.1527 -0.8483
  131TIP3    H2  400   3.422   1.239   1.425  0.1296 -2.4499  1.2366
  132TIP3   OH2  401   1.723   5.504   4.279  0.1397 -0.4917  0.1250
  132TIP3    H1  402   1.786   5.434   4.298  0.1235 -0.3319  0.7987
  132TIP3    H2  403   1.650   5.486   4.338  0.6602  0.7923  1.1986
  133TIP3   OH2  404   4.206   5.179   1.176 -0.3116  0.0308  0.2996
  133TIP3    H1  405   4.181   5.178   1.268 -0.5343 -0.8694  0.2392
  133TIP3    H2  406   4.169   5.261   1.142  0.5724  0.8214  1.2076
  134TIP3   OH2  407   5.077   0.285   2.071 -0.4874 -0.0037  0.1098
  134TIP3    H1  408   4.993   0.245   2.095 -0.2785 -1.1347 -0.9318
  134TIP3    H2  409   5.142   0.239   2.125 -0.2503 -1.1188 -1.0690
  135TIP3   OH2  410   2.194   0.366   0.207  0.6003  0.5165 -0.0496
  135TIP3    H1  411   2.223   0.280   0.178 -1.3132 -0.7785  1.5539
  135TIP3    H2  412   2.243   0.382   0.288 -1.5329 -0.8127  1.6258
  136TIP3   OH2  413   3.416   2.202   1.227  0.1639 -0.2808 -0.2880
  136TIP3    H1  414   3.394   2.144   1.155  1.3312 -2.2740  0.8765
  136TIP3    H2  415   3.331   2.227   1.264 -0.3672 -1.7563 -0.4461
  137TIP3   OH2  416   3.517   2.642   0.173  0.1210 -0.4914 -0.1943
  137TIP3    H1  417   3.490   2.732   0.150 -0.0687 -0.1688  1.2022
  137TIP3    H2  418   3.612   2.647   0.181  0.1680 -0.5584 -0.6745
  138TIP3   OH2  419   1.364   1.516   2.898  0.0998  0.2906 -0.1787
  138TIP3    H1  420   1.349   1.440   2.955 -0.6895  0.2056 -0.4822
  138TIP3    H2  421   1.459   1.526   2.896  0.2681 -1.1319 -0.6891
  139TIP3   OH2  422   4.191   3.672   4.085  0.0494  0.3199  0.2229
  139TIP3    H1  423   4.220   3.623   4.008 -0.0607 -1.7412  1.4190
  139TIP3    H2  424   4.171   3.759   4.052  2.1801  0.1850 -1.6529
  140TIP3   OH2  425   3.418   1.859   2.845  0.0004 -0.0208 -0.3475
  140TIP3    H1  426   3.403   1.867   2.939 -2.1918  0.8668 -0.6966
  140TIP3    H2  427   3.349   1.799   2.815 -0.3110  0.9071 -1.5707
  141TIP3   OH2  428   4.264   0.247   0.094  0.3069 -0.5447 -0.1050
  141TIP3    H1  429   4.323   0.172   0.080  0.2880 -0.6147  0.1826
  141TIP3    H2  430   4.232   0.236   0.184 -0.6022 -0.8274 -0.4523
  142TIP3   OH2  431   5.737   3.010   3.106 -0.3688  0.4390 -1.2499
  142TIP3    H1  432   5.683   2.949   3.156 -0.7977  0.1118 -2.0925
  142TIP3    H2  433   5.788   3.057   3.172 -0.8264 -0.0718 -0.5219
  143TIP3   OH2  434   1.609   5.497   2.294  0.3061 -0.0150  0.5508
  143TIP3    H1  435   1.556   5.554   2.240  1.4612 -1.0688 -1.8278
  143TIP3    H2  436   1.590   5.409   2.262 -0.7838 -0.9877  3.5386
  144TIP3   OH2  437   4.321   5.515   2.922 -0.1469 -0.2433  0.0781
  144TIP3    H1  438   4.295   5.509   2.830 -0.1589 -0.8904  0.1176
  144TIP3    H2  439   4.412   5.485   2.924  1.0559  2.9779 -0.2152
  145TIP3   OH2  440   4.686   5.667   4.766  0.2750  0.3057  0.1179
  145TIP3    H1  441   4.596   5.650   4.795 -0.6290  2.6471 -1.0890
  145TIP3    H2  442   4.682   5.753   4.724  2.9009  0.0438 -0.8380
  146TIP3   OH2  443   0.270   1.531   3.594 -0.3347 -0.1474 -0.3346
  146TIP3    H1  444   0.292   1.553   3.503  1.3153  0.6885  0.2223
  146TIP3    H2  445   0.314   1.598   3.646  2.3098 -2.8748  1.2975
  147TIP3   OH2  446   5.904   5.091   1.289  0.4124 -0.0686 -0.5111
  147TIP3    H1  447   5.892   5.087   1.194  0.3812 -0.5545 -0.4893
  147TIP3    H2  448   5.977   5.031   1.307  1.0331  0.7197 -0.3257
  148TIP3   OH2  449   6.149   2.226   3.322 -0.0539 -0.2156  0.6326
  148TIP3    H1  450   6.163   2.184   3.407 -0.2151 -0.8533  0.3497
  148TIP3    H2  451   6.223   2.287   3.313  0.7059 -1.1077  0.6478
  149TIP3   OH2  452   1.458   5.340   3.922 -0.4200  0.2245 -0.1298
  149TIP3    H1  453   1.411   5.264   3.887  0.0226  0.5043 -1.3992
  149TIP3    H2  454   1.529   5.302   3.974 -0.8478 -0.2079  0.1514
  150TIP3   OH2  455   1.223   5.705   2.680  0.7418  0.5902  0.4003
  150TIP3    H1  456   1.308   5.677   2.713  0.6667  0.7838  0.7606
  150TIP3    H2  457   1.207   5.649   2.604 -0.5933 -2.3114  2.5866
  151TIP3   OH2  458   2.809   4.641   4.563  0.5754 -0.2068 -0.2446
  151TIP3    H1  459   2.734   4.587   4.588  0.1788 -0.0770 -1.1101
  151TIP3    H2  460   2.865   4.642   4.641  0.7911 -2.1945 -0.3322
  152TIP3   OH2  461   3.313   2.028   0.484 -0.1563  0.7573 -0.2763
  152TIP3    H1  462   3.308   2.121   0.506 -0.7421  0.5617  0.4797
  152TIP3    H2  463   3.226   1.994   0.505  0.7429 -0.4376  1.7445
  153TIP3   OH2  464   2.379   3.313   0.896 -0.1138  0.5628 -0.2340
  153TIP3    H1  465   2.370   3.408   0.886  1.8662  0.6983 -1.2399
  153TIP3    H2  466   2.413   3.301   0.985 -3.6690  0.4440  1.2935
  154TIP3   OH2  467   1.061   3.431   3.238  0.8665 -0.0843  0.2539
  154TIP3    H1  468   1.012   3.512   3.247 -0.0148 -0.6624  0.8549
  154TIP3    H2  469   1.060   3.413   3.144 -1.3691 -0.8239  0.3598
  155TIP3   OH2  470   0.350   0.960   3.628 -0.2805 -0.0267 -0.2706
  155TIP3    H1  471   0.341   1.008   3.710 -1.9911 -2.2126  0.9483
  155TIP3    H2  472   0.392   1.022   3.568  0.0596  2.0090  1.9159
  156TIP3   OH2  473   4.649   3.685   1.915  0.1570  0.0043 -0.2172
  156TIP3    H1  474   4.729   3.682   1.967  0.1153 -1.1395 -0.1880
  156TIP3    H2  475   4.589   3.739   1.966  0.7089  0.3720  0.0498
  157TIP3   OH2  476   1.322   1.850   1.993 -0.0938  0.0037 -0.1785
  157TIP3    H1  477   1.355   1.823   1.907 -0.5120  0.2340 -0.4156
  157TIP3    H2  478   1.236   1.888   1.975  0.5080  1.5824  0.1106
  158TIP3   OH2  479   5.855   4.738   1.273 -0.2546  0.5678 -0.0020
  158TIP3    H1  480   5.894   4.661   1.230 -2.8154 -1.2291  0.6384
  158TIP3    H2  481   5.927   4.777   1.321  1.0545 -1.8114  0.1435
  159TIP3   OH2  482   0.851   0.443   3.494 -0.5397  0.4565  0.8804
  159TIP3    H1  483   0.799   0.457   3.415  1.2863  1.8865 -0.1213
  159TIP3    H2  484   0.836   0.351   3.517  0.8170 -0.7777 -2.5818
  160TIP3   OH2  485   3.490   4.321   4.200  0.2993  0.0301  0.1656
  160TIP3    H1  486   3.561   4.383   4.219 -0.0709 -0.0700  2.0810
  160TIP3    H2  487   3.413   4.376   4.191  0.7103  0.2465 -2.9980
  161TIP3   OH2  488   2.194   1.814   3.070  0.3140  0.4661 -0.4909
  161TIP3    H1  489   2.152   1.896   3.045  0.4441  1.0818  1.2334
  161TIP3    H2  490   2.122   1.751   3.078 -0.6730  1.8578  3.9031
  162TIP3   OH2  491   0.443   2.386   1.231  0.4211 -0.0209 -0.3829
  162TIP3    H1  492   0.502   2.329   1.183 -0.7832 -0.1482 -1.8238
  162TIP3    H2  493   0.374   2.328   1.263 -0.3142  0.4494 -1.0535
  163TIP3   OH2  494   3.774   5.659   3.689  0.5342  0.2676  0.2573
  163TIP3    H1  495   3.857   5.615   3.671  0.4729  0.5908 -0.9264
  163TIP3    H2  496   3.714   5.589   3.714  0.9210 -0.0872  0.2046
  164TIP3   OH2  497   4.201   3.380   4.999  0.4034  0.0862 -0.4519
  164TIP3    H1  498   4.164   3.390   5.086  0.1765  1.3162 -0.6750
  164TIP3    H2  499   4.143   3.318   4.955 -0.8997  1.3083 -0.5103
  165TIP3   OH2  500   1.835   3.214   2.720  0.4574 -0.4710 -0.5044
  165TIP3    H1  501   1.780   3.181   2.791 -0.0812 -1.3052 -1.2908
  165TIP3    H2  502   1.886   3.285   2.760 -1.1120  0.2621  0.2742
  166TIP3   OH2  503   5.616   3.472   4.169 -0.3824 -0.2522  0.5419
  166TIP3    H1  504   5.588   3.515   4.088 -0.8200  1.3413  1.4891
  166TIP3    H2  505   5.709   3.495   4.176 -0.5338  0.2717  0.8752
  167TIP3   OH2  506   0.353   4.498   0.073  0.3429 -0.0248  0.2602
  167TIP3    H1  507   0.365   4.403   0.078  0.4042 -0.1106 -1.1402
  167TIP3    H2  508   0.258   4.511   0.084  0.1813 -0.3520 -0.6692
  168TIP3   OH2  509   5.602   4.909   3.510  0.3232  0.7506  0.1300
  168TIP3    H1  510   5.656   4.829   3.516  0.6922  0.9913  0.0548
  168TIP3    H2  511   5.529   4.884   3.453  1.2365  0.9031 -1.1450
  169TIP3   OH2  512   0.388   0.503   0.209 -0.0934 -0.1311  0.0773
  169TIP3    H1  513   0.424   0.417   0.233 -1.1167 -0.2182  1.3994
  169TIP3    H2  514   0.399   0.508   0.114  0.1875 -1.6280  0.0088
  170TIP3   OH2  515   3.868   4.957   2.099 -0.1921  0.4302  0.4129
  170TIP3    H1  516   3.952   4.998   2.119  0.0720 -0.3265  0.8988
  170TIP3    H2  517   3.855   4.974   2.006  0.1333  1.1967  0.4964
  171TIP3   OH2  518   3.628   4.615   3.090  0.0290 -0.2162  1.1974
  171TIP3    H1  519   3.717   4.584   3.110  0.6376  1.0113  0.5400
  171TIP3    H2  520   3.595   4.552   3.025  0.9291  0.0159  0.4866
  172TIP3   OH2  521   1.453   3.082   0.901 -0.1287 -0.2916  0.4448
  172TIP3    H1  522   1.449   3.060   0.808 -0.5433  1.3999  0.0263
  172TIP3    H2  523   1.517   3.153   0.906  1.4663 -1.7166  1.7798
  173TIP3   OH2  524   5.478   5.064   0.136 -0.3362  0.2817 -0.4592
  173TIP3    H1  525   5.441   4.977   0.125 -1.8978  0.8334  0.0187
  173TIP3    H2  526   5.573   5.051   0.135 -0.5328 -1.3471 -0.8118
  174TIP3   OH2  527   4.232   4.562   1.131  0.3314  0.1718  0.3991
  174TIP3    H1  528   4.284   4.576   1.211  1.6191 -0.0494 -0.3678
  174TIP3    H2  529   4.273   4.619   1.066 -0.4063 -0.0115 -0.2308
  175TIP3   OH2  530   3.088   4.568   1.366  0.2653 -0.0643 -0.0680
  175TIP3    H1  531   3.138   4.639   1.406 -1.0433  1.0460 -0.3176
  175TIP3    H2  532   3.051   4.521   1.440 -1.3475  1.3900  0.1090
  176TIP3   OH2  533   2.413   2.237   2.518 -0.8966 -0.3000 -0.4571
  176TIP3    H1  534   2.323   2.251   2.488 -1.4467  0.8816  1.5487
  176TIP3    H2  535   2.404   2.188   2.600  0.1387  1.1340  0.5734
  177TIP3   OH2  536   5.249   4.332   2.697 -0.0665 -0.0409 -0.0463
  177TIP3    H1  537   5.337   4.296   2.705 -0.5697 -0.9688  2.0440
  177TIP3    H2  538   5.207   4.280   2.629  0.3643 -0.9875  0.3986
  178TIP3   OH2  539   2.015   0.371   1.615  0.0069  0.6910 -0.1516
  178TIP3    H1  540   1.954   0.325   1.673  0.3899  2.3630  1.6702
  178TIP3    H2  541   1.967   0.381   1.533 -0.8613 -1.0214  0.0945
  179TIP3   OH2  542   3.983   0.551   2.984  0.1475 -0.0526  0.4082
  179TIP3    H1  543   3.985   0.541   3.079 -0.4576 -1.0551  0.3238
  179TIP3    H2  544   3.909   0.611   2.969 -0.1551 -0.3916  0.5325
  180TIP3   OH2  545   5.208   2.802   4.831 -0.2721 -0.3425 -0.0328
  180TIP3    H1  546   5.266   2.732   4.801  0.5733  0.9186 -1.5431
  180TIP3    H2  547   5.132   2.797   4.773  0.0459  0.3111 -0.5195
  181TIP3   OH2  548   3.353   3.063   3.174 -0.3376 -0.0712  0.2581
  181TIP3    H1  549   3.316   3.000   3.236 -1.9877 -1.0087 -1.5384
  181TIP3    H2  550   3.289   3.135   3.173  0.0087  0.2342  0.1233
  182TIP3   OH2  551   3.724   3.274   3.852  0.3990  0.0333 -0.8737
  182TIP3    H1  552   3.630   3.286   3.842  0.6714  1.7212 -1.7936
  182TIP3    H2  553   3.744   3.307   3.940  0.2780  0.6904 -1.0909
  183TIP3   OH2  554   3.207   2.485   0.078 -0.0084  0.0451 -0.4367
  183TIP3    H1  555   3.301   2.498   0.073 -0.1559  1.0525 -0.7477
  183TIP3    H2  556   3.170   2.573   0.076 -1.0132 -0.3754 -1.5933
  184TIP3   OH2  557   3.463   3.655   3.667  0.4036 -0.1997 -0.3803
  184TIP3    H1  558   3.373   3.685   3.680  1.3710  2.5264  0.9004
  184TIP3    H2  559   3.479   3.666   3.573 -0.6974 -1.0998 -0.6843
  185TIP3   OH2  560   3.923   1.652  -0.011  0.4055  0.1370  0.2666
  185TIP3    H1  561   3.837   1.661   0.030 -0.7099 -1.8014 -1.4937
  185TIP3    H2  562   3.941   1.558  -0.010  1.3959  0.2700 -1.5302
  186TIP3   OH2  563   4.857   0.218   0.864 -0.2373 -0.6979  0.1175
  186TIP3    H1  564   4.870   0.133   0.906 -1.7511 -0.8020  0.4391
  186TIP3    H2  565   4.831   0.197   0.774  2.9560 -0.4779 -0.9761
  187TIP3   OH2  566   2.222   3.894   3.709 -0.5172 -0.0707  0.9812
  187TIP3    H1  567   2.226   3.989   3.720 -3.2119  0.1299  0.9197
  187TIP3    H2  568   2.253   3.879   3.620 -1.0403  0.8964  0.6213
  188TIP3   OH2  569   1.441   1.658   2.572  0.2660 -0.0674 -0.4359
  188TIP3    H1  570   1.405   1.576   2.539 -0.5414  1.0504 -2.5437
  188TIP3    H2  571   1.380   1.685   2.641 -1.4724  0.4170 -2.0807
  189TIP3   OH2  572   2.697   4.629   3.878 -0.7297 -0.3175 -0.4975
  189TIP3    H1  573   2.671   4.643   3.969 -1.7116  1.2112 -0.9719
  189TIP3    H2  574   2.625   4.579   3.840 -1.2568  0.7232 -0.8971
  190TIP3   OH2  575   3.929   3.826   2.248  0.6103  0.4283  0.0078
  190TIP3    H1  576   3.992   3.768   2.206 -0.1477  0.8947 -1.8854
  190TIP3    H2  577   3.934   3.908   2.198 -0.4491  0.9731  0.7363
  191TIP3   OH2  578   2.099   3.500   4.119  0.4043 -0.0340  0.6985
  191TIP3    H1  579   2.076   3.554   4.196  2.3738  0.4058  1.0308
  191TIP3    H2  580   2.106   3.563   4.048  0.9051 -0.1141  0.6788
  192TIP3   OH2  581   6.010   5.149   3.132 -0.3099 -0.0404 -0.1231
  192TIP3    H1  582   6.025   5.179   3.221  0.2082  0.4523 -0.3733
  192TIP3    H2  583   6.054   5.064   3.127 -1.9377 -0.9648  0.6403
  193TIP3   OH2  584   5.197   5.257   4.564 -0.1491 -0.2061  0.1585
  193TIP3    H1  585   5.122   5.261   4.623  0.2824 -0.2015  0.7239
  193TIP3    H2  586   5.186   5.332   4.506  0.3200  0.8465  1.3698
  194TIP3   OH2  587   3.199   0.120   0.667  0.4776  0.3540  0.5626
  194TIP3    H1  588   3.196   0.186   0.597 -1.4726 -1.3854 -1.1101
  194TIP3    H2  589   3.153   0.161   0.740  0.2641  1.2571 -0.0511
  195TIP3   OH2  590   2.785   1.417   4.087 -0.0633  0.7739 -0.1320
  195TIP3    H1  591   2.828   1.333   4.071  0.3350  1.1562 -1.1902
  195TIP3    H2  592   2.835   1.480   4.034 -2.0173  1.2218 -1.5483
  196TIP3   OH2  593   1.547   2.404   4.618  0.8200 -0.3778 -0.3068
  196TIP3    H1  594   1.602   2.455   4.677  0.7146 -0.7272  0.1049
  196TIP3    H2  595   1.471   2.380   4.671  0.6832 -0.6258 -0.6090
  197TIP3   OH2  596   2.279   2.587   3.187 -0.0133 -0.4435 -0.0185
  197TIP3    H1  597   2.340   2.541   3.129  1.4753 -0.8596  1.7611
  197TIP3    H2  598   2.230   2.517   3.230  0.3850 -0.2620  0.7499
  198TIP3   OH2  599   4.438   5.481   4.614 -0.3149 -0.1015 -0.2972
  198TIP3    H1  600   4.405   5.396   4.585  0.2307 -0.6665  0.6725
  198TIP3    H2  601   4.372   5.512   4.677 -0.4623  0.1542 -0.5732
  199TIP3   OH2  602   2.570   3.344   4.059  0.6873  0.6077  0.3752
  199TIP3    H1  603   2.624   3.368   3.984 -0.3995 -0.0382 -0.6530
  199TIP3    H2  604   2.511   3.418   4.071  1.0129  0.8101  0.7508
  200TIP3   OH2  605   2.528   4.700   0.341  0.7753  0.8650  0.3552
  200TIP3    H1  606   2.601   4.755   0.315  0.5677  1.0662  0.1951
  200TIP3    H2  607   2.538   4.689   0.435  1.2814  0.4947  0.2608
  201TIP3   OH2  608   4.220   4.866   1.890 -0.5450  0.4494 -0.2673
  201TIP3    H1  609   4.196   4.958   1.895  0.5600  0.7634 -0.6380
  201TIP3    H2  610   4.137   4.821   1.875 -1.2159  1.2918  0.7948
  202TIP3   OH2  611   6.270   0.788   1.395  0.0110 -0.1396 -0.4805
  202TIP3    H1  612   6.361   0.808   1.416 -0.1730  1.0454 -0.7693
  202TIP3    H2  613   6.258   0.820   1.305 -1.1574  1.2916  0.1618
  203TIP3   OH2  614   1.158   3.606   2.808 -0.6914 -0.3700 -0.0947
  203TIP3    H1  615   1.170   3.700   2.822 -0.4170 -0.3248 -0.6131
  203TIP3    H2  616   1.247   3.571   2.800 -0.7670 -0.7786  0.7056
  204TIP3   OH2  617   3.920   4.520   0.347 -0.4185 -0.6413 -0.0931
  204TIP3    H1  618   3.923   4.437   0.298  0.1806 -0.4796 -0.3298
  204TIP3    H2  619   3.829   4.549   0.337 -0.9003 -1.7324  0.7764
  205TIP3   OH2  620   1.736   0.323   1.429 -0.3518  0.2773  0.3123
  205TIP3    H1  621   1.781   0.404   1.405 -1.1862  0.8822  0.7518
  205TIP3    H2  622   1.706   0.288   1.346  0.2713  0.2535  0.0881
  206TIP3   OH2  623   3.635   3.889   4.972  0.7790 -0.2631  0.3512
  206TIP3    H1  624   3.567   3.904   5.038  0.3237 -0.6769 -0.0257
  206TIP3    H2  625   3.605   3.813   4.923  0.9614  0.2312 -0.5432
  207TIP3   OH2  626   2.743   1.481   4.656  0.0265 -0.1641  0.2175
  207TIP3    H1  627   2.729   1.506   4.564 -0.6034  1.2577  0.6826
  207TIP3    H2  628   2.684   1.407   4.669 -1.1414  0.6867 -0.0807
  208TIP3   OH2  629   1.407   1.425   0.530 -0.0350  0.0520 -0.3145
  208TIP3    H1  630   1.486   1.429   0.475  0.8862  0.7606  0.9970
  208TIP3    H2  631   1.350   1.363   0.485  2.6443 -3.2318  0.4028
  209TIP3   OH2  632   4.474   3.859   2.052  0.1713 -0.3693 -0.3251
  209TIP3    H1  633   4.473   3.953   2.031  2.2401 -0.2381 -0.0998
  209TIP3    H2  634   4.508   3.855   2.142  0.9649 -1.3474 -0.6463
  210TIP3   OH2  635   1.167   2.497   2.709 -0.3957 -0.1599  0.2894
  210TIP3    H1  636   1.188   2.540   2.626 -0.0221  0.0021  0.4623
  210TIP3    H2  637   1.109   2.425   2.685  0.1384 -0.4438 -0.1792
  211TIP3   OH2  638   3.014   2.813   1.566 -0.4850 -0.1920 -0.0482
  211TIP3    H1  639   2.950   2.864   1.517 -0.2139 -0.1091 -0.3183
  211TIP3    H2  640   3.092   2.813   1.511 -0.0104  0.3345  0.6178
  212TIP3   OH2  641   0.626   5.812   0.961 -0.0854  0.7254  0.5438
  212TIP3    H1  642   0.693   5.773   0.905 -2.1524  1.1475 -2.4722
  212TIP3    H2  643   0.641   5.906   0.956  1.3424  0.7354  3.0840
  213TIP3   OH2  644   3.389   3.052   1.903  0.2918 -0.3579  0.6336
  213TIP3    H1  645   3.313   3.060   1.846  0.8651 -1.2654 -0.2901
  213TIP3    H2  646   3.357   3.076   1.990 -0.5871  1.1394 -0.0526
  214TIP3   OH2  647   2.976   4.059   1.952 -0.2846  0.0764 -0.0635
  214TIP3    H1  648   2.943   3.989   1.897  3.2006 -1.7804 -0.0983
  214TIP3    H2  649   2.954   4.033   2.041 -0.1389 -0.4341 -0.1717
  215TIP3   OH2  650   0.686   0.422   2.545 -0.2668 -0.5569 -0.2959
  215TIP3    H1  651   0.593   0.437   2.529 -0.3918 -1.1300 -0.1230
  215TIP3    H2  652   0.690   0.336   2.587  0.2226  0.0730  0.9908
  216TIP3   OH2  653   2.941   2.263   2.984  0.1953  1.0059 -0.1426
  216TIP3    H1  654   2.966   2.343   3.030  1.2721  1.7072 -1.8637
  216TIP3    H2  655   3.019   2.208   2.987 -0.9790 -0.7443  2.3720
  217TIP3   OH2  656   5.891   1.109   2.910 -0.2563 -0.5044  0.6393
  217TIP3    H1  657   5.853   1.197   2.907  0.2237 -0.2539  1.6663
  217TIP3    H2  658   5.932   1.098   2.824 -0.8616  0.0196  0.2727
  218TIP3   OH2  659   4.806   0.078   4.526  0.2474 -0.1367 -0.0882
  218TIP3    H1  660   4.776   0.050   4.613  0.1840  0.3130  0.0351
  218TIP3    H2  661   4.900   0.057   4.526  0.3129  0.1412  0.2071
  219TIP3   OH2  662   6.072   0.239   3.233  0.5764 -0.0906 -0.2890
  219TIP3    H1  663   6.141   0.201   3.178  1.1994 -0.8751  0.9926
  219TIP3    H2  664   6.093   0.209   3.321  0.8468  2.8353  0.7617
  220TIP3   OH2  665   0.260   4.996   4.863 -0.1493  0.8224  0.0724
  220TIP3    H1  666   0.220   5.082   4.850  0.1930  1.3620  2.2742
  220TIP3    H2  667   0.224   4.965   4.946 -0.2830 -1.1903 -0.6933
  221TIP3   OH2  668   2.774   2.723   1.835  0.3353  0.7844 -0.7933
  221TIP3    H1  669   2.843   2.696   1.896  0.6553 -0.1483 -1.5378
  221TIP3    H2  670   2.700   2.747   1.891  0.5670 -0.2016 -0.0267
  222TIP3   OH2  671   4.292   2.160   2.922  0.1821  0.3748  0.4321
  222TIP3    H1  672   4.296   2.067   2.945  0.7987  0.6442  1.4605
  222TIP3    H2  673   4.305   2.161   2.827 -0.7787 -0.6493  0.2591
  223TIP3   OH2  674   4.382   2.328   4.849 -0.2261  0.2182 -0.1825
  223TIP3    H1  675   4.476   2.327   4.868 -0.1929  0.4594 -0.3261
  223TIP3    H2  676   4.368   2.411   4.803 -0.1324 -0.7922 -2.1370
  224TIP3   OH2  677   6.067   4.532   3.659 -0.2965  0.3179 -0.1702
  224TIP3    H1  678   6.098   4.490   3.579 -3.3928 -0.1832 -1.2344
  224TIP3    H2  679   6.106   4.619   3.657  1.2262 -0.3427 -1.1818
  225TIP3   OH2  680   2.264   1.526   1.777  0.3186  0.3155  0.2488
  225TIP3    H1  681   2.341   1.555   1.729  0.4293  0.3118  0.4283
  225TIP3    H2  682   2.290   1.525   1.869  0.1626  0.1404  0.2933
  226TIP3   OH2  683   4.211   3.750   1.645 -0.1177 -0.3992  0.0458
  226TIP3    H1  684   4.213   3.675   1.585 -1.7332 -0.0134 -0.5609
  226TIP3    H2  685   4.201   3.711   1.732  1.2765 -0.9396 -0.0207
  227TIP3   OH2  686   4.296   5.620   2.431  0.3304 -0.1463  0.2496
  227TIP3    H1  687   4.220   5.623   2.489 -0.8250 -1.0602 -1.1536
  227TIP3    H2  688   4.322   5.528   2.431  2.4267  0.3752  1.8747
  228TIP3   OH2  689   0.342   2.039   4.256  0.3598  0.2003  1.0968
  228TIP3    H1  690   0.267   2.018   4.200 -0.0765  2.5779  0.6895
  228TIP3    H2  691   0.336   1.976   4.328 -1.9250  0.1899  0.9731
  229TIP3   OH2  692   0.708   5.164   4.526 -0.2740  0.0913 -0.5161
  229TIP3    H1  693   0.680   5.186   4.438 -1.2615 -0.4201 -0.3507
  229TIP3    H2  694   0.647   5.211   4.583 -0.6877 -0.8678 -0.1408
  230TIP3   OH2  695   2.102   3.695   1.124  0.2691  0.0822 -0.0979
  230TIP3    H1  696   2.084   3.630   1.192  1.6811 -3.7494 -2.9997
  230TIP3    H2  697   2.194   3.718   1.137 -0.2666  1.7660  1.0142
  231TIP3   OH2  698   2.547   2.085   4.681 -0.4345  0.6809 -0.3432
  231TIP3    H1  699   2.551   2.178   4.703 -1.0809  0.8332 -0.8286
  231TIP3    H2  700   2.528   2.083   4.587  0.3095  0.0539 -0.4964
  232TIP3   OH2  701   5.798   4.021   2.722  0.0524  0.2726 -0.1194
  232TIP3    H1  702   5.720   4.030   2.776  1.2304  1.2281  1.5156
  232TIP3    H2  703   5.825   4.111   2.704  0.4434 -0.0492 -1.1685
  233TIP3   OH2  704   4.115   1.072   2.669  1.1325 -0.5200  0.4785
  233TIP3    H1  705   4.170   1.113   2.602  1.2902 -0.3491  0.7108
  233TIP3    H2  706   4.159   0.989   2.689  0.2318 -1.3467 -0.7869
  234TIP3   OH2  707   2.969   2.687   2.028 -0.4163  0.5428  0.3148
  234TIP3    H1  708   2.984   2.707   2.121  1.0069  0.4360  0.1223
  234TIP3    H2  709   3.056   2.686   1.989 -0.8229 -1.2442 -0.6595
  235TIP3   OH2  710   0.956   2.032   3.221 -1.0103 -0.2528  0.5744
  235TIP3    H1  711   0.984   2.123   3.209  0.7133 -0.7406  0.7588
  235TIP3    H2  712   0.891   2.018   3.153  1.0899  0.1392 -1.6239
  236TIP3   OH2  713   0.957   3.992   1.838  0.1774  0.0707 -0.1891
  236TIP3    H1  714   0.894   3.962   1.773  2.0075  0.0474 -2.0722
  236TIP3    H2  715   1.008   3.914   1.861  0.6073  0.4031  0.0144
  237TIP3   OH2  716   3.633   3.137   2.308  0.1884 -0.2979  0.0523
  237TIP3    H1  717   3.667   3.052   2.279  0.0049 -0.4132  0.1691
  237TIP3    H2  718   3.710   3.186   2.336  0.2016 -0.7687  0.8674
  238TIP3   OH2  719   2.083   5.429   1.591 -0.1120 -0.3369  0.1217
  238TIP3    H1  720   2.074   5.523   1.577  0.1401 -0.2724  0.3691
  238TIP3    H2  721   2.175   5.410   1.572 -0.0062 -0.4177  0.6920
  239TIP3   OH2  722   6.100   4.605   2.579  0.0746  0.2777 -0.1829
  239TIP3    H1  723   6.141   4.535   2.629  1.5503  0.1674 -1.4604
  239TIP3    H2  724   6.033   4.561   2.526 -0.0014  0.0696  0.0827
  240TIP3   OH2  725   0.956   5.511   3.507 -0.2969 -0.6723  0.2289
  240TIP3    H1  726   1.038   5.482   3.546 -0.6641 -0.4213  1.2299
  240TIP3    H2  727   0.976   5.524   3.414  0.6491 -1.1247  0.3598
  241TIP3   OH2  728   0.280   1.102   0.877  0.4090 -0.3154 -0.7328
  241TIP3    H1  729   0.349   1.051   0.834 -0.0984  0.1523 -2.1381
  241TIP3    H2  730   0.327   1.156   0.940  1.1507 -1.1590 -0.5397
  242TIP3   OH2  731   6.256   3.410   0.769 -0.3788  0.0609  0.0484
  242TIP3    H1  732   6.203   3.365   0.704 -1.2612  0.5799  0.3821
  242TIP3    H2  733   6.287   3.489   0.725 -0.6103  0.1909  0.1151
  243TIP3   OH2  734   0.499   3.707   1.696  0.1920 -0.3509 -0.2239
  243TIP3    H1  735   0.474   3.679   1.784 -0.1349  2.1722  0.5447
  243TIP3    H2  736   0.515   3.625   1.649 -1.7019 -1.8374  1.5468
  244TIP3   OH2  737   4.640   5.257   0.646  0.1031  0.1254  0.8366
  244TIP3    H1  738   4.715   5.267   0.587 -0.4324  0.6164  0.2286
  244TIP3    H2  739   4.619   5.164   0.642  1.6202 -0.3126  2.1918
  245TIP3   OH2  740   4.280   2.918   5.107 -0.0982 -0.1589 -0.5009
  245TIP3    H1  741   4.326   2.851   5.158  1.0370  0.7302 -0.3289
  245TIP3    H2  742   4.276   2.883   5.019  1.7555  0.1232 -0.7317
  246TIP3   OH2  743   4.807   0.174   0.096 -0.3428 -0.5249  0.2681
  246TIP3    H1  744   4.844   0.134   0.017 -0.7025 -2.6756  1.1451
  246TIP3    H2  745   4.872   0.240   0.122 -0.9351  1.4146 -2.6617
  247TIP3   OH2  746   5.808   2.777   4.166 -0.0060  0.3105  0.3660
  247TIP3    H1  747   5.803   2.685   4.193  1.1864  0.5046  1.3188
  247TIP3    H2  748   5.734   2.819   4.210 -0.5277 -0.1789 -0.0344
  248TIP3   OH2  749   5.977   1.515   4.104 -0.3540  0.2044 -0.1126
  248TIP3    H1  750   6.016   1.483   4.022 -0.3545  1.1326 -0.4884
  248TIP3    H2  751   6.052   1.527   4.163 -0.0985  1.4951 -0.6664
  249TIP3   OH2  752   1.408   1.994   2.242 -0.1113  0.4798  0.2212
  249TIP3    H1  753   1.432   1.927   2.177  1.9419  0.6021  0.7745
  249TIP3    H2  754   1.329   2.035   2.206 -0.7513 -1.4568 -0.6983
  250TIP3   OH2  755   2.209   4.850   0.256 -0.5127 -0.9027 -0.1275
  250TIP3    H1  756   2.255   4.827   0.175 -0.3832 -0.9762 -0.0344
  250TIP3    H2  757   2.200   4.945   0.253 -1.8122 -1.0366 -0.9274
  251TIP3   OH2  758   5.313   2.982   1.213  0.4526  0.5240  0.2234
  251TIP3    H1  759   5.374   3.052   1.189 -1.5312  2.3345  0.1577
  251TIP3    H2  760   5.315   2.981   1.309  0.9465  0.2368  0.2107
  252TIP3   OH2  761   5.036   3.338   1.070 -0.3399 -0.1919 -1.0638
  252TIP3    H1  762   5.054   3.245   1.053  0.2507 -0.3829  0.4277
  252TIP3    H2  763   4.985   3.367   0.995  0.8201 -1.3144 -2.3421
  253TIP3   OH2  764   0.037   5.645   4.164  0.7370 -0.0682 -0.0631
  253TIP3    H1  765   0.101   5.680   4.226  0.8174 -1.4560  0.6855
  253TIP3    H2  766   0.089   5.618   4.088  1.0449 -0.9951  0.4553
  254TIP3   OH2  767   4.347   3.645   0.766  0.0598  0.1845 -0.6304
  254TIP3    H1  768   4.318   3.734   0.751  1.4361  0.6913 -0.4787
  254TIP3    H2  769   4.413   3.652   0.835  0.0395 -0.9696 -0.4628
  255TIP3   OH2  770   1.528   3.971   0.269  0.7229 -0.3476  0.0650
  255TIP3    H1  771   1.595   3.914   0.308  1.6370  0.0151 -0.9227
  255TIP3    H2  772   1.571   4.055   0.259 -0.7400  0.7108  1.8829
  256TIP3   OH2  773   0.987   2.829   4.841 -0.0762 -0.0663 -0.0297
  256TIP3    H1  774   1.013   2.921   4.839 -2.0752  0.5327 -0.4441
  256TIP3    H2  775   1.029   2.790   4.764 -0.2700  0.8209 -0.5968
  257TIP3   OH2  776   4.188   4.797   1.508 -0.6031  0.8383 -0.0170
  257TIP3    H1  777   4.211   4.729   1.571 -1.7678  1.6223  1.2915
  257TIP3    H2  778   4.114   4.762   1.459  0.4858  0.1064 -1.2321
  258TIP3   OH2  779   1.321   1.712   3.580 -0.3616  0.2890  0.2179
  258TIP3    H1  780   1.323   1.788   3.638 -0.1095  1.2713 -1.0214
  258TIP3    H2  781   1.247   1.660   3.611  0.6821 -0.0464  2.3668
  259TIP3   OH2  782   4.453   2.288   1.316 -0.4682 -0.0709 -0.5729
  259TIP3    H1  783   4.378   2.231   1.334 -1.1070  1.2364  1.1625
  259TIP3    H2  784   4.521   2.259   1.376 -1.5048  2.2271  1.8809
  260TIP3   OH2  785   3.709   5.885   3.365  0.3366  0.2390  0.4233
  260TIP3    H1  786   3.792   5.860   3.406 -1.0285 -2.7653  1.6645
  260TIP3    H2  787   3.673   5.954   3.421  1.3430  0.5909  0.6437
  261TIP3   OH2  788   3.696   0.199   3.810 -0.4769 -0.2325  0.3249
  261TIP3    H1  789   3.740   0.283   3.821  1.3232 -1.0921  0.2007
  261TIP3    H2  790   3.675   0.194   3.717 -0.9617  0.2358  0.4050
  262TIP3   OH2  791   5.792   3.348   3.191 -0.0035  0.4684  0.0105
  262TIP3    H1  792   5.756   3.329   3.105 -0.3144 -2.4825  0.6737
  262TIP3    H2  793   5.886   3.332   3.182  0.0404  0.6911  0.0781
  263TIP3   OH2  794   1.722   2.208   4.791  0.0185  0.7299  0.4694
  263TIP3    H1  795   1.715   2.259   4.711  0.6035 -0.1756 -0.1805
  263TIP3    H2  796   1.744   2.120   4.762  0.7808  0.4964  1.6561
  264TIP3   OH2  797   3.248   5.537   4.648 -0.3418  0.0889  0.5315
  264TIP3    H1  798   3.178   5.502   4.592  0.7615 -3.3674  1.0616
  264TIP3    H2  799   3.297   5.596   4.590 -0.3405 -1.9171 -1.6776
  265TIP3   OH2  800   1.805   5.025   2.210  0.5193 -0.2031  0.7832
  265TIP3    H1  801   1.886   5.075   2.218  0.2349  0.6887 -1.3074
  265TIP3    H2  802   1.824   4.960   2.143 -0.9084  1.0002 -0.8675
  266TIP3   OH2  803   5.560   5.404   4.047  0.1206 -0.0393  0.4670
  266TIP3    H1  804   5.508   5.456   4.109  0.5064 -0.1777  0.9164
  266TIP3    H2  805   5.577   5.322   4.093 -0.8910 -0.7681 -0.4238
  267TIP3   OH2  806   5.949   2.281   0.787  0.0474 -0.3123  0.0810
  267TIP3    H1  807   5.976   2.200   0.831 -1.9076 -1.5658 -0.8682
  267TIP3    H2  808   6.027   2.336   0.789  1.3568 -2.0689  1.0735
  268TIP3   OH2  809   1.684   5.578   0.649 -0.1310 -0.3968 -0.2975
  268TIP3    H1  810   1.653   5.530   0.572 -0.2994 -0.3776 -0.2413
  268TIP3    H2  811   1.606   5.595   0.700  0.1042 -1.2269  0.3528
  269TIP3   OH2  812   2.049   0.175   5.060 -0.2691  0.5802 -0.7032
  269TIP3    H1  813   2.087   0.196   5.145 -1.0196 -2.0214  0.3955
  269TIP3    H2  814   2.124   0.170   5.001  0.5958  0.0057  0.3997
  270TIP3   OH2  815   5.713   5.474   1.292 -0.1982  0.5128 -0.0077
  270TIP3    H1  816   5.645   5.465   1.226  0.2203 -0.6681 -0.3029
  270TIP3    H2  817   5.724   5.386   1.328  1.3786  0.6147 -0.1739
  271TIP3   OH2  818   3.483   1.163   4.382 -0.3812 -0.1960 -0.0790
  271TIP3    H1  819   3.445   1.218   4.452  0.5025  1.2179 -0.6593
  271TIP3    H2  820   3.418   1.095   4.368 -1.6603  0.8366  0.5383
  272TIP3   OH2  821   0.918   0.418   2.177 -0.1519  1.0601  0.1938
  272TIP3    H1  822   0.949   0.344   2.125 -0.4493  0.5010  0.8083
  272TIP3    H2  823   0.963   0.494   2.139  1.1097  0.4155  0.3502
  273TIP3   OH2  824   1.455   0.446   2.028  0.5401  0.0383  0.2186
  273TIP3    H1  825   1.460   0.542   2.028 -0.5282  0.1051 -0.5592
  273TIP3    H2  826   1.537   0.419   1.987 -0.0312  0.7047 -1.4500
  274TIP3   OH2  827   0.350   1.278   2.513 -0.3910  0.2358  0.9306
  274TIP3    H1  828   0.332   1.352   2.455  2.3813 -0.6002 -1.1716
  274TIP3    H2  829   0.323   1.201   2.464 -0.0461 -0.3705  1.6597
  275TIP3   OH2  830   1.194   3.885   2.905 -0.9363  0.0817  0.5345
  275TIP3    H1  831   1.206   3.894   3.000 -1.0645  0.2334  0.5369
  275TIP3    H2  832   1.249   3.953   2.868 -1.1408  0.2354  0.5129
  276TIP3   OH2  833   2.287   1.868   3.376  0.5105  0.0394 -0.2524
  276TIP3    H1  834   2.354   1.915   3.327  1.7020 -0.3376  0.9530
  276TIP3    H2  835   2.325   1.856   3.463 -1.2781  0.1151  0.5715
  277TIP3   OH2  836   3.160   0.158   4.355  0.0051 -0.2621  0.1621
  277TIP3    H1  837   3.237   0.166   4.411  1.3865  0.8412 -1.7397
  277TIP3    H2  838   3.166   0.070   4.318  0.2881 -0.2267  0.1227
  278TIP3   OH2  839   0.270   4.728   1.082 -0.1436 -0.0953  0.0641
  278TIP3    H1  840   0.196   4.680   1.120  0.2300 -0.6453  0.1121
  278TIP3    H2  841   0.243   4.820   1.085 -2.2322 -0.4567 -2.9317
  279TIP3   OH2  842   6.352   0.407   5.144 -0.6974 -0.2419  0.5330
  279TIP3    H1  843   6.277   0.387   5.200  0.3795 -0.6361  1.8867
  279TIP3    H2  844   6.380   0.494   5.173 -1.0999  0.2558 -0.5223
  280TIP3   OH2  845   1.245   4.649   4.538  0.3301 -0.0923  0.5079
  280TIP3    H1  846   1.248   4.730   4.589  0.4517  0.0674  0.2510
  280TIP3    H2  847   1.225   4.677   4.449  4.3066  0.1460 -0.5265
  281TIP3   OH2  848   1.189   1.751   4.906  0.5127  0.0200  0.4850
  281TIP3    H1  849   1.109   1.702   4.925  1.6699 -1.7857  1.0644
  281TIP3    H2  850   1.217   1.719   4.820  0.5897  0.6737  0.2631
  282TIP3   OH2  851   5.908   0.471   1.355 -0.1449 -0.1227  0.6540
  282TIP3    H1  852   5.861   0.421   1.421  0.8383  0.0619  1.5190
  282TIP3    H2  853   5.983   0.508   1.401 -0.9509  2.3762  0.1143
  283TIP3   OH2  854   4.995   2.419   3.710 -0.3210  0.5342  0.2411
  283TIP3    H1  855   5.027   2.467   3.633  0.9218 -0.7735 -0.0948
  283TIP3    H2  856   4.963   2.336   3.675 -2.9918  1.2618  0.7447
  284TIP3   OH2  857   3.211   5.164   0.166  0.5388 -0.3198 -0.3338
  284TIP3    H1  858   3.298   5.131   0.143  0.1478 -1.1258 -0.7256
  284TIP3    H2  859   3.201   5.243   0.112  2.0678  1.3681  1.6957
  285TIP3   OH2  860   2.693   2.955   4.350 -0.2463  0.7955  0.8581
  285TIP3    H1  861   2.736   2.917   4.427  0.5475  1.0449  0.5517
  285TIP3    H2  862   2.600   2.944   4.367 -0.0623 -0.9115  0.9740
  286TIP3   OH2  863   3.061   5.983   0.876 -0.1841 -0.3342 -0.9719
  286TIP3    H1  864   3.011   5.937   0.945 -3.0581  1.9110 -1.3572
  286TIP3    H2  865   3.002   5.983   0.800  0.9444  1.3139 -1.9070
  287TIP3   OH2  866   0.542   4.514   2.933 -0.1430  0.0331  0.1591
  287TIP3    H1  867   0.634   4.495   2.954  0.5430  1.8585 -0.9802
  287TIP3    H2  868   0.499   4.519   3.018  1.3701  1.6646  0.8903
  288TIP3   OH2  869   2.885   1.959   1.929  1.1151  0.4982  0.2963
  288TIP3    H1  870   2.866   1.935   2.020 -1.9988 -2.2336 -0.8525
  288TIP3    H2  871   2.950   1.894   1.901  2.7804  1.9103  0.7277
  289TIP3   OH2  872   2.234   1.135   2.349 -0.0443  0.0972  0.3514
  289TIP3    H1  873   2.231   1.041   2.333 -0.6487  0.6293 -4.1337
  289TIP3    H2  874   2.326   1.159   2.335 -0.2651  0.3846 -0.6890
  290TIP3   OH2  875   3.367   0.517   3.447 -0.5323  0.3488 -0.0576
  290TIP3    H1  876   3.282   0.534   3.406 -0.0410  0.3271 -1.1064
  290TIP3    H2  877   3.345   0.482   3.534 -1.5913  0.0204 -0.4437
  291TIP3   OH2  878   1.725   3.229   3.480 -0.5287  1.0935  0.1450
  291TIP3    H1  879   1.753   3.154   3.532 -0.2894 -0.6555 -2.3044
  291TIP3    H2  880   1.635   3.208   3.454 -0.3807  1.5318 -0.7659
  292TIP3   OH2  881   1.749   1.011   4.322  0.3612 -0.3822 -0.3364
  292TIP3    H1  882   1.702   1.090   4.346  0.0273 -0.6720 -0.0157
  292TIP3    H2  883   1.687   0.961   4.269 -0.1480 -1.3218  1.1005
  293TIP3   OH2  884   2.778   4.238   0.662 -0.7480 -0.1505 -0.4350
  293TIP3    H1  885   2.721   4.245   0.586 -0.1252 -0.7944 -0.9835
  293TIP3    H2  886   2.731   4.283   0.732 -1.1936  0.7222 -1.2759
  294TIP3   OH2  887   5.924   5.477   0.441  0.2271 -0.3258  0.1808
  294TIP3    H1  888   6.011   5.513   0.455 -0.9290  2.5450  0.7748
  294TIP3    H2  889   5.877   5.495   0.523 -1.7379  0.9273 -1.1312
  295TIP3   OH2  890   4.616   1.943   0.898  0.3848 -0.3094 -0.2805
  295TIP3    H1  891   4.537   1.994   0.918 -0.1197  0.7787 -4.1075
  295TIP3    H2  892   4.585   1.853   0.890 -0.0367 -0.2210  0.3010
  296TIP3   OH2  893   5.691   3.874   4.481 -0.0916  0.1410 -0.5084
  296TIP3    H1  894   5.631   3.825   4.538  0.1417 -0.9145 -1.1570
  296TIP3    H2  895   5.762   3.901   4.539 -0.4490  0.1239 -0.0528
  297TIP3   OH2  896   4.207   5.761   3.999 -0.5245 -0.3491 -0.0149
  297TIP3    H1  897   4.178   5.706   3.926  2.3918  0.0921 -1.6845
  297TIP3    H2  898   4.299   5.737   4.012  0.0326  2.0539  1.1421
  298TIP3   OH2  899   1.794   3.095   1.591 -0.4218  0.2405  0.1460
  298TIP3    H1  900   1.726   3.157   1.617 -1.2287 -0.6238  0.1534
  298TIP3    H2  901   1.866   3.150   1.560 -0.4813  1.2224  1.6538
  299TIP3   OH2  902   3.266   0.994   0.624 -0.2006  0.9131  0.3827
  299TIP3    H1  903   3.307   1.057   0.684 -1.0508 -0.5504  2.6468
  299TIP3    H2  904   3.337   0.936   0.598  0.0075  0.9666  0.8117
  300TIP3   OH2  905   3.570   4.601   1.490 -0.7422 -0.1864 -0.7502
  300TIP3    H1  906   3.485   4.577   1.528  0.1127  0.7712  2.0570
  300TIP3    H2  907   3.548   4.661   1.419 -2.4197 -0.0719 -0.1969
  301TIP3   OH2  908   1.010   4.570   2.651 -0.3334 -0.0053  0.2435
  301TIP3    H1  909   1.094   4.614   2.664 -0.8446  1.4291 -0.9281
  301TIP3    H2  910   1.009   4.548   2.557 -1.8418  1.3358 -0.0978
  302TIP3   OH2  911   0.018   4.057   3.570 -0.5076 -0.3505  0.5787
  302TIP3    H1  912  -0.060   4.005   3.590 -0.4451 -0.7952 -0.2971
  302TIP3    H2  913   0.085   4.023   3.629  0.0132 -2.5066 -1.1215
  303TIP3   OH2  914   4.514   4.973   3.595  0.1639  0.2891 -0.5076
  303TIP3    H1  915   4.589   4.983   3.653 -0.1499  1.1765 -0.2259
  303TIP3    H2  916   4.442   4.947   3.652  0.1782 -0.2437 -0.7269
  304TIP3   OH2  917   3.722   4.360   3.229  0.1382 -0.1266 -0.2247
  304TIP3    H1  918   3.667   4.372   3.306 -0.5241 -1.0122 -0.5414
  304TIP3    H2  919   3.661   4.342   3.158  0.7752  0.0381 -0.8270
  305TIP3   OH2  920   4.056   4.616   4.281 -1.5201  0.5127 -0.1063
  305TIP3    H1  921   4.123   4.684   4.293  1.1072 -2.1670  1.6586
  305TIP3    H2  922   4.080   4.573   4.198 -1.5926  0.0981  0.0863
  306TIP3   OH2  923   2.987   0.392   3.668  0.7689 -0.1764 -0.1508
  306TIP3    H1  924   2.919   0.441   3.621 -0.1322  0.9994  2.2331
  306TIP3    H2  925   3.069   0.431   3.637  0.1179  2.1002  0.7672
  307TIP3   OH2  926   3.963   4.569   4.821  0.6778  0.3414 -0.0557
  307TIP3    H1  927   3.936   4.651   4.778  0.4607  0.0580 -0.4710
  307TIP3    H2  928   4.019   4.526   4.757 -0.4926 -0.5847 -0.5081
  308TIP3   OH2  929   5.124   2.980   2.333  0.3929 -0.1710  0.3372
  308TIP3    H1  930   5.165   2.926   2.266 -0.1526  0.9817 -0.9760
  308TIP3    H2  931   5.197   3.023   2.378  0.7154  0.1339 -0.4696
  309TIP3   OH2  932   2.400   2.051   3.123 -0.1292 -0.7246  0.0736
  309TIP3    H1  933   2.491   2.029   3.103 -0.1924  0.6537 -2.0468
  309TIP3    H2  934   2.404   2.107   3.200  0.8989 -0.0682 -0.4477
  310TIP3   OH2  935   1.143   1.308   4.588  0.0973  0.1151  0.2212
  310TIP3    H1  936   1.156   1.322   4.682 -1.2173 -0.8217  0.5598
  310TIP3    H2  937   1.222   1.344   4.548  1.4983 -1.0286  1.8125
  311TIP3   OH2  938   0.277   3.190   1.267 -0.6669 -0.5482 -0.3314
  311TIP3    H1  939   0.223   3.121   1.307  2.3926 -1.6529  2.3727
  311TIP3    H2  940   0.307   3.152   1.185  0.2083 -2.1642  0.6760
  312TIP3   OH2  941   1.026   0.542   2.436  0.2070 -0.4126 -0.1738
  312TIP3    H1  942   1.051   0.633   2.424 -3.4253  0.7659 -0.1910
  312TIP3    H2  943   0.998   0.512   2.349  3.5670 -2.4931 -0.7270
  313TIP3   OH2  944   1.480   3.831   2.721 -0.6939 -0.1709  0.6394
  313TIP3    H1  945   1.543   3.878   2.775 -0.1411 -0.0355 -0.0984
  313TIP3    H2  946   1.478   3.743   2.758 -1.2921  0.2638  1.6629
  314TIP3   OH2  947   4.298   0.908   3.553 -0.3906 -0.2153 -0.2689
  314TIP3    H1  948   4.288   0.831   3.609 -0.8020  0.9829  1.3861
  314TIP3    H2  949   4.344   0.876   3.475 -2.3718 -2.5322 -0.5823
  315TIP3   OH2  950   2.857   1.832   4.125 -0.5010 -0.0819 -0.2145
  315TIP3    H1  951   2.880   1.889   4.198 -1.3044 -0.9618  0.7659
  315TIP3    H2  952   2.866   1.743   4.160 -1.0788 -0.5226 -1.1266
  316TIP3   OH2  953   4.825   5.402   2.385 -0.3086  0.6456  0.4354
  316TIP3    H1  954   4.810   5.308   2.392  2.5387  0.0143 -0.5648
  316TIP3    H2  955   4.917   5.414   2.407 -0.6736  3.2706  0.8723
  317TIP3   OH2  956   4.502   4.264   1.331  0.3999 -0.0617  0.6404
  317TIP3    H1  957   4.523   4.355   1.353 -1.4446  0.6038 -0.1261
  317TIP3    H2  958   4.563   4.212   1.383  2.2478  1.6176  0.2985
  318TIP3   OH2  959   6.315   4.591   4.320 -0.0751  0.0399 -0.0639
  318TIP3    H1  960   6.398   4.617   4.360  0.3922 -2.2219  0.6010
  318TIP3    H2  961   6.259   4.668   4.328  1.6424  1.3106  0.3304
  319TIP3   OH2  962   4.577   4.495   2.831 -0.1890 -0.5099  0.3405
  319TIP3    H1  963   4.622   4.487   2.747 -0.5629 -1.1578  0.2000
  319TIP3    H2  964   4.624   4.435   2.889 -1.7760 -2.3794 -0.2024
  320TIP3   OH2  965   4.856   2.294   5.000 -0.2056  0.7323  0.4142
  320TIP3    H1  966   4.799   2.267   4.928 -1.8874  2.8871  0.8104
  320TIP3    H2  967   4.803   2.281   5.079  0.8168  0.4199  1.0780
  321TIP3   OH2  968   1.313   1.660   2.189  0.3061  0.1618 -0.1809
  321TIP3    H1  969   1.324   1.729   2.124 -2.4054  1.4339  0.5641
  321TIP3    H2  970   1.259   1.594   2.145  1.7596 -0.9003 -0.4441
  322TIP3   OH2  971   4.204   1.506   4.299 -0.3577 -0.4661 -0.3081
  322TIP3    H1  972   4.293   1.527   4.328 -0.2248 -0.2270 -0.8831
  322TIP3    H2  973   4.168   1.589   4.270 -0.8106 -0.5450  0.0152
  323TIP3   OH2  974   1.843   1.920   2.287  0.3281 -0.1988  0.4639
  323TIP3    H1  975   1.774   1.889   2.345  0.5973 -0.8712  0.4388
  323TIP3    H2  976   1.877   1.998   2.330 -0.2887  0.0042  0.5928
  324TIP3   OH2  977   3.263   0.639   2.292  0.6272  0.2815  0.0416
  324TIP3    H1  978   3.307   0.562   2.328  0.3342  0.0788 -0.0299
  324TIP3    H2  979   3.193   0.657   2.354  0.3411  0.1455 -0.2398
  325TIP3   OH2  980   1.393   0.408   3.220  0.0401 -0.3134 -0.5047
  325TIP3    H1  981   1.337   0.398   3.297 -0.6920 -1.4988 -1.1523
  325TIP3    H2  982   1.334   0.435   3.150  0.8413  1.6171 -0.4823
  326TIP3   OH2  983   5.714   0.927   4.801 -0.4433  0.1511  0.1477
  326TIP3    H1  984   5.738   0.917   4.709 -1.8315 -0.6901 -0.1584
  326TIP3    H2  985   5.789   0.891   4.849 -0.5896 -1.4406 -0.7340
  327TIP3   OH2  986   1.078   2.002   1.981  0.5110  0.1281  0.1546
  327TIP3    H1  987   0.986   1.987   2.004  1.2334 -0.6047  2.8308
  327TIP3    H2  988   1.112   2.058   2.050  2.1530  0.2169 -0.6848
  328TIP3   OH2  989   4.880   3.385   0.850 -1.2015  0.4192  0.3251
  328TIP3    H1  990   4.871   3.441   0.773  0.6909 -0.0102 -0.2611
  328TIP3    H2  991   4.822   3.310   0.832 -0.4815  0.1260 -0.8881
  329TIP3   OH2  992   6.108   1.185   0.656 -0.1478  0.2606 -0.1263
  329TIP3    H1  993   6.150   1.185   0.743 -0.9933  1.1287  0.3014
  329TIP3    H2  994   6.181   1.185   0.594  0.4693 -0.1330  0.5808
  330TIP3   OH2  995   0.787   4.251   1.507 -0.1179  0.2054 -0.4513
  330TIP3    H1  996   0.809   4.163   1.478  0.0346 -0.1307  0.6249
  330TIP3    H2  997   0.698   4.243   1.543 -0.3333  0.6214 -0.8814
  331TIP3   OH2  998   4.121   2.352   1.442  0.0086  0.1192  0.3993
  331TIP3    H1  999   4.167   2.420   1.395  1.3825 -0.3849  0.9626
  331TIP3    H2 1000   4.029   2.362   1.416  0.5175  0.7076 -1.2940
  332TIP3   OH2 1001   4.091   2.539   4.567 -0.4403 -0.1207  0.0872
  332TIP3    H1 1002   4.072   2.529   4.473  3.3594  1.8314 -1.0712
  332TIP3    H2 1003   4.093   2.633   4.581  0.5250 -0.3587  1.7797
  333TIP3   OH2 1004   3.363   2.638   4.809  0.4933  0.6030 -0.0582
  333TIP3    H1 1005   3.320   2.579   4.747 -1.3039  0.5091  1.2094
  333TIP3    H2 1006   3.296   2.658   4.874  2.0849  1.3251  1.4427
  334TIP3   OH2 1007   4.684   1.337   0.662  0.2202 -0.3297 -0.0390
  334TIP3    H1 1008   4.713   1.404   0.724 -1.7485  0.0439  0.5534
  334TIP3    H2 1009   4.608   1.376   0.619 -2.1438 -2.7451  1.6127
  335TIP3   OH2 1010   1.004   5.669   2.906  0.0098  0.5232 -0.5315
  335TIP3    H1 1011   0.981   5.696   2.817  1.1813  2.6762 -0.2577
  335TIP3    H2 1012   1.071   5.602   2.895 -0.4866  0.1262 -1.2471
  336TIP3   OH2 1013   2.736   0.056   3.359 -0.3690 -0.4718 -0.3284
  336TIP3    H1 1014   2.771   0.031   3.273  1.5968 -1.5273  0.6909
  336TIP3    H2 1015   2.716   0.149   3.351 -0.3745 -0.5814 -1.9682
  337TIP3   OH2 1016   4.779   3.656   3.766  0.2333  0.1474  0.1695
  337TIP3    H1 1017   4.716   3.600   3.810  1.0014  0.5011  1.7870
  337TIP3    H2 1018   4.864   3.627   3.799  0.8396  0.5421 -0.9775
  338TIP3   OH2 1019   2.348   3.329   3.129 -0.6052 -0.1698  0.5036
  338TIP3    H1 1020   2.278   3.341   3.193 -1.7487  0.4885 -0.8040
  338TIP3    H2 1021   2.351   3.235   3.114  0.3535 -0.4459  2.2041
  339TIP3   OH2 1022   2.573   5.118   2.629 -0.3827  0.1627  0.2741
  339TIP3    H1 1023   2.618   5.051   2.681  0.9949  2.8940  2.9550
  339TIP3    H2 1024   2.577   5.085   2.539  2.9557 -1.9522  1.0020
  340TIP3   OH2 1025   3.896   3.673   4.721  0.6131 -0.7448 -0.2569
  340TIP3    H1 1026   3.888   3.629   4.636  1.2145 -0.5330 -0.4342
  340TIP3    H2 1027   3.881   3.766   4.702  1.0164 -0.6601 -0.1892
  341TIP3   OH2 1028   5.060   2.704   0.494 -0.2851  0.4005 -0.2696
  341TIP3    H1 1029   5.104   2.666   0.418 -1.8823 -0.6493 -0.7376
  341TIP3    H2 1030   5.013   2.630   0.533 -1.5376  1.4216  0.2410
  342TIP3   OH2 1031   0.710   5.814   1.671  0.3786  0.4538  0.2579
  342TIP3    H1 1032   0.631   5.858   1.701  0.3344 -0.4167  1.5300
  342TIP3    H2 1033   0.680   5.753   1.604  0.3611  1.8851 -1.0879
  343TIP3   OH2 1034   5.685   2.364   0.850  0.4913  0.2108  0.1760
  343TIP3    H1 1035   5.774   2.335   0.828 -0.0032 -0.1800 -1.5016
  343TIP3    H2 1036   5.696   2.453   0.883  1.5425  0.0191  0.3745
  344TIP3   OH2 1037   1.257   4.494   3.201 -0.1041 -0.2560 -0.1744
  344TIP3    H1 1038   1.257   4.493   3.297 -2.4785 -0.2389 -0.0957
  344TIP3    H2 1039   1.313   4.568   3.178 -0.8408  0.8196  1.2872
  345TIP3   OH2 1040   0.808   5.442   2.755  0.1473 -0.4376 -0.0792
  345TIP3    H1 1041   0.862   5.367   2.779  0.9446  0.6436  1.6360
  345TIP3    H2 1042   0.722   5.424   2.794 -0.2187 -1.2740 -1.2170
  346TIP3   OH2 1043   2.630   3.474   1.009 -0.0781 -0.1957 -0.8215
  346TIP3    H1 1044   2.540   3.469   1.041  0.8682  1.4141  2.6369
  346TIP3    H2 1045   2.664   3.385   1.019 -0.6679 -0.3392  0.0618
  347TIP3   OH2 1046   3.335   5.962   4.737  0.1397  0.5991  0.2655
  347TIP3    H1 1047   3.246   5.984   4.765  0.3512  1.1689  0.5240
  347TIP3    H2 1048   3.337   5.984   4.644 -0.4206 -0.8266 -0.0945
  348TIP3   OH2 1049   2.391   1.768   0.678  0.6664  0.2743 -0.2186
  348TIP3    H1 1050   2.316   1.800   0.728  0.7109 -0.4271  0.3162
  348TIP3    H2 1051   2.412   1.683   0.718  0.8374 -0.2061 -1.3057
  349TIP3   OH2 1052   1.620   2.161   2.359 -0.5689 -0.4345 -0.2465
  349TIP3    H1 1053   1.623   2.244   2.313  1.9835 -0.2212  0.1157
  349TIP3    H2 1054   1.549   2.112   2.318 -0.9712  1.2526 -1.6545
  350TIP3   OH2 1055   2.703   4.914   0.297  0.4511  0.7103 -0.2104
  350TIP3    H1 1056   2.706   4.954   0.384  0.4242  0.2398  0.0147
  350TIP3    H2 1057   2.788   4.933   0.259  0.8785  0.0035  0.3511
  351TIP3   OH2 1058   1.190   0.362   2.760  0.2992 -0.2636 -0.2178
  351TIP3    H1 1059   1.145   0.444   2.783  1.9033  0.6408 -0.0698
  351TIP3    H2 1060   1.247   0.345   2.836 -0.3723 -1.8109 -0.0351
  352TIP3   OH2 1061   3.241   2.952   0.262  0.0426 -0.1825 -0.1121
  352TIP3    H1 1062   3.204   2.887   0.322 -1.2484  0.1639 -0.4922
  352TIP3    H2 1063   3.311   2.994   0.313 -0.0373 -0.9063  0.6225
  353TIP3   OH2 1064   3.316   2.914   1.055 -0.3807  0.0950  0.4994
  353TIP3    H1 1065   3.310   2.922   1.150 -2.3777  1.9935  0.2719
  353TIP3    H2 1066   3.262   2.838   1.033  0.0868 -0.3473  0.8547
  354TIP3   OH2 1067   0.301   0.529   0.965  0.0272  0.2772  0.1821
  354TIP3    H1 1068   0.221   0.562   0.924 -1.6021 -1.3732  1.8777
  354TIP3    H2 1069   0.308   0.438   0.934  1.5363  0.5355 -0.3074
  355TIP3   OH2 1070   4.660   5.676   1.435  0.6226 -0.6491 -0.4431
  355TIP3    H1 1071   4.664   5.584   1.460  1.4705 -0.7364 -0.8535
  355TIP3    H2 1072   4.578   5.685   1.386  0.7811 -1.3044 -0.8428
  356TIP3   OH2 1073   0.232   1.690   4.901 -0.3601 -0.0213  0.3046
  356TIP3    H1 1074   0.220   1.634   4.977 -1.3983 -0.6448 -0.2942
  356TIP3    H2 1075   0.181   1.648   4.832  0.9021  0.2864 -0.8713
  357TIP3   OH2 1076   2.287   0.203   2.606  0.2111 -0.2558 -0.2876
  357TIP3    H1 1077   2.324   0.165   2.526 -1.4112  0.7393 -1.5768
  357TIP3    H2 1078   2.212   0.254   2.576  0.1809  1.0284  1.7673
  358TIP3   OH2 1079   4.412   3.308   1.696 -0.5052 -0.1028 -0.5076
  358TIP3    H1 1080   4.471   3.381   1.679 -1.5454  0.4543 -1.9789
  358TIP3    H2 1081   4.439   3.240   1.634 -0.4102 -0.4443 -0.0953
  359TIP3   OH2 1082   1.585   0.049   1.769 -0.0370 -0.6379  0.4616
  359TIP3    H1 1083   1.597   0.025   1.861 -0.4853 -2.0460  0.1669
  359TIP3    H2 1084   1.499   0.013   1.746  0.1962 -0.5463 -0.5889
  360TIP3   OH2 1085   4.514   1.793   2.729  0.1437  0.1069  0.1296
  360TIP3    H1 1086   4.452   1.747   2.786 -0.1306 -1.4535 -1.3588
  360TIP3    H2 1087   4.597   1.788   2.776 -0.1135 -0.9802  0.5001
  361TIP3   OH2 1088   3.552   3.296   4.849  0.3256 -0.0136 -0.2376
  361TIP3    H1 1089   3.601   3.377   4.863 -0.7783  0.6554 -0.1273
  361TIP3    H2 1090   3.527   3.268   4.937 -0.4387  0.2590 -0.3649
  362TIP3   OH2 1091   5.681   2.356   5.201  0.0841  0.0414 -0.1961
  362TIP3    H1 1092   5.644   2.412   5.133 -0.1129  1.6142  1.1445
  362TIP3    H2 1093   5.627   2.277   5.200 -1.8543  1.2827  0.0969
  363TIP3   OH2 1094   5.998   3.854   3.853  0.4234  0.1804 -0.0568
  363TIP3    H1 1095   5.920   3.822   3.808  0.0658  0.5364  0.2996
  363TIP3    H2 1096   5.966   3.880   3.940  0.7498  1.2672 -0.2505
  364TIP3   OH2 1097   1.620   0.987   1.664 -0.4474  0.2775  0.6027
  364TIP3    H1 1098   1.645   0.963   1.754 -0.2535  1.5449  0.9053
  364TIP3    H2 1099   1.661   1.073   1.650  0.5183 -0.4123 -1.1215
  365TIP3   OH2 1100   2.936   3.242   1.950 -0.3888  0.1805  0.3016
  365TIP3    H1 1101   3.028   3.262   1.937 -0.2378 -1.1887 -0.9619
  365TIP3    H2 1102   2.929   3.147   1.935 -1.7947  0.0464  1.5575
  366TIP3   OH2 1103   4.548   4.865   0.142 -0.4117  0.1575  0.0268
  366TIP3    H1 1104   4.470   4.914   0.115 -0.5234  0.6933  1.2542
  366TIP3    H2 1105   4.531   4.775   0.113 -0.6217  0.6439 -1.4213
  367TIP3   OH2 1106   5.624   2.697   1.768 -0.4178  0.2616 -0.0882
  367TIP3    H1 1107   5.706   2.690   1.816 -1.0717 -0.5084  0.9727
  367TIP3    H2 1108   5.614   2.612   1.725 -0.0439  0.8012 -1.3064
  368TIP3   OH2 1109   4.577   3.856   4.173  0.3741  0.5051 -0.4074
  368TIP3    H1 1110   4.611   3.842   4.085 -0.9701 -0.9545 -0.7452
  368TIP3    H2 1111   4.553   3.768   4.204  0.5202  1.0250  1.2851
  369TIP3   OH2 1112   0.735   0.761   3.295  0.5916  0.0140 -0.5135
  369TIP3    H1 1113   0.749   0.849   3.260  2.0817  0.0673  0.1166
  369TIP3    H2 1114   0.751   0.703   3.221  2.1665  0.1963 -0.3629
  370TIP3   OH2 1115   4.147   2.716   1.384 -0.4918  0.3930  0.4417
  370TIP3    H1 1116   4.057   2.722   1.352  0.3975  1.3500 -2.0475
  370TIP3    H2 1117   4.173   2.807   1.401  0.8052  0.4224 -1.3911
  371TIP3   OH2 1118   0.912   1.198   2.812  0.5905 -0.3833 -0.2522
  371TIP3    H1 1119   0.909   1.288   2.845  2.0906 -0.5101  0.3184
  371TIP3    H2 1120   0.989   1.160   2.854 -0.4464 -2.1936  0.1046
  372TIP3   OH2 1121   5.584   0.870   4.267 -0.3667 -0.2811 -0.4000
  372TIP3    H1 1122   5.598   0.926   4.343 -0.0600 -2.3628  1.1716
  372TIP3    H2 1123   5.491   0.849   4.269 -0.1629 -1.2113  0.0915
  373TIP3   OH2 1124   2.103   2.006   4.539  0.3102  0.5332 -0.4100
  373TIP3    H1 1125   2.092   2.058   4.619  0.4788 -0.8376  0.5472
  373TIP3    H2 1126   2.169   1.941   4.562  0.4375  0.1827 -1.7158
  374TIP3   OH2 1127   0.308   3.304   1.576  0.2096 -0.1556 -0.3142
  374TIP3    H1 1128   0.364   3.339   1.506 -0.0979  1.7312  0.3373
  374TIP3    H2 1129   0.252   3.240   1.531  0.9959 -0.0470 -1.5125
  375TIP3   OH2 1130   6.270   4.955   3.248  0.1910  0.2537 -0.0547
  375TIP3    H1 1131   6.301   5.040   3.216  0.0117 -0.5555 -2.6634
  375TIP3    H2 1132   6.350   4.901   3.254 -0.0990 -0.6432 -2.8428
  376TIP3   OH2 1133   5.143   3.837   2.483 -0.5515 -0.4852  0.5003
  376TIP3    H1 1134   5.223   3.786   2.492 -0.1619  0.1200  0.4949
  376TIP3    H2 1135   5.096   3.823   2.566  0.0316 -0.0509  0.9196
  377TIP3   OH2 1136   4.248   3.217   0.136  0.3187 -0.0090 -0.0165
  377TIP3    H1 1137   4.305   3.147   0.168  1.8431  0.7583 -1.0020
  377TIP3    H2 1138   4.198   3.243   0.214  1.4137 -0.5842  0.9140
  378TIP3   OH2 1139   3.004   5.325   1.091 -0.5706 -0.1018  0.3829
  378TIP3    H1 1140   2.934   5.261   1.077  0.5277 -1.0840 -0.8799
  378TIP3    H2 1141   3.062   5.314   1.016  0.9631  0.6647  1.4043
  379TIP3   OH2 1142   3.555   5.300   4.120  0.1789 -0.0349 -0.3039
  379TIP3    H1 1143   3.619   5.353   4.168  1.0437 -1.8792  0.6809
  379TIP3    H2 1144   3.482   5.290   4.182  0.0469 -0.0350 -0.4602
  380TIP3   OH2 1145   1.254   4.905   4.640 -0.3985  0.3736  0.0247
  380TIP3    H1 1146   1.191   4.965   4.678 -0.1354  0.5967  0.1111
  380TIP3    H2 1147   1.272   4.941   4.553 -0.7845  0.0216 -0.2038
  381TIP3   OH2 1148   0.912   3.621   1.553 -0.3981 -0.0100  0.2458
  381TIP3    H1 1149   0.902   3.576   1.637 -1.0473 -0.5952 -0.1255
  381TIP3    H2 1150   0.822   3.626   1.519 -0.5346  2.5589  0.7516
  382TIP3   OH2 1151   4.476   5.290   1.168 -0.0648  0.3310 -0.0214
  382TIP3    H1 1152   4.515   5.337   1.094  0.2505  3.5113  1.9929
  382TIP3    H2 1153   4.401   5.244   1.130  1.0757  0.4132 -2.5840
  383TIP3   OH2 1154   2.386   3.662   1.166  0.3622 -0.5134  0.1272
  383TIP3    H1 1155   2.424   3.750   1.167  2.6183 -1.4022 -1.2213
  383TIP3    H2 1156   2.423   3.620   1.244  1.8664 -1.2149 -0.9135
  384TIP3   OH2 1157   1.664   0.192   4.700 -0.6632 -0.0878 -0.0878
  384TIP3    H1 1158   1.582   0.145   4.714 -1.0447  0.1372 -1.4063
  384TIP3    H2 1159   1.731   0.136   4.740 -1.1114 -1.7224 -1.4998
  385TIP3   OH2 1160   2.431   5.100   0.890 -0.5945  0.5708  0.1589
  385TIP3    H1 1161   2.468   5.056   0.813  0.0261  0.2120  0.6494
  385TIP3    H2 1162   2.428   5.192   0.866 -0.9605  0.3954 -0.5128
  386TIP3   OH2 1163   5.644   1.528   1.373 -0.7876 -0.4795 -0.1698
  386TIP3    H1 1164   5.559   1.547   1.413 -0.2539  1.3372  0.1869
  386TIP3    H2 1165   5.659   1.436   1.393 -1.6451 -0.2621  1.7618
  387TIP3   OH2 1166   4.151   3.405   2.704 -0.1325 -0.0961  0.4349
  387TIP3    H1 1167   4.146   3.412   2.800 -1.2649 -1.1549  0.4838
  387TIP3    H2 1168   4.197   3.322   2.689  0.0856  0.0913  0.0656
  388TIP3   OH2 1169   5.690   5.525   4.385  0.0953 -0.4600 -0.0700
  388TIP3    H1 1170   5.678   5.531   4.480 -0.2235 -0.7628 -0.0902
  388TIP3    H2 1171   5.643   5.602   4.351 -1.6887 -1.5151 -0.1331
  389TIP3   OH2 1172   2.517   2.794   2.742 -0.2498 -0.6192  0.5441
  389TIP3    H1 1173   2.470   2.722   2.700 -0.5299 -0.3310  0.3575
  389TIP3    H2 1174   2.450   2.860   2.758  0.0962 -0.1880  0.2438
  390TIP3   OH2 1175   6.033   1.330   1.481  0.2789  0.0839  0.0072
  390TIP3    H1 1176   6.026   1.425   1.493  0.5586  0.0536  0.4140
  390TIP3    H2 1177   6.085   1.300   1.555  0.0530 -0.4111 -0.0330
  391TIP3   OH2 1178   4.685   1.411   3.507  0.5901  0.0824  0.2992
  391TIP3    H1 1179   4.775   1.394   3.536  0.1867 -2.2072  0.4485
  391TIP3    H2 1180   4.639   1.436   3.586  0.2376 -2.8575  1.1339
  392TIP3   OH2 1181   1.061   2.013   3.477  0.2740  0.1140 -0.0745
  392TIP3    H1 1182   0.979   1.963   3.469  0.3959  0.0348 -0.9261
  392TIP3    H2 1183   1.094   2.019   3.388  1.1483  0.2380  0.2477
  393TIP3   OH2 1184   5.473   0.290   4.859  0.1089  0.5530 -0.2542
  393TIP3    H1 1185   5.562   0.304   4.826  0.0247  0.8536 -0.3544
  393TIP3    H2 1186   5.457   0.364   4.917  0.8691 -0.8138  1.7819
  394TIP3   OH2 1187   4.491   2.708   1.330 -0.1267 -0.0507  0.0685
  394TIP3    H1 1188   4.514   2.798   1.304 -0.0771 -0.1640 -0.2944
  394TIP3    H2 1189   4.448   2.717   1.415 -0.4080  0.3485 -0.1132
  395TIP3   OH2 1190   1.150   1.846   2.997 -0.1704 -0.0740 -0.1209
  395TIP3    H1 1191   1.073   1.899   3.016 -0.2986 -0.0024 -0.8003
  395TIP3    H2 1192   1.160   1.790   3.074 -0.5272  0.3537  0.2422
  396TIP3   OH2 1193   4.488   3.870   5.042 -0.0213 -0.2822  0.2752
  396TIP3    H1 1194   4.582   3.882   5.056 -0.1896  1.6390  0.0469
  396TIP3    H2 1195   4.483   3.823   4.959  0.7289 -0.6626  0.4288
  397TIP3   OH2 1196   1.633   1.707   1.135  0.1638 -0.1685 -0.4504
  397TIP3    H1 1197   1.625   1.802   1.143  1.5478 -0.1582  1.4678
  397TIP3    H2 1198   1.552   1.673   1.175 -0.2879  0.1721 -1.0493
  398TIP3   OH2 1199   5.322   1.811   4.093  0.3863  0.2455  0.2307
  398TIP3    H1 1200   5.372   1.772   4.022 -0.5147 -0.7244  0.0958
  398TIP3    H2 1201   5.318   1.743   4.160 -0.5371  0.3753  0.3273
  399TIP3   OH2 1202   1.951   1.658   3.051  0.4554 -0.0578 -0.7894
  399TIP3    H1 1203   1.948   1.701   3.136  2.0515 -0.0276 -0.7296
  399TIP3    H2 1204   1.879   1.594   3.055  1.3882 -1.0835  1.1491
  400TIP3   OH2 1205   3.813   0.454   3.785 -0.0330  0.4269  0.5092
  400TIP3    H1 1206   3.825   0.543   3.754 -1.5242 -0.2430 -2.2892
  400TIP3    H2 1207   3.862   0.399   3.723 -2.2685 -0.9150 -0.1897
  401TIP3   OH2 1208   0.177   4.233   0.644  0.3422  0.6091  0.4924
  401TIP3    H1 1209   0.186   4.267   0.555  0.2225  0.9295  0.6029
  401TIP3    H2 1210   0.262   4.191   0.661 -0.3364 -1.2753 -0.5209
  402TIP3   OH2 1211   4.051   3.924   0.582  0.3891 -0.0914 -0.1101
  402TIP3    H1 1212   3.956   3.918   0.594  0.2816 -1.0544 -1.2121
  402TIP3    H2 1213   4.073   4.014   0.605 -0.8133  0.1938 -0.0128
  403TIP3   OH2 1214   2.672   5.213   1.849  0.0050 -0.2399  0.1948
  403TIP3    H1 1215   2.610   5.147   1.816  1.9494 -1.4219 -1.3278
  403TIP3    H2 1216   2.737   5.222   1.779  1.7675  0.6833  1.8504
  404TIP3   OH2 1217   1.370   4.659   1.174 -0.7221 -0.2359 -0.2605
  404TIP3    H1 1218   1.412   4.727   1.225  0.7152  0.0319 -1.7291
  404TIP3    H2 1219   1.372   4.581   1.230  1.3090 -0.1048 -0.1021
  405TIP3   OH2 1220   5.730  -0.030   1.393  0.3462 -0.1072  0.3006
  405TIP3    H1 1221   5.745   0.007   1.305  1.2402  0.2251  0.5802
  405TIP3    H2 1222   5.699   0.045   1.445  1.7075  0.1682  0.7507
  406TIP3   OH2 1223   0.523   4.407   2.347  0.1071  0.6642 -0.0136
  406TIP3    H1 1224   0.493   4.493   2.376  0.9959  1.2422 -0.7457
  406TIP3    H2 1225   0.448   4.368   2.302 -1.1167 -0.0130  2.4498
  407TIP3   OH2 1226   0.792   0.093   2.586 -0.1724 -0.5580  0.0024
  407TIP3    H1 1227   0.880   0.062   2.610 -0.5712 -0.1500  2.2464
  407TIP3    H2 1228   0.762   0.142   2.663 -2.6176 -1.1989 -0.4605
  408TIP3   OH2 1229   5.576   4.871   2.739 -0.2628  0.8982  0.2234
  408TIP3    H1 1230   5.617   4.957   2.740 -1.4151  1.6431 -3.0377
  408TIP3    H2 1231   5.537   4.864   2.652  1.1153 -3.5836 -0.2977
  409TIP3   OH2 1232   5.516   5.357   0.452 -0.5766  0.2499 -0.0545
  409TIP3    H1 1233   5.595   5.303   0.443 -1.7173 -1.1170 -2.9737
  409TIP3    H2 1234   5.549   5.441   0.485  1.8815 -0.7364  0.2640
  410TIP3   OH2 1235   5.399   3.326   3.968  0.4533  0.0226 -0.6805
  410TIP3    H1 1236   5.320   3.376   3.988  0.7763  0.8478 -1.3647
  410TIP3    H2 1237   5.369   3.255   3.911 -0.0778 -0.8554  0.6525
  411TIP3   OH2 1238   2.627   5.286   3.654 -0.5496 -0.0054 -0.0918
  411TIP3    H1 1239   2.571   5.209   3.641  0.7213 -0.7806 -1.1945
  411TIP3    H2 1240   2.577   5.358   3.615 -2.1087 -0.0544  1.6564
  412TIP3   OH2 1241   1.243   3.099   2.554 -0.2557  0.2165 -0.4681
  412TIP3    H1 1242   1.338   3.091   2.561 -0.3436 -2.2705 -1.1990
  412TIP3    H2 1243   1.210   3.064   2.636 -0.5455 -2.5316 -1.6309
  413TIP3   OH2 1244   6.047   5.317   4.998 -0.1453  1.0778 -0.1556
  413TIP3    H1 1245   6.053   5.407   5.029 -0.4110  0.5609  1.4618
  413TIP3    H2 1246   5.955   5.293   5.010 -0.5675  1.2468 -2.5720
  414TIP3   OH2 1247   1.410   2.163   3.770 -0.1184 -0.4798 -0.6240
  414TIP3    H1 1248   1.338   2.216   3.804  1.3800  1.2433 -0.0131
  414TIP3    H2 1249   1.431   2.203   3.685  0.9804 -0.1083 -0.1914
  415TIP3   OH2 1250   1.463   2.138   1.710 -0.0314  0.9023 -0.1509
  415TIP3    H1 1251   1.552   2.138   1.677  0.2334  0.5354  0.5514
  415TIP3    H2 1252   1.437   2.230   1.707 -0.4136  0.7863 -2.3643
  416TIP3   OH2 1253   6.174   1.418   3.929 -0.2143 -0.1910 -0.2024
  416TIP3    H1 1254   6.207   1.369   3.854  1.7866  1.1047 -0.2487
  416TIP3    H2 1255   6.191   1.361   4.004 -1.5178 -1.1675 -0.6163
  417TIP3   OH2 1256   3.847   0.029   2.977 -0.2766  0.2756 -0.0170
  417TIP3    H1 1257   3.817   0.053   3.065  0.4554  0.1112  0.2865
  417TIP3    H2 1258   3.783   0.069   2.918 -1.1187 -0.1209  0.6040
  418TIP3   OH2 1259   0.337   1.810   0.890 -0.3488 -0.3584  0.2204
  418TIP3    H1 1260   0.331   1.716   0.871 -1.4642 -0.1324 -0.6505
  418TIP3    H2 1261   0.265   1.849   0.841  0.6172  1.0696 -0.1198
  419TIP3   OH2 1262   2.405   1.304   3.584  0.3851  0.5049 -0.5908
  419TIP3    H1 1263   2.352   1.288   3.662  0.6594  0.2678 -0.4469
  419TIP3    H2 1264   2.434   1.217   3.557  0.1395  0.5725 -1.0662
  420TIP3   OH2 1265   3.869   4.458   0.946 -0.0188 -0.4001 -0.7550
  420TIP3    H1 1266   3.851   4.411   1.028 -0.0613 -2.2665 -1.7672
  420TIP3    H2 1267   3.882   4.549   0.973  0.5850 -1.0455  1.4075
  421TIP3   OH2 1268   2.737   5.234   4.466 -0.4678 -0.2795 -0.2580
  421TIP3    H1 1269   2.646   5.214   4.446 -1.6648  2.2023  2.0692
  421TIP3    H2 1270   2.758   5.179   4.541 -0.6261  0.2827  0.2104
  422TIP3   OH2 1271   3.947   0.597   2.003  0.0096  0.2385 -0.8658
  422TIP3    H1 1272   4.011   0.548   1.951  0.6253  0.7503 -0.6051
  422TIP3    H2 1273   3.875   0.614   1.943  0.2058 -0.1641 -1.2253
  423TIP3   OH2 1274   4.493   5.635   0.047  0.3530 -0.3401  0.6450
  423TIP3    H1 1275   4.444   5.554   0.058 -0.5010 -0.0686 -0.8946
  423TIP3    H2 1276   4.578   5.608   0.012 -0.0239 -0.5490 -0.1085
  424TIP3   OH2 1277   5.793   0.773   4.120 -0.1529 -0.2479 -0.5337
  424TIP3    H1 1278   5.768   0.738   4.034  0.8555 -1.8203 -0.2333
  424TIP3    H2 1279   5.710   0.792   4.164 -0.6855  0.8669 -1.9315
  425TIP3   OH2 1280   4.273   4.606   1.692  0.0369 -0.1683 -0.4733
  425TIP3    H1 1281   4.270   4.624   1.786 -1.0115  1.1765 -0.7504
  425TIP3    H2 1282   4.364   4.580   1.676 -0.2332 -2.5991  1.2560
  426TIP3   OH2 1283   5.178   2.457   3.467 -0.2522 -0.2388 -0.1998
  426TIP3    H1 1284   5.130   2.444   3.386  0.5488 -0.9602 -0.5791
  426TIP3    H2 1285   5.199   2.369   3.497 -0.5158  0.0198  0.7806
  427TIP3   OH2 1286   4.728   2.706   1.557 -0.6153 -0.4596 -0.2348
  427TIP3    H1 1287   4.634   2.691   1.566 -0.9841  1.2278 -0.8193
  427TIP3    H2 1288   4.763   2.622   1.528 -1.8765 -1.2130  0.3225
  428TIP3   OH2 1289   5.074   4.874   2.748  0.1201  0.4330  0.0462
  428TIP3    H1 1290   5.057   4.790   2.705  1.5029 -0.2451  0.7496
  428TIP3    H2 1291   5.155   4.860   2.797 -0.2438  1.8305  1.1293
  429TIP3   OH2 1292   4.144   4.521   5.041  0.5064 -0.0185 -0.1196
  429TIP3    H1 1293   4.121   4.611   5.064  0.7445  0.0126 -0.0055
  429TIP3    H2 1294   4.127   4.515   4.947 -1.7576 -0.5185  0.2558
  430TIP3   OH2 1295   2.597   3.733   1.786  0.1055  0.1708 -0.0066
  430TIP3    H1 1296   2.661   3.719   1.856  0.3490 -1.1064 -0.4540
  430TIP3    H2 1297   2.513   3.736   1.831  0.2723 -0.5109  0.3700
  431TIP3   OH2 1298   3.561   4.408   2.921 -0.2646 -0.2981  0.1620
  431TIP3    H1 1299   3.564   4.418   2.825 -0.6855  1.1780  0.2746
  431TIP3    H2 1300   3.519   4.323   2.934 -1.0829 -0.1069 -0.9810
  432TIP3   OH2 1301   3.033   5.963   1.571 -0.4227  0.4718  0.6839
  432TIP3    H1 1302   3.005   5.941   1.660  1.0281 -0.6588  0.9014
  432TIP3    H2 1303   3.128   5.969   1.577 -0.2720  0.0376 -0.8727
  433TIP3   OH2 1304   1.890   4.926   4.696  0.1088  0.2343 -0.3548
  433TIP3    H1 1305   1.862   4.846   4.742  0.0989  0.0908 -0.6076
  433TIP3    H2 1306   1.980   4.908   4.669  1.4614  1.6878  2.7453
  434TIP3   OH2 1307   3.768   5.180   1.540 -0.2419  0.0760  0.4385
  434TIP3    H1 1308   3.812   5.202   1.622  1.8154 -0.7101 -0.3817
  434TIP3    H2 1309   3.771   5.084   1.536  1.1187  0.1347 -1.2266
  435TIP3   OH2 1310   5.969   2.541   1.126  0.2548  0.2730  0.1427
  435TIP3    H1 1311   5.896   2.588   1.086  0.6960  1.6114  0.8123
  435TIP3    H2 1312   6.043   2.558   1.066  0.1159 -0.7560 -0.3355
  436TIP3   OH2 1313   2.823   5.458   0.859 -0.1574 -0.1578 -0.1850
  436TIP3    H1 1314   2.913   5.471   0.828  0.5404 -0.9259  1.4183
  436TIP3    H2 1315   2.832   5.405   0.938 -2.0075  0.0688  0.2213
  437TIP3   OH2 1316   3.984   2.105   4.716 -0.2688 -0.0714  0.3342
  437TIP3    H1 1317   4.059   2.130   4.769  0.0945 -0.5098  0.0307
  437TIP3    H2 1318   4.020   2.082   4.630 -0.5065 -1.9862  0.6866
  438TIP3   OH2 1319   0.423   2.939   3.353  0.2725  0.0062 -0.0516
  438TIP3    H1 1320   0.459   2.969   3.437  1.4892  0.3604 -0.6789
  438TIP3    H2 1321   0.499   2.929   3.296 -0.5656  0.1870 -1.2495
  439TIP3   OH2 1322   2.775   3.870   3.222 -0.3355 -0.4461  0.1978
  439TIP3    H1 1323   2.772   3.780   3.192  0.8909 -0.6441  0.6362
  439TIP3    H2 1324   2.865   3.884   3.249 -0.6003  0.7893  0.5188
  440TIP3   OH2 1325   1.454   3.511   4.376 -0.5526 -0.0449  0.0139
  440TIP3    H1 1326   1.378   3.481   4.326 -0.8518  1.1414 -0.2625
  440TIP3    H2 1327   1.454   3.457   4.455 -0.7542 -1.1358 -0.7081
  441TIP3   OH2 1328   4.849   3.680   4.058 -0.2307  0.5220 -0.0297
  441TIP3    H1 1329   4.765   3.649   4.025 -0.1614  0.6356 -0.3142
  441TIP3    H2 1330   4.843   3.668   4.153 -0.7351  0.9260 -0.0007
  442TIP3   OH2 1331   1.048   5.721   4.573 -0.2933 -0.2709 -0.4925
  442TIP3    H1 1332   1.087   5.691   4.491 -0.2351  0.1366 -0.6149
  442TIP3    H2 1333   1.106   5.687   4.641  0.6431  0.8864 -0.7026
  443TIP3   OH2 1334   1.497   2.738   0.091 -0.4931 -0.4288 -0.2400
  443TIP3    H1 1335   1.502   2.791   0.171  1.9716  0.8699 -1.1405
  443TIP3    H2 1336   1.408   2.702   0.091 -0.9224  0.4194  2.4930
  444TIP3   OH2 1337   1.096   2.963   0.922  0.5343  0.2724 -0.0828
  444TIP3    H1 1338   1.111   3.021   0.847  0.8598  0.7530  0.3446
  444TIP3    H2 1339   1.047   2.889   0.886  0.5973  0.5474 -0.7475
  445TIP3   OH2 1340   5.638   3.809   3.343  0.2161 -0.0749 -0.2004
  445TIP3    H1 1341   5.569   3.803   3.409  0.8793  1.4484  0.6849
  445TIP3    H2 1342   5.591   3.826   3.261 -0.5526 -0.8701  0.0584
  446TIP3   OH2 1343   6.314   1.258   4.428 -0.0580  0.5017  0.4205
  446TIP3    H1 1344   6.276   1.335   4.469  0.5313  0.6577  0.6806
  446TIP3    H2 1345   6.255   1.186   4.453 -1.0160  0.9696 -0.4234
  447TIP3   OH2 1346   2.229   0.726   2.842  0.3707  0.3320  0.5947
  447TIP3    H1 1347   2.299   0.677   2.885  1.2658  0.6230 -0.4873
  447TIP3    H2 1348   2.157   0.725   2.905  0.4011 -2.2357  0.6621
  448TIP3   OH2 1349   2.849   1.488   0.952 -0.2251 -0.6125 -0.5931
  448TIP3    H1 1350   2.911   1.560   0.939 -1.3889  0.2557 -1.6199
  448TIP3    H2 1351   2.837   1.451   0.864 -0.2083 -1.5841 -0.1939
  449TIP3   OH2 1352   3.087   3.852   0.021  0.0590  0.9580  0.3635
  449TIP3    H1 1353   3.092   3.803   0.103 -3.0886 -0.0818  0.0328
  449TIP3    H2 1354   3.000   3.890   0.020  0.0870  1.1588 -2.3959
  450TIP3   OH2 1355   3.917   0.654   2.556 -0.3205 -0.0043  0.1403
  450TIP3    H1 1356   3.947   0.575   2.601  0.1161 -0.2858 -0.6149
  450TIP3    H2 1357   3.943   0.640   2.464  0.3165  1.2955  0.1053
  451TIP3   OH2 1358   1.541   1.166   0.196  0.2087 -0.1518 -0.2813
  451TIP3    H1 1359   1.472   1.185   0.133 -0.1444 -1.8056 -0.4382
  451TIP3    H2 1360   1.620   1.205   0.158 -0.6599  1.9970  0.0340
  452TIP3   OH2 1361   6.236   0.206   0.994  0.1724  0.0534  0.2344
  452TIP3    H1 1362   6.212   0.142   0.927  1.9012 -0.4097  0.0105
  452TIP3    H2 1363   6.180   0.282   0.976  1.7180  0.6356 -2.8668
  453TIP3   OH2 1364   3.473   3.587   3.954  0.4452 -0.4050  0.2465
  453TIP3    H1 1365   3.545   3.645   3.980  0.5420 -1.0479  1.5113
  453TIP3    H2 1366   3.457   3.609   3.862  1.2357  0.8129  0.3634
  454TIP3   OH2 1367   4.969   2.532   2.804  0.0788  0.3564  0.3239
  454TIP3    H1 1368   4.913   2.462   2.770  0.9957 -0.3336  0.2147
  454TIP3    H2 1369   4.918   2.612   2.790 -1.0648 -0.2924  0.6147
  455TIP3   OH2 1370   1.919   5.184   3.402 -0.1490  0.3261  0.1120
  455TIP3    H1 1371   1.908   5.278   3.384 -0.2048  0.1708 -0.6749
  455TIP3    H2 1372   1.935   5.180   3.496  0.4431  1.1792  0.0598
  456TIP3   OH2 1373   0.726   5.005   4.212  0.0469  0.3516  0.0921
  456TIP3    H1 1374   0.646   5.047   4.241 -0.4286 -0.6390  0.2595
  456TIP3    H2 1375   0.713   4.990   4.119  0.0176  0.1599  0.1262
  457TIP3   OH2 1376   2.322   5.609   2.617 -0.1781  1.1055  0.0091
  457TIP3    H1 1377   2.327   5.566   2.702 -1.8197  0.9200  0.0403
  457TIP3    H2 1378   2.271   5.689   2.633  0.5253  1.6896 -0.5760
  458TIP3   OH2 1379   0.592   5.241   2.106 -0.2704  0.0764 -0.2777
  458TIP3    H1 1380   0.628   5.153   2.092  0.4388  0.5507 -1.5123
  458TIP3    H2 1381   0.548   5.263   2.025 -0.8057  0.7120  0.1719
  459TIP3   OH2 1382   4.359   0.740   0.017  0.2797 -0.1129  0.1495
  459TIP3    H1 1383   4.340   0.669   0.079  1.1972  0.5442  1.2146
  459TIP3    H2 1384   4.280   0.746  -0.037 -1.4570  0.6763  2.6058
  460TIP3   OH2 1385   0.237   1.036   2.446 -0.1026  0.2463 -0.2056
  460TIP3    H1 1386   0.220   0.987   2.526 -2.1716 -0.4100 -0.9950
  460TIP3    H2 1387   0.203   0.981   2.376  1.7842  0.7440 -1.6071
  461TIP3   OH2 1388   0.701   2.399   2.178  0.3458  0.0546  0.3210
  461TIP3    H1 1389   0.742   2.485   2.176 -1.6830  1.1307  1.4612
  461TIP3    H2 1390   0.621   2.412   2.229 -3.0472 -1.1437 -4.0822
  462TIP3   OH2 1391   5.437   3.668   0.509 -0.2073  0.2181 -0.0078
  462TIP3    H1 1392   5.506   3.651   0.574 -0.0802  0.5760 -0.0473
  462TIP3    H2 1393   5.361   3.620   0.542 -0.4800  1.2842  1.0175
  463TIP3   OH2 1394   5.607   1.021   0.842  0.6246 -0.3100  0.3101
  463TIP3    H1 1395   5.659   1.087   0.888  0.0744 -0.2209  0.8190
  463TIP3    H2 1396   5.576   1.066   0.763 -0.1672  0.2102  0.9084
  464TIP3   OH2 1397   2.259   3.244   3.947 -0.2680  0.1655  0.3081
  464TIP3    H1 1398   2.264   3.261   4.041 -1.7290 -1.7411  0.7896
  464TIP3    H2 1399   2.256   3.149   3.940  0.8222  0.2141 -1.7650
  465TIP3   OH2 1400   5.276   4.485   4.264 -0.3575 -0.2994  0.8338
  465TIP3    H1 1401   5.204   4.491   4.201 -0.2748 -1.1122  0.6558
  465TIP3    H2 1402   5.345   4.438   4.217 -0.9492 -2.5456  2.0908
  466TIP3   OH2 1403   6.143   5.664   2.378  0.1166  0.1193 -0.4151
  466TIP3    H1 1404   6.150   5.599   2.307 -0.1036  1.0023 -1.2650
  466TIP3    H2 1405   6.168   5.616   2.457  2.0126 -0.4593 -1.3221
  467TIP3   OH2 1406   4.548   2.253   2.649 -0.8340  0.1758  0.4246
  467TIP3    H1 1407   4.479   2.317   2.628 -2.7502 -1.9394 -0.1264
  467TIP3    H2 1408   4.627   2.292   2.612 -1.9802  2.0410 -0.2627
  468TIP3   OH2 1409   1.182   4.976   5.030 -0.1358 -0.0608  0.0397
  468TIP3    H1 1410   1.150   5.055   5.074  0.4777  0.1117  0.1837
  468TIP3    H2 1411   1.277   4.980   5.041 -0.0663 -0.5613 -0.3922
  469TIP3   OH2 1412   5.148   1.275   2.650  0.5004  0.2451  0.5043
  469TIP3    H1 1413   5.150   1.302   2.558 -0.0798 -0.6114  0.2308
  469TIP3    H2 1414   5.240   1.259   2.672  0.6506  0.5209  0.0965
  470TIP3   OH2 1415   4.876   4.297   5.181  0.4862 -0.1747 -0.2474
  470TIP3    H1 1416   4.839   4.385   5.178  1.1850  0.1795  0.8569
  470TIP3    H2 1417   4.946   4.297   5.116 -1.0420 -0.6975 -1.9958
  471TIP3   OH2 1418   3.957   4.975   3.054  0.4322  0.5801 -0.3962
  471TIP3    H1 1419   3.977   5.050   3.111 -2.0706  0.2481  1.0815
  471TIP3    H2 1420   3.946   4.901   3.115  1.7693 -0.7811 -1.7283
  472TIP3   OH2 1421   4.550   3.169   2.249  0.3905 -0.3260 -0.1568
  472TIP3    H1 1422   4.641   3.190   2.229  0.0669  0.8898 -0.4366
  472TIP3    H2 1423   4.521   3.112   2.177  0.8079 -0.3938 -0.2707
  473TIP3   OH2 1424   4.154   1.816   3.479 -0.5624  0.0828 -0.5574
  473TIP3    H1 1425   4.155   1.728   3.515  1.2169  0.0790 -0.5331
  473TIP3    H2 1426   4.107   1.868   3.544  1.2162 -0.2395  1.1012
  474TIP3   OH2 1427   0.934   4.434   4.918 -0.6381  0.7472  0.2987
  474TIP3    H1 1428   0.982   4.493   4.976  2.5313 -1.4247  0.1938
  474TIP3    H2 1429   0.978   4.443   4.833 -2.5116  0.8794 -0.7109
  475TIP3   OH2 1430   1.119   4.281   0.738 -0.4262  0.4456  0.0002
  475TIP3    H1 1431   1.101   4.344   0.808  0.5218  0.1591  0.5254
  475TIP3    H2 1432   1.173   4.214   0.780  0.5617  0.5106 -1.1134
  476TIP3   OH2 1433   1.855   0.195   1.775  0.4869 -0.1208 -0.1162
  476TIP3    H1 1434   1.776   0.148   1.800  0.8729 -0.9233 -0.3332
  476TIP3    H2 1435   1.916   0.125   1.750  1.5792  0.4169  0.9486
  477TIP3   OH2 1436   5.455   5.240   4.599  0.1567  0.5260 -0.5425
  477TIP3    H1 1437   5.484   5.230   4.508 -0.8624 -0.5511 -0.7801
  477TIP3    H2 1438   5.360   5.242   4.593  0.0979  2.4618  0.3428
  478TIP3   OH2 1439   5.580   3.949   3.771  0.7330 -0.1956  0.1417
  478TIP3    H1 1440   5.642   3.877   3.785  1.1096 -0.0234 -0.5809
  478TIP3    H2 1441   5.529   3.953   3.852 -0.0101 -1.9499 -0.2110
  479TIP3   OH2 1442   0.192   2.431   3.738 -0.2822  0.8057  0.2724
  479TIP3    H1 1443   0.175   2.517   3.778 -0.4077  0.8052  0.2211
  479TIP3    H2 1444   0.189   2.448   3.644  0.4026  0.8842  0.2569
  480TIP3   OH2 1445   3.691   3.698   0.458  0.8105 -0.0018  0.1962
  480TIP3    H1 1446   3.610   3.656   0.488  0.4048  1.2132  0.8297
  480TIP3    H2 1447   3.663   3.751   0.383  1.2877 -0.6858 -0.4779
  481TIP3   OH2 1448   1.896   3.714   4.804 -0.1439  0.8916 -0.2059
  481TIP3    H1 1449   1.955   3.716   4.879 -3.3256  2.2490  2.5243
  481TIP3    H2 1450   1.905   3.626   4.768  1.8677  0.3617  1.4320
  482TIP3   OH2 1451   1.037   5.058   1.472 -0.5248  0.7201 -0.2648
  482TIP3    H1 1452   1.124   5.074   1.435 -0.7429  0.8868 -0.7114
  482TIP3    H2 1453   0.987   5.137   1.453 -0.2626  1.3745  1.5600
  483TIP3   OH2 1454   2.606   1.926   3.301  0.4718 -0.2988  0.1751
  483TIP3    H1 1455   2.648   1.982   3.235  0.8925 -1.0981 -0.2399
  483TIP3    H2 1456   2.567   1.855   3.250  0.1158 -0.4990  0.7228
  484TIP3   OH2 1457   4.605   2.416   3.253  0.3964 -0.4093 -0.6179
  484TIP3    H1 1458   4.576   2.501   3.218  3.4678  0.0656 -2.4190
  484TIP3    H2 1459   4.551   2.352   3.207 -2.2350  0.4468  1.0416
  485TIP3   OH2 1460   2.502   5.833   2.645  0.3085  0.3736  0.0585
  485TIP3    H1 1461   2.547   5.750   2.656  0.6691  0.6477  0.7501
  485TIP3    H2 1462   2.409   5.810   2.645  0.4281 -0.2656 -2.0615
  486TIP3   OH2 1463   1.576   1.292   0.747  0.0739  0.7167 -0.2568
  486TIP3    H1 1464   1.507   1.307   0.682 -0.8837  0.9052  0.7652
  486TIP3    H2 1465   1.570   1.368   0.805 -0.6738 -0.5572  1.3922
  487TIP3   OH2 1466   5.670   0.609   1.041  0.1008 -0.3143  0.6818
  487TIP3    H1 1467   5.596   0.667   1.024  1.3127  1.8412  2.2386
  487TIP3    H2 1468   5.678   0.608   1.136  2.2343 -0.2546  0.5454
  488TIP3   OH2 1469   2.453   5.882   3.765 -0.6841  0.5159 -0.0713
  488TIP3    H1 1470   2.456   5.974   3.792  0.0763  0.2635  0.7350
  488TIP3    H2 1471   2.374   5.876   3.711 -0.6420  1.6812 -0.2924
  489TIP3   OH2 1472   1.539   5.769   2.931  0.1979 -0.4088 -0.3226
  489TIP3    H1 1473   1.495   5.848   2.901  1.1833  0.5618  0.7034
  489TIP3    H2 1474   1.621   5.767   2.881  0.8072 -0.0207  0.6530
  490TIP3   OH2 1475   2.915   2.816   0.544 -0.4327 -0.4780 -0.0062
  490TIP3    H1 1476   3.002   2.798   0.509  0.6782  0.7560  1.9320
  490TIP3    H2 1477   2.881   2.729   0.566 -0.0392 -1.0408 -1.4847
  491TIP3   OH2 1478   1.477   1.256   2.250  0.1234 -0.2195 -0.5306
  491TIP3    H1 1479   1.568   1.284   2.261  0.4509 -0.6176 -2.0064
  491TIP3    H2 1480   1.457   1.205   2.329  2.0983 -2.5146 -1.4175
  492TIP3   OH2 1481   5.986   5.745   0.902 -0.3058 -0.1155  0.0354
  492TIP3    H1 1482   6.058   5.695   0.941 -0.6825 -0.6952  0.0099
  492TIP3    H2 1483   5.941   5.681   0.846 -0.6262  0.3311 -0.2200
  493TIP3   OH2 1484   4.396   4.778   1.283  0.0667  0.5500 -0.0691
  493TIP3    H1 1485   4.373   4.864   1.250 -0.3380  0.4905  0.0469
  493TIP3    H2 1486   4.335   4.762   1.355  0.0929  0.1404 -0.1313
  494TIP3   OH2 1487   3.795   2.021   2.195 -0.2967 -0.0232 -0.1364
  494TIP3    H1 1488   3.858   2.030   2.267  0.0267  0.1018 -0.4298
  494TIP3    H2 1489   3.849   1.996   2.119 -0.4787  0.8985 -0.5859
  495TIP3   OH2 1490   2.782   0.115   4.901  0.1701 -0.6177 -0.1315
  495TIP3    H1 1491   2.736   0.108   4.985 -2.0980  1.0754 -1.1287
  495TIP3    H2 1492   2.841   0.190   4.913  0.0420 -0.5399  0.0263
  496TIP3   OH2 1493   6.265   5.687   2.063 -0.0387  0.5608 -0.3368
  496TIP3    H1 1494   6.188   5.728   2.102  0.1005  0.6472 -0.1484
  496TIP3    H2 1495   6.261   5.710   1.971 -0.0629  0.8379 -0.2664
  497TIP3   OH2 1496   6.015   3.827   2.631  0.1195 -0.0815  0.1267
  497TIP3    H1 1497   6.040   3.758   2.692 -1.4382  0.4537  1.4391
  497TIP3    H2 1498   5.947   3.875   2.676 -0.6082  0.7755 -1.7785
  498TIP3   OH2 1499   4.485   0.773   2.851 -0.0534 -0.2881 -0.5702
  498TIP3    H1 1500   4.456   0.685   2.826  0.5880 -0.5906 -0.2670
  498TIP3    H2 1501   4.486   0.823   2.769  2.2489 -1.3216 -1.2615
  499TIP3   OH2 1502   4.156   0.527   5.011 -0.5819  0.4946 -0.0624
  499TIP3    H1 1503   4.216   0.601   5.022 -0.1744  0.0567  0.7803
  499TIP3    H2 1504   4.213   0.453   4.991 -0.7614 -0.0369  1.2524
  500TIP3   OH2 1505   1.550   2.258   0.960  0.4574 -0.1844 -0.2372
  500TIP3    H1 1506   1.610   2.316   1.007 -0.3101  0.7204 -0.3657
  500TIP3    H2 1507   1.511   2.204   1.028  0.0669  0.4684  0.0661
  501TIP3   OH2 1508   2.164  -0.020   2.395 -0.4103  0.1988 -0.2777
  501TIP3    H1 1509   2.154   0.061   2.446  1.5984 -0.1818  0.8132
  501TIP3    H2 1510   2.127   0.001   2.309 -0.1329  2.2131  0.0533
  502TIP3   OH2 1511   2.338   2.509   0.479 -0.4842  0.5837 -0.5184
  502TIP3    H1 1512   2.348   2.447   0.406 -1.9432 -0.5509  0.1868
  502TIP3    H2 1513   2.245   2.504   0.502 -0.9740  4.0454 -1.2436
  503TIP3   OH2 1514   0.723   1.080   4.956  0.3399 -0.8494 -0.3835
  503TIP3    H1 1515   0.695   1.041   5.039  0.5205  0.6169  0.3869
  503TIP3    H2 1516   0.798   1.134   4.978 -1.3674  1.9506 -0.8969
  504TIP3   OH2 1517   4.845   1.691   0.006 -0.2631 -0.2214 -0.3346
  504TIP3    H1 1518   4.928   1.647   0.026 -0.0496  0.6092  0.6857
  504TIP3    H2 1519   4.832   1.751   0.079 -0.5407  1.3849 -1.6483
  505TIP3   OH2 1520   3.796   2.609   2.672  0.5108  0.0964  0.2661
  505TIP3    H1 1521   3.703   2.598   2.694  0.1891  1.5373 -0.2191
  505TIP3    H2 1522   3.843   2.573   2.747 -0.4012 -1.7721 -0.0176
  506TIP3   OH2 1523   1.706   3.347   1.276 -0.2242  0.5187 -0.0659
  506TIP3    H1 1524   1.728   3.353   1.369 -1.1262  0.9146  0.1294
  506TIP3    H2 1525   1.764   3.410   1.233  1.1797 -0.6631  0.0377
  507TIP3   OH2 1526   3.633   2.457   4.770  0.3848  0.7021 -0.2921
  507TIP3    H1 1527   3.723   2.427   4.770 -0.3364 -1.7501  1.0669
  507TIP3    H2 1528   3.604   2.446   4.679  1.1544  0.5570 -0.5293
  508TIP3   OH2 1529   2.825   2.331   2.739 -0.6640  0.4273  0.2784
  508TIP3    H1 1530   2.767   2.406   2.755  0.3172  0.8530  2.1064
  508TIP3    H2 1531   2.868   2.315   2.823  0.1084 -1.4010 -0.3994
  509TIP3   OH2 1532   2.712   1.270   1.856 -0.1761  0.0326  0.1546
  509TIP3    H1 1533   2.736   1.188   1.899  2.1112  0.6592  0.1873
  509TIP3    H2 1534   2.667   1.243   1.775  0.1060 -1.2353  0.4084
  510TIP3   OH2 1535   4.563   2.160   5.088  0.3494 -0.5201 -0.0537
  510TIP3    H1 1536   4.537   2.225   5.153 -0.8178 -0.3747 -0.6452
  510TIP3    H2 1537   4.631   2.109   5.131 -0.0342 -0.0893  1.0881
  511TIP3   OH2 1538   6.124   0.311   4.201  0.1296 -0.0508 -0.1243
  511TIP3    H1 1539   6.120   0.347   4.113 -0.9116 -0.2244 -0.1651
  511TIP3    H2 1540   6.174   0.230   4.192  1.3499  0.6894 -0.2603
  512TIP3   OH2 1541   3.485   4.728   1.269  0.7905  0.6287  0.0069
  512TIP3    H1 1542   3.421   4.706   1.201  0.3820  1.0773  0.2353
  512TIP3    H2 1543   3.556   4.772   1.222 -0.0072  1.9676 -0.0134
  513TIP3   OH2 1544   0.360   2.488   4.064  0.1059 -0.4588  0.3462
  513TIP3    H1 1545   0.379   2.410   4.117  0.0067 -1.5981 -1.2274
  513TIP3    H2 1546   0.265   2.495   4.064 -0.1455 -2.4401 -2.2810
  514TIP3   OH2 1547   0.334   1.482   5.127  0.3307  0.0440  0.6760
  514TIP3    H1 1548   0.403   1.447   5.070 -0.1279  0.8593 -0.4185
  514TIP3    H2 1549   0.345   1.435   5.209  0.9941 -1.2011 -0.0893
  515TIP3   OH2 1550   3.638   5.117   4.796 -0.3510 -0.1630 -0.0468
  515TIP3    H1 1551   3.681   5.060   4.860  1.0141 -0.3467 -1.1059
  515TIP3    H2 1552   3.550   5.080   4.787 -0.7119  0.0749  1.9715
  516TIP3   OH2 1553   6.112   3.109   3.656 -0.0191 -0.0410 -0.0296
  516TIP3    H1 1554   6.091   3.180   3.717  0.9248 -0.7064  1.1183
  516TIP3    H2 1555   6.063   3.130   3.576  0.3113  1.9497  0.2387
  517TIP3   OH2 1556   4.951   3.129   3.350  0.3402 -0.0419 -0.1553
  517TIP3    H1 1557   4.926   3.184   3.276  0.2782  0.7573  0.4422
  517TIP3    H2 1558   4.890   3.056   3.348 -0.3004  0.4863 -0.3201
  518TIP3   OH2 1559   4.504   5.908   4.386 -0.1754 -0.1164 -0.1278
  518TIP3    H1 1560   4.423   5.908   4.335 -0.8403 -1.8306  0.8457
  518TIP3    H2 1561   4.475   5.926   4.476  0.3250 -1.9895  0.4448
  519TIP3   OH2 1562   2.024   1.128   3.490 -0.0741 -0.8123 -0.3263
  519TIP3    H1 1563   2.098   1.079   3.526 -0.5558 -1.2115  0.1274
  519TIP3    H2 1564   1.982   1.067   3.429  1.0956  0.0518 -2.1098
  520TIP3   OH2 1565   5.661   0.037   3.991 -0.2365 -0.3758 -0.1888
  520TIP3    H1 1566   5.573  -0.001   3.986  0.2698 -1.5358 -0.7318
  520TIP3    H2 1567   5.660   0.088   4.072 -1.1844 -0.9653  0.1912
  521TIP3   OH2 1568   3.819   5.716   2.636  0.0288  0.1022  0.1188
  521TIP3    H1 1569   3.841   5.661   2.710  2.2062  0.9671  0.1811
  521TIP3    H2 1570   3.814   5.804   2.672 -1.9797  0.1764 -0.2377
  522TIP3   OH2 1571   5.211   2.266   1.913  0.8384 -0.6369  0.3576
  522TIP3    H1 1572   5.152   2.332   1.950 -0.3615 -0.0169 -2.4072
  522TIP3    H2 1573   5.296   2.309   1.909  0.1676  0.6689 -1.0045
  523TIP3   OH2 1574   2.501   5.175   1.507 -0.2503  0.2454  0.2799
  523TIP3    H1 1575   2.437   5.104   1.513 -1.5643  1.4143  0.6420
  523TIP3    H2 1576   2.551   5.156   1.427 -2.6207  0.5498 -1.3474
  524TIP3   OH2 1577   3.685   5.560   2.449  0.2611 -0.0526  0.2763
  524TIP3    H1 1578   3.721   5.478   2.483  1.2683  0.9059  1.6023
  524TIP3    H2 1579   3.724   5.628   2.503  0.5834  1.4531 -1.7257
  525TIP3   OH2 1580   3.945   3.447   1.883  0.0786  0.2813 -0.0982
  525TIP3    H1 1581   3.942   3.543   1.880 -4.0159  0.3960  1.3477
  525TIP3    H2 1582   4.038   3.426   1.891  1.0495  4.2006  1.0065
  526TIP3   OH2 1583   2.881   4.702   2.555 -0.1647 -0.0616  0.8185
  526TIP3    H1 1584   2.884   4.659   2.641 -1.7650  0.0641  0.9641
  526TIP3    H2 1585   2.919   4.788   2.571 -0.2023 -0.1351  1.3371
  527TIP3   OH2 1586   1.846   0.043   1.062  0.0693 -0.6326 -0.4246
  527TIP3    H1 1587   1.844   0.088   1.146  1.0919  0.7031 -1.0670
  527TIP3    H2 1588   1.927  -0.008   1.064 -0.7337 -1.9345  0.0221
  528TIP3   OH2 1589   5.162   5.015   2.520  0.1925  0.5528  0.8323
  528TIP3    H1 1590   5.102   4.967   2.577 -0.3337  0.5268  0.2650
  528TIP3    H2 1591   5.210   4.948   2.473 -2.2338  0.4511 -1.7732
  529TIP3   OH2 1592   0.959   1.523   0.995 -0.3537 -0.6414 -0.2317
  529TIP3    H1 1593   0.930   1.487   1.078 -0.1726  1.4385  0.7981
  529TIP3    H2 1594   0.906   1.602   0.983 -0.5660 -1.0381 -2.2371
  530TIP3   OH2 1595   5.965   2.633   5.020  0.0029 -0.0664 -0.4016
  530TIP3    H1 1596   5.875   2.618   4.992 -0.6356 -1.2310  1.9858
  530TIP3    H2 1597   5.957   2.683   5.101  1.2856 -2.2921  1.2174
  531TIP3   OH2 1598   1.682   3.757   1.684 -0.1602  0.0124 -0.1575
  531TIP3    H1 1599   1.595   3.793   1.698  0.0188  1.3425 -2.1711
  531TIP3    H2 1600   1.674   3.701   1.607  1.0572  1.4515 -1.3928
  532TIP3   OH2 1601   3.881   4.211   1.863  0.1460 -0.0129  0.3872
  532TIP3    H1 1602   3.915   4.255   1.941 -0.6710  0.4438  0.4951
  532TIP3    H2 1603   3.825   4.276   1.821 -1.8609 -1.2062  1.0469
  533TIP3   OH2 1604   2.368   4.797   2.129  0.2571  0.0200 -0.2293
  533TIP3    H1 1605   2.396   4.758   2.211  1.3975  0.4480 -0.3956
  533TIP3    H2 1606   2.431   4.868   2.113 -0.1915  0.2111 -1.2565
  534TIP3   OH2 1607   2.693   4.826   3.551  0.7741  0.1159 -0.5885
  534TIP3    H1 1608   2.693   4.734   3.525  0.5327  0.1142 -0.5902
  534TIP3    H2 1609   2.776   4.839   3.596 -0.8978 -1.2320  3.3117
  535TIP3   OH2 1610   1.600   2.736   4.200  0.1985 -1.0647  0.1880
  535TIP3    H1 1611   1.688   2.698   4.196  2.0128  2.5943  0.4906
  535TIP3    H2 1612   1.581   2.742   4.294  1.7718  2.1241  0.4438
  536TIP3   OH2 1613   4.622   4.127   3.800  0.0901 -0.6755 -0.3762
  536TIP3    H1 1614   4.533   4.140   3.769 -0.9104  0.5124  2.6071
  536TIP3    H2 1615   4.674   4.190   3.751 -1.4311  1.3234  0.4499
  537TIP3   OH2 1616   2.069   1.349   2.066 -0.0023 -0.3475  0.3502
  537TIP3    H1 1617   2.055   1.276   2.006 -1.6100  0.9369 -0.9596
  537TIP3    H2 1618   2.120   1.412   2.015 -1.2585  0.6960  0.3271
  538TIP3   OH2 1619   5.828   1.645   1.671  0.5930  0.1112 -0.0115
  538TIP3    H1 1620   5.860   1.648   1.580 -1.5494 -1.2782 -0.8764
  538TIP3    H2 1621   5.767   1.718   1.677 -1.3843 -1.4175 -0.6156
  539TIP3   OH2 1622   2.136   0.871   1.864  0.1738 -0.0896  0.3275
  539TIP3    H1 1623   2.068   0.804   1.867 -0.3289  0.3666 -0.4740
  539TIP3    H2 1624   2.180   0.864   1.948 -1.3842  0.1305  1.2008
  540TIP3   OH2 1625   4.336   4.263   5.036 -0.7167 -0.1813  0.4348
  540TIP3    H1 1626   4.363   4.245   5.126 -0.0223  0.4834  0.3692
  540TIP3    H2 1627   4.267   4.328   5.045 -0.2354  0.3291  0.4609
  541TIP3   OH2 1628   1.666   3.458   4.735  0.3173  0.0012 -0.2148
  541TIP3    H1 1629   1.576   3.428   4.749  0.9912 -1.3502  1.5430
  541TIP3    H2 1630   1.696   3.407   4.659 -0.3748  0.4786 -0.8276
  542TIP3   OH2 1631   5.963   1.572   3.740 -0.2846 -0.2467 -0.2265
  542TIP3    H1 1632   6.038   1.542   3.790 -0.4985  1.6573  1.3513
  542TIP3    H2 1633   5.986   1.554   3.649  1.6020 -0.7000  0.3062
  543TIP3   OH2 1634   5.314   0.193   1.822 -0.0442  0.6066 -0.1361
  543TIP3    H1 1635   5.297   0.172   1.913 -3.2874  1.4323 -0.4233
  543TIP3    H2 1636   5.354   0.279   1.824 -1.7652  1.4409  0.5341
  544TIP3   OH2 1637  -0.002   1.045   0.876 -0.9011  0.1288 -0.7443
  544TIP3    H1 1638   0.082   1.088   0.892 -0.3894 -1.0545 -0.0354
  544TIP3    H2 1639   0.008   1.002   0.791 -0.0236 -1.6179  0.1727
  545TIP3   OH2 1640   1.648   2.361   2.171 -0.0711 -0.0157  0.2864
  545TIP3    H1 1641   1.577   2.416   2.141 -0.4735 -0.4734  0.3771
  545TIP3    H2 1642   1.666   2.302   2.098  0.3353  0.2158  0.1990
  546TIP3   OH2 1643   2.557   5.257   3.075  0.1141  0.1492  0.1042
  546TIP3    H1 1644   2.601   5.294   2.999 -1.3748  0.6040 -0.5766
  546TIP3    H2 1645   2.557   5.327   3.140  1.4414 -0.2596  0.5702
  547TIP3   OH2 1646   2.922   3.132   5.174  0.6340 -0.1750  0.1187
  547TIP3    H1 1647   2.954   3.063   5.116 -0.1149 -2.5358  2.3136
  547TIP3    H2 1648   2.857   3.180   5.122  0.6235 -1.6069 -1.2612
  548TIP3   OH2 1649  -0.007   1.882   3.541 -0.2604 -0.0523  0.0888
  548TIP3    H1 1650   0.035   1.855   3.460  1.0278 -0.7155  0.9414
  548TIP3    H2 1651   0.065   1.903   3.600 -1.1702  0.7414  0.9611
  549TIP3   OH2 1652   0.534   3.924   3.535  0.0858  0.1512  0.4734
  549TIP3    H1 1653   0.513   4.017   3.527  0.7436  0.3230  0.7053
  549TIP3    H2 1654   0.597   3.907   3.466 -1.0319 -0.4471 -0.4456
  550TIP3   OH2 1655   0.658   3.846   3.776  0.2222 -0.0266  0.0403
  550TIP3    H1 1656   0.600   3.850   3.699 -0.1498 -0.5385  0.2912
  550TIP3    H2 1657   0.742   3.819   3.741 -0.4201 -2.2358  0.0425
  551TIP3   OH2 1658   3.365   5.199   4.497 -0.3678  0.2417 -0.5435
  551TIP3    H1 1659   3.427   5.271   4.481  0.7815  0.0534  2.3705
  551TIP3    H2 1660   3.360   5.153   4.413  1.4637  1.7780 -1.5956
  552TIP3   OH2 1661   4.504   0.027   1.596  0.5016 -0.1172  0.3749
  552TIP3    H1 1662   4.567   0.094   1.624  1.7053 -0.9541 -0.2476
  552TIP3    H2 1663   4.554  -0.055   1.597 -0.0729 -0.5524 -1.7322
  553TIP3   OH2 1664   4.041   0.583   0.058  0.0385  0.2566  0.0563
  553TIP3    H1 1665   4.070   0.659   0.007  1.2786 -1.5411 -2.0824
  553TIP3    H2 1666   4.105   0.575   0.128 -0.6419  1.6663  0.9044
  554TIP3   OH2 1667   1.089   0.765   1.676  0.1969 -0.4139 -0.0598
  554TIP3    H1 1668   0.994   0.777   1.675  0.5019  3.5187  1.2623
  554TIP3    H2 1669   1.106   0.706   1.603 -3.0348  1.4819 -2.6238
  555TIP3   OH2 1670   5.473   0.799   0.394  0.4404 -0.2757  0.0329
  555TIP3    H1 1671   5.531   0.831   0.325 -1.1836  0.6394 -0.9696
  555TIP3    H2 1672   5.448   0.877   0.442 -0.0048 -0.6558  0.4196
  556TIP3   OH2 1673   3.372   5.587   1.504  0.0859 -0.7575  0.1904
  556TIP3    H1 1674   3.368   5.508   1.556  0.8817  0.3838  2.0901
  556TIP3    H2 1675   3.292   5.636   1.527  0.9196  0.2011  1.1750
  557TIP3   OH2 1676   1.915   5.523   5.017  0.1434 -0.2376 -0.5047
  557TIP3    H1 1677   1.994   5.485   5.054 -0.0765 -2.5846 -2.2032
  557TIP3    H2 1678   1.945   5.571   4.940  0.1201  0.8431  0.1389
  558TIP3   OH2 1679   3.683   1.047   0.034 -0.2454  0.2888 -0.5087
  558TIP3    H1 1680   3.720   1.102  -0.035  0.3285  1.9485  1.0350
  558TIP3    H2 1681   3.752   0.983   0.053 -0.3258 -0.0449 -1.3088
  559TIP3   OH2 1682   5.394   3.374   0.296 -0.1280 -0.0362  0.2989
  559TIP3    H1 1683   5.433   3.292   0.328 -1.3709 -1.0810 -0.7578
  559TIP3    H2 1684   5.373   3.422   0.376  1.9993 -0.0192  0.9293
  560TIP3   OH2 1685   4.957   5.509   1.267 -0.0677  0.0367  0.1500
  560TIP3    H1 1686   4.862   5.518   1.278  0.1181  0.7154  1.4046
  560TIP3    H2 1687   4.967   5.443   1.199 -1.4414 -0.7420  0.6563
  561TIP3   OH2 1688   2.664   5.895   2.169 -0.1877 -0.0079  0.2052
  561TIP3    H1 1689   2.681   5.838   2.094  1.9206 -1.0031  1.3657
  561TIP3    H2 1690   2.691   5.843   2.245 -1.1176  1.4286  1.5733
  562TIP3   OH2 1691   1.670   2.758   3.578 -0.2143  0.2731 -0.1375
  562TIP3    H1 1692   1.732   2.704   3.530 -0.2868  0.2874 -0.2479
  562TIP3    H2 1693   1.709   2.846   3.578 -0.3502  0.3343 -0.4167
  563TIP3   OH2 1694   2.466   0.931   4.967  0.4910 -0.4007 -0.0270
  563TIP3    H1 1695   2.450   1.017   5.005 -0.6359 -0.9859  0.9068
  563TIP3    H2 1696   2.521   0.947   4.891  2.2362  0.8948  1.4491
  564TIP3   OH2 1697   1.154   1.741   0.260 -0.2046  0.4221 -0.4965
  564TIP3    H1 1698   1.169   1.744   0.354 -2.1325  3.4947 -0.1547
  564TIP3    H2 1699   1.206   1.667   0.230  0.7993 -0.4206  2.8940
  565TIP3   OH2 1700   3.169   2.936   4.464 -0.4628 -0.7621  0.2591
  565TIP3    H1 1701   3.200   2.851   4.433 -1.9131 -1.0380 -0.5508
  565TIP3    H2 1702   3.123   2.917   4.545 -0.5494 -0.7126  0.2221
  566TIP3   OH2 1703   2.734   5.749   1.289 -0.1224 -0.0299  0.0565
  566TIP3    H1 1704   2.794   5.730   1.217  0.8445 -0.2939  0.9042
  566TIP3    H2 1705   2.745   5.842   1.306  0.9388 -0.2947  0.9575
  567TIP3   OH2 1706   3.980   5.537   0.302 -0.0800 -0.2839 -0.4315
  567TIP3    H1 1707   3.967   5.448   0.335 -3.0925  0.0679 -0.3936
  567TIP3    H2 1708   4.023   5.526   0.217  0.7273 -1.6429  0.1122
  568TIP3   OH2 1709   0.050   3.420   3.149  0.0641 -0.2115  0.2280
  568TIP3    H1 1710  -0.040   3.433   3.180 -0.1006 -1.6475  0.4526
  568TIP3    H2 1711   0.052   3.328   3.121  1.5193 -0.2752  0.4593
  569TIP3   OH2 1712   3.209   0.521   4.524  0.3846 -0.1390 -0.3271
  569TIP3    H1 1713   3.202   0.551   4.614  0.2146  0.6604 -0.5993
  569TIP3    H2 1714   3.131   0.467   4.511  0.4282 -0.2878  0.0121
  570TIP3   OH2 1715   0.803   2.436   0.240 -0.2716  0.4850  0.2968
  570TIP3    H1 1716   0.849   2.495   0.300 -0.2756  0.5439  0.2422
  570TIP3    H2 1717   0.853   2.355   0.244  0.2604  0.7786 -0.3064
  571TIP3   OH2 1718   2.260   3.516   1.441  0.3484 -0.4498  0.4783
  571TIP3    H1 1719   2.266   3.422   1.425  1.0683 -0.3359  0.0571
  571TIP3    H2 1720   2.334   3.536   1.499 -0.5466 -0.3541  1.6328
  572TIP3   OH2 1721   2.867   3.466   3.678 -0.0035 -0.3703  0.2078
  572TIP3    H1 1722   2.895   3.382   3.716 -0.3637 -1.1767 -1.2339
  572TIP3    H2 1723   2.823   3.511   3.750  1.9904 -0.5036  1.6082
  573TIP3   OH2 1724   5.508   0.414   1.812  0.5282  1.1884 -0.6019
  573TIP3    H1 1725   5.471   0.456   1.889 -0.8195 -1.1524  0.1264
  573TIP3    H2 1726   5.598   0.391   1.838 -0.0993 -0.1110  0.5558
  574TIP3   OH2 1727   0.232   2.684   0.500 -0.2578  0.5856 -0.4186
  574TIP3    H1 1728   0.144   2.667   0.464 -0.9636  1.0349  1.0307
  574TIP3    H2 1729   0.217   2.706   0.591  1.1587  2.9617 -0.6826
  575TIP3   OH2 1730   2.529   1.289   4.572 -0.1558  0.0699 -0.3743
  575TIP3    H1 1731   2.509   1.196   4.560 -1.6787 -0.1285  2.7447
  575TIP3    H2 1732   2.452   1.334   4.537 -1.3970 -0.1450  1.9080
  576TIP3   OH2 1733   3.269   0.739   3.647  0.1796  0.7513  0.0312
  576TIP3    H1 1734   3.364   0.750   3.645  0.0578  1.8608 -1.5789
  576TIP3    H2 1735   3.236   0.804   3.585 -1.6232  0.2147  0.3695
  577TIP3   OH2 1736   3.679   0.352   4.411 -0.2118 -0.2800  0.4442
  577TIP3    H1 1737   3.748   0.302   4.368 -0.4968 -1.1794  1.0069
  577TIP3    H2 1738   3.636   0.400   4.340  0.9765  0.2994  0.0869
  578TIP3   OH2 1739   2.744   0.802   5.091  0.2158 -0.7696  0.3349
  578TIP3    H1 1740   2.733   0.820   4.997  1.0551  0.2532  0.4074
  578TIP3    H2 1741   2.710   0.880   5.134  0.4279 -0.9574  0.8517
  579TIP3   OH2 1742   1.771   4.625   0.175 -0.2031 -0.5589 -0.0175
  579TIP3    H1 1743   1.826   4.703   0.162  0.1780 -0.7893  0.2095
  579TIP3    H2 1744   1.823   4.569   0.232 -1.6281  0.1876  2.1219
  580TIP3   OH2 1745   0.892   0.042   4.960 -0.8720  0.4525 -0.2091
  580TIP3    H1 1746   0.862   0.132   4.947  0.0948  0.9326  0.6868
  580TIP3    H2 1747   0.846  -0.009   4.894 -4.9882  0.7927  2.0968
  581TIP3   OH2 1748   4.493   0.371   3.642  0.2125 -0.1948 -0.3587
  581TIP3    H1 1749   4.545   0.399   3.567  0.7663 -0.9001 -0.2455
  581TIP3    H2 1750   4.403   0.370   3.610  0.5734 -1.7991 -1.4351
  582TIP3   OH2 1751   2.148   4.856   4.719 -0.1119  0.1599 -0.2243
  582TIP3    H1 1752   2.179   4.767   4.735 -1.3653 -0.2092  0.2420
  582TIP3    H2 1753   2.169   4.904   4.799  2.5842  0.9251 -1.2622
  583TIP3   OH2 1754   4.589   2.263   3.712  0.5890  0.4155 -0.2409
  583TIP3    H1 1755   4.588   2.242   3.805  0.9281  1.9743  0.1525
  583TIP3    H2 1756   4.674   2.233   3.681  0.6035  0.1752  0.0254
  584TIP3   OH2 1757   1.315   3.161   0.396  0.2065  0.0754 -0.0343
  584TIP3    H1 1758   1.353   3.248   0.409 -0.1331  0.3179 -0.5770
  584TIP3    H2 1759   1.241   3.177   0.336 -0.9776 -0.3134  1.2713
  585TIP3   OH2 1760   2.628   4.759   3.069 -0.1624  0.2216  0.6590
  585TIP3    H1 1761   2.591   4.673   3.087 -0.5962  0.1857 -0.3716
  585TIP3    H2 1762   2.555   4.820   3.078 -0.0086  0.4074  0.6809
  586TIP3   OH2 1763   5.717   4.982   0.061 -0.3273  0.6130  0.0945
  586TIP3    H1 1764   5.684   4.893   0.049 -0.9778  0.5413  2.0198
  586TIP3    H2 1765   5.750   5.007  -0.025 -1.9161 -0.7508 -0.9903
  587TIP3   OH2 1766   2.288   0.141   0.082  0.2746  0.6571 -0.0323
  587TIP3    H1 1767   2.243   0.078   0.026 -1.2441  2.0628 -0.4913
  587TIP3    H2 1768   2.370   0.098   0.107 -0.7182 -1.4697 -0.2773
  588TIP3   OH2 1769   3.781   2.915   2.625  0.4816  0.4498 -0.3317
  588TIP3    H1 1770   3.843   2.862   2.675  1.1442  1.9473  0.4904
  588TIP3    H2 1771   3.743   2.854   2.561  0.7432 -1.1444  0.9785
  589TIP3   OH2 1772   1.685   2.750   1.437  0.0704  0.6675 -0.0321
  589TIP3    H1 1773   1.766   2.739   1.387 -1.0705 -1.0712 -1.6082
  589TIP3    H2 1774   1.636   2.816   1.389  0.1637  1.0769  0.4271
  590TIP3   OH2 1775   4.662   4.438   1.911  0.1110  0.5232  0.3717
  590TIP3    H1 1776   4.751   4.409   1.889 -0.0232  0.0731  0.4155
  590TIP3    H2 1777   4.673   4.493   1.989  0.3238  0.2760  0.5167
  591TIP3   OH2 1778   1.709   1.810   0.078 -0.3602 -0.0539  0.0265
  591TIP3    H1 1779   1.696   1.863   0.157  0.7228 -1.4078  1.1709
  591TIP3    H2 1780   1.621   1.788   0.049 -0.8794  2.6534 -0.7448
  592TIP3   OH2 1781   0.278   5.796   2.032  0.4163 -0.2860  0.1110
  592TIP3    H1 1782   0.371   5.772   2.037  0.2552 -1.0308 -0.4363
  592TIP3    H2 1783   0.235   5.739   2.095  0.1542 -0.8465 -0.5659
  593TIP3   OH2 1784   0.589   2.002   2.549  0.2752  0.9629  0.1050
  593TIP3    H1 1785   0.545   1.979   2.631  0.7779  0.3573  0.2194
  593TIP3    H2 1786   0.519   2.032   2.492 -0.4022 -0.5907  0.0586
  594TIP3   OH2 1787   2.947   1.834   3.496  0.1280  0.0568  0.1206
  594TIP3    H1 1788   2.923   1.922   3.468 -1.4620 -0.1684  0.6831
  594TIP3    H2 1789   2.959   1.841   3.591  1.7030  0.0106 -0.0514
  595TIP3   OH2 1790   5.471   3.050   2.133 -0.1125 -0.2304  0.0591
  595TIP3    H1 1791   5.503   3.069   2.221 -0.6894 -1.3448  0.5194
  595TIP3    H2 1792   5.548   3.019   2.086  0.3093  0.8544  0.0057
  596TIP3   OH2 1793   2.024   1.295   0.489 -0.3643 -0.5236  0.0991
  596TIP3    H1 1794   2.063   1.210   0.468  2.0920 -0.0496  2.2506
  596TIP3    H2 1795   1.960   1.275   0.557  0.7831 -0.6010  1.1804
  597TIP3   OH2 1796   6.131   2.621   1.956 -0.0308 -0.1753  0.3090
  597TIP3    H1 1797   6.172   2.679   1.891 -1.0756 -0.6244 -0.7951
  597TIP3    H2 1798   6.163   2.652   2.040  0.0919  1.4738 -0.3185
  598TIP3   OH2 1799   4.249   2.622   1.129 -0.0908  0.0089 -0.0457
  598TIP3    H1 1800   4.191   2.689   1.094  0.4799 -0.0665 -1.2049
  598TIP3    H2 1801   4.257   2.642   1.222  0.8894  2.2105 -0.5364
  599TIP3   OH2 1802   2.859   3.709   3.526 -0.4144 -0.0423 -0.2603
  599TIP3    H1 1803   2.817   3.626   3.550  0.7525 -0.1855  1.5051
  599TIP3    H2 1804   2.950   3.684   3.506 -0.0690  0.7769  0.2301
  600TIP3   OH2 1805   2.112   4.901   3.637  0.3899 -0.3323 -0.3355
  600TIP3    H1 1806   2.105   4.871   3.546  0.3008  0.8076 -0.7159
  600TIP3    H2 1807   2.053   4.844   3.685 -0.7201  0.0142 -1.2438
  601TIP3   OH2 1808   6.080   0.016   5.159 -0.4120 -0.3677  0.0259
  601TIP3    H1 1809   6.159   0.053   5.200  0.4839 -1.7209 -0.4123
  601TIP3    H2 1810   6.090   0.036   5.066 -1.2103  0.5030  0.1066
  602TIP3   OH2 1811   3.539   4.038   2.070 -0.8664 -0.1072  0.1791
  602TIP3    H1 1812   3.461   3.985   2.085  0.7580 -2.7815 -0.1941
  602TIP3    H2 1813   3.591   4.028   2.150  0.7092 -1.4711 -0.9271
  603TIP3   OH2 1814   2.717   3.334   0.662  0.5964 -0.3205 -0.5602
  603TIP3    H1 1815   2.702   3.255   0.612  0.5344 -0.3774 -0.4525
  603TIP3    H2 1816   2.716   3.305   0.754 -2.1293  0.2097 -0.3359
  604TIP3   OH2 1817   2.671   1.178   1.405 -0.8123 -0.4064 -0.0133
  604TIP3    H1 1818   2.660   1.269   1.433  0.1459 -1.1385  3.1549
  604TIP3    H2 1819   2.583   1.141   1.410 -1.3455  0.4502 -2.0611
  605TIP3   OH2 1820   4.592   1.767   0.294  0.0031  0.4903  0.0902
  605TIP3    H1 1821   4.549   1.837   0.245 -0.1901  0.6717  0.5114
  605TIP3    H2 1822   4.565   1.686   0.250 -1.5931  0.5229  0.9340
  606TIP3   OH2 1823   2.060   4.510   0.977  0.0543  0.0924  0.1255
  606TIP3    H1 1824   2.004   4.437   1.006 -1.9334  0.5764 -2.2153
  606TIP3    H2 1825   2.066   4.567   1.053 -0.3145 -1.3338  1.2747
  607TIP3   OH2 1826   5.572   5.742   3.495  0.1960  0.3944 -0.2431
  607TIP3    H1 1827   5.625   5.664   3.512  0.8880  0.6218 -1.2159
  607TIP3    H2 1828   5.534   5.765   3.579 -0.0180 -0.9926  0.0596
  608TIP3   OH2 1829   1.583   5.793   3.270 -0.1484 -0.0249 -0.2063
  608TIP3    H1 1830   1.538   5.802   3.354 -1.6443 -1.5682 -0.7987
  608TIP3    H2 1831   1.527   5.735   3.219  0.3702  1.4049 -2.5331
  609TIP3   OH2 1832   1.808   1.033   4.001 -0.0193  0.6623 -0.5812
  609TIP3    H1 1833   1.883   1.074   4.044  1.1030 -0.7028 -1.1568
  609TIP3    H2 1834   1.786   0.959   4.057  0.1033  0.1128 -1.2549
  610TIP3   OH2 1835   5.887   0.530   1.746  0.2774  0.5375  0.1105
  610TIP3    H1 1836   5.970   0.487   1.725  1.7645  3.6442 -1.0465
  610TIP3    H2 1837   5.912   0.615   1.782 -2.3802  1.8854 -0.9003
  611TIP3   OH2 1838   0.516   2.121   2.029  0.2059 -0.2609  0.1575
  611TIP3    H1 1839   0.463   2.198   2.050 -0.2128 -0.8279  1.2442
  611TIP3    H2 1840   0.595   2.157   1.989 -0.4514  0.6701 -0.3528
  612TIP3   OH2 1841   3.042   3.383   4.326 -0.5652 -0.0533  0.0384
  612TIP3    H1 1842   3.010   3.437   4.253 -0.8119  0.3087  0.4142
  612TIP3    H2 1843   3.021   3.293   4.299  0.0446  0.0080 -0.6860
  613TIP3   OH2 1844   1.230   4.032   3.654  0.1452  0.3620  0.1827
  613TIP3    H1 1845   1.158   3.994   3.703  0.8738 -0.1095  0.9013
  613TIP3    H2 1846   1.254   3.965   3.590 -0.3003  0.6747 -0.3227
  614TIP3   OH2 1847   5.206   5.339   1.682 -0.5783  0.0122 -0.2261
  614TIP3    H1 1848   5.186   5.269   1.619 -1.5824 -0.1505  0.2520
  614TIP3    H2 1849   5.162   5.416   1.646 -2.0868 -0.3309  0.7982
  615TIP3   OH2 1850   4.556   3.652   1.013 -0.2468 -0.1765  0.3560
  615TIP3    H1 1851   4.579   3.716   1.080  0.7608  1.2744 -1.2998
  615TIP3    H2 1852   4.638   3.637   0.965 -0.8222 -1.5556 -0.2674
  616TIP3   OH2 1853   5.933   3.865   1.482  0.3183  0.2361  0.4919
  616TIP3    H1 1854   5.870   3.830   1.420  0.5244  0.9263 -0.1277
  616TIP3    H2 1855   5.880   3.897   1.555 -0.1222  1.2838 -0.2491
  617TIP3   OH2 1856   4.808   4.094   2.842  0.1684 -0.0437  0.2822
  617TIP3    H1 1857   4.761   4.012   2.856 -0.4826  0.6632  2.6926
  617TIP3    H2 1858   4.765   4.134   2.767 -1.0999 -0.7912  0.5832
  618TIP3   OH2 1859   3.013   5.930   4.087  0.4855  0.1730 -0.3454
  618TIP3    H1 1860   2.950   6.000   4.104 -0.1858 -0.4530 -0.2407
  618TIP3    H2 1861   2.982   5.887   4.008  0.4241 -0.5342  0.0560
  619TIP3   OH2 1862   1.849   3.530   3.982  0.1343 -0.2530 -0.1030
  619TIP3    H1 1863   1.925   3.516   4.038  0.2743 -0.9600 -0.4522
  619TIP3    H2 1864   1.852   3.457   3.919 -0.2197  0.3244 -0.7998
  620TIP3   OH2 1865   5.649   1.869   1.592  0.2681  0.2756  0.1057
  620TIP3    H1 1866   5.680   1.940   1.537  0.6514  0.6716  0.8133
  620TIP3    H2 1867   5.590   1.819   1.536 -0.5120  1.5139 -0.2178
  621TIP3   OH2 1868   3.182   5.216   4.807  0.4182  0.1117  0.5992
  621TIP3    H1 1869   3.116   5.280   4.780 -1.0507 -1.5980 -0.0366
  621TIP3    H2 1870   3.197   5.235   4.900  0.1712  1.4738  0.3858
  622TIP3   OH2 1871   3.678   1.085   1.613  0.0014 -0.2714  0.1250
  622TIP3    H1 1872   3.628   1.100   1.533  1.2142  0.2370 -0.5763
  622TIP3    H2 1873   3.752   1.032   1.585 -0.2910 -1.2713  1.1961
  623TIP3   OH2 1874   3.308   4.487   3.388 -0.1131 -0.6622  0.2125
  623TIP3    H1 1875   3.322   4.422   3.319 -0.1690 -1.4255  0.9118
  623TIP3    H2 1876   3.389   4.538   3.389  0.1164 -1.0148 -0.0314
  624TIP3   OH2 1877   4.508   0.962   0.091 -0.4590  0.3814 -0.1430
  624TIP3    H1 1878   4.475   0.898   0.027  2.2571 -1.1703 -0.1310
  624TIP3    H2 1879   4.504   1.046   0.045  0.0480 -0.4732 -1.8298
  625TIP3   OH2 1880   5.602   0.826   2.718  0.2670 -0.4990 -0.5051
  625TIP3    H1 1881   5.528   0.766   2.730  1.6698 -2.7033 -2.0785
  625TIP3    H2 1882   5.580   0.875   2.639 -0.1227 -0.1462 -0.1814
  626TIP3   OH2 1883   0.370   5.812   1.046 -0.2655  0.3823 -0.2471
  626TIP3    H1 1884   0.317   5.860   0.983 -0.2929 -1.3570 -1.6105
  626TIP3    H2 1885   0.457   5.810   1.008 -0.3621 -0.9922 -0.4476
  627TIP3   OH2 1886   1.035   0.914   4.257 -0.3181  0.0594  0.0822
  627TIP3    H1 1887   1.007   1.000   4.227 -0.5423  0.3125  0.9751
  627TIP3    H2 1888   0.959   0.858   4.245 -0.4701  0.2058  0.3523
  628TIP3   OH2 1889   1.472   2.624   4.454  0.1511 -0.1471 -0.4974
  628TIP3    H1 1890   1.500   2.534   4.465  2.1780  0.4406 -0.4530
  628TIP3    H2 1891   1.468   2.660   4.543 -3.1729 -0.8043 -0.2454
  629TIP3   OH2 1892   5.634   0.543   1.588 -0.1356  0.3562  0.0570
  629TIP3    H1 1893   5.583   0.496   1.654  0.2337  0.1187  0.1747
  629TIP3    H2 1894   5.719   0.558   1.630  0.0272  0.3892 -0.2880
  630TIP3   OH2 1895   4.712   4.462   0.278 -0.4214 -0.1764 -0.2871
  630TIP3    H1 1896   4.775   4.532   0.261 -2.3845  1.8282  0.1847
  630TIP3    H2 1897   4.762   4.398   0.330  1.5767  0.6241 -1.0970
  631TIP3   OH2 1898   0.051   5.417   2.043  0.1119  0.1656  0.6341
  631TIP3    H1 1899   0.103   5.497   2.055 -0.8148  0.6860  1.3171
  631TIP3    H2 1900   0.092   5.353   2.102 -0.1316  0.6308  1.3214
  632TIP3   OH2 1901   6.236   4.063   3.859  0.0634  0.8310 -0.2164
  632TIP3    H1 1902   6.191   3.983   3.889 -0.6372  0.7884 -1.3278
  632TIP3    H2 1903   6.174   4.104   3.799  1.5057  0.7533 -1.8313
  633TIP3   OH2 1904   3.190   3.315   1.868  0.3804  0.5732  0.1837
  633TIP3    H1 1905   3.190   3.254   1.794  3.1091  0.9946 -0.2925
  633TIP3    H2 1906   3.235   3.393   1.834 -0.8996  1.9492  1.4732
  634TIP3   OH2 1907   5.747   1.893   2.206 -0.3200  0.6121  0.3993
  634TIP3    H1 1908   5.795   1.905   2.288  0.5866 -0.3223  0.0400
  634TIP3    H2 1909   5.805   1.929   2.139 -0.6117  0.4777  0.0704
  635TIP3   OH2 1910   3.485   0.831   5.025 -0.7178 -0.1416 -0.3261
  635TIP3    H1 1911   3.570   0.793   5.048 -1.5773 -2.3543 -0.5855
  635TIP3    H2 1912   3.508   0.911   4.977  1.1675  0.2847  1.1398
  636TIP3   OH2 1913   0.119   3.444   3.577  0.1742 -0.2021  0.0655
  636TIP3    H1 1914   0.038   3.484   3.544 -0.2213 -0.8126  0.2871
  636TIP3    H2 1915   0.173   3.430   3.499  0.4914  1.1286  0.0220
  637TIP3   OH2 1916   1.254   0.278   4.941  0.5269  0.5878 -0.1707
  637TIP3    H1 1917   1.223   0.262   4.852  0.4515  1.3299 -0.2818
  637TIP3    H2 1918   1.305   0.358   4.935  0.2384  0.8291  0.5153
  638TIP3   OH2 1919   4.413   3.020   0.367  0.4367 -0.0721 -0.0022
  638TIP3    H1 1920   4.455   3.106   0.374  0.5006 -0.1724  0.9925
  638TIP3    H2 1921   4.327   3.033   0.407 -0.3646  0.0421 -1.7052
  639TIP3   OH2 1922   3.214   4.783   0.207 -0.3606  0.2684  0.0173
  639TIP3    H1 1923   3.272   4.787   0.131 -0.7359 -3.0197 -0.5891
  639TIP3    H2 1924   3.135   4.830   0.179 -0.2433 -0.3225 -1.3943
  640TIP3   OH2 1925   2.985   1.457   2.969  0.2108  0.1298 -0.5231
  640TIP3    H1 1926   2.990   1.396   2.895 -0.3804 -0.4272 -0.1142
  640TIP3    H2 1927   3.046   1.528   2.946  1.0068 -0.6752 -0.9412
  641TIP3   OH2 1928   4.893   3.840   0.340 -0.1253 -0.0313  0.6018
  641TIP3    H1 1929   4.896   3.748   0.368  3.1813 -0.4626 -0.6869
  641TIP3    H2 1930   4.943   3.887   0.406 -0.2976  0.5375  0.3290
  642TIP3   OH2 1931   2.116   4.937   2.134 -0.1008 -0.6024 -0.2638
  642TIP3    H1 1932   2.063   4.861   2.155 -0.5474 -0.7135 -1.6791
  642TIP3    H2 1933   2.203   4.902   2.114 -0.0108 -0.6173  0.1391
  643TIP3   OH2 1934   5.611   1.040   2.885 -0.1194 -0.4489  0.4211
  643TIP3    H1 1935   5.590   0.973   2.821 -0.2775 -0.1160  0.1215
  643TIP3    H2 1936   5.704   1.028   2.904 -0.5941 -2.1420  1.9916
  644TIP3   OH2 1937   3.319   4.527   1.585  0.1422  0.2400 -0.0045
  644TIP3    H1 1938   3.306   4.437   1.556 -0.8958  0.2005  0.5183
  644TIP3    H2 1939   3.254   4.539   1.655 -1.0553  1.9750 -1.3212
  645TIP3   OH2 1940   0.034   3.755   0.975 -0.4476  0.3858  0.1415
  645TIP3    H1 1941   0.069   3.666   0.975  1.0818  0.9501  0.4235
  645TIP3    H2 1942  -0.023   3.759   1.053  0.2422 -0.0717  0.6793
  646TIP3   OH2 1943   2.318   3.669   3.832 -0.3474  0.9456  0.3189
  646TIP3    H1 1944   2.249   3.690   3.895 -1.7540  0.3758 -0.9587
  646TIP3    H2 1945   2.311   3.738   3.766  0.1125  0.7139  0.0249
  647TIP3   OH2 1946   0.682   2.037   3.832 -0.1610 -0.0851 -0.7604
  647TIP3    H1 1947   0.604   2.070   3.877 -0.2538 -0.6245 -0.5207
  647TIP3    H2 1948   0.751   2.038   3.898  0.7695  2.8312 -1.5757
  648TIP3   OH2 1949   0.952   4.966   0.377  0.4694 -0.1572 -0.2536
  648TIP3    H1 1950   0.985   5.055   0.375 -0.9959  0.4128 -1.7348
  648TIP3    H2 1951   0.873   4.970   0.431  1.5819 -1.0620  1.5294
  649TIP3   OH2 1952   2.157   0.988   4.346  0.6226  0.1330 -0.5031
  649TIP3    H1 1953   2.205   0.911   4.317  0.0806  0.5616 -2.7667
  649TIP3    H2 1954   2.083   0.954   4.396 -0.1851 -0.9348 -2.3223
  650TIP3   OH2 1955   0.549   4.834   1.115  0.1129  0.0755  0.6531
  650TIP3    H1 1956   0.458   4.805   1.126  0.2993 -1.0747 -0.5188
  650TIP3    H2 1957   0.566   4.889   1.191 -1.0668 -0.9850  1.7449
  651TIP3   OH2 1958   2.692   3.743   0.231 -0.4226 -0.0475  0.2004
  651TIP3    H1 1959   2.779   3.750   0.271 -0.4057  0.3523  0.0971
  651TIP3    H2 1960   2.676   3.649   0.225  0.2404 -0.1386 -0.2977
  652TIP3   OH2 1961   2.514   5.128   3.312  0.2488 -0.1597  0.1384
  652TIP3    H1 1962   2.522   5.170   3.227  2.5027  1.0651  0.8748
  652TIP3    H2 1963   2.450   5.182   3.359  0.3879  0.2711 -0.1617
  653TIP3   OH2 1964   4.719   4.314   2.968 -0.1373  0.5539  0.2284
  653TIP3    H1 1965   4.731   4.314   3.063  1.8344  2.5162  0.0504
  653TIP3    H2 1966   4.770   4.240   2.938 -0.0677  0.4393  0.6209
  654TIP3   OH2 1967   3.089   2.059   1.154 -0.0300 -0.3139  0.2073
  654TIP3    H1 1968   3.014   2.030   1.102  2.6645 -3.9412 -2.1227
  654TIP3    H2 1969   3.066   2.036   1.244 -1.8851 -0.8267 -0.3595
  655TIP3   OH2 1970   1.529   0.034   3.430  0.2904  0.2605  0.1620
  655TIP3    H1 1971   1.609  -0.012   3.455  0.7215  2.0339  2.4389
  655TIP3    H2 1972   1.504  -0.003   3.346  3.9286  0.1514 -1.0171
  656TIP3   OH2 1973   1.670   0.354   4.399  0.0626 -0.4872 -0.4430
  656TIP3    H1 1974   1.668   0.441   4.439  0.3317  0.3555 -2.1742
  656TIP3    H2 1975   1.586   0.315   4.421 -0.1934  0.3435  0.0871
  657TIP3   OH2 1976   0.337   1.177   4.974  0.5975 -0.3536 -0.4111
  657TIP3    H1 1977   0.380   1.104   4.929  0.3910  0.2100 -1.5644
  657TIP3    H2 1978   0.388   1.190   5.054  1.5643 -0.7529 -0.9525
  658TIP3   OH2 1979   4.512   1.776   3.090 -0.4028  0.4315  0.0637
  658TIP3    H1 1980   4.445   1.711   3.112 -0.3278 -0.2790 -1.6980
  658TIP3    H2 1981   4.593   1.738   3.123  0.3554 -2.4855 -4.3961
  659TIP3   OH2 1982   5.828   4.107   0.084  0.3117  0.6611  0.2209
  659TIP3    H1 1983   5.908   4.076   0.127  0.0686  0.9535  0.8930
  659TIP3    H2 1984   5.757   4.067   0.134 -0.0357 -2.5060 -2.4236
  660TIP3   OH2 1985   0.366   2.502   1.828 -0.0273 -0.0999  0.0277
  660TIP3    H1 1986   0.337   2.534   1.913 -0.6999  1.5634 -0.7915
  660TIP3    H2 1987   0.286   2.484   1.780  0.3388 -0.0558 -0.6108
  661TIP3   OH2 1988   5.590   1.153   0.596 -0.5401  0.6185  0.0572
  661TIP3    H1 1989   5.517   1.117   0.547  0.1354 -1.5832  0.5576
  661TIP3    H2 1990   5.628   1.219   0.538 -0.2039 -1.3735 -2.1314
  662TIP3   OH2 1991   6.039   4.431   1.569  0.3600 -0.5677 -0.2424
  662TIP3    H1 1992   6.134   4.424   1.572  0.4274 -2.7001 -3.0183
  662TIP3    H2 1993   6.008   4.358   1.623  0.3602 -0.7505 -0.4849
  663TIP3   OH2 1994   4.060   0.217   4.443 -0.0979 -0.0662  0.2686
  663TIP3    H1 1995   4.036   0.310   4.445 -0.5260 -0.1781  0.4757
  663TIP3    H2 1996   4.152   0.216   4.468  0.5715  0.5063 -1.9722
  664TIP3   OH2 1997   3.786   3.930   1.394  0.4014 -0.1761 -0.0613
  664TIP3    H1 1998   3.857   3.989   1.418 -0.6213  0.8684  0.4924
  664TIP3    H2 1999   3.738   3.916   1.475 -1.0520  0.5536 -0.7649
  665TIP3   OH2 2000   3.420   2.424   4.979  0.0816  0.5733  0.0875
  665TIP3    H1 2001   3.371   2.380   4.910  0.9047 -3.1690  1.6419
  665TIP3    H2 2002   3.384   2.390   5.061  1.1075  2.5764  1.4771
  666TIP3   OH2 2003   4.058   2.288   3.325 -0.1555 -1.0453  0.1292
  666TIP3    H1 2004   4.145   2.328   3.323 -0.2288 -0.8654 -1.4457
  666TIP3    H2 2005   4.074   2.195   3.307 -0.0731 -1.5943  2.7642
  667TIP3   OH2 2006   2.885   4.257   0.268 -0.3390  0.0276 -0.1783
  667TIP3    H1 2007   2.814   4.234   0.208 -0.7805  0.4024  0.1894
  667TIP3    H2 2008   2.964   4.246   0.216 -0.4151 -3.0047  0.1644
  668TIP3   OH2 2009   3.431   5.502   2.660 -0.0131 -0.1276 -0.1640
  668TIP3    H1 2010   3.357   5.459   2.702  0.0662  0.0547  0.1600
  668TIP3    H2 2011   3.401   5.591   2.642 -0.3093 -0.4168 -1.1820
  669TIP3   OH2 2012   2.944   5.092   0.121  0.0330 -0.0204  0.2651
  669TIP3    H1 2013   3.037   5.108   0.135  0.2229 -1.0416  0.2400
  669TIP3    H2 2014   2.914   5.167   0.070  1.0851 -0.2212 -0.6876
  670TIP3   OH2 2015   3.472   5.803   3.688  0.6587 -0.2080 -0.5910
  670TIP3    H1 2016   3.564   5.812   3.662  1.5541 -0.3208  2.2325
  670TIP3    H2 2017   3.470   5.725   3.744 -0.4625  1.6261  2.0856
  671TIP3   OH2 2018   4.047   3.389   0.663 -0.6447  0.0875  0.2115
  671TIP3    H1 2019   4.113   3.438   0.712  0.3126  1.1386 -1.9755
  671TIP3    H2 2020   4.029   3.444   0.586 -1.7781 -1.6223 -0.8047
  672TIP3   OH2 2021   5.500   4.220   2.671 -0.1465  0.0988  0.2269
  672TIP3    H1 2022   5.502   4.186   2.761 -0.3064  1.4056  0.7542
  672TIP3    H2 2023   5.574   4.281   2.667 -0.0338 -0.0825 -0.5939
  673TIP3   OH2 2024   4.684   5.906   2.281  0.4424 -0.2973 -0.2461
  673TIP3    H1 2025   4.758   5.898   2.342 -1.6808 -0.6192  2.5299
  673TIP3    H2 2026   4.684   5.998   2.255  1.1698 -0.0132  0.6922
  674TIP3   OH2 2027   2.304   5.668   3.434  0.0004  0.3721  0.4643
  674TIP3    H1 2028   2.296   5.757   3.469 -0.0428  0.0602  1.2786
  674TIP3    H2 2029   2.227   5.622   3.469  0.8531 -0.4054  1.3783
  675TIP3   OH2 2030   2.775   1.489   2.313  0.8059  0.1187  0.4318
  675TIP3    H1 2031   2.869   1.502   2.323  0.9512  0.3493 -1.0328
  675TIP3    H2 2032   2.736   1.537   2.386  1.8062  0.0729  1.0123
  676TIP3   OH2 2033   5.618   4.984   1.733  0.1514 -0.0898 -0.0151
  676TIP3    H1 2034   5.539   4.993   1.785 -0.8729 -1.2263 -1.3178
  676TIP3    H2 2035   5.588   4.986   1.642  1.4769 -1.4434 -0.5338
  677TIP3   OH2 2036   3.972   0.122   3.484 -0.2269  0.3355 -0.4858
  677TIP3    H1 2037   3.941   0.198   3.534 -0.6293 -0.8934  1.2081
  677TIP3    H2 2038   4.066   0.136   3.476 -0.3714  1.2736 -0.6564
  678TIP3   OH2 2039   0.654   4.189   0.983  0.2354  0.3485  0.5357
  678TIP3    H1 2040   0.703   4.269   0.998 -1.1957  1.3601  0.0879
  678TIP3    H2 2041   0.597   4.181   1.059  0.5668 -0.4100  0.7124
  679TIP3   OH2 2042   0.329   4.410   1.080 -0.0609  0.1071  0.1741
  679TIP3    H1 2043   0.254   4.411   1.019 -1.6303 -0.1694  1.9978
  679TIP3    H2 2044   0.299   4.460   1.156  1.7598  0.2808  0.8235
  680TIP3   OH2 2045   5.799   2.431   4.606  0.0787  0.0317  0.0177
  680TIP3    H1 2046   5.746   2.444   4.684  2.0729 -1.3656  1.7008
  680TIP3    H2 2047   5.739   2.448   4.533 -2.4379 -0.7137  1.7871
  681TIP3   OH2 2048   3.045   5.887   2.792 -0.3536  0.5268  0.3537
  681TIP3    H1 2049   3.065   5.945   2.865  2.9341  0.6976 -0.5027
  681TIP3    H2 2050   3.122   5.829   2.785 -1.2464 -0.5249 -1.9567
  682TIP3   OH2 2051   6.154   3.215   4.685 -0.7134 -0.0483 -0.1018
  682TIP3    H1 2052   6.204   3.292   4.713 -0.4117 -0.6250  1.0102
  682TIP3    H2 2053   6.088   3.250   4.626  0.0897  0.9258 -0.4672
  683TIP3   OH2 2054   0.832   1.520   1.669 -0.1058  0.2033 -0.1070
  683TIP3    H1 2055   0.756   1.529   1.611 -0.9610 -4.2793 -0.0403
  683TIP3    H2 2056   0.907   1.543   1.614 -1.1761 -0.4422 -1.9169
  684TIP3   OH2 2057   4.951   1.056   0.991 -0.7855  0.1095  0.0621
  684TIP3    H1 2058   5.003   0.979   0.970  1.1476  1.6090 -0.9369
  684TIP3    H2 2059   4.864   1.021   1.010  0.6422 -2.5866  2.4505
  685TIP3   OH2 2060   1.984   3.377   1.778 -0.4332  0.5731 -0.0686
  685TIP3    H1 2061   1.982   3.342   1.688  1.4518 -0.5763  0.2743
  685TIP3    H2 2062   2.049   3.446   1.775 -0.5246  0.6787  0.3775
  686TIP3   OH2 2063   2.587   0.095   3.952  0.8176  0.2466 -0.5091
  686TIP3    H1 2064   2.511   0.039   3.937  0.7856  0.2508 -0.3572
  686TIP3    H2 2065   2.662   0.042   3.923  0.6788  0.5714 -1.5104
  687TIP3   OH2 2066   1.853   5.838   0.239 -0.2066 -0.2124 -0.6127
  687TIP3    H1 2067   1.903   5.762   0.210  0.3875 -0.5155  1.1363
  687TIP3    H2 2068   1.787   5.850   0.170  1.5925 -0.4074 -2.4708
  688TIP3   OH2 2069   6.294   2.292   4.015  0.2499  0.2660  0.2294
  688TIP3    H1 2070   6.296   2.224   3.947 -0.7937 -0.0631  0.5081
  688TIP3    H2 2071   6.210   2.335   4.002 -0.1828 -0.1322  1.6393
  689TIP3   OH2 2072   4.827   2.767   2.819 -0.7365 -0.0281  0.2195
  689TIP3    H1 2073   4.799   2.823   2.746 -0.1127  0.0510  0.0290
  689TIP3    H2 2074   4.906   2.809   2.852  0.5080 -1.4625 -0.7625
  690TIP3   OH2 2075   5.461   0.778   1.524 -0.0204  0.2204 -0.7062
  690TIP3    H1 2076   5.405   0.720   1.471 -1.0864  0.4706  0.1190
  690TIP3    H2 2077   5.483   0.726   1.601  2.6424 -0.6440 -1.8975
  691TIP3   OH2 2078   5.231   5.604   2.615  0.3944 -0.5528 -0.2258
  691TIP3    H1 2079   5.194   5.545   2.549 -0.2443  0.5676 -0.8977
  691TIP3    H2 2080   5.278   5.670   2.565  1.8858 -0.9800  0.5572
  692TIP3   OH2 2081   4.908   4.649   0.257 -0.2416 -0.5652  0.3380
  692TIP3    H1 2082   5.003   4.661   0.250 -0.2428 -0.7426 -0.0196
  692TIP3    H2 2083   4.871   4.717   0.200 -0.3511 -0.1108  0.9391
  693TIP3   OH2 2084   6.017   0.143   0.052 -0.0741 -0.7341 -0.2440
  693TIP3    H1 2085   6.062   0.079   0.108  0.5842  0.4564  0.6312
  693TIP3    H2 2086   6.087   0.183   0.001 -0.2915  0.1773  0.1523
  694TIP3   OH2 2087   1.771   3.898   4.628  0.1441 -0.2534 -0.0469
  694TIP3    H1 2088   1.700   3.837   4.608  0.0916 -0.2367  0.0814
  694TIP3    H2 2089   1.806   3.867   4.712  1.8275 -1.6612 -1.2176
  695TIP3   OH2 2090   1.576   4.049   1.349 -0.5198 -0.3009 -0.8807
  695TIP3    H1 2091   1.559   3.999   1.270 -0.2061 -2.2065  0.2048
  695TIP3    H2 2092   1.494   4.044   1.398 -1.2390  2.1340 -1.6554
  696TIP3   OH2 2093   5.172   2.619   2.372  0.1170 -0.0154 -0.4519
  696TIP3    H1 2094   5.106   2.654   2.312  0.4729  0.7530 -0.4121
  696TIP3    H2 2095   5.232   2.692   2.386  1.0149 -0.7224 -0.5365
  697TIP3   OH2 2096   1.414   5.636   0.150  0.0515 -0.3949 -0.3235
  697TIP3    H1 2097   1.409   5.548   0.189 -0.9689 -0.4996 -0.6463
  697TIP3    H2 2098   1.355   5.631   0.074  1.3798  0.0443 -1.4134
  698TIP3   OH2 2099   4.778   1.045   4.062 -0.1468  0.2258  0.1766
  698TIP3    H1 2100   4.859   1.095   4.068  0.4572 -0.7989  0.8277
  698TIP3    H2 2101   4.740   1.053   4.150 -0.5224  0.3121  0.0075
  699TIP3   OH2 2102   4.726   5.550   0.695  0.2568 -0.4678  0.1107
  699TIP3    H1 2103   4.675   5.559   0.615 -0.3968 -1.0443  0.4523
  699TIP3    H2 2104   4.706   5.462   0.727  0.2570 -0.1320  1.0809
  700TIP3   OH2 2105   4.266   4.983   4.680 -0.8738 -0.1593 -0.0474
  700TIP3    H1 2106   4.201   5.011   4.616 -1.9797  0.6874  1.3950
  700TIP3    H2 2107   4.234   5.016   4.764  2.6132  2.5094  0.4789
  701TIP3   OH2 2108   5.708   4.344   3.094 -0.3882  0.0305 -0.2419
  701TIP3    H1 2109   5.798   4.377   3.090 -0.1508  0.2624  3.6366
  701TIP3    H2 2110   5.710   4.262   3.045  2.5290 -1.0027  1.3900
  702TIP3   OH2 2111   5.861   4.695   3.593 -0.2550  0.0552 -0.0726
  702TIP3    H1 2112   5.897   4.610   3.614 -1.0952 -0.7439 -1.6503
  702TIP3    H2 2113   5.766   4.684   3.603 -0.3825  0.7354 -0.4591
  703TIP3   OH2 2114   4.127   3.069   2.575  0.2021  0.1141 -0.3716
  703TIP3    H1 2115   4.091   2.997   2.627 -1.5051  2.5105  2.0721
  703TIP3    H2 2116   4.189   3.028   2.516 -1.9411 -3.5469 -0.3373
  704TIP3   OH2 2117   4.053   1.630   1.615  0.1638 -0.0834  0.1045
  704TIP3    H1 2118   4.077   1.560   1.676  1.1698  1.0233  1.0168
  704TIP3    H2 2119   4.003   1.692   1.667 -0.8782 -0.1729 -0.7436
  705TIP3   OH2 2120   2.379   0.739   5.147  0.2046  0.8911  0.2791
  705TIP3    H1 2121   2.397   0.821   5.100 -0.3571  1.0921  0.4111
  705TIP3    H2 2122   2.309   0.762   5.209 -2.0528 -0.3539 -1.6620
  706TIP3   OH2 2123   3.442   5.232   1.371 -0.2855  0.6969  0.0003
  706TIP3    H1 2124   3.496   5.158   1.399 -1.3722  0.5844  1.9366
  706TIP3    H2 2125   3.352   5.199   1.377 -0.7107  1.6749 -0.7224
  707TIP3   OH2 2126   3.223   5.940   4.290 -0.5954  0.1450  0.6613
  707TIP3    H1 2127   3.161   5.980   4.230  0.1463 -0.0574 -0.2663
  707TIP3    H2 2128   3.288   5.897   4.233  0.1856  0.0383  1.5976
  708TIP3   OH2 2129   3.277   0.702   4.339 -0.6574  0.5492 -0.2546
  708TIP3    H1 2130   3.218   0.689   4.265 -0.6085 -0.4656 -0.1395
  708TIP3    H2 2131   3.263   0.624   4.394  0.8791  0.2089 -0.3024
  709TIP3   OH2 2132   2.608   4.935   0.770  0.0741 -0.7666  0.3426
  709TIP3    H1 2133   2.657   4.971   0.696  0.8126 -1.0939  0.6561
  709TIP3    H2 2134   2.529   4.897   0.731  1.2640 -2.5022 -0.5288
  710TIP3   OH2 2135   3.107   2.191   3.429 -0.3579 -0.4699  0.1390
  710TIP3    H1 2136   3.013   2.202   3.441 -0.8496 -1.8034 -2.0556
  710TIP3    H2 2137   3.130   2.252   3.359  0.7646  0.9226  1.6206
  711TIP3   OH2 2138   6.252   1.221   2.627  0.0272 -0.3034 -0.3205
  711TIP3    H1 2139   6.317   1.292   2.619  0.7692 -0.9280  0.0254
  711TIP3    H2 2140   6.168   1.267   2.636  0.5866  0.5739  0.8258
  712TIP3   OH2 2141   1.390   0.271   2.927 -0.0772 -0.1934 -0.0261
  712TIP3    H1 2142   1.463   0.271   2.865  0.2464 -0.5505  0.3469
  712TIP3    H2 2143   1.429   0.299   3.010 -0.5141  0.3201  0.0148
  713TIP3   OH2 2144   4.533   4.951   3.239  0.3296 -0.0196  0.1473
  713TIP3    H1 2145   4.512   4.880   3.179  1.4091 -0.9922  0.8772
  713TIP3    H2 2146   4.450   4.973   3.281 -0.0409 -0.7539 -0.1888
  714TIP3   OH2 2147   0.304   5.530   4.561 -0.1792 -0.2424  0.1147
  714TIP3    H1 2148   0.209   5.526   4.549 -0.4136  0.6179  1.5167
  714TIP3    H2 2149   0.320   5.492   4.647  0.8982 -1.4317 -0.5623
  715TIP3   OH2 2150   0.477   5.401   2.607 -0.1687 -0.0877  0.5491
  715TIP3    H1 2151   0.481   5.394   2.511  1.4951  0.2272  0.5762
  715TIP3    H2 2152   0.496   5.312   2.638  3.0663  0.5168  0.5991
  716TIP3   OH2 2153   2.683   2.585   1.142  0.1269 -0.1058 -0.5288
  716TIP3    H1 2154   2.699   2.676   1.118 -1.2216  0.1843 -0.4280
  716TIP3    H2 2155   2.707   2.535   1.064  0.1525  0.4122 -0.8575
  717TIP3   OH2 2156   3.893   2.244   2.840 -0.1560 -0.0794  0.1691
  717TIP3    H1 2157   3.884   2.332   2.805 -0.2098 -0.1689 -0.0437
  717TIP3    H2 2158   3.828   2.239   2.910  1.6362  0.9623  2.0409
  718TIP3   OH2 2159   2.070   4.695   0.050 -0.2099 -0.9388 -0.1523
  718TIP3    H1 2160   2.121   4.647   0.116 -0.2687 -1.3408 -0.3988
  718TIP3    H2 2161   2.038   4.628  -0.009 -0.0064 -0.5570 -0.7041
  719TIP3   OH2 2162   4.305   3.242   4.760 -0.4077 -0.7369  0.5314
  719TIP3    H1 2163   4.385   3.194   4.784 -0.3268 -1.7681 -1.5312
  719TIP3    H2 2164   4.294   3.307   4.829  1.9311 -0.9014  1.1377
  720TIP3   OH2 2165   3.406   2.384   0.281  0.2206  0.3524 -0.0750
  720TIP3    H1 2166   3.488   2.353   0.319  0.5073 -0.4651 -1.2880
  720TIP3    H2 2167   3.429   2.464   0.235  0.2089  0.4667  0.1187
  721TIP3   OH2 2168   3.233   5.068   1.965 -0.1172 -0.3176 -0.4207
  721TIP3    H1 2169   3.198   5.036   2.048  2.1023 -1.4362  0.1910
  721TIP3    H2 2170   3.299   5.133   1.990 -0.4614  0.4212 -1.3885
  722TIP3   OH2 2171   5.481   0.103   4.468  0.3785  0.5689 -0.4927
  722TIP3    H1 2172   5.423   0.057   4.408  0.3359  0.6779 -0.5365
  722TIP3    H2 2173   5.422   0.159   4.520  0.4812  0.9537 -0.7878
  723TIP3   OH2 2174   3.782   0.039   4.597 -0.2960 -0.5544  0.4069
  723TIP3    H1 2175   3.822  -0.010   4.669 -0.2415 -0.1600  0.6463
  723TIP3    H2 2176   3.689   0.041   4.618 -0.1756  0.2980  0.9208
  724TIP3   OH2 2177   5.409   0.927   3.512  0.1158  0.2657  0.5082
  724TIP3    H1 2178   5.314   0.935   3.517  0.2790  1.8448  1.7689
  724TIP3    H2 2179   5.434   0.986   3.441  0.3255  1.9098  1.8846
  725TIP3   OH2 2180   1.698   5.474   0.071  0.0361 -0.2716 -0.0006
  725TIP3    H1 2181   1.617   5.474   0.022  0.7625 -0.9876 -1.2449
  725TIP3    H2 2182   1.765   5.502   0.008  0.4976  2.3403  1.5023
  726TIP3   OH2 2183   2.037   4.656   3.500  0.0922  0.2858  0.2279
  726TIP3    H1 2184   2.116   4.604   3.516  1.0363  1.4886 -0.3531
  726TIP3    H2 2185   2.010   4.685   3.587  2.3924  2.7884  0.2271
  727TIP3   OH2 2186   2.315   4.238   2.814  0.4332 -0.3020 -0.1113
  727TIP3    H1 2187   2.356   4.196   2.738  0.9452 -0.4425  0.2372
  727TIP3    H2 2188   2.324   4.173   2.884 -0.8942 -0.5649 -0.1677
  728TIP3   OH2 2189   6.294   3.119   0.494  0.2503  0.0946 -0.3068
  728TIP3    H1 2190   6.289   3.082   0.406 -0.9790 -0.6962  0.0605
  728TIP3    H2 2191   6.385   3.147   0.504  0.6437 -0.7096 -1.4717
  729TIP3   OH2 2192   5.014   4.638   0.639 -0.1972  0.0768 -0.2699
  729TIP3    H1 2193   4.980   4.553   0.667 -3.1773  0.1217 -3.1123
  729TIP3    H2 2194   4.969   4.702   0.693 -0.1992 -0.0645 -0.1048
  730TIP3   OH2 2195   1.769   1.473   0.574 -0.1092 -0.0828 -0.3525
  730TIP3    H1 2196   1.717   1.393   0.581 -0.5608  0.1589 -0.9127
  730TIP3    H2 2197   1.858   1.442   0.557 -0.3141 -0.4665 -0.7384
  731TIP3   OH2 2198   5.367   1.393   1.018  0.1492 -0.4380 -0.1107
  731TIP3    H1 2199   5.313   1.316   1.036 -0.1404  0.3517  2.8046
  731TIP3    H2 2200   5.454   1.369   1.050  0.8292 -0.5318 -1.8740
  732TIP3   OH2 2201   3.033   2.649   4.555  0.1128  0.2386 -0.3711
  732TIP3    H1 2202   3.034   2.729   4.608  0.8659 -0.5477  0.8761
  732TIP3    H2 2203   2.997   2.582   4.614 -0.4834 -0.3513 -1.3825
  733TIP3   OH2 2204   0.258   2.877   3.976 -0.3498 -0.1826  0.0296
  733TIP3    H1 2205   0.195   2.845   4.041  0.5089 -1.2185  0.3779
  733TIP3    H2 2206   0.343   2.870   4.020  0.2348 -0.7714 -1.1590
  734TIP3   OH2 2207   0.490   4.042   3.843 -0.3971 -0.4585 -0.0570
  734TIP3    H1 2208   0.528   4.101   3.908  1.8775 -1.7431 -0.1523
  734TIP3    H2 2209   0.556   3.975   3.829 -1.8703 -1.6305 -1.8517
  735TIP3   OH2 2210   3.416   4.708   2.880 -0.6077 -0.9297  0.4982
  735TIP3    H1 2211   3.352   4.778   2.893  1.6785  1.2597  0.7939
  735TIP3    H2 2212   3.435   4.675   2.968  0.6259  0.3650  0.7561
  736TIP3   OH2 2213   1.370   3.625   1.788 -0.1076  0.1528  0.2097
  736TIP3    H1 2214   1.293   3.646   1.840 -0.5825  0.6438 -0.6781
  736TIP3    H2 2215   1.396   3.708   1.749  1.1317  0.0779  0.8295
  737TIP3   OH2 2216   3.296   3.383   4.820  1.3401  0.3703 -0.1480
  737TIP3    H1 2217   3.250   3.326   4.758  1.7591  0.6872 -0.7575
  737TIP3    H2 2218   3.382   3.343   4.831  0.6401 -0.8118  1.8008
  738TIP3   OH2 2219   4.872   4.015   0.126 -0.3245 -0.1686  0.0100
  738TIP3    H1 2220   4.810   4.073   0.172  0.4872  1.8491 -1.3217
  738TIP3    H2 2221   4.885   3.942   0.187 -1.5251  0.9439  1.7120
  739TIP3   OH2 2222   1.528   4.250   4.960  0.1327  0.4953  0.0505
  739TIP3    H1 2223   1.504   4.252   5.053  1.4360  1.1629  0.3909
  739TIP3    H2 2224   1.553   4.159   4.943  0.0331  0.4036  0.3902
  740TIP3   OH2 2225   3.649   2.058   0.992 -0.2982  0.4597 -0.4082
  740TIP3    H1 2226   3.678   1.973   0.959 -2.6289  0.1396 -1.8625
  740TIP3    H2 2227   3.554   2.051   0.996 -0.4698  2.5712  0.7498
  741TIP3   OH2 2228   1.549   2.993   4.105  0.0765  0.0073 -0.3007
  741TIP3    H1 2229   1.508   3.041   4.177 -0.0742  1.4615 -1.3189
  741TIP3    H2 2230   1.550   2.902   4.135 -0.8108  0.4352  1.1484
  742TIP3   OH2 2231   2.529   4.509   3.031  0.8459 -0.2746  0.6398
  742TIP3    H1 2232   2.609   4.459   3.013  0.2513 -1.4417  1.1431
  742TIP3    H2 2233   2.482   4.457   3.095 -0.8594 -0.1666 -0.4746
  743TIP3   OH2 2234   6.235   0.002   0.163 -0.0114  0.4763  0.2123
  743TIP3    H1 2235   6.287   0.030   0.238 -1.2572  0.9176  0.9447
  743TIP3    H2 2236   6.297   0.003   0.090  0.9999  0.9721  1.0389
  744TIP3   OH2 2237   2.020   3.254   1.534  0.4189  0.0438  0.3229
  744TIP3    H1 2238   2.074   3.185   1.572  0.9827  0.8320  0.9785
  744TIP3    H2 2239   2.082   3.307   1.483  0.5992  1.7941  2.2212
  745TIP3   OH2 2240   3.424   2.382   3.160  0.4659  0.2596  0.2230
  745TIP3    H1 2241   3.329   2.378   3.158  0.4602  0.2906  0.4319
  745TIP3    H2 2242   3.445   2.474   3.145  0.4284  0.4506  1.2410
  746TIP3   OH2 2243   0.896   5.287   1.416 -0.3111  0.5730  0.3651
  746TIP3    H1 2244   0.817   5.320   1.457 -0.8232  1.4719 -1.2616
  746TIP3    H2 2245   0.948   5.365   1.396 -1.0010  0.4182 -2.4673
  747TIP3   OH2 2246   5.380   2.095   0.692  0.3282  0.1129 -0.3065
  747TIP3    H1 2247   5.367   2.042   0.770  1.0789 -0.4453 -0.5487
  747TIP3    H2 2248   5.303   2.078   0.638 -0.0653  0.2943  0.1912
  748TIP3   OH2 2249   0.972   1.617   5.050  0.7256 -0.0092 -0.1099
  748TIP3    H1 2250   0.959   1.525   5.030 -1.0969  0.1165  0.2983
  748TIP3    H2 2251   0.889   1.645   5.090  1.7410  1.4409  1.1307
  749TIP3   OH2 2252   2.591   3.743   3.954  0.3561  0.3143  0.0556
  749TIP3    H1 2253   2.509   3.693   3.953  0.8736 -0.5716 -0.6659
  749TIP3    H2 2254   2.582   3.804   4.027 -1.2503  0.7656 -0.4846
  750TIP3   OH2 2255   4.085   1.058   0.697 -0.5889 -0.2485 -0.5251
  750TIP3    H1 2256   4.085   1.153   0.707  0.3815 -0.0626 -1.9588
  750TIP3    H2 2257   4.126   1.043   0.612 -0.3988 -1.9774 -0.1656
  751TIP3   OH2 2258   5.262   3.730   2.203 -0.4253 -0.5174  0.3203
  751TIP3    H1 2259   5.209   3.809   2.191  0.6802  0.1128 -0.5689
  751TIP3    H2 2260   5.199   3.658   2.198 -1.0652  0.1146 -2.1493
  752TIP3   OH2 2261   5.426   2.068   4.181  0.2629  0.7463 -0.5476
  752TIP3    H1 2262   5.356   2.003   4.173 -0.1891  0.8637  1.6068
  752TIP3    H2 2263   5.507   2.019   4.165 -0.1149 -0.2147  0.3503
  753TIP3   OH2 2264   4.892   3.346   0.430 -0.3927 -0.5573  0.2257
  753TIP3    H1 2265   4.955   3.415   0.450 -1.0598  0.8575 -2.0828
  753TIP3    H2 2266   4.814   3.392   0.401 -1.5388 -2.2928  0.3949
  754TIP3   OH2 2267   5.613   0.571   4.591 -0.3338  0.1590 -0.4230
  754TIP3    H1 2268   5.565   0.650   4.614 -2.2836 -0.9321 -0.5070
  754TIP3    H2 2269   5.704   0.592   4.609 -0.7488  2.5352 -0.8206
  755TIP3   OH2 2270   2.517   0.692   2.892 -0.0020 -0.1504  0.2322
  755TIP3    H1 2271   2.534   0.640   2.814 -0.0897 -0.9213  0.7183
  755TIP3    H2 2272   2.502   0.781   2.859 -0.7228 -0.5939 -0.6817
  756TIP3   OH2 2273   3.959   1.676   1.343  0.0731 -0.4473  0.4612
  756TIP3    H1 2274   3.973   1.657   1.436 -1.3204  0.6813  0.9478
  756TIP3    H2 2275   3.954   1.772   1.339 -1.7355 -0.5318 -0.4422
  757TIP3   OH2 2276   5.661   2.116   4.806 -0.8177 -0.0502 -0.3568
  757TIP3    H1 2277   5.636   2.055   4.875 -1.1125  0.5240  0.0478
  757TIP3    H2 2278   5.621   2.079   4.727 -0.7880 -0.5106 -0.1616
  758TIP3   OH2 2279   5.455   2.731   4.715  0.1240  0.0651 -0.3038
  758TIP3    H1 2280   5.428   2.746   4.624 -1.6902 -0.0534  0.1708
  758TIP3    H2 2281   5.508   2.807   4.737 -0.2626  0.6009 -1.1608
  759TIP3   OH2 2282   4.070   0.225   3.226  0.9298 -0.1309  0.1123
  759TIP3    H1 2283   4.063   0.319   3.240 -2.0586  0.6318 -4.3263
  759TIP3    H2 2284   3.993   0.188   3.269  0.3386  0.0011 -0.7915
  760TIP3   OH2 2285   3.980   1.511   3.712  0.0342 -0.4739 -0.4111
  760TIP3    H1 2286   3.933   1.485   3.792  1.3552 -1.9887 -0.0636
  760TIP3    H2 2287   4.047   1.572   3.743 -0.3883  0.0947 -0.6009
  761TIP3   OH2 2288   3.004   4.689   4.741 -0.4208  0.1736  0.2094
  761TIP3    H1 2289   3.048   4.659   4.820 -0.4834  1.2878  0.6822
  761TIP3    H2 2290   2.972   4.777   4.763 -0.0644  0.6753 -1.1848
  762TIP3   OH2 2291   5.861   4.350   3.412  0.0042  0.1613  0.1602
  762TIP3    H1 2292   5.805   4.273   3.422 -0.4328  0.4519 -0.0052
  762TIP3    H2 2293   5.849   4.399   3.493 -0.7797  0.7288 -0.2745
  763TIP3   OH2 2294   2.515   2.834   1.442 -0.4447  0.3722  0.6601
  763TIP3    H1 2295   2.435   2.881   1.415 -1.2043  0.8765  3.5150
  763TIP3    H2 2296   2.498   2.743   1.418 -1.1940  0.7116 -0.1780
  764TIP3   OH2 2297   2.219   1.266   0.137  0.7328  0.0672 -0.0934
  764TIP3    H1 2298   2.227   1.171   0.134  1.0069  0.0950 -0.2716
  764TIP3    H2 2299   2.309   1.298   0.144  0.6100  0.2962  0.5245
  765TIP3   OH2 2300   1.016   4.908   2.559 -0.4206 -0.2383 -0.2998
  765TIP3    H1 2301   1.028   5.003   2.570 -0.7472 -0.2846  0.5151
  765TIP3    H2 2302   1.001   4.897   2.465  1.4716  0.3009 -0.7116
  766TIP3   OH2 2303   0.170   2.938   2.068  0.2041 -0.2082 -0.2579
  766TIP3    H1 2304   0.167   3.033   2.060 -0.0676 -0.3076 -1.6443
  766TIP3    H2 2305   0.250   2.920   2.117  0.4928  0.7139 -0.3705
  767TIP3   OH2 2306   3.734   5.808   0.857 -0.2061 -0.0186 -0.4312
  767TIP3    H1 2307   3.825   5.829   0.874 -0.4656  0.5160  0.3442
  767TIP3    H2 2308   3.692   5.893   0.841 -0.4966 -0.2869 -1.2001
  768TIP3   OH2 2309   0.032   2.336   0.608  0.3355  0.6608  0.0355
  768TIP3    H1 2310   0.122   2.355   0.631  1.2453 -1.8777 -1.0834
  768TIP3    H2 2311   0.028   2.346   0.513  0.0736 -1.3837 -0.2075
  769TIP3   OH2 2312   5.717   4.458   1.192 -0.0166  0.1654  0.2877
  769TIP3    H1 2313   5.781   4.439   1.124  1.7210  2.0631  1.2984
  769TIP3    H2 2314   5.638   4.483   1.144  0.6457 -0.1494 -1.0125
  770TIP3   OH2 2315   5.749   5.263   5.043 -1.0006 -0.0458  0.3046
  770TIP3    H1 2316   5.702   5.181   5.053 -0.5143 -0.4922 -0.9080
  770TIP3    H2 2317   5.700   5.312   4.977 -0.1305 -0.2584 -0.5189
  771TIP3   OH2 2318   3.024   1.251   2.800 -0.1402  0.2885  0.2899
  771TIP3    H1 2319   3.081   1.207   2.863  0.1986  1.0404  0.5162
  771TIP3    H2 2320   3.060   1.227   2.715 -1.2183 -1.5849  0.3057
  772TIP3   OH2 2321   0.993   2.996   4.472  0.2276 -0.1102 -0.2090
  772TIP3    H1 2322   1.006   3.081   4.429 -1.5337  1.1608  1.5578
  772TIP3    H2 2323   0.899   2.978   4.460  0.0729 -0.5889  1.4685
  773TIP3   OH2 2324   6.215   5.145   0.993  0.4165  0.4337 -0.1431
  773TIP3    H1 2325   6.237   5.053   1.009 -0.2271 -0.0558 -1.8858
  773TIP3    H2 2326   6.293   5.181   0.950  0.1635  0.3160 -0.7177
  774TIP3   OH2 2327   4.601   1.923   2.142 -0.0211 -0.1736 -0.1177
  774TIP3    H1 2328   4.679   1.922   2.199 -1.8565  1.9542  2.6587
  774TIP3    H2 2329   4.537   1.870   2.189 -1.4395  1.1875 -0.4618
  775TIP3   OH2 2330   4.109   3.626   0.284 -0.1521 -0.1719 -0.0983
  775TIP3    H1 2331   4.076   3.610   0.373  0.8521 -1.1347  0.1104
  775TIP3    H2 2332   4.170   3.700   0.295 -0.4981  0.1198 -0.1042
  776TIP3   OH2 2333   2.051   0.210   2.478 -0.0237  0.3875  0.6092
  776TIP3    H1 2334   2.009   0.256   2.405 -0.1224  0.4764  0.7226
  776TIP3    H2 2335   1.985   0.210   2.547 -0.2549 -0.4487  0.4068
  777TIP3   OH2 2336   5.104   5.501   2.389  0.5085  0.0991 -0.1125
  777TIP3    H1 2337   5.131   5.414   2.359  0.5139  0.2772 -0.6388
  777TIP3    H2 2338   5.118   5.557   2.312  3.0756  1.0894  0.9513
  778TIP3   OH2 2339   5.719   4.408   0.646  0.3102  0.1144  0.1194
  778TIP3    H1 2340   5.685   4.360   0.570  1.7944 -0.7820 -0.0211
  778TIP3    H2 2341   5.717   4.344   0.717  0.5715  0.4223  0.4033
  779TIP3   OH2 2342   0.087   5.253   4.728  0.2165 -0.4846  0.6648
  779TIP3    H1 2343   0.031   5.290   4.660  0.0607  0.4422  1.2827
  779TIP3    H2 2344   0.168   5.229   4.683 -1.0505 -2.9440 -0.4901
  780TIP3   OH2 2345   2.093   0.608   1.998  0.1194 -0.1376  0.0391
  780TIP3    H1 2346   2.058   0.520   1.986 -0.7146  0.2913 -0.8050
  780TIP3    H2 2347   2.184   0.602   1.969 -0.3401 -0.3980 -1.4261
  781TIP3   OH2 2348   1.122   2.655   2.328 -0.1440 -0.3611  0.2285
  781TIP3    H1 2349   1.091   2.599   2.257 -0.3462  1.1957 -0.9614
  781TIP3    H2 2350   1.049   2.658   2.390 -1.5268  1.3155 -1.3753
  782TIP3   OH2 2351   4.172   3.840   2.554  0.1375  0.4008 -0.3400
  782TIP3    H1 2352   4.200   3.883   2.473  0.9348 -0.1263 -0.3558
  782TIP3    H2 2353   4.187   3.747   2.538  0.2260  0.2876  0.3865
  783TIP3   OH2 2354   2.206   0.486   4.661 -0.0282 -0.2095 -0.2550
  783TIP3    H1 2355   2.243   0.557   4.712  1.1847 -0.5660 -0.6132
  783TIP3    H2 2356   2.136   0.451   4.716 -0.9284  1.5057 -0.2485
  784TIP3   OH2 2357   4.325   0.100   4.136  0.0165  0.1812  0.0074
  784TIP3    H1 2358   4.272   0.143   4.070 -1.0632 -1.6025 -0.3605
  784TIP3    H2 2359   4.357   0.021   4.093 -1.1205 -1.2949  1.7156
  785TIP3   OH2 2360   4.071   5.560   3.326 -0.2266  0.2700  0.2739
  785TIP3    H1 2361   4.102   5.541   3.238 -1.7317  0.2498 -0.2693
  785TIP3    H2 2362   4.109   5.645   3.347  1.1579 -0.2864  0.1185
  786TIP3   OH2 2363   3.869   1.171   3.327 -0.7174 -0.1818  0.5773
  786TIP3    H1 2364   3.776   1.193   3.337 -0.7121 -0.1677  0.5955
  786TIP3    H2 2365   3.912   1.212   3.402 -0.1681  2.9445 -1.2600
  787TIP3   OH2 2366   6.029   2.004   0.845  0.5551 -0.8303  0.4169
  787TIP3    H1 2367   6.103   1.974   0.898  1.5116 -1.3818 -1.1624
  787TIP3    H2 2368   5.972   1.928   0.837  0.3155 -0.6938  0.7873
  788TIP3   OH2 2369   2.314   2.154   3.921 -0.3756 -0.5802 -0.0422
  788TIP3    H1 2370   2.398   2.126   3.884 -0.9583 -1.8526 -0.4471
  788TIP3    H2 2371   2.273   2.206   3.852  0.2756  0.4684  0.3392
  789TIP3   OH2 2372   5.186   5.146   1.188  0.6047 -0.2535 -0.2424
  789TIP3    H1 2373   5.203   5.164   1.095  1.5398  1.1004  0.1616
  789TIP3    H2 2374   5.273   5.129   1.225  0.5584  1.7342  0.8695
  790TIP3   OH2 2375   4.344   3.022   1.071 -0.2549  0.0972  0.6131
  790TIP3    H1 2376   4.316   3.068   1.150 -1.7593  0.7887 -0.2742
  790TIP3    H2 2377   4.315   3.078   0.999  3.5254  0.8917 -0.4826
  791TIP3   OH2 2378   0.767   4.801   0.278  0.6146  0.2739  0.5837
  791TIP3    H1 2379   0.833   4.871   0.279  2.3344 -1.1824 -1.4102
  791TIP3    H2 2380   0.705   4.828   0.210 -0.5025  1.2753  1.9382
  792TIP3   OH2 2381   0.781   4.763   0.544 -0.0385 -0.6183 -0.3265
  792TIP3    H1 2382   0.811   4.775   0.454  2.2414  1.1091  0.5780
  792TIP3    H2 2383   0.763   4.669   0.551 -0.6241 -0.7435 -2.6446
  793TIP3   OH2 2384   5.668   2.200   1.986 -0.5735  0.5242  0.0203
  793TIP3    H1 2385   5.714   2.126   1.946 -1.0514  0.1579  0.1447
  793TIP3    H2 2386   5.733   2.238   2.046 -0.6567 -0.4566  0.7717
  794TIP3   OH2 2387   0.558   4.856   2.686 -0.2618 -0.1409 -0.0087
  794TIP3    H1 2388   0.546   4.841   2.780  2.7264  1.6245  0.7611
  794TIP3    H2 2389   0.624   4.792   2.660 -0.3872  0.0145 -0.7225
  795TIP3   OH2 2390   5.412   0.241   3.448 -0.0056  0.2346  0.2423
  795TIP3    H1 2391   5.418   0.279   3.535 -1.0976 -0.4523  0.6327
  795TIP3    H2 2392   5.320   0.248   3.425  0.2089  0.0715 -0.7096
  796TIP3   OH2 2393   4.053   5.578   4.422 -0.3085 -0.1302  0.1647
  796TIP3    H1 2394   4.052   5.500   4.367  2.5789 -0.1990  0.0645
  796TIP3    H2 2395   4.075   5.649   4.362 -1.3839  0.5388  0.5291
  797TIP3   OH2 2396   3.268   2.856   1.457 -0.3330 -0.4741 -0.1485
  797TIP3    H1 2397   3.277   2.948   1.431  0.8691  0.1300  2.1767
  797TIP3    H2 2398   3.356   2.820   1.447 -0.1607 -0.6009  1.5326
  798TIP3   OH2 2399   4.028   5.921   4.650  0.7414 -0.5077  0.6843
  798TIP3    H1 2400   4.053   5.993   4.592 -1.1669  0.5111  1.0322
  798TIP3    H2 2401   4.072   5.940   4.733  1.5939 -0.6941  0.2881
  799TIP3   OH2 2402   4.143   0.940   1.925  0.2211 -0.7332  0.4876
  799TIP3    H1 2403   4.125   1.019   1.976 -0.6938  1.5458 -3.0416
  799TIP3    H2 2404   4.063   0.925   1.874  0.9631 -3.0376 -0.1601
  800TIP3   OH2 2405   1.632   1.418   4.074 -0.5847  0.0187 -0.0930
  800TIP3    H1 2406   1.625   1.381   3.986  0.1622  0.8982 -0.5466
  800TIP3    H2 2407   1.721   1.394   4.103 -0.3780  0.7714 -0.0827
  801TIP3   OH2 2408   4.983   4.034   4.450  0.0820  0.2765  0.0538
  801TIP3    H1 2409   4.898   4.042   4.406 -0.0743 -0.4687  0.1992
  801TIP3    H2 2410   5.047   4.062   4.385  0.1783 -3.9408 -1.9558
  802TIP3   OH2 2411   2.179   0.988   3.922 -0.2070 -0.6923  0.2830
  802TIP3    H1 2412   2.256   0.963   3.972  1.2530  1.2670 -0.8326
  802TIP3    H2 2413   2.109   0.998   3.987  1.4996  1.3610  1.9095
  803TIP3   OH2 2414   1.283   5.622   1.227  0.1009  0.1499  0.1669
  803TIP3    H1 2415   1.377   5.637   1.225  0.6538 -2.7158 -0.8562
  803TIP3    H2 2416   1.262   5.588   1.139 -1.6838 -0.2337  0.6876
  804TIP3   OH2 2417   3.878   3.697   0.153 -0.3417  0.1554  0.0873
  804TIP3    H1 2418   3.960   3.659   0.186  0.4249  1.3176 -0.4236
  804TIP3    H2 2419   3.878   3.677   0.060 -1.4619 -1.2533  0.3523
  805TIP3   OH2 2420   2.123   3.514   4.603  0.2895 -0.5915  0.1257
  805TIP3    H1 2421   2.173   3.596   4.605  0.9534 -0.9859  0.1780
  805TIP3    H2 2422   2.169   3.457   4.665 -0.6565 -0.7362  0.7136
  806TIP3   OH2 2423   5.800   4.292   2.469  0.2152  0.0503  0.1843
  806TIP3    H1 2424   5.758   4.226   2.414 -0.1739 -1.1283  1.8318
  806TIP3    H2 2425   5.892   4.265   2.473  0.0798 -0.3485  0.7598
  807TIP3   OH2 2426   3.121   3.487   0.102 -0.1134 -0.2156  0.0529
  807TIP3    H1 2427   3.159   3.554   0.159 -0.9435  1.5423 -1.3773
  807TIP3    H2 2428   3.181   3.412   0.112  1.9728  1.3644  0.2472
  808TIP3   OH2 2429   2.889   4.860   3.898 -0.0226  0.0880  0.2277
  808TIP3    H1 2430   2.904   4.863   3.804  1.1114 -0.2732  0.3799
  808TIP3    H2 2431   2.817   4.798   3.909 -0.2448  0.2295 -0.4037
  809TIP3   OH2 2432   1.714   0.892   1.920  0.0548  0.2035  0.0106
  809TIP3    H1 2433   1.763   0.913   2.000  0.9185  0.4346 -0.5734
  809TIP3    H2 2434   1.731   0.799   1.904  2.5362  0.8593 -1.6618
  810TIP3   OH2 2435   5.773   0.684   0.246 -0.0714 -0.1704  0.3666
  810TIP3    H1 2436   5.742   0.611   0.192  0.9890 -0.7540  0.5398
  810TIP3    H2 2437   5.865   0.693   0.224 -0.0274  0.6816  0.8579
  811TIP3   OH2 2438   4.248   2.064   4.166 -0.5388  0.0225  0.4520
  811TIP3    H1 2439   4.172   2.101   4.121  0.2885  0.6918 -0.4441
  811TIP3    H2 2440   4.314   2.133   4.163 -0.5678  0.2740  3.1306
  812TIP3   OH2 2441   4.433   2.673   1.620 -0.3619 -0.0342  0.0968
  812TIP3    H1 2442   4.389   2.746   1.663  0.2844  0.9405 -0.8315
  812TIP3    H2 2443   4.374   2.599   1.632 -0.7218  0.4741  1.6342
  813TIP3   OH2 2444   3.421   1.926   4.464 -0.3679 -0.0339 -0.0076
  813TIP3    H1 2445   3.491   1.868   4.495  1.3637  2.4002  0.9009
  813TIP3    H2 2446   3.377   1.955   4.544 -1.1035  0.0878 -0.4444
  814TIP3   OH2 2447   3.602   2.052   2.796 -1.0058  0.1724 -0.0895
  814TIP3    H1 2448   3.594   2.091   2.884  2.1186 -1.3282  0.9794
  814TIP3    H2 2449   3.533   1.986   2.793 -0.7829 -0.1623  1.4862
  815TIP3   OH2 2450   2.665   4.137   0.886 -0.4587  0.1714  0.1683
  815TIP3    H1 2451   2.649   4.230   0.873  2.3228  0.7147  0.0373
  815TIP3    H2 2452   2.688   4.129   0.979  2.5510  0.2665 -0.4706
  816TIP3   OH2 2453   1.358   0.059   2.330  0.0276  0.2115  0.0014
  816TIP3    H1 2454   1.347   0.071   2.424  2.8928  2.9193  0.1206
  816TIP3    H2 2455   1.330   0.142   2.292 -2.1128 -1.1934 -1.7500
  817TIP3   OH2 2456   4.827   0.599   3.449  0.1984  0.5803  0.0316
  817TIP3    H1 2457   4.883   0.533   3.408 -1.3289 -0.3382 -0.7003
  817TIP3    H2 2458   4.874   0.626   3.527  1.0119 -1.1880  0.2041
  818TIP3   OH2 2459   3.076   2.840   4.725 -0.0492  0.5929  0.3012
  818TIP3    H1 2460   3.092   2.934   4.736  1.9726  0.5550 -1.5467
  818TIP3    H2 2461   3.110   2.800   4.806 -0.1427  1.3805  0.7384
  819TIP3   OH2 2462   4.321   2.590   4.744 -0.1656  0.2097 -0.1044
  819TIP3    H1 2463   4.262   2.566   4.673  0.5816  1.1948 -1.0897
  819TIP3    H2 2464   4.391   2.639   4.702  0.8722 -0.1093  1.1705
  820TIP3   OH2 2465   3.225   1.366   1.680 -0.3420 -0.4150 -0.5078
  820TIP3    H1 2466   3.183   1.443   1.641  2.1799  2.0858  1.2283
  820TIP3    H2 2467   3.265   1.321   1.606  0.6120  1.6982 -1.3736
  821TIP3   OH2 2468   4.512   5.598   5.032  0.2856 -0.1613 -0.3913
  821TIP3    H1 2469   4.578   5.645   5.084 -0.6536 -0.5060  1.1844
  821TIP3    H2 2470   4.441   5.661   5.022  0.0669 -0.4122 -0.4269
  822TIP3   OH2 2471   1.397   4.976   0.912  0.0896 -0.1176  0.1568
  822TIP3    H1 2472   1.490   4.985   0.889 -0.0285 -1.1762 -0.8584
  822TIP3    H2 2473   1.377   5.055   0.962  1.2111  0.7757 -0.7299
  823TIP3   OH2 2474   2.748   5.442   4.223 -0.4576  0.7483  1.0630
  823TIP3    H1 2475   2.763   5.359   4.269  0.1045  1.3576  1.9886
  823TIP3    H2 2476   2.815   5.442   4.154 -1.4067 -0.2412  0.1020
  824TIP3   OH2 2477   3.003   0.704   1.582  0.3052 -0.4070  0.2662
  824TIP3    H1 2478   2.938   0.768   1.610 -1.3153 -2.0567  0.4304
  824TIP3    H2 2479   3.033   0.736   1.497 -1.0322  0.1883 -0.0050
  825TIP3   OH2 2480   2.649   1.709   5.142 -0.0595 -0.3892  0.0962
  825TIP3    H1 2481   2.584   1.760   5.093  0.5824  0.4378  0.0757
  825TIP3    H2 2482   2.599   1.636   5.179 -0.7931 -0.3491 -0.7750
  826TIP3   OH2 2483   5.345   4.790   3.377  0.4593 -0.2228  0.3860
  826TIP3    H1 2484   5.339   4.697   3.354 -0.1020 -0.1832  0.3599
  826TIP3    H2 2485   5.313   4.795   3.467 -1.8341  0.2677 -0.4040
  827TIP3   OH2 2486   5.940   4.450   4.403 -0.2945 -0.6323  0.3381
  827TIP3    H1 2487   5.869   4.479   4.346  0.9758  0.5144 -0.7004
  827TIP3    H2 2488   5.902   4.454   4.491 -1.0356  1.5368 -0.0187
  828TIP3   OH2 2489   1.495   3.984   4.822 -0.1087 -0.4918  0.2174
  828TIP3    H1 2490   1.522   3.991   4.730 -1.4074 -1.2638 -0.2597
  828TIP3    H2 2491   1.527   3.898   4.849  0.4111 -0.1979  0.5483
  829TIP3   OH2 2492   0.627   3.096   2.755  0.0344 -0.3236 -0.6727
  829TIP3    H1 2493   0.676   3.058   2.828  0.1874  0.8584 -0.1321
  829TIP3    H2 2494   0.678   3.072   2.678 -0.1649 -1.6435 -0.4190
  830TIP3   OH2 2495   4.791   0.887   4.829  0.0312  0.0905 -0.3312
  830TIP3    H1 2496   4.794   0.905   4.923 -0.9103  0.4173 -0.3626
  830TIP3    H2 2497   4.851   0.952   4.791 -0.3355  0.5941 -0.0556
  831TIP3   OH2 2498   4.567   5.299   3.189 -0.2155 -0.0172 -0.3968
  831TIP3    H1 2499   4.483   5.254   3.185  0.6761 -1.6908 -1.6348
  831TIP3    H2 2500   4.545   5.391   3.204 -2.2062 -0.5308  0.0447
  832TIP3   OH2 2501   5.797   0.099   2.600  1.0280 -0.3010 -0.3454
  832TIP3    H1 2502   5.796   0.054   2.515 -1.2271 -1.1991  0.0859
  832TIP3    H2 2503   5.791   0.029   2.665 -1.5726  0.4640  0.3702
  833TIP3   OH2 2504   1.477   5.480   0.446  0.0491 -0.4728 -0.2398
  833TIP3    H1 2505   1.549   5.486   0.384  0.3185  0.9512  0.1699
  833TIP3    H2 2506   1.399   5.501   0.394  0.5736  4.1857  0.3595
  834TIP3   OH2 2507   2.810   4.961   4.616 -0.3599  0.0606  0.5072
  834TIP3    H1 2508   2.879   4.991   4.674  0.4265 -1.0203  0.1755
  834TIP3    H2 2509   2.829   4.868   4.602 -0.8802  0.1491 -0.9767
  835TIP3   OH2 2510   2.489   1.790   3.873 -0.1260 -0.2316  0.2139
  835TIP3    H1 2511   2.505   1.835   3.956  0.1187  2.1570 -1.0235
  835TIP3    H2 2512   2.535   1.707   3.881  0.4997  0.2490  2.1920
  836TIP3   OH2 2513   4.989   5.346   0.717  0.4654 -0.5136 -0.3344
  836TIP3    H1 2514   5.064   5.405   0.708 -0.3200  0.4211 -0.9765
  836TIP3    H2 2515   4.954   5.337   0.628 -2.2408  1.8846  0.3364
  837TIP3   OH2 2516   0.940   2.161   0.550  0.2091 -0.2602 -0.1943
  837TIP3    H1 2517   0.851   2.159   0.513  0.7640  1.1379 -1.7561
  837TIP3    H2 2518   0.959   2.255   0.558  0.5171 -0.4918  2.8467
  838TIP3   OH2 2519   0.948   5.617   5.091  0.0187 -0.1926  0.1373
  838TIP3    H1 2520   0.967   5.565   5.013 -0.3429 -2.6343  1.5662
  838TIP3    H2 2521   1.017   5.683   5.094  0.1589 -0.1621 -2.0953
  839TIP3   OH2 2522   4.500   0.843   0.800 -0.3676 -0.2189 -0.5535
  839TIP3    H1 2523   4.455   0.894   0.868  1.2648  0.2048  0.2401
  839TIP3    H2 2524   4.521   0.908   0.733 -0.7725 -0.3827 -0.8398
  840TIP3   OH2 2525   2.181   0.640   1.192 -0.2337 -0.6395  0.1894
  840TIP3    H1 2526   2.113   0.660   1.128 -1.1661 -1.0842  1.0076
  840TIP3    H2 2527   2.150   0.560   1.236  1.5152 -1.7045 -0.3855
  841TIP3   OH2 2528   4.621   3.183   4.384 -0.0960 -0.5288  0.0250
  841TIP3    H1 2529   4.601   3.230   4.465  0.8503  1.1055 -0.6315
  841TIP3    H2 2530   4.676   3.243   4.334  1.1050 -2.3303 -0.9392
  842TIP3   OH2 2531   5.560   5.886   1.799 -0.2567 -0.3473 -0.4121
  842TIP3    H1 2532   5.559   5.846   1.886 -4.9315  0.2835  0.0927
  842TIP3    H2 2533   5.537   5.814   1.740 -1.3811  0.0561 -0.4863
  843TIP3   OH2 2534   3.429   3.041   4.721 -0.5075  0.2422 -0.2217
  843TIP3    H1 2535   3.500   3.105   4.717 -0.5420  0.2223 -1.6580
  843TIP3    H2 2536   3.464   2.964   4.675 -0.4349 -0.8211  1.5509
  844TIP3   OH2 2537   6.060   0.659   2.975  0.2268  0.6517 -0.2470
  844TIP3    H1 2538   5.998   0.683   2.907 -0.2060  0.1767 -0.0202
  844TIP3    H2 2539   6.071   0.739   3.027 -0.6406  0.5799  0.0571
  845TIP3   OH2 2540   2.451   3.403   1.924  0.5586 -0.1793  0.1348
  845TIP3    H1 2541   2.445   3.470   1.857  1.1257  1.9889  2.1005
  845TIP3    H2 2542   2.366   3.359   1.923 -0.1488  1.1596 -0.6695
  846TIP3   OH2 2543   5.962   0.736   0.472 -0.5956  0.1688  0.5866
  846TIP3    H1 2544   5.867   0.747   0.464 -0.4083  0.5922 -2.4979
  846TIP3    H2 2545   5.997   0.825   0.466  0.0393 -0.1437 -0.9167
  847TIP3   OH2 2546   1.552   4.856   2.710 -1.0487 -0.4851  0.0691
  847TIP3    H1 2547   1.633   4.870   2.662 -0.9960  2.1564  0.7679
  847TIP3    H2 2548   1.516   4.774   2.675  0.5390 -0.2925 -2.1719
  848TIP3   OH2 2549   6.219   0.101   1.278 -0.3742 -0.1522 -0.1601
  848TIP3    H1 2550   6.232   0.137   1.366  3.3837 -0.2242 -0.5379
  848TIP3    H2 2551   6.214   0.177   1.221  0.5521 -0.1006 -0.1940
  849TIP3   OH2 2552   5.357   0.634   1.264  0.0777  0.0270 -0.1878
  849TIP3    H1 2553   5.266   0.663   1.269  0.1203  0.2271 -0.5075
  849TIP3    H2 2554   5.388   0.670   1.181  1.0093  1.5271  0.7683
  850TIP3   OH2 2555   0.173   0.359   1.957 -0.0802 -0.0883  0.1229
  850TIP3    H1 2556   0.121   0.411   2.018  0.0740  0.5285 -0.2650
  850TIP3    H2 2557   0.219   0.424   1.903 -0.6981 -0.6019 -1.0686
  851TIP3   OH2 2558   4.383   5.031   0.690  0.0979  0.1581  0.1359
  851TIP3    H1 2559   4.445   4.959   0.696  0.8313  0.8065  0.4750
  851TIP3    H2 2560   4.388   5.059   0.598 -0.2015 -0.2148 -0.0015
  852TIP3   OH2 2561   1.089   1.461   2.848  0.0593 -0.0963  0.1700
  852TIP3    H1 2562   1.184   1.465   2.835  0.0747 -2.6684 -0.9242
  852TIP3    H2 2563   1.053   1.453   2.760 -0.9526 -1.9361  0.6996
  853TIP3   OH2 2564   0.425   4.415   1.693 -0.5341  0.3291  0.0308
  853TIP3    H1 2565   0.472   4.498   1.686 -0.9496  0.4496 -1.6792
  853TIP3    H2 2566   0.335   4.439   1.713 -0.4388  0.2212  0.6188
  854TIP3   OH2 2567   2.053   5.782   3.897  0.1788 -0.4897 -0.3584
  854TIP3    H1 2568   2.133   5.731   3.881 -0.5107 -0.9804 -2.6088
  854TIP3    H2 2569   1.983   5.717   3.896 -0.3300  0.0155  0.9874
  855TIP3   OH2 2570   0.557   5.553   4.450  0.1134 -0.2418  0.0755
  855TIP3    H1 2571   0.570   5.648   4.451 -0.1841 -0.2028  0.2852
  855TIP3    H2 2572   0.468   5.541   4.483 -0.1342 -0.5488 -0.6871
  856TIP3   OH2 2573   6.094   3.795   1.709 -0.1863 -0.2262  0.4090
  856TIP3    H1 2574   6.044   3.854   1.766  0.8064 -0.7478  1.8930
  856TIP3    H2 2575   6.077   3.826   1.620 -0.2844  1.8196  1.0933
  857TIP3   OH2 2576   5.868   4.967   1.872  0.1233  0.2554 -0.1467
  857TIP3    H1 2577   5.929   5.038   1.850 -0.6821  0.7229 -0.9226
  857TIP3    H2 2578   5.790   4.985   1.820 -1.0009  0.1098  1.4258
  858TIP3   OH2 2579   5.904   5.991   2.912 -0.0057  0.3116 -0.0454
  858TIP3    H1 2580   5.944   5.905   2.898  0.2088 -0.3789  3.6627
  858TIP3    H2 2581   5.810   5.975   2.908  0.0399  0.0002  0.0840
  859TIP3   OH2 2582   1.792   1.227   4.703  0.2659  0.0286  0.5833
  859TIP3    H1 2583   1.805   1.312   4.662 -0.5985 -0.1417 -0.0718
  859TIP3    H2 2584   1.743   1.246   4.783  0.1886  0.1583  0.5052
  860TIP3   OH2 2585   0.705   2.300   2.529  0.7144  0.4289 -0.7038
  860TIP3    H1 2586   0.632   2.362   2.534  0.0888 -0.1576 -2.0223
  860TIP3    H2 2587   0.665   2.215   2.547  1.3398  0.2554 -0.1090
  861TIP3   OH2 2588   5.884   4.883   4.723  0.0120  0.0837  0.2423
  861TIP3    H1 2589   5.827   4.955   4.751 -1.9350 -1.5251  0.5523
  861TIP3    H2 2590   5.915   4.845   4.805  1.3776  0.7575  0.0767
  862TIP3   OH2 2591   1.520   4.889   4.655 -0.0397 -0.0729  0.3639
  862TIP3    H1 2592   1.425   4.877   4.657 -0.0379 -0.2999 -0.4638
  862TIP3    H2 2593   1.534   4.976   4.690 -0.6491  0.3826 -0.4830
  863TIP3   OH2 2594   1.946   2.534   1.500 -0.0280 -0.5639 -0.0544
  863TIP3    H1 2595   1.880   2.465   1.509 -1.5143  0.9362  1.0811
  863TIP3    H2 2596   1.942   2.559   1.407 -0.7989 -0.7529 -0.0791
  864TIP3   OH2 2597   3.881   3.824   2.761  0.3586  0.2059  0.5142
  864TIP3    H1 2598   3.874   3.783   2.674  0.0859  0.7013  0.2987
  864TIP3    H2 2599   3.963   3.790   2.797  2.0563  2.2393 -1.1534
  865TIP3   OH2 2600   0.316   0.629   5.112 -0.8913  0.0722  0.0748
  865TIP3    H1 2601   0.408   0.654   5.098 -1.3820  1.0508 -1.6957
  865TIP3    H2 2602   0.320   0.537   5.137  0.6693  0.5563  1.8126
  866TIP3   OH2 2603   3.635   0.643   3.067 -0.1058  0.2269  0.0518
  866TIP3    H1 2604   3.640   0.564   3.014 -1.9319  0.8265 -1.1395
  866TIP3    H2 2605   3.691   0.706   3.021 -1.1074  0.5197 -0.8407
  867TIP3   OH2 2606   5.723   2.385   3.870 -0.0396 -0.0351  0.8182
  867TIP3    H1 2607   5.649   2.337   3.834  0.7225 -1.9171  1.6281
  867TIP3    H2 2608   5.683   2.453   3.925 -1.1492  0.2527 -0.3086
  868TIP3   OH2 2609   1.602   5.391   1.168  0.4344 -0.1664  0.4612
  868TIP3    H1 2610   1.596   5.389   1.264  1.8566 -0.0890  0.5857
  868TIP3    H2 2611   1.647   5.473   1.149  1.8194 -1.0090 -0.1255
  869TIP3   OH2 2612   3.901   5.126   4.008 -0.4385 -0.1909 -0.2128
  869TIP3    H1 2613   3.887   5.218   4.032 -2.2853 -0.0316 -1.6771
  869TIP3    H2 2614   3.937   5.086   4.087 -1.4340  1.3695  1.1038
  870TIP3   OH2 2615   4.082   2.241   2.226 -0.3557  0.3135  0.4612
  870TIP3    H1 2616   4.020   2.227   2.298 -0.8876 -1.0860 -0.2376
  870TIP3    H2 2617   4.032   2.289   2.160  0.0880  1.4603  0.9274
  871TIP3   OH2 2618   3.365   4.139   3.900  0.0586 -0.2176  0.2364
  871TIP3    H1 2619   3.349   4.058   3.949 -1.6231 -0.1266 -0.1019
  871TIP3    H2 2620   3.285   4.191   3.913  1.0127  1.3021  0.2553
  872TIP3   OH2 2621   0.438   1.882   4.843 -0.1833 -0.1750 -0.7449
  872TIP3    H1 2622   0.489   1.858   4.920  0.7068 -0.3704 -1.3833
  872TIP3    H2 2623   0.362   1.823   4.844 -0.5140  0.2527  0.3196
  873TIP3   OH2 2624   0.842   4.293   1.933 -0.1351  0.0846 -1.0010
  873TIP3    H1 2625   0.808   4.209   1.964 -0.1473  0.2116 -0.6721
  873TIP3    H2 2626   0.924   4.271   1.888  0.0028 -0.0681 -0.6730
  874TIP3   OH2 2627   2.807   1.692   2.620 -0.0731  0.3902  0.1932
  874TIP3    H1 2628   2.830   1.600   2.637 -1.6272 -0.2160 -0.7679
  874TIP3    H2 2629   2.888   1.740   2.636  0.8941 -1.1947  0.2973
  875TIP3   OH2 2630   1.269   3.729   4.675 -0.2880 -0.1008  0.4531
  875TIP3    H1 2631   1.299   3.656   4.730 -0.5190 -0.1604  0.4986
  875TIP3    H2 2632   1.194   3.695   4.628 -0.7109  0.2603  0.8549
  876TIP3   OH2 2633   2.499   2.027   1.447  0.0721  0.1410  0.1644
  876TIP3    H1 2634   2.581   2.034   1.495  1.2862 -4.1179 -0.8271
  876TIP3    H2 2635   2.524   2.030   1.355 -0.9700 -0.4881 -0.1647
  877TIP3   OH2 2636   3.694   2.790   0.909 -0.4530 -0.0987  0.0528
  877TIP3    H1 2637   3.634   2.834   0.850  0.7658  1.2461 -0.2413
  877TIP3    H2 2638   3.739   2.726   0.853  0.0355  0.5261 -0.2855
  878TIP3   OH2 2639   5.346   0.688   2.782  0.0933 -0.0942  0.2435
  878TIP3    H1 2640   5.321   0.626   2.713 -0.6425 -0.2991  0.6863
  878TIP3    H2 2641   5.371   0.633   2.856 -1.9788  0.0925  1.1496
  879TIP3   OH2 2642   4.529   2.703   2.217  0.4134  0.4442  0.6591
  879TIP3    H1 2643   4.569   2.669   2.298  2.1682  1.1187  0.1194
  879TIP3    H2 2644   4.589   2.771   2.187 -1.5507  2.0587  0.1576
  880TIP3   OH2 2645   2.286   1.201   3.010  0.0196 -0.2231  0.0187
  880TIP3    H1 2646   2.239   1.134   3.059  0.5501 -0.5008  0.1603
  880TIP3    H2 2647   2.348   1.238   3.073  0.2597 -0.1376 -0.2630
  881TIP3   OH2 2648   6.221   1.539   3.065  0.1235  0.0932 -0.3172
  881TIP3    H1 2649   6.254   1.609   3.122 -1.1015 -1.3786  2.4022
  881TIP3    H2 2650   6.237   1.571   2.977 -0.3160  3.7793  0.7677
  882TIP3   OH2 2651   2.650   4.705   2.406  0.5994 -0.1379 -0.6193
  882TIP3    H1 2652   2.588   4.705   2.479 -0.4119 -0.4912 -1.4518
  882TIP3    H2 2653   2.736   4.707   2.448  0.0432  0.3759  0.5676
  883TIP3   OH2 2654   3.435   3.043   4.417  0.1670 -0.2017 -0.3393
  883TIP3    H1 2655   3.343   3.047   4.443  0.1859  2.0877 -0.4471
  883TIP3    H2 2656   3.483   3.078   4.492  0.6535  1.5355 -1.4109
  884TIP3   OH2 2657   0.900   3.349   0.947 -0.6783 -0.2561 -0.3216
  884TIP3    H1 2658   0.883   3.399   1.027 -1.5241  0.4834 -0.9417
  884TIP3    H2 2659   0.976   3.295   0.968 -0.8929 -0.0758  0.9795
  885TIP3   OH2 2660   4.585   0.155   1.050 -0.0194  0.3436 -0.2045
  885TIP3    H1 2661   4.545   0.134   1.135  0.8130  0.1534  0.1487
  885TIP3    H2 2662   4.676   0.174   1.071  0.4409 -0.7021 -1.1941
  886TIP3   OH2 2663   2.494   0.268   5.027  0.6411  0.0527  0.3824
  886TIP3    H1 2664   2.414   0.222   5.002  0.4175  0.2984  0.6361
  886TIP3    H2 2665   2.481   0.357   4.995 -0.0255  0.6089  2.0818
  887TIP3   OH2 2666   1.747   4.198   3.171 -0.1944  0.2245  0.1083
  887TIP3    H1 2667   1.707   4.249   3.241 -0.5106  0.0983  0.0210
  887TIP3    H2 2668   1.794   4.128   3.216  1.3338  1.3325  0.3002
  888TIP3   OH2 2669   4.232   5.837   1.222 -0.4125 -0.8250 -0.1494
  888TIP3    H1 2670   4.164   5.769   1.224 -0.0617 -1.1678  0.5780
  888TIP3    H2 2671   4.187   5.917   1.251 -0.5809 -0.9854  0.0332
  889TIP3   OH2 2672   1.167   0.569   2.141  0.0680  0.7719 -0.0457
  889TIP3    H1 2673   1.249   0.606   2.175  0.2397 -0.2091  0.6604
  889TIP3    H2 2674   1.116   0.645   2.114  0.5733  1.4965  0.9704
  890TIP3   OH2 2675   4.784   5.542   3.968 -0.3223  0.2357 -0.0847
  890TIP3    H1 2676   4.781   5.636   3.951 -1.5392  0.5309  1.5810
  890TIP3    H2 2677   4.849   5.532   4.038 -0.3862 -0.1428 -0.0753
  891TIP3   OH2 2678   3.794   3.261   1.745  0.0028  0.8092 -0.0504
  891TIP3    H1 2679   3.835   3.341   1.779  1.6300 -0.2114  0.5148
  891TIP3    H2 2680   3.846   3.190   1.782 -1.1504 -0.5195 -0.8719
  892TIP3   OH2 2681   1.487   1.113   4.700 -0.2882  0.4393 -0.0933
  892TIP3    H1 2682   1.537   1.124   4.782  0.8019 -0.1215 -0.6618
  892TIP3    H2 2683   1.412   1.059   4.726 -0.7611  1.5098  0.8349
  893TIP3   OH2 2684   5.358   5.382   3.581 -0.0198 -0.1124 -0.3601
  893TIP3    H1 2685   5.416   5.367   3.656  0.1714 -0.6260 -0.6057
  893TIP3    H2 2686   5.357   5.298   3.535 -0.2875  0.1456 -0.8269
  894TIP3   OH2 2687   3.378   4.172   0.461 -0.1616 -0.0314  0.2134
  894TIP3    H1 2688   3.437   4.228   0.411  1.5329 -0.8957  1.1822
  894TIP3    H2 2689   3.310   4.232   0.493  0.8909  1.2343  0.1582
  895TIP3   OH2 2690   0.006   4.327   1.525  0.1506  0.2070 -0.1313
  895TIP3    H1 2691  -0.026   4.246   1.566  0.5610 -0.0048 -0.2187
  895TIP3    H2 2692   0.032   4.300   1.437 -1.6019  0.8395 -0.8964
  896TIP3   OH2 2693   4.201   2.042   1.867  0.3346  0.2448 -0.4627
  896TIP3    H1 2694   4.263   2.086   1.809 -0.5921  0.1462 -1.5625
  896TIP3    H2 2695   4.124   2.098   1.866  0.6693  0.8202  1.5824
  897TIP3   OH2 2696   5.254   1.898   1.165 -0.0326  0.3490 -0.0737
  897TIP3    H1 2697   5.214   1.985   1.169  1.4275  1.0593 -0.1275
  897TIP3    H2 2698   5.192   1.840   1.208 -1.4722  1.2463 -0.8850
  898TIP3   OH2 2699   1.484   2.277   0.650 -0.3852  0.1142 -0.3399
  898TIP3    H1 2700   1.439   2.234   0.577 -1.0985  1.0445 -0.4670
  898TIP3    H2 2701   1.535   2.347   0.609 -1.6321  1.3449  0.1061
  899TIP3   OH2 2702   1.275   0.284   2.186 -0.0246 -0.0355  0.7239
  899TIP3    H1 2703   1.355   0.325   2.153  0.3653  0.7881  2.5449
  899TIP3    H2 2704   1.212   0.356   2.192 -0.2344 -0.2566  1.2523
  900TIP3   OH2 2705   2.797   3.670   2.000  0.0239 -0.5436 -0.1284
  900TIP3    H1 2706   2.863   3.601   2.007 -0.8318 -1.3345  0.3624
  900TIP3    H2 2707   2.767   3.684   2.090 -1.6937 -1.4335 -0.5246
  901TIP3   OH2 2708   2.892   2.466   0.849 -0.1922 -0.7089  0.2229
  901TIP3    H1 2709   2.942   2.440   0.772 -0.2458 -0.0094 -0.0519
  901TIP3    H2 2710   2.819   2.518   0.815 -0.3328 -0.5656  0.7247
  902TIP3   OH2 2711   5.574   4.608   2.525 -0.0919 -0.2171 -0.0997
  902TIP3    H1 2712   5.496   4.565   2.490  0.1133 -0.0027 -0.8378
  902TIP3    H2 2713   5.553   4.701   2.523  0.1248 -0.1686 -0.1666
  903TIP3   OH2 2714   3.127   3.729   3.427 -0.0358 -0.1838 -0.2389
  903TIP3    H1 2715   3.180   3.661   3.385 -0.3330 -0.5555 -0.0198
  903TIP3    H2 2716   3.187   3.774   3.486 -0.4314 -2.0968  1.7817
  904TIP3   OH2 2717   1.027   3.278   1.249  0.2674 -0.0876  0.5753
  904TIP3    H1 2718   0.995   3.188   1.259 -0.8501  0.2906  0.5757
  904TIP3    H2 2719   1.081   3.276   1.170  3.1289 -1.5012  2.3811
  905TIP3   OH2 2720   1.771   3.236   4.255 -0.2827 -0.0358  0.1656
  905TIP3    H1 2721   1.782   3.238   4.160 -0.4282 -0.0702  0.1465
  905TIP3    H2 2722   1.826   3.163   4.284 -0.7690 -0.4676  0.0288
  906TIP3   OH2 2723   3.298   2.938   3.546  0.1825 -0.2697 -0.0761
  906TIP3    H1 2724   3.245   2.910   3.620 -0.1957 -1.9509 -0.9167
  906TIP3    H2 2725   3.388   2.936   3.579 -0.1991  2.5793  1.3480
  907TIP3   OH2 2726   6.133   0.423   1.685  0.0335 -0.5969  0.0867
  907TIP3    H1 2727   6.205   0.479   1.714 -0.5990  0.4307 -0.2475
  907TIP3    H2 2728   6.149   0.410   1.592  1.3727 -2.8382  0.5725
  908TIP3   OH2 2729   3.532   4.647   3.427  0.1453  0.0824 -0.0418
  908TIP3    H1 2730   3.582   4.713   3.379  0.4806  0.8354  1.3003
  908TIP3    H2 2731   3.590   4.620   3.498 -0.6699 -0.3513  0.4727
  909TIP3   OH2 2732   0.965   1.175   4.211 -0.3473  0.1677 -0.4392
  909TIP3    H1 2733   0.972   1.250   4.271  0.3275 -0.6323  0.5114
  909TIP3    H2 2734   0.920   1.210   4.135  1.6329  2.0734 -0.8567
  910TIP3   OH2 2735   4.585   4.529   1.391 -0.3135  0.1157 -0.2437
  910TIP3    H1 2736   4.672   4.550   1.358  0.0380 -0.1378  0.5269
  910TIP3    H2 2737   4.540   4.614   1.394  0.6208  0.5862  1.4469
  911TIP3   OH2 2738   3.796   2.076   3.554  0.2023 -0.4225  0.2401
  911TIP3    H1 2739   3.800   2.118   3.640  0.1945  2.1182 -0.9091
  911TIP3    H2 2740   3.703   2.059   3.540  0.1856 -0.6986  0.6728
  912TIP3   OH2 2741   1.806   0.092   3.193 -0.0949  0.5327  0.0393
  912TIP3    H1 2742   1.817   0.045   3.110  1.0540  0.9212 -0.0397
  912TIP3    H2 2743   1.803   0.022   3.259 -1.4720  0.1947 -0.3478
  913TIP3   OH2 2744   4.489   4.400   0.764 -0.0991 -0.4028  0.1407
  913TIP3    H1 2745   4.505   4.492   0.744 -0.4374  0.1132  2.0025
  913TIP3    H2 2746   4.399   4.397   0.794  0.2083 -1.1499  1.0591
  914TIP3   OH2 2747   1.808   5.642   1.150  0.3985 -0.0346 -0.4492
  914TIP3    H1 2748   1.892   5.661   1.107  1.6007  0.2524  1.8607
  914TIP3    H2 2749   1.823   5.665   1.242 -2.2372  0.0061  0.0355
  915TIP3   OH2 2750   0.123   5.850   1.276 -0.1961  0.2010  0.0428
  915TIP3    H1 2751   0.141   5.923   1.216 -3.0685  0.5749 -0.5008
  915TIP3    H2 2752   0.196   5.852   1.338  1.4346  1.5484 -1.8057
  916TIP3   OH2 2753   3.632   4.779   0.600 -0.1904 -0.0366  0.1705
  916TIP3    H1 2754   3.539   4.777   0.577 -0.1220 -1.4063 -0.0351
  916TIP3    H2 2755   3.678   4.765   0.517  0.2364  1.1451  0.1849
  917TIP3   OH2 2756   1.293   2.243   3.278  0.5442 -0.1533  0.4328
  917TIP3    H1 2757   1.335   2.169   3.236  0.2420 -1.3439  2.1214
  917TIP3    H2 2758   1.203   2.241   3.246  0.9486  0.5411 -0.8169
  918TIP3   OH2 2759   0.776   0.799   4.217 -0.4913  0.9660 -0.0813
  918TIP3    H1 2760   0.734   0.846   4.289 -1.6213 -1.3855  0.8981
  918TIP3    H2 2761   0.730   0.830   4.139 -0.1768  2.5474  0.3252
  919TIP3   OH2 2762   4.419   5.714   0.314 -0.0779 -0.0100 -0.7196
  919TIP3    H1 2763   4.401   5.662   0.236  1.0330 -1.3129 -0.1427
  919TIP3    H2 2764   4.349   5.779   0.317  0.1496  0.4077 -3.0707
  920TIP3   OH2 2765   1.620   1.311   0.407  0.1308  0.0492  0.1108
  920TIP3    H1 2766   1.713   1.326   0.389  0.0581 -0.7643 -1.0164
  920TIP3    H2 2767   1.602   1.223   0.374 -1.2140  0.4746 -0.3697
  921TIP3   OH2 2768   6.349   1.300   3.157  0.7393  0.1541  0.6768
  921TIP3    H1 2769   6.323   1.324   3.245  0.1469 -0.8090  0.7804
  921TIP3    H2 2770   6.310   1.367   3.101  0.8706  0.6009  1.1146
  922TIP3   OH2 2771   2.563   3.797   3.376  0.0100 -0.6308  0.6982
  922TIP3    H1 2772   2.629   3.822   3.311  0.4473 -2.6200  0.3036
  922TIP3    H2 2773   2.558   3.702   3.370 -3.0294 -0.5735  0.6002
  923TIP3   OH2 2774   4.230   5.129   2.500  0.2244  0.4919 -0.2229
  923TIP3    H1 2775   4.286   5.096   2.570  0.7117  0.3855 -0.6601
  923TIP3    H2 2776   4.210   5.052   2.447  0.8396  0.7830 -0.8811
  924TIP3   OH2 2777   5.798   0.991   1.193 -0.1523 -0.2606 -0.0738
  924TIP3    H1 2778   5.704   0.993   1.174 -0.1145  0.2763 -0.2284
  924TIP3    H2 2779   5.804   0.953   1.281 -0.4559 -1.0145 -0.3727
  925TIP3   OH2 2780   4.240   2.177   0.144  0.2657 -0.0631  0.0889
  925TIP3    H1 2781   4.180   2.231   0.094  0.6382 -0.3704 -0.7063
  925TIP3    H2 2782   4.198   2.166   0.230 -0.9414 -0.5118 -0.5409
  926TIP3   OH2 2783   0.058   3.686   3.143  0.4474  0.5347 -0.1350
  926TIP3    H1 2784   0.073   3.595   3.120 -0.0437 -0.5648  3.2878
  926TIP3    H2 2785   0.120   3.704   3.214 -0.3574  2.4496  0.1564
  927TIP3   OH2 2786   0.245   5.810   4.242 -0.4310 -0.0137 -0.0987
  927TIP3    H1 2787   0.266   5.786   4.152 -1.4024 -0.3617 -0.2528
  927TIP3    H2 2788   0.310   5.876   4.265 -0.0471 -0.0607 -0.9884
  928TIP3   OH2 2789   1.113   4.209   1.405 -0.4244 -0.5528  0.6375
  928TIP3    H1 2790   1.064   4.200   1.324  0.7998 -0.8340 -0.0971
  928TIP3    H2 2791   1.067   4.277   1.454 -1.2785 -0.5000 -0.2141
  929TIP3   OH2 2792   3.350   5.208   3.387  0.2407 -0.3276  0.2846
  929TIP3    H1 2793   3.385   5.294   3.411  1.2925 -0.7116  0.1813
  929TIP3    H2 2794   3.256   5.214   3.407  0.7288 -0.0629  2.8696
  930TIP3   OH2 2795   1.288   0.999   3.698 -0.1307  0.0409  0.6298
  930TIP3    H1 2796   1.232   1.045   3.635 -0.5536 -0.7386  0.4310
  930TIP3    H2 2797   1.271   0.906   3.682  0.3095 -0.1782  1.4011
  931TIP3   OH2 2798   6.211   2.331   2.778 -0.2097 -0.1306 -0.1638
  931TIP3    H1 2799   6.163   2.412   2.762  1.7617  1.2778  0.6569
  931TIP3    H2 2800   6.143   2.266   2.797 -1.7868  1.8396  1.4026
  932TIP3   OH2 2801   0.035   1.373   2.278  0.1419  0.0704 -0.0143
  932TIP3    H1 2802   0.043   1.406   2.189  0.1844 -0.4165 -0.1968
  932TIP3    H2 2803  -0.040   1.314   2.275 -0.2248  0.5143  0.4176
  933TIP3   OH2 2804   4.205   1.388   4.789  0.5936  0.5521 -0.5616
  933TIP3    H1 2805   4.229   1.432   4.870 -0.1936  0.4046 -0.2360
  933TIP3    H2 2806   4.231   1.448   4.720  0.9388  0.8396 -0.1843
  934TIP3   OH2 2807   1.144   0.369   0.641 -0.0785 -0.4794  0.0628
  934TIP3    H1 2808   1.054   0.392   0.663  0.1248  0.7489 -0.3549
  934TIP3    H2 2809   1.182   0.340   0.724 -1.0087 -1.5778  0.1284
  935TIP3   OH2 2810   5.348   3.817   3.215 -0.0216  0.6833 -0.1290
  935TIP3    H1 2811   5.267   3.867   3.223 -1.2533 -1.2104 -0.1072
  935TIP3    H2 2812   5.367   3.788   3.304 -0.5002 -0.6187 -0.4380
  936TIP3   OH2 2813   3.462   2.633   1.057 -0.1222 -0.0924  0.7366
  936TIP3    H1 2814   3.380   2.632   1.008 -0.6650  2.1259  1.4852
  936TIP3    H2 2815   3.489   2.725   1.058  1.5963 -0.5528  1.7914
  937TIP3   OH2 2816   1.063   3.021   2.356  0.4056 -0.3981  0.1841
  937TIP3    H1 2817   1.134   3.045   2.417  0.2123 -0.4918  0.4494
  937TIP3    H2 2818   0.983   3.047   2.401  0.3524  2.1541 -1.2263
  938TIP3   OH2 2819   1.851   2.661   4.297 -0.2192  0.2157 -0.4932
  938TIP3    H1 2820   1.804   2.656   4.380 -0.3159 -0.1675 -0.5661
  938TIP3    H2 2821   1.869   2.569   4.275  1.7022  0.3829  0.1733
  939TIP3   OH2 2822   1.525   4.857   1.652 -0.1606 -0.6157  0.4459
  939TIP3    H1 2823   1.494   4.894   1.735 -1.4685  0.8999 -0.6603
  939TIP3    H2 2824   1.608   4.901   1.635 -1.3112  1.3146 -0.4537
  940TIP3   OH2 2825   2.796   4.685   2.860  0.3151 -0.3372 -0.2390
  940TIP3    H1 2826   2.741   4.715   2.933  1.7544 -1.3680  1.3289
  940TIP3    H2 2827   2.753   4.606   2.829 -0.6156  0.4084 -0.9405
  941TIP3   OH2 2828   3.090   5.173   4.515 -0.4150  0.2022 -0.6187
  941TIP3    H1 2829   3.179   5.168   4.550 -0.7532  1.4222  0.4933
  941TIP3    H2 2830   3.089   5.252   4.462 -0.5370 -0.4292 -1.5870
  942TIP3   OH2 2831   5.932   5.694   4.854 -0.4441 -0.8552  0.2762
  942TIP3    H1 2832   6.012   5.643   4.855 -0.0911 -0.3981 -1.0961
  942TIP3    H2 2833   5.961   5.784   4.835 -1.1308 -0.3235  1.6293
  943TIP3   OH2 2834   2.176   1.178   4.582 -0.4256  0.6543  0.2874
  943TIP3    H1 2835   2.192   1.139   4.496  1.6816  1.2575  0.3557
  943TIP3    H2 2836   2.107   1.242   4.567 -1.3780 -0.5156 -0.5464
  944TIP3   OH2 2837   2.027   5.903   5.158 -0.6271  0.1288 -0.4891
  944TIP3    H1 2838   2.057   5.926   5.070  0.3977  0.0451 -0.1779
  944TIP3    H2 2839   2.016   5.808   5.157 -0.7040  0.1391 -0.5556
  945TIP3   OH2 2840   0.554   1.249   0.442 -0.4185 -0.0304 -0.4192
  945TIP3    H1 2841   0.616   1.179   0.462  0.6225  1.1200  0.5053
  945TIP3    H2 2842   0.605   1.329   0.449 -1.3849  0.7942 -2.3059
  946TIP3   OH2 2843   5.617   1.187   3.585 -0.2964  0.3838 -0.4128
  946TIP3    H1 2844   5.652   1.195   3.496  0.2231  2.3623 -0.0963
  946TIP3    H2 2845   5.557   1.261   3.593  0.7793  1.1464  1.3123
  947TIP3   OH2 2846   1.108   2.861   3.022 -0.0067  0.5024  0.0481
  947TIP3    H1 2847   1.107   2.909   3.105 -1.4616  1.5244 -0.5293
  947TIP3    H2 2848   1.016   2.851   2.998  0.3695 -0.2047 -1.2147
  948TIP3   OH2 2849   5.248   1.781   0.240 -0.0505 -0.2412  0.0886
  948TIP3    H1 2850   5.324   1.733   0.209  1.0146  1.5947 -0.3211
  948TIP3    H2 2851   5.264   1.794   0.334 -0.8259 -1.5000  0.4131
  949TIP3   OH2 2852   5.970   1.285   3.544  0.0246 -0.3139  0.7209
  949TIP3    H1 2853   5.952   1.373   3.510 -0.5311 -1.3537 -1.8831
  949TIP3    H2 2854   6.059   1.291   3.579 -0.1511  1.3606  0.9813
  950TIP3   OH2 2855   2.135   1.034   1.109  0.8339  0.5482 -0.0331
  950TIP3    H1 2856   2.191   0.958   1.095  0.3506  0.1822  0.0078
  950TIP3    H2 2857   2.071   1.005   1.174 -0.1188  0.5892 -0.9329
  951TIP3   OH2 2858   4.902   2.056   3.895  0.0758  0.2058  0.2063
  951TIP3    H1 2859   4.985   2.008   3.898 -0.6494 -1.4787 -2.6397
  951TIP3    H2 2860   4.883   2.077   3.986  2.3237 -1.6547  1.2134
  952TIP3   OH2 2861   2.663   1.092   0.144  0.1786 -0.5510 -0.6311
  952TIP3    H1 2862   2.650   1.011   0.095 -1.4084 -0.6750 -0.0895
  952TIP3    H2 2863   2.693   1.155   0.078  2.1726 -1.7208 -0.9184
  953TIP3   OH2 2864   5.403   3.867   1.699  0.0251 -0.8408 -0.6511
  953TIP3    H1 2865   5.380   3.940   1.756  1.2226 -0.3153 -0.8220
  953TIP3    H2 2866   5.405   3.791   1.758 -0.9249 -0.6953 -0.4194
  954TIP3   OH2 2867   2.478   4.990   2.991  0.0774  0.2444 -0.2039
  954TIP3    H1 2868   2.504   5.067   3.042  0.3228 -0.2955  0.4902
  954TIP3    H2 2869   2.382   4.989   2.998  0.1259 -0.0196  0.5479
  955TIP3   OH2 2870   0.341   5.401   1.926  0.6399 -0.5195 -0.2315
  955TIP3    H1 2871   0.320   5.318   1.969  1.3481 -0.8078 -0.4371
  955TIP3    H2 2872   0.271   5.412   1.860 -1.0107  0.3962  1.5728
  956TIP3   OH2 2873   0.735   1.832   0.190  0.1676 -0.2899  0.7929
  956TIP3    H1 2874   0.723   1.758   0.130  0.1084  1.0717 -0.9422
  956TIP3    H2 2875   0.825   1.861   0.174 -0.0922  0.5470  0.8029
  957TIP3   OH2 2876   2.687   1.533   2.927  0.2293 -0.0875 -0.4203
  957TIP3    H1 2877   2.773   1.493   2.938  1.0244  0.8253 -2.6188
  957TIP3    H2 2878   2.703   1.627   2.936 -0.7596  0.0237  0.2684
  958TIP3   OH2 2879   0.396   2.489   0.404 -0.6250 -0.0341 -0.0085
  958TIP3    H1 2880   0.405   2.461   0.495 -0.9496 -0.0877  0.0071
  958TIP3    H2 2881   0.334   2.562   0.408 -1.6384 -0.8482 -0.3314
  959TIP3   OH2 2882   0.918   4.520   1.553 -0.1469  0.1685 -0.2188
  959TIP3    H1 2883   0.963   4.536   1.469 -0.0570  1.4575  0.0650
  959TIP3    H2 2884   0.858   4.448   1.534 -0.5288  0.8090 -1.5388
  960TIP3   OH2 2885   5.637   3.128   0.891  0.0593  0.0943 -0.2206
  960TIP3    H1 2886   5.691   3.115   0.813  0.6645  0.5292  0.1198
  960TIP3    H2 2887   5.671   3.208   0.931 -1.2538  0.7403 -0.3394
  961TIP3   OH2 2888   4.193   1.279   1.901 -0.2013 -0.1432 -0.5824
  961TIP3    H1 2889   4.123   1.344   1.907  1.2852  1.9422 -3.7228
  961TIP3    H2 2890   4.272   1.326   1.926  0.6128 -1.4575 -0.5859
  962TIP3   OH2 2891   3.902   4.719   1.022 -0.1107 -0.3496  0.1810
  962TIP3    H1 2892   3.991   4.706   0.990 -0.0412  1.3646 -0.4474
  962TIP3    H2 2893   3.852   4.744   0.944 -0.7216  0.4611  0.8120
  963TIP3   OH2 2894   2.227   3.822   1.516  0.0206  0.3423  0.0675
  963TIP3    H1 2895   2.301   3.789   1.567 -0.8421  0.1807  1.2555
  963TIP3    H2 2896   2.266   3.880   1.451  1.1477  0.7412  1.0693
  964TIP3   OH2 2897   4.267   1.028   3.060 -0.1875  0.3482  0.3358
  964TIP3    H1 2898   4.220   0.963   3.008 -1.4406  2.9062 -2.0196
  964TIP3    H2 2899   4.356   1.028   3.024 -0.7434  1.2990 -1.1317
  965TIP3   OH2 2900   1.051   2.709   3.592  0.4208 -0.0466  0.1192
  965TIP3    H1 2901   1.081   2.793   3.627  1.5802 -0.5560  0.3893
  965TIP3    H2 2902   1.129   2.655   3.590 -0.3017 -1.1035 -0.1209
  966TIP3   OH2 2903   5.164   1.623   4.964 -0.4030 -0.0089  0.5350
  966TIP3    H1 2904   5.180   1.621   5.059  0.4799  1.0854  0.4346
  966TIP3    H2 2905   5.200   1.541   4.932  3.4369  1.4036  0.6154
  967TIP3   OH2 2906   3.085   0.830   0.716  0.8566  0.3983 -0.5247
  967TIP3    H1 2907   3.042   0.863   0.794  0.4942 -0.3783 -0.3817
  967TIP3    H2 2908   3.130   0.906   0.678 -1.2247  1.4279 -1.0888
  968TIP3   OH2 2909   1.481   5.142   4.767 -0.0869  0.0160  0.1299
  968TIP3    H1 2910   1.397   5.162   4.725 -0.4490  0.9896  1.2556
  968TIP3    H2 2911   1.531   5.223   4.760  0.5303 -0.3652  0.0260
  969TIP3   OH2 2912   3.834   1.459   2.731  0.1165 -0.2232  0.1692
  969TIP3    H1 2913   3.785   1.442   2.651 -2.2140 -0.2592  1.5187
  969TIP3    H2 2914   3.857   1.372   2.764 -0.3004 -0.2798  0.3218
  970TIP3   OH2 2915   4.976   5.693   0.773 -0.3232  0.3758 -0.5571
  970TIP3    H1 2916   4.913   5.623   0.758 -1.3490  1.4167 -1.2273
  970TIP3    H2 2917   5.007   5.717   0.685  1.1101 -0.1928 -0.2369
  971TIP3   OH2 2918   0.051   3.111   2.840 -0.4155  0.5100 -0.3089
  971TIP3    H1 2919   0.144   3.132   2.833 -0.1632 -0.1206  0.9699
  971TIP3    H2 2920   0.031   3.119   2.933 -0.7558 -2.8428  0.0253
  972TIP3   OH2 2921   1.740   3.452   0.142 -0.2992  0.4590  0.6083
  972TIP3    H1 2922   1.752   3.545   0.123 -0.7738  0.4218  0.0996
  972TIP3    H2 2923   1.772   3.407   0.063  0.5275  0.1506  1.1002
  973TIP3   OH2 2924   1.593   1.027   0.891 -0.3001  0.5696 -0.2262
  973TIP3    H1 2925   1.525   1.089   0.863  0.2639  1.3227  0.0331
  973TIP3    H2 2926   1.595   0.961   0.822 -2.5419 -0.4795  0.6220
  974TIP3   OH2 2927   3.322   0.192   2.221 -0.0585  0.2918  0.1995
  974TIP3    H1 2928   3.229   0.216   2.228 -0.2601 -0.4807  0.2702
  974TIP3    H2 2929   3.360   0.261   2.168 -1.0600 -0.3082 -1.3981
  975TIP3   OH2 2930   3.879   3.002   1.038 -0.4451 -0.1019 -0.3181
  975TIP3    H1 2931   3.902   3.090   1.068  0.5907 -1.2234  2.5381
  975TIP3    H2 2932   3.832   3.016   0.956  2.1565  2.9451 -1.4951
  976TIP3   OH2 2933   6.099   0.450   4.512  0.3873 -0.3174 -0.0843
  976TIP3    H1 2934   6.150   0.448   4.431  0.5566  2.0150 -0.0974
  976TIP3    H2 2935   6.164   0.454   4.582  0.2827  1.5860 -0.0522
  977TIP3   OH2 2936   1.161   3.860   2.063 -0.4378 -0.3189 -0.2010
  977TIP3    H1 2937   1.086   3.911   2.096 -1.0140 -0.7180 -0.8474
  977TIP3    H2 2938   1.228   3.869   2.130 -0.5439  1.2363 -0.2561
  978TIP3   OH2 2939   2.451   2.008   0.278 -0.1777 -0.3355 -0.3851
  978TIP3    H1 2940   2.453   2.104   0.285 -0.7109 -0.3064 -0.6632
  978TIP3    H2 2941   2.530   1.986   0.229 -0.2341 -0.0140 -0.6202
  979TIP3   OH2 2942   0.994   2.795   0.698 -0.0501  0.4929  0.2789
  979TIP3    H1 2943   0.911   2.837   0.678 -1.6858 -1.7919  1.7625
  979TIP3    H2 2944   1.032   2.774   0.612 -1.2960  1.0255 -0.4169
  980TIP3   OH2 2945   5.906   1.827   0.072 -0.0083  0.3953  0.0723
  980TIP3    H1 2946   5.885   1.917   0.044  0.5677 -0.0483 -1.9694
  980TIP3    H2 2947   5.984   1.837   0.127  0.5241  1.1063 -0.7799
  981TIP3   OH2 2948   4.988   2.305   1.087  0.4125  0.5029  0.0227
  981TIP3    H1 2949   5.023   2.256   1.013 -1.4823 -1.2629  0.2027
  981TIP3    H2 2950   4.933   2.242   1.134 -1.2678  2.4874  0.9045
  982TIP3   OH2 2951   4.457   2.070   2.446  0.3921  0.0340 -0.2757
  982TIP3    H1 2952   4.536   2.117   2.475 -0.0095 -0.2850  1.4330
  982TIP3    H2 2953   4.479   1.978   2.457 -0.0061 -0.0774 -0.4175
  983TIP3   OH2 2954   5.125   1.511   1.739  0.4776 -0.0037 -0.8856
  983TIP3    H1 2955   5.081   1.427   1.730  0.7194 -0.1967 -0.3179
  983TIP3    H2 2956   5.120   1.550   1.652 -0.2581 -0.2948 -0.9854
  984TIP3   OH2 2957   2.056   0.726   3.818 -0.1603  0.7075  0.1930
  984TIP3    H1 2958   2.059   0.717   3.914  0.5467  0.6927  0.1710
  984TIP3    H2 2959   1.995   0.798   3.804  0.7663  1.6383  0.7317
  985TIP3   OH2 2960   0.953   5.100   3.957 -0.0507  0.2211  0.1780
  985TIP3    H1 2961   0.883   5.034   3.959  0.9237 -0.8549 -0.0804
  985TIP3    H2 2962   0.963   5.121   3.864 -2.0748  2.6972  0.3968
  986TIP3   OH2 2963   2.267   4.250   1.559  0.1662  0.5768  0.4454
  986TIP3    H1 2964   2.358   4.281   1.564  0.5043 -0.0595 -1.2355
  986TIP3    H2 2965   2.271   4.174   1.501 -1.2016 -0.4735  1.6526
  987TIP3   OH2 2966   3.544   4.618   1.791  0.0720 -0.5745 -0.9222
  987TIP3    H1 2967   3.553   4.545   1.853 -1.5186 -0.3473 -0.3909
  987TIP3    H2 2968   3.521   4.576   1.708  1.1732 -0.8030 -1.1274
  988TIP3   OH2 2969   3.602   4.024   0.512  0.3666 -0.3809 -0.4769
  988TIP3    H1 2970   3.573   3.958   0.574 -0.6882 -1.0642 -1.6492
  988TIP3    H2 2971   3.521   4.066   0.483  0.9282  0.6271 -0.6419
  989TIP3   OH2 2972   0.533   4.369   3.905  0.1097 -0.2519 -0.2032
  989TIP3    H1 2973   0.572   4.425   3.972 -0.3501  0.4104 -0.4832
  989TIP3    H2 2974   0.443   4.357   3.933  0.7451 -2.7049  1.0448
  990TIP3   OH2 2975   4.620   5.088   0.937  0.2364  0.2571 -0.0450
  990TIP3    H1 2976   4.675   5.139   0.998 -2.6035  0.7650  2.3339
  990TIP3    H2 2977   4.586   5.153   0.876  1.8112  0.0068 -1.2611
  991TIP3   OH2 2978   2.741   3.309   2.528 -0.3633 -0.0698  0.4166
  991TIP3    H1 2979   2.774   3.320   2.617 -0.2359 -0.6492  0.4416
  991TIP3    H2 2980   2.816   3.279   2.477 -0.6717 -0.7097  0.3286
  992TIP3   OH2 2981   4.407   4.755   4.037  0.5653 -0.4042 -0.1317
  992TIP3    H1 2982   4.361   4.783   4.116 -1.3775 -2.8109 -0.2742
  992TIP3    H2 2983   4.488   4.715   4.068  0.8209  0.5392  0.4421
  993TIP3   OH2 2984   0.781   0.467   1.450  0.1357 -0.1858 -0.4106
  993TIP3    H1 2985   0.819   0.444   1.365  2.0560  1.5173 -0.0845
  993TIP3    H2 2986   0.780   0.562   1.451  0.0386 -0.1734  1.4506
  994TIP3   OH2 2987   3.298   2.536   4.573  0.3660 -0.3473  0.2794
  994TIP3    H1 2988   3.270   2.444   4.572 -1.0610  0.0261  2.0460
  994TIP3    H2 2989   3.223   2.584   4.536  0.7182  0.2031  0.2730
  995TIP3   OH2 2990   6.135   5.765   3.977 -0.2360  0.2915  0.3731
  995TIP3    H1 2991   6.193   5.750   4.052  0.5165 -0.0129 -0.2671
  995TIP3    H2 2992   6.096   5.679   3.960  3.0042 -0.8248 -2.3965
  996TIP3   OH2 2993   5.062   5.180   1.458 -0.5596  0.0059  0.4959
  996TIP3    H1 2994   4.983   5.146   1.415 -1.6627  4.4068 -1.4931
  996TIP3    H2 2995   5.132   5.167   1.394 -0.8143  0.6668  0.0706
  997TIP3   OH2 2996   3.617   5.582   2.834 -0.3120 -0.1689  0.3629
  997TIP3    H1 2997   3.586   5.537   2.755  0.7010 -3.8077  1.8144
  997TIP3    H2 2998   3.537   5.604   2.882 -0.8694 -1.1469 -0.0949
  998TIP3   OH2 2999   3.042   4.110   3.498 -0.1263 -0.3204  0.6388
  998TIP3    H1 3000   3.072   4.107   3.589 -0.4092 -0.1143  0.7427
  998TIP3    H2 3001   2.951   4.080   3.502  0.0186 -0.8086  0.3498
  999TIP3   OH2 3002   1.482   3.050   0.624  0.2503  0.0604 -0.4180
  999TIP3    H1 3003   1.542   2.992   0.576 -0.1453  0.3349 -1.2799
  999TIP3    H2 3004   1.422   3.082   0.556 -1.6652 -1.2059  0.6052
 1000TIP3   OH2 3005   1.010   0.565   1.888 -0.8693  0.2423  0.5318
 1000TIP3    H1 3006   1.098   0.530   1.874 -1.3734 -1.4755  1.4513
 1000TIP3    H2 3007   1.006   0.642   1.831  0.8146 -0.3247 -0.4246
 1001TIP3   OH2 3008   1.196   1.278   1.204 -0.5211 -0.2513  0.7477
 1001TIP3    H1 3009   1.152   1.194   1.196 -1.5745  0.0992  2.3458
 1001TIP3    H2 3010   1.143   1.327   1.268  1.3145  0.7899  1.5411
 1002TIP3   OH2 3011   1.061   2.385   5.184  0.6229 -0.0181  0.9330
 1002TIP3    H1 3012   1.044   2.342   5.100 -0.5231 -0.0882  1.1853
 1002TIP3    H2 3013   1.063   2.479   5.163  1.7707 -0.1002  0.6070
 1003TIP3   OH2 3014   5.826   3.793   2.435 -0.3808  0.2930  0.0808
 1003TIP3    H1 3015   5.895   3.781   2.501 -0.1789  0.5836 -0.0708
 1003TIP3    H2 3016   5.745   3.800   2.486 -0.5250 -1.6508  0.1679
 1004TIP3   OH2 3017   4.647   4.349   4.407  0.3844  0.3649  0.2191
 1004TIP3    H1 3018   4.661   4.341   4.502  0.6897  0.9347  0.2250
 1004TIP3    H2 3019   4.714   4.411   4.378  0.1423  0.3725 -0.3360
 1005TIP3   OH2 3020   1.502   0.733   1.558 -0.8480  0.1006 -0.4981
 1005TIP3    H1 3021   1.447   0.719   1.635  0.5111 -1.9090  0.1945
 1005TIP3    H2 3022   1.569   0.795   1.588 -0.2828 -0.7270 -0.0097
 1006TIP3   OH2 3023   0.117   4.283   1.243 -0.1316 -0.4927 -0.4406
 1006TIP3    H1 3024   0.154   4.371   1.248  1.2475 -0.9987 -1.2238
 1006TIP3    H2 3025   0.114   4.264   1.149 -0.4026 -1.2978 -0.2757
 1007TIP3   OH2 3026   3.611   4.395   2.251  0.4782 -0.0958 -0.1971
 1007TIP3    H1 3027   3.538   4.430   2.302  1.2958 -0.3753  1.2312
 1007TIP3    H2 3028   3.621   4.306   2.283  0.9135 -0.3273 -0.9779
 1008TIP3   OH2 3029   3.605   1.180   2.819 -0.3532 -0.0887 -0.9596
 1008TIP3    H1 3030   3.622   1.219   2.905  0.5905 -0.0306 -1.1587
 1008TIP3    H2 3031   3.692   1.165   2.782 -0.7259 -1.0835 -1.4782
 1009TIP3   OH2 3032   5.637   4.014   0.259 -0.1347  0.1764 -0.5735
 1009TIP3    H1 3033   5.663   3.973   0.342 -0.4255  1.5459  0.2274
 1009TIP3    H2 3034   5.545   4.039   0.272 -0.0075  0.9482 -1.0786
 1010TIP3   OH2 3035   2.834   4.997   2.078  0.0629 -0.4434  0.4984
 1010TIP3    H1 3036   2.777   5.002   2.154 -0.9565 -1.7384 -0.1378
 1010TIP3    H2 3037   2.775   4.978   2.005  1.2926 -1.9140 -0.1717
 1011TIP3   OH2 3038   2.299   5.120   1.283  0.3989  0.1699 -0.2088
 1011TIP3    H1 3039   2.362   5.063   1.239 -1.1843 -1.5028 -0.4330
 1011TIP3    H2 3040   2.214   5.090   1.251 -0.5368  2.2853  0.1677
 1012TIP3   OH2 3041   4.579   3.995   4.760  0.4499  0.8734 -0.2525
 1012TIP3    H1 3042   4.619   4.073   4.722 -0.6330 -0.0389 -3.6606
 1012TIP3    H2 3043   4.486   4.016   4.766  0.5039  0.7272  1.3388
 1013TIP3   OH2 3044   0.192   5.231   1.518 -0.1622 -0.5690  0.0187
 1013TIP3    H1 3045   0.115   5.230   1.461 -0.5364 -3.7356  0.3933
 1013TIP3    H2 3046   0.260   5.186   1.467  0.4380 -0.6646  0.8859
 1014TIP3   OH2 3047   1.829   3.059   0.748 -0.0069  0.0215 -0.1197
 1014TIP3    H1 3048   1.811   2.998   0.677  0.1130 -0.4567  0.2601
 1014TIP3    H2 3049   1.771   3.133   0.731 -0.0534 -0.1333 -0.6578
 1015TIP3   OH2 3050   1.606   2.784   2.863 -0.7502 -0.3707 -0.4513
 1015TIP3    H1 3051   1.557   2.852   2.912 -0.7675 -0.5508 -0.2144
 1015TIP3    H2 3052   1.656   2.833   2.799  0.6110  0.0420  0.8650
 1016TIP3   OH2 3053   2.547   4.367   1.580 -0.5636  0.7243  0.3454
 1016TIP3    H1 3054   2.597   4.349   1.501 -1.2790  0.1388  0.0130
 1016TIP3    H2 3055   2.601   4.429   1.630  0.7159 -0.2703  0.2435
 1017TIP3   OH2 3056   3.663   5.527   0.270 -0.4593  0.5010  0.4183
 1017TIP3    H1 3057   3.696   5.608   0.309  0.3723  1.5699 -2.2634
 1017TIP3    H2 3058   3.568   5.538   0.271 -0.4610  0.6109  1.7750
 1018TIP3   OH2 3059   1.453   3.149   3.422  0.0104  0.4239  0.3618
 1018TIP3    H1 3060   1.362   3.179   3.434 -1.2749 -2.0006 -2.0830
 1018TIP3    H2 3061   1.452   3.059   3.454  0.9341 -0.3376 -1.6032
 1019TIP3   OH2 3062   3.525   1.774   1.365 -0.1644 -0.3148  0.0509
 1019TIP3    H1 3063   3.564   1.760   1.279  0.7691  0.0536  0.3974
 1019TIP3    H2 3064   3.463   1.702   1.376 -1.9369  0.8161 -1.8213
 1020TIP3   OH2 3065   1.339   5.821   0.360  0.2999 -0.0420 -0.0719
 1020TIP3    H1 3066   1.365   5.736   0.326 -0.8618 -0.2519 -0.4817
 1020TIP3    H2 3067   1.383   5.828   0.445  0.8319 -0.8151 -0.2768
 1021TIP3   OH2 3068   5.935   4.322   0.367 -0.6242  0.7247  0.0577
 1021TIP3    H1 3069   5.962   4.310   0.459  0.8313  1.2448 -0.2706
 1021TIP3    H2 3070   6.010   4.292   0.316 -2.1270 -1.3910 -1.0627
 1022TIP3   OH2 3071   4.533   0.954   3.048 -0.1583 -0.8738  0.9427
 1022TIP3    H1 3072   4.496   0.878   3.002 -1.3259  1.4143 -2.2098
 1022TIP3    H2 3073   4.622   0.962   3.015 -0.6227  0.1066 -0.1332
 1023TIP3   OH2 3074   0.052   1.610   0.566 -0.1653  0.9514 -0.6001
 1023TIP3    H1 3075  -0.015   1.559   0.520 -0.9608  0.8599  0.5907
 1023TIP3    H2 3076   0.089   1.549   0.630  0.3290  1.2916 -0.5537
 1024TIP3   OH2 3077   5.613   5.471   0.848  0.4857  0.3122  0.3398
 1024TIP3    H1 3078   5.569   5.509   0.772  0.2830  1.0538  0.8169
 1024TIP3    H2 3079   5.704   5.464   0.822  0.3865  0.4073 -0.0378
 1025TIP3   OH2 3080   5.445   2.135   2.151  0.6425  0.1396 -0.5802
 1025TIP3    H1 3081   5.520   2.134   2.091  2.1291  1.7621  1.0836
 1025TIP3    H2 3082   5.420   2.227   2.155  0.2823  0.0004  0.8745
 1026TIP3   OH2 3083   3.375   5.013   4.752  0.6086  0.0860  0.0247
 1026TIP3    H1 3084   3.349   4.977   4.667  2.9608  0.1760 -0.8054
 1026TIP3    H2 3085   3.310   5.081   4.770 -0.8202 -0.9623 -0.9362
 1027TIP3   OH2 3086   1.462   4.083   3.424  0.2975  0.3323  0.4218
 1027TIP3    H1 3087   1.473   3.989   3.437 -0.2755  0.4767  2.2454
 1027TIP3    H2 3088   1.541   4.122   3.461  0.1497  0.6093  0.4513
 1028TIP3   OH2 3089   5.403   2.448   4.604  0.7447  0.0703  0.6161
 1028TIP3    H1 3090   5.435   2.529   4.644 -0.2181  1.5172 -1.3754
 1028TIP3    H2 3091   5.475   2.419   4.548  0.9933 -0.3493  1.1384
 1029TIP3   OH2 3092   2.013   4.810   2.974 -0.1373 -0.0217  0.3413
 1029TIP3    H1 3093   2.064   4.890   2.986 -0.5829  0.2106  0.6899
 1029TIP3    H2 3094   2.020   4.764   3.057 -1.6586  0.6869  0.8929
 1030TIP3   OH2 3095   4.568   0.844   2.591  0.1306  0.4931  0.0682
 1030TIP3    H1 3096   4.617   0.764   2.573 -0.7348  0.1162 -0.7264
 1030TIP3    H2 3097   4.622   0.914   2.556  0.1682  0.0972 -0.6968
 1031TIP3   OH2 3098   1.825   0.842   3.704  0.2060  0.5232 -0.0338
 1031TIP3    H1 3099   1.767   0.781   3.658  1.2625 -0.7347  0.2568
 1031TIP3    H2 3100   1.765   0.902   3.748 -0.8788 -0.2815 -0.3566
 1032TIP3   OH2 3101   5.339   5.599   1.890 -0.0992 -0.3752  0.1826
 1032TIP3    H1 3102   5.418   5.557   1.925  0.1895  0.2791  0.3377
 1032TIP3    H2 3103   5.273   5.529   1.889  0.3073 -0.7752  0.6332
 1033TIP3   OH2 3104   3.229   4.401   0.990  0.5105  0.1358  0.3607
 1033TIP3    H1 3105   3.266   4.347   0.921  2.1216  0.4477  0.9337
 1033TIP3    H2 3106   3.157   4.348   1.026  0.2113 -0.3823 -0.9558
 1034TIP3   OH2 3107   3.418   3.189   1.167 -0.1264 -0.2181 -0.1397
 1034TIP3    H1 3108   3.457   3.276   1.158 -0.4196 -0.1730 -1.1513
 1034TIP3    H2 3109   3.461   3.137   1.099  0.0682 -0.8701  0.4833
 1035TIP3   OH2 3110   4.805   3.333   4.826  0.4713  0.2270 -0.2925
 1035TIP3    H1 3111   4.851   3.366   4.903  0.6114 -1.1459  0.2337
 1035TIP3    H2 3112   4.738   3.275   4.861 -2.1588  2.6004 -0.9976
 1036TIP3   OH2 3113   2.565   4.534   4.654 -0.6563  0.0141 -0.4246
 1036TIP3    H1 3114   2.541   4.442   4.649 -0.0491 -0.3771  2.4439
 1036TIP3    H2 3115   2.512   4.576   4.585 -0.1977 -2.5351 -2.4986
 1037TIP3   OH2 3116   1.025   1.812   2.491 -0.7806  0.4789 -0.3316
 1037TIP3    H1 3117   1.036   1.764   2.573 -1.9207  0.3992 -0.2113
 1037TIP3    H2 3118   1.102   1.868   2.486 -0.6826  0.4653  0.7806
 1038TIP3   OH2 3119   6.001   5.345   2.931  0.3358 -0.0638 -0.0552
 1038TIP3    H1 3120   5.914   5.383   2.944  0.6986  0.5870  0.4862
 1038TIP3    H2 3121   6.015   5.290   3.008 -0.3902 -1.7554 -1.0530
 1039TIP3   OH2 3122   6.020   2.668   0.049  0.1457  0.2609 -0.1649
 1039TIP3    H1 3123   6.061   2.623  -0.025 -1.0518  0.7365 -1.1423
 1039TIP3    H2 3124   5.950   2.610   0.078 -0.1874  0.6396 -0.2059
 1040TIP3   OH2 3125   3.834   0.104   4.309  0.3365  0.2120  0.2128
 1040TIP3    H1 3126   3.912   0.157   4.293  0.4813 -0.4268 -1.4590
 1040TIP3    H2 3127   3.844   0.072   4.398  1.8737  0.3510  0.1223
 1041TIP3   OH2 3128   2.836   0.804   3.598 -0.3959 -0.4217  0.5504
 1041TIP3    H1 3129   2.863   0.712   3.592 -0.8433 -0.4911 -0.7344
 1041TIP3    H2 3130   2.745   0.801   3.629 -0.2917 -0.3857  0.8659
 1042TIP3   OH2 3131   1.604   3.802   4.187  0.4045 -0.3058 -0.6714
 1042TIP3    H1 3132   1.555   3.731   4.144 -0.7728  0.3336 -0.4463
 1042TIP3    H2 3133   1.538   3.848   4.239  1.3279  0.4136 -0.1025
 1043TIP3   OH2 3134   3.460   0.473   0.554  0.4728 -0.0577  0.0352
 1043TIP3    H1 3135   3.380   0.523   0.540  1.2830  1.8816  1.7802
 1043TIP3    H2 3136   3.489   0.498   0.642  4.2757  1.2483 -1.3775
 1044TIP3   OH2 3137   1.140   1.351   0.165 -0.1744 -0.2832  0.0556
 1044TIP3    H1 3138   1.153   1.325   0.256 -0.7831 -1.5518 -0.2000
 1044TIP3    H2 3139   1.227   1.372   0.133 -0.2003  2.8525  1.6575
 1045TIP3   OH2 3140   4.607   2.091   3.925  1.0908 -0.1364  0.0219
 1045TIP3    H1 3141   4.586   2.101   4.018 -1.5386  0.3609 -0.5635
 1045TIP3    H2 3142   4.621   1.997   3.914 -0.0198 -0.3936  0.6639
 1046TIP3   OH2 3143   2.794   3.348   2.905  0.5492 -0.1203 -0.4737
 1046TIP3    H1 3144   2.831   3.407   2.839 -1.6107 -1.2209 -2.8475
 1046TIP3    H2 3145   2.717   3.394   2.937  0.9465 -0.0941  0.4663
 1047TIP3   OH2 3146   5.290   2.549   0.865 -0.0091 -0.4590 -0.4326
 1047TIP3    H1 3147   5.201   2.515   0.880  0.1023 -0.6263 -0.1267
 1047TIP3    H2 3148   5.346   2.483   0.906  0.4393 -1.9928 -3.2805
 1048TIP3   OH2 3149   3.644  -0.035   4.179 -0.5753  0.5897 -0.2206
 1048TIP3    H1 3150   3.605   0.046   4.145  1.8528  1.3473 -1.4578
 1048TIP3    H2 3151   3.715  -0.004   4.236 -0.1090 -0.6864 -0.0905
 1049TIP3   OH2 3152   4.750   4.564   0.577  0.6779 -0.0549  0.1495
 1049TIP3    H1 3153   4.803   4.511   0.517  0.3115  1.0013 -1.1600
 1049TIP3    H2 3154   4.784   4.543   0.664  2.6437 -0.0862 -0.5778
 1050TIP3   OH2 3155   5.496   4.084   3.512  0.3670 -0.2793  0.0733
 1050TIP3    H1 3156   5.418   4.054   3.464  0.5758  0.5154 -0.7973
 1050TIP3    H2 3157   5.496   4.032   3.592 -0.3906 -1.1487 -0.4653
 1051TIP3   OH2 3158   5.943   2.437   2.784  0.6448  0.2351 -0.0125
 1051TIP3    H1 3159   5.879   2.371   2.812 -2.5921  3.0881  0.0044
 1051TIP3    H2 3160   5.946   2.428   2.689 -0.2118  0.3625 -0.0659
 1052TIP3   OH2 3161   5.975   4.142   5.036 -0.0817 -0.0859 -0.4050
 1052TIP3    H1 3162   6.010   4.055   5.019 -0.4652 -0.0048 -1.7715
 1052TIP3    H2 3163   6.026   4.200   4.979  0.9701  0.7799  1.3448
 1053TIP3   OH2 3164   4.735   2.931   3.323  0.4451 -0.9204  0.4114
 1053TIP3    H1 3165   4.777   2.858   3.369 -0.1984 -1.1255  0.6889
 1053TIP3    H2 3166   4.669   2.889   3.267  0.4879 -0.5912  0.1097
 1054TIP3   OH2 3167   2.922   1.585   3.928  0.0926 -0.2043  0.0190
 1054TIP3    H1 3168   2.976   1.531   3.871  1.0304 -0.0901  0.7609
 1054TIP3    H2 3169   2.862   1.631   3.869  2.6366  1.8096 -1.2051
 1055TIP3   OH2 3170   1.589   0.865   2.488  0.5818 -0.2338  0.1168
 1055TIP3    H1 3171   1.535   0.895   2.561 -1.2996 -1.6221 -0.6300
 1055TIP3    H2 3172   1.593   0.940   2.429  0.2378  0.1700  0.5937
 1056TIP3   OH2 3173   5.078   0.206   2.779 -0.0426 -0.0554 -0.1110
 1056TIP3    H1 3174   5.062   0.136   2.715 -1.0447 -0.3717  0.4780
 1056TIP3    H2 3175   5.001   0.206   2.835  0.2091  1.1484  0.2568
 1057TIP3   OH2 3176   1.098   1.005   2.876 -0.3528  0.1249 -0.1241
 1057TIP3    H1 3177   1.159   0.961   2.816 -0.3271 -0.5556  0.3858
 1057TIP3    H2 3178   1.147   1.015   2.957 -0.8677 -0.3214  0.2537
 1058TIP3   OH2 3179   4.489   3.528   5.040  0.4129  0.5244 -0.1282
 1058TIP3    H1 3180   4.405   3.483   5.028  0.7130 -0.0868  0.0255
 1058TIP3    H2 3181   4.481   3.607   4.987  0.2637 -0.2117 -1.2425
 1059TIP3   OH2 3182   1.226   0.842   0.269  0.3158 -0.0463 -0.5404
 1059TIP3    H1 3183   1.232   0.833   0.364 -0.1508  4.0582  0.0549
 1059TIP3    H2 3184   1.135   0.865   0.253  0.4076 -0.6062 -2.0184
 1060TIP3   OH2 3185   5.598   4.580   0.991 -0.0645 -0.3619 -0.2334
 1060TIP3    H1 3186   5.664   4.575   0.922  0.2903 -0.0841  0.0804
 1060TIP3    H2 3187   5.624   4.655   1.044  0.4211 -1.3386  0.9661
 1061TIP3   OH2 3188   0.876   0.614   2.644 -0.6742 -0.2508 -0.3800
 1061TIP3    H1 3189   0.938   0.579   2.580  0.6374 -2.4460  1.8843
 1061TIP3    H2 3190   0.796   0.565   2.630 -0.8448  0.2384 -1.1723
 1062TIP3   OH2 3191   0.231   1.922   2.370  0.1753  0.1306 -0.3310
 1062TIP3    H1 3192   0.320   1.957   2.370  0.1475  0.2371  0.7839
 1062TIP3    H2 3193   0.180   1.984   2.318  0.3475  1.1733  0.7114
 1063TIP3   OH2 3194   1.449   4.345   4.362 -0.6798 -0.0720 -0.2966
 1063TIP3    H1 3195   1.383   4.360   4.295 -1.2677  2.7429  0.8015
 1063TIP3    H2 3196   1.528   4.321   4.313 -2.0008 -1.8596 -1.7001
 1064TIP3   OH2 3197   5.120   3.144   0.059 -0.0700  0.5148 -0.1842
 1064TIP3    H1 3198   5.152   3.228   0.093  1.3186 -0.3861  0.8068
 1064TIP3    H2 3199   5.030   3.138   0.092  0.4836  0.7200  1.4857
 1065TIP3   OH2 3200   2.509   5.778   1.541  0.0478  0.2809 -0.8325
 1065TIP3    H1 3201   2.494   5.788   1.447  0.9577 -2.9253 -1.4273
 1065TIP3    H2 3202   2.598   5.743   1.548 -0.3721 -0.5283  1.1542
 1066TIP3   OH2 3203   3.479   4.963   2.240 -0.3498 -0.1115 -0.2348
 1066TIP3    H1 3204   3.470   5.053   2.211  0.3983 -0.1873 -0.7434
 1066TIP3    H2 3205   3.423   4.912   2.181  0.3856 -0.1450 -0.9253
 1067TIP3   OH2 3206   3.904   1.822   5.094 -0.3308  0.8011 -0.3150
 1067TIP3    H1 3207   3.825   1.791   5.051  0.7660  0.0670 -1.9141
 1067TIP3    H2 3208   3.972   1.818   5.026  1.6244 -0.8585  1.5655
 1068TIP3   OH2 3209   6.235   2.699   1.337 -0.5936 -0.2689 -0.2956
 1068TIP3    H1 3210   6.268   2.702   1.248  2.2954  1.9769  0.6824
 1068TIP3    H2 3211   6.198   2.786   1.352 -2.0843 -0.9794  0.4108
 1069TIP3   OH2 3212   1.845   4.031   3.390  0.1806  0.2337 -0.1961
 1069TIP3    H1 3213   1.794   4.059   3.466 -0.9499  2.2016 -1.6010
 1069TIP3    H2 3214   1.929   4.076   3.400  1.0180 -1.4595  1.0844
 1070TIP3   OH2 3215   1.041   0.399   1.211 -0.1037 -0.1091  0.2523
 1070TIP3    H1 3216   0.949   0.422   1.198 -0.6219 -1.5871  1.0591
 1070TIP3    H2 3217   1.081   0.408   1.124 -1.3267 -0.7562 -0.3971
 1071TIP3   OH2 3218   5.080   4.585   2.710  0.0257  0.0122  0.1685
 1071TIP3    H1 3219   5.137   4.511   2.691  1.2447  1.2595 -1.2865
 1071TIP3    H2 3220   5.013   4.550   2.769  1.8082 -1.6820  1.2687
 1072TIP3   OH2 3221   4.646   5.854   2.918 -0.2269 -0.4638  0.0232
 1072TIP3    H1 3222   4.632   5.759   2.917  0.3773 -0.5522 -0.0546
 1072TIP3    H2 3223   4.738   5.865   2.895 -0.2789  0.1410  0.0995
 1073TIP3   OH2 3224   0.790   3.947   1.449 -0.2182  0.0497  0.5059
 1073TIP3    H1 3225   0.699   3.975   1.437  0.8409  4.3528  0.8093
 1073TIP3    H2 3226   0.792   3.908   1.536 -2.0754 -2.2558 -0.3704
 1074TIP3   OH2 3227   3.939   4.867   3.369  0.4248 -0.0049 -0.6743
 1074TIP3    H1 3228   3.857   4.871   3.320  1.1468 -0.9899 -2.0421
 1074TIP3    H2 3229   3.961   4.773   3.372  0.8371  0.1169  0.8259
 1075TIP3   OH2 3230   1.007   4.289   2.547 -0.4746 -0.3895 -0.1026
 1075TIP3    H1 3231   1.047   4.317   2.464 -0.5587  0.4310  0.1218
 1075TIP3    H2 3232   0.979   4.199   2.531 -1.3374  0.0588 -1.2849
 1076TIP3   OH2 3233   3.586   3.894   3.942  0.0955  0.2283 -0.2679
 1076TIP3    H1 3234   3.588   3.931   3.854  2.4189  1.1209  0.0962
 1076TIP3    H2 3235   3.496   3.905   3.971 -0.0526  2.6173 -1.4439
 1077TIP3   OH2 3236   0.962   0.730   3.619 -0.5320  0.0170 -0.2887
 1077TIP3    H1 3237   0.909   0.655   3.591 -0.0651 -0.7197  0.6998
 1077TIP3    H2 3238   1.052   0.706   3.595 -0.4646  0.5764 -0.5948
 1078TIP3   OH2 3239   2.547   2.737   4.940  0.1759 -0.8014  0.0031
 1078TIP3    H1 3240   2.520   2.782   5.019 -1.0949  0.3209 -1.0132
 1078TIP3    H2 3241   2.643   2.740   4.941  0.1499  0.0472  0.9993
 1079TIP3   OH2 3242   5.830   3.586   3.324 -0.1085 -0.3844  0.3037
 1079TIP3    H1 3243   5.781   3.505   3.304 -0.7666  0.2103 -0.5789
 1079TIP3    H2 3244   5.762   3.648   3.351 -0.0645  0.8482 -2.1600
 1080TIP3   OH2 3245   4.797   2.917   2.597  0.3371  0.0822 -0.0041
 1080TIP3    H1 3246   4.831   2.931   2.509 -1.5317  0.5338 -0.7026
 1080TIP3    H2 3247   4.759   3.001   2.622  0.0289 -0.2986  0.8606
 1081TIP3   OH2 3248   2.887   5.330   1.596 -0.0669 -0.3295  0.0935
 1081TIP3    H1 3249   2.927   5.377   1.523 -1.8113  0.5466 -0.3489
 1081TIP3    H2 3250   2.827   5.393   1.635  1.1509 -0.6169  2.6304
 1082TIP3   OH2 3251   1.626   2.026   0.767 -0.8550  0.5589  0.0504
 1082TIP3    H1 3252   1.721   2.024   0.775 -0.5354  1.6908 -2.3667
 1082TIP3    H2 3253   1.603   1.939   0.732 -0.8218  0.0504  1.2508
 1083TIP3   OH2 3254   4.127   4.231   2.409 -0.4064 -0.2490  0.1414
 1083TIP3    H1 3255   4.092   4.306   2.459  0.6540  1.1142 -1.0656
 1083TIP3    H2 3256   4.150   4.268   2.324  3.3832 -1.1223  0.6013
 1084TIP3   OH2 3257   5.057   2.348   3.221  0.2947  0.1639  0.0893
 1084TIP3    H1 3258   4.979   2.301   3.192  1.6324 -1.3667 -1.3094
 1084TIP3    H2 3259   5.113   2.351   3.143  0.1594  4.5868 -0.0451
 1085TIP3   OH2 3260   5.877   3.209   0.514  0.3221  0.2954 -0.3289
 1085TIP3    H1 3261   5.810   3.276   0.518 -0.0184 -0.0786  1.0312
 1085TIP3    H2 3262   5.959   3.257   0.502 -0.1403  0.7730 -1.7189
 1086TIP3   OH2 3263   4.136   0.051   3.021 -0.0627  0.3750  0.7936
 1086TIP3    H1 3264   4.125   0.126   3.080 -0.8763 -0.9225  2.3832
 1086TIP3    H2 3265   4.046   0.028   2.995  0.2694  0.7398 -0.7569
 1087TIP3   OH2 3266   0.817   0.121   3.862  0.1767 -0.4829  0.2713
 1087TIP3    H1 3267   0.798   0.042   3.811 -0.3288 -0.6572  0.7185
 1087TIP3    H2 3268   0.767   0.110   3.943  0.0281  0.3366  0.3006
 1088TIP3   OH2 3269   6.171   5.769   2.632 -0.5904 -0.3838  1.1019
 1088TIP3    H1 3270   6.167   5.753   2.538 -2.1966 -0.6054  1.1812
 1088TIP3    H2 3271   6.183   5.864   2.640  0.5560 -0.4739  0.6938
 1089TIP3   OH2 3272   1.649   4.657   3.642 -0.2631  0.1609  0.2458
 1089TIP3    H1 3273   1.738   4.639   3.675 -0.4258 -1.5903 -0.1262
 1089TIP3    H2 3274   1.663   4.692   3.554  0.0785 -0.1964  0.1518
 1090TIP3   OH2 3275   4.298   2.538   0.213  0.0331  0.0466 -0.7797
 1090TIP3    H1 3276   4.381   2.586   0.209  0.1410 -0.2049 -1.8750
 1090TIP3    H2 3277   4.316   2.463   0.268 -0.8021  2.4496  3.1979
 1091TIP3   OH2 3278   1.359   2.390   2.128 -0.1979 -0.1054 -0.0861
 1091TIP3    H1 3279   1.310   2.374   2.047  0.4853 -0.0315 -0.5155
 1091TIP3    H2 3280   1.376   2.485   2.128 -1.5632  0.1789  0.9361
 1092TIP3   OH2 3281   3.338   4.975   3.000 -0.0341  0.4741 -0.5115
 1092TIP3    H1 3282   3.406   4.978   2.932  1.3039  1.7260  0.8096
 1092TIP3    H2 3283   3.287   5.055   2.985 -0.5864  0.0612 -0.8603
 1093TIP3   OH2 3284   1.911   0.305   4.555 -0.3194 -0.2293 -0.4927
 1093TIP3    H1 3285   1.817   0.291   4.562 -0.1983 -0.0645  2.3668
 1093TIP3    H2 3286   1.920   0.399   4.536 -0.7269  0.1782  1.2132
 1094TIP3   OH2 3287   5.854   4.610   4.644  0.7502 -0.3085  0.3440
 1094TIP3    H1 3288   5.776   4.639   4.596  0.1667 -2.6320 -0.2314
 1094TIP3    H2 3289   5.915   4.683   4.637  0.1450  0.0353 -2.7345
 1095TIP3   OH2 3290   0.964   3.994   4.505 -0.0815  0.1194 -0.2560
 1095TIP3    H1 3291   1.035   3.984   4.568 -0.5499  1.9827  0.6407
 1095TIP3    H2 3292   0.967   4.087   4.480 -3.3907  0.7973  1.3338
 1096TIP3   OH2 3293   5.011   1.256   1.807  0.2663 -0.4348 -0.0877
 1096TIP3    H1 3294   4.939   1.319   1.815 -0.0391 -0.7024 -0.6713
 1096TIP3    H2 3295   4.984   1.181   1.861  0.9844  0.2308  1.2490
 1097TIP3   OH2 3296   1.105   3.639   1.344 -0.3438 -0.1497  0.0186
 1097TIP3    H1 3297   1.164   3.565   1.352  0.4392  0.2737 -1.4732
 1097TIP3    H2 3298   1.045   3.631   1.418  1.4022 -0.7394  1.4115
 1098TIP3   OH2 3299   2.683   0.476   2.995  0.2767  0.2008  0.1088
 1098TIP3    H1 3300   2.774   0.495   2.974  0.2696  0.6623  0.4901
 1098TIP3    H2 3301   2.633   0.544   2.949 -0.0808 -1.4387 -2.1448
 1099TIP3   OH2 3302   6.228   5.582   0.995  0.1971 -0.4717  0.0395
 1099TIP3    H1 3303   6.150   5.538   1.031 -0.3077  1.4445  1.4912
 1099TIP3    H2 3304   6.302   5.536   1.036 -0.1242 -2.0593 -1.0525
 1100TIP3   OH2 3305   2.900   4.473   3.708 -0.7290 -0.5615 -0.2167
 1100TIP3    H1 3306   2.907   4.392   3.759 -0.7161  0.0363  0.7559
 1100TIP3    H2 3307   2.841   4.528   3.759 -2.3332 -0.6869 -1.8581
 1101TIP3   OH2 3308   1.971   2.993   3.338 -0.3105 -0.1696 -0.0630
 1101TIP3    H1 3309   2.057   2.955   3.318  0.6893  2.0786 -0.2803
 1101TIP3    H2 3310   1.956   2.970   3.430  0.5749 -0.4838  0.0125
 1102TIP3   OH2 3311   3.387   0.112   2.655 -0.2931  0.1478  0.0129
 1102TIP3    H1 3312   3.377   0.207   2.651  2.3490  0.4430 -1.5414
 1102TIP3    H2 3313   3.299   0.078   2.639 -0.8028  2.3336 -2.4774
 1103TIP3   OH2 3314   5.129   3.565   0.893  0.5664  0.1588  0.1731
 1103TIP3    H1 3315   5.171   3.610   0.966 -0.4768  2.1370 -0.3694
 1103TIP3    H2 3316   5.101   3.481   0.929  1.0798  0.6215  1.7287
 1104TIP3   OH2 3317   1.281   5.883   0.668  0.2472  0.1663 -0.2397
 1104TIP3    H1 3318   1.308   5.795   0.643  1.9702  0.3831  0.6913
 1104TIP3    H2 3319   1.186   5.881   0.665  0.2693 -1.0040 -2.5698
 1105TIP3   OH2 3320   1.987   0.592   4.113 -0.6641 -0.4039  0.0564
 1105TIP3    H1 3321   1.981   0.525   4.045 -2.0636  1.4225 -1.7405
 1105TIP3    H2 3322   1.908   0.580   4.166  0.4597 -1.8712  1.5199
 1106TIP3   OH2 3323   0.671   2.073   0.376  0.4478 -0.4010  0.4514
 1106TIP3    H1 3324   0.616   2.070   0.454 -1.0031 -0.5696 -0.5411
 1106TIP3    H2 3325   0.610   2.063   0.303  1.5566  1.3329 -0.8028
 1107TIP3   OH2 3326   4.737   1.666   3.228  0.7815 -0.4980  0.7602
 1107TIP3    H1 3327   4.716   1.576   3.252 -1.7418  0.0989  1.0822
 1107TIP3    H2 3328   4.819   1.659   3.179  1.2646 -2.8018  1.7691
 1108TIP3   OH2 3329   2.505   3.116   2.534  0.1033  0.1233  0.7430
 1108TIP3    H1 3330   2.488   3.144   2.624 -0.1883  0.4476  0.5905
 1108TIP3    H2 3331   2.558   3.186   2.497 -2.0215  1.3610 -0.1527
 1109TIP3   OH2 3332   3.851   5.087   0.514 -0.4795  0.1552  0.2455
 1109TIP3    H1 3333   3.799   5.144   0.457  0.4396  1.1498  0.3608
 1109TIP3    H2 3334   3.810   5.096   0.600 -2.4278 -2.0485 -0.3479
 1110TIP3   OH2 3335   4.471   1.336   4.131  0.2038 -0.1569  0.3125
 1110TIP3    H1 3336   4.393   1.365   4.084  0.8898  1.7312  0.2552
 1110TIP3    H2 3337   4.540   1.334   4.065  1.1500  2.4118  1.1067
 1111TIP3   OH2 3338   1.169   1.675   1.097  0.0870 -0.4121  0.4402
 1111TIP3    H1 3339   1.174   1.663   1.191 -0.2086 -0.6859  0.4236
 1111TIP3    H2 3340   1.122   1.598   1.065 -2.6443  1.0975  0.4385
 1112TIP3   OH2 3341   4.685   1.309   2.540 -0.6060 -0.0188  0.1118
 1112TIP3    H1 3342   4.683   1.223   2.497  0.9222 -0.6037  1.1306
 1112TIP3    H2 3343   4.778   1.332   2.543 -0.7791  0.5706  1.9807
 1113TIP3   OH2 3344   1.387   5.825   4.480  0.0306 -0.3101 -0.4719
 1113TIP3    H1 3345   1.302   5.790   4.453 -0.7858  0.0466  1.4588
 1113TIP3    H2 3346   1.380   5.832   4.575  2.0936  0.1094 -0.3161
 1114TIP3   OH2 3347   0.425   4.674   0.251 -0.5193  0.0932  0.7609
 1114TIP3    H1 3348   0.370   4.749   0.231  0.7814  0.9549  0.2884
 1114TIP3    H2 3349   0.389   4.603   0.198 -1.9851  0.2546  1.4879
 1115TIP3   OH2 3350   5.032   1.330   3.331 -1.0593  0.0160 -0.4290
 1115TIP3    H1 3351   5.020   1.337   3.426  1.0628  1.4512 -0.1991
 1115TIP3    H2 3352   5.056   1.418   3.304 -1.2102 -0.4766 -2.2635
 1116TIP3   OH2 3353   0.458   3.039   2.150 -0.0155  0.3715 -0.0668
 1116TIP3    H1 3354   0.504   2.982   2.211 -1.4975  0.1847  0.9276
 1116TIP3    H2 3355   0.441   3.119   2.200  0.7276  1.1151 -0.9744
 1117TIP3   OH2 3356   3.354   2.289   0.561 -0.1098 -0.1779 -0.1361
 1117TIP3    H1 3357   3.331   2.338   0.481 -0.1815 -0.1206 -0.0811
 1117TIP3    H2 3358   3.438   2.325   0.588 -0.1995 -0.0255 -0.0510
 1118TIP3   OH2 3359   5.416   2.330   3.333  0.5142 -0.4251  0.0660
 1118TIP3    H1 3360   5.347   2.367   3.279 -1.7748 -1.2610  2.1859
 1118TIP3    H2 3361   5.446   2.403   3.387  0.1137 -0.3844  0.2403
 1119TIP3   OH2 3362   2.926   1.264   1.219 -0.0548  0.8886 -0.1910
 1119TIP3    H1 3363   3.001   1.285   1.164 -0.8872 -0.3861 -1.9311
 1119TIP3    H2 3364   2.963   1.223   1.297  1.1618  2.7568  0.2682
 1120TIP3   OH2 3365   5.340   0.489   2.604 -0.2028 -0.0523 -0.0820
 1120TIP3    H1 3366   5.405   0.422   2.626 -0.7119 -0.3502  0.5501
 1120TIP3    H2 3367   5.379   0.538   2.531  0.6169 -0.3831  0.1299
 1121TIP3   OH2 3368   5.141   0.661   0.760  0.3237 -0.3143 -0.2810
 1121TIP3    H1 3369   5.081   0.587   0.753  2.5525 -2.4153  1.0990
 1121TIP3    H2 3370   5.213   0.640   0.700  0.9911  0.7411  0.1205
 1122TIP3   OH2 3371   2.984   5.685   0.226  0.8422 -0.4278  0.0596
 1122TIP3    H1 3372   2.937   5.607   0.197  0.5009 -0.8683  1.6695
 1122TIP3    H2 3373   3.054   5.696   0.163  0.9435 -2.0990 -0.1576
 1123TIP3   OH2 3374   1.594   4.311   1.383 -0.2735 -0.3060 -0.2149
 1123TIP3    H1 3375   1.617   4.219   1.372  2.0040 -0.0416  1.5040
 1123TIP3    H2 3376   1.666   4.359   1.342 -1.1874  0.7448 -0.6601
 1124TIP3   OH2 3377   4.192   0.179   0.800  0.0248  0.0629 -0.2357
 1124TIP3    H1 3378   4.217   0.203   0.711  0.7292  0.5114  0.0731
 1124TIP3    H2 3379   4.179   0.084   0.797  0.6353 -0.0138 -0.6799
 1125TIP3   OH2 3380   3.612   3.994   3.665  0.0646  0.2821 -0.6493
 1125TIP3    H1 3381   3.529   4.028   3.632  0.2590  0.9673 -0.4329
 1125TIP3    H2 3382   3.633   3.922   3.604 -0.7463  0.0064 -0.6227
 1126TIP3   OH2 3383  -0.037   2.275   3.577  0.1701 -0.7003 -0.4751
 1126TIP3    H1 3384   0.004   2.231   3.651  0.5078 -1.7883 -1.2743
 1126TIP3    H2 3385   0.034   2.321   3.534  0.5018 -2.1046 -1.5198
 1127TIP3   OH2 3386   5.402   0.601   0.950 -0.3307 -0.4582 -0.3165
 1127TIP3    H1 3387   5.309   0.624   0.951 -0.1116  0.4697  0.0595
 1127TIP3    H2 3388   5.403   0.505   0.952 -1.2916 -0.4934  1.6986
 1128TIP3   OH2 3389   1.719   3.634   4.408 -0.5090  0.3600  0.0677
 1128TIP3    H1 3390   1.662   3.674   4.342 -0.9591  0.5509  0.5695
 1128TIP3    H2 3391   1.676   3.551   4.431 -1.1261  0.9680  1.1804
 1129TIP3   OH2 3392   1.705   4.228   2.660 -0.1383 -0.4991 -0.0258
 1129TIP3    H1 3393   1.719   4.320   2.684  0.2381 -0.8023  0.9480
 1129TIP3    H2 3394   1.672   4.187   2.740  0.6442 -1.4228 -0.1578
 1130TIP3   OH2 3395   1.740   3.634   2.216  0.0940  0.0084 -0.0110
 1130TIP3    H1 3396   1.680   3.660   2.286 -0.9736  1.6630 -1.4564
 1130TIP3    H2 3397   1.823   3.676   2.238  1.1234 -2.8782  2.3898
 1131TIP3   OH2 3398   0.251   4.872   0.179  0.0362  0.4776  0.8555
 1131TIP3    H1 3399   0.155   4.876   0.169  0.0716 -1.4006 -0.9792
 1131TIP3    H2 3400   0.277   4.962   0.197 -2.1222  0.9442  2.0722
 1132TIP3   OH2 3401   1.457   3.685   3.106  0.1867 -0.2609  0.1229
 1132TIP3    H1 3402   1.449   3.670   3.012  0.6946  1.1420 -0.1591
 1132TIP3    H2 3403   1.466   3.597   3.143 -0.9277 -0.9075 -1.0252
 1133TIP3   OH2 3404   2.709   5.716   3.450  0.3822 -0.0228 -0.1717
 1133TIP3    H1 3405   2.738   5.680   3.534  0.0214 -0.8211 -0.3763
 1133TIP3    H2 3406   2.681   5.805   3.470 -0.3639 -0.4425  0.6899
 1134TIP3   OH2 3407   5.869   2.835   3.418  0.1446 -0.1333 -0.1755
 1134TIP3    H1 3408   5.896   2.746   3.393  0.2758  0.0218 -0.5808
 1134TIP3    H2 3409   5.864   2.832   3.514  0.9498 -0.3500 -0.1329
 1135TIP3   OH2 3410   1.618   5.878   0.872 -0.5174 -0.1446  0.5763
 1135TIP3    H1 3411   1.564   5.886   0.951 -1.7977 -1.9157 -0.0699
 1135TIP3    H2 3412   1.706   5.860   0.905 -1.0087 -0.7102  1.6141
 1136TIP3   OH2 3413   1.874   1.771   1.989  0.2377 -0.2876  0.3265
 1136TIP3    H1 3414   1.956   1.768   1.939 -0.1478  2.7626 -0.7073
 1136TIP3    H2 3415   1.814   1.716   1.939  0.1759  1.8484 -2.1709
 1137TIP3   OH2 3416   1.118   2.707   1.160 -0.2340 -0.1819  0.4088
 1137TIP3    H1 3417   1.067   2.630   1.187 -1.3738  1.1435  2.2167
 1137TIP3    H2 3418   1.054   2.778   1.157  0.7702  0.7229 -1.3655
 1138TIP3   OH2 3419   4.618   1.818   3.939  0.3303  0.4172  0.7402
 1138TIP3    H1 3420   4.541   1.798   3.992 -1.1432 -1.0728 -1.7355
 1138TIP3    H2 3421   4.687   1.761   3.974 -0.8253 -1.1302  0.5859
 1139TIP3   OH2 3422   2.112   5.139   4.872  0.4507  0.0482 -0.0493
 1139TIP3    H1 3423   2.190   5.164   4.822  0.8559 -2.1918 -0.6074
 1139TIP3    H2 3424   2.099   5.212   4.933  0.9192  2.0824 -2.2486
 1140TIP3   OH2 3425   3.191   3.774   1.285  0.2965 -0.0821 -0.5861
 1140TIP3    H1 3426   3.281   3.793   1.312 -0.5198  0.9785  1.6748
 1140TIP3    H2 3427   3.143   3.854   1.303 -1.5098 -1.2944  0.3712
 1141TIP3   OH2 3428   2.134   0.109   0.594  0.3831  0.0539  0.5128
 1141TIP3    H1 3429   2.096   0.196   0.611 -1.7035 -0.2260 -2.1076
 1141TIP3    H2 3430   2.088   0.051   0.655  1.0764  0.6141  1.5950
 1142TIP3   OH2 3431   3.341   2.716   3.362 -0.0814 -0.2548 -0.5405
 1142TIP3    H1 3432   3.324   2.786   3.425  1.1214 -0.2521 -0.1873
 1142TIP3    H2 3433   3.332   2.636   3.412  0.1877 -0.2802 -0.5304
 1143TIP3   OH2 3434   3.549   4.176   4.809 -0.0348 -0.5653 -0.2394
 1143TIP3    H1 3435   3.529   4.098   4.758  0.1401  0.1300 -1.3930
 1143TIP3    H2 3436   3.644   4.185   4.804  0.0517 -0.8424  0.7462
 1144TIP3   OH2 3437   2.643   1.016   2.600 -0.8549  0.2905 -0.0654
 1144TIP3    H1 3438   2.548   1.007   2.605 -0.6965 -0.9851  1.4899
 1144TIP3    H2 3439   2.659   1.110   2.614 -1.8557  0.4547  0.0559
 1145TIP3   OH2 3440   1.502   4.795   2.046 -0.4769 -0.1615  0.4473
 1145TIP3    H1 3441   1.493   4.780   2.140  0.2198  0.6344  0.6626
 1145TIP3    H2 3442   1.498   4.708   2.007  0.5743 -0.6381  1.3415
 1146TIP3   OH2 3443   5.323   5.791   3.349 -0.2795 -0.0699 -0.0876
 1146TIP3    H1 3444   5.294   5.722   3.410  0.7842 -0.1664  0.3286
 1146TIP3    H2 3445   5.419   5.787   3.352 -0.2099 -0.0276 -1.7409
 1147TIP3   OH2 3446   3.530   2.909   0.068 -0.0903 -0.7586  0.5837
 1147TIP3    H1 3447   3.585   2.944   0.137  0.8865 -0.5868 -0.2532
 1147TIP3    H2 3448   3.468   2.979   0.048  1.1343  0.1175 -0.3084
 1148TIP3   OH2 3449   2.637   1.902   0.909 -0.4770  0.1695  0.1938
 1148TIP3    H1 3450   2.606   1.816   0.881 -0.6606  0.4789 -0.5907
 1148TIP3    H2 3451   2.581   1.926   0.983  0.7331 -1.1498  1.6202
 1149TIP3   OH2 3452   4.125   5.501   5.105 -0.1395  0.3177 -0.3364
 1149TIP3    H1 3453   4.039   5.538   5.124 -0.8860 -1.4568 -0.0243
 1149TIP3    H2 3454   4.108   5.408   5.089  1.8119 -0.2368  0.4990
 1150TIP3   OH2 3455   1.119   3.652   1.903  0.2311 -0.1187 -0.5123
 1150TIP3    H1 3456   1.121   3.739   1.942 -0.0378  1.0368 -2.9165
 1150TIP3    H2 3457   1.036   3.615   1.931  0.5340  0.1763  0.8754
 1151TIP3   OH2 3458   2.019   3.649   1.405  0.6980 -0.2662  0.2980
 1151TIP3    H1 3459   2.101   3.656   1.454  1.8109 -0.7950 -1.4158
 1151TIP3    H2 3460   1.976   3.734   1.419  1.2749 -0.1719  1.6422
 1152TIP3   OH2 3461   4.402   1.503   4.991  0.2210 -0.8096 -0.1540
 1152TIP3    H1 3462   4.389   1.589   5.029 -0.1025 -2.1835  3.1736
 1152TIP3    H2 3463   4.496   1.498   4.973  0.4373 -0.1884  0.7691
 1153TIP3   OH2 3464   2.018   0.183   4.058 -0.2806 -0.0687 -0.5701
 1153TIP3    H1 3465   1.958   0.220   4.122 -1.3331 -0.9794 -1.0097
 1153TIP3    H2 3466   2.080   0.131   4.110 -0.7443 -0.2896 -0.2332
 1154TIP3   OH2 3467   5.289   5.741   0.731 -0.1157  0.3060 -0.3698
 1154TIP3    H1 3468   5.291   5.766   0.823 -0.0603 -0.3450 -0.1910
 1154TIP3    H2 3469   5.196   5.740   0.708 -0.2227 -0.8911  0.0647
 1155TIP3   OH2 3470   3.039   1.643   5.144  0.7159 -0.3844 -0.2323
 1155TIP3    H1 3471   3.007   1.565   5.098 -0.4436  0.3010 -0.6368
 1155TIP3    H2 3472   3.059   1.613   5.232  1.3141 -1.3585 -0.6824
 1156TIP3   OH2 3473   3.972   0.577   4.290 -0.1814  0.0855 -0.2089
 1156TIP3    H1 3474   3.913   0.537   4.226  0.7477  0.3429 -1.2626
 1156TIP3    H2 3475   3.916   0.598   4.365 -0.7488 -2.9848  0.3338
 1157TIP3   OH2 3476   0.593   5.283   3.389 -0.0664 -0.1216  0.6124
 1157TIP3    H1 3477   0.661   5.338   3.348  0.4823 -0.7439  0.6693
 1157TIP3    H2 3478   0.643   5.221   3.442 -0.7510  0.4486  1.9502
 1158TIP3   OH2 3479   1.134   3.243   0.978  0.7750 -0.0641  0.4325
 1158TIP3    H1 3480   1.171   3.240   0.890  0.0553 -0.7155  0.1339
 1158TIP3    H2 3481   1.132   3.151   1.006 -1.6916 -0.2525 -0.0632
 1159TIP3   OH2 3482   3.651   1.640   4.006  0.3429 -0.6608  0.2975
 1159TIP3    H1 3483   3.715   1.680   3.948  1.5471 -2.3524  0.3983
 1159TIP3    H2 3484   3.673   1.547   4.007 -1.2099 -1.0748  1.5001
 1160TIP3   OH2 3485   2.017   4.267   5.093  0.2041  0.4483 -0.6420
 1160TIP3    H1 3486   1.928   4.272   5.129  0.1940  2.5357 -0.8139
 1160TIP3    H2 3487   2.030   4.174   5.073 -1.6372 -0.0152  0.1118
 1161TIP3   OH2 3488   4.747   0.659   0.842 -0.0323  0.2481 -0.3320
 1161TIP3    H1 3489   4.688   0.727   0.811 -0.5554 -0.2966 -0.5375
 1161TIP3    H2 3490   4.796   0.632   0.764 -0.4065 -0.1808 -0.4260
 1162TIP3   OH2 3491   3.316   1.993   1.449  0.1248  0.7218 -0.3794
 1162TIP3    H1 3492   3.299   2.087   1.449  2.5313  1.3123  2.4165
 1162TIP3    H2 3493   3.264   1.959   1.522  0.1106  0.0656 -0.6862
 1163TIP3   OH2 3494   5.144   0.427   1.503  0.1140  0.2554 -0.2055
 1163TIP3    H1 3495   5.099   0.511   1.514 -0.0256  0.2240 -0.5173
 1163TIP3    H2 3496   5.115   0.375   1.578  0.4207  0.5774  0.1427
 1164TIP3   OH2 3497   2.497   2.355   2.237  0.9876  0.5040 -0.5445
 1164TIP3    H1 3498   2.471   2.440   2.270  0.4158 -0.3911  1.4392
 1164TIP3    H2 3499   2.484   2.295   2.310  0.1954 -1.5244 -2.2462
 1165TIP3   OH2 3500   0.460   2.069   0.199  0.0135 -0.1335 -0.4442
 1165TIP3    H1 3501   0.432   1.981   0.175  0.4464 -0.5314  0.4466
 1165TIP3    H2 3502   0.380   2.121   0.199 -0.2284 -0.5070 -1.0653
 1166TIP3   OH2 3503   4.684   4.961   4.106  0.2124 -0.5880 -0.1953
 1166TIP3    H1 3504   4.770   4.994   4.134 -0.1517  1.0317 -0.8792
 1166TIP3    H2 3505   4.647   4.922   4.185  0.1748  1.7854  1.0580
 1167TIP3   OH2 3506   3.778   2.980   0.546  0.5632 -0.0572 -0.2127
 1167TIP3    H1 3507   3.743   3.069   0.544  1.1134  0.1513 -0.6748
 1167TIP3    H2 3508   3.802   2.962   0.455  0.0759 -0.8337 -0.1999
 1168TIP3   OH2 3509   1.832   5.771   3.098  0.7779  0.9764 -0.6024
 1168TIP3    H1 3510   1.767   5.766   3.167  0.6039 -0.2796 -0.8390
 1168TIP3    H2 3511   1.798   5.836   3.037 -1.3139 -1.0731 -1.7613
 1169TIP3   OH2 3512   1.488   0.840   3.813 -0.6514  0.0245 -0.0142
 1169TIP3    H1 3513   1.488   0.919   3.759  0.6837  0.2810  0.3210
 1169TIP3    H2 3514   1.476   0.768   3.751 -0.1529  0.3849 -0.5373
 1170TIP3   OH2 3515   3.962   4.044   0.955 -0.2934 -0.4006 -0.3774
 1170TIP3    H1 3516   3.884   4.073   0.907  1.3535  0.2325 -2.8165
 1170TIP3    H2 3517   3.953   4.084   1.041 -1.0877  2.4465 -1.6832
 1171TIP3   OH2 3518   2.958   0.812   2.997  0.1420  0.3288 -0.4063
 1171TIP3    H1 3519   2.965   0.860   2.914 -0.0027  0.8367 -0.1269
 1171TIP3    H2 3520   3.039   0.831   3.043  0.0794  0.3156 -0.2892
 1172TIP3   OH2 3521   1.577   2.583   1.025  0.5617  0.0494 -0.3149
 1172TIP3    H1 3522   1.595   2.675   1.008  2.6455 -0.1023  0.7316
 1172TIP3    H2 3523   1.631   2.536   0.961  1.6202 -0.4162  0.8690
 1173TIP3   OH2 3524   1.740   4.576   5.091 -0.5425 -0.0564  0.2044
 1173TIP3    H1 3525   1.649   4.550   5.106 -0.1948 -0.6887  1.3216
 1173TIP3    H2 3526   1.746   4.665   5.124 -1.3510  0.9723 -2.1988
 1174TIP3   OH2 3527   2.945   0.062   4.047 -0.8582  0.2136  0.7725
 1174TIP3    H1 3528   2.895  -0.002   3.997 -1.8272  1.3728  0.2223
 1174TIP3    H2 3529   2.945   0.141   3.993  0.5195  0.6280  1.3252
 1175TIP3   OH2 3530   2.869   0.104   3.610  0.1004 -0.0939  0.0759
 1175TIP3    H1 3531   2.787   0.151   3.627 -1.1270 -1.9863 -0.2138
 1175TIP3    H2 3532   2.938   0.168   3.626 -1.1590  0.4673  4.6398
 1176TIP3   OH2 3533   1.723   1.317   2.318 -0.3900 -0.0808  0.4190
 1176TIP3    H1 3534   1.707   1.406   2.350  0.1585  0.3093 -0.3523
 1176TIP3    H2 3535   1.819   1.309   2.318 -0.3900 -0.2168 -0.7094
 1177TIP3   OH2 3536   1.980   1.354   4.956  0.2332  0.1819  0.3091
 1177TIP3    H1 3537   1.931   1.429   4.989 -0.3661  0.8473 -1.9469
 1177TIP3    H2 3538   1.982   1.365   4.861 -1.1124 -3.3662 -0.3098
 1178TIP3   OH2 3539   5.366   1.915   0.910  0.2156 -0.0536 -0.0889
 1178TIP3    H1 3540   5.321   1.928   0.994 -0.3599  0.8493 -0.5252
 1178TIP3    H2 3541   5.366   1.821   0.897 -1.3055 -0.0991  0.0721
 1179TIP3   OH2 3542   5.192   5.028   3.776  0.0007 -0.0900 -0.4478
 1179TIP3    H1 3543   5.193   5.123   3.763 -2.5220  0.0432 -0.1018
 1179TIP3    H2 3544   5.226   5.015   3.864  2.5130  0.2548 -1.2966
 1180TIP3   OH2 3545   3.278   2.333   1.787 -0.0921  0.1575  0.0044
 1180TIP3    H1 3546   3.268   2.408   1.728 -1.4091  0.0818  0.0949
 1180TIP3    H2 3547   3.199   2.280   1.771 -0.6004  0.2445  1.9653
 1181TIP3   OH2 3548   0.403   0.038   1.808  0.3023  0.8733  0.0944
 1181TIP3    H1 3549   0.408   0.069   1.718 -0.6080  1.9516  0.3863
 1181TIP3    H2 3550   0.323   0.078   1.843  0.3067 -0.0259  1.1939
 1182TIP3   OH2 3551   1.353   1.036   1.681 -0.4976  0.1560  0.3951
 1182TIP3    H1 3552   1.447   1.024   1.669 -0.1584  3.4992 -1.7461
 1182TIP3    H2 3553   1.341   1.044   1.775  1.3756 -0.3064  0.7022
 1183TIP3   OH2 3554   2.009   5.132   3.680 -0.0956 -0.6372 -0.0641
 1183TIP3    H1 3555   2.045   5.048   3.652 -0.4757 -0.7513 -0.2210
 1183TIP3    H2 3556   2.065   5.160   3.752  1.5841  0.1613 -1.5649
 1184TIP3   OH2 3557   2.262   4.264   3.962  0.1101 -0.3435  0.1044
 1184TIP3    H1 3558   2.349   4.292   3.990 -0.4528 -0.4417  2.1415
 1184TIP3    H2 3559   2.203   4.294   4.032 -1.3575 -1.1480 -0.7211
 1185TIP3   OH2 3560   4.559   5.313   2.210  0.2915 -0.0740 -0.5552
 1185TIP3    H1 3561   4.626   5.302   2.143  1.2058  1.1283  0.1327
 1185TIP3    H2 3562   4.597   5.275   2.289  0.8955  2.0812  0.2567
 1186TIP3   OH2 3563   3.557   4.891   2.489 -0.0308  0.2291 -0.1208
 1186TIP3    H1 3564   3.640   4.849   2.467 -0.0152  0.6833 -0.9503
 1186TIP3    H2 3565   3.532   4.939   2.410 -1.5446 -0.6475 -0.2287
 1187TIP3   OH2 3566   4.051   5.929   3.756 -0.1271 -0.7220  0.8500
 1187TIP3    H1 3567   4.090   6.017   3.760 -2.1289  0.4346 -2.0824
 1187TIP3    H2 3568   3.990   5.928   3.830 -1.5754  1.2204 -0.2257
 1188TIP3   OH2 3569   2.153   0.282   3.844  0.2983 -0.0926  0.1529
 1188TIP3    H1 3570   2.113   0.260   3.929 -0.7538  0.7972 -0.0859
 1188TIP3    H2 3571   2.133   0.207   3.788 -1.4320  0.4911 -0.0680
 1189TIP3   OH2 3572   3.638   5.159   0.147 -1.0909  0.1793 -0.0144
 1189TIP3    H1 3573   3.560   5.154   0.092 -0.9905 -0.0771 -0.1332
 1189TIP3    H2 3574   3.672   5.070   0.148 -0.9709  0.2296  0.2873
 1190TIP3   OH2 3575   1.488   2.627   2.569 -0.1077  0.1605 -0.2277
 1190TIP3    H1 3576   1.430   2.559   2.535 -0.6897 -0.1271  1.2727
 1190TIP3    H2 3577   1.538   2.583   2.638  0.6110  0.8805 -0.2738
 1191TIP3   OH2 3578   3.753   5.293   2.533 -0.1189  0.1647 -0.4359
 1191TIP3    H1 3579   3.703   5.240   2.594  0.4865 -0.3814 -0.3996
 1191TIP3    H2 3580   3.741   5.250   2.448 -0.4188  0.5368 -0.5857
 1192TIP3   OH2 3581   3.804   3.914   0.280 -0.1009 -0.3506  0.2176
 1192TIP3    H1 3582   3.811   3.830   0.235 -0.7405 -0.0988 -0.3687
 1192TIP3    H2 3583   3.741   3.899   0.350  0.0175 -0.4413  0.3039
 1193TIP3   OH2 3584   6.277   1.639   3.665  0.2460  0.1293 -0.3211
 1193TIP3    H1 3585   6.281   1.726   3.625  1.8303  0.2517  0.0661
 1193TIP3    H2 3586   6.293   1.654   3.758  0.2396 -0.5507 -0.2058
 1194TIP3   OH2 3587   3.646   3.832   2.340 -0.0193 -0.1311  0.0796
 1194TIP3    H1 3588   3.619   3.799   2.426  0.6888  0.8772  0.7173
 1194TIP3    H2 3589   3.736   3.802   2.330  0.2598  0.6435  0.1820
 1195TIP3   OH2 3590   0.081   1.807   0.369  0.2825 -0.0924  0.0776
 1195TIP3    H1 3591   0.097   1.744   0.298 -1.1566 -1.6485  1.0739
 1195TIP3    H2 3592   0.088   1.756   0.449  1.8978  1.6473  1.1206
 1196TIP3   OH2 3593   4.255   2.530   2.233 -0.0673  0.2768  0.7553
 1196TIP3    H1 3594   4.260   2.535   2.328  0.5181 -0.8509  0.8010
 1196TIP3    H2 3595   4.165   2.554   2.213 -0.0226  1.1475  1.5376
 1197TIP3   OH2 3596   0.718   4.286   5.047 -0.3742 -0.2237  0.0235
 1197TIP3    H1 3597   0.721   4.298   5.142 -0.2378  2.7241 -0.2387
 1197TIP3    H2 3598   0.639   4.333   5.020 -0.0656 -0.4799 -1.3759
 1198TIP3   OH2 3599   5.646   4.932   4.216 -0.5927  1.0173  0.4177
 1198TIP3    H1 3600   5.587   4.857   4.232 -0.5064  1.0356  0.8358
 1198TIP3    H2 3601   5.717   4.895   4.164 -0.9870  1.0022 -0.1266
 1199TIP3   OH2 3602   6.333   5.373   4.957  0.2053  0.0011  0.2803
 1199TIP3    H1 3603   6.374   5.332   4.880 -0.8577 -0.9937  0.2190
 1199TIP3    H2 3604   6.245   5.336   4.960  0.5487 -0.7996  2.5818
 1200TIP3   OH2 3605   0.838   2.438   0.576 -0.1456 -0.4516 -0.1833
 1200TIP3    H1 3606   0.867   2.504   0.512  0.5733  0.6514  1.2201
 1200TIP3    H2 3607   0.819   2.488   0.655  1.0561 -1.9728  1.1460
 1201TIP3   OH2 3608   1.908   1.830   1.300  0.4138 -0.1834 -0.5812
 1201TIP3    H1 3609   1.922   1.843   1.206 -1.5360 -1.0496 -1.0342
 1201TIP3    H2 3610   1.941   1.910   1.341  1.7720 -0.0197 -1.9445
 1202TIP3   OH2 3611   0.950   3.680   3.885 -0.1259  0.7227 -0.2215
 1202TIP3    H1 3612   1.034   3.636   3.893 -0.8759 -0.4135  2.4258
 1202TIP3    H2 3613   0.964   3.766   3.923 -0.8991 -0.7550  3.9674
 1203TIP3   OH2 3614   0.709   3.765   3.151 -0.3512  0.3886  0.2257
 1203TIP3    H1 3615   0.615   3.762   3.133  0.0207 -0.2340 -1.9645
 1203TIP3    H2 3616   0.737   3.673   3.146  0.2391  0.4492  1.8527
 1204TIP3   OH2 3617   4.984   5.720   1.051 -0.1744 -0.4284  0.5937
 1204TIP3    H1 3618   4.993   5.658   0.979 -0.3889  1.3881 -1.1056
 1204TIP3    H2 3619   4.905   5.770   1.030  0.1390  0.6035  1.7335
 1205TIP3   OH2 3620   1.758   5.050   4.971 -0.5937 -0.6377  0.3525
 1205TIP3    H1 3621   1.818   4.980   4.995  0.0893  0.0271  0.6199
 1205TIP3    H2 3622   1.744   5.039   4.877 -0.0561 -0.7978  0.2884
 1206TIP3   OH2 3623   3.155   2.715   0.424  0.5084 -0.1384  0.3967
 1206TIP3    H1 3624   3.157   2.628   0.384 -0.4375 -0.3767  0.8493
 1206TIP3    H2 3625   3.234   2.717   0.479  3.8681  1.4504 -3.8702
 1207TIP3   OH2 3626   2.488   1.424   0.477  0.0875 -0.2365 -0.1386
 1207TIP3    H1 3627   2.535   1.495   0.521 -0.8804 -0.4659  1.3143
 1207TIP3    H2 3628   2.454   1.464   0.397 -0.1074  0.8349  0.4612
 1208TIP3   OH2 3629   3.653   2.451   2.957  0.4513  0.3809 -0.2535
 1208TIP3    H1 3630   3.615   2.365   2.976 -1.2350  0.9130 -1.0358
 1208TIP3    H2 3631   3.662   2.492   3.044 -0.7849  0.2248 -0.0346
 1209TIP3   OH2 3632   5.164   1.448   3.726  0.0728 -0.1193  0.2281
 1209TIP3    H1 3633   5.222   1.456   3.650 -1.0393 -2.1853 -0.9227
 1209TIP3    H2 3634   5.213   1.391   3.787 -0.3677 -1.1876 -0.3919
 1210TIP3   OH2 3635   4.469   3.781   2.670  0.0461  0.0077  0.3427
 1210TIP3    H1 3636   4.557   3.743   2.681  0.0782 -0.8405 -2.2847
 1210TIP3    H2 3637   4.410   3.715   2.706  0.3638 -0.4467  0.0387
 1211TIP3   OH2 3638   2.215   2.601   2.425 -0.0677 -0.5383 -0.1861
 1211TIP3    H1 3639   2.176   2.687   2.443  2.8575  0.7475  0.6293
 1211TIP3    H2 3640   2.245   2.607   2.334  0.1440 -0.6910 -0.1277
 1212TIP3   OH2 3641   0.580   4.917   0.044  0.5356  0.3449 -0.5725
 1212TIP3    H1 3642   0.493   4.880   0.029  1.0539 -0.7948 -0.8633
 1212TIP3    H2 3643   0.621   4.918  -0.043  1.4654 -0.8698 -0.1776
 1213TIP3   OH2 3644   6.105   5.669   0.155 -0.1241 -0.1452 -0.1422
 1213TIP3    H1 3645   6.093   5.728   0.081  0.4009 -0.5028 -0.5099
 1213TIP3    H2 3646   6.083   5.582   0.121  1.9145 -0.5976 -0.4074
 1214TIP3   OH2 3647   1.273   3.290   2.298  0.0412  0.3954 -0.0888
 1214TIP3    H1 3648   1.219   3.287   2.377 -0.6483  1.6061 -0.4890
 1214TIP3    H2 3649   1.313   3.203   2.293 -1.0438 -0.1844  0.7957
 1215TIP3   OH2 3650   1.720   3.387   5.020  0.0932  0.0028 -0.5664
 1215TIP3    H1 3651   1.803   3.344   5.038 -0.5485 -0.7734  0.5951
 1215TIP3    H2 3652   1.706   3.373   4.926  0.5467 -1.1583 -0.4720
 1216TIP3   OH2 3653   0.666   3.671   1.444 -0.0912  0.2435  0.3922
 1216TIP3    H1 3654   0.606   3.733   1.484 -0.1259  1.4056 -1.3312
 1216TIP3    H2 3655   0.609   3.604   1.406 -0.2167  0.4807  0.1549
 1217TIP3   OH2 3656   4.161   4.783   2.681 -0.2989  0.2739 -0.0848
 1217TIP3    H1 3657   4.140   4.856   2.738  1.2525  1.5848 -1.0977
 1217TIP3    H2 3658   4.102   4.791   2.607  1.5350  2.1407 -1.4587
 1218TIP3   OH2 3659   3.356   1.350   5.017 -0.7065 -0.0916  0.8301
 1218TIP3    H1 3660   3.440   1.348   5.063 -0.1317 -0.3619 -0.2093
 1218TIP3    H2 3661   3.340   1.442   5.000 -0.7852 -0.0129  1.3104
 1219TIP3   OH2 3662   0.247   3.458   1.791 -0.5952  0.4128  0.1717
 1219TIP3    H1 3663   0.243   3.407   1.711 -1.0539  1.7015 -0.6512
 1219TIP3    H2 3664   0.225   3.396   1.861 -1.0973 -0.5045 -0.7864
 1220TIP3   OH2 3665   0.586   1.756   3.947 -0.4777  0.0864 -0.2892
 1220TIP3    H1 3666   0.495   1.726   3.952 -0.4409  0.0138 -0.0508
 1220TIP3    H2 3667   0.590   1.831   4.006 -0.1142 -0.5990  0.5813
 1221TIP3   OH2 3668   1.300   2.581   0.979  0.2603 -0.3530  0.0068
 1221TIP3    H1 3669   1.264   2.655   1.028  1.0482  0.3774 -0.4821
 1221TIP3    H2 3670   1.395   2.592   0.986  0.3982 -0.2663 -1.5983
 1222TIP3   OH2 3671   1.656   5.802   0.042  0.0601  0.8580  0.5046
 1222TIP3    H1 3672   1.648   5.849  -0.041  1.9124 -2.3979 -1.7035
 1222TIP3    H2 3673   1.573   5.755   0.051  0.1798  0.5547  0.0410
 1223TIP3   OH2 3674   0.709   2.321   4.428  0.1788  0.3426  0.1472
 1223TIP3    H1 3675   0.677   2.308   4.518 -1.3588 -3.1028 -0.7621
 1223TIP3    H2 3676   0.796   2.281   4.428  0.1578  0.2973  0.0974
 1224TIP3   OH2 3677   2.811   5.663   1.040 -0.4263 -0.7623  0.1199
 1224TIP3    H1 3678   2.735   5.617   1.076  1.3782 -2.8583  1.4839
 1224TIP3    H2 3679   2.832   5.616   0.959 -1.6070  0.9590 -1.2454
 1225TIP3   OH2 3680   5.694   1.674   3.208 -0.1778 -0.0279 -0.2542
 1225TIP3    H1 3681   5.776   1.649   3.165 -1.1152 -2.0789 -0.9986
 1225TIP3    H2 3682   5.658   1.743   3.153  0.9734  0.8226  0.0236
 1226TIP3   OH2 3683   5.047   1.769   3.093  0.5648  0.3942 -0.1549
 1226TIP3    H1 3684   5.077   1.860   3.087  0.2199  0.4757 -0.7228
 1226TIP3    H2 3685   5.034   1.742   3.003  1.2180 -0.4156 -0.0151
 1227TIP3   OH2 3686   6.246   0.338   0.659 -0.9326  0.1872 -0.1727
 1227TIP3    H1 3687   6.180   0.358   0.725 -1.5186  2.2846 -1.3073
 1227TIP3    H2 3688   6.215   0.383   0.580 -0.4802 -2.5520 -2.0399
 1228TIP3   OH2 3689   0.105   0.332   4.627  0.1968 -0.5501  0.0570
 1228TIP3    H1 3690   0.126   0.408   4.681  0.0378 -0.0501 -0.5746
 1228TIP3    H2 3691   0.025   0.296   4.666 -1.3002  1.2054 -1.2022
 1229TIP3   OH2 3692   2.770   2.292   0.525  0.0389 -0.3513  0.1055
 1229TIP3    H1 3693   2.841   2.240   0.489 -0.7971 -0.5879 -1.2879
 1229TIP3    H2 3694   2.707   2.227   0.557 -0.9911 -0.2505 -1.6092
 1230TIP3   OH2 3695   3.574   0.229   0.505 -0.1939  0.6786 -0.0036
 1230TIP3    H1 3696   3.536   0.317   0.511 -0.5852  0.5406 -0.4103
 1230TIP3    H2 3697   3.585   0.202   0.597 -3.0157 -0.0853  0.2128
 1231TIP3   OH2 3698   2.621   4.684   1.538  0.4395 -0.0913 -0.0388
 1231TIP3    H1 3699   2.706   4.726   1.541 -0.5495  2.0978 -1.0800
 1231TIP3    H2 3700   2.574   4.719   1.614 -0.4047  0.7845 -0.9324
 1232TIP3   OH2 3701   2.926   3.917   4.561 -0.2834  0.2785 -0.0543
 1232TIP3    H1 3702   2.973   3.990   4.520 -0.8672  0.3878 -0.5555
 1232TIP3    H2 3703   2.834   3.942   4.553 -0.4691 -0.3720  0.0494
 1233TIP3   OH2 3704   0.001   4.208   2.600  0.0230 -0.1005 -0.4619
 1233TIP3    H1 3705   0.079   4.236   2.648 -0.8914  1.7600  0.0208
 1233TIP3    H2 3706   0.014   4.114   2.586  0.6947 -0.5998  2.7580
 1234TIP3   OH2 3707   6.279   5.011   4.598  0.3306  0.5284 -0.3128
 1234TIP3    H1 3708   6.264   4.988   4.690  2.1209  1.1300  0.1740
 1234TIP3    H2 3709   6.275   5.107   4.598  1.8604  0.6242 -0.5175
 1235TIP3   OH2 3710   2.517   1.706   0.316  0.2116 -0.4076 -0.2092
 1235TIP3    H1 3711   2.588   1.740   0.262  1.0712 -1.3321  0.2992
 1235TIP3    H2 3712   2.542   1.730   0.405 -1.3278  1.3503 -0.1899
 1236TIP3   OH2 3713   3.811   4.604   1.650 -0.1469 -0.4128  0.5668
 1236TIP3    H1 3714   3.813   4.555   1.568  2.1398 -1.4458  1.1621
 1236TIP3    H2 3715   3.718   4.611   1.672 -0.9187  0.8178 -2.6035
 1237TIP3   OH2 3716   2.441   4.751   4.283  0.2623 -0.2955  0.5826
 1237TIP3    H1 3717   2.402   4.780   4.200 -1.2453 -0.6049  1.1397
 1237TIP3    H2 3718   2.410   4.814   4.347 -0.0929 -1.0742  1.2028
 1238TIP3   OH2 3719   0.839   4.942   4.621  0.7465  0.6091 -0.4610
 1238TIP3    H1 3720   0.873   4.886   4.551  0.7863 -0.5432  0.4455
 1238TIP3    H2 3721   0.784   5.006   4.576  0.2173 -0.5311 -1.4908
 1239TIP3   OH2 3722   4.586   3.251   3.366 -0.0104  0.7981  0.0746
 1239TIP3    H1 3723   4.618   3.336   3.395 -1.2581  1.1598  0.4393
 1239TIP3    H2 3724   4.653   3.220   3.304  1.5819  1.0026  1.6203
 1240TIP3   OH2 3725   0.570   3.233   0.474 -0.0150  0.1310 -0.5897
 1240TIP3    H1 3726   0.548   3.306   0.417 -2.0625 -0.2606 -0.3623
 1240TIP3    H2 3727   0.527   3.253   0.557 -0.4134 -1.2011 -0.4506
 1241TIP3   OH2 3728   3.896   1.334   0.993 -0.2917 -0.2762  0.0373
 1241TIP3    H1 3729   3.888   1.335   1.088 -2.4335 -1.0761 -0.0789
 1241TIP3    H2 3730   3.853   1.415   0.964  0.8444  0.2408 -0.2384
 1242TIP3   OH2 3731   1.008   0.229   0.217 -0.4385 -0.1543 -0.3232
 1242TIP3    H1 3732   0.962   0.187   0.144  0.7876  0.7039 -1.6466
 1242TIP3    H2 3733   1.059   0.299   0.176  3.2753 -1.9533  0.7518
 1243TIP3   OH2 3734   1.336   0.044   3.637  0.0207 -0.5289  0.3913
 1243TIP3    H1 3735   1.336   0.140   3.637 -0.8824 -0.5053 -0.9056
 1243TIP3    H2 3736   1.403   0.020   3.573 -0.2494 -0.7555  0.1933
 1244TIP3   OH2 3737   5.272   4.445   2.394  0.0196  0.1083  0.6055
 1244TIP3    H1 3738   5.213   4.392   2.448 -0.1095 -0.6536 -0.2621
 1244TIP3    H2 3739   5.213   4.502   2.344  0.0660 -0.0654  0.3524
 1245TIP3   OH2 3740   0.129   2.991   4.431  0.7849 -0.0707  0.1837
 1245TIP3    H1 3741   0.139   2.942   4.349  2.9797 -0.6196  0.7252
 1245TIP3    H2 3742   0.075   2.934   4.486  2.2835 -1.3921  0.3682
 1246TIP3   OH2 3743   1.733   4.319   4.244 -0.1183  0.2223 -0.1009
 1246TIP3    H1 3744   1.766   4.365   4.321 -0.6077 -0.6569  0.6583
 1246TIP3    H2 3745   1.789   4.241   4.237  0.6885  0.8838 -1.3522
 1247TIP3   OH2 3746   0.968   2.319   2.616 -0.1118 -0.2920  0.1821
 1247TIP3    H1 3747   0.880   2.302   2.584 -0.0892  0.6642 -0.4159
 1247TIP3    H2 3748   1.020   2.245   2.583  0.0008  0.8644 -2.4258
 1248TIP3   OH2 3749   4.888   5.252   0.480 -0.5765 -0.0170 -0.1951
 1248TIP3    H1 3750   4.853   5.292   0.400 -0.1040 -0.1654 -0.4773
 1248TIP3    H2 3751   4.919   5.166   0.452  0.4318  0.2898 -0.0413
 1249TIP3   OH2 3752   1.096   1.154   3.874  0.8031 -0.0131 -0.0073
 1249TIP3    H1 3753   1.039   1.195   3.940  1.2643 -0.6653  0.8167
 1249TIP3    H2 3754   1.037   1.133   3.801 -0.0737 -0.8531  0.9079
 1250TIP3   OH2 3755   6.007   3.202   0.770  0.3235  0.2810 -0.3548
 1250TIP3    H1 3756   6.016   3.214   0.676 -0.9703 -0.8904 -0.6690
 1250TIP3    H2 3757   5.948   3.127   0.779 -1.1860  1.5862  1.3771
 1251TIP3   OH2 3758   4.468   4.944   1.691  0.6864  0.8672 -0.2551
 1251TIP3    H1 3759   4.414   4.932   1.769  2.2668 -1.1866  0.6001
 1251TIP3    H2 3760   4.407   4.980   1.626 -1.9680 -1.8877  0.4250
 1252TIP3   OH2 3761   2.087   1.747   2.270 -0.1880  0.2008  0.5679
 1252TIP3    H1 3762   2.017   1.812   2.265 -0.1293  0.5122  2.8080
 1252TIP3    H2 3763   2.043   1.665   2.292 -0.2201 -0.5518 -1.9121
 1253TIP3   OH2 3764   5.594   2.965   4.730 -0.0546  0.0939 -0.1277
 1253TIP3    H1 3765   5.557   3.047   4.696  0.2974  0.4149  0.2458
 1253TIP3    H2 3766   5.600   2.980   4.825  0.3291 -0.2363 -0.1009
 1254TIP3   OH2 3767   2.681   4.354   2.462 -0.4353  0.0740  0.1726
 1254TIP3    H1 3768   2.688   4.448   2.443 -0.2000  0.2031  0.8889
 1254TIP3    H2 3769   2.588   4.334   2.447 -0.1354  0.0071 -1.8002
 1255TIP3   OH2 3770   3.527   3.856   0.223  0.4182  0.1711  0.2023
 1255TIP3    H1 3771   3.513   3.915   0.149  0.9255  0.6092  0.4466
 1255TIP3    H2 3772   3.441   3.849   0.265 -0.1407 -0.9943 -1.0761
 1256TIP3   OH2 3773   6.094   5.177   3.779 -0.5661  0.1123 -0.1365
 1256TIP3    H1 3774   6.080   5.088   3.745 -0.1492 -0.8256  1.9531
 1256TIP3    H2 3775   6.048   5.234   3.717 -2.2218 -1.6890 -0.6921
 1257TIP3   OH2 3776   1.369   2.847   1.648  0.3272  0.3480 -0.2514
 1257TIP3    H1 3777   1.284   2.875   1.615 -0.4755 -1.3234  0.3101
 1257TIP3    H2 3778   1.432   2.901   1.601 -1.0417  1.7984 -0.4927
 1258TIP3   OH2 3779   5.971   5.194   4.071 -0.0499  0.3886  0.0115
 1258TIP3    H1 3780   5.905   5.259   4.096 -0.2258  1.0252 -2.0018
 1258TIP3    H2 3781   5.951   5.173   3.980  2.0289 -0.0234 -0.3846
 1259TIP3   OH2 3782   1.786   4.856   2.523 -0.3212 -0.1659  0.3962
 1259TIP3    H1 3783   1.845   4.931   2.515 -0.9449  0.3681  0.6536
 1259TIP3    H2 3784   1.842   4.780   2.513  0.1068  0.3279 -1.6043
 1260TIP3   OH2 3785   4.635   4.581   4.121  0.5248 -0.0464  0.2641
 1260TIP3    H1 3786   4.687   4.501   4.115 -0.2842 -0.7961  2.4793
 1260TIP3    H2 3787   4.648   4.612   4.210  2.5952  3.6285 -1.0593
 1261TIP3   OH2 3788   3.513   0.829   0.600  0.3053  0.0483 -0.2321
 1261TIP3    H1 3789   3.589   0.779   0.630  1.1097  1.0470 -0.5089
 1261TIP3    H2 3790   3.524   0.834   0.505  1.2714  2.2520 -0.0765
 1262TIP3   OH2 3791   1.833   2.050   4.512 -0.1362  0.8052  0.2345
 1262TIP3    H1 3792   1.807   2.129   4.466  0.2780  0.9947  0.3279
 1262TIP3    H2 3793   1.928   2.045   4.502 -0.0377  0.8457  1.0542
 1263TIP3   OH2 3794   5.677   4.954   1.469  0.8703 -0.1428  0.3638
 1263TIP3    H1 3795   5.717   4.970   1.383  0.8629  0.2787  0.4386
 1263TIP3    H2 3796   5.669   4.859   1.474  2.4983 -0.2882  0.6410
 1264TIP3   OH2 3797   0.295   4.820   1.679 -0.9617 -0.2403  0.2305
 1264TIP3    H1 3798   0.286   4.732   1.713  0.7868 -0.0622  1.2942
 1264TIP3    H2 3799   0.221   4.869   1.716 -1.3649 -1.0153  0.4563
 1265TIP3   OH2 3800   0.615   5.862   0.655  0.4281 -0.5466  0.1316
 1265TIP3    H1 3801   0.551   5.799   0.687 -1.0788  0.8439 -0.0577
 1265TIP3    H2 3802   0.563   5.930   0.611  2.0936  0.0764 -0.9968
 1266TIP3   OH2 3803   1.499   1.320   3.367 -0.1902 -0.5084 -0.0847
 1266TIP3    H1 3804   1.520   1.307   3.274  1.2127  0.9962 -0.0224
 1266TIP3    H2 3805   1.461   1.408   3.370  0.6749 -0.1551  0.8896
 1267TIP3   OH2 3806   4.145   4.016   2.765 -0.1552 -0.1762  0.1007
 1267TIP3    H1 3807   4.153   3.939   2.709 -0.1575 -1.7829  2.1892
 1267TIP3    H2 3808   4.114   3.982   2.849 -1.8792  2.3428  0.5901
 1268TIP3   OH2 3809   2.483   3.736   3.084  0.0784 -0.1772  0.1749
 1268TIP3    H1 3810   2.393   3.722   3.111 -0.0567  0.4082  0.0509
 1268TIP3    H2 3811   2.519   3.796   3.149 -0.3510  1.5262 -1.0694
 1269TIP3   OH2 3812   3.304   2.676   2.262  0.0889 -0.1699 -0.0664
 1269TIP3    H1 3813   3.343   2.588   2.259 -2.5292 -1.4623 -2.6928
 1269TIP3    H2 3814   3.366   2.731   2.215 -0.0207 -1.6164 -2.0539
 1270TIP3   OH2 3815   2.659   2.124   1.651  0.1196  0.2752  0.4283
 1270TIP3    H1 3816   2.638   2.216   1.635  1.3547  0.3633 -0.8231
 1270TIP3    H2 3817   2.743   2.126   1.697  0.2002 -0.2202  0.3068
 1271TIP3   OH2 3818   4.850   2.171   3.642 -0.6809  0.0391  0.3250
 1271TIP3    H1 3819   4.880   2.135   3.725 -1.1998  0.4920  0.7141
 1271TIP3    H2 3820   4.818   2.096   3.593 -1.5195 -0.0749  1.0267
 1272TIP3   OH2 3821   5.881   0.988   2.291  0.0373  0.0670 -0.1573
 1272TIP3    H1 3822   5.900   1.060   2.352  4.4894 -1.4672  0.6804
 1272TIP3    H2 3823   5.881   1.029   2.205 -0.0242  1.4247  0.4586
 1273TIP3   OH2 3824   1.055   2.154   0.791  0.5062 -0.3258  0.1910
 1273TIP3    H1 3825   1.013   2.147   0.706 -1.8768 -1.1087  1.3367
 1273TIP3    H2 3826   1.094   2.241   0.792 -1.5142  0.6529 -0.8307
 1274TIP3   OH2 3827   1.900   1.388   4.080  0.0089 -0.1699 -0.0577
 1274TIP3    H1 3828   1.968   1.321   4.088  1.4773  1.1100 -1.2120
 1274TIP3    H2 3829   1.922   1.452   4.148  1.1149  1.1500 -1.5729
 1275TIP3   OH2 3830   3.039   1.007   4.381 -0.5445  0.0426 -0.0995
 1275TIP3    H1 3831   3.060   1.077   4.444  1.4824  1.0044 -1.7252
 1275TIP3    H2 3832   3.124   0.982   4.344 -1.5680 -1.1532 -1.7543
 1276TIP3   OH2 3833   2.569   0.552   4.435 -0.3839  0.0008 -0.9531
 1276TIP3    H1 3834   2.534   0.470   4.469  0.4630 -0.5987 -1.5067
 1276TIP3    H2 3835   2.664   0.541   4.437 -0.2794 -0.1725 -3.7192
 1277TIP3   OH2 3836   4.419   2.604   0.508 -0.2455 -0.3936 -0.7994
 1277TIP3    H1 3837   4.451   2.661   0.438 -0.1513 -0.5912 -0.9196
 1277TIP3    H2 3838   4.411   2.518   0.467 -0.2668 -0.4944 -0.5873
 1278TIP3   OH2 3839   6.107   5.804   3.212  0.2244  0.3673  0.7720
 1278TIP3    H1 3840   6.044   5.747   3.257  2.3295 -2.5318  0.3189
 1278TIP3    H2 3841   6.188   5.793   3.260  1.4053  0.7977 -1.0224
 1279TIP3   OH2 3842   4.134   5.585   1.385 -0.0477 -0.2245 -0.2423
 1279TIP3    H1 3843   4.179   5.576   1.469  0.7125 -1.6022 -0.7741
 1279TIP3    H2 3844   4.053   5.536   1.396  0.4740 -1.1778 -0.6002
 1280TIP3   OH2 3845   2.055   0.070   3.694 -0.1088 -0.1295 -0.9537
 1280TIP3    H1 3846   2.032   0.068   3.601 -2.4660  1.4601 -0.4948
 1280TIP3    H2 3847   1.971   0.055   3.739  1.0004 -0.9785  0.9382
 1281TIP3   OH2 3848   0.060   4.041   1.022  0.3527 -0.0608  0.6551
 1281TIP3    H1 3849   0.012   3.970   1.066  1.1389 -1.2740 -0.3716
 1281TIP3    H2 3850   0.001   4.070   0.952  0.0343  0.3149  1.0699
 1282TIP3   OH2 3851   2.795   3.204   4.527  0.2127  0.3938  0.0610
 1282TIP3    H1 3852   2.781   3.122   4.575  0.7686  0.2462 -0.0211
 1282TIP3    H2 3853   2.738   3.197   4.450  1.6872 -0.7961 -0.9902
 1283TIP3   OH2 3854   5.216   0.080   2.443  0.7954  1.0131 -0.1770
 1283TIP3    H1 3855   5.243  -0.008   2.419 -0.9758  1.0544 -2.7935
 1283TIP3    H2 3856   5.297   0.131   2.445  1.7085 -0.4177  0.2117
 1284TIP3   OH2 3857   5.426   0.033   0.962 -0.3401 -0.2055 -0.2771
 1284TIP3    H1 3858   5.341   0.019   0.920  0.2592  1.5938 -2.3112
 1284TIP3    H2 3859   5.419   0.121   0.999  0.3717 -0.3688  0.2550
 1285TIP3   OH2 3860   0.955   0.520   4.485 -0.0292  0.5235  0.1397
 1285TIP3    H1 3861   1.037   0.534   4.438 -0.5337  2.0764 -0.3296
 1285TIP3    H2 3862   0.934   0.606   4.522 -0.5383 -0.2618  1.7624
 1286TIP3   OH2 3863   1.182   2.033   4.898 -0.4597 -0.0865 -0.0194
 1286TIP3    H1 3864   1.222   2.049   4.813  0.1980  0.4277  0.3803
 1286TIP3    H2 3865   1.169   1.939   4.902  0.3397 -0.2128 -0.3235
 1287TIP3   OH2 3866   1.628   1.250   4.918 -0.0398 -0.2570 -0.3320
 1287TIP3    H1 3867   1.646   1.256   5.012  1.0965  1.8331 -0.6273
 1287TIP3    H2 3868   1.559   1.314   4.902  0.4678  0.1235 -1.0674
 1288TIP3   OH2 3869   0.484   5.527   0.255  0.1406  0.8547 -0.3861
 1288TIP3    H1 3870   0.409   5.582   0.233 -0.6564 -0.1700 -0.3030
 1288TIP3    H2 3871   0.557   5.565   0.205 -0.7475  0.9794 -1.6416
 1289TIP3   OH2 3872   1.127   1.120   3.519  0.4118 -0.1483  0.1349
 1289TIP3    H1 3873   1.120   1.213   3.498  1.0720 -0.5585 -2.1843
 1289TIP3    H2 3874   1.049   1.101   3.572 -1.2022  1.1585 -1.6487
 1290TIP3   OH2 3875   5.351   3.083   2.500  0.3298  0.0197 -0.1072
 1290TIP3    H1 3876   5.392   3.161   2.462  1.3024  0.7508  2.2500
 1290TIP3    H2 3877   5.284   3.117   2.559  0.1326 -0.9634  0.2544
 1291TIP3   OH2 3878   3.165   2.347   2.144 -0.0742 -0.4945 -0.5024
 1291TIP3    H1 3879   3.123   2.340   2.230  1.5203  1.8217  0.5639
 1291TIP3    H2 3880   3.110   2.294   2.086 -2.0599 -0.9087  1.6181
 1292TIP3   OH2 3881   6.020   3.800   1.184 -0.2114 -0.4984 -0.0663
 1292TIP3    H1 3882   6.078   3.727   1.208  0.3663 -0.7960 -2.1834
 1292TIP3    H2 3883   5.933   3.770   1.209 -0.0521 -2.1671 -1.3642
 1293TIP3   OH2 3884   1.947   0.862   2.566  0.2287 -0.0566 -0.0872
 1293TIP3    H1 3885   1.874   0.909   2.526  1.0213  0.5405 -0.8571
 1293TIP3    H2 3886   1.920   0.770   2.566 -0.1445  0.0440 -1.1898
 1294TIP3   OH2 3887   3.474   0.368   1.230 -0.2644  0.4903 -0.5855
 1294TIP3    H1 3888   3.486   0.460   1.206  0.1350  1.0686  1.6845
 1294TIP3    H2 3889   3.391   0.344   1.188  0.3149  1.4103 -2.4179
 1295TIP3   OH2 3890   3.789   1.464   1.241  0.2911 -0.3523 -0.3596
 1295TIP3    H1 3891   3.697   1.483   1.223  0.4644 -0.4565 -1.4464
 1295TIP3    H2 3892   3.826   1.547   1.269 -0.1625 -0.3494  0.2657
 1296TIP3   OH2 3893   5.074   4.489   4.090 -0.3800 -0.1593  0.4536
 1296TIP3    H1 3894   5.030   4.570   4.063  0.0901  0.8749  2.6096
 1296TIP3    H2 3895   5.011   4.420   4.067 -1.6070  0.9722  0.2634
 1297TIP3   OH2 3896   1.680   3.908   2.876 -0.1427 -0.2082 -0.3402
 1297TIP3    H1 3897   1.667   4.002   2.886  1.5349  0.3530 -2.7233
 1297TIP3    H2 3898   1.694   3.876   2.966  0.3060  1.9513  0.4127
 1298TIP3   OH2 3899   1.002   4.528   0.454 -0.1358  0.3255 -0.2187
 1298TIP3    H1 3900   1.058   4.571   0.518 -0.2755 -0.5335  0.4941
 1298TIP3    H2 3901   0.916   4.523   0.496 -0.3515  0.1750 -0.6649
 1299TIP3   OH2 3902   4.332   4.440  -0.017  0.1759 -0.1294  0.1902
 1299TIP3    H1 3903   4.343   4.366   0.043 -0.7226 -2.5715 -2.3734
 1299TIP3    H2 3904   4.238   4.459  -0.014  0.2284  0.1525  0.0276
 1300TIP3   OH2 3905   2.314   4.508   0.268 -0.4185  0.5492  0.2659
 1300TIP3    H1 3906   2.402   4.484   0.238  0.1790  1.5571  1.1195
 1300TIP3    H2 3907   2.329   4.580   0.330 -1.7968  0.2834  0.9435
 1301TIP3   OH2 3908   3.899   2.543   2.423  0.2802  0.2812 -0.2377
 1301TIP3    H1 3909   3.988   2.519   2.449  1.1474  2.1711 -1.2195
 1301TIP3    H2 3910   3.855   2.565   2.505  0.3908 -1.5792  0.3489
 1302TIP3   OH2 3911   1.179   1.315   4.855  0.2268 -0.1409  0.5983
 1302TIP3    H1 3912   1.237   1.391   4.858  0.1703 -0.1101  0.9572
 1302TIP3    H2 3913   1.207   1.261   4.929 -1.5108  0.8168  2.0343
 1303TIP3   OH2 3914   5.528   1.340   1.602  0.0937  0.5817  0.0932
 1303TIP3    H1 3915   5.521   1.245   1.611 -1.1451  0.7142  0.8381
 1303TIP3    H2 3916   5.594   1.366   1.666 -1.1330  0.4165  1.4838
 1304TIP3   OH2 3917   1.294   3.353   4.225  0.0742 -0.0514 -0.1963
 1304TIP3    H1 3918   1.246   3.300   4.161 -0.9027  1.6211 -0.9183
 1304TIP3    H2 3919   1.382   3.360   4.189 -0.6812  1.6144 -1.9376
 1305TIP3   OH2 3920   6.021   5.910   3.501 -0.3170  0.0413  0.0487
 1305TIP3    H1 3921   6.090   5.967   3.467  0.5699 -1.4292 -0.7007
 1305TIP3    H2 3922   6.062   5.859   3.570 -0.7203 -0.6564 -0.2136
 1306TIP3   OH2 3923   2.897   4.659   3.268 -0.3339  0.4182 -0.0079
 1306TIP3    H1 3924   2.822   4.670   3.327 -1.1865 -0.4161 -0.8840
 1306TIP3    H2 3925   2.949   4.589   3.308 -0.1716  0.8092  0.4654
 1307TIP3   OH2 3926   4.723   1.602   2.680 -0.3340  0.0750  0.0646
 1307TIP3    H1 3927   4.789   1.546   2.639 -0.5061 -0.4563  0.5137
 1307TIP3    H2 3928   4.649   1.599   2.620 -0.9317 -1.4421  0.8567
 1308TIP3   OH2 3929   5.705   4.787   3.080 -0.1345  0.0980  0.0992
 1308TIP3    H1 3930   5.739   4.762   2.994 -1.2591  2.3897 -1.1001
 1308TIP3    H2 3931   5.630   4.729   3.094  0.4267 -0.7088 -0.1649
 1309TIP3   OH2 3932   3.788   1.273   2.105 -0.6212 -0.3842 -0.1436
 1309TIP3    H1 3933   3.770   1.263   2.012  0.8458  1.0597 -0.6394
 1309TIP3    H2 3934   3.881   1.253   2.114 -0.0411  2.1594  0.4663
 1310TIP3   OH2 3935   5.471   5.267   1.501  0.6586  0.1255  0.3376
 1310TIP3    H1 3936   5.433   5.198   1.448 -2.4575  1.6739  0.3729
 1310TIP3    H2 3937   5.420   5.345   1.481  2.4993  1.9096  2.0389
 1311TIP3   OH2 3938   2.394   0.135   2.353  0.3288  0.9502  0.2939
 1311TIP3    H1 3939   2.471   0.083   2.331 -0.0505  0.9168 -1.0460
 1311TIP3    H2 3940   2.320   0.081   2.325 -0.1579  1.2969  0.8847
 1312TIP3   OH2 3941   1.504   0.974   3.064  0.6536  0.3079 -0.4455
 1312TIP3    H1 3942   1.413   0.957   3.089  0.4374  2.6414  0.6339
 1312TIP3    H2 3943   1.509   0.948   2.972 -2.1255  3.2548 -1.6148
 1313TIP3   OH2 3944   0.507   3.264   1.964 -0.3126 -0.1938 -0.2097
 1313TIP3    H1 3945   0.412   3.253   1.972 -0.4246  0.4112 -0.6803
 1313TIP3    H2 3946   0.541   3.175   1.970 -0.9246 -0.4384 -0.2387
 1314TIP3   OH2 3947   0.395   1.773   0.140 -0.3921  0.4736 -0.5033
 1314TIP3    H1 3948   0.303   1.754   0.160  0.1783 -1.3679  0.6030
 1314TIP3    H2 3949   0.444   1.732   0.211  1.5111 -2.5470 -3.2889
 1315TIP3   OH2 3950   0.597   3.817   1.051 -0.6829 -1.3215  0.7364
 1315TIP3    H1 3951   0.578   3.907   1.079  0.0873 -1.1954  0.8726
 1315TIP3    H2 3952   0.522   3.793   0.997 -1.0720 -0.7259  0.9948
 1316TIP3   OH2 3953   3.342   3.109   0.654  1.1164 -0.0228  0.7363
 1316TIP3    H1 3954   3.288   3.187   0.640 -0.8484 -1.2391  1.2441
 1316TIP3    H2 3955   3.374   3.086   0.566  0.4400  0.4659  0.3530
 1317TIP3   OH2 3956   3.382   5.727   4.152  0.2290 -0.4522 -0.3102
 1317TIP3    H1 3957   3.475   5.710   4.165  0.1764 -0.8769 -0.4734
 1317TIP3    H2 3958   3.353   5.658   4.093 -0.4373 -1.0179  0.6444
 1318TIP3   OH2 3959   3.736   4.096   0.775  0.4061 -0.2269 -0.5541
 1318TIP3    H1 3960   3.718   4.078   0.683 -0.4122 -0.4374 -0.3629
 1318TIP3    H2 3961   3.651   4.117   0.812  0.4650 -1.6558  0.4914
 1319TIP3   OH2 3962   0.895   5.972   1.797 -0.6952  0.0305  0.2452
 1319TIP3    H1 3963   0.839   5.905   1.756  0.7162 -0.4546 -0.9722
 1319TIP3    H2 3964   0.928   6.024   1.724 -0.4882  1.0693  1.0468
 1320TIP3   OH2 3965   5.381   5.803   0.998  0.4539 -0.3029 -0.1100
 1320TIP3    H1 3966   5.387   5.897   1.013 -2.4215 -0.1166  0.2661
 1320TIP3    H2 3967   5.326   5.770   1.069 -1.0231 -1.7780 -1.8427
 1321TIP3   OH2 3968   4.191   4.398   0.805  0.2002  0.3006 -0.1969
 1321TIP3    H1 3969   4.119   4.401   0.868  1.2694  0.5750  1.0575
 1321TIP3    H2 3970   4.172   4.468   0.743 -1.8147 -1.1183 -1.3052
 1322TIP3   OH2 3971   2.464   3.071   3.088 -0.8006 -0.2926  0.3611
 1322TIP3    H1 3972   2.432   2.981   3.090  0.8363 -0.8894  1.4322
 1322TIP3    H2 3973   2.524   3.077   3.162  0.5394  1.1360 -0.7740
 1323TIP3   OH2 3974   2.942   1.112   3.224  0.2206  0.4979  0.1598
 1323TIP3    H1 3975   2.897   1.072   3.149  1.4533 -0.0257 -0.3180
 1323TIP3    H2 3976   2.894   1.080   3.300 -1.0127  0.9823 -0.3750
 1324TIP3   OH2 3977   0.173   5.447   1.717  0.1831 -0.0274 -0.5975
 1324TIP3    H1 3978   0.119   5.427   1.641  0.8913  0.0150 -1.1188
 1324TIP3    H2 3979   0.121   5.508   1.769  0.2334  0.9872 -1.7110
 1325TIP3   OH2 3980   3.568   1.408   3.662  0.0008 -1.0482 -0.4852
 1325TIP3    H1 3981   3.548   1.362   3.743 -0.1995 -0.4047 -0.1643
 1325TIP3    H2 3982   3.604   1.492   3.690 -1.0680 -0.3743 -1.0393
 1326TIP3   OH2 3983   0.515   5.555   0.777  0.1440 -0.1586  0.4551
 1326TIP3    H1 3984   0.543   5.536   0.688  2.3523  1.1301  0.8004
 1326TIP3    H2 3985   0.421   5.568   0.770  0.4627  1.6428 -2.0529
 1327TIP3   OH2 3986   1.515   4.662   2.399 -0.1115 -0.4631  0.3895
 1327TIP3    H1 3987   1.582   4.668   2.467  2.2886  2.5408 -1.9045
 1327TIP3    H2 3988   1.452   4.731   2.421  0.5557  0.3725 -0.2630
 1328TIP3   OH2 3989   2.481   1.302   0.141 -0.0230  0.3482  0.2823
 1328TIP3    H1 3990   2.535   1.351   0.079  0.3094 -1.8065 -1.2491
 1328TIP3    H2 3991   2.538   1.231   0.172 -1.5389 -1.2432 -0.3991
 1329TIP3   OH2 3992   5.896   5.451   0.754  0.3218  0.3819  0.3539
 1329TIP3    H1 3993   5.917   5.360   0.775  1.4122 -0.1721 -2.6664
 1329TIP3    H2 3994   5.981   5.496   0.756  0.4344  0.3932 -1.9898
 1330TIP3   OH2 3995   2.840   2.084   3.419 -0.5966  0.5063 -0.1214
 1330TIP3    H1 3996   2.778   2.087   3.345 -2.1524  0.8395  1.1338
 1330TIP3    H2 3997   2.802   2.144   3.484  0.6858  0.1554  0.9967
 1331TIP3   OH2 3998   1.940   1.837   2.543  0.6811 -0.0627 -0.0124
 1331TIP3    H1 3999   1.947   1.752   2.500 -0.6113  0.5886 -1.6072
 1331TIP3    H2 4000   1.953   1.818   2.636 -0.3733 -2.1211 -0.2308
 1332TIP3   OH2 4001   1.495   3.090   2.050  0.1898  0.0974  0.0390
 1332TIP3    H1 4002   1.424   3.141   2.012 -1.8858 -0.7698  2.4569
 1332TIP3    H2 4003   1.514   3.023   1.984 -3.0410 -1.1889  0.2254
 1333TIP3   OH2 4004   3.889   3.399   3.654 -0.5329 -0.2489 -0.0540
 1333TIP3    H1 4005   3.844   3.482   3.668 -1.0529 -0.1084 -2.2464
 1333TIP3    H2 4006   3.878   3.352   3.737 -1.8219  1.1191  0.6028
 1334TIP3   OH2 4007   4.063   1.317   4.505 -0.3001  0.0595  0.2107
 1334TIP3    H1 4008   4.121   1.319   4.582  0.0260 -3.1152  0.1987
 1334TIP3    H2 4009   4.103   1.378   4.444  1.2128  0.3610  1.4217
 1335TIP3   OH2 4010   5.226   5.158   4.106  0.0298  0.3818  0.0389
 1335TIP3    H1 4011   5.133   5.167   4.128  0.5478  0.2049  2.7309
 1335TIP3    H2 4012   5.243   5.229   4.044 -1.8368  0.5179 -0.3829
 1336TIP3   OH2 4013   4.446   3.598   4.149  0.6989 -0.8236  0.2194
 1336TIP3    H1 4014   4.440   3.518   4.202 -0.4916 -0.7107  0.2855
 1336TIP3    H2 4015   4.358   3.635   4.151  0.8528 -0.3239 -1.0971
 1337TIP3   OH2 4016   3.627   5.642   0.659  0.0875 -0.0781 -0.2686
 1337TIP3    H1 4017   3.649   5.683   0.743  0.6334 -3.4867  1.4662
 1337TIP3    H2 4018   3.712   5.623   0.618 -0.1808  2.4135 -2.1768
 1338TIP3   OH2 4019   1.066   1.608   3.462 -0.5679  0.1134  0.6176
 1338TIP3    H1 4020   0.982   1.627   3.503 -0.4469 -0.2212  1.0255
 1338TIP3    H2 4021   1.063   1.655   3.379 -1.2841 -0.1403  0.4869
 1339TIP3   OH2 4022   4.239   4.130   0.919 -0.0702 -0.2081  0.1527
 1339TIP3    H1 4023   4.147   4.108   0.907 -0.5635  0.5774  2.0639
 1339TIP3    H2 4024   4.248   4.218   0.883  0.2532 -0.7325 -1.1162
 1340TIP3   OH2 4025   0.285   1.256   3.222  0.4645  0.3324 -0.2832
 1340TIP3    H1 4026   0.300   1.208   3.140  0.2107  2.8427 -1.8846
 1340TIP3    H2 4027   0.195   1.289   3.214  0.7755  1.4280  0.5563
 1341TIP3   OH2 4028   4.875   5.657   5.031 -0.1441  0.1749 -0.2395
 1341TIP3    H1 4029   4.930   5.625   5.103 -2.9653 -0.0762  1.9839
 1341TIP3    H2 4030   4.862   5.580   4.975 -0.8791 -0.6604  1.0355
 1342TIP3   OH2 4031   2.089   5.878   1.514  0.1998 -0.1635 -0.1681
 1342TIP3    H1 4032   2.165   5.823   1.492  0.3321 -0.4266  0.9323
 1342TIP3    H2 4033   2.030   5.820   1.562 -2.5246 -1.1130 -4.1377
 1343TIP3   OH2 4034   0.461   0.946   1.522  0.5528 -0.0994 -0.7735
 1343TIP3    H1 4035   0.458   1.036   1.553  0.3946 -0.5325  0.5245
 1343TIP3    H2 4036   0.546   0.938   1.480  0.6257  0.6117 -0.7789
 1344TIP3   OH2 4037   1.020   2.247   4.950 -0.8154  0.1976 -0.6335
 1344TIP3    H1 4038   0.972   2.293   4.881 -0.9009 -1.2779 -1.6171
 1344TIP3    H2 4039   1.075   2.185   4.902  0.9833  0.8061  0.5288
 1345TIP3   OH2 4040   2.447   4.581   3.328  0.2281 -0.6452  0.2403
 1345TIP3    H1 4041   2.420   4.660   3.283 -0.4448 -1.2165 -0.3892
 1345TIP3    H2 4042   2.403   4.585   3.413 -0.0826 -0.5147  0.0741
 1346TIP3   OH2 4043   2.985   1.998   4.302  0.1495  0.3439  0.0377
 1346TIP3    H1 4044   2.943   1.996   4.388 -1.5559  0.7074 -0.7674
 1346TIP3    H2 4045   3.065   1.946   4.314 -0.2265  0.1013  1.7441
 1347TIP3   OH2 4046   3.692   0.026   0.334  0.3458 -0.1922 -0.3696
 1347TIP3    H1 4047   3.638   0.101   0.359  1.0473 -0.2561  1.4927
 1347TIP3    H2 4048   3.674  -0.040   0.402  2.1328 -0.5099 -0.1638
 1348TIP3   OH2 4049   2.672   5.614   2.641  0.2943  0.4391  0.8923
 1348TIP3    H1 4050   2.703   5.525   2.624 -0.4464  0.1940  0.7770
 1348TIP3    H2 4051   2.726   5.644   2.714 -0.7517 -0.8602  2.2787
 1349TIP3   OH2 4052   3.262   3.963   2.980  0.0971 -0.5176 -0.0332
 1349TIP3    H1 4053   3.258   3.893   3.045 -1.1259 -0.2612  0.1843
 1349TIP3    H2 4054   3.210   3.930   2.906 -0.8718  0.3309  0.2522
 1350TIP3   OH2 4055   3.616   5.752   1.570  0.2147  0.4872  0.3782
 1350TIP3    H1 4056   3.532   5.707   1.561 -0.5352  1.4678  2.0895
 1350TIP3    H2 4057   3.616   5.818   1.501  0.4605 -0.7617 -0.8655
 1351TIP3   OH2 4058   4.285   3.410   4.265  0.2263  0.0293  0.3976
 1351TIP3    H1 4059   4.266   3.341   4.202 -2.3053  0.6594  0.3572
 1351TIP3    H2 4060   4.268   3.369   4.350  0.0167  0.2182  0.4472
 1352TIP3   OH2 4061   2.389   3.331   4.512  0.0745 -0.4105  0.0890
 1352TIP3    H1 4062   2.434   3.265   4.565  0.5119 -0.1116  0.0852
 1352TIP3    H2 4063   2.391   3.410   4.565  2.2996  0.4633 -1.1660
 1353TIP3   OH2 4064   4.701   4.363   3.234  0.1812  0.0147 -0.6631
 1353TIP3    H1 4065   4.725   4.300   3.302  0.4800  0.9046  0.0709
 1353TIP3    H2 4066   4.757   4.439   3.251 -2.1581  1.6421  0.2862
 1354TIP3   OH2 4067   5.389   5.645   2.240  0.2288  0.0730 -0.3142
 1354TIP3    H1 4068   5.444   5.708   2.193  1.9930 -1.8288 -0.9429
 1354TIP3    H2 4069   5.303   5.653   2.198  0.5579  1.5958 -0.7755
 1355TIP3   OH2 4070   0.082   4.641   2.435  0.2611  0.2638 -0.0894
 1355TIP3    H1 4071   0.045   4.596   2.359  0.3473  1.0415 -0.6109
 1355TIP3    H2 4072   0.013   4.638   2.501  0.1157 -0.2624 -0.2623
 1356TIP3   OH2 4073   1.273   5.639   4.699 -0.4527 -0.2087  0.3884
 1356TIP3    H1 4074   1.325   5.566   4.667 -0.1836 -0.4255  1.2886
 1356TIP3    H2 4075   1.327   5.678   4.768 -1.4226 -0.3543  1.2468
 1357TIP3   OH2 4076   1.939   3.621   2.705 -0.3115 -0.0083 -0.4960
 1357TIP3    H1 4077   1.986   3.587   2.630  2.1872  1.0483  0.4706
 1357TIP3    H2 4078   1.932   3.546   2.765 -0.6603 -0.3944 -1.0139
 1358TIP3   OH2 4079   0.906   3.399   4.530 -0.9767  0.4247  0.8968
 1358TIP3    H1 4080   0.902   3.492   4.551 -0.8248  0.4319  0.8917
 1358TIP3    H2 4081   0.912   3.356   4.615  1.0144  0.5185  0.8409
 1359TIP3   OH2 4082   1.589   0.202   0.624 -0.2018 -0.1642  0.5148
 1359TIP3    H1 4083   1.587   0.158   0.709 -0.0350 -0.1138  0.5447
 1359TIP3    H2 4084   1.657   0.269   0.634 -0.6081  0.2476  0.5464
 1360TIP3   OH2 4085   4.762   1.438   1.768 -0.1713  0.5908  0.0800
 1360TIP3    H1 4086   4.765   1.529   1.799 -0.4350  0.5452  0.2414
 1360TIP3    H2 4087   4.672   1.410   1.784 -0.3599  0.6124 -0.8730
 1361TIP3   OH2 4088   3.273   2.601   4.000 -0.2233  0.1986  0.2171
 1361TIP3    H1 4089   3.230   2.607   4.086 -1.2172  0.1000 -0.2595
 1361TIP3    H2 4090   3.352   2.551   4.017 -0.0361  0.8017  1.2173
 1362TIP3   OH2 4091   4.064   3.126   0.681 -0.3230 -0.1381  0.1007
 1362TIP3    H1 4092   4.046   3.220   0.679  2.1129  0.3839  0.3935
 1362TIP3    H2 4093   4.122   3.114   0.756  1.2775 -1.5001 -1.2899
 1363TIP3   OH2 4094   5.557   3.258   3.342 -0.7038  0.1677 -0.5818
 1363TIP3    H1 4095   5.652   3.267   3.337 -0.5476  0.3400  1.6610
 1363TIP3    H2 4096   5.543   3.181   3.396 -1.6782  2.7782  3.2757
 1364TIP3   OH2 4097   3.063   1.318   3.493 -0.6043 -0.0298 -0.6811
 1364TIP3    H1 4098   3.071   1.366   3.410 -1.7203  0.7782 -0.3512
 1364TIP3    H2 4099   3.011   1.241   3.470  1.6049 -1.4087 -1.3142
 1365TIP3   OH2 4100   4.416   3.006   2.504 -0.4482  0.0961  0.4826
 1365TIP3    H1 4101   4.486   3.059   2.467  0.4341  0.2736  2.3015
 1365TIP3    H2 4102   4.360   2.983   2.429  0.8614  0.9828 -0.8013
 1366TIP3   OH2 4103   3.098   3.979   4.979 -0.0030  0.0835 -0.3624
 1366TIP3    H1 4104   3.082   3.905   5.038 -1.8015  0.4513 -0.3361
 1366TIP3    H2 4105   3.194   3.987   4.976  0.2067 -1.7531  0.2257
 1367TIP3   OH2 4106   0.441   4.182   0.378 -0.2884  0.0289 -0.4696
 1367TIP3    H1 4107   0.354   4.216   0.359 -0.3806 -0.3304 -0.6840
 1367TIP3    H2 4108   0.433   4.144   0.465 -0.3348  0.0246 -0.4759
 1368TIP3   OH2 4109   5.371   0.309   1.072 -0.0236  0.1001  0.5058
 1368TIP3    H1 4110   5.334   0.285   1.157  0.0844 -2.8944 -0.1569
 1368TIP3    H2 4111   5.295   0.325   1.016 -0.2348 -1.2314  0.3755
 1369TIP3   OH2 4112   0.342   2.942   0.767 -0.1354  0.3063  0.0539
 1369TIP3    H1 4113   0.272   3.005   0.749  0.1878  0.9717  1.0238
 1369TIP3    H2 4114   0.395   2.943   0.687 -1.0482  0.0105 -0.5812
 1370TIP3   OH2 4115   0.553   2.714   4.932  0.0312 -0.4617  0.2592
 1370TIP3    H1 4116   0.466   2.752   4.944  0.4603  0.3719  0.8338
 1370TIP3    H2 4117   0.599   2.777   4.876 -0.1773 -1.6027 -1.2518
 1371TIP3   OH2 4118   5.015   3.910   2.728 -0.4564 -0.1902  0.4609
 1371TIP3    H1 4119   4.976   3.988   2.687 -0.1640  0.7958  1.9897
 1371TIP3    H2 4120   4.945   3.875   2.783 -0.6183 -1.0977 -0.3012
 1372TIP3   OH2 4121   4.006   0.501   4.762 -0.5298  0.5436 -0.3861
 1372TIP3    H1 4122   3.921   0.484   4.802  0.0358  0.4285  0.8336
 1372TIP3    H2 4123   4.056   0.546   4.831  0.4317  0.4716 -1.0208
 1373TIP3   OH2 4124   4.221   4.324   2.157  0.0305 -0.2945 -0.6173
 1373TIP3    H1 4125   4.240   4.408   2.115  0.9772 -0.8554 -1.3370
 1373TIP3    H2 4126   4.153   4.285   2.103 -1.5959  0.6806  0.6278
 1374TIP3   OH2 4127   5.482   1.130   1.967 -0.3658 -0.1982  0.1479
 1374TIP3    H1 4128   5.563   1.084   1.991  0.7927  0.9789 -1.3361
 1374TIP3    H2 4129   5.419   1.060   1.949  0.0368 -1.1398  2.0533
 1375TIP3   OH2 4130   1.128   2.970   1.652  0.0469  0.2482  0.0499
 1375TIP3    H1 4131   1.130   3.015   1.568  0.6078  0.0890 -0.0261
 1375TIP3    H2 4132   1.063   2.901   1.641  1.3931 -0.9481 -0.8750
 1376TIP3   OH2 4133   3.485   0.012   3.795  0.1100 -0.1045 -0.0475
 1376TIP3    H1 4134   3.425   0.070   3.747 -0.9704 -0.5448  0.7351
 1376TIP3    H2 4135   3.549   0.071   3.834 -1.1076  0.6318  0.9263
 1377TIP3   OH2 4136   4.414   1.859   4.762 -0.7235  0.2433 -0.0266
 1377TIP3    H1 4137   4.462   1.941   4.748 -0.9511  0.5971  1.1607
 1377TIP3    H2 4138   4.363   1.847   4.682 -0.9210  1.4327 -0.0947
 1378TIP3   OH2 4139   3.637   4.335   1.733  0.2719  0.3434  0.3782
 1378TIP3    H1 4140   3.578   4.267   1.764 -0.3301  0.2460 -0.9569
 1378TIP3    H2 4141   3.673   4.302   1.651 -1.5843  2.3940 -1.4035
 1379TIP3   OH2 4142   3.550   3.387   1.520  0.0609  0.3982  0.0850
 1379TIP3    H1 4143   3.532   3.324   1.590 -0.4647  0.3694 -0.0743
 1379TIP3    H2 4144   3.464   3.423   1.497  0.1414 -0.0699 -0.9944
 1380TIP3   OH2 4145   4.417   2.947   4.408 -0.1484  0.0939  0.1296
 1380TIP3    H1 4146   4.380   2.931   4.321 -0.4107  0.3002  0.2025
 1380TIP3    H2 4147   4.487   3.011   4.393  0.3133 -0.4412 -0.0361
 1381TIP3   OH2 4148   4.769   0.635   0.258  0.2114 -0.2589  0.0294
 1381TIP3    H1 4149   4.834   0.638   0.188  0.1115  0.6187 -0.0300
 1381TIP3    H2 4150   4.696   0.585   0.222 -0.2075  0.9299 -0.8146
 1382TIP3   OH2 4151   5.239   0.526   3.486 -0.5255  0.2908  0.7625
 1382TIP3    H1 4152   5.216   0.437   3.461 -0.7759  0.7574 -0.7587
 1382TIP3    H2 4153   5.299   0.515   3.561 -0.6410 -1.1327  0.6760
 1383TIP3   OH2 4154   1.051   4.682   3.083 -0.2762 -1.0155 -0.3425
 1383TIP3    H1 4155   1.021   4.608   3.135  0.9110 -0.8443  0.6234
 1383TIP3    H2 4156   1.119   4.645   3.026  2.8309 -0.1698  2.5041
 1384TIP3   OH2 4157   2.077   2.788   4.153 -0.0152  0.6879  0.2619
 1384TIP3    H1 4158   2.027   2.727   4.207  1.1793  1.3848  2.2690
 1384TIP3    H2 4159   2.050   2.768   4.063 -2.3635 -0.2789  1.0965
 1385TIP3   OH2 4160   5.358   0.979   0.964 -0.2425 -0.0992 -0.4331
 1385TIP3    H1 4161   5.441   1.014   0.930 -0.5745 -0.1860 -1.3637
 1385TIP3    H2 4162   5.309   1.057   0.993 -0.5744  0.1373 -1.5816
 1386TIP3   OH2 4163   5.429   3.658   1.273  0.0156 -0.1280 -0.0175
 1386TIP3    H1 4164   5.368   3.591   1.307  0.8536 -1.6041 -1.2983
 1386TIP3    H2 4165   5.483   3.681   1.349  0.6691 -2.0175  0.1420
 1387TIP3   OH2 4166   1.285   4.676   0.212  0.0145  0.0060 -0.0938
 1387TIP3    H1 4167   1.365   4.680   0.263  0.1693 -1.3879 -0.2097
 1387TIP3    H2 4168   1.231   4.748   0.247 -0.3369 -1.5168  2.8194
 1388TIP3   OH2 4169   3.593   1.724   3.666 -0.6139  0.2361 -0.4182
 1388TIP3    H1 4170   3.512   1.694   3.625 -0.7782  0.5408 -0.3236
 1388TIP3    H2 4171   3.573   1.812   3.698 -0.4006  0.1170  0.0620
 1389TIP3   OH2 4172   1.552   5.714   1.305 -0.1212  0.2781 -0.0461
 1389TIP3    H1 4173   1.643   5.726   1.330  0.2287  1.6538 -1.7744
 1389TIP3    H2 4174   1.505   5.785   1.349 -0.3620 -0.3290  0.7070
 1390TIP3   OH2 4175   4.162   0.371   2.861 -0.2161  0.4320 -0.6602
 1390TIP3    H1 4176   4.080   0.414   2.883 -0.7007 -1.1869  0.9413
 1390TIP3    H2 4177   4.215   0.377   2.940  0.9629  0.8584 -1.4536
 1391TIP3   OH2 4178   4.600   5.409   3.601  0.0525  0.0921 -1.1237
 1391TIP3    H1 4179   4.603   5.336   3.540 -1.8241 -0.0461 -1.1041
 1391TIP3    H2 4180   4.512   5.444   3.593 -0.3063  0.0262  1.5371
 1392TIP3   OH2 4181   3.037   4.332   1.878  0.6499 -0.2338  0.2666
 1392TIP3    H1 4182   3.058   4.249   1.921  0.5760  0.1545  1.0789
 1392TIP3    H2 4183   2.951   4.318   1.839  0.3714 -0.3553  0.9094
 1393TIP3   OH2 4184   4.084   1.966   2.171 -0.2678  0.6344  0.0362
 1393TIP3    H1 4185   4.087   2.051   2.215 -1.9751  0.6603  0.1706
 1393TIP3    H2 4186   4.117   1.984   2.083  0.9683  1.0679  0.5729
 1394TIP3   OH2 4187   4.716   0.080   4.798  0.3621  0.1277  0.2125
 1394TIP3    H1 4188   4.689   0.029   4.874  1.3987  0.6538  0.9446
 1394TIP3    H2 4189   4.644   0.142   4.784  0.5147  0.5672  1.2691
 1395TIP3   OH2 4190   2.850   4.024   2.195  0.1903 -0.0438  0.0505
 1395TIP3    H1 4191   2.841   3.953   2.258  0.7760  0.3013  0.5314
 1395TIP3    H2 4192   2.863   4.102   2.248  0.4151  0.2921 -0.4875
 1396TIP3   OH2 4193   3.566   2.140   2.549 -0.2957 -0.3158 -0.5404
 1396TIP3    H1 4194   3.609   2.147   2.634 -0.6997  2.1046 -0.4504
 1396TIP3    H2 4195   3.622   2.190   2.490 -1.5790  0.6546 -0.9822
 1397TIP3   OH2 4196   1.171   0.357   3.454  0.1420 -0.2538  0.1047
 1397TIP3    H1 4197   1.126   0.276   3.431  0.4866 -0.1418 -1.0273
 1397TIP3    H2 4198   1.240   0.330   3.516  0.0324 -0.7705  0.0040
 1398TIP3   OH2 4199   4.294   2.937   4.176  0.3964  0.0360 -0.5546
 1398TIP3    H1 4200   4.292   3.024   4.135  1.4040 -0.4105 -1.6078
 1398TIP3    H2 4201   4.215   2.894   4.143  0.0679  0.4327 -0.2931
 1399TIP3   OH2 4202   5.560   0.537   0.565  0.6905 -0.4651 -0.6105
 1399TIP3    H1 4203   5.583   0.549   0.473  1.5437  0.1409 -0.3289
 1399TIP3    H2 4204   5.535   0.624   0.595 -1.1879 -0.9455 -0.6709
 1400TIP3   OH2 4205   1.046   1.542   4.119  0.1569 -0.1846 -0.2350
 1400TIP3    H1 4206   0.965   1.587   4.145  0.4900  1.6227 -2.0016
 1400TIP3    H2 4207   1.115   1.589   4.165  0.2330 -2.3572  2.0575
 1401TIP3   OH2 4208   1.263   4.238   4.815 -0.1193 -0.0266  0.6663
 1401TIP3    H1 4209   1.346   4.211   4.855  0.9433  3.1484  0.8686
 1401TIP3    H2 4210   1.278   4.228   4.721 -0.6442 -2.2671  0.7712
 1402TIP3   OH2 4211   5.273   4.867   4.009 -0.1247 -0.1198 -0.1270
 1402TIP3    H1 4212   5.262   4.779   3.974 -0.7351  0.4463 -1.4318
 1402TIP3    H2 4213   5.212   4.872   4.083 -1.4298 -0.2408 -1.1495
 1403TIP3   OH2 4214   2.104   3.813   0.284  0.1265  0.5427  0.4344
 1403TIP3    H1 4215   2.070   3.902   0.295 -0.9074  0.2107  0.0241
 1403TIP3    H2 4216   2.178   3.808   0.344  1.4037  2.2856 -0.8656
 1404TIP3   OH2 4217   0.962   4.469   3.281  1.2300  0.0434 -0.7469
 1404TIP3    H1 4218   0.964   4.456   3.376  1.8085  3.5334 -0.1385
 1404TIP3    H2 4219   0.993   4.387   3.244  2.2415 -0.9729  2.1551
 1405TIP3   OH2 4220   0.116   2.040   2.144 -0.2284  0.4300 -0.9083
 1405TIP3    H1 4221   0.115   2.003   2.056  1.1911 -1.0468 -0.3573
 1405TIP3    H2 4222   0.029   2.021   2.179 -0.8526  1.1515 -2.0102
 1406TIP3   OH2 4223   4.255   2.779   0.609  0.1960  0.2171 -0.0057
 1406TIP3    H1 4224   4.309   2.712   0.568 -1.8474 -1.3868 -0.2093
 1406TIP3    H2 4225   4.209   2.735   0.680  1.0096  2.1397  1.8475
 1407TIP3   OH2 4226   2.547   3.934   0.380  0.2202 -0.6315 -0.4014
 1407TIP3    H1 4227   2.593   3.868   0.328  0.4419 -1.0720  0.3503
 1407TIP3    H2 4228   2.508   3.886   0.452 -1.3267 -0.2518 -0.9376
 1408TIP3   OH2 4229   2.444   3.119   2.018 -0.0019 -0.6392 -0.3590
 1408TIP3    H1 4230   2.465   3.206   1.983 -0.3669 -1.2188 -2.1549
 1408TIP3    H2 4231   2.514   3.101   2.080 -1.0009  1.7323  1.6125
 1409TIP3   OH2 4232   0.614   2.526   0.826  0.0675  0.0220 -0.4137
 1409TIP3    H1 4233   0.710   2.531   0.830 -0.0191  1.7213  0.4243
 1409TIP3    H2 4234   0.584   2.590   0.891 -1.6428 -0.6066 -0.5411
 1410TIP3   OH2 4235   3.761   4.046   0.046 -0.1309 -0.1411  0.6836
 1410TIP3    H1 4236   3.679   4.093   0.037 -0.7560 -1.1501  0.9650
 1410TIP3    H2 4237   3.754   3.999   0.129 -0.1088 -1.7930 -0.2001
 1411TIP3   OH2 4238   5.223   3.416   2.464 -0.4296 -0.4037  1.1379
 1411TIP3    H1 4239   5.313   3.387   2.448 -0.5301 -0.1999  0.1349
 1411TIP3    H2 4240   5.230   3.475   2.539  0.2482 -0.5427  1.1902
 1412TIP3   OH2 4241   2.278   5.639   3.854  0.1987 -0.1492 -0.2163
 1412TIP3    H1 4242   2.314   5.553   3.828 -0.6182 -0.9526  1.2006
 1412TIP3    H2 4243   2.344   5.675   3.913  0.5547  0.2275 -0.8328
 1413TIP3   OH2 4244   0.119   4.354   0.908  0.4550  0.8153  0.0543
 1413TIP3    H1 4245   0.030   4.389   0.914  0.1688  0.1741 -0.3280
 1413TIP3    H2 4246   0.121   4.310   0.822  0.6956 -0.3803  0.6507
 1414TIP3   OH2 4247   2.692   4.644   4.149  0.2101 -0.0588  0.1258
 1414TIP3    H1 4248   2.672   4.738   4.154  1.0239  0.1030  0.6410
 1414TIP3    H2 4249   2.768   4.634   4.207  0.8995 -0.8204 -0.8965
 1415TIP3   OH2 4250   3.251   3.740   1.942 -0.1971  0.0401 -0.2797
 1415TIP3    H1 4251   3.279   3.757   2.032 -0.6441  0.6210 -0.2377
 1415TIP3    H2 4252   3.188   3.668   1.950 -1.0574  0.7967  0.0284
 1416TIP3   OH2 4253   5.758   1.602   3.967  0.0629  0.0044  0.4809
 1416TIP3    H1 4254   5.839   1.581   4.013  1.1335  1.9920 -0.3467
 1416TIP3    H2 4255   5.787   1.644   3.885 -1.7940  0.1158 -0.1779
 1417TIP3   OH2 4256   1.434   5.689   4.150 -0.7527  0.0629 -0.0520
 1417TIP3    H1 4257   1.418   5.639   4.230 -1.4970  1.5669  0.7839
 1417TIP3    H2 4258   1.443   5.780   4.179  1.6405  0.3420 -1.4017
 1418TIP3   OH2 4259   1.354   5.423   1.409 -0.9226 -0.4198 -0.3028
 1418TIP3    H1 4260   1.295   5.471   1.352 -0.7036  0.0264 -0.1587
 1418TIP3    H2 4261   1.350   5.469   1.493 -0.1986 -0.2432 -0.3573
 1419TIP3   OH2 4262   1.420   3.631   4.045  0.1428 -0.1938 -0.2027
 1419TIP3    H1 4263   1.342   3.603   3.997 -0.2922  0.0414  0.3514
 1419TIP3    H2 4264   1.473   3.551   4.055  0.2806 -0.2278 -1.1307
 1420TIP3   OH2 4265   5.003   5.518   3.453  0.0195 -0.2182  0.0836
 1420TIP3    H1 4266   4.986   5.424   3.455  0.8758 -0.3699  0.6391
 1420TIP3    H2 4267   4.944   5.552   3.386 -1.1621 -0.9745  0.7161
 1421TIP3   OH2 4268   2.265   0.196   3.022 -0.1305 -0.3195  0.4280
 1421TIP3    H1 4269   2.238   0.130   2.958  0.0684  0.3452 -0.3600
 1421TIP3    H2 4270   2.360   0.202   3.012 -0.0275 -0.5938  1.1765
 1422TIP3   OH2 4271   0.239   4.598   1.817 -0.0338 -0.9012 -0.0501
 1422TIP3    H1 4272   0.227   4.648   1.898  0.0413 -0.5399 -0.2601
 1422TIP3    H2 4273   0.176   4.527   1.824 -1.5223  0.2961 -0.5883
 1423TIP3   OH2 4274   5.090   5.932   0.348 -0.0800 -0.4146  0.0147
 1423TIP3    H1 4275   5.119   5.975   0.268 -1.1165  1.1296  0.4228
 1423TIP3    H2 4276   5.127   5.985   0.419 -1.8350  0.1875  0.5372
 1424TIP3   OH2 4277   2.750   3.103   0.548 -0.2203 -0.1815 -0.5397
 1424TIP3    H1 4278   2.820   3.133   0.490  1.0329 -0.9133  0.5347
 1424TIP3    H2 4279   2.782   3.021   0.585 -0.5736  0.6493  1.7940
 1425TIP3   OH2 4280   1.539   2.665   0.424 -0.0730  0.0117  0.4159
 1425TIP3    H1 4281   1.449   2.633   0.422  0.1759 -0.7438 -2.0045
 1425TIP3    H2 4282   1.587   2.605   0.365  1.0839  2.8891 -1.8091
 1426TIP3   OH2 4283   4.293   5.125   3.243  0.1882 -0.2290  0.5145
 1426TIP3    H1 4284   4.271   5.033   3.262 -0.9297  0.0105  0.4654
 1426TIP3    H2 4285   4.208   5.168   3.234  0.6447  0.3377 -1.8268
 1427TIP3   OH2 4286   4.568   4.428   4.848  0.7615 -0.3005  0.7431
 1427TIP3    H1 4287   4.534   4.347   4.887 -1.2801 -0.1669 -0.6158
 1427TIP3    H2 4288   4.594   4.481   4.923 -1.9983 -0.4778  1.9274
 1428TIP3   OH2 4289   4.381   5.017   2.722  0.1461  0.3557 -0.2591
 1428TIP3    H1 4290   4.311   5.036   2.784  0.2205  0.8374 -0.3208
 1428TIP3    H2 4291   4.460   5.055   2.761 -0.0156  1.7424 -1.1995
 1429TIP3   OH2 4292   2.210   4.078   1.012  0.0570  0.5100  0.0220
 1429TIP3    H1 4293   2.271   4.150   1.028 -0.9381  1.2777  0.5018
 1429TIP3    H2 4294   2.266   4.003   0.994  1.1196  1.4876 -0.9342
 1430TIP3   OH2 4295   4.942   2.174   1.636  0.2077  0.2882  0.1071
 1430TIP3    H1 4296   5.013   2.122   1.674  1.9055  3.6083  1.8656
 1430TIP3    H2 4297   4.980   2.213   1.558 -1.1874 -1.2684 -1.4376
 1431TIP3   OH2 4298   5.358   2.808   0.054  0.0718 -0.2795  1.2940
 1431TIP3    H1 4299   5.309   2.811   0.135 -1.0107  0.3589  0.6403
 1431TIP3    H2 4300   5.450   2.819   0.080 -0.2215 -0.5572  2.4550
 1432TIP3   OH2 4301   4.463   5.032   3.950  0.3773 -0.3838 -0.0574
 1432TIP3    H1 4302   4.402   5.023   4.024  0.8069  0.8879  0.4795
 1432TIP3    H2 4303   4.549   5.013   3.987  0.4902 -0.7345 -0.4814
 1433TIP3   OH2 4304   1.263   2.564   3.635  0.3717  0.5550  0.1335
 1433TIP3    H1 4305   1.274   2.469   3.631  0.9786  0.6518 -1.3073
 1433TIP3    H2 4306   1.335   2.598   3.582  0.1183  1.8218  0.5665
 1434TIP3   OH2 4307   4.045   3.191   4.875  0.0473 -0.5169  0.1173
 1434TIP3    H1 4308   4.089   3.184   4.790 -1.6018  1.8249 -1.0384
 1434TIP3    H2 4309   3.975   3.126   4.872 -0.5468  0.1461 -0.7082
 1435TIP3   OH2 4310   5.312   4.948   1.872 -0.4203 -0.0977 -0.1882
 1435TIP3    H1 4311   5.326   4.966   1.965  1.2316 -0.5633 -0.3230
 1435TIP3    H2 4312   5.241   5.007   1.847 -1.3235 -0.4140  1.5037
 1436TIP3   OH2 4313   4.335   3.144   0.802  0.6084  0.2052 -0.3661
 1436TIP3    H1 4314   4.341   3.235   0.772  2.1981  0.4916  0.6650
 1436TIP3    H2 4315   4.391   3.095   0.742  1.9897  0.4144  0.6805
 1437TIP3   OH2 4316   5.932   2.418   1.826  0.1074  0.1734  0.0761
 1437TIP3    H1 4317   5.997   2.486   1.840  0.5864 -0.2772  0.0839
 1437TIP3    H2 4318   5.941   2.360   1.902 -0.6240  0.3580  0.3113
 1438TIP3   OH2 4319   5.116   4.202   2.491 -0.3448  0.0765  0.3708
 1438TIP3    H1 4320   5.023   4.223   2.495 -0.5912 -1.0702  0.9294
 1438TIP3    H2 4321   5.125   4.149   2.411 -0.1287  0.3736  0.1957
 1439TIP3   OH2 4322   3.412   1.482   0.184 -0.2027  0.1356 -0.3234
 1439TIP3    H1 4323   3.505   1.499   0.197 -0.3315 -0.6687  1.9922
 1439TIP3    H2 4324   3.405   1.386   0.183 -0.8978  0.1760 -1.6287
 1440TIP3   OH2 4325   4.323   5.809   4.834 -0.2076 -0.0342  0.1460
 1440TIP3    H1 4326   4.292   5.725   4.801  0.5734  0.4207 -1.8960
 1440TIP3    H2 4327   4.335   5.863   4.756  1.7918  1.1149  1.1568
 1441TIP3   OH2 4328   4.012   2.525   2.829 -0.9629 -0.5845 -0.1676
 1441TIP3    H1 4329   4.077   2.489   2.891 -1.2499 -0.7144  0.0606
 1441TIP3    H2 4330   4.044   2.498   2.743 -1.4338 -1.8410  0.0215
 1442TIP3   OH2 4331   5.875   4.966   0.784  0.8254 -0.0491  0.5110
 1442TIP3    H1 4332   5.812   4.971   0.712  0.0148 -1.4781  1.0901
 1442TIP3    H2 4333   5.935   4.895   0.759 -0.1027 -1.3018  1.6903
 1443TIP3   OH2 4334   3.245   0.531   5.153 -0.1307  0.2061 -0.2011
 1443TIP3    H1 4335   3.153   0.510   5.140  0.2829 -0.7175 -1.9400
 1443TIP3    H2 4336   3.246   0.623   5.179 -1.5045  0.3926 -0.7634
 1444TIP3   OH2 4337   0.847   5.216   3.004 -0.2417  0.3938 -0.0052
 1444TIP3    H1 4338   0.761   5.258   2.997 -0.2631  0.2458 -0.6408
 1444TIP3    H2 4339   0.860   5.173   2.920  0.2513  0.0169  0.2566
 1445TIP3   OH2 4340   0.453   4.467   2.677  0.1313 -0.8463 -0.0409
 1445TIP3    H1 4341   0.514   4.395   2.663  0.9220 -0.2220  0.0756
 1445TIP3    H2 4342   0.471   4.497   2.766  0.3138 -0.0601 -0.3345
 1446TIP3   OH2 4343   3.728   1.812   0.873  0.4417 -0.0530 -0.2201
 1446TIP3    H1 4344   3.804   1.758   0.893 -0.6284 -1.5088  0.0253
 1446TIP3    H2 4345   3.708   1.794   0.781  1.1142  1.2985 -0.6698
 1447TIP3   OH2 4346   3.614   0.006   1.430 -0.2838 -0.0451  0.0787
 1447TIP3    H1 4347   3.625   0.043   1.518  0.5059 -0.7861  0.3039
 1447TIP3    H2 4348   3.546   0.060   1.390 -1.5625 -0.4391  1.5835
 1448TIP3   OH2 4349   1.751   3.118   4.731 -0.3024 -0.1267 -0.2195
 1448TIP3    H1 4350   1.721   3.059   4.662 -1.6355  2.0664 -1.6617
 1448TIP3    H2 4351   1.759   3.203   4.687  2.5066  0.6272  1.5087
 1449TIP3   OH2 4352   0.702   5.072   3.517 -0.4806 -0.3714 -0.0585
 1449TIP3    H1 4353   0.760   5.042   3.588  0.7232 -0.9626 -1.2313
 1449TIP3    H2 4354   0.650   4.994   3.494 -1.0909 -0.0959  0.3711
 1450TIP3   OH2 4355   4.479   0.191   3.334  0.0578  0.1538  0.2367
 1450TIP3    H1 4356   4.479   0.171   3.240  1.1889 -1.3331  0.5063
 1450TIP3    H2 4357   4.533   0.270   3.342  0.1458  0.1572 -0.3556
 1451TIP3   OH2 4358   4.153   0.870   1.586 -0.2738 -0.3534 -0.1869
 1451TIP3    H1 4359   4.224   0.874   1.650 -1.4980 -0.7026  1.2435
 1451TIP3    H2 4360   4.128   0.961   1.570 -0.2620 -0.2854  0.1843
 1452TIP3   OH2 4361   6.240   2.265   1.103 -0.2128  0.1637 -0.0058
 1452TIP3    H1 4362   6.224   2.294   1.013 -2.7677  2.5736  1.0914
 1452TIP3    H2 4363   6.154   2.236   1.134  0.4614  0.1318  1.9103
 1453TIP3   OH2 4364  -0.004   4.335   3.278 -0.0507  0.0300 -0.3335
 1453TIP3    H1 4365  -0.021   4.271   3.209 -1.5566 -2.7447  2.3924
 1453TIP3    H2 4366   0.069   4.299   3.328 -2.5743 -1.1631  2.8250
 1454TIP3   OH2 4367   0.304   4.120   1.538 -0.1606  0.0681  0.1202
 1454TIP3    H1 4368   0.363   4.177   1.488  0.1889 -1.1733 -0.9401
 1454TIP3    H2 4369   0.274   4.056   1.474 -1.5422 -0.1933  0.9918
 1455TIP3   OH2 4370   2.934   0.622   0.473 -0.1246  0.3019 -0.0753
 1455TIP3    H1 4371   2.845   0.591   0.456  0.9110 -2.2947 -1.1981
 1455TIP3    H2 4372   2.956   0.588   0.560  1.0415 -2.5414 -1.3410
 1456TIP3   OH2 4373   0.511   5.243   4.689 -0.6862 -0.0599  0.0713
 1456TIP3    H1 4374   0.505   5.321   4.743  0.3149  0.6389 -0.7951
 1456TIP3    H2 4375   0.423   5.233   4.651 -1.6119 -0.9523  2.2793
 1457TIP3   OH2 4376   2.768   5.359   2.605  0.6627  0.2307 -0.0978
 1457TIP3    H1 4377   2.821   5.336   2.529  0.9636 -0.4464  0.3000
 1457TIP3    H2 4378   2.689   5.305   2.597 -0.6223  2.1972 -1.3862
 1458TIP3   OH2 4379   0.732   5.117   4.919 -0.4522  0.4383  0.2351
 1458TIP3    H1 4380   0.737   5.128   5.014 -0.3006  1.9866  0.0844
 1458TIP3    H2 4381   0.786   5.041   4.900 -0.8027 -0.1209  1.4284
 1459TIP3   OH2 4382   0.130   5.282   1.172 -0.3655  0.2124 -0.4168
 1459TIP3    H1 4383   0.126   5.285   1.077 -1.4439  2.2222 -0.3465
 1459TIP3    H2 4384   0.155   5.370   1.199  1.2038 -0.6289  1.1467
 1460TIP3   OH2 4385   5.080   4.303   5.020 -0.0181  0.4865 -0.1244
 1460TIP3    H1 4386   5.154   4.245   5.003  0.1198  0.6702 -0.1572
 1460TIP3    H2 4387   5.026   4.296   4.941 -0.3601 -0.1318  0.1614
 1461TIP3   OH2 4388   2.147   1.814   0.863  0.1510 -0.0542 -0.7504
 1461TIP3    H1 4389   2.152   1.892   0.918  0.3742 -0.1875 -0.5781
 1461TIP3    H2 4390   2.129   1.743   0.925 -1.3840  0.0401 -1.0516
 1462TIP3   OH2 4391   3.329   0.401   3.685  0.2287 -0.0002  0.4399
 1462TIP3    H1 4392   3.311   0.315   3.724 -2.1097  1.1877  2.2377
 1462TIP3    H2 4393   3.391   0.442   3.745  0.7367 -0.1293  0.0069
 1463TIP3   OH2 4394   4.508   0.475   1.233  0.6555 -0.0226  0.0652
 1463TIP3    H1 4395   4.515   0.383   1.259  0.6443  0.1105  0.5459
 1463TIP3    H2 4396   4.530   0.475   1.140  1.8125 -0.3641  0.3203
 1464TIP3   OH2 4397   4.769   0.086   3.050  0.5369 -0.3520 -0.6002
 1464TIP3    H1 4398   4.783   0.034   2.971 -0.7405 -0.2416 -0.9220
 1464TIP3    H2 4399   4.683   0.125   3.038  0.5875  0.1603  0.5799
 1465TIP3   OH2 4400   3.701   4.783   2.245 -0.2228 -0.4264 -0.1622
 1465TIP3    H1 4401   3.618   4.830   2.252  0.0309 -0.2309  2.4815
 1465TIP3    H2 4402   3.764   4.849   2.218 -0.5548 -0.0928 -0.1326
 1466TIP3   OH2 4403   5.072   3.673   4.917  0.0922 -0.3937 -0.1196
 1466TIP3    H1 4404   5.094   3.749   4.969  0.9297 -0.7814  0.1120
 1466TIP3    H2 4405   5.055   3.708   4.829 -0.5495  0.1651  0.2201
 1467TIP3   OH2 4406   2.267   3.807   4.205  0.5164 -0.4021 -0.3176
 1467TIP3    H1 4407   2.273   3.879   4.142 -0.0484 -0.0153  0.0619
 1467TIP3    H2 4408   2.226   3.846   4.282 -1.3712 -1.5158 -0.7048
 1468TIP3   OH2 4409   2.590   3.517   2.946  0.4243 -0.3293  0.0768
 1468TIP3    H1 4410   2.545   3.548   2.868  1.0169 -0.2110 -0.2184
 1468TIP3    H2 4411   2.564   3.578   3.015 -0.5772 -0.7825  0.1207
 1469TIP3   OH2 4412   3.350   0.106   0.388 -0.2452  0.3060 -0.7084
 1469TIP3    H1 4413   3.421   0.143   0.441 -0.1484  0.6827 -1.0937
 1469TIP3    H2 4414   3.358   0.011   0.399 -1.6394  0.3913  1.8105
 1470TIP3   OH2 4415   1.311   3.905   4.111  0.5680  0.0851  0.0099
 1470TIP3    H1 4416   1.341   3.823   4.149 -3.2494 -0.0481  3.3863
 1470TIP3    H2 4417   1.338   3.972   4.174 -0.9587  0.6191  0.1548
 1471TIP3   OH2 4418   4.180   0.996   4.609  0.0585 -0.1924  0.1577
 1471TIP3    H1 4419   4.114   0.932   4.581 -0.9066  0.0789  1.6748
 1471TIP3    H2 4420   4.187   0.982   4.703  1.3107  0.6091  0.1952
 1472TIP3   OH2 4421   2.905   2.105   0.705  0.4874 -0.0628  0.7941
 1472TIP3    H1 4422   2.993   2.142   0.691 -0.1714  0.9207 -1.1834
 1472TIP3    H2 4423   2.911   2.016   0.671  0.8586 -0.1905  1.1847
 1473TIP3   OH2 4424   1.243   4.940   3.238 -0.0223  0.3824 -0.9416
 1473TIP3    H1 4425   1.314   4.961   3.298  0.4710 -1.1630 -0.9490
 1473TIP3    H2 4426   1.222   5.023   3.195  0.6398  1.1948  0.2608
 1474TIP3   OH2 4427   4.718   0.819   3.300 -0.0284 -0.0695 -0.2625
 1474TIP3    H1 4428   4.760   0.753   3.355  0.5502  0.4484 -0.0806
 1474TIP3    H2 4429   4.777   0.830   3.226 -2.1733 -2.9537 -2.6388
 1475TIP3   OH2 4430   1.457   4.999   1.866 -0.0135 -0.2142  0.0708
 1475TIP3    H1 4431   1.469   4.934   1.935 -1.4601 -0.8304 -0.2253
 1475TIP3    H2 4432   1.389   5.057   1.899  0.3990  0.4255 -0.1868
 1476TIP3   OH2 4433   3.029   1.706   3.278  0.1330  0.3427 -0.1714
 1476TIP3    H1 4434   3.005   1.738   3.365 -1.4013  1.2700 -0.8848
 1476TIP3    H2 4435   2.987   1.621   3.271 -1.5773  1.1840 -0.7434
 1477TIP3   OH2 4436   4.907   4.309   1.834  0.0577 -0.3488  0.3422
 1477TIP3    H1 4437   4.885   4.235   1.777  1.7327  1.1481 -2.4446
 1477TIP3    H2 4438   4.962   4.366   1.780 -0.6546  2.6816  2.5309
 1478TIP3   OH2 4439   3.487   0.989   3.641  0.2630  0.6953  0.6894
 1478TIP3    H1 4440   3.399   1.016   3.665 -1.3935 -1.1184 -2.6327
 1478TIP3    H2 4441   3.514   1.051   3.573  0.7949  0.2114  0.4453
 1479TIP3   OH2 4442   0.401   5.949   0.081  0.0676  0.0150  0.0485
 1479TIP3    H1 4443   0.346   5.871   0.083  1.9108 -1.3342  0.2840
 1479TIP3    H2 4444   0.448   5.945  -0.002  2.7397 -1.0696  1.4801
 1480TIP3   OH2 4445   0.622   1.316   2.340  0.2809 -0.2796 -0.0667
 1480TIP3    H1 4446   0.674   1.374   2.285  1.9216 -2.3539 -0.8161
 1480TIP3    H2 4447   0.531   1.340   2.321  0.8590  0.6794 -1.8119
 1481TIP3   OH2 4448   6.315   1.506   3.415  0.8711  0.2242 -0.4718
 1481TIP3    H1 4449   6.305   1.559   3.494 -0.1613 -1.3119  0.4668
 1481TIP3    H2 4450   6.409   1.491   3.408  1.3889  3.3204 -1.5886
 1482TIP3   OH2 4451   6.294   5.523   3.840 -0.1917 -0.4332 -0.1504
 1482TIP3    H1 4452   6.377   5.497   3.799 -0.5026 -1.3271 -0.2344
 1482TIP3    H2 4453   6.266   5.445   3.887 -0.5590  0.1438  0.5923
 1483TIP3   OH2 4454   3.233   4.455   2.615  0.2111  0.9209 -0.3302
 1483TIP3    H1 4455   3.167   4.491   2.675  1.3633  0.6644  1.1545
 1483TIP3    H2 4456   3.278   4.533   2.581  1.3780  1.0505  1.3405
 1484TIP3   OH2 4457   1.103   4.498   0.932  0.6112 -0.5991  0.1583
 1484TIP3    H1 4458   1.102   4.583   0.976 -0.0075 -0.3296 -0.3599
 1484TIP3    H2 4459   1.176   4.451   0.972 -0.6058 -0.8013  2.3082
 1485TIP3   OH2 4460   5.818   5.435   4.122  0.9079  0.3410 -0.0019
 1485TIP3    H1 4461   5.808   5.442   4.217 -0.9413 -1.6505  0.0088
 1485TIP3    H2 4462   5.730   5.441   4.087  1.3599 -0.7149 -1.4441
 1486TIP3   OH2 4463   5.150   1.453   2.980  0.2596  0.5321 -0.6625
 1486TIP3    H1 4464   5.160   1.382   2.917 -0.5833 -0.4857  0.3118
 1486TIP3    H2 4465   5.230   1.450   3.033  0.5874  0.8410 -1.1371
 1487TIP3   OH2 4466   6.219   2.272   4.479  0.2619 -0.5882 -0.0128
 1487TIP3    H1 4467   6.196   2.249   4.389  0.0124  0.0789 -0.1209
 1487TIP3    H2 4468   6.164   2.347   4.500  1.0032 -0.1331  0.3615
 1488TIP3   OH2 4469   0.213   4.013   1.294  0.0232 -0.8235  0.3044
 1488TIP3    H1 4470   0.219   4.107   1.273 -1.2684 -0.4388  1.4771
 1488TIP3    H2 4471   0.154   3.977   1.228 -0.5964 -0.5035  0.6712
 1489TIP3   OH2 4472   1.847   3.383   2.088  0.0132 -0.1230 -0.3751
 1489TIP3    H1 4473   1.835   3.326   2.164 -0.3771  1.0247  0.4521
 1489TIP3    H2 4474   1.883   3.326   2.020  0.0830 -1.2364  0.5757
 1490TIP3   OH2 4475   3.530   1.899   2.309 -0.1246 -0.0985 -0.1630
 1490TIP3    H1 4476   3.613   1.935   2.279  0.8897 -1.1591  1.2120
 1490TIP3    H2 4477   3.535   1.906   2.405 -1.1394 -1.2013 -0.0145
 1491TIP3   OH2 4478   1.201   4.802   1.019  0.0204 -0.0306 -0.0763
 1491TIP3    H1 4479   1.249   4.753   1.087  0.0105  0.1154  0.0357
 1491TIP3    H2 4480   1.270   4.842   0.966  0.0207  0.1998  0.0996
 1492TIP3   OH2 4481   5.181   1.170   2.921 -0.5389 -0.2442 -0.1906
 1492TIP3    H1 4482   5.164   1.076   2.929  0.2995 -0.3983 -0.1273
 1492TIP3    H2 4483   5.251   1.176   2.856  0.3860  0.2357  0.8293
 1493TIP3   OH2 4484   5.905   1.939   5.003  0.3374  0.0372 -0.2532
 1493TIP3    H1 4485   5.994   1.906   5.013 -0.2655 -1.2285  1.5431
 1493TIP3    H2 4486   5.890   1.990   5.082 -1.1205 -1.3318  0.4121
 1494TIP3   OH2 4487   4.152   5.138   1.846 -0.1044 -0.1033 -0.6380
 1494TIP3    H1 4488   4.171   5.183   1.763 -2.3596  1.2215 -0.4938
 1494TIP3    H2 4489   4.183   5.197   1.914 -1.3490  0.4039 -0.4900
 1495TIP3   OH2 4490   3.946   0.384   3.562  0.3594  0.0978  0.7057
 1495TIP3    H1 4491   3.902   0.443   3.500  1.1506  0.5227  0.5297
 1495TIP3    H2 4492   4.038   0.411   3.559  0.3936  0.2307  2.1787
 1496TIP3   OH2 4493   5.771   1.167   3.288 -0.4481  0.2087  0.3045
 1496TIP3    H1 4494   5.823   1.146   3.366 -0.0235 -2.8426 -0.6466
 1496TIP3    H2 4495   5.836   1.193   3.222 -0.4778 -0.0870  0.1544
 1497TIP3   OH2 4496   5.025   1.314   4.739 -0.0299  0.1757 -0.5442
 1497TIP3    H1 4497   4.989   1.301   4.652 -0.1073 -0.3427 -0.4394
 1497TIP3    H2 4498   5.095   1.379   4.727 -1.2719  1.5248 -0.6663
 1498TIP3   OH2 4499   5.237   2.207   3.608  0.2193 -0.7008  0.3752
 1498TIP3    H1 4500   5.237   2.130   3.551  2.4884 -0.1674 -0.4436
 1498TIP3    H2 4501   5.242   2.172   3.697  3.0308 -1.5720 -0.0489
 1499TIP3   OH2 4502   2.831   5.385   5.030 -0.3598  0.4785  0.4840
 1499TIP3    H1 4503   2.826   5.290   5.036  0.1700  0.2642 -1.7417
 1499TIP3    H2 4504   2.762   5.417   5.089 -1.9963 -1.3232 -0.3700
 1500TIP3   OH2 4505   0.534   5.231   4.269  0.1412 -0.5957  0.3796
 1500TIP3    H1 4506   0.535   5.278   4.185 -1.2923 -2.0710 -0.5297
 1500TIP3    H2 4507   0.441   5.222   4.289  0.4359 -1.6280  1.3538
 1501TIP3   OH2 4508   4.282   2.757   2.090  0.0523  0.0320 -0.4867
 1501TIP3    H1 4509   4.360   2.811   2.107 -0.6759  0.5891  1.3181
 1501TIP3    H2 4510   4.302   2.672   2.128 -0.9746  0.8155  2.0359
 1502TIP3   OH2 4511   5.144   0.798   3.526  0.5982 -0.4099 -0.4893
 1502TIP3    H1 4512   5.163   0.705   3.513 -0.9545 -0.8563  0.2084
 1502TIP3    H2 4513   5.101   0.824   3.445  0.5800 -0.4242 -0.4842
 1503TIP3   OH2 4514   5.695   3.358   3.751  0.6424 -0.2545 -0.1578
 1503TIP3    H1 4515   5.660   3.431   3.700  1.0346  0.2552  0.3051
 1503TIP3    H2 4516   5.618   3.317   3.791  0.5304  0.6170  0.5318
 1504TIP3   OH2 4517   4.651   2.009   3.151  0.4671  0.1223  0.0413
 1504TIP3    H1 4518   4.602   1.932   3.124  0.0282 -0.3138  1.9306
 1504TIP3    H2 4519   4.671   2.055   3.069 -0.1367 -1.4521 -1.0348
 1505TIP3   OH2 4520   5.121   3.206   5.050 -0.6283  0.4667 -0.6725
 1505TIP3    H1 4521   5.200   3.259   5.060 -1.2299  1.5818 -1.5617
 1505TIP3    H2 4522   5.056   3.267   5.015 -1.5974 -0.6648 -0.8983
 1506TIP3   OH2 4523   2.319   4.926   4.478 -0.2859  0.9322  0.2777
 1506TIP3    H1 4524   2.256   4.895   4.544 -0.9269  2.9065  0.6620
 1506TIP3    H2 4525   2.362   5.000   4.519  1.8742  0.0422 -0.2508
 1507TIP3   OH2 4526   2.770   3.574   4.469  0.4382  0.0045  0.3644
 1507TIP3    H1 4527   2.730   3.508   4.413  0.8451  1.1431 -1.3746
 1507TIP3    H2 4528   2.859   3.543   4.483  0.1335 -0.6177  0.9668
 1508TIP3   OH2 4529   2.575   4.912   5.070  0.1268  0.5662 -0.7083
 1508TIP3    H1 4530   2.589   4.853   5.144  1.2046  1.0629 -0.4989
 1508TIP3    H2 4531   2.550   4.854   4.998 -1.7551  0.1464  0.2187
 1509TIP3   OH2 4532   3.028   4.483   3.435 -0.1733  0.9555  0.4628
 1509TIP3    H1 4533   3.117   4.519   3.432 -0.1894  1.0452  0.9995
 1509TIP3    H2 4534   3.009   4.475   3.528 -0.9109  1.3821  0.3520
 1510TIP3   OH2 4535   3.505   2.305   3.446  0.5555  0.0699  0.7498
 1510TIP3    H1 4536   3.600   2.320   3.449  1.0076 -2.1752 -0.0292
 1510TIP3    H2 4537   3.476   2.348   3.366  0.9460  0.5366  0.8517
 1511TIP3   OH2 4538   3.716   2.242   0.774 -0.5587 -0.0485  0.2501
 1511TIP3    H1 4539   3.666   2.199   0.705  0.1134 -0.2223 -0.1440
 1511TIP3    H2 4540   3.725   2.175   0.842 -2.6153  0.6177  1.2689
 1512TIP3   OH2 4541   5.339   0.879   2.089  0.0123  0.5099 -0.2957
 1512TIP3    H1 4542   5.340   0.811   2.156 -1.6095  0.5198 -0.2409
 1512TIP3    H2 4543   5.249   0.882   2.058  0.6437  0.6839 -2.3179
 1513TIP3   OH2 4544   0.343   5.888   2.791 -0.7310 -0.2968 -0.0078
 1513TIP3    H1 4545   0.276   5.922   2.850 -0.2983  0.9689 -0.2166
 1513TIP3    H2 4546   0.294   5.841   2.723 -1.3509 -0.0729  0.2762
 1514TIP3   OH2 4547   6.191   3.144   0.967 -0.1677  0.4023 -0.4524
 1514TIP3    H1 4548   6.263   3.137   0.904 -1.1283  1.3426 -1.7110
 1514TIP3    H2 4549   6.112   3.139   0.913 -1.1584 -2.4256  1.0612
 1515TIP3   OH2 4550   4.610   5.232   4.657  0.1261  0.5017 -0.5307
 1515TIP3    H1 4551   4.596   5.323   4.681 -0.9755  0.2409 -0.1089
 1515TIP3    H2 4552   4.661   5.235   4.576 -1.8971  1.5665 -1.8608
 1516TIP3   OH2 4553   4.225   4.588   3.273  0.2496  0.3886 -0.4969
 1516TIP3    H1 4554   4.231   4.518   3.338  1.6026  0.5901 -0.3679
 1516TIP3    H2 4555   4.190   4.546   3.194 -2.3933  0.3397  0.5862
 1517TIP3   OH2 4556   1.962   1.694   0.153 -0.0976  0.0012  0.4573
 1517TIP3    H1 4557   1.870   1.684   0.128 -0.2215  1.1372  0.4119
 1517TIP3    H2 4558   1.964   1.668   0.245 -0.4312 -0.2103  0.4075
 1518TIP3   OH2 4559   3.864   2.847   1.466  0.0336  0.0821  0.3412
 1518TIP3    H1 4560   3.821   2.823   1.383  0.0547  2.2785 -0.3655
 1518TIP3    H2 4561   3.878   2.941   1.459 -1.0027  0.5541  3.3346
 1519TIP3   OH2 4562   4.414   3.267   2.783  0.8280  0.2824 -0.5200
 1519TIP3    H1 4563   4.425   3.280   2.877 -1.6994 -0.1092 -0.1063
 1519TIP3    H2 4564   4.364   3.186   2.775 -0.1682  1.0059 -2.1113
 1520TIP3   OH2 4565   1.304   0.265   4.572  0.2746  1.1494  0.1230
 1520TIP3    H1 4566   1.290   0.347   4.526 -2.3456  0.6539 -0.0992
 1520TIP3    H2 4567   1.221   0.247   4.615  1.0109 -1.0340  0.7716
 1521TIP3   OH2 4568   1.368   5.050   2.538 -0.0365  0.1987  0.1104
 1521TIP3    H1 4569   1.385   5.138   2.504  0.4042  0.0633 -0.0240
 1521TIP3    H2 4570   1.453   5.019   2.568 -0.4025  0.3073  1.3426
 1522TIP3   OH2 4571   1.291   4.554   3.484  0.1157 -0.3975  0.0317
 1522TIP3    H1 4572   1.374   4.514   3.509 -0.3717 -1.5513 -0.1518
 1522TIP3    H2 4573   1.250   4.577   3.568 -0.9131 -3.0226  0.3395
 1523TIP3   OH2 4574   0.929   1.385   3.375  0.5560  0.1883 -0.1537
 1523TIP3    H1 4575   0.960   1.381   3.284  0.9735 -1.1737  0.0203
 1523TIP3    H2 4576   0.971   1.462   3.412  0.8640  0.4138 -0.9505
 1524TIP3   OH2 4577   0.857   5.752   4.394  0.2217  0.3078  0.2418
 1524TIP3    H1 4578   0.897   5.811   4.331  2.3246 -1.7736 -0.4981
 1524TIP3    H2 4579   0.911   5.762   4.473 -0.3044  0.4040  0.5936
 1525TIP3   OH2 4580   3.428   1.634   1.720  0.4726  0.7880  0.3447
 1525TIP3    H1 4581   3.409   1.641   1.814  0.2044 -0.8386  0.4346
 1525TIP3    H2 4582   3.344   1.612   1.680  1.0388 -1.0182  0.0612
 1526TIP3   OH2 4583   3.401   1.121  -0.007  0.0892 -0.8252  0.4715
 1526TIP3    H1 4584   3.483   1.079   0.019  1.2864  0.2866 -1.2894
 1526TIP3    H2 4585   3.364   1.154   0.075  1.5078 -1.1614  1.2873
 1527TIP3   OH2 4586   5.128   3.401   0.211 -0.2823  0.1106 -0.0834
 1527TIP3    H1 4587   5.213   3.438   0.189 -0.1052 -0.5540 -0.5425
 1527TIP3    H2 4588   5.111   3.432   0.300  0.4204  0.2851 -0.0057
 1528TIP3   OH2 4589   1.976   4.114   4.337 -0.4300 -0.4617 -0.0629
 1528TIP3    H1 4590   2.039   4.178   4.302 -0.5579 -1.2084 -1.7793
 1528TIP3    H2 4591   1.931   4.161   4.407  0.0641  1.0533 -0.7027
 1529TIP3   OH2 4592   0.169   2.913   2.625 -0.0188  0.1247 -0.2184
 1529TIP3    H1 4593   0.232   2.943   2.691  1.4947 -0.0444 -1.5332
 1529TIP3    H2 4594   0.116   2.990   2.606 -0.1523  0.3048  0.8200
 1530TIP3   OH2 4595   0.977   0.808   3.886  0.2472 -0.0591 -0.2814
 1530TIP3    H1 4596   0.905   0.848   3.935  0.1979 -0.0386 -0.3721
 1530TIP3    H2 4597   0.945   0.800   3.797 -0.1076 -1.1735 -0.0740
 1531TIP3   OH2 4598   0.833   3.931   2.951 -0.1853  0.0923 -0.3128
 1531TIP3    H1 4599   0.816   3.886   3.034  0.7448 -1.6607 -1.0268
 1531TIP3    H2 4600   0.904   3.992   2.971 -0.8560  0.6403  0.4648
 1532TIP3   OH2 4601   1.542   2.423   1.251 -0.3914  0.8005  0.2265
 1532TIP3    H1 4602   1.572   2.480   1.180 -0.8142  1.3168  0.4554
 1532TIP3    H2 4603   1.447   2.422   1.244 -0.3545 -2.1414 -1.5003
 1533TIP3   OH2 4604   4.988   3.262   3.856 -0.1286  0.1992  0.3925
 1533TIP3    H1 4605   4.964   3.338   3.803  0.8308 -0.3179 -0.8499
 1533TIP3    H2 4606   4.965   3.187   3.802 -0.3417 -0.3871  1.2761
 1534TIP3   OH2 4607   0.737   4.423   2.522 -0.2590 -0.1448  0.1330
 1534TIP3    H1 4608   0.822   4.379   2.514  0.7260  1.8580 -1.1892
 1534TIP3    H2 4609   0.683   4.382   2.455  0.4886  0.2717 -0.7527
 1535TIP3   OH2 4610   3.344   1.675   3.523 -0.2584  0.3457 -0.5208
 1535TIP3    H1 4611   3.375   1.636   3.441  0.9225 -0.6821  0.3681
 1535TIP3    H2 4612   3.328   1.600   3.580 -0.3346  1.0721  0.4342
 1536TIP3   OH2 4613   0.978   5.721   2.175  0.2905 -0.6246  0.7253
 1536TIP3    H1 4614   0.908   5.763   2.126 -0.6262 -0.7947  1.8384
 1536TIP3    H2 4615   1.040   5.691   2.109 -1.1491 -1.3097 -0.3560
 1537TIP3   OH2 4616   2.414   4.899   2.444  0.1061 -0.3783  0.8261
 1537TIP3    H1 4617   2.406   4.886   2.539  1.1224  0.6915  1.0899
 1537TIP3    H2 4618   2.351   4.968   2.423 -0.1975 -0.6925  0.7009
 1538TIP3   OH2 4619   0.836   1.746   4.319  0.1931  0.4277 -0.3612
 1538TIP3    H1 4620   0.746   1.713   4.321  0.2200  0.3401  1.7611
 1538TIP3    H2 4621   0.842   1.795   4.237 -2.6421  2.6369  0.5796
 1539TIP3   OH2 4622   3.793   0.881   2.701 -0.4514 -0.2372  0.2532
 1539TIP3    H1 4623   3.842   0.817   2.649  1.2150 -0.3805  1.9185
 1539TIP3    H2 4624   3.768   0.948   2.638  0.9782 -0.6922 -0.8553
 1540TIP3   OH2 4625   0.993   5.961   2.601  0.7386  0.3035  0.2966
 1540TIP3    H1 4626   1.040   5.942   2.520 -1.4093  0.2816 -1.0187
 1540TIP3    H2 4627   0.934   5.887   2.612 -0.1090  1.0588  0.9952
 1541TIP3   OH2 4628   0.675   4.237   0.227  0.3471 -0.0455  0.1581
 1541TIP3    H1 4629   0.584   4.235   0.256  0.0959 -0.9698 -0.6347
 1541TIP3    H2 4630   0.707   4.323   0.255 -0.5653  0.0333  1.0277
 1542TIP3   OH2 4631   4.474   0.774   3.903  0.1041  0.4327  0.4960
 1542TIP3    H1 4632   4.538   0.726   3.850 -0.2100  1.4386 -0.8484
 1542TIP3    H2 4633   4.510   0.863   3.910  0.0250  0.3909  1.8216
 1543TIP3   OH2 4634   1.309   2.125   5.140 -0.0765 -0.2086  0.0801
 1543TIP3    H1 4635   1.256   2.046   5.148  0.2609 -0.4623 -0.1340
 1543TIP3    H2 4636   1.309   2.145   5.046 -1.1384  0.7329  0.2649
 1544TIP3   OH2 4637   2.714   1.359   3.364  0.2501  0.4229 -0.3405
 1544TIP3    H1 4638   2.707   1.444   3.407 -0.2891 -0.7098  1.9609
 1544TIP3    H2 4639   2.641   1.308   3.399 -0.5861 -0.4492 -3.0975
 1545TIP3   OH2 4640   3.137   1.196   4.565 -0.1588  0.4165  0.1358
 1545TIP3    H1 4641   3.205   1.262   4.548 -0.8983  1.3297  0.6160
 1545TIP3    H2 4642   3.070   1.243   4.615 -1.2833 -0.3894 -0.5693
 1546TIP3   OH2 4643   3.623   4.279   3.932 -0.2044 -0.0438 -0.2669
 1546TIP3    H1 4644   3.583   4.279   4.019  0.4960 -0.9562  0.0746
 1546TIP3    H2 4645   3.589   4.201   3.890  1.0967 -0.7748 -0.0072
 1547TIP3   OH2 4646   3.365   0.028   1.180  0.3072 -0.1175 -0.4621
 1547TIP3    H1 4647   3.305  -0.030   1.132  0.4676 -1.4609  0.8775
 1547TIP3    H2 4648   3.319   0.112   1.183 -1.0911 -0.8408 -0.3484
 1548TIP3   OH2 4649   3.144   5.009   3.658 -0.1070 -0.2329  0.2193
 1548TIP3    H1 4650   3.158   4.950   3.584  1.4016 -1.6948  1.5766
 1548TIP3    H2 4651   3.206   5.080   3.644 -0.6435  0.1124 -0.4874
 1549TIP3   OH2 4652   0.185   5.734   3.449 -0.7227 -0.1182  0.6679
 1549TIP3    H1 4653   0.259   5.758   3.394 -2.1900  2.9354 -0.1596
 1549TIP3    H2 4654   0.221   5.730   3.538  0.8866 -1.2436  0.0067
 1550TIP3   OH2 4655   5.601   2.512   4.423  0.1628  0.2264  0.2842
 1550TIP3    H1 4656   5.576   2.510   4.331 -0.9285  0.8866  0.5518
 1550TIP3    H2 4657   5.568   2.595   4.456  0.9195  0.1930  1.1734
 1551TIP3   OH2 4658   4.090   2.901   3.384 -0.0518  0.1404 -0.0733
 1551TIP3    H1 4659   4.025   2.907   3.314 -0.1890  1.2597  0.1328
 1551TIP3    H2 4660   4.158   2.963   3.358 -0.7151  1.5436  1.4012
 1552TIP3   OH2 4661   1.731   2.424   4.200  0.0991  0.3792 -0.0940
 1552TIP3    H1 4662   1.704   2.374   4.123  1.3227 -0.1771 -0.1767
 1552TIP3    H2 4663   1.716   2.364   4.273  0.2657  0.3980 -0.0457
 1553TIP3   OH2 4664   5.862   1.140   0.901  0.1301  0.2239  0.2247
 1553TIP3    H1 4665   5.914   1.119   0.823 -0.7974 -0.4011 -0.2374
 1553TIP3    H2 4666   5.915   1.108   0.974  0.9171  0.6344 -0.1541
 1554TIP3   OH2 4667   2.840   1.983   4.516 -0.1790 -0.1725  0.2480
 1554TIP3    H1 4668   2.828   1.981   4.611  0.0342  1.4164  0.3329
 1554TIP3    H2 4669   2.773   1.925   4.482 -0.6988 -0.2302  1.3440
 1555TIP3   OH2 4670   0.367   0.959   1.179  0.2370 -0.3147  0.3374
 1555TIP3    H1 4671   0.381   0.962   1.084 -0.5417  1.7993  0.2497
 1555TIP3    H2 4672   0.330   0.872   1.194  1.2673 -1.0640 -1.1320
 1556TIP3   OH2 4673   3.657   0.161   0.759 -0.1524 -0.1238 -0.4061
 1556TIP3    H1 4674   3.682   0.072   0.783  1.2830  0.7188  1.4821
 1556TIP3    H2 4675   3.592   0.186   0.825  0.0450  0.4854 -0.4334
 1557TIP3   OH2 4676   4.900   5.902   1.849  0.0165 -0.3311 -0.1724
 1557TIP3    H1 4677   4.909   5.994   1.872  0.3114 -0.8485  2.0678
 1557TIP3    H2 4678   4.989   5.867   1.854  0.2008 -0.4184 -2.8254
 1558TIP3   OH2 4679   1.886   3.575   0.519 -0.0471  0.3698  0.0737
 1558TIP3    H1 4680   1.903   3.484   0.543  0.2308  0.4517  0.1865
 1558TIP3    H2 4681   1.972   3.615   0.515 -0.1426  0.5391 -0.3357
 1559TIP3   OH2 4682   4.302   4.777   5.138 -0.1988 -0.2843  0.5094
 1559TIP3    H1 4683   4.207   4.778   5.129 -0.0541 -0.2084 -1.4227
 1559TIP3    H2 4684   4.318   4.748   5.228 -2.0272 -1.8239  0.3876
 1560TIP3   OH2 4685   3.884   1.241   1.381  0.5504  0.1158 -0.3775
 1560TIP3    H1 4686   3.947   1.190   1.331  0.7244 -0.7914  0.7096
 1560TIP3    H2 4687   3.861   1.315   1.324  4.0941  1.6552 -0.0772
 1561TIP3   OH2 4688   3.828   2.704   0.653  0.8430 -0.1905  0.4310
 1561TIP3    H1 4689   3.877   2.675   0.576 -1.0883  1.2040 -1.4364
 1561TIP3    H2 4690   3.834   2.799   0.651 -1.4838  0.0059  0.3891
 1562TIP3   OH2 4691   5.983   4.661   3.276 -0.3060 -0.8033 -0.2795
 1562TIP3    H1 4692   6.006   4.686   3.366  1.6701 -2.3841 -0.2722
 1562TIP3    H2 4693   5.920   4.727   3.248  1.3370  1.5464  1.1971
 1563TIP3   OH2 4694   5.242   3.771   4.531 -1.0645  0.6674 -0.1088
 1563TIP3    H1 4695   5.168   3.807   4.579  0.1743  0.6110  1.9619
 1563TIP3    H2 4696   5.221   3.678   4.520 -0.6453  0.2943  1.9064
 1564TIP3   OH2 4697   2.736   1.947   2.189 -0.1901 -0.2376  0.7334
 1564TIP3    H1 4698   2.765   1.856   2.188  1.0269  0.1381  0.7892
 1564TIP3    H2 4699   2.770   1.982   2.272 -4.0793 -0.7812  2.8304
 1565TIP3   OH2 4700   2.894   3.151   3.097  0.4071 -0.9866 -0.1131
 1565TIP3    H1 4701   2.863   3.219   3.038 -0.7139 -1.2566  0.1464
 1565TIP3    H2 4702   2.978   3.184   3.129  0.6707 -0.4969 -1.2592
 1566TIP3   OH2 4703   2.809   2.276   1.011 -0.4072  0.4302 -0.1195
 1566TIP3    H1 4704   2.865   2.329   0.954  1.8674 -0.0427  1.4858
 1566TIP3    H2 4705   2.833   2.186   0.990 -2.0780  0.1146 -0.7734
 1567TIP3   OH2 4706   6.236   0.635   3.566  0.2831  0.0523  0.7004
 1567TIP3    H1 4707   6.258   0.702   3.501 -1.4132  0.2124  0.2391
 1567TIP3    H2 4708   6.167   0.583   3.524  1.2229 -1.7027  1.2400
 1568TIP3   OH2 4709   0.148   0.872   2.238  0.1517  0.1467 -0.0802
 1568TIP3    H1 4710   0.179   0.797   2.187  0.0600 -0.6305  0.9751
 1568TIP3    H2 4711   0.077   0.837   2.292 -1.2363  1.4402 -0.9784
 1569TIP3   OH2 4712   1.151   2.940   2.777  0.0103 -0.3686 -0.3520
 1569TIP3    H1 4713   1.084   2.884   2.738 -2.5446 -0.0755  3.1814
 1569TIP3    H2 4714   1.161   2.908   2.866  2.9807  1.0668 -0.0406
 1570TIP3   OH2 4715   5.999   2.358   4.246 -0.2893  0.1243  0.0909
 1570TIP3    H1 4716   6.010   2.264   4.259 -1.5637 -0.3532 -1.9188
 1570TIP3    H2 4717   6.027   2.397   4.329 -2.1743 -2.1713  1.9431
 1571TIP3   OH2 4718   4.894   0.679   2.157 -0.2351 -0.0206  0.2076
 1571TIP3    H1 4719   4.900   0.592   2.197  0.0346 -0.7939 -1.4101
 1571TIP3    H2 4720   4.800   0.698   2.157 -0.3562 -0.5894  0.0404
 1572TIP3   OH2 4721   3.838   4.280   5.184 -0.5987 -0.2115 -0.0587
 1572TIP3    H1 4722   3.918   4.309   5.228  0.2664 -0.0306 -1.6741
 1572TIP3    H2 4723   3.817   4.351   5.124 -1.7696 -0.4447  0.0538
 1573TIP3   OH2 4724   4.475   1.493   4.354 -0.2012  0.0604  0.3805
 1573TIP3    H1 4725   4.465   1.433   4.280 -0.9795 -0.3293  0.7899
 1573TIP3    H2 4726   4.559   1.470   4.393 -0.3206 -0.5204  0.3066
 1574TIP3   OH2 4727   2.981   0.261   3.005 -0.7040 -0.1387  0.1502
 1574TIP3    H1 4728   2.960   0.344   2.962  1.3178  1.2946  1.7041
 1574TIP3    H2 4729   3.019   0.207   2.936 -3.8700 -0.6762 -1.3752
 1575TIP3   OH2 4730   5.460   2.230   2.926  0.0772  0.0060 -0.5212
 1575TIP3    H1 4731   5.441   2.321   2.949 -0.0325  0.3808 -1.9821
 1575TIP3    H2 4732   5.527   2.237   2.858 -0.2141 -0.9829 -0.9194
 1576TIP3   OH2 4733   3.698   5.159   2.944  0.6354  0.1958 -0.1717
 1576TIP3    H1 4734   3.744   5.242   2.936  2.3229 -0.7801 -1.3900
 1576TIP3    H2 4735   3.712   5.132   3.035 -0.6817  1.5933  0.4952
 1577TIP3   OH2 4736   2.216   5.841   2.685 -0.2209  0.3380 -0.0837
 1577TIP3    H1 4737   2.194   5.933   2.673  0.1143  0.5520  0.8809
 1577TIP3    H2 4738   2.220   5.829   2.780 -3.3003 -1.3762 -0.0256
 1578TIP3   OH2 4739   3.019   4.005   1.169  0.3987 -0.0926 -0.0473
 1578TIP3    H1 4740   3.040   3.967   1.084 -2.2194 -0.1946 -0.7191
 1578TIP3    H2 4741   2.950   3.950   1.205 -0.7855  1.7560  0.6886
 1579TIP3   OH2 4742   1.151   1.332   0.901 -0.0980 -0.3732  0.0166
 1579TIP3    H1 4743   1.210   1.349   0.975  0.4039  1.1267 -0.6929
 1579TIP3    H2 4744   1.079   1.394   0.913  0.1758  0.1410 -0.9476
 1580TIP3   OH2 4745   4.448   3.310   3.120  0.3073  0.2071  0.1363
 1580TIP3    H1 4746   4.489   3.328   3.204 -1.0957  0.1142  0.8799
 1580TIP3    H2 4747   4.445   3.214   3.115 -0.7130  0.1980  0.5803
 1581TIP3   OH2 4748   2.619   4.114   1.715  0.7936  0.6037 -0.2763
 1581TIP3    H1 4749   2.562   4.191   1.723 -0.4897 -0.4134  0.9406
 1581TIP3    H2 4750   2.615   4.072   1.802  3.0114  0.2029 -0.3200
 1582TIP3   OH2 4751   4.937   5.889   4.454 -0.0381 -0.1570  0.1016
 1582TIP3    H1 4752   4.922   5.978   4.487 -0.0776 -0.1711  0.1211
 1582TIP3    H2 4753   4.940   5.834   4.533 -2.6741 -0.5869 -0.0087
 1583TIP3   OH2 4754   0.288   3.405   3.317 -0.1658  0.5412  0.4590
 1583TIP3    H1 4755   0.212   3.435   3.268 -0.5908 -1.0677  0.0773
 1583TIP3    H2 4756   0.350   3.477   3.311 -1.3374  1.5573  0.0783
 1584TIP3   OH2 4757   3.429   0.931   1.649  0.0172  0.6471  0.2962
 1584TIP3    H1 4758   3.512   0.977   1.643 -0.7076  1.8557 -1.3117
 1584TIP3    H2 4759   3.426   0.875   1.571 -1.4393  2.0785 -0.7638
 1585TIP3   OH2 4760   2.709   2.403   1.667 -0.0947 -0.6048 -0.4768
 1585TIP3    H1 4761   2.797   2.389   1.701  0.0380  1.1769  0.0492
 1585TIP3    H2 4762   2.710   2.493   1.635 -1.7152 -0.5538 -0.4778
 1586TIP3   OH2 4763   3.018   3.843   2.621 -0.2825 -0.3856  0.0226
 1586TIP3    H1 4764   2.927   3.832   2.592 -0.2463 -0.3142 -0.1208
 1586TIP3    H2 4765   3.069   3.789   2.561 -0.2092 -0.2582 -0.0307
 1587TIP3   OH2 4766   4.421   2.296   4.221 -0.5384  0.2328  0.1287
 1587TIP3    H1 4767   4.445   2.388   4.226  1.4589 -0.2926  1.3188
 1587TIP3    H2 4768   4.387   2.275   4.308 -0.8195 -0.1974 -0.0805
 1588TIP3   OH2 4769   3.769   1.820   3.469  0.3252  0.0854  0.0169
 1588TIP3    H1 4770   3.796   1.911   3.486 -5.2557  1.9865  0.8440
 1588TIP3    H2 4771   3.720   1.795   3.548 -0.2697 -2.8263 -1.1654
 1589TIP3   OH2 4772   2.479   1.805   4.929  0.7300  0.0038 -0.1934
 1589TIP3    H1 4773   2.512   1.887   4.966  0.8703 -1.0300  2.1290
 1589TIP3    H2 4774   2.386   1.805   4.951  1.0074 -1.0661  1.0965
 1590TIP3   OH2 4775   2.881   3.809   4.264  0.3207 -0.3048  0.4057
 1590TIP3    H1 4776   2.786   3.808   4.265  0.2602 -0.2753 -1.7509
 1590TIP3    H2 4777   2.905   3.835   4.353 -1.7234  1.3953  0.5384
 1591TIP3   OH2 4778   4.814   1.491   5.133 -0.3634 -0.4927  0.4414
 1591TIP3    H1 4779   4.728   1.497   5.175 -1.6625  0.3923 -2.1615
 1591TIP3    H2 4780   4.876   1.517   5.202 -2.1604 -0.9088  2.3059
 1592TIP3   OH2 4781   0.317   0.764   0.276 -0.0832 -0.4205 -0.3105
 1592TIP3    H1 4782   0.274   0.792   0.195  0.3294 -0.0151 -0.3926
 1592TIP3    H2 4783   0.362   0.682   0.252  0.6931  0.1112 -0.7073
 1593TIP3   OH2 4784   0.768   1.200   1.610  0.0695  0.1286  0.0901
 1593TIP3    H1 4785   0.785   1.271   1.672  0.7941 -3.0785  3.8937
 1593TIP3    H2 4786   0.673   1.201   1.598 -0.1216  0.7200  1.4487
 1594TIP3   OH2 4787   0.074   0.212   1.463  0.3917  0.2801 -0.1922
 1594TIP3    H1 4788   0.146   0.167   1.417  0.1769 -0.0132 -0.2434
 1594TIP3    H2 4789   0.041   0.147   1.525 -0.7177 -0.0682 -1.1086
 1595TIP3   OH2 4790   5.301   3.002   5.120  0.1504 -0.1939 -0.2461
 1595TIP3    H1 4791   5.211   3.031   5.108  0.3805  0.7460  0.1581
 1595TIP3    H2 4792   5.319   3.016   5.213  0.5560 -0.8386 -0.2190
 1596TIP3   OH2 4793   0.163   0.446   1.348  0.3246 -0.4432 -0.2854
 1596TIP3    H1 4794   0.169   0.388   1.423 -0.5758 -1.4970 -1.0041
 1596TIP3    H2 4795   0.076   0.432   1.312  0.9849 -0.5283 -1.9671
 1597TIP3   OH2 4796   2.165   5.361   0.051  0.2760  0.2419 -0.0357
 1597TIP3    H1 4797   2.122   5.331  -0.029  0.6361  0.6316 -0.3793
 1597TIP3    H2 4798   2.221   5.434   0.023  0.9949 -0.1156  0.4467
 1598TIP3   OH2 4799   1.513   0.830   4.553  0.4436 -0.2057 -0.5350
 1598TIP3    H1 4800   1.537   0.892   4.621  0.4972 -3.1066  2.3691
 1598TIP3    H2 4801   1.597   0.804   4.514  1.0205 -1.7230  1.4971
 1599TIP3   OH2 4802   5.766   1.417   0.882  0.0124  0.2168  0.3159
 1599TIP3    H1 4803   5.770   1.326   0.851 -0.0807 -0.2693  1.6593
 1599TIP3    H2 4804   5.715   1.463   0.815  0.4677 -0.6121 -0.6203
 1600TIP3   OH2 4805   1.919   5.410   2.710  0.1007  0.3263  0.0555
 1600TIP3    H1 4806   1.954   5.412   2.621 -0.9427  2.5717 -0.3606
 1600TIP3    H2 4807   1.980   5.463   2.761  0.0282  0.0541  0.4323
 1601TIP3   OH2 4808   6.312   4.731   0.874 -0.5188 -0.0974 -0.2997
 1601TIP3    H1 4809   6.301   4.791   0.949  0.2271 -0.0407 -0.2192
 1601TIP3    H2 4810   6.272   4.649   0.902 -0.9149  0.1531 -0.1299
 1602TIP3   OH2 4811   3.425   4.955   0.730 -0.2762  0.1896  0.6801
 1602TIP3    H1 4812   3.490   5.021   0.705 -0.9268  0.1031 -1.4242
 1602TIP3    H2 4813   3.364   4.952   0.657  0.5178 -3.7808 -0.0722
 1603TIP3   OH2 4814   1.647   0.034   2.027  0.0962 -0.4344 -0.0143
 1603TIP3    H1 4815   1.678  -0.036   2.083 -0.0112 -0.2807  0.2391
 1603TIP3    H2 4816   1.610   0.099   2.087  1.4056  0.4632 -0.1328
 1604TIP3   OH2 4817   2.339   4.319   0.927  0.1145 -0.1736  0.0146
 1604TIP3    H1 4818   2.388   4.353   0.852 -1.4524 -1.4952 -1.7253
 1604TIP3    H2 4819   2.261   4.374   0.931  0.2606 -0.0126  0.8097
 1605TIP3   OH2 4820   6.251   3.659   0.301  0.2782 -0.4651  0.0720
 1605TIP3    H1 4821   6.299   3.706   0.233  0.7044  0.1135  0.7592
 1605TIP3    H2 4822   6.263   3.566   0.280 -0.0061 -0.2810 -0.9161
 1606TIP3   OH2 4823   4.431   1.740   1.169  0.2122  0.0810 -0.2201
 1606TIP3    H1 4824   4.358   1.680   1.184  1.3530 -1.3379 -0.1353
 1606TIP3    H2 4825   4.459   1.722   1.079 -1.1234  2.4477 -1.2072
 1607TIP3   OH2 4826   3.568   4.510   4.495  0.2403  0.0984  0.0366
 1607TIP3    H1 4827   3.625   4.462   4.435  0.0144  0.6179 -0.6028
 1607TIP3    H2 4828   3.520   4.570   4.439 -1.3717 -0.7268  0.4701
 1608TIP3   OH2 4829   4.393   5.247   1.758  0.0116 -0.1620  0.3714
 1608TIP3    H1 4830   4.423   5.177   1.816 -1.3050 -0.5694  0.6069
 1608TIP3    H2 4831   4.435   5.229   1.674  0.2601 -0.8104  0.6283
 1609TIP3   OH2 4832   2.398   4.840   3.237  0.6753 -0.7395  0.4215
 1609TIP3    H1 4833   2.329   4.868   3.177  0.7703  0.1659  0.7076
 1609TIP3    H2 4834   2.413   4.917   3.293  2.0447 -0.8383  0.2269
 1610TIP3   OH2 4835   5.124   3.101   2.688  0.4509 -1.0542  0.6077
 1610TIP3    H1 4836   5.114   3.075   2.779  2.0503 -2.3574  0.4591
 1610TIP3    H2 4837   5.061   3.173   2.676 -0.8656 -1.8531  2.2963
 1611TIP3   OH2 4838   3.292   5.521   3.972 -0.0578  0.1639  0.2148
 1611TIP3    H1 4839   3.278   5.426   3.977 -0.0012  0.1453  0.0232
 1611TIP3    H2 4840   3.344   5.534   3.893  0.4556  0.2979  0.5688
 1612TIP3   OH2 4841   0.057   4.642   0.619 -0.6068  0.0450  0.0086
 1612TIP3    H1 4842   0.150   4.653   0.599 -0.7607 -0.6646 -1.1887
 1612TIP3    H2 4843   0.047   4.677   0.707  1.1091 -1.3298  0.8099
 1613TIP3   OH2 4844   2.991   5.175   0.617 -0.0462 -0.0259  0.0028
 1613TIP3    H1 4845   3.047   5.191   0.541  0.5699 -3.0323 -0.3162
 1613TIP3    H2 4846   3.019   5.241   0.681  2.5898 -0.2054 -0.8260
 1614TIP3   OH2 4847   4.177   2.170   4.886  0.2923 -0.5449 -0.1631
 1614TIP3    H1 4848   4.198   2.136   4.973  0.1196  0.1727  0.1649
 1614TIP3    H2 4849   4.248   2.231   4.867  0.2881 -0.6425 -0.4969
 1615TIP3   OH2 4850   2.295   1.139   0.639  0.2896  0.1525 -0.0760
 1615TIP3    H1 4851   2.334   1.055   0.614  1.3352  0.5223  0.2547
 1615TIP3    H2 4852   2.319   1.199   0.568  2.6414  1.0308  1.3576
 1616TIP3   OH2 4853   3.399   2.353   0.896  0.4739  0.0246  0.2796
 1616TIP3    H1 4854   3.324   2.346   0.956  0.6821 -0.3022  0.5004
 1616TIP3    H2 4855   3.469   2.306   0.940  1.0566  1.0304  0.4534
 1617TIP3   OH2 4856   5.576   3.981   0.842 -0.2133  0.0745 -0.0897
 1617TIP3    H1 4857   5.585   3.893   0.805 -0.9944 -0.2370  0.4393
 1617TIP3    H2 4858   5.484   3.987   0.868 -0.3231  1.2791 -0.6800
 1618TIP3   OH2 4859   5.981   3.464   0.313 -0.2779 -0.6246 -0.3491
 1618TIP3    H1 4860   5.923   3.530   0.275  0.7952  0.1124 -0.7343
 1618TIP3    H2 4861   5.979   3.391   0.251 -0.2690 -0.3330 -0.6923
 1619TIP3   OH2 4862   4.977   1.754   3.568  0.1446 -0.1314  0.7294
 1619TIP3    H1 4863   5.008   1.702   3.642  1.2031  0.0899  0.4565
 1619TIP3    H2 4864   4.979   1.694   3.494 -1.2557 -0.4546  0.9246
 1620TIP3   OH2 4865   4.984   1.292   3.974 -0.0709 -0.5722 -0.4985
 1620TIP3    H1 4866   5.066   1.255   3.942 -0.3654 -0.6666 -1.1476
 1620TIP3    H2 4867   5.011   1.365   4.030  0.5388 -2.1222  1.3129
 1621TIP3   OH2 4868   1.949   5.097   1.739 -0.7440 -0.0839 -0.3620
 1621TIP3    H1 4869   1.967   5.190   1.725 -3.4772  0.5882 -0.0908
 1621TIP3    H2 4870   2.006   5.072   1.812  0.5795  1.1568 -0.9402
 1622TIP3   OH2 4871   0.890   2.539   0.856 -0.5677 -0.3717 -0.0917
 1622TIP3    H1 4872   0.952   2.596   0.811 -0.9023 -0.3665 -0.5517
 1622TIP3    H2 4873   0.944   2.473   0.899 -0.3435 -1.6859 -2.2917
 1623TIP3   OH2 4874   0.676   0.902   3.501  0.7030  0.3776  0.0634
 1623TIP3    H1 4875   0.594   0.943   3.474  0.1932 -1.3003 -1.0501
 1623TIP3    H2 4876   0.698   0.842   3.430  2.1513 -0.2550  0.9984
 1624TIP3   OH2 4877   4.229   1.544   2.614  0.0624  0.3533 -0.3820
 1624TIP3    H1 4878   4.267   1.469   2.661  0.0671 -0.3954 -1.5254
 1624TIP3    H2 4879   4.304   1.599   2.593  0.3023 -0.1967 -1.0231
 1625TIP3   OH2 4880   5.830   5.713   1.578 -0.0728 -0.2786 -0.3217
 1625TIP3    H1 4881   5.844   5.806   1.563  2.0621 -0.7525 -1.7711
 1625TIP3    H2 4882   5.736   5.700   1.563 -0.8489  1.9102  1.9836
 1626TIP3   OH2 4883   4.850   5.534   4.407  0.5025  0.1452  0.2048
 1626TIP3    H1 4884   4.868   5.551   4.500 -2.6864 -0.2415  1.0309
 1626TIP3    H2 4885   4.794   5.607   4.380  1.3548  0.2348 -1.4658
 1627TIP3   OH2 4886   4.816   0.823   3.850 -0.1667 -0.2323  0.0118
 1627TIP3    H1 4887   4.879   0.874   3.799  1.2575 -1.4517  0.4570
 1627TIP3    H2 4888   4.808   0.871   3.932 -0.6000  0.4578 -0.4255
 1628TIP3   OH2 4889   6.115   3.356   0.513 -0.2387  0.4255 -0.0728
 1628TIP3    H1 4890   6.080   3.402   0.437 -0.7596  0.7504  0.3576
 1628TIP3    H2 4891   6.185   3.302   0.478 -1.6252 -0.8010 -1.1057
 1629TIP3   OH2 4892   2.631   1.302   2.486  0.0875  0.2651 -0.5588
 1629TIP3    H1 4893   2.716   1.322   2.525 -0.3637 -0.6546  1.0113
 1629TIP3    H2 4894   2.568   1.324   2.554 -0.6604 -2.5517 -0.2161
 1630TIP3   OH2 4895   6.282   4.360   0.639  0.3612 -0.6866 -0.1456
 1630TIP3    H1 4896   6.362   4.311   0.622  0.4524 -0.1353 -1.4369
 1630TIP3    H2 4897   6.303   4.450   0.615 -0.5175 -0.4578 -0.1107
 1631TIP3   OH2 4898   1.154   4.908   3.830  0.2190 -0.5345 -0.6218
 1631TIP3    H1 4899   1.159   4.852   3.907 -0.3437  0.8569  0.4801
 1631TIP3    H2 4900   1.095   4.862   3.770 -3.1672  0.4188  1.6960
 1632TIP3   OH2 4901   0.956   4.564   4.364  0.2905 -0.7404 -0.1117
 1632TIP3    H1 4902   0.896   4.604   4.302 -0.0060 -1.4742 -0.3105
 1632TIP3    H2 4903   1.041   4.605   4.347 -0.5478  2.0173  1.6979
 1633TIP3   OH2 4904   4.984   5.380   2.672 -0.8759 -0.2217 -0.1243
 1633TIP3    H1 4905   5.008   5.398   2.763 -0.1720 -1.4990 -0.0330
 1633TIP3    H2 4906   4.937   5.296   2.676 -0.5654 -0.4377 -0.9694
 1634TIP3   OH2 4907   5.490   2.493   1.116  0.7751  0.4606 -0.2742
 1634TIP3    H1 4908   5.569   2.443   1.134  0.8948  0.4762 -0.7394
 1634TIP3    H2 4909   5.498   2.572   1.169  1.1470  0.5363 -0.4448
 1635TIP3   OH2 4910   6.240   5.271   4.518 -0.4118  0.2921  0.4651
 1635TIP3    H1 4911   6.250   5.230   4.433 -0.3125  1.7706 -0.2736
 1635TIP3    H2 4912   6.157   5.319   4.512 -0.6960 -0.0445  1.4121
 1636TIP3   OH2 4913   4.494   0.196   1.318  0.0816  0.0861 -0.2089
 1636TIP3    H1 4914   4.400   0.206   1.307  0.1168  0.9182  0.1599
 1636TIP3    H2 4915   4.504   0.142   1.396 -0.0966 -1.0652 -0.9690
 1637TIP3   OH2 4916   1.660   4.794   0.737 -0.0421 -0.5522  0.0297
 1637TIP3    H1 4917   1.633   4.793   0.829 -2.1083  0.3872 -0.5110
 1637TIP3    H2 4918   1.750   4.762   0.739  0.4301  0.6264  2.5183
 1638TIP3   OH2 4919   4.854   4.296   0.462 -0.7068  0.2272  0.7684
 1638TIP3    H1 4920   4.864   4.329   0.551 -0.2743 -1.9539  1.6048
 1638TIP3    H2 4921   4.815   4.209   0.473 -1.6358  0.3381 -1.2521
 1639TIP3   OH2 4922   0.718   1.946   3.091  0.1664  0.0106 -0.4462
 1639TIP3    H1 4923   0.646   2.002   3.061 -2.1921 -2.6541 -0.2788
 1639TIP3    H2 4924   0.720   1.874   3.028  3.3162  0.3539 -0.8862
 1640TIP3   OH2 4925   6.187   5.166   4.260 -0.3461 -0.0670  0.3615
 1640TIP3    H1 4926   6.154   5.090   4.308 -0.1056 -0.2720  0.2039
 1640TIP3    H2 4927   6.130   5.174   4.185 -1.0567  0.5770  0.9582
 1641TIP3   OH2 4928   4.266   5.896   2.581 -0.0011  0.0347  0.1338
 1641TIP3    H1 4929   4.195   5.955   2.553 -1.5274 -1.4143  0.7713
 1641TIP3    H2 4930   4.321   5.886   2.504 -0.9868  0.5312 -0.6564
 1642TIP3   OH2 4931   0.120   5.805   5.004  0.0267 -0.4732 -0.0035
 1642TIP3    H1 4932   0.146   5.726   5.052  0.6233 -0.7070 -0.7001
 1642TIP3    H2 4933   0.142   5.787   4.913 -0.0393  0.4156 -0.2067
 1643TIP3   OH2 4934   4.161   0.800   2.926 -0.4967 -0.3269 -0.0755
 1643TIP3    H1 4935   4.249   0.773   2.901 -0.1478 -0.3997  1.1634
 1643TIP3    H2 4936   4.108   0.721   2.918 -0.6248 -0.1252 -1.4998
 1644TIP3   OH2 4937   2.791   2.761   4.139  0.0009 -0.0665 -0.1282
 1644TIP3    H1 4938   2.748   2.824   4.198 -0.1163 -0.8886  0.6942
 1644TIP3    H2 4939   2.809   2.685   4.195  1.5676 -0.1609 -0.7275
 1645TIP3   OH2 4940   0.531   3.527   3.746  0.0719  0.2368  0.2824
 1645TIP3    H1 4941   0.614   3.520   3.794  0.0197 -0.1435  0.3259
 1645TIP3    H2 4942   0.465   3.498   3.809  0.0498 -0.6750 -0.1396
 1646TIP3   OH2 4943   4.079   0.465   1.799 -0.3105  0.3567  0.1222
 1646TIP3    H1 4944   4.147   0.398   1.808 -0.5948  0.1986  1.3737
 1646TIP3    H2 4945   4.113   0.525   1.732 -0.7069 -1.7766 -2.1109
 1647TIP3   OH2 4946   5.452   5.144   1.196  0.1168  0.1004  0.1179
 1647TIP3    H1 4947   5.471   5.232   1.163  0.7963 -0.2431 -0.4503
 1647TIP3    H2 4948   5.448   5.089   1.117 -0.8082 -0.2966  0.4214
 1648TIP3   OH2 4949   4.032   0.354   2.607  0.0004 -0.0144 -0.3482
 1648TIP3    H1 4950   4.099   0.337   2.541 -0.9366 -1.0365 -1.0715
 1648TIP3    H2 4951   4.071   0.324   2.689  0.7747  0.2721 -0.6065
 1649TIP3   OH2 4952   1.118   0.249   4.199  0.1426 -0.1766 -0.0153
 1649TIP3    H1 4953   1.096   0.301   4.121  1.9434  1.8576  0.7213
 1649TIP3    H2 4954   1.035   0.237   4.244 -0.6801  0.0565 -1.4069
 1650TIP3   OH2 4955   1.871   2.016   3.409 -0.3394 -0.5975  0.6110
 1650TIP3    H1 4956   1.835   1.946   3.464 -2.5902  0.6688  0.8938
 1650TIP3    H2 4957   1.796   2.049   3.360  1.6212 -2.0564 -3.8839
 1651TIP3   OH2 4958   4.281   0.212   0.537 -0.2585 -0.0119  0.0376
 1651TIP3    H1 4959   4.202   0.201   0.485 -0.9200  0.7754  0.8563
 1651TIP3    H2 4960   4.339   0.142   0.507 -0.9636 -0.1268 -1.1080
 1652TIP3   OH2 4961   1.446   5.580   2.755  0.0965  0.4776  0.1424
 1652TIP3    H1 4962   1.511   5.532   2.703  1.3700  2.7240 -0.4931
 1652TIP3    H2 4963   1.498   5.630   2.818 -1.2652 -0.0378  1.7658
 1653TIP3   OH2 4964   0.145   1.116   1.299 -0.1224 -0.4996  0.4773
 1653TIP3    H1 4965   0.132   1.038   1.354 -0.9451  0.0568  1.1124
 1653TIP3    H2 4966   0.222   1.096   1.246  0.4566 -1.2260  1.5554
 1654TIP3   OH2 4967   4.248   0.397   2.381 -0.0146  0.0313  0.6089
 1654TIP3    H1 4968   4.254   0.321   2.323 -0.6716  1.1562 -0.9857
 1654TIP3    H2 4969   4.338   0.414   2.408  0.6597  0.8221 -1.8945
 1655TIP3   OH2 4970   3.635   0.881   4.251  0.4586  0.4503 -0.2249
 1655TIP3    H1 4971   3.710   0.827   4.226  0.1818  0.4127 -0.9940
 1655TIP3    H2 4972   3.614   0.931   4.172  0.2703  1.1713  0.2661
 1656TIP3   OH2 4973   5.360   4.520   2.923  0.3355  0.0335 -0.1713
 1656TIP3    H1 4974   5.407   4.472   2.856 -0.8491  0.4924 -1.3707
 1656TIP3    H2 4975   5.428   4.552   2.982  1.7749  2.1735 -2.7762
 1657TIP3   OH2 4976   3.608   4.387   0.746 -0.0789 -0.0196  0.2182
 1657TIP3    H1 4977   3.573   4.322   0.806  1.7816 -1.6621 -0.3859
 1657TIP3    H2 4978   3.531   4.429   0.708 -1.3091 -1.1584  1.3874
 1658TIP3   OH2 4979   1.247   0.832   4.016  0.0598  0.3285  0.6095
 1658TIP3    H1 4980   1.176   0.822   3.953 -0.8678 -0.4567  1.7339
 1658TIP3    H2 4981   1.269   0.925   4.014 -0.7758  0.5172  0.0017
 1659TIP3   OH2 4982   1.965   4.942   4.163  0.6693  0.1211 -0.0933
 1659TIP3    H1 4983   1.932   4.957   4.252 -1.5356  2.1082 -1.1270
 1659TIP3    H2 4984   2.052   4.982   4.163  0.7768 -0.0565  1.1878
 1660TIP3   OH2 4985   4.416   0.844   1.749 -0.1940  0.3607 -0.1985
 1660TIP3    H1 4986   4.389   0.799   1.829 -1.9459 -0.3823 -1.1290
 1660TIP3    H2 4987   4.510   0.830   1.744 -0.3237 -1.1582  0.7986
 1661TIP3   OH2 4988   3.617   3.090   1.588 -0.1347 -0.7678  0.2670
 1661TIP3    H1 4989   3.689   3.152   1.599 -0.8637  0.5535 -1.7662
 1661TIP3    H2 4990   3.609   3.047   1.673 -1.1058  3.5509  2.6511
 1662TIP3   OH2 4991   3.647   4.774   3.892  0.1771 -0.1965 -0.2132
 1662TIP3    H1 4992   3.697   4.796   3.813 -0.2431  0.6746 -0.2546
 1662TIP3    H2 4993   3.564   4.820   3.881 -0.9268 -2.1484 -0.4651
 1663TIP3   OH2 4994   5.216   3.500   1.389  0.2958  0.3721  0.5993
 1663TIP3    H1 4995   5.191   3.413   1.420  0.2329  0.8047  1.8231
 1663TIP3    H2 4996   5.198   3.558   1.464 -0.4776  1.5717 -0.4652
 1664TIP3   OH2 4997   5.108   3.330   2.903 -0.0063 -0.1077 -0.4033
 1664TIP3    H1 4998   5.026   3.281   2.899 -0.7149  1.0658 -0.8746
 1664TIP3    H2 4999   5.082   3.421   2.887  1.0812  0.6336  1.6771
 1665TIP3   OH2 5000   2.586   5.772   0.511  0.0306  0.0846  0.4257
 1665TIP3    H1 5001   2.606   5.681   0.532  0.2620 -0.0735 -0.4611
 1665TIP3    H2 5002   2.629   5.788   0.427 -0.6192  0.7958  0.2161
 1666TIP3   OH2 5003   1.165   4.372   1.747  0.0992  0.0044 -0.3439
 1666TIP3    H1 5004   1.217   4.445   1.713  0.4002  2.2015  4.0755
 1666TIP3    H2 5005   1.075   4.395   1.726  0.3607  0.3334 -1.1491
 1667TIP3   OH2 5006   4.498   3.892   2.396 -0.0486  0.0487 -0.3133
 1667TIP3    H1 5007   4.415   3.877   2.351  0.1094  0.6702 -0.8317
 1667TIP3    H2 5008   4.474   3.899   2.489 -0.3993 -1.0682 -0.3083
 1668TIP3   OH2 5009   0.004   1.707   2.378  0.2538  0.2423 -0.1014
 1668TIP3    H1 5010   0.098   1.692   2.369  0.1300 -0.0714 -0.9104
 1668TIP3    H2 5011  -0.026   1.728   2.290 -0.6465 -0.8895 -0.0958
 1669TIP3   OH2 5012   0.214   4.411   2.972  0.3417  0.4287 -0.1870
 1669TIP3    H1 5013   0.294   4.451   3.005 -0.3559  0.7133  1.2173
 1669TIP3    H2 5014   0.152   4.484   2.962 -0.0894  0.0728 -0.1846
 1670TIP3   OH2 5015   4.801   3.517   3.090 -0.0368  0.2640  0.3524
 1670TIP3    H1 5016   4.864   3.555   3.151 -0.6904 -1.0666  1.9593
 1670TIP3    H2 5017   4.804   3.574   3.013  1.5410  1.4528  1.2284
 1671TIP3   OH2 5018   2.436   0.361   0.918 -0.4279  0.2785  0.0764
 1671TIP3    H1 5019   2.349   0.321   0.918 -1.8854  3.1451  2.0802
 1671TIP3    H2 5020   2.484   0.313   0.850 -3.2539 -1.9709 -0.5306
 1672TIP3   OH2 5021   5.866   0.515   3.748 -0.8280  0.3402 -0.5020
 1672TIP3    H1 5022   5.899   0.554   3.667  2.2594 -0.7418  0.0888
 1672TIP3    H2 5023   5.894   0.423   3.743 -1.9564 -0.1433  1.1283
 1673TIP3   OH2 5024   2.519   3.519   3.357  0.4739 -0.2162  0.1239
 1673TIP3    H1 5025   2.492   3.472   3.278 -0.3846 -0.0308  0.2967
 1673TIP3    H2 5026   2.548   3.450   3.417  0.9888 -0.3674 -0.2984
 1674TIP3   OH2 5027   4.270   1.892   2.966 -0.1019 -0.0937 -0.1769
 1674TIP3    H1 5028   4.212   1.884   3.042 -0.0368 -0.1278 -0.1305
 1674TIP3    H2 5029   4.346   1.839   2.989  1.1562  2.0265  0.9026
 1675TIP3   OH2 5030   3.983   4.717   1.294  0.6740 -0.1621  0.2176
 1675TIP3    H1 5031   3.935   4.718   1.211  0.7274  1.1189  0.1830
 1675TIP3    H2 5032   4.018   4.628   1.300 -2.7900 -1.6092  0.9065
 1676TIP3   OH2 5033   1.532   2.496   4.998 -0.6339  0.0464  0.1230
 1676TIP3    H1 5034   1.600   2.490   4.931  0.0051  0.8174  0.6825
 1676TIP3    H2 5035   1.455   2.454   4.959  0.4599 -1.8636 -0.1033
 1677TIP3   OH2 5036   3.435   1.669   0.798  0.0567 -0.2798  0.1843
 1677TIP3    H1 5037   3.445   1.701   0.709 -1.4442 -2.1386 -0.7002
 1677TIP3    H2 5038   3.509   1.610   0.810 -0.6197 -1.2796 -0.4407
 1678TIP3   OH2 5039   3.899   3.021   3.836  0.1508 -0.0322 -0.0287
 1678TIP3    H1 5040   3.888   3.052   3.746 -0.0560  0.6855  0.2390
 1678TIP3    H2 5041   3.892   3.100   3.890  0.9983 -0.3480  0.5674
 1679TIP3   OH2 5042   0.039   0.538   2.127 -0.0588  0.4604 -0.0223
 1679TIP3    H1 5043   0.087   0.611   2.088 -0.3633  0.8351  0.3090
 1679TIP3    H2 5044   0.048   0.551   2.221 -2.8870  1.9445  0.1369
 1680TIP3   OH2 5045   5.805   5.315   1.041  0.3121 -1.0500  0.3665
 1680TIP3    H1 5046   5.796   5.220   1.030 -0.4110 -0.7651 -1.9179
 1680TIP3    H2 5047   5.724   5.343   1.083 -0.7052 -1.1416 -1.4421
 1681TIP3   OH2 5048   2.955   3.570   4.125  1.2448 -0.5709  0.1418
 1681TIP3    H1 5049   2.926   3.645   4.177  0.1972 -1.3409  0.6950
 1681TIP3    H2 5050   3.041   3.597   4.091  0.7002  1.0466 -0.0418
 1682TIP3   OH2 5051   4.372   4.997   4.221  0.1526 -0.3131  0.0844
 1682TIP3    H1 5052   4.424   5.049   4.283  0.3101 -0.4780  0.0899
 1682TIP3    H2 5053   4.290   4.981   4.267 -0.5895  1.3824 -0.5521
 1683TIP3   OH2 5054   3.638   3.093   1.983  0.0350 -0.3372  0.3112
 1683TIP3    H1 5055   3.550   3.111   1.949  0.4275 -0.1691 -0.6476
 1683TIP3    H2 5056   3.662   3.172   2.030  0.5900  0.5630 -1.4110
 1684TIP3   OH2 5057   4.134   2.457   2.531 -0.2909  0.3800 -0.8741
 1684TIP3    H1 5058   4.135   2.362   2.546  0.0491  0.5822  0.5448
 1684TIP3    H2 5059   4.219   2.487   2.564 -1.2963  1.4577  0.9196
 1685TIP3   OH2 5060   3.626   4.574   2.471  0.5702  0.6178 -0.3476
 1685TIP3    H1 5061   3.618   4.630   2.394  1.3142  0.2748 -0.6862
 1685TIP3    H2 5062   3.717   4.583   2.498  0.7255 -0.4827 -0.4563
 1686TIP3   OH2 5063   3.503   0.528   2.077 -0.2077 -0.1727  0.2148
 1686TIP3    H1 5064   3.446   0.538   2.154 -0.3731 -0.3559  0.1179
 1686TIP3    H2 5065   3.476   0.598   2.018  0.0897  0.1253  0.4249
 1687TIP3   OH2 5066   4.005   1.446   5.075 -0.3954 -0.1683 -0.5787
 1687TIP3    H1 5067   3.909   1.444   5.070 -0.3721 -0.5240 -0.9366
 1687TIP3    H2 5068   4.032   1.362   5.039  0.0265 -0.4068  0.2789
 1688TIP3   OH2 5069   4.693   2.906   2.091  0.3755  0.4877  0.4017
 1688TIP3    H1 5070   4.777   2.898   2.045  0.5377  2.3483  0.2846
 1688TIP3    H2 5071   4.655   2.986   2.056 -1.5024 -0.3557  0.4166
 1689TIP3   OH2 5072   1.987   3.393   2.860  0.4495  0.3221 -0.4278
 1689TIP3    H1 5073   2.064   3.440   2.892  0.5298 -0.7420  1.0620
 1689TIP3    H2 5074   1.922   3.403   2.930  0.4747 -1.7345 -0.0338
 1690TIP3   OH2 5075   3.670   3.231   0.525  0.0535  0.0818 -0.1073
 1690TIP3    H1 5076   3.664   3.280   0.606 -0.6603 -0.7198  0.3487
 1690TIP3    H2 5077   3.714   3.290   0.464 -1.4823  1.6048  0.1697
 1691TIP3   OH2 5078   3.099   0.376   1.451 -0.2303 -0.0916 -0.1311
 1691TIP3    H1 5079   3.106   0.287   1.484 -0.0232 -0.3224 -0.7823
 1691TIP3    H2 5080   3.165   0.425   1.499  0.2048 -0.4649 -0.3481
 1692TIP3   OH2 5081   5.938   4.994   0.356 -0.2332  0.5248 -0.6279
 1692TIP3    H1 5082   5.963   4.931   0.289 -0.1796 -1.0465  0.7994
 1692TIP3    H2 5083   5.927   5.077   0.309 -0.3285 -0.5381 -2.5640
 1693TIP3   OH2 5084   6.132   1.143   3.341  0.0164  0.0066 -0.0741
 1693TIP3    H1 5085   6.223   1.171   3.346 -0.2395  0.6407  2.4093
 1693TIP3    H2 5086   6.087   1.198   3.406 -2.2939  0.2286 -1.7442
 1694TIP3   OH2 5087   3.123   3.662   1.616  0.8293  0.6372  0.9931
 1694TIP3    H1 5088   3.074   3.630   1.691  1.8287 -1.1742  0.9339
 1694TIP3    H2 5089   3.214   3.668   1.648  1.2401 -0.0077  0.0004
 1695TIP3   OH2 5090   0.723   4.252   2.228  0.5429 -0.9263 -0.7152
 1695TIP3    H1 5091   0.655   4.316   2.208  1.0193 -0.9172 -2.4892
 1695TIP3    H2 5092   0.681   4.189   2.287 -0.9221 -0.7967 -1.5880
 1696TIP3   OH2 5093   5.460   2.321   3.784  0.0679  0.1917  0.5194
 1696TIP3    H1 5094   5.449   2.230   3.808  0.0731 -0.3489 -1.3360
 1696TIP3    H2 5095   5.404   2.333   3.707  0.8759  1.4479  0.0789
 1697TIP3   OH2 5096   3.213   5.829   3.149 -0.6306 -0.1773 -0.1943
 1697TIP3    H1 5097   3.234   5.872   3.232  0.1464 -1.0765  0.0876
 1697TIP3    H2 5098   3.295   5.789   3.121 -1.0419 -0.4281 -1.0826
 1698TIP3   OH2 5099   4.930   1.714   0.570 -0.0496  0.0688 -0.4044
 1698TIP3    H1 5100   4.918   1.717   0.475  1.2773  0.7975 -0.5578
 1698TIP3    H2 5101   4.903   1.800   0.601  1.7650  0.6659 -0.4106
 1699TIP3   OH2 5102   2.948   2.894   3.210 -0.3318 -0.8531 -0.3186
 1699TIP3    H1 5103   2.942   2.966   3.147 -1.4490 -1.4034 -0.8845
 1699TIP3    H2 5104   2.988   2.933   3.287  0.6211 -0.0377 -1.1877
 1700TIP3   OH2 5105   4.406   3.090   2.038  0.1195  0.2067 -0.0778
 1700TIP3    H1 5106   4.347   3.032   1.989  1.6444 -2.4089  1.0024
 1700TIP3    H2 5107   4.465   3.125   1.971 -1.4776  1.4606 -0.9030
 1701TIP3   OH2 5108   5.335   2.045   4.454 -0.0705  0.2944 -0.0558
 1701TIP3    H1 5109   5.427   2.058   4.478 -0.3084  1.0228  0.4856
 1701TIP3    H2 5110   5.322   2.101   4.378  0.2778 -0.8471 -0.9829
 1702TIP3   OH2 5111   3.165   2.141   3.874  0.5071 -0.3338  0.1768
 1702TIP3    H1 5112   3.163   2.200   3.799 -0.1329 -0.8422 -0.2155
 1702TIP3    H2 5113   3.078   2.100   3.875  0.1557  0.3718  1.7699
 1703TIP3   OH2 5114   4.498   2.146   2.020 -0.6183  0.3621 -0.5850
 1703TIP3    H1 5115   4.455   2.173   2.102  0.1812  0.5401 -0.2171
 1703TIP3    H2 5116   4.574   2.095   2.049 -1.1670 -0.8718 -1.2371
 1704TIP3   OH2 5117   4.643   2.575   5.079  0.7765 -0.3438 -0.3491
 1704TIP3    H1 5118   4.724   2.540   5.041  1.8957 -0.3712  1.8788
 1704TIP3    H2 5119   4.595   2.498   5.108  0.2769 -0.2944 -1.0400
 1705TIP3   OH2 5120   0.968   4.002   3.200 -0.0233 -0.0343  0.2576
 1705TIP3    H1 5121   0.907   4.052   3.255 -1.4216 -1.7576  0.3687
 1705TIP3    H2 5122   1.054   4.019   3.239 -0.2407  3.1250 -0.3983
 1706TIP3   OH2 5123   2.070   4.406   2.889 -0.8414  0.4901 -0.1661
 1706TIP3    H1 5124   2.006   4.417   2.960 -0.2904 -2.0330  0.8383
 1706TIP3    H2 5125   2.109   4.493   2.878 -2.2186  1.3592  1.3594
 1707TIP3   OH2 5126   5.927   5.612   1.980  0.2725 -0.2196 -0.3922
 1707TIP3    H1 5127   5.920   5.607   2.075  0.0062  3.5434 -0.0716
 1707TIP3    H2 5128   5.837   5.610   1.949 -0.0814  3.5030 -0.0145
 1708TIP3   OH2 5129   1.474   3.537   3.703 -0.1023  0.1886  0.8211
 1708TIP3    H1 5130   1.545   3.484   3.666 -1.3315 -0.6917 -0.3663
 1708TIP3    H2 5131   1.519   3.600   3.760  1.6394 -0.1713 -0.0720
 1709TIP3   OH2 5132   3.460   2.943   2.685  0.0237 -0.3520 -0.1879
 1709TIP3    H1 5133   3.477   2.974   2.597  0.4394  1.2084  0.4069
 1709TIP3    H2 5134   3.421   3.018   2.730 -1.2697 -1.4634  0.6513
 1710TIP3   OH2 5135   2.505   0.792   3.979 -0.1114 -0.0486  0.1607
 1710TIP3    H1 5136   2.427   0.830   4.019  1.3376  0.3544  2.8348
 1710TIP3    H2 5137   2.569   0.864   3.978  1.0706 -1.0537  0.5673
 1711TIP3   OH2 5138   3.163   3.104   4.717 -0.0413 -0.3729  0.5662
 1711TIP3    H1 5139   3.248   3.060   4.709 -0.1059 -0.2846 -0.8721
 1711TIP3    H2 5140   3.160   3.163   4.641 -1.5176 -0.5928  0.4446
 1712TIP3   OH2 5141   0.963   5.622   1.135  0.1085  0.6428 -0.5259
 1712TIP3    H1 5142   0.884   5.573   1.110  0.0978  1.1745 -1.5448
 1712TIP3    H2 5143   0.981   5.679   1.061  1.2226  0.8288 -0.1308
 1713TIP3   OH2 5144   1.495   0.436   0.108  0.1945  0.4798  0.0260
 1713TIP3    H1 5145   1.428   0.495   0.076  0.1037  1.1803  1.4662
 1713TIP3    H2 5146   1.447   0.363   0.147  0.2718 -1.4555 -3.1185
 1714TIP3   OH2 5147   5.652   0.477   2.197  0.2358  0.0624 -0.1502
 1714TIP3    H1 5148   5.723   0.421   2.230 -1.3651 -2.2032 -0.3308
 1714TIP3    H2 5149   5.696   0.541   2.141  2.0296 -2.3996 -1.7781
 1715TIP3   OH2 5150   1.407   1.961   0.479 -0.5012  0.6603 -0.5307
 1715TIP3    H1 5151   1.428   1.881   0.527 -1.6035 -0.3509 -1.6608
 1715TIP3    H2 5152   1.315   1.978   0.501 -0.8011  0.6001 -1.6922
 1716TIP3   OH2 5153   0.278   4.245   3.727  0.0976  0.1154 -0.2496
 1716TIP3    H1 5154   0.364   4.205   3.724 -0.2304 -0.5280 -1.5735
 1716TIP3    H2 5155   0.273   4.284   3.814  1.1647 -1.0762  0.3756
 1717TIP3   OH2 5156   5.270   4.585   4.927  0.3929  0.0948  0.5469
 1717TIP3    H1 5157   5.249   4.514   4.867  1.3903  0.8878 -0.7983
 1717TIP3    H2 5158   5.353   4.560   4.966  1.2246  0.9096 -0.6333
 1718TIP3   OH2 5159   4.725   1.052   2.500  0.4970 -0.1564 -0.5251
 1718TIP3    H1 5160   4.786   1.064   2.572  0.9317  1.3330 -1.1107
 1718TIP3    H2 5161   4.778   1.062   2.421 -0.1817 -0.6277 -1.0574
 1719TIP3   OH2 5162   1.842   2.099   2.614  0.0056  0.4570  0.0663
 1719TIP3    H1 5163   1.902   2.035   2.575 -0.9952  0.6545 -1.9409
 1719TIP3    H2 5164   1.765   2.048   2.639  0.3083  0.4654  1.0303
 1720TIP3   OH2 5165   4.140   5.976   3.306 -0.7295  0.7736  0.2591
 1720TIP3    H1 5166   4.171   5.886   3.301 -0.7172  0.7383  0.9118
 1720TIP3    H2 5167   4.172   6.016   3.225  0.0357  0.4314  0.3777
 1721TIP3   OH2 5168   1.439   4.113   2.106 -0.1824 -0.4705 -0.4749
 1721TIP3    H1 5169   1.388   4.184   2.144 -0.1981 -1.0717  0.6900
 1721TIP3    H2 5170   1.393   4.033   2.134  0.3334 -0.9585 -1.0011
 1722TIP3   OH2 5171   4.419   3.797   4.584 -0.4495  0.4124 -0.4870
 1722TIP3    H1 5172   4.464   3.880   4.598  0.0541  0.0205  0.3001
 1722TIP3    H2 5173   4.327   3.821   4.573  0.0304  1.3209 -3.2062
 1723TIP3   OH2 5174   3.041   3.534   0.422 -0.0138  0.3006  1.0574
 1723TIP3    H1 5175   3.054   3.620   0.382 -0.8101  0.4288  1.0427
 1723TIP3    H2 5176   2.974   3.550   0.489 -1.6456 -0.6442 -0.2540
 1724TIP3   OH2 5177   4.936   1.351   3.616 -0.4055  0.4439  0.6032
 1724TIP3    H1 5178   5.024   1.373   3.649  0.5576  0.8462 -1.9777
 1724TIP3    H2 5179   4.933   1.256   3.619  0.6904  0.3424 -0.5066
 1725TIP3   OH2 5180   0.521   1.694   4.264  0.1809 -0.0403 -0.4099
 1725TIP3    H1 5181   0.432   1.680   4.231  0.1975 -0.2484 -0.3668
 1725TIP3    H2 5182   0.510   1.753   4.338  0.2240  1.0858 -1.2760
 1726TIP3   OH2 5183   1.474   0.026   0.172 -0.3407 -0.0350 -0.2255
 1726TIP3    H1 5184   1.429   0.106   0.198 -0.5025 -0.4168  0.7092
 1726TIP3    H2 5185   1.566   0.051   0.165 -0.0496 -0.2031  2.1478
 1727TIP3   OH2 5186   6.278   1.317   0.937 -0.1436  0.5239 -0.5570
 1727TIP3    H1 5187   6.301   1.350   1.024 -1.3247  1.3295 -0.5414
 1727TIP3    H2 5188   6.271   1.222   0.950  1.0698  0.4691 -0.1063
 1728TIP3   OH2 5189   2.196   5.062   0.713 -0.2062  0.1182 -0.4164
 1728TIP3    H1 5190   2.231   5.130   0.770 -1.0899 -0.0220  0.3042
 1728TIP3    H2 5191   2.167   5.108   0.634 -0.1350  0.4743 -0.2329
 1729TIP3   OH2 5192   2.836   1.400   2.665 -0.0253  0.6449  0.0219
 1729TIP3    H1 5193   2.915   1.425   2.617  1.5768 -2.7129  0.6144
 1729TIP3    H2 5194   2.866   1.334   2.727 -3.2792 -0.6005  0.4390
 1730TIP3   OH2 5195   2.932   5.137   4.289 -0.6712  0.0170  0.5937
 1730TIP3    H1 5196   2.963   5.224   4.266  0.4205  0.3100  2.8969
 1730TIP3    H2 5197   2.880   5.150   4.368 -2.3282 -1.1920 -0.2255
 1731TIP3   OH2 5198   0.838   4.907   1.363 -0.8348  0.3776 -0.1660
 1731TIP3    H1 5199   0.911   4.952   1.407 -0.8121 -2.6619  3.3987
 1731TIP3    H2 5200   0.880   4.839   1.311 -1.0507  0.0422  0.0972
 1732TIP3   OH2 5201   0.037   4.073   0.335  0.1630 -0.2727 -0.1906
 1732TIP3    H1 5202   0.095   3.996   0.333  1.3039  0.4842  1.4471
 1732TIP3    H2 5203  -0.038   4.044   0.388  1.3412  0.1473  1.8375
 1733TIP3   OH2 5204   4.562   2.058   4.182 -0.2388  0.3502 -0.2495
 1733TIP3    H1 5205   4.535   2.149   4.190 -0.2169  0.3597 -0.2820
 1733TIP3    H2 5206   4.497   2.009   4.233 -0.5778  0.3264 -0.6978
 1734TIP3   OH2 5207   2.455   3.701   2.555  0.4371  0.4058 -0.1382
 1734TIP3    H1 5208   2.455   3.614   2.517 -0.2336  0.3185  0.0493
 1734TIP3    H2 5209   2.401   3.693   2.633  1.0146  0.8080  0.3135
 1735TIP3   OH2 5210   1.507   3.088   3.841  0.2854 -0.0469 -0.6781
 1735TIP3    H1 5211   1.440   3.157   3.836 -0.6261 -0.8639 -0.0919
 1735TIP3    H2 5212   1.523   3.078   3.935  1.3600  0.2450 -0.8227
 1736TIP3   OH2 5213   3.526   1.809   4.706  0.3724 -0.1063 -0.0113
 1736TIP3    H1 5214   3.617   1.825   4.681  0.7593 -0.2369  1.2757
 1736TIP3    H2 5215   3.506   1.877   4.771 -0.5582  0.1252 -0.5148
 1737TIP3   OH2 5216   2.347   0.696   2.583  0.4889  0.4863 -0.2109
 1737TIP3    H1 5217   2.327   0.690   2.676 -0.0435 -1.1127 -0.3955
 1737TIP3    H2 5218   2.296   0.625   2.543  2.4022 -0.2879 -1.4241
 1738TIP3   OH2 5219   0.211   1.092   0.128  0.6021  0.0518 -0.3252
 1738TIP3    H1 5220   0.149   1.089   0.056  0.6080 -0.7943 -0.3041
 1738TIP3    H2 5221   0.288   1.044   0.096  1.5163  1.6278 -0.5940
 1739TIP3   OH2 5222   3.627   0.001   5.132 -0.3856  0.0002  0.0614
 1739TIP3    H1 5223   3.635   0.086   5.087  0.1101 -0.7793 -1.3964
 1739TIP3    H2 5224   3.708  -0.045   5.109 -1.4451 -1.5501 -0.6647
 1740TIP3   OH2 5225   4.994   2.784   4.606  0.1441 -0.3770 -0.2287
 1740TIP3    H1 5226   5.060   2.734   4.557 -0.1001 -0.4156 -0.5201
 1740TIP3    H2 5227   4.941   2.826   4.538 -0.5452 -0.8888 -0.0090
 1741TIP3   OH2 5228   3.805   0.505   1.255 -0.6354  0.5162 -0.6157
 1741TIP3    H1 5229   3.735   0.568   1.235 -0.0814  0.9601 -1.2144
 1741TIP3    H2 5230   3.768   0.420   1.234 -1.3526  0.6466  0.0695
 1742TIP3   OH2 5231   1.219   2.777   3.312 -0.0025 -0.3877  0.2229
 1742TIP3    H1 5232   1.254   2.840   3.249  1.6410 -0.4058  1.0560
 1742TIP3    H2 5233   1.287   2.709   3.319 -1.1114 -1.5248  0.3995
 1743TIP3   OH2 5234   4.969   0.385   0.144 -0.3321 -0.2030  0.0880
 1743TIP3    H1 5235   4.964   0.383   0.240  0.4561  0.2154  0.1497
 1743TIP3    H2 5236   4.974   0.478   0.123 -2.7943 -0.1420 -0.5218
 1744TIP3   OH2 5237   3.250   0.925   2.633  0.1903 -0.3692 -0.0469
 1744TIP3    H1 5238   3.239   0.974   2.552  2.2651  0.7533  0.2912
 1744TIP3    H2 5239   3.260   0.992   2.701  0.5882 -1.2748  0.8217
 1745TIP3   OH2 5240   0.935   5.341   0.842 -0.2461 -0.3510 -0.2799
 1745TIP3    H1 5241   0.972   5.253   0.853 -0.3499 -0.5374 -1.3054
 1745TIP3    H2 5242   0.864   5.344   0.907  0.9763 -0.2876  1.1200
 1746TIP3   OH2 5243   4.087   4.507   4.023 -0.6158 -0.5264 -0.1304
 1746TIP3    H1 5244   4.029   4.451   3.973 -0.7203 -0.3420 -0.2192
 1746TIP3    H2 5245   4.053   4.596   4.009 -2.4003 -0.6846  2.5496
 1747TIP3   OH2 5246   1.729   4.755   4.835 -0.1260 -0.1629  0.5698
 1747TIP3    H1 5247   1.642   4.765   4.797  0.9488 -0.0132 -2.0485
 1747TIP3    H2 5248   1.735   4.663   4.858  0.8368 -1.6158 -4.4559
 1748TIP3   OH2 5249   4.063   1.335   0.765 -0.0418  0.4355 -0.3068
 1748TIP3    H1 5250   4.139   1.304   0.814 -0.0442 -1.5096 -1.4679
 1748TIP3    H2 5251   3.988   1.310   0.818  0.0493  1.9587  0.6176
 1749TIP3   OH2 5252   5.229   2.066   4.819 -0.4752  0.1311 -0.1996
 1749TIP3    H1 5253   5.173   2.021   4.882 -1.1488 -0.8397 -1.4596
 1749TIP3    H2 5254   5.291   2.000   4.790 -0.1333  0.5883 -0.5332
 1750TIP3   OH2 5255   3.820   3.811   0.662 -0.1966  0.1445 -0.0414
 1750TIP3    H1 5256   3.746   3.835   0.718 -0.3726  0.1809 -0.2906
 1750TIP3    H2 5257   3.780   3.769   0.586  0.0092  0.6426 -0.4249
 1751TIP3   OH2 5258   2.715   4.184   4.123 -0.3360 -0.4593  0.0658
 1751TIP3    H1 5259   2.667   4.103   4.108 -0.0023 -0.6287 -0.1170
 1751TIP3    H2 5260   2.758   4.172   4.208 -0.1770 -0.5321 -0.0236
 1752TIP3   OH2 5261   3.107   3.274   3.252  0.3977 -0.1262 -0.1950
 1752TIP3    H1 5262   3.091   3.312   3.339  0.2521 -1.2635  0.2937
 1752TIP3    H2 5263   3.169   3.334   3.211  0.9273  0.1227  0.9292
 1753TIP3   OH2 5264   4.738   0.954   1.138 -0.7027 -0.1406  0.3264
 1753TIP3    H1 5265   4.767   0.970   1.227  0.2927 -0.6341  0.1097
 1753TIP3    H2 5266   4.775   0.868   1.116  1.1194  0.9820 -1.3558
 1754TIP3   OH2 5267   4.376   0.997   0.978  0.2734  0.0240  0.4084
 1754TIP3    H1 5268   4.430   1.028   1.052  2.2948 -1.1191 -0.4793
 1754TIP3    H2 5269   4.343   0.912   1.008 -1.0948  0.7107  0.9391
 1755TIP3   OH2 5270   5.959   5.211   2.083 -0.2244  0.1603 -0.4071
 1755TIP3    H1 5271   5.930   5.159   2.158  1.7993  0.7391  0.8505
 1755TIP3    H2 5272   6.040   5.252   2.112 -0.1617  1.6091 -2.4235
 1756TIP3   OH2 5273   1.148   2.064   4.230 -0.2483 -0.0833  0.9936
 1756TIP3    H1 5274   1.161   2.036   4.139  1.4771  1.9628  0.5156
 1756TIP3    H2 5275   1.223   2.029   4.277 -0.7594 -0.5256  1.4897
 1757TIP3   OH2 5276   0.331   1.618   4.089 -0.3417  0.5847  0.1639
 1757TIP3    H1 5277   0.270   1.689   4.068 -0.7448  0.3357  0.4804
 1757TIP3    H2 5278   0.323   1.558   4.015 -0.3137  0.6573  0.1005
 1758TIP3   OH2 5279   1.638   5.119   0.014 -0.3758 -0.1081  0.2013
 1758TIP3    H1 5280   1.655   5.213   0.014 -2.1944  0.2686 -1.2267
 1758TIP3    H2 5281   1.647   5.094   0.106 -0.6966  1.6326  0.7463
 1759TIP3   OH2 5282   3.495   4.368   5.184  0.3799  0.0154  0.5724
 1759TIP3    H1 5283   3.587   4.364   5.157  0.1533 -2.3654 -0.1606
 1759TIP3    H2 5284   3.446   4.372   5.102 -0.2043 -2.5772  0.7024
 1760TIP3   OH2 5285   0.812   4.823   4.875 -0.2178 -0.2033  0.3733
 1760TIP3    H1 5286   0.804   4.831   4.780  1.8463  1.5111  0.2810
 1760TIP3    H2 5287   0.889   4.768   4.888  0.2562  0.5941  1.0273
 1761TIP3   OH2 5288   2.578   2.756   0.046  0.3616  0.2489 -0.1609
 1761TIP3    H1 5289   2.645   2.725  -0.014 -0.1909  0.9476 -1.1734
 1761TIP3    H2 5290   2.563   2.847   0.020 -2.1386 -0.3445 -1.1058
 1762TIP3   OH2 5291   4.067   5.422   1.122  0.3950 -0.1332 -0.5591
 1762TIP3    H1 5292   4.100   5.463   1.202 -0.5887 -0.8022  0.2056
 1762TIP3    H2 5293   3.986   5.470   1.103 -1.3142 -2.2530  0.8999
 1763TIP3   OH2 5294   3.171   4.844   3.429  0.7823 -0.2326  0.2769
 1763TIP3    H1 5295   3.220   4.778   3.380  1.2331  0.3513 -0.0688
 1763TIP3    H2 5296   3.141   4.906   3.362 -2.3077 -1.7027  0.1507
 1764TIP3   OH2 5297   5.252   4.167   4.167  0.3855  1.0308 -0.1833
 1764TIP3    H1 5298   5.263   4.077   4.197  1.0077  0.2852 -2.4546
 1764TIP3    H2 5299   5.324   4.215   4.208  0.5451  0.3259  0.3875
 1765TIP3   OH2 5300   3.774   3.394   4.091 -0.4348 -0.1577  0.3923
 1765TIP3    H1 5301   3.778   3.402   4.187 -2.5088  0.2441  0.4912
 1765TIP3    H2 5302   3.757   3.483   4.061 -0.3180 -0.3708 -0.3133
 1766TIP3   OH2 5303   3.593   1.291   1.408 -1.1445  0.4077  0.1269
 1766TIP3    H1 5304   3.687   1.277   1.394 -1.3416 -0.0105 -0.8482
 1766TIP3    H2 5305   3.588   1.372   1.459 -0.2505  0.3663  0.2958
 1767TIP3   OH2 5306   4.111   4.722   0.855  0.1293  0.1441 -0.8919
 1767TIP3    H1 5307   4.119   4.808   0.814  1.8479  0.2880 -0.3252
 1767TIP3    H2 5308   4.192   4.711   0.904  0.1081 -1.9597 -1.2349
 1768TIP3   OH2 5309   3.404   3.695   2.214  0.2111 -0.2542  0.1125
 1768TIP3    H1 5310   3.447   3.740   2.287 -0.2367  0.4560 -0.0523
 1768TIP3    H2 5311   3.313   3.688   2.240  0.3162 -1.3433  0.2586
 1769TIP3   OH2 5312   1.343   4.101   3.174  0.2201 -0.5010  0.5192
 1769TIP3    H1 5313   1.391   4.094   3.256  0.3925 -0.6016  0.4101
 1769TIP3    H2 5314   1.339   4.012   3.140  2.2943 -0.1728 -0.7964
 1770TIP3   OH2 5315   1.181   4.573   3.751 -0.0825  0.2155  0.1896
 1770TIP3    H1 5316   1.180   4.478   3.765  1.0329  0.1276 -0.1851
 1770TIP3    H2 5317   1.253   4.605   3.805  1.1509  0.4900 -1.5094
 1771TIP3   OH2 5318   3.491   1.453   2.036  0.3004  0.1678  0.5277
 1771TIP3    H1 5319   3.413   1.509   2.038 -0.8103 -1.2708 -0.1510
 1771TIP3    H2 5320   3.482   1.398   2.114  0.5911 -0.0534  0.4055
 1772TIP3   OH2 5321   0.298   2.258   2.129  0.4252  0.1624 -0.2720
 1772TIP3    H1 5322   0.270   2.313   2.055  0.7576  0.4651 -0.1750
 1772TIP3    H2 5323   0.227   2.194   2.139  0.2079  0.3415 -0.6234
 1773TIP3   OH2 5324   2.580   2.496   1.983 -0.2432  0.2685 -0.1517
 1773TIP3    H1 5325   2.639   2.540   1.920  0.9488 -0.3944  0.4583
 1773TIP3    H2 5326   2.542   2.567   2.034  0.3018  0.7065 -0.3434
 1774TIP3   OH2 5327   5.315   2.111   1.384  0.3522  0.1660  0.1496
 1774TIP3    H1 5328   5.388   2.049   1.375  0.6537  0.3742  0.9951
 1774TIP3    H2 5329   5.320   2.165   1.306 -0.2200 -1.1703 -0.8499
 1775TIP3   OH2 5330   1.504   5.564   4.487 -0.3160  0.0623 -0.2681
 1775TIP3    H1 5331   1.564   5.573   4.562 -1.0807  0.3472  0.3146
 1775TIP3    H2 5332   1.478   5.653   4.466 -1.3109 -0.1238  0.1204
 1776TIP3   OH2 5333   5.435   1.585   0.222  0.0142  0.2284  0.3720
 1776TIP3    H1 5334   5.422   1.530   0.299 -1.5029 -0.6572 -0.4802
 1776TIP3    H2 5335   5.526   1.613   0.227  0.3983 -1.1748  1.5889
 1777TIP3   OH2 5336   1.482   0.480   2.350  0.3750 -0.4340 -0.9182
 1777TIP3    H1 5337   1.407   0.431   2.384  0.5766  0.8020  1.5218
 1777TIP3    H2 5338   1.449   0.570   2.341  1.8071  0.4402  1.5271
 1778TIP3   OH2 5339   3.854   1.477   2.285  0.0292 -0.9296  0.4724
 1778TIP3    H1 5340   3.809   1.418   2.224 -2.8329 -0.0773  1.6083
 1778TIP3    H2 5341   3.903   1.537   2.228 -0.9856 -1.3674 -0.9097
 1779TIP3   OH2 5342   2.420   5.145   5.094  0.4063 -0.3969 -0.4780
 1779TIP3    H1 5343   2.453   5.056   5.104  0.2244 -0.2970  1.5075
 1779TIP3    H2 5344   2.338   5.146   5.143  0.1818  0.7560 -0.8296
 1780TIP3   OH2 5345   6.081   3.047   1.923  0.5753 -0.3969  0.1834
 1780TIP3    H1 5346   6.155   3.053   1.863 -1.1365 -0.5921 -2.0789
 1780TIP3    H2 5347   6.037   3.132   1.917 -0.2848 -0.8241  0.2261
 1781TIP3   OH2 5348   2.407   4.350   2.467 -0.2806  0.3707 -0.5281
 1781TIP3    H1 5349   2.328   4.332   2.518 -0.5868  0.0412 -1.1093
 1781TIP3    H2 5350   2.381   4.333   2.376  1.0147 -1.8117 -0.5585
 1782TIP3   OH2 5351   1.320   4.227   3.994  0.5976  0.4233  0.5193
 1782TIP3    H1 5352   1.403   4.180   3.993  0.3407 -0.0988  1.6764
 1782TIP3    H2 5353   1.270   4.189   3.922  1.7244  1.4801 -0.8892
 1783TIP3   OH2 5354   3.006   0.334   4.484  0.0466  0.2390 -0.0764
 1783TIP3    H1 5355   3.058   0.270   4.435  0.5678  1.6853 -1.5228
 1783TIP3    H2 5356   2.918   0.298   4.484  0.3216 -0.4750 -0.8557
 1784TIP3   OH2 5357   6.301   2.328   2.280 -0.1100  0.1929  0.5667
 1784TIP3    H1 5358   6.260   2.324   2.193 -0.5242 -0.0623  0.7676
 1784TIP3    H2 5359   6.390   2.357   2.264  0.0527 -0.5940 -0.0305
 1785TIP3   OH2 5360   2.255   5.687   0.005  0.6685  0.1941  0.4162
 1785TIP3    H1 5361   2.291   5.774   0.019 -0.1329  0.7950 -0.9832
 1785TIP3    H2 5362   2.163   5.695   0.031  0.7470 -0.4169  0.8980
 1786TIP3   OH2 5363   4.062   5.821   2.828 -0.8738  0.0255 -1.0252
 1786TIP3    H1 5364   4.050   5.899   2.774 -0.8643 -1.0302 -2.6395
 1786TIP3    H2 5365   4.153   5.827   2.859 -0.7253  0.4447 -1.5198
 1787TIP3   OH2 5366   2.277   0.447   1.593  0.2150  0.6506  0.2276
 1787TIP3    H1 5367   2.312   0.400   1.518 -0.7919  1.7202 -0.9503
 1787TIP3    H2 5368   2.195   0.402   1.614  1.2701 -0.6668  1.7770
 1788TIP3   OH2 5369   4.894   0.784   4.289  0.0853 -0.1630 -0.4022
 1788TIP3    H1 5370   4.834   0.737   4.231  1.9204 -0.5482 -2.0906
 1788TIP3    H2 5371   4.979   0.743   4.274  0.4190 -1.5780  4.0104
 1789TIP3   OH2 5372   5.632   3.894   2.216  0.4375 -0.2512 -0.3710
 1789TIP3    H1 5373   5.633   3.960   2.285  1.9895 -0.2026 -0.4119
 1789TIP3    H2 5374   5.661   3.813   2.259  1.2799 -0.2522 -0.9193
 1790TIP3   OH2 5375   0.289   0.139   4.900  0.4069  0.3161 -0.2204
 1790TIP3    H1 5376   0.198   0.112   4.911  0.7206 -0.4621  0.5910
 1790TIP3    H2 5377   0.327   0.131   4.987  1.8624 -1.7003 -0.9460
 1791TIP3   OH2 5378   4.359   1.955   0.590 -0.0393  0.3816 -0.4100
 1791TIP3    H1 5379   4.303   1.974   0.666 -0.2591 -0.0047 -0.4710
 1791TIP3    H2 5380   4.342   1.862   0.571  0.1199  0.4409 -0.8455
 1792TIP3   OH2 5381   2.360   2.490   4.242 -0.5547 -0.5626  0.1384
 1792TIP3    H1 5382   2.388   2.403   4.212  0.9355 -0.6674  1.7255
 1792TIP3    H2 5383   2.267   2.479   4.261 -1.2352 -0.8901 -2.7643
 1793TIP3   OH2 5384   0.841   1.483   1.950  0.3194 -0.0931 -0.2541
 1793TIP3    H1 5385   0.880   1.398   1.930  3.7363  1.3641 -0.5375
 1793TIP3    H2 5386   0.844   1.531   1.867 -0.6622  0.6444  0.1173
 1794TIP3   OH2 5387   5.460   2.567   3.911  0.2848  0.0055  0.0605
 1794TIP3    H1 5388   5.448   2.483   3.867  0.5355 -0.3976  0.7422
 1794TIP3    H2 5389   5.371   2.598   3.928  0.1691  0.5778 -1.4608
 1795TIP3   OH2 5390   3.247   4.191   2.648  0.0936  0.0743  0.2665
 1795TIP3    H1 5391   3.252   4.283   2.622  1.5375  0.5713  2.1438
 1795TIP3    H2 5392   3.153   4.177   2.665 -0.3023  0.8519 -1.1054
 1796TIP3   OH2 5393   2.429   4.931   1.133 -0.1776 -0.1212  0.4603
 1796TIP3    H1 5394   2.463   4.848   1.101  0.2685  0.2412 -0.0302
 1796TIP3    H2 5395   2.425   4.987   1.055  1.6429  1.0156  1.1072
 1797TIP3   OH2 5396   3.668   2.263   0.371  0.4143 -0.3706 -0.1749
 1797TIP3    H1 5397   3.652   2.182   0.420 -3.3183 -0.4104 -1.1016
 1797TIP3    H2 5398   3.675   2.330   0.438 -1.4251 -0.8560  0.5737
 1798TIP3   OH2 5399   2.855   0.087   2.405 -0.1900  0.2123 -0.1062
 1798TIP3    H1 5400   2.931   0.139   2.378 -0.5248  1.3706  1.0948
 1798TIP3    H2 5401   2.887   0.034   2.478 -0.5306  0.6905  0.3916
 1799TIP3   OH2 5402   1.826   4.475   2.672  0.0865  0.8059  0.3723
 1799TIP3    H1 5403   1.861   4.523   2.597 -0.4567  1.2794  0.4101
 1799TIP3    H2 5404   1.903   4.446   2.720  0.4859 -0.8140 -1.1489
 1800TIP3   OH2 5405   5.621   4.791   4.475  0.1663 -0.3124 -0.2232
 1800TIP3    H1 5406   5.532   4.813   4.447  0.4391  1.6428  0.3521
 1800TIP3    H2 5407   5.678   4.844   4.419  0.9074 -0.2040  0.6103
 1801TIP3   OH2 5408   3.184   2.141   5.115  0.3451  0.2345 -0.2703
 1801TIP3    H1 5409   3.237   2.160   5.192 -1.3354 -0.5345  1.1838
 1801TIP3    H2 5410   3.094   2.157   5.144 -0.4633 -1.5678 -1.5709
 1802TIP3   OH2 5411   6.101   5.531   1.781  0.4500  0.1102  0.1225
 1802TIP3    H1 5412   6.042   5.540   1.706  0.3239 -2.2856 -0.1604
 1802TIP3    H2 5413   6.048   5.559   1.856 -0.9582 -1.4854 -0.1962
 1803TIP3   OH2 5414   2.314   4.077   1.359 -0.2832  0.3915 -0.2617
 1803TIP3    H1 5415   2.352   4.159   1.327  1.5825  0.7727  2.5319
 1803TIP3    H2 5416   2.326   4.015   1.286  2.2220  1.5390 -0.9406
 1804TIP3   OH2 5417   3.221   0.878  -0.009 -0.2046 -0.2556 -0.1162
 1804TIP3    H1 5418   3.281   0.888   0.065 -1.0869  3.2458  0.2886
 1804TIP3    H2 5419   3.134   0.884   0.030 -0.8016 -2.0241 -1.0818
 1805TIP3   OH2 5420   0.622   0.672   4.511  0.3902 -0.3396  0.2453
 1805TIP3    H1 5421   0.667   0.589   4.496  2.2901  0.7912 -0.8229
 1805TIP3    H2 5422   0.585   0.694   4.425  1.4000  0.6917  0.0448
 1806TIP3   OH2 5423   5.253   4.772   1.037  0.7356  0.0845  0.5293
 1806TIP3    H1 5424   5.277   4.686   1.002  3.5482  0.5677  0.9924
 1806TIP3    H2 5425   5.249   4.759   1.132 -1.6863 -0.0845  0.4651
 1807TIP3   OH2 5426   0.317   4.016   0.898  0.2752  0.4074  0.2353
 1807TIP3    H1 5427   0.374   4.074   0.948  0.0891  1.3043 -0.5536
 1807TIP3    H2 5428   0.230   4.027   0.937  0.7452 -1.6241  2.0086
 1808TIP3   OH2 5429   2.601   3.723   2.267  0.1203  0.3047 -0.3400
 1808TIP3    H1 5430   2.558   3.692   2.187  0.2948 -1.1444  0.1035
 1808TIP3    H2 5431   2.539   3.701   2.337  0.7609 -0.0885  0.1090
 1809TIP3   OH2 5432   0.346   2.090   1.542  0.2544  0.0683 -0.2983
 1809TIP3    H1 5433   0.409   2.115   1.610  0.0536  3.6581 -1.2278
 1809TIP3    H2 5434   0.398   2.045   1.476  0.8994 -1.1990  1.0007
 1810TIP3   OH2 5435   2.564   2.194  -0.019  0.4928 -0.5641  0.3827
 1810TIP3    H1 5436   2.496   2.126  -0.020  1.2259 -1.3295 -0.9885
 1810TIP3    H2 5437   2.587   2.203   0.073 -1.8707  0.1848  0.9939
 1811TIP3   OH2 5438   5.616   1.829   3.620 -0.2924  0.4378  0.0556
 1811TIP3    H1 5439   5.566   1.854   3.541 -1.8630  1.0109  1.1725
 1811TIP3    H2 5440   5.681   1.899   3.630 -1.1853  1.2875  0.1687
 1812TIP3   OH2 5441   2.597   2.441   2.542 -0.2964  0.1499 -0.3130
 1812TIP3    H1 5442   2.551   2.358   2.533 -0.4727  0.2702 -0.5440
 1812TIP3    H2 5443   2.660   2.441   2.469  0.7792 -0.4591  0.5863
 1813TIP3   OH2 5444   4.224   4.634   4.580 -0.0062  0.0986  0.3586
 1813TIP3    H1 5445   4.273   4.607   4.658 -1.0805 -0.7945  0.7599
 1813TIP3    H2 5446   4.267   4.590   4.508 -0.8460 -1.5860  0.8382
 1814TIP3   OH2 5447   0.600   0.086   3.394  0.3138  0.9410 -0.1272
 1814TIP3    H1 5448   0.564   0.174   3.382 -0.2605  0.8912  1.1344
 1814TIP3    H2 5449   0.678   0.099   3.448  1.4818  0.8888 -1.7221
 1815TIP3   OH2 5450   0.571   5.547   1.815 -0.6762  0.1861  0.0967
 1815TIP3    H1 5451   0.609   5.475   1.765 -0.6530  0.5924 -0.4856
 1815TIP3    H2 5452   0.481   5.519   1.833 -1.0281  0.4845 -1.1227
 1816TIP3   OH2 5453   2.857   5.968   2.491 -0.0039  0.3722 -0.3415
 1816TIP3    H1 5454   2.869   5.880   2.529  1.5593  0.7088  0.0065
 1816TIP3    H2 5455   2.945   6.000   2.478 -0.5545  1.4044 -1.6836
 1817TIP3   OH2 5456   4.399   2.501   2.578  0.4062 -0.8106  0.6276
 1817TIP3    H1 5457   4.480   2.533   2.538  1.4168 -1.1885  2.3000
 1817TIP3    H2 5458   4.379   2.564   2.647 -2.3851  0.9266 -1.4932
 1818TIP3   OH2 5459   2.808   5.875   0.685  0.2559 -0.4706  1.0358
 1818TIP3    H1 5460   2.735   5.823   0.651 -0.2910 -0.5636  2.3110
 1818TIP3    H2 5461   2.883   5.847   0.633  0.1041 -2.9742  2.0021
 1819TIP3   OH2 5462   3.194   5.864   5.051 -0.3595 -0.2189 -0.0391
 1819TIP3    H1 5463   3.174   5.877   4.958  0.7003 -0.5599 -0.3231
 1819TIP3    H2 5464   3.271   5.918   5.067  0.6261 -1.6362  0.1571
 1820TIP3   OH2 5465   4.219   2.177   2.604 -0.2062  0.1601 -0.4975
 1820TIP3    H1 5466   4.172   2.095   2.621  1.4820 -0.7260  0.1534
 1820TIP3    H2 5467   4.306   2.149   2.576  0.4047  1.7477 -0.2825
 1821TIP3   OH2 5468   0.294   5.592   2.889  0.2452  0.2662  0.0702
 1821TIP3    H1 5469   0.283   5.628   2.977  0.3359  0.0880  0.1538
 1821TIP3    H2 5470   0.359   5.648   2.847  0.7605 -0.1054  0.3701
 1822TIP3   OH2 5471   6.183   0.398   2.868  0.0118 -0.1801  0.1318
 1822TIP3    H1 5472   6.266   0.432   2.900 -0.3471  0.1952  0.6728
 1822TIP3    H2 5473   6.120   0.469   2.883  0.1072  0.7048 -2.8472
 1823TIP3   OH2 5474   3.377   5.850   1.961 -0.6789 -0.0304 -0.0211
 1823TIP3    H1 5475   3.431   5.927   1.943  0.1974 -0.0178  2.2417
 1823TIP3    H2 5476   3.438   5.787   2.000 -1.7691 -1.0936  0.0239
 1824TIP3   OH2 5477   2.182   1.579   1.014  0.1289  0.2372 -0.1264
 1824TIP3    H1 5478   2.129   1.533   1.079  0.0974  1.7260  0.9482
 1824TIP3    H2 5479   2.254   1.618   1.064  2.1634 -1.4991 -1.5046
 1825TIP3   OH2 5480   2.321   0.727   4.743 -0.1298  0.1011  0.0017
 1825TIP3    H1 5481   2.381   0.786   4.788  0.2105 -0.3301  0.1204
 1825TIP3    H2 5482   2.234   0.760   4.765  0.0607  1.3791 -1.0314
 1826TIP3   OH2 5483   2.688   1.147   3.694 -0.0674  0.3229  1.0693
 1826TIP3    H1 5484   2.755   1.201   3.735 -0.3837  0.9048  0.8283
 1826TIP3    H2 5485   2.719   1.135   3.604 -0.5679  1.0808  0.7900
 1827TIP3   OH2 5486   1.767   0.479   2.165 -0.5675  0.3139  0.2247
 1827TIP3    H1 5487   1.720   0.522   2.237  1.1700 -0.0799  1.6762
 1827TIP3    H2 5488   1.789   0.549   2.105 -1.2090  0.8185  0.5656
 1828TIP3   OH2 5489   0.574   4.266   3.199 -0.2254 -0.3033 -0.9160
 1828TIP3    H1 5490   0.542   4.352   3.173 -0.4368  0.1118  0.5873
 1828TIP3    H2 5491   0.589   4.220   3.117  1.6495  1.7802 -1.8749
 1829TIP3   OH2 5492   2.946   1.996   1.417 -0.5964  0.0140  0.0231
 1829TIP3    H1 5493   2.982   2.013   1.504  0.6781  0.5930 -0.5973
 1829TIP3    H2 5494   2.894   2.074   1.397 -2.0325 -0.6946  0.7931
 1830TIP3   OH2 5495   2.073   2.644   3.933  0.2379 -0.3618  0.1915
 1830TIP3    H1 5496   2.048   2.566   3.983 -0.2100 -0.1189  0.3537
 1830TIP3    H2 5497   2.006   2.652   3.866 -1.2373  1.3600  1.7787
 1831TIP3   OH2 5498   3.506   1.278   0.996  0.8064 -0.0910  0.3159
 1831TIP3    H1 5499   3.535   1.198   1.039 -0.9682 -0.2024  1.4262
 1831TIP3    H2 5500   3.417   1.292   1.029 -1.1082 -0.6220 -3.9650
 1832TIP3   OH2 5501   3.826   4.890   1.578 -0.0678 -0.3762 -0.1074
 1832TIP3    H1 5502   3.877   4.926   1.505  1.8773  0.3013  1.5197
 1832TIP3    H2 5503   3.844   4.796   1.576  0.0010 -0.3583 -0.4482
 1833TIP3   OH2 5504   4.523   3.618   1.472 -0.0830 -0.6266 -0.3969
 1833TIP3    H1 5505   4.611   3.619   1.434  0.0170  1.4620 -0.1925
 1833TIP3    H2 5506   4.533   3.569   1.554  0.7441 -0.9015 -0.6473
 1834TIP3   OH2 5507   2.320   0.844   2.078  0.5296 -0.2966 -0.1004
 1834TIP3    H1 5508   2.326   0.860   2.172  2.0542  0.5894 -0.2998
 1834TIP3    H2 5509   2.373   0.765   2.064  1.6013  0.4393 -0.3673
 1835TIP3   OH2 5510   6.293   5.191   1.389  0.1413  0.1332  0.4589
 1835TIP3    H1 5511   6.349   5.220   1.316  0.8318  0.7233  1.2043
 1835TIP3    H2 5512   6.257   5.107   1.359 -1.1743  1.2674 -1.3892
 1836TIP3   OH2 5513   5.845   4.377   2.727  0.0015  0.4437 -0.5688
 1836TIP3    H1 5514   5.935   4.356   2.754 -0.1023  0.1347 -0.4567
 1836TIP3    H2 5515   5.841   4.355   2.634  0.3721  1.5499 -0.8625
 1837TIP3   OH2 5516   1.626   0.475   4.713  0.0563 -0.3632  0.2875
 1837TIP3    H1 5517   1.652   0.385   4.692  0.5331 -0.5960  1.7703
 1837TIP3    H2 5518   1.531   0.472   4.719 -0.1396 -0.2388 -1.8832
 1838TIP3   OH2 5519   4.018   2.040   3.017 -0.0389  0.2835 -0.0242
 1838TIP3    H1 5520   4.071   1.988   3.077 -1.1153  0.0010  0.7163
 1838TIP3    H2 5521   4.079   2.100   2.976  0.3691  2.3871  3.3272
 1839TIP3   OH2 5522   2.108   2.083   3.270  0.3834 -0.1253 -0.3335
 1839TIP3    H1 5523   2.184   2.042   3.311  1.5610  1.0107 -1.2793
 1839TIP3    H2 5524   2.033   2.052   3.321  1.6673  0.3476  1.9745
 1840TIP3   OH2 5525   5.462   2.970   2.761  0.5859 -0.2922 -0.2970
 1840TIP3    H1 5526   5.375   2.945   2.727  0.0530  0.5829  0.3810
 1840TIP3    H2 5527   5.489   3.043   2.705  0.6238 -0.1764 -0.1255
 1841TIP3   OH2 5528   3.291   3.284   0.204 -0.2804  0.3118  0.4523
 1841TIP3    H1 5529   3.303   3.219   0.135 -0.2362 -0.0397  0.7865
 1841TIP3    H2 5530   3.379   3.304   0.235 -0.1817  1.5568 -0.5743
 1842TIP3   OH2 5531   0.764   1.505   2.215 -0.2583  0.2997  0.4498
 1842TIP3    H1 5532   0.756   1.507   2.120 -1.3185 -1.1112  0.4642
 1842TIP3    H2 5533   0.833   1.567   2.235 -0.5319  1.1883 -1.1805
 1843TIP3   OH2 5534   2.094   3.932   2.490  0.1565  0.0962  0.4448
 1843TIP3    H1 5535   2.158   3.965   2.427 -0.1083 -1.0803 -0.4764
 1843TIP3    H2 5536   2.019   3.991   2.482  0.1425 -0.0136 -0.3423
 1844TIP3   OH2 5537   2.471   4.650   1.129  0.0141  0.0866  0.0174
 1844TIP3    H1 5538   2.548   4.641   1.186 -0.6329 -2.4171  0.6357
 1844TIP3    H2 5539   2.407   4.590   1.167 -0.9913 -0.5409 -2.4961
 1845TIP3   OH2 5540   2.598   3.885   2.859 -0.2375  0.9656 -0.6015
 1845TIP3    H1 5541   2.525   3.823   2.871 -0.9807  1.5309 -1.9429
 1845TIP3    H2 5542   2.619   3.914   2.947 -2.2187  1.4176 -0.2284
 1846TIP3   OH2 5543   5.745   0.357   0.081 -0.0095 -0.1577  0.1180
 1846TIP3    H1 5544   5.746   0.439   0.032  0.6898 -0.8334 -1.0483
 1846TIP3    H2 5545   5.671   0.308   0.045 -0.6059  0.0617  1.0126
 1847TIP3   OH2 5546   1.596   4.183   2.404 -0.0755  0.0253  0.1787
 1847TIP3    H1 5547   1.620   4.206   2.494 -0.4090 -2.4312  0.9906
 1847TIP3    H2 5548   1.602   4.087   2.402 -0.7527 -0.0282 -2.2374
 1848TIP3   OH2 5549   2.616   1.256   5.046  0.3373 -0.6721  0.7324
 1848TIP3    H1 5550   2.666   1.202   4.984  0.4679 -0.8535  0.9948
 1848TIP3    H2 5551   2.576   1.194   5.106 -0.5387 -0.5479  0.2820
 1849TIP3   OH2 5552   0.417   4.816   2.254  0.1263  0.3005  0.3442
 1849TIP3    H1 5553   0.410   4.762   2.332 -0.5553 -1.4107 -0.8422
 1849TIP3    H2 5554   0.505   4.854   2.259  0.1929  0.0141  1.7875
 1850TIP3   OH2 5555   4.745   5.186   2.738 -0.1372 -0.4367 -0.4225
 1850TIP3    H1 5556   4.791   5.216   2.816  1.2773 -0.2400 -1.2955
 1850TIP3    H2 5557   4.656   5.218   2.749  0.9220  2.9939 -0.6655
 1851TIP3   OH2 5558   3.149   4.283   0.156 -0.1887  0.3574 -0.3227
 1851TIP3    H1 5559   3.141   4.261   0.063 -2.0249  1.2584 -0.4217
 1851TIP3    H2 5560   3.211   4.357   0.157  0.4982 -0.1932 -0.7103
 1852TIP3   OH2 5561   0.019   5.663   1.459  0.1157 -0.0777  0.2177
 1852TIP3    H1 5562   0.082   5.728   1.428 -1.4493  2.7580  2.4761
 1852TIP3    H2 5563  -0.041   5.651   1.386  0.0140  1.6853 -0.0293
 1853TIP3   OH2 5564   1.533   5.306   0.644 -0.1259  0.3924 -0.7772
 1853TIP3    H1 5565   1.504   5.293   0.735  1.3972 -1.3680 -0.4701
 1853TIP3    H2 5566   1.480   5.379   0.612 -1.7669  0.0857  1.0417
 1854TIP3   OH2 5567   5.334   3.052   1.500 -0.4547  0.0772 -0.0575
 1854TIP3    H1 5568   5.338   2.965   1.540  0.8917 -0.1608 -0.6421
 1854TIP3    H2 5569   5.415   3.095   1.529  0.5491 -0.0887 -2.4186
 1855TIP3   OH2 5570   5.183   1.315   2.395  0.2901 -0.7275  0.7550
 1855TIP3    H1 5571   5.202   1.395   2.346 -0.0265 -2.2909 -2.0619
 1855TIP3    H2 5572   5.264   1.266   2.394  0.1632 -0.9732  1.5106
 1856TIP3   OH2 5573   1.857   3.179   1.909 -0.8098  0.3628 -0.0052
 1856TIP3    H1 5574   1.764   3.167   1.890 -0.2576 -1.5404 -1.9393
 1856TIP3    H2 5575   1.884   3.250   1.852 -0.8155  0.0186 -0.4411
 1857TIP3   OH2 5576   3.150   5.264   0.857  0.2184 -0.2867  0.0873
 1857TIP3    H1 5577   3.243   5.243   0.864 -0.3403 -3.5917 -0.9471
 1857TIP3    H2 5578   3.147   5.337   0.794  2.1172  0.6468  0.9856
 1858TIP3   OH2 5579   5.301   3.972   0.807  0.2060 -0.3445  0.2567
 1858TIP3    H1 5580   5.336   3.978   0.718 -0.0174 -0.1191  0.1820
 1858TIP3    H2 5581   5.238   3.900   0.803  1.3899 -1.4403  0.6439
 1859TIP3   OH2 5582   5.397   5.498   4.553  0.3284 -0.1943 -0.4880
 1859TIP3    H1 5583   5.409   5.418   4.604  0.2984  0.3347  0.3688
 1859TIP3    H2 5584   5.364   5.562   4.616 -0.5893  0.2274 -1.3752
 1860TIP3   OH2 5585   0.247   0.739   3.461  0.8893  0.3670  0.3787
 1860TIP3    H1 5586   0.206   0.694   3.535 -0.2740  1.0652  0.1750
 1860TIP3    H2 5587   0.308   0.801   3.501  0.0054  0.9923  0.7796
 1861TIP3   OH2 5588   3.655   1.479   4.786 -0.2041  0.2606 -0.1031
 1861TIP3    H1 5589   3.726   1.433   4.740  1.0045  2.7879 -0.9619
 1861TIP3    H2 5590   3.576   1.455   4.738  0.5021 -0.2407 -1.0553
 1862TIP3   OH2 5591   3.956   3.630   3.333  0.2188  0.0109  0.0260
 1862TIP3    H1 5592   4.037   3.674   3.360  0.7778 -0.9559 -0.0179
 1862TIP3    H2 5593   3.950   3.554   3.390 -0.5039 -0.1047 -0.1895
 1863TIP3   OH2 5594   2.052   5.748   1.048  0.3567 -0.4946  0.2616
 1863TIP3    H1 5595   2.066   5.828   1.099  1.0419 -0.6870  0.3902
 1863TIP3    H2 5596   2.139   5.726   1.014  0.0571 -0.8380 -0.2930
 1864TIP3   OH2 5597   0.585   5.815   4.416 -0.0176 -0.1230 -0.3819
 1864TIP3    H1 5598   0.561   5.869   4.341 -0.3710 -2.3244 -1.9482
 1864TIP3    H2 5599   0.681   5.809   4.412  0.0144  0.2896 -0.2563
 1865TIP3   OH2 5600   1.291   0.968   1.155  0.5288 -0.1798 -0.3055
 1865TIP3    H1 5601   1.271   0.897   1.216  2.9291 -0.0604  0.7516
 1865TIP3    H2 5602   1.299   1.046   1.211  1.7047  0.1460 -0.8897
 1866TIP3   OH2 5603   2.322   4.173   3.716  0.0130  0.1238 -0.1689
 1866TIP3    H1 5604   2.311   4.228   3.794  0.4058  1.6023 -1.1151
 1866TIP3    H2 5605   2.382   4.104   3.744  0.9018  1.1594  0.6159
 1867TIP3   OH2 5606   2.176   3.549   1.757 -0.1559 -0.4608  0.0684
 1867TIP3    H1 5607   2.151   3.642   1.757 -0.2568 -0.4763 -0.8523
 1867TIP3    H2 5608   2.262   3.548   1.713 -0.0223 -0.7740  0.3317
 1868TIP3   OH2 5609   3.510   2.634   3.131  0.5300 -0.0537  0.4037
 1868TIP3    H1 5610   3.567   2.687   3.076  0.1406 -0.7936 -0.7490
 1868TIP3    H2 5611   3.424   2.641   3.089  0.1833 -0.4573  1.0393
 1869TIP3   OH2 5612   3.408   5.430   0.659  0.1522 -0.8365  0.1871
 1869TIP3    H1 5613   3.345   5.424   0.587 -0.5735 -0.6884  0.7914
 1869TIP3    H2 5614   3.466   5.502   0.634  0.9798 -1.8935 -1.0516
 1870TIP3   OH2 5615   1.342   5.030   4.377  0.5551  0.2712  0.1042
 1870TIP3    H1 5616   1.366   5.121   4.393  1.0326 -0.0325  1.1892
 1870TIP3    H2 5617   1.313   5.029   4.286 -0.3923  1.7037  0.3395
 1871TIP3   OH2 5618   1.914   1.145   2.574  0.2719 -0.0902  0.0081
 1871TIP3    H1 5619   2.005   1.171   2.558 -0.2724  0.7080 -2.3199
 1871TIP3    H2 5620   1.876   1.219   2.622  1.1086 -0.9854  2.1544
 1872TIP3   OH2 5621   0.592   1.919   0.909 -0.1940  0.0479 -0.0895
 1872TIP3    H1 5622   0.623   1.906   0.998  0.5713  0.1583 -0.3295
 1872TIP3    H2 5623   0.504   1.880   0.908  0.3093 -1.1521  0.3544
 1873TIP3   OH2 5624   0.579   1.853   3.405  0.2807 -0.1766  0.1075
 1873TIP3    H1 5625   0.564   1.936   3.361  0.6570 -0.1945 -0.0548
 1873TIP3    H2 5626   0.651   1.813   3.357 -0.8831 -1.2869 -0.7836
 1874TIP3   OH2 5627   5.309   4.074   3.041 -0.4579  0.3844 -0.7512
 1874TIP3    H1 5628   5.400   4.082   3.069 -1.1528 -1.2236  2.4389
 1874TIP3    H2 5629   5.279   4.165   3.033  1.3160  0.9438 -1.6123
 1875TIP3   OH2 5630   3.118   1.626   1.645  0.0746  0.2877  0.0076
 1875TIP3    H1 5631   3.044   1.613   1.704  2.1776 -1.1947  2.5348
 1875TIP3    H2 5632   3.090   1.585   1.563 -2.0476  0.1684  0.7337
 1876TIP3   OH2 5633   3.032   3.102   4.282  0.5801  0.6064  0.1006
 1876TIP3    H1 5634   2.943   3.073   4.261  0.5279  0.9997 -0.2313
 1876TIP3    H2 5635   3.060   3.045   4.354  0.6608 -0.6251 -0.8659
 1877TIP3   OH2 5636   2.647   1.209   0.497  0.4225 -0.1281 -0.0930
 1877TIP3    H1 5637   2.614   1.298   0.485  0.7492 -0.0141 -0.1737
 1877TIP3    H2 5638   2.742   1.219   0.495  0.5068 -0.2350  1.5248
 1878TIP3   OH2 5639   1.309   4.204   4.561 -0.0705 -0.3936  0.0406
 1878TIP3    H1 5640   1.296   4.289   4.519  1.2286 -0.0267  0.3590
 1878TIP3    H2 5641   1.403   4.188   4.556 -0.1141 -1.1439  1.2900
 1879TIP3   OH2 5642   5.234   1.406   0.651  0.0893  0.4658 -0.0895
 1879TIP3    H1 5643   5.246   1.312   0.660 -0.6802  0.1102 -2.2370
 1879TIP3    H2 5644   5.147   1.423   0.687 -0.3381  0.1132 -0.9337
 1880TIP3   OH2 5645   3.627   2.822   2.410 -0.7519  0.1306  0.3380
 1880TIP3    H1 5646   3.606   2.730   2.422  2.0305 -0.7759 -0.8951
 1880TIP3    H2 5647   3.580   2.847   2.330 -0.8536 -0.4594  0.2128
 1881TIP3   OH2 5648   2.526   1.266   0.753  0.2746  0.0868  0.5434
 1881TIP3    H1 5649   2.499   1.229   0.669 -0.7794  0.4828  0.6858
 1881TIP3    H2 5650   2.458   1.239   0.815  1.0627 -0.2372  1.2901
 1882TIP3   OH2 5651   1.167   3.642   1.077  0.2077 -0.5334  1.0692
 1882TIP3    H1 5652   1.083   3.638   1.031  1.1555 -1.9141 -0.6734
 1882TIP3    H2 5653   1.143   3.646   1.170 -1.7750 -0.3222  0.6027
 1883TIP3   OH2 5654   4.690   0.145   3.658  0.0326  0.0798  0.2854
 1883TIP3    H1 5655   4.626   0.215   3.651 -1.0246 -0.9366 -0.7990
 1883TIP3    H2 5656   4.774   0.187   3.642 -0.6679  0.9511 -1.3265
 1884TIP3   OH2 5657   2.088   5.910   0.662 -0.3275  0.1057  0.2475
 1884TIP3    H1 5658   2.172   5.895   0.619  0.2442 -0.0486  1.3608
 1884TIP3    H2 5659   2.024   5.863   0.609  0.3259  0.0179 -0.4766
 1885TIP3   OH2 5660   4.030   3.976   1.767 -0.1561  0.1381  0.6378
 1885TIP3    H1 5661   3.978   4.055   1.778  0.3047  0.5233  0.1178
 1885TIP3    H2 5662   4.015   3.950   1.676  1.3881  0.8862  0.1193
 1886TIP3   OH2 5663   2.172   2.161   2.174  1.1446  0.1971  0.0270
 1886TIP3    H1 5664   2.157   2.144   2.267 -0.8167  1.8002  0.0925
 1886TIP3    H2 5665   2.265   2.182   2.168  1.7600 -1.9366  1.2389
 1887TIP3   OH2 5666   2.602   3.359   4.326 -0.1872 -0.4867  0.3636
 1887TIP3    H1 5667   2.590   3.362   4.231  0.6442 -1.6393  0.1886
 1887TIP3    H2 5668   2.519   3.387   4.362 -0.5571 -0.1502 -0.7119
 1888TIP3   OH2 5669   5.606   1.403   3.364 -0.2309 -0.0733 -0.0269
 1888TIP3    H1 5670   5.631   1.485   3.407  1.4798 -1.8864  2.7749
 1888TIP3    H2 5671   5.685   1.375   3.319 -0.9679  0.0175 -1.4280
 1889TIP3   OH2 5672   2.747   2.592   3.118 -0.3097  0.1165 -0.5744
 1889TIP3    H1 5673   2.717   2.678   3.089 -3.0920 -0.9853 -1.2788
 1889TIP3    H2 5674   2.670   2.551   3.157  1.3554 -1.4551  1.3460
 1890TIP3   OH2 5675   5.726   2.138   1.514  0.2460 -0.9875 -0.1029
 1890TIP3    H1 5676   5.810   2.141   1.559 -0.3548 -0.0633  1.0016
 1890TIP3    H2 5677   5.733   2.203   1.444 -0.2145  0.5948  1.2564
 1891TIP3   OH2 5678   3.824   1.757   3.836 -0.0893  0.3153 -0.1252
 1891TIP3    H1 5679   3.892   1.802   3.787 -1.7461  0.6512 -2.2758
 1891TIP3    H2 5680   3.742   1.781   3.792 -1.4515 -1.4268  1.2708
 1892TIP3   OH2 5681   0.588   5.808   4.972  0.5740  0.5596  0.3505
 1892TIP3    H1 5682   0.538   5.881   5.009 -1.0028  0.6945 -1.8423
 1892TIP3    H2 5683   0.536   5.731   4.992 -0.1273  0.5983 -1.1775
 1893TIP3   OH2 5684   0.677   4.085   2.446 -0.1821  0.4283 -0.6901
 1893TIP3    H1 5685   0.709   4.013   2.500 -0.2116  1.3839  0.6756
 1893TIP3    H2 5686   0.603   4.048   2.398 -3.0950  0.4765  3.1986
 1894TIP3   OH2 5687   6.220   0.165   2.318  0.0146  0.9991  0.2481
 1894TIP3    H1 5688   6.310   0.161   2.284 -0.5486  1.1747 -1.3486
 1894TIP3    H2 5689   6.210   0.256   2.349  0.5014  0.8677  0.8113
 1895TIP3   OH2 5690   0.104   2.092   0.067  0.3692  0.1057  0.2773
 1895TIP3    H1 5691   0.021   2.046   0.079  1.3114 -1.9634 -0.4887
 1895TIP3    H2 5692   0.151   2.080   0.149  0.3781  0.2301  0.2905
 1896TIP3   OH2 5693   3.850   5.749   0.195 -0.4773 -0.4725  0.5361
 1896TIP3    H1 5694   3.901   5.687   0.247 -0.1422 -1.0578 -0.4650
 1896TIP3    H2 5695   3.862   5.720   0.104 -0.7327  0.7559  0.0940
 1897TIP3   OH2 5696   4.725   4.109   2.049  0.0860  0.0555 -0.3672
 1897TIP3    H1 5697   4.693   4.109   1.959 -0.5562  0.8109 -0.1409
 1897TIP3    H2 5698   4.674   4.176   2.094  2.5890  1.9989 -0.2014
 1898TIP3   OH2 5699   0.351   4.510   4.275  0.6655  0.1994 -0.4618
 1898TIP3    H1 5700   0.288   4.548   4.336 -0.1824  1.3712 -1.9768
 1898TIP3    H2 5701   0.380   4.430   4.317 -1.0221  0.1802  0.7837
 1899TIP3   OH2 5702   3.878   2.777   4.250  0.1577 -0.3230  0.3432
 1899TIP3    H1 5703   3.832   2.730   4.319  0.8438 -0.1904  0.8987
 1899TIP3    H2 5704   3.959   2.727   4.236  0.6934  0.4411  0.6449
 1900TIP3   OH2 5705   2.330   2.519   3.742  0.1061  0.1440  0.0377
 1900TIP3    H1 5706   2.257   2.565   3.783  0.7922  0.4759  0.9413
 1900TIP3    H2 5707   2.290   2.448   3.693 -1.0461  2.0741 -1.9733
 1901TIP3   OH2 5708   0.828   2.788   3.778 -0.4040 -0.1386 -0.1882
 1901TIP3    H1 5709   0.763   2.727   3.743  0.2081  0.0290 -1.7075
 1901TIP3    H2 5710   0.911   2.743   3.766  0.0063  0.7631 -0.8522
 1902TIP3   OH2 5711   4.983   1.970   4.384 -0.2958 -0.1097  0.3499
 1902TIP3    H1 5712   4.998   1.903   4.451  0.4716  0.6825  0.9870
 1902TIP3    H2 5713   5.021   2.050   4.420  1.1658  0.1088 -1.4808
 1903TIP3   OH2 5714   3.799   0.826   0.759  0.0692 -0.0126 -0.2822
 1903TIP3    H1 5715   3.879   0.807   0.808  0.3174  0.4327 -0.4972
 1903TIP3    H2 5716   3.760   0.900   0.805 -0.8080 -0.9256  0.4693
 1904TIP3   OH2 5717   3.016   2.543   1.614  0.5026  0.2104  0.6285
 1904TIP3    H1 5718   2.969   2.625   1.630 -0.0989 -0.2323  1.1913
 1904TIP3    H2 5719   3.080   2.565   1.547 -1.5501  0.4712 -1.3626
 1905TIP3   OH2 5720   0.153   0.268   0.759  0.4646  0.0806 -0.1624
 1905TIP3    H1 5721   0.192   0.238   0.677 -0.5742  0.6236 -0.8810
 1905TIP3    H2 5722   0.066   0.300   0.734 -0.7748 -1.7474  1.4876
 1906TIP3   OH2 5723   1.807   0.804   0.278  0.3424 -0.5535  0.3180
 1906TIP3    H1 5724   1.713   0.823   0.274  0.4443 -0.3014 -1.2351
 1906TIP3    H2 5725   1.812   0.710   0.294 -0.1724 -0.5887  0.2899
 1907TIP3   OH2 5726   5.933   3.299   1.861  0.5467  0.1789 -0.2084
 1907TIP3    H1 5727   5.938   3.394   1.851  1.6005  0.1801  0.1570
 1907TIP3    H2 5728   5.887   3.268   1.783  1.0678  0.9082 -0.8147
 1908TIP3   OH2 5729   3.906   4.427   2.763  0.4424 -0.4112  0.0313
 1908TIP3    H1 5730   3.967   4.357   2.784 -1.9713 -2.8598 -0.5007
 1908TIP3    H2 5731   3.898   4.479   2.843  1.2975 -1.5605  0.8787
 1909TIP3   OH2 5732   5.838   2.464   0.486 -0.1668 -0.5755 -0.5394
 1909TIP3    H1 5733   5.830   2.369   0.488 -1.1059 -0.5376 -1.6488
 1909TIP3    H2 5734   5.747   2.495   0.486  0.1305  0.3364 -0.0168
 1910TIP3   OH2 5735   6.356   5.580   4.471 -0.4937  0.7343  0.5641
 1910TIP3    H1 5736   6.266   5.605   4.448 -0.2297  1.5047  0.3386
 1910TIP3    H2 5737   6.370   5.497   4.425 -1.7351 -0.4241  2.1448
 1911TIP3   OH2 5738   0.273   2.495   5.045  0.6054 -0.3483 -0.3137
 1911TIP3    H1 5739   0.218   2.487   4.967 -0.3386 -0.7659  0.3831
 1911TIP3    H2 5740   0.235   2.569   5.093  0.8121 -0.4786  0.0506
 1912TIP3   OH2 5741   4.026   5.189   4.666 -0.0484 -0.1548  0.7664
 1912TIP3    H1 5742   3.980   5.242   4.732  0.2126 -0.5255  1.2503
 1912TIP3    H2 5743   3.955   5.149   4.615 -0.2757 -0.9116  1.6593
 1913TIP3   OH2 5744   5.970   3.237   0.133  0.2251  0.5002 -0.6824
 1913TIP3    H1 5745   5.980   3.141   0.131 -0.3854  0.4042  0.1878
 1913TIP3    H2 5746   5.882   3.251   0.097 -1.0300  0.4628  2.1132
 1914TIP3   OH2 5747   1.878   2.917   4.341 -0.2634 -0.4798 -0.8339
 1914TIP3    H1 5748   1.859   2.828   4.310  0.2744 -1.1897  0.7600
 1914TIP3    H2 5749   1.918   2.960   4.265 -0.2210 -1.6917 -1.5425
 1915TIP3   OH2 5750   1.319   4.403   0.192  0.1013  0.0852 -0.0199
 1915TIP3    H1 5751   1.268   4.362   0.122  0.9337  0.4209 -0.8392
 1915TIP3    H2 5752   1.281   4.491   0.200 -0.5966 -0.2626  0.5981
 1916TIP3   OH2 5753   4.761   1.972   0.433  0.1914 -0.5366  0.0524
 1916TIP3    H1 5754   4.719   1.894   0.396 -0.9089  0.3829 -0.7036
 1916TIP3    H2 5755   4.688   2.029   0.457  0.9590 -0.1058  1.4556
 1917TIP3   OH2 5756   3.534   2.572   2.492 -0.2127 -0.3789 -0.1597
 1917TIP3    H1 5757   3.494   2.547   2.575  1.8034  0.4029  1.1360
 1917TIP3    H2 5758   3.500   2.509   2.428 -2.1178 -0.7561  1.1500
 1918TIP3   OH2 5759   5.532   5.948   1.385  0.3191  0.0219 -0.2040
 1918TIP3    H1 5760   5.559   5.879   1.445  0.9669 -0.8695 -1.4512
 1918TIP3    H2 5761   5.483   6.010   1.438 -1.6610 -2.1677  0.6845
 1919TIP3   OH2 5762   5.070   1.575   1.475 -0.4473 -0.5217  0.1438
 1919TIP3    H1 5763   4.990   1.552   1.427 -0.0836 -1.6625  0.0468
 1919TIP3    H2 5764   5.057   1.666   1.501 -2.1910 -0.9551  0.9538
 1920TIP3   OH2 5765   2.775   5.032   4.075 -0.3100  0.1158 -0.9718
 1920TIP3    H1 5766   2.818   4.977   4.009 -1.0158 -0.4870 -0.9422
 1920TIP3    H2 5767   2.843   5.050   4.140  0.0995 -0.1862 -1.3129
 1921TIP3   OH2 5768   5.592   3.216   1.331  0.5143 -0.0939 -0.2588
 1921TIP3    H1 5769   5.534   3.190   1.259 -1.0164 -0.8497  1.1642
 1921TIP3    H2 5770   5.656   3.145   1.337 -0.5234 -1.0218  0.3066
 1922TIP3   OH2 5771   4.984   4.521   2.997 -0.7023 -0.0892  0.1483
 1922TIP3    H1 5772   5.060   4.579   3.000 -0.6715 -0.1558  0.9732
 1922TIP3    H2 5773   4.917   4.566   3.049 -0.7832 -0.6388  0.5277
 1923TIP3   OH2 5774   5.399   4.545   4.536  0.1567  0.8830  0.0420
 1923TIP3    H1 5775   5.352   4.538   4.453  0.0717  0.9385  0.0852
 1923TIP3    H2 5776   5.369   4.627   4.575 -0.9209  0.1576  0.8021
 1924TIP3   OH2 5777   1.454   0.332   3.992 -0.0651  0.1664 -0.5698
 1924TIP3    H1 5778   1.424   0.422   4.000  0.5584  0.3585 -0.3526
 1924TIP3    H2 5779   1.549   0.338   3.992  0.0181 -0.6073  1.0926
 1925TIP3   OH2 5780   2.573   4.243   4.725 -0.1794 -0.1958  0.0491
 1925TIP3    H1 5781   2.627   4.269   4.799 -0.5486  2.9252 -0.6220
 1925TIP3    H2 5782   2.486   4.228   4.762  0.2455 -1.4133  0.5886
 1926TIP3   OH2 5783   2.686   4.923   2.776 -0.3655  0.4139  0.1032
 1926TIP3    H1 5784   2.738   4.843   2.777  0.3534  0.8646 -0.3719
 1926TIP3    H2 5785   2.637   4.921   2.858  0.4689  0.0162  0.6041
 1927TIP3   OH2 5786   0.560   4.437   0.377 -0.1361 -0.1053  0.3864
 1927TIP3    H1 5787   0.515   4.488   0.309 -0.2316 -0.8346 -0.1016
 1927TIP3    H2 5788   0.504   4.361   0.391 -0.2541  0.1634  1.4780
 1928TIP3   OH2 5789   5.668   3.379   0.240  0.3157 -0.0794 -0.4549
 1928TIP3    H1 5790   5.607   3.364   0.168  0.9589  1.1796 -1.3043
 1928TIP3    H2 5791   5.668   3.474   0.252  1.0853 -0.1745  0.4468
 1929TIP3   OH2 5792   5.645   5.872   3.180 -0.1534 -0.1644  0.0757
 1929TIP3    H1 5793   5.566   5.925   3.181 -0.7637 -1.0570  1.0923
 1929TIP3    H2 5794   5.678   5.879   3.090 -0.7601  1.1107 -0.0608
 1930TIP3   OH2 5795   1.955   4.729   0.500  0.7084 -0.7384  0.2211
 1930TIP3    H1 5796   1.988   4.718   0.589  0.7260  0.6393  0.4147
 1930TIP3    H2 5797   1.939   4.640   0.468  0.6744 -1.2420  1.6068
 1931TIP3   OH2 5798   2.680   1.811   1.867  0.3847  0.5046  0.1473
 1931TIP3    H1 5799   2.591   1.838   1.887  1.1996  2.4808  1.4466
 1931TIP3    H2 5800   2.730   1.893   1.867  1.9890 -0.3919 -1.8460
 1932TIP3   OH2 5801   0.266   0.662   1.217  0.3398 -0.5254  0.1180
 1932TIP3    H1 5802   0.212   0.678   1.140  0.1315 -0.8265  0.1972
 1932TIP3    H2 5803   0.239   0.575   1.247 -1.3952  0.5360  1.9828
 1933TIP3   OH2 5804   0.325   1.532   3.327  0.1170 -0.1249 -0.3263
 1933TIP3    H1 5805   0.328   1.448   3.281  1.0133  1.4314 -3.3485
 1933TIP3    H2 5806   0.417   1.550   3.349 -0.2101 -0.4629  1.4859
 1934TIP3   OH2 5807   5.738   3.025   0.664 -0.0592 -0.2425  0.1987
 1934TIP3    H1 5808   5.812   3.067   0.619 -0.3099  1.0979  0.9887
 1934TIP3    H2 5809   5.670   3.019   0.598  0.4290 -0.6170 -0.2784
 1935TIP3   OH2 5810   3.696   5.362   1.219 -0.3544 -0.0712  0.0455
 1935TIP3    H1 5811   3.735   5.279   1.192 -0.4547  0.2486 -1.1458
 1935TIP3    H2 5812   3.737   5.427   1.162 -1.1319  0.5442  0.1730
 1936TIP3   OH2 5813   1.995   0.441   3.642 -0.0864  0.1091 -0.6230
 1936TIP3    H1 5814   1.954   0.502   3.704 -0.6660 -0.5991 -0.2979
 1936TIP3    H2 5815   2.062   0.395   3.693 -0.9032 -0.8317 -0.3691
 1937TIP3   OH2 5816   2.800   2.010   4.807 -0.3192 -0.7485  0.6823
 1937TIP3    H1 5817   2.788   1.916   4.791 -1.5093 -0.3215 -1.2902
 1937TIP3    H2 5818   2.721   2.051   4.772  1.1202  1.1733 -0.5242
 1938TIP3   OH2 5819   5.463   4.522   0.756  0.1009 -0.0200 -0.0536
 1938TIP3    H1 5820   5.502   4.551   0.839  0.6829  1.4329 -0.7879
 1938TIP3    H2 5821   5.526   4.460   0.720  1.2966  1.4864 -0.7068
 1939TIP3   OH2 5822   0.295   5.427   0.553 -0.9675  0.1898 -0.4219
 1939TIP3    H1 5823   0.391   5.431   0.558 -0.9566  3.0933 -0.9487
 1939TIP3    H2 5824   0.275   5.334   0.544  1.6961 -0.6540  1.2389
 1940TIP3   OH2 5825   5.385   0.259   3.125  0.9062  0.4068 -0.0525
 1940TIP3    H1 5826   5.477   0.285   3.131  1.2036 -0.6917  0.4229
 1940TIP3    H2 5827   5.350   0.274   3.213  1.2509 -1.2999  0.4233
 1941TIP3   OH2 5828   6.259   1.023   3.121  0.2982 -0.4782 -0.0466
 1941TIP3    H1 5829   6.248   1.114   3.091  1.3692  0.0543  1.1176
 1941TIP3    H2 5830   6.316   1.029   3.197  0.4699 -2.1570 -0.0087
 1942TIP3   OH2 5831   4.985   4.859   3.783 -0.1829  0.1682 -0.6341
 1942TIP3    H1 5832   5.037   4.940   3.785 -0.6766  0.4827 -0.2776
 1942TIP3    H2 5833   4.894   4.889   3.787 -0.3499 -0.4390  0.5424
 1943TIP3   OH2 5834   6.248   4.987   4.868 -0.2000  0.3642 -0.8517
 1943TIP3    H1 5835   6.169   5.032   4.898 -0.3560 -0.1595 -0.4633
 1943TIP3    H2 5836   6.316   5.013   4.929  0.0706  1.2635 -1.5167
 1944TIP3   OH2 5837   4.281   0.623   3.305  0.0432 -0.3316  0.0270
 1944TIP3    H1 5838   4.328   0.705   3.323  1.2466 -1.3271  1.7804
 1944TIP3    H2 5839   4.189   0.648   3.299  0.6104  1.5619 -2.6206
 1945TIP3   OH2 5840   0.086   2.425   3.020 -0.0681  0.3279  0.3663
 1945TIP3    H1 5841   0.116   2.430   2.929  1.5105 -1.8350  0.7015
 1945TIP3    H2 5842  -0.004   2.458   3.017 -1.2152 -2.5551 -2.5816
 1946TIP3   OH2 5843   3.661   0.787   2.391  0.0584  0.0963 -0.1599
 1946TIP3    H1 5844   3.730   0.755   2.449  1.2382 -0.5369 -1.8467
 1946TIP3    H2 5845   3.579   0.760   2.434  0.8657 -0.2370  1.2416
 1947TIP3   OH2 5846   5.559   0.966   2.493 -0.2873 -0.6388  0.0370
 1947TIP3    H1 5847   5.588   1.053   2.463  0.5375 -0.9559 -0.1323
 1947TIP3    H2 5848   5.604   0.905   2.434  0.1538 -1.2244  0.9630
 1948TIP3   OH2 5849   0.055   0.025   0.415 -0.0912 -0.1424  0.2858
 1948TIP3    H1 5850   0.105   0.006   0.494  0.8465 -1.7927 -0.6422
 1948TIP3    H2 5851  -0.029  -0.018   0.430 -0.5265  0.9165  1.0132
 1949TIP3   OH2 5852   1.800   1.760   3.937 -0.6457 -0.5871 -0.1238
 1949TIP3    H1 5853   1.781   1.803   4.021 -1.4731  1.5717 -1.3308
 1949TIP3    H2 5854   1.882   1.713   3.952  0.0221  0.9562  1.5030
 1950TIP3   OH2 5855   1.045   2.668   5.101 -0.2795 -0.0075 -0.2407
 1950TIP3    H1 5856   1.033   2.762   5.114 -0.6695  0.0511 -0.9751
 1950TIP3    H2 5857   1.096   2.661   5.020  0.5434 -0.4057  0.3007
 1951TIP3   OH2 5858   5.613   5.600   3.856 -0.1280  0.9447  0.2407
 1951TIP3    H1 5859   5.531   5.647   3.843  0.3927  2.3201  1.5925
 1951TIP3    H2 5860   5.592   5.534   3.922 -0.2898  0.8808  0.1267
 1952TIP3   OH2 5861   5.973   1.657   2.736 -0.2637 -0.1075 -0.2683
 1952TIP3    H1 5862   5.926   1.694   2.811  0.2329 -0.7702  0.3859
 1952TIP3    H2 5863   6.063   1.646   2.768 -0.1762 -0.9276 -0.7736
 1953TIP3   OH2 5864   4.245   5.526   4.819 -0.2699 -0.6696 -0.2830
 1953TIP3    H1 5865   4.213   5.546   4.908 -0.5403 -1.8343 -0.1019
 1953TIP3    H2 5866   4.180   5.565   4.761  1.1591  2.3153 -0.0993
 1954TIP3   OH2 5867   4.526   0.330   2.395 -0.0880 -0.2177  0.8890
 1954TIP3    H1 5868   4.541   0.239   2.422 -0.3708  0.1847  2.5089
 1954TIP3    H2 5869   4.555   0.383   2.470 -1.0630  0.9625  0.4733
 1955TIP3   OH2 5870   3.350   5.347   2.878 -0.2638  0.2194  0.6493
 1955TIP3    H1 5871   3.318   5.291   2.949  0.0524 -0.3215  0.3747
 1955TIP3    H2 5872   3.433   5.382   2.910  0.1196 -0.4104  0.3657
 1956TIP3   OH2 5873   2.333   1.471   3.954  0.2215 -0.3738  0.0162
 1956TIP3    H1 5874   2.421   1.451   3.924  0.1867 -1.6844  0.7002
 1956TIP3    H2 5875   2.291   1.386   3.964 -1.0016  0.2077  0.0779
 1957TIP3   OH2 5876   3.214   2.267   4.523 -0.1931 -0.2713 -0.0062
 1957TIP3    H1 5877   3.142   2.205   4.510  0.6298 -1.2939  0.1889
 1957TIP3    H2 5878   3.258   2.236   4.602 -0.2451  1.0539  0.5661
 1958TIP3   OH2 5879   4.037   4.301   3.667  0.3217  0.0210 -0.6442
 1958TIP3    H1 5880   3.980   4.310   3.743 -0.1114  0.8825 -1.0557
 1958TIP3    H2 5881   4.125   4.310   3.701  0.0746  2.1577 -0.4552
 1959TIP3   OH2 5882   4.058   4.288   0.213  0.2796  0.2893  0.2884
 1959TIP3    H1 5883   4.117   4.285   0.288  1.2488  3.5399 -0.1714
 1959TIP3    H2 5884   3.973   4.264   0.248  1.3671 -2.1836  1.4909
 1960TIP3   OH2 5885   0.804   4.722   4.168 -0.1465  0.0524  0.1434
 1960TIP3    H1 5886   0.818   4.803   4.217 -0.0370 -0.5852  1.1779
 1960TIP3    H2 5887   0.830   4.743   4.078  1.7610  0.5951  0.7961
 1961TIP3   OH2 5888   2.120   1.315   1.680  0.3980  0.7023  0.5954
 1961TIP3    H1 5889   2.198   1.361   1.710  1.4582 -0.5898 -0.0585
 1961TIP3    H2 5890   2.102   1.350   1.593  0.4648  0.7546  0.6036
 1962TIP3   OH2 5891   2.351   5.958   0.498 -0.0032  0.6580  0.4550
 1962TIP3    H1 5892   2.419   5.980   0.434  1.3556 -0.6175  1.4184
 1962TIP3    H2 5893   2.394   5.964   0.583 -0.3294 -2.5601  0.9714
 1963TIP3   OH2 5894   4.807   5.624   3.031 -0.2292  0.6105  0.4948
 1963TIP3    H1 5895   4.878   5.687   3.016 -0.4327  0.5217 -0.8740
 1963TIP3    H2 5896   4.748   5.669   3.092  0.1420  1.3429  0.3283
 1964TIP3   OH2 5897   2.381   4.044   2.623  0.1654  0.2844 -0.6221
 1964TIP3    H1 5898   2.360   4.045   2.530  1.0622 -0.6518 -0.8618
 1964TIP3    H2 5899   2.467   4.001   2.627  0.0208  0.0774  0.6546
 1965TIP3   OH2 5900   2.580   0.226   1.170  0.0233  0.2504 -0.4452
 1965TIP3    H1 5901   2.519   0.253   1.101 -1.2173  0.2955  0.6111
 1965TIP3    H2 5902   2.580   0.130   1.166  2.3435  0.2551 -2.4507
 1966TIP3   OH2 5903   2.502   5.026   2.102  0.3465 -0.5892 -0.1209
 1966TIP3    H1 5904   2.497   5.116   2.070 -1.0754 -0.3268  0.7406
 1966TIP3    H2 5905   2.572   5.028   2.167 -0.8231  0.3654  1.1855
 1967TIP3   OH2 5906   0.618   2.411   3.922 -0.9543  0.1632 -0.1264
 1967TIP3    H1 5907   0.626   2.371   4.009  0.1207  0.8045  0.0887
 1967TIP3    H2 5908   0.535   2.458   3.926 -1.0435 -0.0271  0.4669
 1968TIP3   OH2 5909   1.107   1.496   2.068 -0.0396  0.0265 -0.0024
 1968TIP3    H1 5910   1.040   1.486   2.000  0.2912 -0.8187 -0.2194
 1968TIP3    H2 5911   1.079   1.572   2.119  0.9593  2.2869 -2.5370
 1969TIP3   OH2 5912   5.614   3.422   4.491 -0.2428 -0.4234  0.2447
 1969TIP3    H1 5913   5.633   3.426   4.398 -0.9144 -1.8700  0.0081
 1969TIP3    H2 5914   5.578   3.508   4.512  0.3075  0.0626 -0.7226
 1970TIP3   OH2 5915   6.139   1.400   1.784  0.3899  0.2689  0.2672
 1970TIP3    H1 5916   6.188   1.326   1.749  1.4856  0.2297  1.8200
 1970TIP3    H2 5917   6.204   1.454   1.828 -0.5102  1.7864 -0.1754
 1971TIP3   OH2 5918   3.019   4.534   0.599 -0.5126  0.8900  0.3549
 1971TIP3    H1 5919   2.934   4.542   0.555  0.7878  2.2484 -2.1263
 1971TIP3    H2 5920   3.031   4.439   0.609 -0.7836  0.4049 -2.7137
 1972TIP3   OH2 5921   1.546   3.377   4.112 -0.0191 -0.1252 -0.0546
 1972TIP3    H1 5922   1.605   3.375   4.188 -0.2461  2.0586  0.2654
 1972TIP3    H2 5923   1.605   3.376   4.036  0.3189 -0.2786  0.2062
 1973TIP3   OH2 5924   1.712   2.875   0.565  0.1624 -0.2266 -0.1757
 1973TIP3    H1 5925   1.706   2.906   0.475 -0.1455  0.7651  0.1668
 1973TIP3    H2 5926   1.653   2.800   0.569 -0.9361  0.5908 -0.4613
 1974TIP3   OH2 5927   5.693   2.818   2.498 -0.1648  0.2121  0.6077
 1974TIP3    H1 5928   5.730   2.762   2.567  0.0311  0.9484  1.1116
 1974TIP3    H2 5929   5.637   2.759   2.448  1.4470 -0.8846 -0.0113
 1975TIP3   OH2 5930   6.056   0.472   2.376 -0.0122 -0.5700 -0.4459
 1975TIP3    H1 5931   6.123   0.477   2.443 -1.1330 -0.3160  0.6899
 1975TIP3    H2 5932   6.021   0.561   2.369 -0.2086 -0.6860 -1.0453
 1976TIP3   OH2 5933   5.693   3.158   3.961 -0.0191  0.2112  0.1940
 1976TIP3    H1 5934   5.610   3.114   3.976  1.0173 -1.7478  0.4343
 1976TIP3    H2 5935   5.753   3.121   4.025  1.1650  1.2942 -0.2354
 1977TIP3   OH2 5936   0.417   0.384   4.831  0.0135  0.2086  0.0330
 1977TIP3    H1 5937   0.369   0.464   4.812  0.4038  0.5486  0.4527
 1977TIP3    H2 5938   0.349   0.321   4.854 -0.4000  0.0390 -1.5215
 1978TIP3   OH2 5939   5.546   3.616   4.865  0.1093 -0.5734 -1.0637
 1978TIP3    H1 5940   5.542   3.704   4.900  1.5683  0.3375 -3.0035
 1978TIP3    H2 5941   5.614   3.572   4.916 -0.8972 -0.7542  0.1695
 1979TIP3   OH2 5942   6.370   5.587   0.222 -0.1724  0.5554  0.1520
 1979TIP3    H1 5943   6.362   5.523   0.292  0.2270 -1.8682 -1.9014
 1979TIP3    H2 5944   6.283   5.592   0.183  0.3310 -0.7220 -1.2572
 1980TIP3   OH2 5945   4.360   1.165   3.693  0.3233 -0.0890  0.1792
 1980TIP3    H1 5946   4.346   1.085   3.642  0.4258  0.0872 -0.1325
 1980TIP3    H2 5947   4.286   1.169   3.753  1.2697 -1.4055  1.5089
 1981TIP3   OH2 5948   2.484   0.906   0.593  0.4895 -0.0607  0.5254
 1981TIP3    H1 5949   2.577   0.890   0.606  0.5059 -2.9034 -1.8891
 1981TIP3    H2 5950   2.480   0.955   0.511 -0.1372 -0.5290  0.2684
 1982TIP3   OH2 5951   0.599   2.646   0.287  0.1378 -0.2811 -0.3705
 1982TIP3    H1 5952   0.668   2.581   0.301 -1.1590 -2.0163 -1.5059
 1982TIP3    H2 5953   0.519   2.603   0.319 -0.6888  0.9728 -0.6832
 1983TIP3   OH2 5954   4.731   3.996   2.311 -0.3580 -0.2539 -0.4217
 1983TIP3    H1 5955   4.708   4.016   2.220 -2.6893  1.4825  0.4480
 1983TIP3    H2 5956   4.652   3.955   2.347  1.0740 -2.4018  0.4629
 1984TIP3   OH2 5957   4.434   5.840   2.341  0.2272 -0.2354  0.3916
 1984TIP3    H1 5958   4.408   5.759   2.385  0.6843 -1.5838 -1.6332
 1984TIP3    H2 5959   4.530   5.839   2.344  0.5752 -2.4982 -3.8370
 1985TIP3   OH2 5960   3.597   3.006   4.957 -0.0143  0.4434  0.6636
 1985TIP3    H1 5961   3.517   3.019   4.907 -0.3382 -1.5430  0.5818
 1985TIP3    H2 5962   3.592   3.070   5.028 -0.9958  1.2637 -0.1241
 1986TIP3   OH2 5963   0.095   2.551   4.379 -0.3949 -0.4392  0.1178
 1986TIP3    H1 5964   0.133   2.529   4.294 -2.4099  0.0969 -0.9822
 1986TIP3    H2 5965   0.015   2.499   4.384 -1.6454  1.4209  0.5182
 1987TIP3   OH2 5966   4.032   2.761   1.922 -0.0469 -0.1648 -0.0624
 1987TIP3    H1 5967   4.067   2.757   1.833 -2.0252  2.0635 -1.0499
 1987TIP3    H2 5968   4.107   2.781   1.977  1.1381 -1.1838 -1.2418
 1988TIP3   OH2 5969   1.045   0.816   2.500  0.5267 -0.0489 -1.2155
 1988TIP3    H1 5970   1.103   0.771   2.562  2.1781  1.7592 -1.3748
 1988TIP3    H2 5971   0.974   0.851   2.555  0.8621 -0.2255 -0.6546
 1989TIP3   OH2 5972   2.731   1.645   3.452  0.2683 -0.4541 -0.2295
 1989TIP3    H1 5973   2.679   1.698   3.392 -1.2660  1.2374  2.3868
 1989TIP3    H2 5974   2.806   1.700   3.474  0.0861 -0.4827  0.4694
 1990TIP3   OH2 5975   6.314   2.144   2.493 -0.5601 -0.2298  0.1879
 1990TIP3    H1 5976   6.265   2.065   2.468 -1.1383  1.0335 -3.2693
 1990TIP3    H2 5977   6.329   2.190   2.410  1.7316  2.2068  1.7868
 1991TIP3   OH2 5978   6.064   1.783   0.330 -0.1504 -0.1946  0.0817
 1991TIP3    H1 5979   6.008   1.849   0.371  0.1729  0.6202 -0.7493
 1991TIP3    H2 5980   6.130   1.763   0.396 -1.1284 -0.8298  0.9023
 1992TIP3   OH2 5981   3.542   2.302   1.663  0.1053  0.1483 -0.5173
 1992TIP3    H1 5982   3.452   2.279   1.687 -0.5186  1.7025 -1.2028
 1992TIP3    H2 5983   3.543   2.398   1.664  2.5294  0.2358  2.1608
 1993TIP3   OH2 5984   0.708   5.466   2.276  0.0349 -0.1412  0.9365
 1993TIP3    H1 5985   0.690   5.372   2.274 -1.6800  0.1618  0.3131
 1993TIP3    H2 5986   0.624   5.507   2.255  0.7392  1.5404  1.2249
 1994TIP3   OH2 5987   5.361   0.952   0.589 -0.3340 -0.3860 -0.1515
 1994TIP3    H1 5988   5.396   0.891   0.654 -0.1190 -0.9254 -0.7617
 1994TIP3    H2 5989   5.287   0.995   0.634  0.1653 -0.3218  0.6373
 1995TIP3   OH2 5990   3.099   2.679   0.757  0.4985  0.1009 -0.2532
 1995TIP3    H1 5991   3.180   2.700   0.711 -0.2863  0.2173 -1.6798
 1995TIP3    H2 5992   3.069   2.598   0.716  0.6704 -0.8170  1.3546
 1996TIP3   OH2 5993   0.728   3.333   5.051  0.0547  0.3349 -0.7551
 1996TIP3    H1 5994   0.668   3.405   5.069  0.1353  0.5043 -1.1762
 1996TIP3    H2 5995   0.808   3.356   5.097 -1.2396 -1.5334  2.9176
 1997TIP3   OH2 5996   4.288   5.753   4.503  0.1646  0.1769 -0.0011
 1997TIP3    H1 5997   4.372   5.708   4.494 -0.4349 -0.9659 -0.0396
 1997TIP3    H2 5998   4.248   5.747   4.417  0.0785  0.8244 -0.0157
 1998TIP3   OH2 5999   2.203   1.457   4.302  0.0237 -0.1858  0.4577
 1998TIP3    H1 6000   2.128   1.426   4.353  0.4101 -0.4961  0.8401
 1998TIP3    H2 6001   2.255   1.508   4.364 -0.5203  1.1421 -0.1200
 1999TIP3   OH2 6002   6.188   4.503   0.928  0.1616 -0.2507  0.3526
 1999TIP3    H1 6003   6.125   4.459   0.985  0.1964 -0.5767  0.1441
 1999TIP3    H2 6004   6.149   4.496   0.841 -0.0787  0.5795  0.3858
 2000TIP3   OH2 6005   3.825   4.915   0.184  0.6168  0.1166 -0.5197
 2000TIP3    H1 6006   3.844   4.855   0.112  2.0664  0.7573 -0.6917
 2000TIP3    H2 6007   3.910   4.949   0.210  0.0525  0.3333  1.1303
 2001TIP3   OH2 6008   0.480   4.050   4.136 -0.5514 -0.0254 -0.6013
 2001TIP3    H1 6009   0.413   4.100   4.183 -1.7907 -1.0970 -1.1566
 2001TIP3    H2 6010   0.439   3.965   4.119  0.6321 -0.4046 -1.7419
 2002TIP3   OH2 6011   6.018   4.405   2.178 -0.2094  0.0768 -0.1095
 2002TIP3    H1 6012   6.085   4.389   2.246  0.5744 -0.1925 -0.9249
 2002TIP3    H2 6013   6.031   4.497   2.154  0.4525 -0.1921 -0.8524
 2003TIP3   OH2 6014   4.066   4.002   0.179  0.2454  0.3882 -0.3505
 2003TIP3    H1 6015   4.066   4.088   0.136 -1.2711 -0.2607 -1.7391
 2003TIP3    H2 6016   3.975   3.990   0.208  0.7836 -0.0993  1.2325
 2004TIP3   OH2 6017   4.941   0.470   0.745  0.1951 -0.5201  0.3756
 2004TIP3    H1 6018   4.937   0.391   0.691  0.1912  0.0195 -0.4261
 2004TIP3    H2 6019   4.948   0.437   0.835 -0.8746 -1.4388  0.1442
 2005TIP3   OH2 6020   5.473   3.412   2.956  0.1031 -0.0145  0.2820
 2005TIP3    H1 6021   5.550   3.355   2.950 -0.1369 -0.4664  1.3434
 2005TIP3    H2 6022   5.509   3.500   2.964  0.4902  0.2972 -3.2418
 2006TIP3   OH2 6023   5.078   0.906   2.029 -0.2380  0.3520  0.1140
 2006TIP3    H1 6024   5.084   0.877   1.938 -0.5822  4.5173 -1.4599
 2006TIP3    H2 6025   4.990   0.880   2.056  0.2137 -1.7926 -0.3254
 2007TIP3   OH2 6026   1.335   1.374   4.428  0.1367  0.2812 -0.4961
 2007TIP3    H1 6027   1.359   1.460   4.394  1.3227  0.7406  1.3739
 2007TIP3    H2 6028   1.358   1.314   4.357  2.6366  1.1716 -0.5436
 2008TIP3   OH2 6029   1.174   5.415   2.107 -0.1351 -0.3425  0.2580
 2008TIP3    H1 6030   1.208   5.338   2.061  1.2203  0.0933  0.5001
 2008TIP3    H2 6031   1.142   5.381   2.190 -0.5436 -0.7970 -0.0762
 2009TIP3   OH2 6032   0.099   3.449   1.321  0.2165  0.4897 -0.0137
 2009TIP3    H1 6033   0.193   3.458   1.310  0.3212 -0.3389  0.1963
 2009TIP3    H2 6034   0.070   3.537   1.348  1.0194  0.5721  0.6017
 2010TIP3   OH2 6035   0.579   1.001   2.511  0.1357  0.2995 -0.8662
 2010TIP3    H1 6036   0.552   1.092   2.501  0.2000  0.3653 -0.4757
 2010TIP3    H2 6037   0.670   1.006   2.542 -0.1026  0.1163 -0.1280
 2011TIP3   OH2 6038   6.104   5.132   2.656  0.1091  0.0899  0.6794
 2011TIP3    H1 6039   6.047   5.209   2.655  1.3886  1.0687 -0.6865
 2011TIP3    H2 6040   6.056   5.067   2.604  0.0432  0.7573 -0.1081
 2012TIP3   OH2 6041   5.338   3.253   3.653 -0.1538 -0.3455 -0.1187
 2012TIP3    H1 6042   5.331   3.187   3.584 -1.5471  0.7213 -1.0747
 2012TIP3    H2 6043   5.415   3.304   3.629 -0.7150  0.1100 -1.0011
 2013TIP3   OH2 6044   5.955   4.453   3.053 -0.1120 -0.2392 -0.0418
 2013TIP3    H1 6045   5.973   4.491   3.140  0.5783  1.2366 -0.7928
 2013TIP3    H2 6046   5.986   4.519   2.991  1.6187 -2.2229 -1.4567
 2014TIP3   OH2 6047   5.981   0.252   4.662  0.0465  0.9229 -0.4963
 2014TIP3    H1 6048   5.939   0.224   4.580  0.9728  1.0720 -1.0394
 2014TIP3    H2 6049   6.067   0.285   4.635  1.4290 -1.3356  0.7609
 2015TIP3   OH2 6050   3.251   0.120   3.666 -0.0503 -0.1111 -0.4205
 2015TIP3    H1 6051   3.226   0.138   3.576  0.9285  0.0919 -0.6534
 2015TIP3    H2 6052   3.233   0.026   3.677 -0.7466 -0.0104 -0.6221
 2016TIP3   OH2 6053   5.979   0.898   0.176 -0.4346  0.4699  0.2655
 2016TIP3    H1 6054   6.048   0.959   0.147  0.2292 -0.3398  0.1096
 2016TIP3    H2 6055   5.979   0.907   0.272 -0.1653  0.5352  0.2621
 2017TIP3   OH2 6056   6.350   2.535   0.345 -0.5094 -0.3806 -0.2245
 2017TIP3    H1 6057   6.355   2.440   0.328  0.4247  0.1295 -3.4686
 2017TIP3    H2 6058   6.257   2.552   0.357 -0.8568 -1.5361 -1.0574
 2018TIP3   OH2 6059   1.582   3.433   2.696  0.4505  0.1024 -0.4935
 2018TIP3    H1 6060   1.565   3.342   2.671  1.6878  0.4131 -2.7982
 2018TIP3    H2 6061   1.563   3.483   2.616 -0.5308  1.9445  0.8196
 2019TIP3   OH2 6062   3.778   0.415   2.337 -0.5310  0.4966  0.1703
 2019TIP3    H1 6063   3.768   0.373   2.251 -0.6687  1.3749 -0.2547
 2019TIP3    H2 6064   3.860   0.465   2.329  0.2804 -0.6456  1.0794
 2020TIP3   OH2 6065   0.688   0.439   3.263  0.2383 -0.5780 -0.2519
 2020TIP3    H1 6066   0.651   0.525   3.284  0.1779 -0.8217  0.6903
 2020TIP3    H2 6067   0.612   0.380   3.259  0.4643 -1.0589  1.5803
 2021TIP3   OH2 6068   4.510   1.369   1.718 -0.0744 -0.4004  0.3178
 2021TIP3    H1 6069   4.509   1.276   1.741 -1.2899 -0.4082  0.2782
 2021TIP3    H2 6070   4.426   1.385   1.675  0.2650  0.6434 -0.0105
 2022TIP3   OH2 6071   0.906   2.808   2.691  0.5556 -0.0764 -0.5921
 2022TIP3    H1 6072   0.911   2.721   2.650 -3.6216 -0.4337 -0.7941
 2022TIP3    H2 6073   0.880   2.866   2.619  0.3228  0.7462  0.1412
 2023TIP3   OH2 6074   2.901   3.523   0.654  0.8891 -0.3108  0.3051
 2023TIP3    H1 6075   2.836   3.453   0.654  1.8459 -1.2355 -0.1680
 2023TIP3    H2 6076   2.982   3.480   0.682  1.1776  0.9404  1.4973
 2024TIP3   OH2 6077   5.284   4.756   4.708 -0.1833 -0.1800 -0.2448
 2024TIP3    H1 6078   5.278   4.683   4.770  0.6871 -0.0764 -0.0286
 2024TIP3    H2 6079   5.205   4.807   4.725 -0.6214 -0.8689 -0.1458
 2025TIP3   OH2 6080   0.346   1.553   0.808 -0.1025  0.1712 -0.1105
 2025TIP3    H1 6081   0.432   1.514   0.819  0.4067  1.4283  0.6111
 2025TIP3    H2 6082   0.304   1.501   0.740  1.0608 -0.7152 -0.1746
 2026TIP3   OH2 6083   2.143   5.346   3.197  0.1036  0.0095  0.0016
 2026TIP3    H1 6084   2.050   5.368   3.196  0.0982 -0.0054 -0.5032
 2026TIP3    H2 6085   2.165   5.334   3.104  0.8567  1.1039  0.0126
 2027TIP3   OH2 6086   6.015   4.814   0.994 -0.4409 -0.1214  0.1672
 2027TIP3    H1 6087   5.996   4.907   0.999 -0.1805 -0.1284  2.2344
 2027TIP3    H2 6088   6.075   4.797   1.066 -1.4879 -2.0973  0.6786
 2028TIP3   OH2 6089   4.542   0.051   2.469  0.4688 -0.1511  0.1470
 2028TIP3    H1 6090   4.470  -0.007   2.443  0.7359 -0.1319 -0.6866
 2028TIP3    H2 6091   4.605  -0.007   2.512  0.9613 -0.5960 -1.1207
 2029TIP3   OH2 6092   2.512   5.490   3.534  0.4653 -0.0841 -0.0377
 2029TIP3    H1 6093   2.542   5.533   3.614 -0.3036 -0.4573  0.4571
 2029TIP3    H2 6094   2.450   5.553   3.495  0.4261 -0.1340 -0.0558
 2030TIP3   OH2 6095   4.291   4.154   3.174  0.4979  0.6407  0.4342
 2030TIP3    H1 6096   4.371   4.110   3.144  1.4981  2.4287  0.3559
 2030TIP3    H2 6097   4.319   4.242   3.197 -1.3577  1.1201  1.0300
 2031TIP3   OH2 6098   2.351   0.954   4.156 -0.6358 -0.0999  0.1997
 2031TIP3    H1 6099   2.307   1.029   4.197  1.1087  0.9322  0.2784
 2031TIP3    H2 6100   2.422   0.932   4.215  0.5780 -0.0063 -1.1744
 2032TIP3   OH2 6101   4.625   0.431   3.343  0.2539  0.0565  0.1578
 2032TIP3    H1 6102   4.662   0.499   3.400  0.5328 -0.6826  0.8778
 2032TIP3    H2 6103   4.627   0.469   3.255 -0.3383  1.2960  0.6492
 2033TIP3   OH2 6104   4.811   5.072   1.369  0.1523  0.1321 -0.1878
 2033TIP3    H1 6105   4.801   5.050   1.462  0.5202  1.6705  0.2557
 2033TIP3    H2 6106   4.758   5.008   1.323 -0.4160 -0.3789  1.1236
 2034TIP3   OH2 6107   2.242   1.701   5.026 -0.1886  0.0219 -0.4695
 2034TIP3    H1 6108   2.159   1.656   5.041 -1.0072  1.6340  0.0525
 2034TIP3    H2 6109   2.302   1.661   5.089 -1.1642  0.3314  0.7083
 2035TIP3   OH2 6110   5.479   2.969   4.094  0.2691 -0.1462  0.1648
 2035TIP3    H1 6111   5.403   2.916   4.119  0.4042 -0.4864 -0.1314
 2035TIP3    H2 6112   5.470   3.050   4.144 -1.2925  0.6065 -1.2545
 2036TIP3   OH2 6113   0.975   4.383   2.840 -0.1136  0.0812  0.3917
 2036TIP3    H1 6114   0.949   4.432   2.762  0.1363 -0.3444  0.0370
 2036TIP3    H2 6115   1.061   4.418   2.864  1.5142 -2.1995 -1.6547
 2037TIP3   OH2 6116   4.069   0.792   3.283  0.6443 -0.1143 -0.4343
 2037TIP3    H1 6117   4.046   0.860   3.221  0.8937  0.9158  0.5620
 2037TIP3    H2 6118   4.071   0.837   3.368  1.4269 -1.2259  0.1583
 2038TIP3   OH2 6119   1.343   1.479   2.394 -0.8477  0.0384  0.4567
 2038TIP3    H1 6120   1.346   1.542   2.323  0.4220 -0.4072  0.1020
 2038TIP3    H2 6121   1.372   1.397   2.355  1.6889  0.1703  1.8736
 2039TIP3   OH2 6122   2.399   1.036   1.464  0.3410  0.1602  0.1696
 2039TIP3    H1 6123   2.386   1.008   1.555 -0.3628  1.6114  0.5442
 2039TIP3    H2 6124   2.373   0.960   1.412 -0.6894 -0.1936  1.1475
 2040TIP3   OH2 6125   4.856   0.891   0.687 -0.4037  0.1722 -0.2444
 2040TIP3    H1 6126   4.946   0.897   0.720  0.4204  1.9906 -2.5532
 2040TIP3    H2 6127   4.859   0.823   0.619 -0.8368  0.0704 -0.1660
 2041TIP3   OH2 6128   5.442   4.997   3.167  0.2882 -0.3561 -0.2296
 2041TIP3    H1 6129   5.532   4.971   3.145  0.4715  0.4224 -0.4246
 2041TIP3    H2 6130   5.413   4.932   3.231  1.5311  0.2542  0.9916
 2042TIP3   OH2 6131   6.281   4.874   4.039 -0.0145 -0.2221 -0.0375
 2042TIP3    H1 6132   6.359   4.904   4.085 -2.0183 -1.0269  4.3588
 2042TIP3    H2 6133   6.311   4.799   3.987  2.7406  1.8993 -1.7599
 2043TIP3   OH2 6134   1.171   0.073   2.039 -0.3943 -0.3161  0.1748
 2043TIP3    H1 6135   1.220  -0.007   2.057 -0.8776 -0.7780 -0.5105
 2043TIP3    H2 6136   1.221   0.142   2.083  0.8251 -0.7808 -0.4114
 2044TIP3   OH2 6137   0.997   2.651   0.094  0.1668  0.2847  0.2844
 2044TIP3    H1 6138   0.956   2.668   0.178 -1.8045 -1.1245 -0.3319
 2044TIP3    H2 6139   1.061   2.582   0.111  0.4237  0.6377  0.7676
 2045TIP3   OH2 6140   1.233   1.921   4.440  0.0684  0.1003 -0.2569
 2045TIP3    H1 6141   1.214   1.966   4.522  1.1583  0.3021 -0.0987
 2045TIP3    H2 6142   1.327   1.933   4.428  0.0485 -0.5813 -1.1482
 2046TIP3   OH2 6143   4.860   4.811   1.808  0.2916  0.6223  0.8555
 2046TIP3    H1 6144   4.941   4.795   1.856 -0.3531 -0.5987  1.5811
 2046TIP3    H2 6145   4.801   4.850   1.872 -0.0471  0.5050  0.6188
 2047TIP3   OH2 6146   0.935   1.015   3.687 -0.1557  0.1781 -0.1786
 2047TIP3    H1 6147   0.843   1.015   3.663  0.0143  1.7713 -0.9976
 2047TIP3    H2 6148   0.969   0.931   3.657 -1.2392 -0.2667 -0.2028
 2048TIP3   OH2 6149   2.059   1.481   4.704  0.0902  0.6033  0.5388
 2048TIP3    H1 6150   2.012   1.564   4.700  1.0545  1.1479 -2.9139
 2048TIP3    H2 6151   2.151   1.506   4.712  0.2320 -0.3315  2.6861
 2049TIP3   OH2 6152   1.648   3.699   3.863  0.1397 -0.4996  0.0545
 2049TIP3    H1 6153   1.708   3.771   3.842 -0.8106  0.2189 -0.2994
 2049TIP3    H2 6154   1.702   3.636   3.910  1.4338 -0.4102 -1.2412
 2050TIP3   OH2 6155   1.648   4.296   2.120  0.1963  0.0386 -0.3297
 2050TIP3    H1 6156   1.573   4.237   2.115  0.0333  0.0701  1.2341
 2050TIP3    H2 6157   1.723   4.238   2.136  0.1452  0.1823  0.4672
 2051TIP3   OH2 6158   4.748   1.370   1.296 -0.2363 -0.2163 -0.4366
 2051TIP3    H1 6159   4.753   1.458   1.333  1.3935 -0.3208 -0.3417
 2051TIP3    H2 6160   4.707   1.318   1.365  1.8761 -0.2070  0.9208
 2052TIP3   OH2 6161   4.023   2.203   4.060  0.3951 -0.7175 -0.3722
 2052TIP3    H1 6162   3.979   2.285   4.082  1.2626 -0.2905 -0.1914
 2052TIP3    H2 6163   4.011   2.194   3.966  1.1770  0.1554 -0.5666
 2053TIP3   OH2 6164   6.270   5.294   0.671 -0.0957  0.2037 -0.4362
 2053TIP3    H1 6165   6.334   5.259   0.732 -0.8251  1.0846  0.8890
 2053TIP3    H2 6166   6.223   5.217   0.639 -1.6743 -0.1911  2.4200
 2054TIP3   OH2 6167   0.770   3.455   0.728  0.0916 -0.4684 -0.4918
 2054TIP3    H1 6168   0.787   3.433   0.820 -0.1575  0.6460 -0.1566
 2054TIP3    H2 6169   0.854   3.445   0.685  0.6776  0.8962  0.2722
 2055TIP3   OH2 6170   5.636   1.560   3.663  0.2973 -0.0373 -0.1370
 2055TIP3    H1 6171   5.725   1.536   3.639 -0.1118 -1.0323 -0.7272
 2055TIP3    H2 6172   5.630   1.653   3.643  0.7982 -0.2562 -1.3864
 2056TIP3   OH2 6173   5.524   0.750   0.731  0.3208 -0.4691  0.0992
 2056TIP3    H1 6174   5.509   0.693   0.807 -2.5718  0.4091  0.3126
 2056TIP3    H2 6175   5.578   0.821   0.765 -1.0126 -0.0297  1.4241
 2057TIP3   OH2 6176   5.656   0.942   0.212 -0.0068 -0.2458 -0.0965
 2057TIP3    H1 6177   5.675   0.856   0.175  1.0267  0.6014 -1.6285
 2057TIP3    H2 6178   5.740   0.973   0.245 -0.5142 -0.1037  1.1140
 2058TIP3   OH2 6179   5.453   3.858   4.012  0.3629  0.7379  0.3840
 2058TIP3    H1 6180   5.461   3.763   4.001 -0.9249  0.6856 -0.2334
 2058TIP3    H2 6181   5.505   3.877   4.091  0.4278 -0.5065  0.6595
 2059TIP3   OH2 6182   3.624   3.180   4.616  0.3441  0.1695  0.1695
 2059TIP3    H1 6183   3.719   3.189   4.610  0.4059 -0.3533  0.2748
 2059TIP3    H2 6184   3.599   3.235   4.690  0.8626 -1.4539  1.6286
 2060TIP3   OH2 6185   1.273   5.054   2.228  0.1408 -0.6685  0.5752
 2060TIP3    H1 6186   1.241   4.992   2.164 -0.3190 -1.4414  1.5261
 2060TIP3    H2 6187   1.328   5.002   2.287 -1.3414 -0.4996  2.1843
 2061TIP3   OH2 6188   2.767   0.659   2.062 -0.0140 -0.1476 -0.2517
 2061TIP3    H1 6189   2.749   0.724   1.994 -0.7333 -1.9714 -1.8780
 2061TIP3    H2 6190   2.861   0.644   2.056  0.2156  0.9446  0.3572
 2062TIP3   OH2 6191   3.269   1.645   1.974  0.3103  0.1701  0.4801
 2062TIP3    H1 6192   3.243   1.610   2.059  0.3856 -0.4405  0.2552
 2062TIP3    H2 6193   3.248   1.738   1.979  0.0179  0.0770  1.0521
 2063TIP3   OH2 6194   6.012   3.971   0.253 -0.6214 -0.2984 -0.2577
 2063TIP3    H1 6195   5.982   3.885   0.281  1.0037 -1.0284 -0.6988
 2063TIP3    H2 6196   6.053   4.009   0.331 -1.6024  0.2196  0.0208
 2064TIP3   OH2 6197   1.959   1.383   0.114  0.0294  0.0838  0.1106
 2064TIP3    H1 6198   1.976   1.455   0.053 -1.5770 -0.6190 -1.2241
 2064TIP3    H2 6199   2.045   1.340   0.125  0.1056 -0.7415 -2.9577
 2065TIP3   OH2 6200   5.429   0.388   1.370  0.5093 -0.0497  0.4832
 2065TIP3    H1 6201   5.359   0.397   1.436  1.6037  0.6819  1.5861
 2065TIP3    H2 6202   5.405   0.450   1.302 -1.3737 -1.7792 -0.5640
 2066TIP3   OH2 6203   2.272   5.440   4.837  0.2864 -0.1723  0.2824
 2066TIP3    H1 6204   2.301   5.411   4.924  0.4959  1.1977  0.6980
 2066TIP3    H2 6205   2.347   5.423   4.780  1.6502  2.3279  1.1368
 2067TIP3   OH2 6206   3.900   3.018   1.923 -0.1813 -0.2951 -0.3729
 2067TIP3    H1 6207   3.934   2.928   1.918  0.8652  0.1423 -1.2705
 2067TIP3    H2 6208   3.824   3.010   1.981  0.9231 -1.4524  1.0048
 2068TIP3   OH2 6209   4.235   2.338   1.964 -0.1086  0.1090 -0.0806
 2068TIP3    H1 6210   4.324   2.368   1.983 -0.4595  1.3378 -0.2874
 2068TIP3    H2 6211   4.182   2.372   2.036 -0.6712  0.7926 -0.7922
 2069TIP3   OH2 6212   5.567   1.343   4.195 -0.2541 -0.3785 -0.6105
 2069TIP3    H1 6213   5.575   1.264   4.247  1.0653 -1.2244 -2.0128
 2069TIP3    H2 6214   5.598   1.318   4.108  3.8927  2.5005 -0.2798
 2070TIP3   OH2 6215   3.924   4.285   3.922  0.7722  0.1573 -0.9500
 2070TIP3    H1 6216   3.831   4.306   3.924  0.6194 -0.5126  0.8943
 2070TIP3    H2 6217   3.929   4.195   3.953  2.0221  0.0978 -1.2620
 2071TIP3   OH2 6218   3.970   3.815   3.881  0.2685  0.3078  0.1998
 2071TIP3    H1 6219   3.899   3.792   3.820 -0.5126 -0.3133  1.3007
 2071TIP3    H2 6220   4.046   3.769   3.847 -0.5167 -1.3019  0.5100
 2072TIP3   OH2 6221   4.243   0.967   3.945 -0.3254 -0.5114  0.2101
 2072TIP3    H1 6222   4.321   0.919   3.918  0.0361  0.1404  0.0675
 2072TIP3    H2 6223   4.234   0.948   4.039  0.5498  0.1525  0.4364
 2073TIP3   OH2 6224   3.152   1.018   1.010  0.5252 -0.3290  0.1917
 2073TIP3    H1 6225   3.184   1.091   1.063  0.1856 -0.3583  0.4372
 2073TIP3    H2 6226   3.106   1.059   0.937  2.5884 -0.2297 -1.1455
 2074TIP3   OH2 6227   1.375   1.576   3.334  0.2580  0.0816 -0.0333
 2074TIP3    H1 6228   1.344   1.619   3.414 -1.6303  0.2954 -0.8502
 2074TIP3    H2 6229   1.404   1.649   3.278 -2.0961  0.3172 -1.0553
 2075TIP3   OH2 6230   0.439   0.297   3.306 -0.2973 -0.9692 -0.3319
 2075TIP3    H1 6231   0.362   0.306   3.250 -0.4189  1.0062  0.0710
 2075TIP3    H2 6232   0.415   0.343   3.387  1.6190  0.5699 -0.5685
 2076TIP3   OH2 6233   1.762   0.390   4.960  0.6835  0.6713 -0.5179
 2076TIP3    H1 6234   1.689   0.423   4.908  0.2219  0.9134  0.2633
 2076TIP3    H2 6235   1.798   0.467   5.004  1.6149  0.6024 -1.1225
 2077TIP3   OH2 6236   3.691   4.860   3.252 -0.0326 -0.4326  0.5915
 2077TIP3    H1 6237   3.669   4.787   3.194 -0.6711  0.0436  0.2155
 2077TIP3    H2 6238   3.609   4.911   3.258  0.4597  0.3705  0.6578
 2078TIP3   OH2 6239   4.819   2.238   3.168 -0.7345 -0.4281  0.1183
 2078TIP3    H1 6240   4.775   2.156   3.190 -1.7871  0.1939  0.4176
 2078TIP3    H2 6241   4.756   2.306   3.192  0.9499  0.5929  1.9481
 2079TIP3   OH2 6242   5.325   5.091   4.806 -0.0370  0.3334 -0.1517
 2079TIP3    H1 6243   5.366   5.049   4.881 -0.1016  2.3646  1.1091
 2079TIP3    H2 6244   5.397   5.112   4.747  0.4322  1.3827  0.7581
 2080TIP3   OH2 6245   1.687   0.359   2.488 -0.1115  0.0168  0.1638
 2080TIP3    H1 6246   1.731   0.442   2.504  1.3431 -0.5234 -0.8999
 2080TIP3    H2 6247   1.612   0.382   2.433 -0.3403  0.7391  0.7557
 2081TIP3   OH2 6248   1.621   4.487   4.832  0.1994  0.2222 -0.4097
 2081TIP3    H1 6249   1.587   4.417   4.887  1.5109 -0.4390 -0.4203
 2081TIP3    H2 6250   1.578   4.473   4.747  0.5747 -0.6663 -0.4577
 2082TIP3   OH2 6251   3.125   5.435   3.659 -0.6493 -0.3086  0.0799
 2082TIP3    H1 6252   3.219   5.423   3.671 -0.5018  1.1910  0.5493
 2082TIP3    H2 6253   3.101   5.371   3.592  0.7749 -0.4100 -0.3505
 2083TIP3   OH2 6254   1.508   2.895   1.214  0.1306  0.0267  0.6237
 2083TIP3    H1 6255   1.576   2.942   1.167 -0.8742 -0.9992 -2.0652
 2083TIP3    H2 6256   1.434   2.956   1.217  0.7991  0.8351  2.8117
 2084TIP3   OH2 6257   1.133   1.737   0.520  0.6773  0.2578 -0.3712
 2084TIP3    H1 6258   1.176   1.686   0.588 -0.7738 -1.2303 -0.4849
 2084TIP3    H2 6259   1.046   1.755   0.555 -0.3775 -1.2000 -2.0432
 2085TIP3   OH2 6260   5.732   4.648   2.118  0.6237 -0.1115 -0.1142
 2085TIP3    H1 6261   5.679   4.571   2.097  3.7759 -1.7909 -2.8729
 2085TIP3    H2 6262   5.775   4.626   2.200  0.3645 -0.6637 -0.1184
 2086TIP3   OH2 6263   0.663   0.486   2.282  0.0100  0.1303 -0.6967
 2086TIP3    H1 6264   0.703   0.482   2.369 -0.2644 -0.1146 -0.5809
 2086TIP3    H2 6265   0.731   0.456   2.222  0.5041  1.1340 -0.6707
 2087TIP3   OH2 6266   4.028   1.737   2.725  0.1941 -0.4266  0.9235
 2087TIP3    H1 6267   4.093   1.681   2.683 -2.1959 -1.6081 -1.5321
 2087TIP3    H2 6268   4.047   1.825   2.693  0.5640 -0.7580  0.2014
 2088TIP3   OH2 6269   1.196   5.491   4.022 -0.1148 -0.5791 -0.4813
 2088TIP3    H1 6270   1.270   5.481   3.963  0.4254  0.7964 -0.0628
 2088TIP3    H2 6271   1.226   5.455   4.106  0.6727  1.4154  0.1275
 2089TIP3   OH2 6272   1.703   2.149   1.580 -0.2616  0.0366 -0.0986
 2089TIP3    H1 6273   1.784   2.135   1.629  0.1991  0.0888 -0.8307
 2089TIP3    H2 6274   1.729   2.205   1.506 -1.0642  0.4763 -0.0593
 2090TIP3   OH2 6275   2.432   1.490   3.392 -0.0600 -0.0069 -0.4838
 2090TIP3    H1 6276   2.421   1.404   3.433 -1.7536 -0.0211 -0.8912
 2090TIP3    H2 6277   2.462   1.547   3.463 -0.3977 -0.6016  0.1499
 2091TIP3   OH2 6278   2.339   4.520   2.820  0.0915 -0.4724  0.4819
 2091TIP3    H1 6279   2.388   4.528   2.902  1.2963 -0.7222 -0.1953
 2091TIP3    H2 6280   2.324   4.426   2.810 -0.3194 -0.4182  0.5564
 2092TIP3   OH2 6281   2.743   4.928   1.805 -0.7018 -0.0668 -0.1901
 2092TIP3    H1 6282   2.772   4.978   1.729  0.7832 -1.9604 -0.9436
 2092TIP3    H2 6283   2.649   4.913   1.789 -0.9106  1.3929 -0.5205
 2093TIP3   OH2 6284   5.365   5.003   1.410 -0.3752 -0.5955 -0.4441
 2093TIP3    H1 6285   5.362   4.932   1.474  0.0789  1.0607  1.5287
 2093TIP3    H2 6286   5.459   5.013   1.390 -0.2764  0.4542  0.5026
 2094TIP3   OH2 6287   1.372   1.570   1.682  0.1984 -0.0862 -0.2397
 2094TIP3    H1 6288   1.316   1.496   1.708 -2.8737  2.5212  1.1473
 2094TIP3    H2 6289   1.461   1.535   1.689 -1.0889 -3.8810 -0.5121
 2095TIP3   OH2 6290   3.181   0.659   1.304 -0.0228  0.2971  0.1161
 2095TIP3    H1 6291   3.196   0.633   1.213 -0.7804 -0.0589  0.0844
 2095TIP3    H2 6292   3.097   0.706   1.302  0.3918  1.0690  0.4900
 2096TIP3   OH2 6293   1.258   3.168   3.986  0.2964 -0.3832 -0.1167
 2096TIP3    H1 6294   1.178   3.147   4.033  0.9329  0.1935  1.2901
 2096TIP3    H2 6295   1.232   3.233   3.920 -0.4169 -0.3599  0.1870
 2097TIP3   OH2 6296   0.316   1.178   3.862  0.2724 -0.1953 -0.1786
 2097TIP3    H1 6297   0.299   1.236   3.937 -0.3128  0.5774 -0.8983
 2097TIP3    H2 6298   0.387   1.222   3.815  2.0120 -1.6645  0.9459
 2098TIP3   OH2 6299  -0.007   0.634   1.787  0.3272  0.2190 -0.0478
 2098TIP3    H1 6300   0.068   0.581   1.760 -0.3943 -0.4582 -0.7874
 2098TIP3    H2 6301   0.032   0.712   1.826  1.4830  0.8871 -2.3119
 2099TIP3   OH2 6302   1.615   2.838   0.956  0.5191 -0.1753 -0.1946
 2099TIP3    H1 6303   1.571   2.912   0.917  0.7747  0.6331  0.9857
 2099TIP3    H2 6304   1.707   2.864   0.960  0.7550 -0.9071 -0.5314
 2100TIP3   OH2 6305   4.857   4.537   4.351 -0.2286 -0.3030  0.2882
 2100TIP3    H1 6306   4.855   4.582   4.436 -1.0047  0.2970 -0.0384
 2100TIP3    H2 6307   4.934   4.574   4.307 -1.4089  1.4998 -0.3713
 2101TIP3   OH2 6308   5.173   0.514   3.812  0.4408  0.1511  0.0628
 2101TIP3    H1 6309   5.255   0.509   3.763  1.1173  0.4462  1.1302
 2101TIP3    H2 6310   5.175   0.601   3.853 -0.3813  0.1327  0.1631
 2102TIP3   OH2 6311   4.814   1.884   1.434  0.3230  0.4723 -0.1430
 2102TIP3    H1 6312   4.830   1.870   1.528  1.0662 -1.3931 -0.4850
 2102TIP3    H2 6313   4.738   1.829   1.415  1.3072 -0.6843 -0.9457
 2103TIP3   OH2 6314   4.100   3.803   0.866 -0.2386  0.1121  0.2314
 2103TIP3    H1 6315   4.048   3.795   0.786  0.4667  0.5618 -0.2900
 2103TIP3    H2 6316   4.064   3.880   0.911  0.3726  0.8060 -0.4435
 2104TIP3   OH2 6317   5.269   0.585   2.293 -0.0244  0.3798 -0.2723
 2104TIP3    H1 6318   5.360   0.572   2.321  0.4584 -1.4781 -2.4290
 2104TIP3    H2 6319   5.219   0.519   2.342 -0.2225  1.3005  0.7999
 2105TIP3   OH2 6320   3.362   0.775   4.587 -0.1055 -0.1286 -0.1062
 2105TIP3    H1 6321   3.367   0.870   4.595  1.3737 -0.2337  0.5344
 2105TIP3    H2 6322   3.318   0.760   4.503 -1.5523  1.0939  0.4041
 2106TIP3   OH2 6323   1.990   3.687   2.321  0.1986 -0.3449 -0.3464
 2106TIP3    H1 6324   2.024   3.740   2.393  1.4505  0.3694 -1.4213
 2106TIP3    H2 6325   1.991   3.597   2.354 -1.5529  0.1836  1.3591
 2107TIP3   OH2 6326   1.537   0.250   1.580  0.0129  0.6580  0.1010
 2107TIP3    H1 6327   1.556   0.175   1.636 -1.7425 -0.2090 -0.3868
 2107TIP3    H2 6328   1.617   0.264   1.530 -0.1623 -2.0785 -1.1070
 2108TIP3   OH2 6329   1.660   4.398   0.020 -0.1462  0.0029  0.3083
 2108TIP3    H1 6330   1.573   4.421  -0.012 -0.5381  0.9795  1.9517
 2108TIP3    H2 6331   1.700   4.483   0.043  0.8209 -0.5170  0.6097
 2109TIP3   OH2 6332   5.691   4.909   2.096 -0.4563  0.3871  0.1620
 2109TIP3    H1 6333   5.698   4.814   2.102  0.5783  0.4870  0.7110
 2109TIP3    H2 6334   5.744   4.933   2.021 -2.1371  0.3971 -1.0704
 2110TIP3   OH2 6335   4.782   5.332   0.950  0.0692 -0.6361 -0.1686
 2110TIP3    H1 6336   4.837   5.273   1.000  0.1626 -0.8386 -0.5074
 2110TIP3    H2 6337   4.817   5.329   0.861 -0.1877 -0.3981 -0.2815
 2111TIP3   OH2 6338   2.030   1.608   3.964  0.0314  0.5328 -0.2714
 2111TIP3    H1 6339   2.117   1.571   3.945 -0.1853 -0.4206  0.4858
 2111TIP3    H2 6340   1.973   1.532   3.972 -0.5730  1.0637  0.6928
 2112TIP3   OH2 6341   1.299   3.624   5.071  0.1216 -0.5146 -0.1311
 2112TIP3    H1 6342   1.389   3.629   5.103  0.1810  1.0139 -0.4817
 2112TIP3    H2 6343   1.300   3.549   5.010  0.7742 -1.4287  0.9557
 2113TIP3   OH2 6344   3.904   4.973   1.830 -0.0985  0.3805  0.1246
 2113TIP3    H1 6345   3.879   4.952   1.740  0.7787 -0.2280  0.0081
 2113TIP3    H2 6346   3.959   5.051   1.822  0.9971 -0.3825 -0.0181
 2114TIP3   OH2 6347   0.638   2.700   2.540 -0.3752  0.0464  0.0991
 2114TIP3    H1 6348   0.637   2.733   2.630 -0.7513 -0.3598  0.2476
 2114TIP3    H2 6349   0.579   2.625   2.542 -0.3582  0.0179 -0.4818
 2115TIP3   OH2 6350   0.344   1.635   0.372 -0.2050  0.2356 -0.4455
 2115TIP3    H1 6351   0.328   1.721   0.411  1.0322 -0.0738  0.7937
 2115TIP3    H2 6352   0.336   1.573   0.444 -1.2529 -0.7380 -1.3535
 2116TIP3   OH2 6353   2.688   0.809   4.806 -0.0700  0.0297 -0.1309
 2116TIP3    H1 6354   2.749   0.837   4.738  2.2773 -2.3731  0.8314
 2116TIP3    H2 6355   2.673   0.716   4.788 -0.6068 -0.2815  1.7124
 2117TIP3   OH2 6356   4.498   5.011   2.391  0.2778  0.2949 -0.1831
 2117TIP3    H1 6357   4.407   5.011   2.363 -0.2793  1.7165  1.4464
 2117TIP3    H2 6358   4.510   4.927   2.435 -0.4151  0.3221  0.0733
 2118TIP3   OH2 6359   4.225   0.037   1.129 -0.2531  0.3147  0.8337
 2118TIP3    H1 6360   4.294   0.006   1.188  1.8514  1.6529 -0.7526
 2118TIP3    H2 6361   4.262   0.116   1.090 -2.9052  1.3144  0.1755
 2119TIP3   OH2 6362   2.034   5.560   2.470  0.0745 -0.4461  0.0353
 2119TIP3    H1 6363   2.013   5.561   2.376 -1.1590 -0.9887  0.2891
 2119TIP3    H2 6364   2.073   5.646   2.486  0.2335 -0.3201 -0.9607
 2120TIP3   OH2 6365   3.238   2.813   2.840  0.4460 -0.7971  0.0402
 2120TIP3    H1 6366   3.240   2.891   2.896 -1.4188  0.2393 -1.2440
 2120TIP3    H2 6367   3.262   2.845   2.753 -1.2110 -1.4304 -0.6964
 2121TIP3   OH2 6368   3.839   1.421   3.973  0.3427  0.0562  0.4258
 2121TIP3    H1 6369   3.838   1.325   3.974 -2.1356  0.0201  0.9529
 2121TIP3    H2 6370   3.886   1.446   4.053  1.5982 -0.6758 -0.0557
 2122TIP3   OH2 6371   0.732   1.869   4.716  0.6433 -0.3114  0.5419
 2122TIP3    H1 6372   0.642   1.843   4.739 -0.1242  0.8063 -1.0269
 2122TIP3    H2 6373   0.756   1.932   4.784 -0.6827  1.1533 -0.2853
 2123TIP3   OH2 6374   4.032   4.776   5.045 -0.3065  0.3733 -0.4384
 2123TIP3    H1 6375   3.966   4.726   4.997 -1.0449 -1.4620  2.2924
 2123TIP3    H2 6376   3.984   4.821   5.114  1.2167 -1.4914  2.0117
 2124TIP3   OH2 6377   3.817   5.535   3.231 -0.0510 -0.3707 -0.3356
 2124TIP3    H1 6378   3.860   5.579   3.157 -0.0206 -0.2302 -0.2359
 2124TIP3    H2 6379   3.890   5.507   3.287 -0.0406 -1.0712 -0.6869
 2125TIP3   OH2 6380   4.765   0.187   0.601  0.0392  0.0895 -0.0729
 2125TIP3    H1 6381   4.704   0.113   0.611 -0.6297  0.7430  0.8271
 2125TIP3    H2 6382   4.708   0.263   0.591  0.7268  0.5983 -0.1411
 2126TIP3   OH2 6383   0.086   3.124   1.515 -0.7320 -0.3558  0.2690
 2126TIP3    H1 6384   0.051   3.078   1.439 -2.4754 -0.8422  1.2883
 2126TIP3    H2 6385   0.148   3.062   1.553  0.6208  0.1419 -1.0658
 2127TIP3   OH2 6386   1.731   0.939   4.707 -0.6037  0.5329 -0.3375
 2127TIP3    H1 6387   1.800   0.929   4.772  0.0880  1.0298 -0.9676
 2127TIP3    H2 6388   1.737   1.031   4.681 -1.3528  0.5206 -0.5727
 2128TIP3   OH2 6389   2.369   1.049   2.584  0.2239 -0.4451  0.5242
 2128TIP3    H1 6390   2.287   1.016   2.620  0.1042  1.1641  1.8229
 2128TIP3    H2 6391   2.348   1.136   2.550  1.4165  0.0565  1.0119
 2129TIP3   OH2 6392   5.931   5.720   2.837 -0.0350  0.5359  0.1385
 2129TIP3    H1 6393   5.873   5.743   2.764  1.0349  0.3241 -0.7964
 2129TIP3    H2 6394   6.017   5.706   2.797  0.9187  1.8315  1.6350
 2130TIP3   OH2 6395   6.145   0.935   1.599  0.3087 -0.1638 -0.2401
 2130TIP3    H1 6396   6.170   0.902   1.512 -0.7329  1.5899 -1.2763
 2130TIP3    H2 6397   6.180   1.024   1.602  1.0088 -0.4606  1.4982
 2131TIP3   OH2 6398   0.057   0.578   2.952 -0.3877 -0.6327  0.2273
 2131TIP3    H1 6399  -0.000   0.577   3.028 -0.4412  0.4394  0.2156
 2131TIP3    H2 6400   0.073   0.671   2.934  0.4016 -0.8835 -0.4847
 2132TIP3   OH2 6401   2.708   3.160   2.136  0.0553  0.2381  0.0681
 2132TIP3    H1 6402   2.762   3.215   2.080  0.3696 -1.6594 -1.5911
 2132TIP3    H2 6403   2.769   3.097   2.174 -0.6993 -0.8662 -0.4862
 2133TIP3   OH2 6404   3.291   3.903   4.023 -0.1324 -0.0286  0.5667
 2133TIP3    H1 6405   3.213   3.948   4.053  0.1644  1.0823 -0.2503
 2133TIP3    H2 6406   3.272   3.810   4.036 -1.5678  0.2237  0.4343
 2134TIP3   OH2 6407   0.383   3.413   4.733 -0.1598  0.3645 -0.0218
 2134TIP3    H1 6408   0.404   3.506   4.739 -1.5485  0.6346  1.6019
 2134TIP3    H2 6409   0.446   3.370   4.791 -2.4312  0.9346  3.1587
 2135TIP3   OH2 6410   5.856   3.730   0.250  0.0287 -0.0446 -0.5034
 2135TIP3    H1 6411   5.761   3.734   0.264  0.0921  0.0744 -0.0776
 2135TIP3    H2 6412   5.866   3.728   0.155 -0.5287 -3.3010 -0.6238
 2136TIP3   OH2 6413   0.921   5.360   0.148  0.6706 -0.4260  0.2879
 2136TIP3    H1 6414   0.927   5.300   0.222 -0.7867 -0.2565  0.5751
 2136TIP3    H2 6415   0.898   5.304   0.073 -1.7331 -0.1674  0.7569
 2137TIP3   OH2 6416   3.437   3.433   2.554 -0.2488  0.1591 -0.0140
 2137TIP3    H1 6417   3.463   3.525   2.547  0.9014 -0.1511  0.0371
 2137TIP3    H2 6418   3.492   3.398   2.624 -0.2868 -0.6992 -0.4044
 2138TIP3   OH2 6419   3.984   1.109   1.598 -0.0303  0.6374 -0.0900
 2138TIP3    H1 6420   3.945   1.151   1.674  2.2055  1.2392  0.8032
 2138TIP3    H2 6421   3.941   1.149   1.523 -2.5819 -0.2702  0.7970
 2139TIP3   OH2 6422   5.118   3.771   0.036  0.1701 -0.4703  0.5621
 2139TIP3    H1 6423   5.038   3.811   0.004  1.1954  1.2608  0.0186
 2139TIP3    H2 6424   5.121   3.685  -0.007  0.2106  0.7473 -2.0593
 2140TIP3   OH2 6425   1.759   3.233   3.985 -0.2129  0.3436  0.1995
 2140TIP3    H1 6426   1.727   3.170   3.920 -2.4823  1.6198 -0.0131
 2140TIP3    H2 6427   1.833   3.276   3.942 -0.3267 -0.3201 -0.6916
 2141TIP3   OH2 6428   5.167   3.461   4.050 -0.3349 -0.3166  0.3049
 2141TIP3    H1 6429   5.104   3.405   4.093  0.7156 -0.9295  1.0936
 2141TIP3    H2 6430   5.203   3.515   4.120  1.0977 -1.0366  0.1629
 2142TIP3   OH2 6431   1.807   3.772   3.417 -0.4269 -0.2687 -0.4267
 2142TIP3    H1 6432   1.781   3.770   3.509 -3.0551 -1.2229 -1.0875
 2142TIP3    H2 6433   1.818   3.865   3.397  0.8054 -0.0855  0.9739
 2143TIP3   OH2 6434   4.792   5.332   3.787  0.1953  0.4475  0.0203
 2143TIP3    H1 6435   4.738   5.360   3.714  0.6382  1.4517  0.0517
 2143TIP3    H2 6436   4.798   5.410   3.843  0.7760  0.0297  0.5556
 2144TIP3   OH2 6437   2.635   4.246   3.428 -0.5707 -0.0350  0.3390
 2144TIP3    H1 6438   2.717   4.281   3.392 -0.3086 -1.1955 -0.2409
 2144TIP3    H2 6439   2.660   4.164   3.470 -1.3529 -0.1189  0.6641
 2145TIP3   OH2 6440   0.367   4.487   3.435  0.1900 -0.6967 -0.2573
 2145TIP3    H1 6441   0.409   4.480   3.521  1.3579 -1.1412 -0.8407
 2145TIP3    H2 6442   0.296   4.550   3.448  0.7091 -0.3239  0.8947
 2146TIP3   OH2 6443   3.934   4.447   4.482  0.2546 -0.0868  0.2077
 2146TIP3    H1 6444   4.029   4.448   4.497  0.4515 -0.2789 -0.9529
 2146TIP3    H2 6445   3.912   4.539   4.467  0.4649 -0.1815 -0.7120
 2147TIP3   OH2 6446   3.887   0.923   4.966  0.3706  0.5852  0.2810
 2147TIP3    H1 6447   3.974   0.914   4.927 -0.4447  0.2126 -1.5538
 2147TIP3    H2 6448   3.827   0.913   4.893 -1.2336  0.9291  1.4979
 2148TIP3   OH2 6449   0.390   5.481   4.832 -0.0634 -0.0243 -0.1574
 2148TIP3    H1 6450   0.368   5.517   4.918 -0.4902  0.2162 -0.3654
 2148TIP3    H2 6451   0.485   5.487   4.827  0.0583 -0.9920  0.7146
 2149TIP3   OH2 6452   5.774   3.967   4.909 -0.2824 -0.2118 -0.0555
 2149TIP3    H1 6453   5.788   3.995   5.000  0.0020  2.1330 -0.7550
 2149TIP3    H2 6454   5.688   3.923   4.911 -0.5635  0.3282  1.2308
 2150TIP3   OH2 6455   3.484   1.368   0.528  0.1668 -0.0646  0.1783
 2150TIP3    H1 6456   3.518   1.294   0.477  0.1384 -0.3336  0.5429
 2150TIP3    H2 6457   3.476   1.334   0.617 -0.7843  0.0671  0.1603
 2151TIP3   OH2 6458   2.680   4.532   1.912  0.6930 -0.2614 -0.7285
 2151TIP3    H1 6459   2.726   4.548   1.994  0.7170 -0.4331 -0.7080
 2151TIP3    H2 6460   2.649   4.618   1.884  0.7770 -0.1881 -0.5939
 2152TIP3   OH2 6461   0.681   2.648   1.198  0.4171 -0.0212  0.4166
 2152TIP3    H1 6462   0.602   2.623   1.149  0.6580 -0.8640  0.4442
 2152TIP3    H2 6463   0.735   2.694   1.134 -0.8383  2.2016  0.8288
 2153TIP3   OH2 6464   5.499   0.627   3.022 -0.2938 -0.0873 -0.2190
 2153TIP3    H1 6465   5.576   0.681   3.036 -0.1762  0.1969 -1.7784
 2153TIP3    H2 6466   5.449   0.634   3.103  1.7009 -0.9571  1.1614
 2154TIP3   OH2 6467   4.768   0.913   5.087  0.5131  0.2079  0.0069
 2154TIP3    H1 6468   4.831   0.978   5.118 -0.4194  0.0557  2.4368
 2154TIP3    H2 6469   4.799   0.830   5.123  0.2424 -0.2592 -0.8190
 2155TIP3   OH2 6470   2.552   2.664   0.554  0.7013 -0.1519  0.1327
 2155TIP3    H1 6471   2.526   2.745   0.509  1.6795  0.4877  0.6805
 2155TIP3    H2 6472   2.480   2.603   0.536 -0.1758  0.9062 -0.0896
 2156TIP3   OH2 6473   4.411   0.762   4.954  0.2877 -0.1922 -0.6171
 2156TIP3    H1 6474   4.483   0.701   4.943  0.5197 -0.6060  2.5042
 2156TIP3    H2 6475   4.445   0.831   5.011 -1.1202  0.8649 -0.9702
 2157TIP3   OH2 6476   5.591   2.093   4.531 -0.6724 -0.2810 -0.5917
 2157TIP3    H1 6477   5.632   2.007   4.539  1.1285  0.3165 -2.4008
 2157TIP3    H2 6478   5.651   2.142   4.474 -2.1310  1.8610 -0.3810
 2158TIP3   OH2 6479   4.213   4.281   4.283 -0.0507 -0.3355  0.2628
 2158TIP3    H1 6480   4.137   4.224   4.279 -1.0766  0.9913  0.3827
 2158TIP3    H2 6481   4.234   4.300   4.192 -0.5482  0.1677  0.2475
 2159TIP3   OH2 6482   0.650   1.302   3.368 -0.1463 -0.1532  0.2105
 2159TIP3    H1 6483   0.629   1.392   3.344 -0.9418 -0.2617  0.4555
 2159TIP3    H2 6484   0.745   1.301   3.377  0.0077  0.3386 -1.0776
 2160TIP3   OH2 6485   5.468   4.905   4.982 -1.0920  0.1703 -0.0526
 2160TIP3    H1 6486   5.411   4.838   5.019 -0.5473  0.1264  0.7152
 2160TIP3    H2 6487   5.517   4.861   4.913  0.0575 -0.4992  1.1781
 2161TIP3   OH2 6488   0.799   5.180   1.147 -0.1066 -0.4387  0.0338
 2161TIP3    H1 6489   0.744   5.104   1.163 -0.2954 -0.2731  0.1785
 2161TIP3    H2 6490   0.806   5.223   1.232 -0.1424 -0.2028 -0.0808
 2162TIP3   OH2 6491   1.890   4.382   4.817 -0.4117 -0.0131 -0.3825
 2162TIP3    H1 6492   1.798   4.394   4.839 -0.0666  1.1112  0.5472
 2162TIP3    H2 6493   1.938   4.415   4.893  0.7604 -1.0962 -0.6194
 2163TIP3   OH2 6494   4.403   2.927   2.783 -0.5656 -0.2168  0.3097
 2163TIP3    H1 6495   4.398   2.836   2.812 -0.2954 -0.4256 -0.3048
 2163TIP3    H2 6496   4.411   2.923   2.688  0.3738  0.4210  0.3488
 2164TIP3   OH2 6497   6.268   4.703   4.848 -0.2851  0.4603 -0.0264
 2164TIP3    H1 6498   6.230   4.736   4.767  1.1350  1.4453 -0.3247
 2164TIP3    H2 6499   6.273   4.779   4.905 -1.5434 -0.2855  1.1208
 2165TIP3   OH2 6500   0.590   3.548   1.147  0.1663  0.0277 -0.7260
 2165TIP3    H1 6501   0.587   3.642   1.133  1.1215  0.3221  0.7732
 2165TIP3    H2 6502   0.684   3.528   1.151 -0.0251 -0.7716  0.1251
 2166TIP3   OH2 6503   3.256   3.365   1.573 -0.7191 -0.2433 -0.1849
 2166TIP3    H1 6504   3.303   3.283   1.554  0.1738 -0.1759  1.5396
 2166TIP3    H2 6505   3.216   3.389   1.490 -0.3183 -1.9991 -0.9405
 2167TIP3   OH2 6506   4.366   5.506   3.514 -0.0124  0.5630  0.4889
 2167TIP3    H1 6507   4.380   5.519   3.420  0.4472 -0.5890  0.3827
 2167TIP3    H2 6508   4.335   5.416   3.522  0.7068  0.3885  1.5125
 2168TIP3   OH2 6509   2.115   3.736   0.573  0.0948  0.7442  0.4068
 2168TIP3    H1 6510   2.065   3.818   0.568 -1.1947  0.0458  1.1378
 2168TIP3    H2 6511   2.123   3.719   0.667  0.5546  0.1628  0.2658
 2169TIP3   OH2 6512   2.791   0.869   0.581  0.5065  0.2988 -0.0754
 2169TIP3    H1 6513   2.864   0.813   0.605 -0.6597 -1.9668 -1.5252
 2169TIP3    H2 6514   2.776   0.923   0.659  2.5932 -0.3476  0.8531
 2170TIP3   OH2 6515   5.428   0.721   1.863  0.0629 -0.0422  0.4993
 2170TIP3    H1 6516   5.391   0.776   1.932  0.7366 -0.2164  1.0083
 2170TIP3    H2 6517   5.354   0.666   1.835 -0.2571  0.1401  0.9673
 2171TIP3   OH2 6518   4.329   0.305   1.817  0.2227 -0.2334 -0.7435
 2171TIP3    H1 6519   4.351   0.387   1.862 -1.4684 -0.8766  1.3924
 2171TIP3    H2 6520   4.397   0.296   1.750  1.5457  1.9523  0.1995
 2172TIP3   OH2 6521   2.094   0.367   0.632  0.1222 -0.1133  0.6896
 2172TIP3    H1 6522   2.107   0.434   0.698  1.2575  1.5206 -1.0887
 2172TIP3    H2 6523   2.051   0.412   0.559  0.1882 -1.4905 -0.2510
 2173TIP3   OH2 6524   0.373   2.914   1.858  0.2564 -0.3665  0.0707
 2173TIP3    H1 6525   0.334   2.998   1.880  1.5574  0.9007 -2.1729
 2173TIP3    H2 6526   0.432   2.895   1.930 -0.9234  0.0009  1.1774
 2174TIP3   OH2 6527   5.754   5.533   2.989  0.4804  0.3053  0.3521
 2174TIP3    H1 6528   5.734   5.529   3.082 -0.6485 -1.5637  0.0956
 2174TIP3    H2 6529   5.806   5.613   2.978  2.0197 -0.2734  2.8069
 2175TIP3   OH2 6530   4.597   1.709   1.391  0.5800 -0.2620  0.1023
 2175TIP3    H1 6531   4.523   1.723   1.449  0.3224 -0.0338 -0.2833
 2175TIP3    H2 6532   4.561   1.715   1.303  0.8515 -1.1986 -0.0929
 2176TIP3   OH2 6533   0.267   0.576   1.784  0.5850  0.2229 -0.2734
 2176TIP3    H1 6534   0.289   0.662   1.749 -0.3340  0.6868  0.2502
 2176TIP3    H2 6535   0.311   0.514   1.725  1.5100  1.0448 -0.4709
 2177TIP3   OH2 6536   5.679   2.295   0.257 -0.4834  0.7156 -0.3179
 2177TIP3    H1 6537   5.653   2.299   0.349  1.7476  0.1077  0.4118
 2177TIP3    H2 6538   5.660   2.205   0.231  0.4815  0.3750  0.1062
 2178TIP3   OH2 6539   4.206   5.438   1.695  0.0046  0.1632 -0.6622
 2178TIP3    H1 6540   4.238   5.522   1.728 -0.3471 -0.5713  1.7806
 2178TIP3    H2 6541   4.278   5.376   1.713  0.7516  0.0493 -3.5016
 2179TIP3   OH2 6542   5.087   1.556   4.083 -0.4435  0.4031 -0.8937
 2179TIP3    H1 6543   5.015   1.618   4.074 -1.5024 -0.9154 -2.0187
 2179TIP3    H2 6544   5.137   1.565   4.002  1.5609  2.2986  0.4467
 2180TIP3   OH2 6545   1.721   2.291   3.455  0.0970 -0.4446 -0.5633
 2180TIP3    H1 6546   1.740   2.197   3.456 -0.8078 -0.6317 -0.2662
 2180TIP3    H2 6547   1.628   2.297   3.476  0.4723  0.6010  0.9996
 2181TIP3   OH2 6548   4.788   1.556   1.526 -0.5946  0.3580 -0.8159
 2181TIP3    H1 6549   4.743   1.503   1.593 -1.2892  0.5092 -1.1578
 2181TIP3    H2 6550   4.733   1.633   1.516 -0.8984 -0.0017 -2.0892
 2182TIP3   OH2 6551   2.583   5.544   3.991  0.0950 -0.7506  0.2492
 2182TIP3    H1 6552   2.506   5.537   4.048  0.0976 -0.3567  0.3009
 2182TIP3    H2 6553   2.646   5.482   4.028  0.0349 -0.6170  0.5750
 2183TIP3   OH2 6554   3.476   4.750   4.838 -0.2398 -0.6440 -0.0473
 2183TIP3    H1 6555   3.472   4.842   4.812  1.3309 -0.1116  1.4255
 2183TIP3    H2 6556   3.405   4.740   4.902  0.8075  0.1224  1.3027
 2184TIP3   OH2 6557   5.209   1.982   2.053  0.4027 -0.2836  0.1304
 2184TIP3    H1 6558   5.200   2.054   1.991 -0.0583 -0.4077  0.0486
 2184TIP3    H2 6559   5.297   1.992   2.089  0.1668  0.6310  0.5012
 2185TIP3   OH2 6560   2.694   5.399   2.906 -0.6160  0.2227  0.7370
 2185TIP3    H1 6561   2.743   5.363   2.832 -0.3162 -2.0844  1.9648
 2185TIP3    H2 6562   2.700   5.494   2.895 -0.6981 -0.0080 -2.2375
 2186TIP3   OH2 6563   0.737   4.765   3.063 -0.0435  0.1307  0.0448
 2186TIP3    H1 6564   0.772   4.678   3.041  2.1326  1.0202 -0.2954
 2186TIP3    H2 6565   0.807   4.807   3.113 -0.2185  2.3821 -1.4478
 2187TIP3   OH2 6566   1.036   1.787   1.637  0.2298  0.4293 -0.2212
 2187TIP3    H1 6567   0.944   1.813   1.648 -0.1935 -0.7252 -0.8200
 2187TIP3    H2 6568   1.085   1.843   1.697 -0.5349  3.0268 -1.8637
 2188TIP3   OH2 6569   0.552   2.374   0.149  0.8338  0.1693  0.1591
 2188TIP3    H1 6570   0.537   2.280   0.160  1.2110  0.1608  0.6242
 2188TIP3    H2 6571   0.635   2.391   0.194 -0.5329  1.1979  2.4318
 2189TIP3   OH2 6572   1.151   2.535   4.062 -0.4438  0.1384 -0.2140
 2189TIP3    H1 6573   1.157   2.532   3.966 -1.0863 -1.3361 -0.2300
 2189TIP3    H2 6574   1.101   2.615   4.080 -0.3395  0.4168 -1.1115
 2190TIP3   OH2 6575   0.886   0.714   1.252 -0.4530  0.9117  0.2727
 2190TIP3    H1 6576   0.837   0.789   1.285 -0.5457  1.7084 -1.5954
 2190TIP3    H2 6577   0.924   0.744   1.170  1.4777 -0.3543  0.6456
 2191TIP3   OH2 6578   5.521   3.876   4.937 -0.1562 -0.0147 -0.0876
 2191TIP3    H1 6579   5.470   3.875   5.018  0.2909 -0.4188  0.1952
 2191TIP3    H2 6580   5.485   3.949   4.886 -2.1365 -1.2847 -0.6266
 2192TIP3   OH2 6581   3.807   5.481   5.132  0.5510  0.3138  0.0848
 2192TIP3    H1 6582   3.745   5.502   5.063 -1.8786 -0.1492  1.9943
 2192TIP3    H2 6583   3.847   5.398   5.105 -2.7541 -1.6205  0.6288
 2193TIP3   OH2 6584   5.821   0.425   0.647  0.2419 -0.1272  0.4061
 2193TIP3    H1 6585   5.731   0.453   0.628  0.5851 -0.7907 -2.6365
 2193TIP3    H2 6586   5.868   0.507   0.663 -0.4942  0.3685  0.0931
 2194TIP3   OH2 6587   5.635   4.522   0.053  0.1698 -0.1887  0.3475
 2194TIP3    H1 6588   5.613   4.479   0.136 -0.4350  2.3456  1.5910
 2194TIP3    H2 6589   5.721   4.486   0.030 -0.7392 -2.8373  0.6551
 2195TIP3   OH2 6590   2.382   4.011   2.081 -0.0492  0.6413 -0.6742
 2195TIP3    H1 6591   2.298   3.968   2.096  0.5796 -0.3883  0.1037
 2195TIP3    H2 6592   2.372   4.098   2.119 -1.2127  1.0648 -1.8857
 2196TIP3   OH2 6593   5.127   4.290   2.980 -0.3935  0.7600  0.3643
 2196TIP3    H1 6594   5.146   4.279   2.886 -1.1393 -1.3094  0.3927
 2196TIP3    H2 6595   5.078   4.371   2.985  0.8747  1.6419 -0.8366
 2197TIP3   OH2 6596   5.099   2.683   1.163  0.1858 -0.5439  0.3164
 2197TIP3    H1 6597   5.097   2.629   1.084  1.0287  2.7003 -2.1743
 2197TIP3    H2 6598   5.190   2.680   1.192  0.5124  0.3189 -0.5298
 2198TIP3   OH2 6599   3.165   1.304   2.524  0.0182  0.7773 -0.4633
 2198TIP3    H1 6600   3.259   1.283   2.526  0.1849  1.3381  2.3758
 2198TIP3    H2 6601   3.122   1.219   2.520  0.6554  0.4600 -0.8221
 2199TIP3   OH2 6602   4.732   4.300   4.659  0.1973  0.2756 -0.6079
 2199TIP3    H1 6603   4.822   4.292   4.690 -0.5656 -1.4678  1.3829
 2199TIP3    H2 6604   4.690   4.359   4.722 -0.8434 -1.6216  0.5685
 2200TIP3   OH2 6605   4.341   4.590   1.964 -0.2798  0.2803 -0.1444
 2200TIP3    H1 6606   4.430   4.576   1.932 -0.2789 -0.1294  0.0268
 2200TIP3    H2 6607   4.334   4.685   1.975  0.4951  0.2453  0.8522
 2201TIP3   OH2 6608   0.425   3.899   4.701 -0.3315  0.5485  0.2735
 2201TIP3    H1 6609   0.496   3.899   4.636 -1.6675  0.8246 -1.2519
 2201TIP3    H2 6610   0.431   3.985   4.742 -0.0147  0.7200 -0.1213
 2202TIP3   OH2 6611   3.933   4.076   2.523  0.1443 -0.3546 -0.3918
 2202TIP3    H1 6612   3.967   4.009   2.582  0.1691  1.5989  1.9764
 2202TIP3    H2 6613   4.007   4.100   2.468  0.3880 -1.5543 -0.6201
 2203TIP3   OH2 6614   4.126   1.191   3.860 -0.2025 -0.1695 -0.1891
 2203TIP3    H1 6615   4.160   1.109   3.896  1.5442  0.6957  0.2331
 2203TIP3    H2 6616   4.115   1.248   3.937  0.7560  0.7260 -0.6922
 2204TIP3   OH2 6617   6.300   1.301   4.161  0.6732 -0.4891  0.0438
 2204TIP3    H1 6618   6.339   1.389   4.165 -0.1835  0.0668 -2.1339
 2204TIP3    H2 6619   6.287   1.276   4.253 -0.1183  2.1637  0.7521
 2205TIP3   OH2 6620   1.809   2.779   4.750 -0.6674  0.5630  0.1415
 2205TIP3    H1 6621   1.844   2.825   4.826  0.0078  1.4755 -0.6958
 2205TIP3    H2 6622   1.875   2.790   4.682 -2.3182  1.9494 -1.3531
 2206TIP3   OH2 6623   5.732   3.658   0.613  0.4731 -0.5812  0.3338
 2206TIP3    H1 6624   5.827   3.654   0.624  0.4987 -0.9207  0.0132
 2206TIP3    H2 6625   5.712   3.588   0.551 -0.1183 -1.2559  1.2635
 2207TIP3   OH2 6626   4.678   0.583   3.750 -0.1312 -0.5477 -0.1720
 2207TIP3    H1 6627   4.729   0.502   3.756 -1.6699 -1.7024 -1.7116
 2207TIP3    H2 6628   4.742   0.652   3.765  1.1392 -2.0208  1.7531
 2208TIP3   OH2 6629   2.310   2.245   3.659 -0.4759  0.3526 -0.1660
 2208TIP3    H1 6630   2.387   2.189   3.651 -1.0931 -0.5824  0.1794
 2208TIP3    H2 6631   2.240   2.195   3.616 -0.4787  2.1041 -2.3585
 2209TIP3   OH2 6632   2.913   2.703   2.817 -0.0885 -0.2349  0.0718
 2209TIP3    H1 6633   2.908   2.799   2.822 -1.2194 -0.2253 -0.8326
 2209TIP3    H2 6634   2.900   2.684   2.724 -3.1282 -1.4105  0.6419
 2210TIP3   OH2 6635   4.223   0.806   0.724 -0.2076  0.0807  0.1885
 2210TIP3    H1 6636   4.199   0.897   0.742 -2.2729 -0.1255 -1.2057
 2210TIP3    H2 6637   4.316   0.801   0.749  0.7009  3.2404 -1.9042
 2211TIP3   OH2 6638   0.138   5.270   0.886  0.1501 -0.0740  0.0141
 2211TIP3    H1 6639   0.217   5.216   0.881  0.3341  0.1123  0.8275
 2211TIP3    H2 6640   0.166   5.356   0.853  0.1886 -0.1151 -0.0621
 2212TIP3   OH2 6641   4.406   3.702   4.850  0.3449  1.0807  0.2138
 2212TIP3    H1 6642   4.411   3.727   4.757  2.1759  3.4574  0.8553
 2212TIP3    H2 6643   4.314   3.677   4.862 -0.3563  2.3090 -1.8949
 2213TIP3   OH2 6644   3.136   4.839   1.492  0.2885 -0.6356  0.0525
 2213TIP3    H1 6645   3.192   4.875   1.423 -0.6771  0.6357 -0.1057
 2213TIP3    H2 6646   3.147   4.898   1.566 -0.1878 -0.8530  0.3032
 2214TIP3   OH2 6647   1.827   3.588   1.877  0.1355 -0.1930  0.7194
 2214TIP3    H1 6648   1.868   3.526   1.816 -0.0159 -0.2345  0.6582
 2214TIP3    H2 6649   1.792   3.657   1.820  0.2635 -0.0765  0.7839
 2215TIP3   OH2 6650   1.115   4.497   1.334  0.4299  0.3197  0.4953
 2215TIP3    H1 6651   1.098   4.427   1.270  0.6917  1.4622 -0.8808
 2215TIP3    H2 6652   1.210   4.496   1.346  0.8557  2.2746 -1.8367
 2216TIP3   OH2 6653   3.192   1.171   5.198 -0.1060  0.4009  0.4223
 2216TIP3    H1 6654   3.104   1.170   5.159 -0.1482  0.2171  0.5243
 2216TIP3    H2 6655   3.249   1.197   5.125 -0.1866  0.0680  0.2363
 2217TIP3   OH2 6656   3.979   5.032   3.762 -0.4340 -0.0080  0.1018
 2217TIP3    H1 6657   3.931   5.045   3.843 -0.8776 -0.2856 -0.1110
 2217TIP3    H2 6658   4.021   5.116   3.745 -1.0139  0.3000  0.1839
 2218TIP3   OH2 6659   0.229   2.659   0.947  0.0947  0.3532  0.4170
 2218TIP3    H1 6660   0.175   2.663   0.868  0.5362  1.1788  0.1405
 2218TIP3    H2 6661   0.208   2.575   0.986 -1.3306  0.6209  0.2811
 2219TIP3   OH2 6662   5.484   3.602   1.805  0.4736  0.2403 -0.6920
 2219TIP3    H1 6663   5.500   3.574   1.896 -1.4068  0.4511 -0.2628
 2219TIP3    H2 6664   5.401   3.561   1.782  0.2328  1.3373 -1.8414
 2220TIP3   OH2 6665   1.111   5.615   1.947  0.0424 -0.3808 -0.4996
 2220TIP3    H1 6666   1.139   5.535   1.991  0.0128 -0.1939 -0.1408
 2220TIP3    H2 6667   1.093   5.587   1.857  1.1233 -0.5507 -0.6669
 2221TIP3   OH2 6668   2.024   2.211   4.753 -0.0731 -0.0283  0.3320
 2221TIP3    H1 6669   2.081   2.227   4.829  1.6413  0.3231 -0.9736
 2221TIP3    H2 6670   2.015   2.296   4.711  0.7630 -0.5707 -1.0206
 2222TIP3   OH2 6671   0.624   3.605   0.559  0.4282  0.0166  0.7596
 2222TIP3    H1 6672   0.642   3.552   0.636  0.7217  1.5568  1.7792
 2222TIP3    H2 6673   0.635   3.695   0.588  2.0554  0.6123 -1.4546
 2223TIP3   OH2 6674   1.700   1.783   1.565 -0.5165 -0.1384 -0.0726
 2223TIP3    H1 6675   1.773   1.833   1.602 -0.3170 -1.2205  1.0595
 2223TIP3    H2 6676   1.691   1.816   1.475 -0.6702  2.1950  0.7524
 2224TIP3   OH2 6677   1.025   4.637   1.973 -0.3614 -1.1786 -0.2576
 2224TIP3    H1 6678   0.964   4.668   1.906 -0.6395 -1.1339  0.0168
 2224TIP3    H2 6679   0.972   4.580   2.030 -0.0862 -1.3583 -0.1766
 2225TIP3   OH2 6680   3.854   2.546   1.890 -0.1401 -0.2975 -0.1769
 2225TIP3    H1 6681   3.885   2.629   1.926 -0.9047 -0.8178  1.8286
 2225TIP3    H2 6682   3.874   2.551   1.796  0.1823  1.9739 -0.0421
 2226TIP3   OH2 6683   2.413   5.931   1.923  0.2352  1.0340 -0.2082
 2226TIP3    H1 6684   2.389   5.914   2.015  0.6642  0.9087 -0.1148
 2226TIP3    H2 6685   2.333   5.963   1.883 -0.8445 -1.8057 -0.5360
 2227TIP3   OH2 6686   3.722   5.925   2.831  0.1927 -0.1606  0.5644
 2227TIP3    H1 6687   3.796   5.981   2.857 -0.5805  1.0506  0.2382
 2227TIP3    H2 6688   3.691   5.887   2.913  0.6972 -0.0792  0.7995
 2228TIP3   OH2 6689   1.220   0.967   3.120  0.2603 -0.1565  0.2175
 2228TIP3    H1 6690   1.179   0.885   3.093 -2.0854  0.9104  0.3353
 2228TIP3    H2 6691   1.237   0.956   3.214 -2.3736  0.3432  0.8164
 2229TIP3   OH2 6692   4.743   5.128   2.456 -0.4864  0.1997 -0.3234
 2229TIP3    H1 6693   4.673   5.064   2.441 -0.0939 -0.6453  1.2913
 2229TIP3    H2 6694   4.736   5.149   2.550 -0.3796  2.2722 -0.7307
 2230TIP3   OH2 6695   0.216   4.243   3.446 -0.4822  0.2407 -0.0779
 2230TIP3    H1 6696   0.296   4.291   3.427  0.2213 -0.5656  0.7418
 2230TIP3    H2 6697   0.230   4.206   3.533 -1.6760 -0.0706  0.0048
 2231TIP3   OH2 6698   3.319   0.980   1.285 -0.0954  0.1042 -0.1411
 2231TIP3    H1 6699   3.295   1.066   1.252 -1.1534  0.3951  1.2800
 2231TIP3    H2 6700   3.247   0.923   1.258  0.5151 -0.3256 -0.9217
 2232TIP3   OH2 6701   1.279   1.853   5.143  0.0294  0.1979  0.1225
 2232TIP3    H1 6702   1.370   1.868   5.119 -0.0716 -0.5920 -0.8266
 2232TIP3    H2 6703   1.236   1.832   5.061 -1.4249  2.3747  0.2516
 2233TIP3   OH2 6704   2.834   0.168   0.595 -0.1288 -0.5420 -0.4753
 2233TIP3    H1 6705   2.776   0.216   0.535 -0.5291  0.2750  0.5435
 2233TIP3    H2 6706   2.889   0.115   0.537  1.6896  2.5688 -1.8075
 2234TIP3   OH2 6707   2.683   3.137   1.224  0.0915  0.5270 -0.1903
 2234TIP3    H1 6708   2.747   3.158   1.157 -0.5407  0.2358 -0.8953
 2234TIP3    H2 6709   2.713   3.185   1.302  2.1867 -1.0558  0.0569
 2235TIP3   OH2 6710   4.266   4.480   1.441  0.9248  0.3726  0.4543
 2235TIP3    H1 6711   4.303   4.392   1.450  1.5057  0.4478 -0.8697
 2235TIP3    H2 6712   4.254   4.511   1.530 -0.8774 -1.6813  1.0305
 2236TIP3   OH2 6713   1.571   0.831   0.606 -0.5108 -0.7644 -0.3813
 2236TIP3    H1 6714   1.545   0.872   0.523  0.5851  2.2441  0.6288
 2236TIP3    H2 6715   1.666   0.837   0.607 -0.5783  1.6598  2.1271
 2237TIP3   OH2 6716   1.512   0.721   2.027  0.2005 -0.4618  0.1258
 2237TIP3    H1 6717   1.488   0.761   1.943 -0.6906  2.4654  1.6259
 2237TIP3    H2 6718   1.608   0.719   2.026  0.2285  0.3427 -0.6392
 2238TIP3   OH2 6719   5.231   5.263   2.688 -0.2422 -0.0065 -0.5498
 2238TIP3    H1 6720   5.192   5.196   2.632 -0.4883  0.6801 -1.2102
 2238TIP3    H2 6721   5.161   5.326   2.702 -0.2202 -0.2289  0.6414
 2239TIP3   OH2 6722   3.248   4.482   4.181  0.3397  0.4029 -0.1112
 2239TIP3    H1 6723   3.161   4.476   4.221  1.3113 -0.7457  1.9750
 2239TIP3    H2 6724   3.231   4.480   4.087 -1.8301 -1.3836  0.2254
 2240TIP3   OH2 6725   5.901   5.921   4.070  0.2844  0.2684  0.0694
 2240TIP3    H1 6726   5.967   5.887   4.011  1.7603 -0.1929  1.8970
 2240TIP3    H2 6727   5.861   5.994   4.022  0.5353 -0.8450 -1.9310
 2241TIP3   OH2 6728   2.537   5.560   1.111  0.0480  0.5630 -0.6175
 2241TIP3    H1 6729   2.531   5.587   1.203 -0.8182  2.6372 -1.2223
 2241TIP3    H2 6730   2.474   5.489   1.103 -2.0728  2.2697 -0.1651
 2242TIP3   OH2 6731   5.867   1.129   2.062  0.0223 -0.1053  0.7093
 2242TIP3    H1 6732   5.836   1.219   2.061 -1.2045 -0.4956 -1.0794
 2242TIP3    H2 6733   5.933   1.126   1.993 -0.6988 -0.7925  0.0256
 2243TIP3   OH2 6734   5.416   2.930   3.746  0.1603  0.6744  0.0448
 2243TIP3    H1 6735   5.475   2.888   3.807  0.7745  0.4291 -0.6998
 2243TIP3    H2 6736   5.365   2.991   3.799 -0.6101 -0.8426  1.1148
 2244TIP3   OH2 6737   3.078   3.544   1.375 -0.0629 -0.1393 -0.3623
 2244TIP3    H1 6738   3.120   3.603   1.312  0.3546  1.0270  0.9504
 2244TIP3    H2 6739   3.115   3.569   1.459 -1.9690 -0.3845  0.6008
 2245TIP3   OH2 6740   3.284   5.717   3.499 -0.3677 -0.5465 -0.2505
 2245TIP3    H1 6741   3.312   5.796   3.453 -0.3866  0.2405  1.0224
 2245TIP3    H2 6742   3.327   5.724   3.585 -1.6060 -1.1287  0.4458
 2246TIP3   OH2 6743   4.218   0.253   4.893  0.1066  0.1572  0.3777
 2246TIP3    H1 6744   4.142   0.246   4.837  0.9554  1.8769 -1.1160
 2246TIP3    H2 6745   4.262   0.168   4.887 -0.2185  0.0696 -0.9949
 2247TIP3   OH2 6746   4.392   5.531   3.212  0.2978  0.1396  0.4257
 2247TIP3    H1 6747   4.350   5.484   3.140  1.9452  0.7613 -1.0064
 2247TIP3    H2 6748   4.363   5.621   3.202  2.0234  0.6214 -0.7133
 2248TIP3   OH2 6749   4.536   1.432   4.706 -0.0831  0.0153 -0.3157
 2248TIP3    H1 6750   4.452   1.473   4.728 -0.4635  0.5276 -2.4978
 2248TIP3    H2 6751   4.595   1.458   4.777 -1.8107 -0.6334  1.4520
 2249TIP3   OH2 6752   4.801   2.345   1.831 -0.4407  0.2510 -0.1042
 2249TIP3    H1 6753   4.859   2.319   1.760 -0.0111 -0.3879  0.4738
 2249TIP3    H2 6754   4.713   2.329   1.798 -0.3102  1.2443 -0.9945
 2250TIP3   OH2 6755   4.787   3.836   4.810  0.2199 -0.3802 -0.0156
 2250TIP3    H1 6756   4.703   3.882   4.815 -1.1193 -2.6308 -0.2817
 2250TIP3    H2 6757   4.823   3.843   4.898  0.8028  2.3069 -0.3713
 2251TIP3   OH2 6758   4.315   2.013   1.540  0.1845 -0.2582  0.2284
 2251TIP3    H1 6759   4.361   2.069   1.603  1.2873  1.9454 -2.3326
 2251TIP3    H2 6760   4.222   2.024   1.561  0.5449 -0.1056  1.8381
 2252TIP3   OH2 6761   4.267   5.204   3.821  0.0284 -0.0177 -0.8727
 2252TIP3    H1 6762   4.310   5.119   3.813  1.7364  0.8040 -0.7542
 2252TIP3    H2 6763   4.266   5.222   3.915  1.0257  0.7455 -0.9936
 2253TIP3   OH2 6764   2.095   3.143   2.916  0.2326  0.1010  0.1552
 2253TIP3    H1 6765   2.059   3.213   2.862  0.7121  1.1823  1.1849
 2253TIP3    H2 6766   2.165   3.105   2.862 -0.0898  0.3558 -0.4492
 2254TIP3   OH2 6767   2.669   0.076   2.758 -0.1224 -0.4890 -0.4847
 2254TIP3    H1 6768   2.727   0.034   2.694 -0.4597  0.4546 -1.4270
 2254TIP3    H2 6769   2.587   0.027   2.751  0.0686 -0.8480 -0.2471
 2255TIP3   OH2 6770   3.800   4.962   2.728 -0.4137 -0.1543  0.1093
 2255TIP3    H1 6771   3.837   5.015   2.799  0.8652 -1.5278  0.5182
 2255TIP3    H2 6772   3.772   4.881   2.771 -1.8522 -0.0578 -0.5836
 2256TIP3   OH2 6773   1.783   1.925   4.752 -0.1995 -0.1957  0.4126
 2256TIP3    H1 6774   1.790   1.952   4.660  1.7719 -1.2348  0.1830
 2256TIP3    H2 6775   1.819   1.836   4.753 -1.0001 -0.5342  2.0658
 2257TIP3   OH2 6776   2.444   3.320   3.744  0.6508 -0.3881  0.5352
 2257TIP3    H1 6777   2.410   3.312   3.833 -0.4629  2.5053  0.4898
 2257TIP3    H2 6778   2.505   3.394   3.748  0.1018  0.2119 -1.2091
 2258TIP3   OH2 6779   4.158   0.911   4.887 -0.1705  0.1683  0.0944
 2258TIP3    H1 6780   4.173   0.995   4.930  1.5572  0.3114 -0.6896
 2258TIP3    H2 6781   4.227   0.854   4.920  0.6697  0.0317 -1.7629
 2259TIP3   OH2 6782   3.271   3.633   4.905 -0.0192  0.6288  0.4554
 2259TIP3    H1 6783   3.259   3.551   4.857 -0.8240  1.0068 -0.0156
 2259TIP3    H2 6784   3.330   3.685   4.851  0.4426  0.3851  0.7240
 2260TIP3   OH2 6785   3.749   3.794   4.304  0.0942 -0.0224  0.2969
 2260TIP3    H1 6786   3.688   3.854   4.345 -0.6699 -1.4108  1.2734
 2260TIP3    H2 6787   3.832   3.809   4.349 -0.8593 -1.9506  2.9453
 2261TIP3   OH2 6788   3.074   3.128   0.600  0.4728 -0.0473 -0.1814
 2261TIP3    H1 6789   3.075   3.040   0.638 -0.0323 -0.1271 -0.3464
 2261TIP3    H2 6790   3.099   3.186   0.673  0.7520 -0.3175 -0.0588
 2262TIP3   OH2 6791   3.448   3.060   0.388 -0.4389  0.6550  0.1654
 2262TIP3    H1 6792   3.469   3.153   0.381 -0.5050  0.8678  2.3422
 2262TIP3    H2 6793   3.530   3.015   0.368  0.5527  1.3062  2.5049
 2263TIP3   OH2 6794   5.661   1.466   5.004  0.4630  0.2322  0.1894
 2263TIP3    H1 6795   5.740   1.491   4.954 -0.1147  1.5884 -0.1052
 2263TIP3    H2 6796   5.631   1.386   4.962  0.6067  0.7582 -0.9680
 2264TIP3   OH2 6797   2.056   2.165   3.591 -0.1715 -0.4241  0.7780
 2264TIP3    H1 6798   1.984   2.143   3.532  0.4891 -1.4932  0.3351
 2264TIP3    H2 6799   2.015   2.216   3.661 -1.0793  0.3563 -0.2692
 2265TIP3   OH2 6800   1.260   3.849   3.184  0.0565  0.3838  0.0977
 2265TIP3    H1 6801   1.328   3.785   3.164  0.3672 -0.2047  2.7354
 2265TIP3    H2 6802   1.178   3.799   3.181  0.1420  0.2073  0.6426
 2266TIP3   OH2 6803   1.293   5.278   2.760 -0.1995  0.0872 -0.2665
 2266TIP3    H1 6804   1.366   5.227   2.794 -0.4462 -0.1863 -0.1446
 2266TIP3    H2 6805   1.328   5.320   2.681  0.1981  0.2502 -0.0078
 2267TIP3   OH2 6806   0.167   0.765   4.915 -0.6264  0.6550 -0.3049
 2267TIP3    H1 6807   0.193   0.701   4.982  0.8525  0.6196 -0.8595
 2267TIP3    H2 6808   0.220   0.842   4.934  1.7633 -0.1874 -2.8309
 2268TIP3   OH2 6809   4.326   4.166   0.413  0.3339 -0.6270  0.1688
 2268TIP3    H1 6810   4.379   4.089   0.394  0.4113 -0.5333  0.0002
 2268TIP3    H2 6811   4.366   4.236   0.361  0.8402 -0.2534  1.0280
 2269TIP3   OH2 6812   4.778   3.643   0.123 -0.1370  0.2032  0.0837
 2269TIP3    H1 6813   4.829   3.697   0.063 -0.7858  0.2142 -0.4815
 2269TIP3    H2 6814   4.687   3.666   0.104 -0.5763 -2.4067 -1.5361
 2270TIP3   OH2 6815   1.164   4.516   5.129  0.1614 -0.3463 -0.3334
 2270TIP3    H1 6816   1.174   4.593   5.072 -0.2538 -0.2374 -0.2631
 2270TIP3    H2 6817   1.197   4.545   5.214  1.6461 -0.7887 -0.7202
 2271TIP3   OH2 6818   0.138   2.990   4.794 -0.1165  0.3574  0.4806
 2271TIP3    H1 6819   0.065   2.981   4.732  0.0357  1.1674  0.1609
 2271TIP3    H2 6820   0.097   2.989   4.880 -0.2941 -1.1383  0.3950
 2272TIP3   OH2 6821   2.273   2.177   4.994 -0.3101  0.2311 -0.1509
 2272TIP3    H1 6822   2.251   2.142   5.080 -0.2871  0.2816 -0.1245
 2272TIP3    H2 6823   2.281   2.271   5.008 -0.8208  0.2993 -0.3169
 2273TIP3   OH2 6824   1.118   4.781   3.407 -0.3228 -0.6555 -0.4178
 2273TIP3    H1 6825   1.172   4.827   3.342 -0.9088 -1.4941 -1.5451
 2273TIP3    H2 6826   1.143   4.689   3.397 -1.9277 -1.0599 -0.9738
 2274TIP3   OH2 6827   0.523   4.039   1.726  0.0873 -0.6502 -0.1394
 2274TIP3    H1 6828   0.518   4.051   1.821 -0.2236 -0.5394 -0.1692
 2274TIP3    H2 6829   0.448   4.088   1.692  0.3375 -0.4893 -0.4597
 2275TIP3   OH2 6830   4.816   1.843   2.280  0.5184 -0.0640  0.0423
 2275TIP3    H1 6831   4.772   1.819   2.361  0.0107 -0.2961 -0.2930
 2275TIP3    H2 6832   4.904   1.870   2.307  0.7714 -1.3421  0.5393
 2276TIP3   OH2 6833   5.119   0.651   4.176 -0.2285 -0.3294 -0.4932
 2276TIP3    H1 6834   5.183   0.580   4.180 -0.0221 -0.0910  1.0154
 2276TIP3    H2 6835   5.093   0.655   4.084  1.7733 -0.5720 -1.1162
 2277TIP3   OH2 6836   2.029   5.509   2.195  0.2053 -0.1737 -0.0174
 2277TIP3    H1 6837   1.977   5.525   2.115  0.3603 -1.9391 -0.5048
 2277TIP3    H2 6838   2.120   5.521   2.167  0.2390 -0.4191 -0.0127
 2278TIP3   OH2 6839   3.600   2.732   4.972  0.3195 -0.0780 -0.0909
 2278TIP3    H1 6840   3.687   2.695   4.987  0.7546  0.0606 -2.0038
 2278TIP3    H2 6841   3.615   2.827   4.968  0.4271 -0.1386 -2.1433
 2279TIP3   OH2 6842   3.530   5.685   3.314 -0.5286 -0.3794 -0.2166
 2279TIP3    H1 6843   3.622   5.666   3.294 -0.5279  0.6761 -1.2797
 2279TIP3    H2 6844   3.533   5.768   3.361 -0.7466 -1.6367  2.1699
 2280TIP3   OH2 6845   4.966   2.153   0.358  0.2122  0.2062  0.1356
 2280TIP3    H1 6846   4.916   2.077   0.386  0.2500  0.2031  0.1939
 2280TIP3    H2 6847   4.910   2.195   0.292  0.1910  0.1295  0.1044
 2281TIP3   OH2 6848   6.149   1.210   2.273  0.6973  0.5250  0.0104
 2281TIP3    H1 6849   6.141   1.119   2.244 -0.0719  0.8526 -0.8499
 2281TIP3    H2 6850   6.103   1.213   2.357 -0.5914  0.4259 -0.6626
 2282TIP3   OH2 6851   2.101   1.735   1.854 -0.2476 -0.0885 -0.2299
 2282TIP3    H1 6852   2.166   1.692   1.798  0.5900  0.1618  0.5265
 2282TIP3    H2 6853   2.153   1.781   1.919 -1.2012 -0.0131  0.4887
 2283TIP3   OH2 6854   0.716   3.418   2.052 -0.2277  0.7189 -0.3270
 2283TIP3    H1 6855   0.790   3.358   2.063 -0.0136  1.1722  0.9494
 2283TIP3    H2 6856   0.645   3.363   2.019 -0.0850 -0.2951  0.9733
 2284TIP3   OH2 6857   5.867   1.219   4.596  0.7043 -0.2865  0.6340
 2284TIP3    H1 6858   5.777   1.248   4.581  1.6116  1.7222 -1.4253
 2284TIP3    H2 6859   5.894   1.263   4.677  0.0984 -0.2845  0.8358
 2285TIP3   OH2 6860  -0.015   5.666   3.254  0.5010 -0.2090 -0.1016
 2285TIP3    H1 6861  -0.002   5.737   3.192  2.2266 -0.5668 -0.2232
 2285TIP3    H2 6862   0.032   5.693   3.333 -2.1226  0.4932  1.3434
 2286TIP3   OH2 6863   4.254   5.315   4.496  0.2071  0.0869  0.2722
 2286TIP3    H1 6864   4.189   5.249   4.470  0.8799 -0.6449  0.4090
 2286TIP3    H2 6865   4.299   5.339   4.415 -0.0800  0.4336  0.2125
 2287TIP3   OH2 6866   6.156   2.905   4.404  0.0696 -0.0349 -0.4406
 2287TIP3    H1 6867   6.094   2.844   4.444  0.7979 -0.1066  0.6089
 2287TIP3    H2 6868   6.182   2.963   4.475  0.8051  0.3377 -1.0015
 2288TIP3   OH2 6869   1.659   0.023   0.843 -0.1215 -0.1287  0.0130
 2288TIP3    H1 6870   1.723   0.055   0.907  0.3811  1.0752 -1.0474
 2288TIP3    H2 6871   1.688  -0.067   0.823  0.9219  0.1969 -0.0220
 2289TIP3   OH2 6872   3.878   3.011   3.563 -0.4132  0.3830  0.1061
 2289TIP3    H1 6873   3.970   3.010   3.538 -0.4102  0.0069  0.1200
 2289TIP3    H2 6874   3.854   2.918   3.569 -1.2367  0.4568 -1.4872
 2290TIP3   OH2 6875   3.753   0.948   3.502 -0.1641  0.7233 -0.0976
 2290TIP3    H1 6876   3.705   1.001   3.565  1.5937  0.5149  1.5271
 2290TIP3    H2 6877   3.844   0.975   3.512  0.4123 -0.6437 -1.2270
 2291TIP3   OH2 6878   1.125   2.936   3.731 -0.1225  0.3338 -0.8193
 2291TIP3    H1 6879   1.048   2.993   3.727 -0.2425  0.2189 -0.1539
 2291TIP3    H2 6880   1.198   2.992   3.704 -0.3936  0.5143 -1.1962
 2292TIP3   OH2 6881   2.417   0.236   1.813 -0.1663  0.5780 -0.0457
 2292TIP3    H1 6882   2.444   0.306   1.754  0.9427 -0.0604 -0.3299
 2292TIP3    H2 6883   2.493   0.221   1.870 -0.5843 -0.0182  0.3718
 2293TIP3   OH2 6884   3.440   5.531   1.256 -0.2168  0.0534 -0.4489
 2293TIP3    H1 6885   3.430   5.570   1.342 -0.4335  0.5675 -0.7038
 2293TIP3    H2 6886   3.401   5.595   1.196 -4.2604 -2.2407 -0.5805
 2294TIP3   OH2 6887   2.720   3.728   2.677  0.3833  0.0800  0.2204
 2294TIP3    H1 6888   2.641   3.689   2.640  0.3948  0.2332  0.0345
 2294TIP3    H2 6889   2.689   3.809   2.718  0.5013  0.3165 -0.1582
 2295TIP3   OH2 6890   5.936   5.448   4.524  0.5158  0.1437  0.2650
 2295TIP3    H1 6891   5.990   5.520   4.492  0.5788  0.4680  1.0799
 2295TIP3    H2 6892   5.872   5.489   4.582 -0.6093 -0.2385 -0.6767
 2296TIP3   OH2 6893   5.965   4.025   2.330 -0.4618  0.6098 -0.3844
 2296TIP3    H1 6894   5.936   3.934   2.343 -0.2719  0.6928  0.7178
 2296TIP3    H2 6895   6.024   4.042   2.404  0.3691  1.2816 -1.1832
 2297TIP3   OH2 6896   5.644   1.668   1.898 -0.0533  0.2777 -0.4019
 2297TIP3    H1 6897   5.726   1.633   1.863  1.0511  1.4272  0.9530
 2297TIP3    H2 6898   5.581   1.596   1.888  1.5135 -1.2069  0.0499
 2298TIP3   OH2 6899   5.309   2.597   1.352 -0.4177  0.0863 -0.1971
 2298TIP3    H1 6900   5.322   2.599   1.446  0.7673 -0.7022 -0.3272
 2298TIP3    H2 6901   5.383   2.646   1.316  0.3753 -1.4730 -0.7939
 2299TIP3   OH2 6902   5.891   3.251   3.546 -0.3510  0.2988  0.4986
 2299TIP3    H1 6903   5.861   3.260   3.636  3.0724 -0.5037  1.8734
 2299TIP3    H2 6904   5.920   3.339   3.521 -0.4517  0.3336  0.5037
 2300TIP3   OH2 6905   6.287   0.916   4.585 -0.3913  0.0766  0.0990
 2300TIP3    H1 6906   6.370   0.951   4.618  0.6892 -0.5373 -1.8579
 2300TIP3    H2 6907   6.240   0.993   4.551 -0.1443  0.2725  0.1968
 2301TIP3   OH2 6908   6.127   3.667   2.822 -0.3766 -0.0040 -0.3910
 2301TIP3    H1 6909   6.211   3.709   2.844 -0.1569 -0.4280 -0.4007
 2301TIP3    H2 6910   6.089   3.645   2.907 -0.7998  0.7934 -0.3633
 2302TIP3   OH2 6911   2.179   2.548   1.206 -0.3237 -0.2567 -0.2146
 2302TIP3    H1 6912   2.234   2.601   1.263 -0.2787  0.0375 -0.5300
 2302TIP3    H2 6913   2.184   2.590   1.121 -0.7612 -0.4268 -0.3312
 2303TIP3   OH2 6914   1.582   1.641   5.098 -0.1799 -0.2802  0.2230
 2303TIP3    H1 6915   1.672   1.609   5.102  0.4650  1.5115  2.9723
 2303TIP3    H2 6916   1.591   1.735   5.084 -1.4011  0.3625  3.1493
 2304TIP3   OH2 6917   5.158   3.837   1.875  0.0917  0.1949 -0.1106
 2304TIP3    H1 6918   5.250   3.859   1.893  0.5103 -0.6049 -1.1631
 2304TIP3    H2 6919   5.108   3.900   1.927  1.2315  1.2286 -0.2224
 2305TIP3   OH2 6920   5.164   3.075   4.811 -0.5272  0.3081  0.2160
 2305TIP3    H1 6921   5.166   3.128   4.891 -0.8973 -0.4752  0.7605
 2305TIP3    H2 6922   5.177   2.985   4.842  1.1944  0.1640 -0.7878
 2306TIP3   OH2 6923   4.441   2.030   0.255 -0.3059  0.0599 -0.1555
 2306TIP3    H1 6924   4.478   2.066   0.336  0.9638 -0.7729 -0.3469
 2306TIP3    H2 6925   4.389   2.102   0.219 -1.0389  0.3972  1.4713
 2307TIP3   OH2 6926   5.582   2.541   0.453  0.3023 -0.4546  0.2419
 2307TIP3    H1 6927   5.513   2.508   0.511  0.4430 -2.7908 -0.8022
 2307TIP3    H2 6928   5.541   2.611   0.404 -1.0909 -1.2358  0.2443
 2308TIP3   OH2 6929   1.899   0.276   4.288 -0.8614  0.4886 -0.2768
 2308TIP3    H1 6930   1.808   0.290   4.315 -0.2313  0.8645  1.8243
 2308TIP3    H2 6931   1.949   0.273   4.369  0.8600 -1.1110 -1.2921
 2309TIP3   OH2 6932   2.136   1.482   3.378 -0.4504 -0.1399 -0.2968
 2309TIP3    H1 6933   2.105   1.396   3.351  0.1785 -1.2688  2.2845
 2309TIP3    H2 6934   2.230   1.482   3.358  0.0397 -1.0198  1.7206
 2310TIP3   OH2 6935   2.945   0.541   0.733 -0.3644  0.0277 -0.0782
 2310TIP3    H1 6936   3.026   0.577   0.768  0.3139 -1.6465  0.1660
 2310TIP3    H2 6937   2.883   0.549   0.806  0.2275 -0.7397  0.5358
 2311TIP3   OH2 6938   1.537   4.089   1.842  0.0487  0.1184  0.2952
 2311TIP3    H1 6939   1.495   4.146   1.777 -1.8319 -0.9612  0.4860
 2311TIP3    H2 6940   1.509   4.126   1.926  0.2253 -0.0906  0.4448
 2312TIP3   OH2 6941   3.433   3.469   4.514 -0.1626 -0.0388 -0.2330
 2312TIP3    H1 6942   3.418   3.540   4.451 -1.6491 -0.7815 -0.7545
 2312TIP3    H2 6943   3.521   3.437   4.493  0.2309  1.1445 -0.4754
 2313TIP3   OH2 6944   2.328   5.602   1.329  0.3954 -0.3411  0.4520
 2313TIP3    H1 6945   2.308   5.651   1.408  1.5704 -1.1322  1.2576
 2313TIP3    H2 6946   2.316   5.510   1.354  2.1852 -0.6851  0.1547
 2314TIP3   OH2 6947   0.772   4.142   3.350 -0.4563 -0.0540  0.1659
 2314TIP3    H1 6948   0.734   4.055   3.364 -1.6859  0.4798  0.2906
 2314TIP3    H2 6949   0.713   4.185   3.288  0.4921  0.4757 -0.3958
 2315TIP3   OH2 6950   2.661   3.343   1.518  0.4757 -0.5164  0.2710
 2315TIP3    H1 6951   2.732   3.340   1.453  1.0147 -0.0260  0.8332
 2315TIP3    H2 6952   2.675   3.266   1.573 -0.6366 -1.5726 -0.8416
 2316TIP3   OH2 6953   5.093   2.388   2.158 -0.5082  0.4631 -0.1892
 2316TIP3    H1 6954   5.175   2.424   2.192 -0.4155  0.2427 -0.1794
 2316TIP3    H2 6955   5.039   2.465   2.142  0.1285  0.6889 -1.3296
 2317TIP3   OH2 6956   1.023   0.188   2.988 -0.1505 -0.0755  0.0348
 2317TIP3    H1 6957   1.042   0.165   2.898 -0.1688 -1.4742  0.3707
 2317TIP3    H2 6958   0.928   0.188   2.994 -0.1868  1.3688 -0.2651
 2318TIP3   OH2 6959   5.404   3.870   1.987 -0.2622  0.1390  0.0799
 2318TIP3    H1 6960   5.399   3.864   2.083 -2.3206 -0.0830  0.0184
 2318TIP3    H2 6961   5.491   3.905   1.969 -0.5199  2.0455  2.1316
 2319TIP3   OH2 6962   4.440   1.876   3.740 -0.0896  0.3598  0.0752
 2319TIP3    H1 6963   4.520   1.878   3.792 -1.2571  0.5133  1.9332
 2319TIP3    H2 6964   4.471   1.859   3.651  1.8830 -1.6931  1.0298
 2320TIP3   OH2 6965   5.004   4.421   1.116  0.1502  0.4504 -0.5106
 2320TIP3    H1 6966   4.921   4.468   1.126 -0.6132 -0.5776 -1.6439
 2320TIP3    H2 6967   5.027   4.433   1.024  0.0273 -1.1791 -0.7905
 2321TIP3   OH2 6968   4.315   4.062   1.421 -0.0480 -0.4589 -0.3825
 2321TIP3    H1 6969   4.366   4.137   1.391 -0.4219 -0.5644 -1.2890
 2321TIP3    H2 6970   4.359   3.986   1.383  1.5398 -0.9376  2.1230
 2322TIP3   OH2 6971   6.207   0.959   4.170 -0.0933 -0.0412 -0.1641
 2322TIP3    H1 6972   6.179   0.912   4.092 -0.0029 -0.4807  0.0651
 2322TIP3    H2 6973   6.262   0.896   4.218  1.2979  0.7851 -0.6033
 2323TIP3   OH2 6974   5.660   2.508   2.879 -0.4685 -0.0749  0.4318
 2323TIP3    H1 6975   5.612   2.591   2.881 -1.3362 -0.4638 -1.6414
 2323TIP3    H2 6976   5.651   2.474   2.968 -1.4342  1.3028  0.9135
 2324TIP3   OH2 6977   0.964   3.746   3.534  0.7955  0.1051  0.1236
 2324TIP3    H1 6978   1.047   3.743   3.485  0.3178  1.0939 -0.7773
 2324TIP3    H2 6979   0.978   3.814   3.599  1.0231 -0.4205  0.6408
 2325TIP3   OH2 6980   4.540   0.959   2.064 -0.1041 -0.0785 -0.0124
 2325TIP3    H1 6981   4.549   0.864   2.066  0.5980 -0.0111  0.1394
 2325TIP3    H2 6982   4.536   0.985   2.156  2.2583  0.2592  0.0436
 2326TIP3   OH2 6983   5.891   0.295   1.552  0.4566 -0.1896 -0.3576
 2326TIP3    H1 6984   5.951   0.344   1.608 -0.4111  1.7138 -0.9940
 2326TIP3    H2 6985   5.927   0.206   1.549  0.7256 -0.3096  2.9109
 2327TIP3   OH2 6986   6.181   1.478   4.551 -0.2092  0.7391  0.3107
 2327TIP3    H1 6987   6.199   1.571   4.537  1.3406  0.6867  1.7082
 2327TIP3    H2 6988   6.101   1.477   4.604 -0.2792  1.2711  0.2200
 2328TIP3   OH2 6989   6.246   1.838   0.964 -0.3150  0.1368  0.3729
 2328TIP3    H1 6990   6.290   1.829   1.049  0.0805 -0.8015  0.0824
 2328TIP3    H2 6991   6.263   1.755   0.919  0.8002  1.1667 -1.2349
 2329TIP3   OH2 6992   1.076   3.355   3.788 -1.1981 -0.4836  0.2210
 2329TIP3    H1 6993   1.075   3.314   3.702  1.0475 -1.5936  0.6347
 2329TIP3    H2 6994   0.985   3.359   3.815 -1.9391 -0.2571 -2.1156
 2330TIP3   OH2 6995   3.870   2.019   2.675  0.3007  0.0714 -0.1671
 2330TIP3    H1 6996   3.799   1.958   2.696 -0.0430  0.4266 -0.2802
 2330TIP3    H2 6997   3.870   2.081   2.748 -0.0028  0.5089 -0.5282
 2331TIP3   OH2 6998   4.930   5.876   4.805  0.2544  0.4783 -0.0405
 2331TIP3    H1 6999   4.906   5.835   4.888  1.3641  0.9316  0.5331
 2331TIP3    H2 7000   4.850   5.918   4.775 -0.6559 -1.2487 -0.1508
 2332TIP3   OH2 7001   4.289   4.015   4.707 -0.3240  0.0503  0.0438
 2332TIP3    H1 7002   4.243   4.061   4.637 -0.7169 -0.2989  0.0730
 2332TIP3    H2 7003   4.224   4.007   4.777 -0.0740 -0.0231  0.2684
 2333TIP3   OH2 7004   3.134   0.111   1.590 -0.2238 -0.1716 -0.5314
 2333TIP3    H1 7005   3.183   0.055   1.530  0.2612  1.8364 -2.1076
 2333TIP3    H2 7006   3.201   0.165   1.631 -0.9604  2.6134 -2.7115
 2334TIP3   OH2 7007   5.256   4.368   4.737  0.3318  0.4919  0.0157
 2334TIP3    H1 7008   5.275   4.278   4.764  0.9751  0.5879 -0.1097
 2334TIP3    H2 7009   5.282   4.372   4.645 -1.9623  0.1314 -0.7146
 2335TIP3   OH2 7010   4.123   3.682   2.121 -0.1089  0.2797  0.4813
 2335TIP3    H1 7011   4.138   3.697   2.027 -1.8342 -1.7468 -0.2029
 2335TIP3    H2 7012   4.192   3.621   2.147 -0.5346 -0.3732  0.1147
 2336TIP3   OH2 7013   3.279   2.570   3.595 -0.0456 -0.4687 -0.4456
 2336TIP3    H1 7014   3.191   2.551   3.627  0.5562 -1.0139  0.9204
 2336TIP3    H2 7015   3.326   2.487   3.602  0.3726 -0.3954 -1.9425
 2337TIP3   OH2 7016   3.073   5.691   1.816  0.0952 -0.0536  0.1381
 2337TIP3    H1 7017   3.071   5.615   1.874 -1.6852 -0.5185 -0.4802
 2337TIP3    H2 7018   3.027   5.760   1.864 -2.4309 -0.7796 -1.0876
 2338TIP3   OH2 7019   3.726   4.384   1.469  0.2414 -0.3758 -0.2058
 2338TIP3    H1 7020   3.765   4.388   1.381 -0.9038 -2.9024 -0.9049
 2338TIP3    H2 7021   3.672   4.463   1.474 -1.0223 -1.0147 -2.5024
 2339TIP3   OH2 7022   6.117   3.420   4.009  0.3920 -0.3699  0.4308
 2339TIP3    H1 7023   6.131   3.346   4.068 -0.3458  0.1929  1.3382
 2339TIP3    H2 7024   6.204   3.458   3.997  0.5281 -0.4121  1.2665
 2340TIP3   OH2 7025   3.308   2.110   2.472 -0.6529  0.0275  0.1418
 2340TIP3    H1 7026   3.258   2.147   2.544  0.2197 -0.9544  1.2844
 2340TIP3    H2 7027   3.398   2.139   2.488 -0.0660 -1.9928  0.7018
 2341TIP3   OH2 7028   4.617   0.703   2.136 -0.0192 -0.1187 -0.2693
 2341TIP3    H1 7029   4.547   0.670   2.193  1.9121 -1.2818  1.5665
 2341TIP3    H2 7030   4.605   0.656   2.054 -2.4432  1.0645 -0.6917
 2342TIP3   OH2 7031   3.253   3.458   0.581  0.2901  0.2031 -0.3071
 2342TIP3    H1 7032   3.173   3.441   0.532 -0.1115  2.2377 -0.4542
 2342TIP3    H2 7033   3.312   3.497   0.517  0.6567  0.6050  0.2681
 2343TIP3   OH2 7034   1.780   3.889   1.382 -0.9754  0.2024 -0.4645
 2343TIP3    H1 7035   1.786   3.882   1.477 -0.5664 -1.0403 -0.5590
 2343TIP3    H2 7036   1.722   3.964   1.367 -0.2779  1.0293  0.7417
 2344TIP3   OH2 7037   0.810   0.297   4.892 -0.2704  0.6648 -0.3876
 2344TIP3    H1 7038   0.730   0.330   4.851 -2.2491 -1.8030  1.1291
 2344TIP3    H2 7039   0.827   0.356   4.965 -2.4670 -0.2862  0.9924
 2345TIP3   OH2 7040   2.429   1.940   2.509 -0.7309 -0.0489  0.5413
 2345TIP3    H1 7041   2.409   1.874   2.443 -2.9294 -0.3816  1.4460
 2345TIP3    H2 7042   2.445   2.020   2.458  0.8751 -0.9656 -0.4998
 2346TIP3   OH2 7043   4.528   2.445   3.511 -0.1563  0.3723 -0.1448
 2346TIP3    H1 7044   4.561   2.422   3.423 -1.0571 -0.7083 -0.2153
 2346TIP3    H2 7045   4.567   2.379   3.568  2.0036  2.1853  0.6415
 2347TIP3   OH2 7046   2.731   2.902   2.611  0.5309  0.1152  0.0835
 2347TIP3    H1 7047   2.649   2.874   2.653  0.2205 -0.1678 -0.6866
 2347TIP3    H2 7048   2.775   2.955   2.677  0.6459 -1.3566  1.2368
 2348TIP3   OH2 7049   1.672   3.870   1.940  0.1783  1.2964  0.4290
 2348TIP3    H1 7050   1.632   3.955   1.922 -1.3905  0.3891 -0.6835
 2348TIP3    H2 7051   1.659   3.820   1.859  4.6020  1.2251 -0.4936
 2349TIP3   OH2 7052   2.644   4.054   4.512 -0.5451  0.1484  0.7256
 2349TIP3    H1 7053   2.585   3.979   4.502  0.5797 -0.7401  0.5855
 2349TIP3    H2 7054   2.603   4.107   4.580 -1.5591 -0.3851  0.5558
 2350TIP3   OH2 7055   6.265   5.406   1.567  0.1463  0.3134  0.1280
 2350TIP3    H1 7056   6.303   5.485   1.528  2.7229  0.8333  3.2659
 2350TIP3    H2 7057   6.245   5.350   1.492 -1.6622  3.7751 -2.2175
 2351TIP3   OH2 7058   4.007   4.042   4.260  0.1453 -0.0312  0.2078
 2351TIP3    H1 7059   3.925   4.060   4.213 -0.1533 -0.5816  0.5178
 2351TIP3    H2 7060   4.058   3.988   4.200 -0.5851 -1.4596  0.8207
 2352TIP3   OH2 7061   0.702   4.849   2.342  0.1419  0.4530 -0.2073
 2352TIP3    H1 7062   0.647   4.917   2.380  0.2557  0.6776 -0.4397
 2352TIP3    H2 7063   0.713   4.784   2.412  0.5268  0.9640  0.2121
 2353TIP3   OH2 7064   1.001   5.840   0.700 -0.8085 -0.7034 -0.2352
 2353TIP3    H1 7065   1.006   5.935   0.687  0.7712 -0.9427 -1.7089
 2353TIP3    H2 7066   0.940   5.810   0.633 -1.7664 -0.6816  0.6135
 2354TIP3   OH2 7067   0.246   2.401   4.559 -0.0068 -0.9383 -0.3305
 2354TIP3    H1 7068   0.304   2.450   4.617  0.0296 -0.6021 -0.6452
 2354TIP3    H2 7069   0.192   2.468   4.517 -1.6089 -1.3218  0.9868
 2355TIP3   OH2 7070   2.708   0.822   1.612 -0.0357 -0.4008 -0.5473
 2355TIP3    H1 7071   2.695   0.866   1.528 -3.0552  0.3387  0.1973
 2355TIP3    H2 7072   2.645   0.750   1.611 -1.6522  0.8472  1.8155
 2356TIP3   OH2 7073   1.582   5.001   2.367 -0.2000  0.3025 -0.0310
 2356TIP3    H1 7074   1.655   5.030   2.312  0.2057  0.3327  0.5220
 2356TIP3    H2 7075   1.617   4.928   2.417 -0.8067 -0.2387 -0.3825
 2357TIP3   OH2 7076   5.813   5.832   2.591 -0.2794 -0.4039  0.4177
 2357TIP3    H1 7077   5.807   5.776   2.514 -1.0073  0.0321  0.1518
 2357TIP3    H2 7078   5.860   5.910   2.560 -0.9653 -0.0335  0.2943
 2358TIP3   OH2 7079   6.262   2.693   3.982  0.0104 -0.0324  0.2490
 2358TIP3    H1 7080   6.231   2.743   3.906  0.5614  1.6135  1.0533
 2358TIP3    H2 7081   6.212   2.728   4.056  2.4988  1.5901  1.3292
 2359TIP3   OH2 7082   3.320   5.320   1.630  0.0437 -0.1321 -0.1842
 2359TIP3    H1 7083   3.247   5.305   1.689 -0.5280  0.2425 -0.7797
 2359TIP3    H2 7084   3.283   5.308   1.543  0.6282  0.3130 -0.5006
 2360TIP3   OH2 7085   2.514   2.624   2.318 -0.1487 -0.4243  0.6968
 2360TIP3    H1 7086   2.455   2.641   2.391  1.4089  0.4635  1.8122
 2360TIP3    H2 7087   2.537   2.711   2.284 -0.8660 -0.8174 -0.8979
 2361TIP3   OH2 7088   0.424   0.603   3.210 -0.3861  0.3416 -0.1371
 2361TIP3    H1 7089   0.422   0.684   3.261  0.3286  0.8238 -0.8418
 2361TIP3    H2 7090   0.451   0.631   3.122 -0.1409 -0.6650 -0.3938
 2362TIP3   OH2 7091   1.276   5.722   0.932 -0.4969 -0.3995  0.5111
 2362TIP3    H1 7092   1.359   5.734   0.979  0.3319 -1.1103 -0.7191
 2362TIP3    H2 7093   1.302   5.688   0.846 -2.1857 -3.1914  0.9800
 2363TIP3   OH2 7094   1.269   5.209   1.945  0.3425 -0.1073  0.3940
 2363TIP3    H1 7095   1.233   5.246   1.864  2.3565 -0.4985 -0.7411
 2363TIP3    H2 7096   1.208   5.138   1.968 -0.3491  0.1137 -0.6849
 2364TIP3   OH2 7097   1.206   5.331   3.333 -0.2411 -0.7509  0.6798
 2364TIP3    H1 7098   1.193   5.274   3.257  0.2614  0.5130 -0.3861
 2364TIP3    H2 7099   1.221   5.271   3.406 -0.4457 -1.9841 -0.2618
 2365TIP3   OH2 7100   4.043   2.360   0.115  0.1120  0.2544 -0.1351
 2365TIP3    H1 7101   4.009   2.373   0.204  0.4471  0.4162 -0.0323
 2365TIP3    H2 7102   3.993   2.422   0.061  0.4418  0.6887  0.0617
 2366TIP3   OH2 7103   3.036   3.833   0.958  0.3389  0.2273 -0.0457
 2366TIP3    H1 7104   3.056   3.798   0.872 -0.6581  1.3061 -0.7422
 2366TIP3    H2 7105   2.979   3.768   0.999  0.9700 -0.3729 -0.1187
 2367TIP3   OH2 7106   4.841   5.965   1.118  0.2267  0.1718  0.3272
 2367TIP3    H1 7107   4.859   5.900   1.186 -3.8606 -0.6089  0.9098
 2367TIP3    H2 7108   4.820   6.045   1.166 -1.5462 -0.0649  0.0144
 2368TIP3   OH2 7109   1.327   2.275   4.359 -0.1379 -0.0046 -0.1394
 2368TIP3    H1 7110   1.248   2.225   4.340  0.6310 -1.3535  0.0623
 2368TIP3    H2 7111   1.369   2.286   4.274 -0.7181  1.0495 -0.3014
 2369TIP3   OH2 7112   5.464   0.772   4.733  0.6672 -0.0926  0.3740
 2369TIP3    H1 7113   5.531   0.836   4.753 -1.2996  1.7379  1.5464
 2369TIP3    H2 7114   5.411   0.766   4.813 -1.0207 -0.8416 -0.7303
 2370TIP3   OH2 7115   1.941   0.674   1.021  0.0420  0.3036 -0.3680
 2370TIP3    H1 7116   1.854   0.675   1.061  1.0650  0.0020  2.0090
 2370TIP3    H2 7117   1.947   0.759   0.977 -0.9858  0.8855  0.5375
 2371TIP3   OH2 7118   3.630   5.266   0.392 -0.5892 -0.1530 -0.2447
 2371TIP3    H1 7119   3.647   5.358   0.372 -1.3540  0.1779  0.5912
 2371TIP3    H2 7120   3.632   5.223   0.306  1.6316  0.3006 -0.4681
 2372TIP3   OH2 7121   5.665   5.123   3.663 -0.0620  0.0366 -0.5981
 2372TIP3    H1 7122   5.599   5.185   3.695  0.6144 -0.2152  1.4412
 2372TIP3    H2 7123   5.614   5.057   3.615 -0.9236  1.4483 -1.7080
 2373TIP3   OH2 7124   1.318   3.569   2.543  0.3000 -0.4276 -0.0805
 2373TIP3    H1 7125   1.259   3.634   2.581 -0.5264 -3.3589  4.3586
 2373TIP3    H2 7126   1.262   3.512   2.490 -0.5496 -1.7279  2.0979
 2374TIP3   OH2 7127   1.818   2.363   2.576 -0.0996  0.2640 -0.2461
 2374TIP3    H1 7128   1.762   2.408   2.640  0.7619  0.7331  0.1988
 2374TIP3    H2 7129   1.819   2.272   2.605  2.1441  0.8651  1.8445
 2375TIP3   OH2 7130   6.126   3.771   0.810  0.6758  0.1798 -0.2357
 2375TIP3    H1 7131   6.154   3.703   0.749  1.7496  1.7764 -1.6149
 2375TIP3    H2 7132   6.191   3.769   0.880 -0.4006 -1.4644  0.7993
 2376TIP3   OH2 7133   4.156   2.785   3.687 -0.0170 -0.3269 -0.0612
 2376TIP3    H1 7134   4.225   2.718   3.692  0.4941 -0.0468 -2.2862
 2376TIP3    H2 7135   4.076   2.739   3.712  0.7557 -0.9916  1.3063
 2377TIP3   OH2 7136   2.851   3.452   2.235 -0.2446  0.0696 -0.7061
 2377TIP3    H1 7137   2.756   3.454   2.223 -0.4675  0.8011  0.9085
 2377TIP3    H2 7138   2.868   3.373   2.286 -0.1813  0.6956  0.2706
 2378TIP3   OH2 7139   5.076   0.940   3.752  0.7048  0.0573 -0.6342
 2378TIP3    H1 7140   5.012   1.001   3.717  1.2990 -0.7140 -3.3078
 2378TIP3    H2 7141   5.115   0.899   3.675  2.7554 -1.2084  0.9542
 2379TIP3   OH2 7142   2.436   1.965   1.903 -0.4751 -0.0377 -0.1299
 2379TIP3    H1 7143   2.375   1.952   1.975 -0.1950 -0.4867  0.0335
 2379TIP3    H2 7144   2.381   1.978   1.826 -0.7763 -0.1293  0.0686
 2380TIP3   OH2 7145   1.235   3.804   3.472  0.0664  0.0422 -0.1903
 2380TIP3    H1 7146   1.266   3.822   3.383  0.3901 -0.5126 -0.1954
 2380TIP3    H2 7147   1.238   3.709   3.479 -1.6413 -0.0329 -0.1770
 2381TIP3   OH2 7148   6.197   4.234   4.079 -0.1530 -0.0135  0.5156
 2381TIP3    H1 7149   6.226   4.300   4.016  0.6887 -0.1878  0.7010
 2381TIP3    H2 7150   6.241   4.154   4.050 -0.0355 -0.1716  1.1242
 2382TIP3   OH2 7151   2.692   5.956   1.795  0.0496 -0.3602  0.2082
 2382TIP3    H1 7152   2.682   6.049   1.818  0.2837  0.3053 -2.1820
 2382TIP3    H2 7153   2.605   5.919   1.812  0.3011 -0.0922  2.4947
 2383TIP3   OH2 7154   3.426   2.113   4.276 -0.0979  0.1233  0.3177
 2383TIP3    H1 7155   3.425   2.042   4.340 -0.2830  0.3275  0.5419
 2383TIP3    H2 7156   3.511   2.155   4.288  0.3253 -0.5354 -0.3391
 2384TIP3   OH2 7157   5.775   0.601   3.255  0.2488 -0.4169  0.2641
 2384TIP3    H1 7158   5.752   0.682   3.208 -0.0983 -0.5756  0.1583
 2384TIP3    H2 7159   5.871   0.598   3.251  0.2547 -0.1137  0.0952
 2385TIP3   OH2 7160   4.513   0.147   2.809  0.2519  0.0189  0.3854
 2385TIP3    H1 7161   4.556   0.076   2.762  1.2610  0.0709  1.2038
 2385TIP3    H2 7162   4.434   0.165   2.758  0.5901 -0.8847 -0.4841
 2386TIP3   OH2 7163   2.636   2.818   3.006  0.0494 -0.3379  0.0072
 2386TIP3    H1 7164   2.707   2.825   2.941 -1.5019 -1.4614 -1.9413
 2386TIP3    H2 7165   2.561   2.860   2.964 -0.5829  0.4802  1.8592
 2387TIP3   OH2 7166   6.297   3.830   4.474  0.0652  0.1638 -0.6249
 2387TIP3    H1 7167   6.343   3.913   4.462 -1.0338  0.6169 -2.0805
 2387TIP3    H2 7168   6.204   3.854   4.482 -0.4425 -0.9425 -2.4188
 2388TIP3   OH2 7169   2.918   0.918   3.886 -0.3168  0.3019  0.0123
 2388TIP3    H1 7170   2.895   0.976   3.959  2.7863  0.3308  1.1482
 2388TIP3    H2 7171   2.932   0.976   3.812  0.1999  0.7232  0.4353
 2389TIP3   OH2 7172   0.569   5.787   2.966  0.4615 -0.2953  0.0822
 2389TIP3    H1 7173   0.565   5.862   2.907  1.5863 -0.2136  0.0867
 2389TIP3    H2 7174   0.582   5.712   2.909 -0.3468 -0.4616  0.1026
 2390TIP3   OH2 7175   6.227   0.737   4.379  0.3787 -0.2735  0.1093
 2390TIP3    H1 7176   6.265   0.649   4.388  0.8593 -0.0004  0.8424
 2390TIP3    H2 7177   6.252   0.782   4.460  1.2276  0.9460 -0.8013
 2391TIP3   OH2 7178   1.779   1.286   1.102  0.0158 -0.3696 -0.0462
 2391TIP3    H1 7179   1.719   1.260   1.172 -2.3751 -0.7078 -2.0617
 2391TIP3    H2 7180   1.724   1.288   1.023  2.5214  0.1258 -1.9093
 2392TIP3   OH2 7181   4.687   3.183   0.830  0.1033 -0.4969  0.6069
 2392TIP3    H1 7182   4.713   3.091   0.826 -2.2429 -1.2065 -0.1796
 2392TIP3    H2 7183   4.598   3.182   0.867  0.1720  1.4895  0.9678
 2393TIP3   OH2 7184   5.754   5.225   3.365  0.0902  0.1160  0.2584
 2393TIP3    H1 7185   5.700   5.178   3.429  0.3772  0.1358  0.5141
 2393TIP3    H2 7186   5.844   5.202   3.387  0.2193  0.5422  0.1930
 2394TIP3   OH2 7187   4.993   5.514   4.155 -0.0010  0.6102  0.1830
 2394TIP3    H1 7188   4.929   5.512   4.226  1.3886 -0.5453  1.4709
 2394TIP3    H2 7189   5.045   5.592   4.171 -0.5757  1.1265 -0.4147
 2395TIP3   OH2 7190   2.897   4.691   0.928 -0.3884 -0.5610  0.4141
 2395TIP3    H1 7191   2.968   4.722   0.984 -0.6790  0.2455  0.3439
 2395TIP3    H2 7192   2.859   4.617   0.976  0.5166 -1.0291  0.4317
 2396TIP3   OH2 7193   3.308   1.128   3.392 -0.0532 -0.6707 -0.0317
 2396TIP3    H1 7194   3.393   1.168   3.411 -0.8825  0.8932  0.5457
 2396TIP3    H2 7195   3.266   1.189   3.332 -1.3455 -0.6689  0.8352
 2397TIP3   OH2 7196   2.537   3.528   0.517  0.2906 -0.1670 -0.4952
 2397TIP3    H1 7197   2.571   3.543   0.429  1.0206 -0.8450 -0.3428
 2397TIP3    H2 7198   2.615   3.529   0.573 -0.2729  1.3025  0.3012
 2398TIP3   OH2 7199   5.678   0.489   2.846 -0.2612 -0.4586 -0.0527
 2398TIP3    H1 7200   5.659   0.396   2.859  0.7515 -0.8145 -0.9690
 2398TIP3    H2 7201   5.616   0.535   2.903 -2.5669 -1.5933 -1.5126
 2399TIP3   OH2 7202   3.921   1.189   0.247  0.5992 -0.1582  0.1133
 2399TIP3    H1 7203   3.957   1.107   0.214  1.8522 -0.3433  1.8027
 2399TIP3    H2 7204   3.965   1.202   0.331 -1.1462  1.1597  0.8818
 2400TIP3   OH2 7205   2.742   0.426   5.067  0.0437 -0.0642 -0.1530
 2400TIP3    H1 7206   2.753   0.391   4.979  4.2137  0.8874 -0.2433
 2400TIP3    H2 7207   2.674   0.492   5.058  2.1241  1.9312 -3.4722
 2401TIP3   OH2 7208   5.424   0.464   3.679  0.0723  0.1085  0.4699
 2401TIP3    H1 7209   5.455   0.418   3.757  0.2454 -0.0325  0.3192
 2401TIP3    H2 7210   5.504   0.501   3.640 -0.3280  3.2832  2.2971
 2402TIP3   OH2 7211   5.177   0.822   0.185 -0.1118 -0.0061  0.1445
 2402TIP3    H1 7212   5.196   0.896   0.127 -0.5801 -0.0037 -0.0075
 2402TIP3    H2 7213   5.155   0.862   0.269 -0.0926  0.0156  0.1392
 2403TIP3   OH2 7214   0.143   0.215   0.090 -0.3141 -0.1141  0.0810
 2403TIP3    H1 7215   0.202   0.211   0.165 -0.4644  0.6062  0.2448
 2403TIP3    H2 7216   0.162   0.136   0.040  1.0366  0.2784 -0.0653
 2404TIP3   OH2 7217   2.490   4.540   2.254  0.2495 -0.3776  0.1865
 2404TIP3    H1 7218   2.406   4.568   2.291  0.2249 -0.4837  0.2128
 2404TIP3    H2 7219   2.555   4.588   2.304  0.2267 -0.7060  0.5414
 2405TIP3   OH2 7220   2.395   1.385   4.930  0.2403 -0.1051 -0.0535
 2405TIP3    H1 7221   2.324   1.387   4.995  0.3945 -0.8424  0.1520
 2405TIP3    H2 7222   2.469   1.346   4.977  1.1769  1.7343  0.0914
 2406TIP3   OH2 7223   5.886   0.494   4.943  0.0228  0.2405 -0.0218
 2406TIP3    H1 7224   5.851   0.582   4.952  0.5525  0.6451 -1.6516
 2406TIP3    H2 7225   5.866   0.452   5.027  0.4328  2.1263  1.0853
 2407TIP3   OH2 7226   3.237   4.671   0.697  0.1112  0.3121  0.2652
 2407TIP3    H1 7227   3.217   4.756   0.656  0.8553  0.2202 -0.2996
 2407TIP3    H2 7228   3.159   4.618   0.679 -1.4528  1.5771  2.7149
 2408TIP3   OH2 7229   6.303   4.106   4.501  0.5091 -0.6104 -0.0979
 2408TIP3    H1 7230   6.226   4.123   4.556  0.1044 -3.2925  0.3050
 2408TIP3    H2 7231   6.307   4.181   4.442 -0.8330  0.9031  1.5989
 2409TIP3   OH2 7232   3.201   0.905   3.121  0.0897 -0.2696 -0.0842
 2409TIP3    H1 7233   3.291   0.935   3.123 -0.3364  1.0416  0.3562
 2409TIP3    H2 7234   3.149   0.982   3.145 -1.1969 -0.7853 -1.0937
 2410TIP3   OH2 7235   0.215   0.567   4.738  0.2425 -0.0596 -0.0085
 2410TIP3    H1 7236   0.212   0.645   4.792 -1.0739  0.1418 -0.3262
 2410TIP3    H2 7237   0.242   0.599   4.652  1.1301 -0.1914  0.2126
 2411TIP3   OH2 7238   5.306   5.673   0.379  0.0375 -0.0941  0.1264
 2411TIP3    H1 7239   5.334   5.602   0.437  0.2297 -0.4970 -0.4525
 2411TIP3    H2 7240   5.246   5.725   0.432  0.6477 -0.1278  0.8719
 2412TIP3   OH2 7241   6.268   0.988   2.149  0.4918 -0.0696 -0.1171
 2412TIP3    H1 7242   6.347   0.977   2.201  1.9046 -2.8253 -2.5711
 2412TIP3    H2 7243   6.292   1.051   2.081  1.9274 -3.3323 -2.8952
 2413TIP3   OH2 7244   2.093   0.015   2.134 -0.4176 -0.3827 -0.3534
 2413TIP3    H1 7245   2.141   0.065   2.067  1.2922 -0.5469  0.6802
 2413TIP3    H2 7246   2.041  -0.048   2.084 -2.8279  2.4363 -1.7452
 2414TIP3   OH2 7247   0.271   0.466   2.873 -0.3660 -0.1115  0.1061
 2414TIP3    H1 7248   0.187   0.511   2.886 -0.3263 -0.4132  1.5452
 2414TIP3    H2 7249   0.316   0.518   2.806 -0.8508  1.2424  0.7994
 2415TIP3   OH2 7250   1.240   4.082   1.813 -0.0315 -0.1295 -0.1530
 2415TIP3    H1 7251   1.241   4.112   1.904  1.7880  0.2852 -0.2814
 2415TIP3    H2 7252   1.151   4.102   1.783 -0.9366 -1.0028  1.7366
 2416TIP3   OH2 7253   0.099   4.445   0.146 -0.3059  0.7474 -0.1966
 2416TIP3    H1 7254   0.038   4.519   0.137 -0.7169  0.3441 -0.7999
 2416TIP3    H2 7255   0.057   4.374   0.098 -0.5759 -0.3001  1.5153
 2417TIP3   OH2 7256   2.845   2.050   2.410 -0.6406  0.3729 -0.2046
 2417TIP3    H1 7257   2.883   2.007   2.487 -2.4346 -0.7717  0.1147
 2417TIP3    H2 7258   2.872   2.141   2.417  0.3649  0.0018  1.0466
 2418TIP3   OH2 7259   4.915   1.196   0.576 -0.5629  0.8161 -0.9852
 2418TIP3    H1 7260   4.912   1.174   0.483 -1.8571 -0.3103 -0.7212
 2418TIP3    H2 7261   4.834   1.244   0.591 -0.3925  0.9296 -0.4217
 2419TIP3   OH2 7262   4.900   1.067   0.284  0.5854  0.3918 -0.1293
 2419TIP3    H1 7263   4.973   1.054   0.345 -0.0742  1.7195  1.0027
 2419TIP3    H2 7264   4.837   0.999   0.308  0.7751  0.2534 -0.0201
 2420TIP3   OH2 7265   4.093   5.095   4.927  0.1622  0.8001  0.1432
 2420TIP3    H1 7266   4.159   5.118   4.992  0.3241  1.9086 -0.3981
 2420TIP3    H2 7267   4.101   5.162   4.859  1.0956 -1.1895 -1.8456
 2421TIP3   OH2 7268   1.801   0.030   3.779 -0.1516  0.0988 -0.3742
 2421TIP3    H1 7269   1.719   0.009   3.822 -0.6138 -1.2265 -1.8120
 2421TIP3    H2 7270   1.776   0.090   3.708  0.6687  2.7152  1.4099
 2422TIP3   OH2 7271   5.541   4.044   2.452  0.2933 -0.2029 -0.2754
 2422TIP3    H1 7272   5.550   4.110   2.520 -0.9719 -0.5838  0.2889
 2422TIP3    H2 7273   5.555   3.961   2.497 -0.7042 -0.4668 -0.4122
 2423TIP3   OH2 7274   1.678   1.609   1.785  0.3508 -0.2268  0.1985
 2423TIP3    H1 7275   1.687   1.633   1.693 -2.3757 -2.7911 -0.8970
 2423TIP3    H2 7276   1.615   1.672   1.820 -0.1289 -0.4446 -0.2600
 2424TIP3   OH2 7277   6.221   1.434   0.386 -0.3176 -0.0855 -0.7845
 2424TIP3    H1 7278   6.295   1.377   0.368 -0.2623 -0.0437 -0.6924
 2424TIP3    H2 7279   6.206   1.481   0.304  0.6202  0.8899 -0.4220
 2425TIP3   OH2 7280   0.246   1.258   4.400  0.3559  0.5700 -0.2640
 2425TIP3    H1 7281   0.151   1.262   4.412  0.4257 -1.5284  1.3955
 2425TIP3    H2 7282   0.279   1.334   4.447 -0.3917  0.1630  0.9672
 2426TIP3   OH2 7283   4.842   2.045   4.160 -0.3322  0.7642 -0.1295
 2426TIP3    H1 7284   4.886   2.025   4.243  0.7338  0.2894 -0.8010
 2426TIP3    H2 7285   4.756   2.004   4.169  0.9765 -2.3595 -0.5906
 2427TIP3   OH2 7286   0.209   2.886   1.650 -0.9080  0.0164 -0.6942
 2427TIP3    H1 7287   0.289   2.894   1.702 -1.7315  0.7525  0.4877
 2427TIP3    H2 7288   0.144   2.850   1.710 -1.7270  0.2961 -1.3858
 2428TIP3   OH2 7289   0.478   2.759   0.952 -0.3767  0.0588 -0.0213
 2428TIP3    H1 7290   0.402   2.710   0.984 -0.8343  1.5330  1.2777
 2428TIP3    H2 7291   0.447   2.801   0.872 -0.9072  0.5681  0.4471
 2429TIP3   OH2 7292   1.003   2.752   4.166 -0.2948  0.7269  0.2002
 2429TIP3    H1 7293   1.067   2.746   4.237 -1.1970  1.0268  1.0723
 2429TIP3    H2 7294   0.982   2.845   4.161  0.3682  0.8245 -1.0395
 2430TIP3   OH2 7295   0.977   1.246   1.844 -0.2249 -0.3553  0.2844
 2430TIP3    H1 7296   1.068   1.223   1.822  0.0330 -1.0415  1.8562
 2430TIP3    H2 7297   0.929   1.164   1.836 -0.0594 -0.7073  2.3518
 2431TIP3   OH2 7298   5.767   3.439   1.298 -0.2120 -0.7745  0.3230
 2431TIP3    H1 7299   5.817   3.445   1.379 -0.0716 -1.5626  0.2992
 2431TIP3    H2 7300   5.707   3.366   1.312 -2.4864  1.1007  0.9532
 2432TIP3   OH2 7301   5.037   2.740   4.286  0.0002  0.4210  0.0225
 2432TIP3    H1 7302   4.995   2.689   4.217  1.6153  1.2568 -1.6779
 2432TIP3    H2 7303   5.116   2.691   4.307  0.5274  1.1709 -0.1736
 2433TIP3   OH2 7304   1.025   4.614   0.038  0.7926 -0.2330 -0.2522
 2433TIP3    H1 7305   1.064   4.689   0.082 -0.3029 -0.2532  0.7818
 2433TIP3    H2 7306   1.029   4.543   0.102  0.0017 -0.5112 -0.4994
 2434TIP3   OH2 7307   3.691   1.192   3.060  0.6801  0.3454 -0.2848
 2434TIP3    H1 7308   3.769   1.170   3.008  0.9583  0.7318 -0.0363
 2434TIP3    H2 7309   3.718   1.268   3.111  0.9799 -1.0281  1.7050
 2435TIP3   OH2 7310   1.460   4.506   2.136  0.5069 -0.4487  0.0998
 2435TIP3    H1 7311   1.528   4.439   2.126 -0.8120 -1.5192 -2.6766
 2435TIP3    H2 7312   1.407   4.476   2.209  0.7368 -1.7528 -0.2326
 2436TIP3   OH2 7313   3.157   3.739   0.723 -0.0216 -0.4962 -0.5430
 2436TIP3    H1 7314   3.191   3.656   0.690 -1.8271 -0.7930 -1.8128
 2436TIP3    H2 7315   3.174   3.801   0.652  0.0654 -0.0901 -0.1698
 2437TIP3   OH2 7316   1.094   5.353   1.769 -0.3349 -0.6239 -0.1914
 2437TIP3    H1 7317   1.012   5.335   1.814 -0.1814  0.2080  0.4627
 2437TIP3    H2 7318   1.072   5.421   1.705 -0.3192 -0.9923 -0.5940
 2438TIP3   OH2 7319   5.213   0.361   0.867  0.5032  0.3111 -0.6908
 2438TIP3    H1 7320   5.131   0.378   0.915 -0.4087 -2.8539 -0.8449
 2438TIP3    H2 7321   5.184   0.341   0.778  1.2532 -1.7982 -0.5225
 2439TIP3   OH2 7322   4.239   2.476   1.669 -0.0706  0.0086 -0.2259
 2439TIP3    H1 7323   4.231   2.429   1.586  1.1010 -0.9023  0.1523
 2439TIP3    H2 7324   4.239   2.407   1.735  1.8492  0.5067  0.3387
 2440TIP3   OH2 7325   1.023   3.440   0.583  0.0254  0.6893 -0.2836
 2440TIP3    H1 7326   1.052   3.395   0.504 -0.6687  0.5190 -0.4453
 2440TIP3    H2 7327   1.096   3.431   0.645  0.3304  0.3181 -0.6990
 2441TIP3   OH2 7328   5.943   0.172   0.645  0.7309  0.2197  0.1266
 2441TIP3    H1 7329   5.864   0.120   0.658  1.7464 -1.4361 -0.0036
 2441TIP3    H2 7330   5.912   0.261   0.631 -1.4603 -0.9392 -3.9047
 2442TIP3   OH2 7331   3.872   2.657   4.912  0.4822 -0.3250 -0.3389
 2442TIP3    H1 7332   3.896   2.565   4.906  0.2867 -0.3967 -0.0555
 2442TIP3    H2 7333   3.849   2.683   4.823  2.5117 -0.0075 -0.8128
 2443TIP3   OH2 7334   5.806   3.027   1.334  0.4817  0.3221  0.2430
 2443TIP3    H1 7335   5.786   2.963   1.266  0.6484 -1.0020  1.3942
 2443TIP3    H2 7336   5.860   3.093   1.290 -0.2369  0.0199 -1.1228
 2444TIP3   OH2 7337   5.775   2.494   4.162 -0.6423  0.1552  0.0690
 2444TIP3    H1 7338   5.702   2.434   4.145 -0.3926 -0.2745  0.4615
 2444TIP3    H2 7339   5.848   2.436   4.187 -0.6662  0.6691  1.4048
 2445TIP3   OH2 7340   0.577   0.677   1.223  0.3887 -0.0829  0.3715
 2445TIP3    H1 7341   0.621   0.709   1.144  0.0786 -1.1086 -0.2428
 2445TIP3    H2 7342   0.495   0.639   1.190  0.0333 -0.0887  1.2473
 2446TIP3   OH2 7343   2.702   3.573   4.727  0.1877  0.0118  0.6354
 2446TIP3    H1 7344   2.762   3.506   4.760  2.0384  0.1717 -2.1009
 2446TIP3    H2 7345   2.708   3.565   4.631 -0.8460  2.9519  0.2395
 2447TIP3   OH2 7346   0.613   5.306   2.971  0.2641  0.0814 -0.1049
 2447TIP3    H1 7347   0.527   5.298   2.929  0.5660  0.2635 -0.7549
 2447TIP3    H2 7348   0.595   5.354   3.052 -0.5315 -1.3936  0.6344
 2448TIP3   OH2 7349   1.669   5.628   4.719  0.4470  0.3013 -0.9133
 2448TIP3    H1 7350   1.749   5.680   4.707  1.3573 -0.0396  2.5938
 2448TIP3    H2 7351   1.617   5.678   4.782 -0.4134 -1.2250 -0.3544
 2449TIP3   OH2 7352   5.981   0.318   1.130 -0.0825 -0.2456 -0.1598
 2449TIP3    H1 7353   5.947   0.368   1.205 -1.8063 -1.3573 -0.1446
 2449TIP3    H2 7354   5.907   0.315   1.069  0.6048 -1.1978 -0.9628
 2450TIP3   OH2 7355   2.987   5.003   4.807 -0.0968  0.1462  0.3482
 2450TIP3    H1 7356   2.995   4.964   4.894 -0.0465 -1.3492 -0.2971
 2450TIP3    H2 7357   3.060   5.065   4.802 -0.3499  0.5689  1.5080
 2451TIP3   OH2 7358   6.101   4.076   2.826  0.0588  0.4190  0.0436
 2451TIP3    H1 7359   6.052   4.017   2.883  0.1830 -0.1475 -0.4184
 2451TIP3    H2 7360   6.167   4.117   2.883 -0.3577  0.4926  0.4729
 2452TIP3   OH2 7361   0.393   4.289   4.433  0.5644 -0.3849 -0.5101
 2452TIP3    H1 7362   0.387   4.261   4.524 -0.3777  0.0782 -0.4099
 2452TIP3    H2 7363   0.311   4.259   4.394  0.4914  0.3271 -0.9318
 2453TIP3   OH2 7364   2.545   0.622   1.326 -0.4017 -0.1003 -0.0327
 2453TIP3    H1 7365   2.595   0.644   1.405 -1.3244 -0.2077  0.6072
 2453TIP3    H2 7366   2.470   0.682   1.328 -1.0214 -0.8491 -0.2170
 2454TIP3   OH2 7367   6.097   1.793   0.654  0.4779 -0.5358 -0.0215
 2454TIP3    H1 7368   6.054   1.754   0.729  0.0612  0.0544  0.0559
 2454TIP3    H2 7369   6.166   1.848   0.691  2.7904 -3.1123 -0.1979
 2455TIP3   OH2 7370   0.439   2.599   2.087  0.0364  0.4521 -0.8203
 2455TIP3    H1 7371   0.454   2.539   2.159  0.1488  1.2023 -0.2032
 2455TIP3    H2 7372   0.344   2.611   2.083  0.1012  1.4062  0.0571
 2456TIP3   OH2 7373   3.658   4.301   3.490 -0.0480 -0.7188  0.0200
 2456TIP3    H1 7374   3.581   4.266   3.535 -1.2399 -2.5830 -3.1366
 2456TIP3    H2 7375   3.712   4.224   3.472  0.8331  0.0711 -0.8591
 2457TIP3   OH2 7376   5.459   1.189   4.649  0.1797  0.0479 -0.1423
 2457TIP3    H1 7377   5.384   1.137   4.622  0.9124 -0.5949 -1.0235
 2457TIP3    H2 7378   5.513   1.196   4.571  0.6069  1.2802  0.2284
 2458TIP3   OH2 7379   2.823   3.818   3.777  0.2423 -0.2612 -0.5820
 2458TIP3    H1 7380   2.760   3.767   3.827  0.2786  0.1553 -0.1047
 2458TIP3    H2 7381   2.831   3.771   3.694  1.6085 -2.0359  0.4900
 2459TIP3   OH2 7382   1.470   1.401   4.737  0.2499 -0.3716  0.0861
 2459TIP3    H1 7383   1.532   1.454   4.689  0.7088  0.0368  1.1003
 2459TIP3    H2 7384   1.460   1.321   4.684 -1.4649  1.1880 -2.1482
 2460TIP3   OH2 7385   1.830   3.924   3.882 -0.0915 -0.1267  0.2858
 2460TIP3    H1 7386   1.817   4.018   3.871 -1.2099 -0.0731  1.6950
 2460TIP3    H2 7387   1.845   3.913   3.976 -1.5013 -1.4889  0.3890
 2461TIP3   OH2 7388   4.498   3.977   3.123  0.0740  0.0684  0.0404
 2461TIP3    H1 7389   4.484   3.976   3.028  0.0715 -0.7626  0.0389
 2461TIP3    H2 7390   4.592   3.960   3.133  0.2064  0.8680  0.1712
 2462TIP3   OH2 7391   3.450   0.754   1.895 -0.2316  0.6772 -0.4474
 2462TIP3    H1 7392   3.474   0.837   1.853  2.3186 -0.6390 -1.8484
 2462TIP3    H2 7393   3.390   0.712   1.834  1.4396 -0.0940 -1.6336
 2463TIP3   OH2 7394   5.487   4.497   5.087  0.2012  0.1693  0.2331
 2463TIP3    H1 7395   5.502   4.518   5.179  1.0306 -0.1142  0.1722
 2463TIP3    H2 7396   5.562   4.444   5.062  0.7729  1.5082 -1.0324
 2464TIP3   OH2 7397   5.318   2.761   4.146  0.7575 -0.3887  0.0218
 2464TIP3    H1 7398   5.330   2.703   4.221 -1.8635 -1.5145 -0.3282
 2464TIP3    H2 7399   5.313   2.702   4.071  2.5750  0.6732 -1.0061
 2465TIP3   OH2 7400   2.958   3.913   1.527  0.9141  0.4583 -0.2194
 2465TIP3    H1 7401   2.953   3.836   1.471 -1.9340  1.3632 -1.3432
 2465TIP3    H2 7402   2.970   3.878   1.615 -0.2020 -1.2820 -0.7200
 2466TIP3   OH2 7403   0.529   5.528   3.198 -0.3739 -0.2047  0.3805
 2466TIP3    H1 7404   0.590   5.601   3.184  0.4360 -0.9732 -0.2766
 2466TIP3    H2 7405   0.447   5.558   3.160  0.2051  0.0185 -0.7481
 2467TIP3   OH2 7406   3.512   2.736   1.357 -0.0591 -0.0512  0.2223
 2467TIP3    H1 7407   3.496   2.649   1.322  1.0987 -0.6017  1.0091
 2467TIP3    H2 7408   3.576   2.775   1.297 -0.1769  0.0636  0.1696
 2468TIP3   OH2 7409   1.580   0.282   2.738 -0.0819  0.3212 -0.3349
 2468TIP3    H1 7410   1.653   0.263   2.796 -0.5419  0.1599  0.1932
 2468TIP3    H2 7411   1.621   0.306   2.655  0.5678  0.2214 -0.0446
 2469TIP3   OH2 7412   4.993   4.314   3.501 -0.2273  0.2728 -0.5552
 2469TIP3    H1 7413   4.939   4.369   3.444 -0.0335 -0.1165 -1.1248
 2469TIP3    H2 7414   5.067   4.289   3.446  0.2213  0.3031  0.0297
 2470TIP3   OH2 7415   4.477   3.924   0.810  0.9039  0.5021 -0.1819
 2470TIP3    H1 7416   4.506   4.015   0.814 -2.1804  1.6084 -0.2694
 2470TIP3    H2 7417   4.437   3.908   0.895  1.4752 -0.8355 -0.1478
 2471TIP3   OH2 7418   5.823   5.728   0.616  0.4884 -0.2220  0.5118
 2471TIP3    H1 7419   5.785   5.816   0.616 -0.9467 -0.8100  0.9954
 2471TIP3    H2 7420   5.856   5.716   0.528 -1.9875 -0.2634 -0.5104
 2472TIP3   OH2 7421   0.347   0.255   2.653 -0.0767 -0.1791  0.3508
 2472TIP3    H1 7422   0.361   0.339   2.695 -1.2362  0.5345 -0.6335
 2472TIP3    H2 7423   0.334   0.276   2.560 -1.8810 -1.2598  0.3094
 2473TIP3   OH2 7424   1.867   2.751   1.649 -0.5072  0.1329  0.0862
 2473TIP3    H1 7425   1.795   2.744   1.585  0.9259  0.6920 -1.6519
 2473TIP3    H2 7426   1.897   2.661   1.660 -1.9304 -0.2266  1.4468
 2474TIP3   OH2 7427   3.011   2.547   3.033  0.4252 -0.3694  0.3324
 2474TIP3    H1 7428   2.995   2.613   2.965  0.9593 -1.4976 -0.9350
 2474TIP3    H2 7429   2.928   2.541   3.081 -0.6772 -0.9806 -1.5258
 2475TIP3   OH2 7430   1.730   0.115   0.157 -0.6474 -0.2252 -0.0823
 2475TIP3    H1 7431   1.774   0.196   0.130 -0.9203 -0.4382 -1.2383
 2475TIP3    H2 7432   1.801   0.057   0.183 -0.4971  0.6589  1.6198
 2476TIP3   OH2 7433   4.545   2.964   1.268 -0.3723 -0.2629 -0.4194
 2476TIP3    H1 7434   4.621   3.012   1.238 -0.8041  0.2014 -0.7923
 2476TIP3    H2 7435   4.478   2.980   1.201 -1.7207  1.6784  1.2624
 2477TIP3   OH2 7436   2.415   1.535   4.488 -0.4046 -0.1429 -0.2063
 2477TIP3    H1 7437   2.450   1.525   4.576  0.2515 -0.3142 -0.4823
 2477TIP3    H2 7438   2.437   1.625   4.464  0.2522 -0.3853 -0.5462
 2478TIP3   OH2 7439   6.029   0.744   2.369  0.1667  0.0650 -0.2767
 2478TIP3    H1 7440   6.049   0.740   2.275 -0.8976  0.2143 -0.5157
 2478TIP3    H2 7441   5.958   0.808   2.376  1.3141  1.2824  0.8230
 2479TIP3   OH2 7442   5.550   3.776   2.840 -0.2161 -0.4597  0.2878
 2479TIP3    H1 7443   5.556   3.725   2.921  0.7797  1.2851  1.3792
 2479TIP3    H2 7444   5.457   3.792   2.828 -0.3098  0.3657  1.8496
 2480TIP3   OH2 7445   5.231   2.721   3.473 -0.2687  0.1743  0.3623
 2480TIP3    H1 7446   5.242   2.716   3.378  0.8404  0.2654  0.4654
 2480TIP3    H2 7447   5.213   2.631   3.500  0.4880 -0.0453  0.1657
 2481TIP3   OH2 7448   3.846   5.268   3.571  0.0759 -0.1049  0.0218
 2481TIP3    H1 7449   3.909   5.245   3.502  1.0671  1.2201  0.4526
 2481TIP3    H2 7450   3.778   5.201   3.564  1.3723 -1.4124 -0.6666
 2482TIP3   OH2 7451   1.756   2.488   0.792  0.3747  0.6637  0.4994
 2482TIP3    H1 7452   1.754   2.544   0.715  0.0501  1.4641  1.0711
 2482TIP3    H2 7453   1.751   2.399   0.758  0.3944  1.0002 -0.4017
 2483TIP3   OH2 7454   5.159   4.782   0.448 -0.3837 -0.7716 -0.3271
 2483TIP3    H1 7455   5.097   4.741   0.509  0.1946 -0.5798  0.4100
 2483TIP3    H2 7456   5.245   4.752   0.478  0.1079  1.3350  0.5680
 2484TIP3   OH2 7457   2.710   5.545   1.700  0.9039  0.1057  0.6821
 2484TIP3    H1 7458   2.692   5.565   1.609  0.4664 -1.8515  0.2993
 2484TIP3    H2 7459   2.649   5.600   1.749 -0.0940 -0.0982 -0.2851
 2485TIP3   OH2 7460   5.109   4.912   4.854  0.5976  0.0991  0.2878
 2485TIP3    H1 7461   5.122   4.933   4.946 -0.6689 -0.1917  0.5448
 2485TIP3    H2 7462   5.155   4.982   4.807  4.7568 -1.8298  1.0222
 2486TIP3   OH2 7463   1.513   4.370   0.374 -0.6284  0.1148  0.0890
 2486TIP3    H1 7464   1.467   4.379   0.457 -1.0443  1.9081 -0.2946
 2486TIP3    H2 7465   1.449   4.397   0.308  0.6048  1.7098 -0.5383
 2487TIP3   OH2 7466   3.870   3.148   2.494  0.4401  0.1673 -0.3354
 2487TIP3    H1 7467   3.821   3.080   2.540  1.7068  0.3735  1.4553
 2487TIP3    H2 7468   3.962   3.131   2.518  0.6943  3.4303  1.6439
 2488TIP3   OH2 7469   3.544   0.241   4.101 -0.3863 -0.5021 -0.1222
 2488TIP3    H1 7470   3.483   0.270   4.169  0.4924 -0.8072  0.8155
 2488TIP3    H2 7471   3.489   0.227   4.024 -1.0882  2.2228 -0.2373
 2489TIP3   OH2 7472   4.230   0.238   1.361  0.1407 -0.0905 -0.3738
 2489TIP3    H1 7473   4.176   0.208   1.434  0.4718  1.2805  0.4814
 2489TIP3    H2 7474   4.167   0.263   1.294 -0.6431  3.8647  1.5052
 2490TIP3   OH2 7475   0.972   1.379   4.396  0.0544 -0.2404  0.5495
 2490TIP3    H1 7476   0.980   1.474   4.399  0.1060 -0.2577  0.9881
 2490TIP3    H2 7477   1.025   1.348   4.470  0.5363 -0.6420  0.0430
 2491TIP3   OH2 7478   0.338   2.787   2.298  0.6549 -0.2770 -0.2444
 2491TIP3    H1 7479   0.425   2.823   2.314  0.6857 -1.0580  1.6612
 2491TIP3    H2 7480   0.319   2.737   2.377 -1.2331 -0.7123 -0.9365
 2492TIP3   OH2 7481   5.373   4.803   0.091 -0.3748  0.6234  0.2654
 2492TIP3    H1 7482   5.324   4.736   0.138  0.1573  0.3218  0.4046
 2492TIP3    H2 7483   5.337   4.801   0.002  0.0348 -0.2823  0.0993
 2493TIP3   OH2 7484   0.991   3.584   2.147 -0.8192  0.0941 -0.9171
 2493TIP3    H1 7485   1.087   3.579   2.150 -0.7710 -4.8275 -1.1691
 2493TIP3    H2 7486   0.969   3.659   2.201  3.1658  0.5830  0.3739
 2494TIP3   OH2 7487   5.341   2.383   2.294  0.2122 -0.5421 -0.2423
 2494TIP3    H1 7488   5.402   2.454   2.279 -0.0607 -0.3327 -0.3781
 2494TIP3    H2 7489   5.314   2.392   2.385 -0.2564 -0.1211 -0.4159
 2495TIP3   OH2 7490   1.075   5.663   3.224  0.1782  0.1195 -0.0057
 2495TIP3    H1 7491   1.144   5.728   3.240 -1.1446  1.9308 -1.2614
 2495TIP3    H2 7492   1.117   5.597   3.169  0.8724  1.3345 -0.9861
 2496TIP3   OH2 7493   4.924   1.459   2.583 -0.1695  0.0979  0.3701
 2496TIP3    H1 7494   4.974   1.519   2.528 -1.0077 -0.4166 -1.0047
 2496TIP3    H2 7495   4.987   1.393   2.610  0.5666  1.1104  1.1903
 2497TIP3   OH2 7496   0.439   2.033   4.010 -0.0494  0.1947 -0.2116
 2497TIP3    H1 7497   0.437   2.093   4.084 -1.0597 -0.5516  0.3951
 2497TIP3    H2 7498   0.362   1.977   4.022 -0.3300  0.1581 -1.9083
 2498TIP3   OH2 7499   1.814   4.130   1.858 -0.4085 -0.0408 -0.2850
 2498TIP3    H1 7500   1.721   4.116   1.845 -0.5688  0.0966  0.6379
 2498TIP3    H2 7501   1.831   4.098   1.947 -0.1006  2.2414  0.5482
 2499TIP3   OH2 7502   0.825   3.567   0.280 -0.2590 -0.0834 -0.0099
 2499TIP3    H1 7503   0.864   3.599   0.361 -0.6704  2.8981 -0.8686
 2499TIP3    H2 7504   0.742   3.615   0.272 -0.2334 -0.2846 -2.1567
 2500TIP3   OH2 7505   0.334   4.556   3.727 -0.1923 -0.3318 -0.2003
 2500TIP3    H1 7506   0.280   4.630   3.699  0.2142 -0.6353 -1.9267
 2500TIP3    H2 7507   0.285   4.514   3.797 -0.9488  0.9214  0.0378
 2501TIP3   OH2 7508   2.409   4.889   4.047 -0.3265 -0.0843  0.0041
 2501TIP3    H1 7509   2.353   4.847   3.982  0.1944  0.4857 -0.8304
 2501TIP3    H2 7510   2.459   4.954   3.998  1.4131 -0.8927  0.6400
 2502TIP3   OH2 7511   2.791   0.649   3.186 -0.4381 -0.4077 -0.0852
 2502TIP3    H1 7512   2.746   0.608   3.112 -0.2753  0.4772 -0.6946
 2502TIP3    H2 7513   2.883   0.649   3.161 -0.2474 -1.0403  0.5886
 2503TIP3   OH2 7514   5.973   2.857   0.384 -0.0279  0.1971 -0.4078
 2503TIP3    H1 7515   5.914   2.926   0.354 -1.0167 -1.0899 -1.5648
 2503TIP3    H2 7516   6.016   2.826   0.304  0.5650 -0.3841  0.1247
 2504TIP3   OH2 7517   4.318   0.642   3.661  0.0678 -0.0445  0.0560
 2504TIP3    H1 7518   4.408   0.611   3.650 -0.9583 -3.0561 -0.6887
 2504TIP3    H2 7519   4.303   0.635   3.756  0.5175  0.1617  0.1462
 2505TIP3   OH2 7520   6.046   1.094   1.859  0.2563  0.1391 -0.4511
 2505TIP3    H1 7521   6.131   1.132   1.838 -0.2079  0.5889 -1.5551
 2505TIP3    H2 7522   6.056   1.001   1.841  0.5519  0.1637 -0.4242
 2506TIP3   OH2 7523   2.077   4.370   3.730  0.0780 -0.0117  0.1365
 2506TIP3    H1 7524   2.063   4.323   3.812 -0.8717 -1.2219 -0.6868
 2506TIP3    H2 7525   2.027   4.451   3.740  1.8520  0.9691  1.6307
 2507TIP3   OH2 7526   5.793   4.302   1.398 -0.0067  1.0630  0.7769
 2507TIP3    H1 7527   5.750   4.372   1.349  0.9862  0.5302 -0.9436
 2507TIP3    H2 7528   5.840   4.347   1.467  0.1869  2.0731  0.0109
 2508TIP3   OH2 7529   4.978   2.389   4.248 -0.2749 -0.3310 -0.1116
 2508TIP3    H1 7530   5.055   2.332   4.239  0.3554  0.2202  1.4759
 2508TIP3    H2 7531   4.955   2.412   4.158  2.2238  0.5461 -0.6163
 2509TIP3   OH2 7532   1.298   5.096   0.060  0.1378  0.1492  0.1528
 2509TIP3    H1 7533   1.308   5.087   0.155  2.1840  0.2565  0.0005
 2509TIP3    H2 7534   1.350   5.024   0.023  0.3537  0.8105 -0.8852
 2510TIP3   OH2 7535   1.461   3.800   0.064  0.1173 -0.3152  0.1911
 2510TIP3    H1 7536   1.492   3.845   0.143 -0.7181 -0.5407  0.6642
 2510TIP3    H2 7537   1.423   3.869   0.010 -0.1764 -0.2905  0.4243
 2511TIP3   OH2 7538   3.067   0.591   2.489 -0.1118  1.0008  0.2994
 2511TIP3    H1 7539   2.975   0.577   2.470  0.0040 -0.8841  0.8948
 2511TIP3    H2 7540   3.070   0.609   2.583  0.2382 -0.9031  0.7031
 2512TIP3   OH2 7541   5.102   4.420   4.470  0.3478 -0.1484 -0.3338
 2512TIP3    H1 7542   5.174   4.457   4.419  1.4939  1.3492  2.1729
 2512TIP3    H2 7543   5.028   4.417   4.409  0.9515  3.7867 -1.5067
 2513TIP3   OH2 7544   4.474   3.520   0.109  0.3237  0.5610 -0.1823
 2513TIP3    H1 7545   4.503   3.592   0.052  0.2524  0.9662  0.2877
 2513TIP3    H2 7546   4.399   3.483   0.064  0.4563  0.6790 -0.5061
 2514TIP3   OH2 7547   4.115   2.102   0.411  0.3056 -0.3010  0.1159
 2514TIP3    H1 7548   4.178   2.062   0.471  1.9761  0.8571 -0.8006
 2514TIP3    H2 7549   4.031   2.062   0.435  0.9313 -0.0917  3.0434
 2515TIP3   OH2 7550   6.247   2.969   4.662  0.2044 -0.4565  0.0340
 2515TIP3    H1 7551   6.198   2.914   4.723  0.9943  0.7601  1.8497
 2515TIP3    H2 7552   6.205   3.056   4.669  1.2645  0.0717  0.0116
 2516TIP3   OH2 7553   0.805   1.390   1.191 -0.1193  0.8714 -0.1370
 2516TIP3    H1 7554   0.730   1.334   1.212  0.3175 -0.2149 -1.2959
 2516TIP3    H2 7555   0.864   1.380   1.265 -0.5194  0.6309  0.1544
 2517TIP3   OH2 7556   1.575   1.197   4.445  0.1714  0.5582 -0.5383
 2517TIP3    H1 7557   1.614   1.283   4.464 -1.0750  0.8935  0.7189
 2517TIP3    H2 7558   1.513   1.183   4.517  0.1016 -1.2554 -0.9059
 2518TIP3   OH2 7559   3.495   1.668   0.521 -0.5297  0.3978  0.1091
 2518TIP3    H1 7560   3.583   1.688   0.488 -0.6258 -0.8750 -0.9942
 2518TIP3    H2 7561   3.491   1.573   0.523 -1.9561  0.4297 -0.0547
 2519TIP3   OH2 7562   5.261   0.601   0.483  0.2380  0.3402  0.8062
 2519TIP3    H1 7563   5.313   0.669   0.440 -0.6843 -0.4189 -1.6882
 2519TIP3    H2 7564   5.307   0.520   0.463 -1.1339 -0.2003 -0.2921
 2520TIP3   OH2 7565   3.525   2.571   0.796 -0.6962 -0.1929  0.4888
 2520TIP3    H1 7566   3.547   2.594   0.886 -1.7936  0.8231  0.5272
 2520TIP3    H2 7567   3.449   2.513   0.804 -0.8673 -0.0093  0.2266
 2521TIP3   OH2 7568   4.906   1.333   2.075  0.0739 -0.0117  0.6460
 2521TIP3    H1 7569   4.919   1.322   2.169  1.5652  0.7083  0.5566
 2521TIP3    H2 7570   4.890   1.427   2.065 -1.6778 -0.3193  0.3238
 2522TIP3   OH2 7571   4.005   5.242   0.323 -0.0156 -0.0846 -0.5518
 2522TIP3    H1 7572   3.982   5.237   0.230 -1.3504  0.3247 -0.2744
 2522TIP3    H2 7573   3.999   5.151   0.354  2.7053 -0.5959 -1.3236
 2523TIP3   OH2 7574   0.770   0.036   1.429  0.6432  0.4800 -0.7338
 2523TIP3    H1 7575   0.723  -0.047   1.417  2.6459 -0.8332  0.1232
 2523TIP3    H2 7576   0.704   0.103   1.409 -1.7314 -1.2319  0.7946
 2524TIP3   OH2 7577   6.075   0.933   4.772 -0.8160 -0.0696  0.0505
 2524TIP3    H1 7578   5.990   0.962   4.738  0.1494  0.2686 -2.2345
 2524TIP3    H2 7579   6.129   0.919   4.695  0.9764 -1.1366  1.4000
 2525TIP3   OH2 7580   5.694   3.245   2.921 -0.3194 -0.0904  0.6284
 2525TIP3    H1 7581   5.687   3.165   2.972  0.1009 -0.8988 -0.5488
 2525TIP3    H2 7582   5.745   3.220   2.844 -0.2826  1.2797  0.1832
 2526TIP3   OH2 7583   2.563   5.183   3.982 -0.6337 -0.0885  0.0534
 2526TIP3    H1 7584   2.626   5.122   4.020 -0.2809  0.4980  0.4240
 2526TIP3    H2 7585   2.605   5.213   3.902 -0.7653 -0.2485 -0.0777
 2527TIP3   OH2 7586   0.849   5.099   2.750 -0.2215 -0.1761  0.0326
 2527TIP3    H1 7587   0.853   5.007   2.726  1.8508 -0.3299  0.7406
 2527TIP3    H2 7588   0.882   5.145   2.672 -2.1654  0.0888 -0.6815
 2528TIP3   OH2 7589   0.845   3.415   1.741  0.5093 -0.6185 -0.2799
 2528TIP3    H1 7590   0.750   3.425   1.752  0.4446 -1.5630  0.0771
 2528TIP3    H2 7591   0.855   3.341   1.681  1.0258 -1.3836  0.7066
 2529TIP3   OH2 7592   2.978   1.526   3.639 -0.2981 -0.5183 -0.5615
 2529TIP3    H1 7593   3.043   1.597   3.641 -0.4930 -0.3297  1.4336
 2529TIP3    H2 7594   3.012   1.463   3.575 -0.9531  2.0600 -3.7306
 2530TIP3   OH2 7595   5.796   4.178   2.172 -0.1989  0.0728  0.3935
 2530TIP3    H1 7596   5.862   4.244   2.150  0.8477 -1.7062 -2.3782
 2530TIP3    H2 7597   5.845   4.111   2.220 -0.2138 -0.7096 -0.6565
 2531TIP3   OH2 7598   3.965   4.676   1.864 -1.1541  0.1766  0.0146
 2531TIP3    H1 7599   3.929   4.646   1.781 -2.3635  1.3258  0.1015
 2531TIP3    H2 7600   3.911   4.751   1.889  0.2644  0.9266  0.9914
 2532TIP3   OH2 7601   0.156   0.301   2.455  0.4426  0.4474  0.2721
 2532TIP3    H1 7602   0.075   0.279   2.502  0.1830  1.1070  0.1310
 2532TIP3    H2 7603   0.148   0.256   2.371  0.3855  0.2278  0.3926
 2533TIP3   OH2 7604   5.943   5.281   1.806  0.2780  0.3380  0.5844
 2533TIP3    H1 7605   5.850   5.288   1.785  0.2927 -0.0504  0.3843
 2533TIP3    H2 7606   5.945   5.278   1.902 -0.0555 -1.4339  0.5584
 2534TIP3   OH2 7607   5.869   3.047   2.458  0.8188  0.3789  0.1067
 2534TIP3    H1 7608   5.957   3.013   2.443  0.6064  0.2776 -0.9930
 2534TIP3    H2 7609   5.814   2.970   2.466  0.5385  0.4445 -1.1067
 2535TIP3   OH2 7610   1.915   4.040   1.625  0.5664 -0.2981 -0.0182
 2535TIP3    H1 7611   1.914   4.102   1.552  2.7513 -0.9304 -0.6814
 2535TIP3    H2 7612   1.880   4.090   1.699 -1.0404  0.5819 -1.3160
 2536TIP3   OH2 7613   5.225   1.166   3.190 -0.6849 -0.3129 -0.5413
 2536TIP3    H1 7614   5.201   1.196   3.102 -0.6533 -0.3783 -0.5725
 2536TIP3    H2 7615   5.186   1.230   3.249  1.3603  1.1742 -0.6769
 2537TIP3   OH2 7616   3.165   1.900   1.956 -0.0398 -0.4861  0.1684
 2537TIP3    H1 7617   3.239   1.919   2.015 -0.5671 -0.6840  0.9041
 2537TIP3    H2 7618   3.094   1.874   2.014 -0.8097  0.0651 -0.5107
 2538TIP3   OH2 7619   4.697   0.127   4.284 -0.9421  0.3112 -0.0590
 2538TIP3    H1 7620   4.626   0.184   4.314  0.2368  0.8495  1.8564
 2538TIP3    H2 7621   4.739   0.096   4.365  0.8673 -0.1690 -1.1241
 2539TIP3   OH2 7622   3.192   4.966   0.564  0.1898  0.1429  0.3396
 2539TIP3    H1 7623   3.108   4.956   0.610  0.3070  0.7272  0.6843
 2539TIP3    H2 7624   3.187   5.052   0.523 -0.0835 -0.5365 -1.1143
 2540TIP3   OH2 7625   4.427   1.192   0.772  0.2519  0.1221 -0.1676
 2540TIP3    H1 7626   4.516   1.168   0.745 -0.1596 -0.0508 -1.4859
 2540TIP3    H2 7627   4.399   1.120   0.829  1.2199  0.5697  0.9106
 2541TIP3   OH2 7628   3.810   3.486   5.106  0.0777  0.1342  0.3097
 2541TIP3    H1 7629   3.735   3.457   5.158  1.1750 -1.5306  1.0500
 2541TIP3    H2 7630   3.886   3.472   5.163  1.0183  1.2520 -0.6175
 2542TIP3   OH2 7631   3.360   1.236   0.774  0.2560 -0.2194  0.1012
 2542TIP3    H1 7632   3.419   1.246   0.849  1.7052  1.8782 -1.2402
 2542TIP3    H2 7633   3.296   1.307   0.785 -0.6755 -1.0674  0.3121
 2543TIP3   OH2 7634   1.933   3.536   3.589  0.0505  0.2205 -0.0080
 2543TIP3    H1 7635   2.017   3.509   3.624  0.0593  0.0500 -0.1611
 2543TIP3    H2 7636   1.915   3.620   3.631  1.0590  1.0586 -1.1873
 2544TIP3   OH2 7637   5.913   1.128   3.753 -0.3281 -0.4386  0.7897
 2544TIP3    H1 7638   5.931   1.164   3.666 -0.0400 -2.7250 -0.1679
 2544TIP3    H2 7639   5.818   1.131   3.760 -0.2732  1.6870  1.3320
 2545TIP3   OH2 7640   0.018   3.238   4.346 -0.5213  0.3265  0.4416
 2545TIP3    H1 7641   0.064   3.292   4.410 -0.6494  1.1888 -0.1807
 2545TIP3    H2 7642   0.061   3.152   4.352  0.1247  0.6782  0.9785
 2546TIP3   OH2 7643   0.245   3.571   0.519 -1.2944  0.3488 -0.3629
 2546TIP3    H1 7644   0.203   3.607   0.441 -2.4320  0.2391  0.1659
 2546TIP3    H2 7645   0.193   3.493   0.540 -1.5672  0.8670  0.9937
 2547TIP3   OH2 7646   1.290   4.809   2.444 -0.2548  0.0054  0.5248
 2547TIP3    H1 7647   1.324   4.896   2.466 -1.6364  0.4836  0.8300
 2547TIP3    H2 7648   1.195   4.819   2.446 -0.4461 -1.6468  1.0791
 2548TIP3   OH2 7649   1.802   4.437   1.245 -0.0031 -0.6366 -0.0183
 2548TIP3    H1 7650   1.866   4.369   1.224 -0.8640 -2.1048  1.8230
 2548TIP3    H2 7651   1.840   4.484   1.319 -0.4459 -0.6415  0.2136
 2549TIP3   OH2 7652   5.732   2.406   1.368 -0.0938 -1.3520 -0.2480
 2549TIP3    H1 7653   5.799   2.456   1.414 -1.8852  0.7885  0.2374
 2549TIP3    H2 7654   5.765   2.397   1.279  0.6643  0.0184 -0.1329
 2550TIP3   OH2 7655   2.149   5.398   3.619  0.0899  0.4748  0.0980
 2550TIP3    H1 7656   2.075   5.350   3.657 -0.1738 -0.2701 -1.2691
 2550TIP3    H2 7657   2.226   5.360   3.661 -0.0546 -1.7861 -1.4976
 2551TIP3   OH2 7658   1.800   0.671   4.704  0.1064  0.1312 -0.0442
 2551TIP3    H1 7659   1.740   0.597   4.715  0.9147 -0.5152  0.1147
 2551TIP3    H2 7660   1.748   0.748   4.729 -0.8239 -0.3495 -0.4642
 2552TIP3   OH2 7661   0.791   3.093   2.101 -0.1646 -0.3765 -0.4197
 2552TIP3    H1 7662   0.866   3.151   2.101 -0.3139 -0.1264  1.4127
 2552TIP3    H2 7663   0.822   3.013   2.142 -0.3257 -1.1352 -1.7064
 2553TIP3   OH2 7664   1.863   5.007   4.414 -0.0187 -0.0578  0.1848
 2553TIP3    H1 7665   1.780   4.967   4.386 -0.0069  0.6992 -0.9860
 2553TIP3    H2 7666   1.869   4.985   4.507 -0.5867 -1.7525 -0.1393
 2554TIP3   OH2 7667   3.185   2.676   1.013 -0.7381 -0.4074 -0.3966
 2554TIP3    H1 7668   3.111   2.715   1.059 -1.2556  0.0285 -1.5502
 2554TIP3    H2 7669   3.149   2.646   0.930  0.1153 -1.3911 -0.4377
 2555TIP3   OH2 7670   4.380   5.001   1.052  0.3084  0.0088 -0.3620
 2555TIP3    H1 7671   4.441   5.051   0.997 -1.9669  1.3076 -1.9054
 2555TIP3    H2 7672   4.306   5.060   1.064 -0.2886 -1.1611  2.2096
 2556TIP3   OH2 7673   0.488   2.826   0.107 -0.1160 -0.1677  0.6819
 2556TIP3    H1 7674   0.526   2.752   0.154  2.7112  0.4571 -0.3655
 2556TIP3    H2 7675   0.521   2.904   0.153 -0.0071  0.4287 -0.3701
 2557TIP3   OH2 7676   5.380   4.107   0.277 -0.6867 -0.3690  0.2674
 2557TIP3    H1 7677   5.375   4.105   0.182 -0.8554 -2.6524  0.2611
 2557TIP3    H2 7678   5.307   4.161   0.305 -2.1998 -1.7580 -0.8563
 2558TIP3   OH2 7679   4.319   4.514   0.371 -0.4738  0.6034  0.0108
 2558TIP3    H1 7680   4.395   4.567   0.399  0.2602 -0.0558 -0.6782
 2558TIP3    H2 7681   4.265   4.507   0.449  1.3991 -0.9671  1.2535
 2559TIP3   OH2 7682   5.764   5.135   4.755  0.5237  0.4972 -0.6660
 2559TIP3    H1 7683   5.738   5.154   4.665 -0.4787  1.1064 -0.2686
 2559TIP3    H2 7684   5.744   5.215   4.803  2.2857  0.6623 -0.1254
 2560TIP3   OH2 7685   0.893   5.694   2.616  0.1125  0.2559 -0.4453
 2560TIP3    H1 7686   0.949   5.641   2.561  4.0991  1.0467  2.3991
 2560TIP3    H2 7687   0.837   5.631   2.661 -0.2218 -0.7562 -2.2069
 2561TIP3   OH2 7688   0.700   2.849   4.733  0.4673  0.3598  0.0666
 2561TIP3    H1 7689   0.686   2.828   4.640 -0.9699  3.2020 -0.4800
 2561TIP3    H2 7690   0.795   2.853   4.743  0.6399  0.7804 -1.4899
 2562TIP3   OH2 7691   5.533   5.412   1.110  0.0044  0.4510 -0.0484
 2562TIP3    H1 7692   5.450   5.459   1.109  1.1414  2.5837 -0.4496
 2562TIP3    H2 7693   5.560   5.408   1.019  0.4629 -0.0169  0.1022
 2563TIP3   OH2 7694   4.826   2.580   1.965  0.0039  0.1799 -0.1376
 2563TIP3    H1 7695   4.743   2.627   1.965  1.3435  2.6875  0.3005
 2563TIP3    H2 7696   4.803   2.492   1.933 -3.0719  0.1974  1.5700
 2564TIP3   OH2 7697   0.376   1.876   2.076  0.4306  0.3789  0.0473
 2564TIP3    H1 7698   0.316   1.920   2.137  0.3240  0.7867 -0.3413
 2564TIP3    H2 7699   0.430   1.947   2.041  0.9333  0.0539  0.1589
 2565TIP3   OH2 7700   0.609   3.874   0.635 -0.3013 -0.0980  0.0677
 2565TIP3    H1 7701   0.650   3.911   0.557 -0.2088 -0.5804 -0.1145
 2565TIP3    H2 7702   0.683   3.857   0.694 -0.0248 -2.2754 -0.7919
 2566TIP3   OH2 7703   5.985   1.372   0.513  0.5026 -0.4020 -0.4335
 2566TIP3    H1 7704   6.070   1.406   0.484 -0.4609 -0.4583 -3.5955
 2566TIP3    H2 7705   6.007   1.292   0.561  2.2439 -0.1773 -0.7764
 2567TIP3   OH2 7706   0.296   4.759   5.094 -0.3323 -0.3364  0.2464
 2567TIP3    H1 7707   0.380   4.763   5.048  0.2975 -0.7869  1.3498
 2567TIP3    H2 7708   0.278   4.850   5.118 -1.0150  0.0312 -1.4329
 2568TIP3   OH2 7709   4.375   1.538   3.156 -0.3082 -0.4707  0.0406
 2568TIP3    H1 7710   4.326   1.459   3.131 -0.4805 -0.8087  1.3366
 2568TIP3    H2 7711   4.433   1.508   3.227 -1.0023  0.7408  1.1582
 2569TIP3   OH2 7712   4.532   3.187   4.028 -0.7006  0.4284 -0.2785
 2569TIP3    H1 7713   4.588   3.212   4.102  1.4486 -1.1082 -1.2596
 2569TIP3    H2 7714   4.443   3.200   4.059  0.1438  0.7100  2.2433
 2570TIP3   OH2 7715   5.329   1.463   3.995 -0.4758 -0.5736 -0.1366
 2570TIP3    H1 7716   5.367   1.430   4.076 -0.2980 -0.5971 -0.2293
 2570TIP3    H2 7717   5.391   1.528   3.963  0.4479 -1.9650 -1.2788
 2571TIP3   OH2 7718   0.492   1.886   4.455  0.2645  0.1102  0.4067
 2571TIP3    H1 7719   0.560   1.939   4.413 -0.2783 -1.1815 -2.3272
 2571TIP3    H2 7720   0.457   1.943   4.524  1.3848  2.3333 -0.7293
 2572TIP3   OH2 7721   1.889   1.376   2.968 -0.0084 -0.2847 -0.3530
 2572TIP3    H1 7722   1.856   1.290   2.993  0.5250  0.4222  3.3391
 2572TIP3    H2 7723   1.981   1.376   2.994  0.5844  0.7589 -2.2263
 2573TIP3   OH2 7724   5.235   5.764   4.951 -0.6716 -0.7226 -0.6681
 2573TIP3    H1 7725   5.181   5.837   4.978 -1.6337 -1.4898 -0.4572
 2573TIP3    H2 7726   5.287   5.742   5.028  0.5797  0.5358 -1.1126
 2574TIP3   OH2 7727   4.918   1.079   2.693  0.2563 -0.5009 -0.1490
 2574TIP3    H1 7728   4.907   1.086   2.788  1.2491 -2.9440  0.2115
 2574TIP3    H2 7729   4.974   1.153   2.670 -0.0652  0.1770  1.1399
 2575TIP3   OH2 7730   6.204   4.152   1.680 -0.1891 -0.1369  0.8414
 2575TIP3    H1 7731   6.254   4.084   1.726 -2.5037 -1.8564  1.0005
 2575TIP3    H2 7732   6.134   4.175   1.741  0.1499  1.9632  0.5084
 2576TIP3   OH2 7733   1.884   4.476   0.384 -0.2630 -0.2396 -0.1567
 2576TIP3    H1 7734   1.956   4.426   0.345  0.3692  0.8836 -0.4798
 2576TIP3    H2 7735   1.864   4.430   0.465  2.2646  0.5763  1.0265
 2577TIP3   OH2 7736   1.718   5.200   0.468 -0.1542  0.6094  0.3922
 2577TIP3    H1 7737   1.671   5.225   0.547 -0.5540  1.8204 -0.2047
 2577TIP3    H2 7738   1.743   5.283   0.427  0.6446  0.0036 -0.4061
 2578TIP3   OH2 7739   3.602   1.493   3.283  0.2265  0.1538  0.1458
 2578TIP3    H1 7740   3.531   1.534   3.234  0.6736  1.8441  0.8163
 2578TIP3    H2 7741   3.673   1.557   3.279  1.1439 -0.7919  0.8427
 2579TIP3   OH2 7742   5.764   0.027   1.087 -0.3682  0.2308  0.2370
 2579TIP3    H1 7743   5.692  -0.036   1.081 -0.3318  0.2001  0.1232
 2579TIP3    H2 7744   5.722   0.113   1.085 -0.4948  0.2111  1.2920
 2580TIP3   OH2 7745   1.511   1.561   4.285 -0.5123 -0.0475  0.2025
 2580TIP3    H1 7746   1.562   1.512   4.221 -0.0548  0.2033  0.3688
 2580TIP3    H2 7747   1.565   1.561   4.364 -0.8239  0.1148  0.4174
 2581TIP3   OH2 7748   2.882   1.632   1.790 -0.6402 -0.2660  0.6313
 2581TIP3    H1 7749   2.829   1.712   1.787  0.5567  0.5880  1.1828
 2581TIP3    H2 7750   2.839   1.577   1.855  0.2756  1.3276  2.7204
 2582TIP3   OH2 7751   4.089   1.303   4.109  0.5333  0.1762 -0.3576
 2582TIP3    H1 7752   4.124   1.378   4.157  3.4265 -0.8448 -0.7312
 2582TIP3    H2 7753   4.091   1.231   4.173  0.3756 -0.2214 -0.7979
 2583TIP3   OH2 7754   1.950   2.138   1.774 -0.3516 -0.3633 -0.9508
 2583TIP3    H1 7755   2.030   2.188   1.757  0.5301 -1.2802  0.3580
 2583TIP3    H2 7756   1.963   2.056   1.726 -0.0077 -0.9617  0.1531
 2584TIP3   OH2 7757   3.495   1.760   5.080  0.2384 -0.0980 -0.0045
 2584TIP3    H1 7758   3.574   1.740   5.029  0.1787 -1.9813  0.5494
 2584TIP3    H2 7759   3.483   1.683   5.136 -2.3904 -0.1988 -0.5730
 2585TIP3   OH2 7760   5.903   4.360   4.724  0.2114 -0.5089 -0.0122
 2585TIP3    H1 7761   5.970   4.370   4.791 -0.4438 -0.8180  0.7067
 2585TIP3    H2 7762   5.885   4.450   4.696 -0.4640 -0.2355  1.2046
 2586TIP3   OH2 7763   0.880   1.301   0.066 -0.3047 -0.2417  0.2862
 2586TIP3    H1 7764   0.914   1.265  -0.016  0.7491 -0.9626  1.0040
 2586TIP3    H2 7765   0.957   1.333   0.112 -1.2597  4.4769 -0.9053
 2587TIP3   OH2 7766   4.995   4.972   3.052  0.1389 -0.3689 -0.1300
 2587TIP3    H1 7767   5.043   5.042   3.007 -0.5038  0.4480  0.4260
 2587TIP3    H2 7768   4.926   5.017   3.100 -0.8439 -1.4658 -0.4583
 2588TIP3   OH2 7769   1.608   0.245   5.145 -0.0942 -0.4559  0.3430
 2588TIP3    H1 7770   1.677   0.299   5.106  0.2436  0.1406  1.7229
 2588TIP3    H2 7771   1.570   0.198   5.070  0.2329  0.9669 -0.7658
 2589TIP3   OH2 7772   1.773   5.125   2.627  0.0404 -0.3608  0.0496
 2589TIP3    H1 7773   1.807   5.190   2.565 -2.1361 -0.2689 -1.1516
 2589TIP3    H2 7774   1.756   5.174   2.707 -0.9472  0.4459 -0.6295
 2590TIP3   OH2 7775   2.327   2.698   4.428 -0.1076  0.1555 -0.6639
 2590TIP3    H1 7776   2.301   2.628   4.487  0.9552  0.2961 -0.0111
 2590TIP3    H2 7777   2.358   2.653   4.349  0.4098 -0.1120 -0.3120
 2591TIP3   OH2 7778   3.296   1.101   2.854 -0.4593  0.2897 -0.0336
 2591TIP3    H1 7779   3.351   1.046   2.911  0.1266 -0.5113 -1.3382
 2591TIP3    H2 7780   3.353   1.172   2.826 -0.0198 -0.5948 -1.4670
 2592TIP3   OH2 7781   2.420   3.862   4.858  0.0005  0.1362 -0.1929
 2592TIP3    H1 7782   2.364   3.911   4.919  0.4037  0.5937 -0.1855
 2592TIP3    H2 7783   2.427   3.919   4.782 -0.0143 -0.1763 -0.4289
 2593TIP3   OH2 7784   5.442   0.801   3.960 -0.3046 -0.7430 -0.3173
 2593TIP3    H1 7785   5.454   0.885   4.005 -0.6184 -1.1491  0.5447
 2593TIP3    H2 7786   5.531   0.767   3.949 -0.2787 -1.2852  1.2793
 2594TIP3   OH2 7787   4.582   3.967   3.421 -0.4818  0.3819 -0.2094
 2594TIP3    H1 7788   4.530   3.942   3.498 -1.5416 -0.3536 -1.1420
 2594TIP3    H2 7789   4.525   3.950   3.347  1.4932 -1.6250 -1.3913
 2595TIP3   OH2 7790   5.514   5.354   0.104  0.0522  0.6318  0.0843
 2595TIP3    H1 7791   5.577   5.402   0.158  0.0741 -0.2756  0.8854
 2595TIP3    H2 7792   5.523   5.263   0.130  0.8645 -0.0390 -2.2589
 2596TIP3   OH2 7793   0.257   2.195   3.465 -0.1880  0.3228  0.1711
 2596TIP3    H1 7794   0.291   2.175   3.553  0.6145  2.3471  0.3696
 2596TIP3    H2 7795   0.220   2.283   3.473 -0.7936  0.2267 -1.3445
 2597TIP3   OH2 7796   5.064   1.656   2.439  0.2062  0.3695  0.0881
 2597TIP3    H1 7797   5.036   1.742   2.408  1.0072  0.5369 -0.1810
 2597TIP3    H2 7798   5.128   1.626   2.374 -1.7231 -1.4641 -1.1312
 2598TIP3   OH2 7799   4.047   0.780   1.191 -0.3727 -0.4162 -0.0353
 2598TIP3    H1 7800   4.010   0.735   1.115 -0.6259 -0.5828  0.1832
 2598TIP3    H2 7801   3.984   0.850   1.211  0.1015  0.1441 -0.4726
 2599TIP3   OH2 7802   3.741   2.182   3.249  0.0683  0.0801 -0.1781
 2599TIP3    H1 7803   3.807   2.230   3.299  0.3186  1.0379 -1.3606
 2599TIP3    H2 7804   3.749   2.092   3.278  1.3615  0.3236  0.2862
 2600TIP3   OH2 7805   3.767   0.319   2.626 -0.2169  0.2333 -0.6121
 2600TIP3    H1 7806   3.738   0.295   2.539  0.3578 -1.7882 -0.2990
 2600TIP3    H2 7807   3.859   0.341   2.616  0.2186 -1.3346 -0.3489
 2601TIP3   OH2 7808   0.105   0.554   0.501 -0.3099  0.2546 -1.1230
 2601TIP3    H1 7809   0.128   0.574   0.410  0.4266 -1.1976 -1.2918
 2601TIP3    H2 7810   0.123   0.460   0.510  0.7420  0.5900  0.8442
 2602TIP3   OH2 7811   2.499   1.496   2.328 -0.5646 -0.7839 -0.4131
 2602TIP3    H1 7812   2.594   1.482   2.328 -0.1855  1.0537  2.1582
 2602TIP3    H2 7813   2.464   1.427   2.385 -0.2951  0.4498  1.3393
 2603TIP3   OH2 7814   5.037   3.609   2.892  0.7138  0.7407 -0.0433
 2603TIP3    H1 7815   5.082   3.626   2.975 -0.8853 -2.7030  1.7641
 2603TIP3    H2 7816   4.978   3.683   2.880 -2.4188 -0.5670  4.5796
 2604TIP3   OH2 7817   1.346   2.125   4.652  0.2546  0.2621  0.7564
 2604TIP3    H1 7818   1.356   2.189   4.581  0.6854  0.6318  1.1421
 2604TIP3    H2 7819   1.430   2.080   4.655 -0.6093 -1.5841 -0.6797
 2605TIP3   OH2 7820   5.637   0.290   1.118  0.5743 -0.9555 -0.7999
 2605TIP3    H1 7821   5.631   0.307   1.212  0.9653  0.0216 -0.9362
 2605TIP3    H2 7822   5.546   0.283   1.089  0.3863  0.4163 -0.6205
 2606TIP3   OH2 7823   4.434   5.658   4.119 -0.8584  0.0218 -0.0766
 2606TIP3    H1 7824   4.486   5.657   4.200 -0.4157  1.6833 -0.3007
 2606TIP3    H2 7825   4.408   5.567   4.106 -0.0655 -0.4440  1.3769
 2607TIP3   OH2 7826   5.184   3.904   3.615  0.2439  0.1633 -0.1873
 2607TIP3    H1 7827   5.130   3.853   3.676  0.4057 -1.1307 -1.0874
 2607TIP3    H2 7828   5.225   3.972   3.669 -0.9776  0.1317  0.8088
 2608TIP3   OH2 7829   3.630   1.961   3.822 -0.4235 -0.3173 -0.1708
 2608TIP3    H1 7830   3.566   1.935   3.888 -0.7224  0.7475 -0.0295
 2608TIP3    H2 7831   3.603   2.048   3.794  1.7781  0.8232  0.9714
 2609TIP3   OH2 7832   4.681   1.072   3.405 -0.3874  0.3477  0.0835
 2609TIP3    H1 7833   4.684   0.977   3.394  0.0623  0.4541 -0.7227
 2609TIP3    H2 7834   4.587   1.092   3.413 -0.4195 -0.3976  2.5418
 2610TIP3   OH2 7835   0.638   1.084   1.257 -0.0280 -0.4261 -0.1401
 2610TIP3    H1 7836   0.553   1.058   1.221 -0.2596  1.0694 -0.7305
 2610TIP3    H2 7837   0.630   1.178   1.274  0.9384 -0.5964  1.4468
 2611TIP3   OH2 7838   0.004   2.272   0.306 -0.5545  0.6688 -0.0455
 2611TIP3    H1 7839   0.086   2.259   0.259  0.5159  0.0228  1.8775
 2611TIP3    H2 7840  -0.055   2.205   0.273 -0.1971  0.9143 -1.1994
 2612TIP3   OH2 7841   3.616   0.167   1.686 -0.2329  0.4192 -0.2567
 2612TIP3    H1 7842   3.615   0.250   1.637 -3.6855  1.3927  1.1503
 2612TIP3    H2 7843   3.683   0.180   1.752  2.2909  0.3010 -2.6096
 2613TIP3   OH2 7844   6.052   4.183   2.574 -0.0500 -0.0347  0.1538
 2613TIP3    H1 7845   6.142   4.212   2.561  0.1075 -0.1912  0.8704
 2613TIP3    H2 7846   6.055   4.127   2.652 -0.7565 -0.0788  0.1611
 2614TIP3   OH2 7847   6.126   0.024   2.608  0.0441 -0.2188  0.6058
 2614TIP3    H1 7848   6.136   0.087   2.536  1.2837 -0.2254  0.7667
 2614TIP3    H2 7849   6.040   0.045   2.645 -0.6559 -0.2752 -0.9271
 2615TIP3   OH2 7850   3.312   0.372   0.853 -0.0551 -0.2757  0.1520
 2615TIP3    H1 7851   3.343   0.282   0.856  0.9785  0.0729  0.3922
 2615TIP3    H2 7852   3.391   0.425   0.865 -0.8946  0.6333  2.0708
 2616TIP3   OH2 7853   3.946   0.965   4.113 -0.5637  0.1453  0.2460
 2616TIP3    H1 7854   4.026   0.977   4.163  0.8689  0.0601 -1.8973
 2616TIP3    H2 7855   3.879   0.944   4.179  0.9975  0.8870  2.1509
 2617TIP3   OH2 7856   4.256   3.775   3.055 -0.1791 -0.2064  0.1596
 2617TIP3    H1 7857   4.291   3.859   3.083  0.6206  0.3522 -2.2835
 2617TIP3    H2 7858   4.332   3.725   3.026 -0.9444 -0.5939 -1.2772
 2618TIP3   OH2 7859   4.761   5.080   3.145  0.0970 -0.7006  0.3282
 2618TIP3    H1 7860   4.678   5.037   3.168 -0.6052 -0.4893 -1.6059
 2618TIP3    H2 7861   4.734   5.164   3.107  1.3048  0.0556  1.0776
 2619TIP3   OH2 7862   3.631   1.216   0.347  0.1413 -0.0116 -0.3505
 2619TIP3    H1 7863   3.690   1.153   0.388 -0.4931 -1.1496 -1.1375
 2619TIP3    H2 7864   3.687   1.268   0.290  0.7042  0.3071  0.4612
 2620TIP3   OH2 7865   1.475   3.378   0.497 -0.5516  0.0402 -0.4282
 2620TIP3    H1 7866   1.457   3.472   0.497 -0.3059  0.1583  2.1537
 2620TIP3    H2 7867   1.562   3.371   0.458 -0.4509  0.9137 -0.3892
 2621TIP3   OH2 7868   1.524   3.819   3.325  0.4404  0.1899  0.4924
 2621TIP3    H1 7869   1.504   3.775   3.242  0.4841 -1.6874  1.4170
 2621TIP3    H2 7870   1.619   3.808   3.335  0.1348 -1.7393  1.8672
 2622TIP3   OH2 7871   3.187   1.491   0.393  0.1607  1.1394  0.3353
 2622TIP3    H1 7872   3.247   1.482   0.319 -0.1007  1.6843  0.0556
 2622TIP3    H2 7873   3.102   1.468   0.358 -0.0120  1.6782  0.3907
 2623TIP3   OH2 7874   0.722   4.077  -0.000  0.0582 -0.1850 -0.2506
 2623TIP3    H1 7875   0.700   4.127   0.079  0.4747 -1.0301  0.4147
 2623TIP3    H2 7876   0.761   4.142  -0.059 -0.6878  0.5444  0.0444
 2624TIP3   OH2 7877   4.260   3.529   3.855  0.0042 -0.1066  0.2414
 2624TIP3    H1 7878   4.229   3.542   3.765 -0.0568 -0.3172  0.2310
 2624TIP3    H2 7879   4.256   3.434   3.868 -0.2513 -0.0566  0.5594
 2625TIP3   OH2 7880   5.491  -0.031   3.359 -0.0896  0.1092  0.2692
 2625TIP3    H1 7881   5.483   0.040   3.422 -0.4823 -0.0338  0.3796
 2625TIP3    H2 7882   5.546   0.005   3.289  0.8069  0.0979  0.9427
 2626TIP3   OH2 7883   0.636   5.880   3.865  0.5171  0.3568 -0.6027
 2626TIP3    H1 7884   0.666   5.860   3.776  2.1300  0.4084 -0.0957
 2626TIP3    H2 7885   0.611   5.795   3.901  2.7827 -0.1713 -0.0989
 2627TIP3   OH2 7886   2.600   4.466   0.197  0.1845  0.4879 -0.1491
 2627TIP3    H1 7887   2.682   4.516   0.197  1.0838 -0.9002 -1.5787
 2627TIP3    H2 7888   2.623   4.382   0.156 -1.4359 -0.8419  1.4899
 2628TIP3   OH2 7889   1.646   3.303   1.651  0.5552  0.2340 -0.1998
 2628TIP3    H1 7890   1.682   3.391   1.637 -0.4178  0.4959 -1.1937
 2628TIP3    H2 7891   1.558   3.319   1.686  0.0747 -0.3268 -1.1340
 2629TIP3   OH2 7892   0.939   4.940   4.348 -0.3791  0.3711  0.1580
 2629TIP3    H1 7893   0.859   4.980   4.315 -0.6869  2.0451  2.7073
 2629TIP3    H2 7894   1.009   4.997   4.317 -0.0593 -1.1957 -2.2300
 2630TIP3   OH2 7895   1.419   5.305   4.390 -0.2346  0.5074  0.7337
 2630TIP3    H1 7896   1.450   5.378   4.444  2.0750  1.0527 -1.1785
 2630TIP3    H2 7897   1.472   5.309   4.311 -1.8964 -1.6650 -0.6060
 2631TIP3   OH2 7898   4.858   4.842   5.054 -0.0382  0.4402 -0.5309
 2631TIP3    H1 7899   4.788   4.866   4.994  0.4494  0.2606 -1.1963
 2631TIP3    H2 7900   4.932   4.898   5.029  0.2840  0.1129 -0.3367
 2632TIP3   OH2 7901   1.356   1.321   3.768  0.3002 -0.0224  0.4177
 2632TIP3    H1 7902   1.363   1.405   3.814  0.0882  0.6148 -0.6841
 2632TIP3    H2 7903   1.296   1.338   3.696 -1.1503 -1.5971  1.1832
 2633TIP3   OH2 7904   0.332   4.955   4.418  0.1487  0.0260 -0.3203
 2633TIP3    H1 7905   0.286   4.912   4.490  1.1206 -0.1164  0.2296
 2633TIP3    H2 7906   0.399   4.892   4.391  0.2166  0.3439 -0.9137
 2634TIP3   OH2 7907   1.364   5.072   3.855  0.3198  0.0038  0.1996
 2634TIP3    H1 7908   1.279   5.037   3.827 -0.6499  2.9601 -0.9951
 2634TIP3    H2 7909   1.428   5.008   3.823 -1.2869 -0.7018 -1.8577
 2635TIP3   OH2 7910   3.711   2.170   5.009  0.3854 -0.2852  0.4657
 2635TIP3    H1 7911   3.792   2.194   5.055 -0.6231  1.9149  1.2598
 2635TIP3    H2 7912   3.674   2.254   4.983 -1.6161 -1.2518  0.0706
 2636TIP3   OH2 7913   0.906   4.997   1.698 -0.1780 -0.0514 -0.5954
 2636TIP3    H1 7914   0.883   5.084   1.730  3.6993  0.2350  2.0949
 2636TIP3    H2 7915   0.962   5.014   1.622  1.0111 -0.1087  0.2457
 2637TIP3   OH2 7916   1.177   4.737   4.289  0.6235  0.4161 -0.0245
 2637TIP3    H1 7917   1.109   4.805   4.293 -0.3069 -0.5092  0.2920
 2637TIP3    H2 7918   1.183   4.715   4.196  0.6512  0.6548 -0.0816
 2638TIP3   OH2 7919   2.328   1.790   3.657  0.1828  0.2963  0.1493
 2638TIP3    H1 7920   2.370   1.799   3.743 -0.8200  1.4790  0.5434
 2638TIP3    H2 7921   2.239   1.821   3.671 -0.7799 -1.8277 -0.7348
 2639TIP3   OH2 7922   1.760   1.038   2.341  0.5190  0.2139 -0.2988
 2639TIP3    H1 7923   1.712   1.114   2.309 -0.2853 -0.2181 -0.1305
 2639TIP3    H2 7924   1.834   1.076   2.389 -0.2148  0.8978  0.3165
 2640TIP3   OH2 7925   4.778   1.712   1.851  0.5926 -0.3575 -0.1023
 2640TIP3    H1 7926   4.861   1.739   1.813 -1.4260  1.4433 -3.7422
 2640TIP3    H2 7927   4.732   1.793   1.869 -1.7682 -1.1883 -1.8256
 2641TIP3   OH2 7928   5.691   5.966   4.713  0.0216 -0.1559 -0.0547
 2641TIP3    H1 7929   5.638   6.008   4.646 -0.0724  0.7873  0.5972
 2641TIP3    H2 7930   5.750   5.908   4.664 -2.5132 -2.3311 -0.7284
 2642TIP3   OH2 7931   5.399   3.094   0.142  0.6002  0.5348 -0.1911
 2642TIP3    H1 7932   5.418   3.185   0.121 -1.3113  0.8521 -0.7913
 2642TIP3    H2 7933   5.346   3.063   0.068  0.7963 -0.8979  0.2465
 2643TIP3   OH2 7934   4.532   4.667   0.453  0.0954 -0.2897 -0.1101
 2643TIP3    H1 7935   4.559   4.758   0.439 -0.6694 -0.2288 -1.3479
 2643TIP3    H2 7936   4.610   4.623   0.487  1.5071  0.0567 -2.7022
 2644TIP3   OH2 7937   5.893   1.518   3.427 -0.5067 -0.1114 -0.3391
 2644TIP3    H1 7938   5.879   1.611   3.442 -0.7438 -0.0602 -0.8697
 2644TIP3    H2 7939   5.950   1.514   3.351  0.9438 -0.3679  0.7055
 2645TIP3   OH2 7940   0.276   3.751   1.250 -0.0224 -0.4216 -0.0738
 2645TIP3    H1 7941   0.255   3.844   1.246  0.6824 -0.1555  1.6059
 2645TIP3    H2 7942   0.213   3.715   1.313  0.1668 -0.9375 -0.1704
 2646TIP3   OH2 7943   2.402   0.711   0.179 -0.4155  0.0122 -0.6006
 2646TIP3    H1 7944   2.398   0.671   0.092 -2.0903  0.0163 -0.5423
 2646TIP3    H2 7945   2.315   0.700   0.215  0.2877 -0.1237  1.1655
 2647TIP3   OH2 7946   0.377   0.354   1.184 -0.6665 -0.7718  0.3382
 2647TIP3    H1 7947   0.322   0.425   1.216  1.0330  0.7442  0.0658
 2647TIP3    H2 7948   0.322   0.306   1.122 -1.1001  2.0145 -1.6484
 2648TIP3   OH2 7949   2.762   0.873   1.876  0.5945  0.0336  0.3473
 2648TIP3    H1 7950   2.683   0.922   1.896  0.9783  1.5575 -1.5127
 2648TIP3    H2 7951   2.757   0.857   1.782  1.0655 -2.5691  0.6862
 2649TIP3   OH2 7952   0.507   5.053   0.649  0.2228 -0.5007  0.0764
 2649TIP3    H1 7953   0.552   5.047   0.733 -0.7619  1.4165  0.7985
 2649TIP3    H2 7954   0.418   5.021   0.667 -0.3832  1.1408  0.1329
 2650TIP3   OH2 7955   3.934   5.348   1.743  0.0371 -0.4603  0.8223
 2650TIP3    H1 7956   3.886   5.417   1.699 -0.2295 -0.6193  0.8625
 2650TIP3    H2 7957   4.024   5.381   1.749  0.3889 -0.9890 -1.0358
 2651TIP3   OH2 7958   1.120   4.472   4.731  0.1734  0.0573  0.5548
 2651TIP3    H1 7959   1.170   4.391   4.741 -0.1215 -0.2033 -0.0598
 2651TIP3    H2 7960   1.147   4.508   4.647 -1.7522 -0.8759 -0.5324
 2652TIP3   OH2 7961   5.129   2.177   4.579 -0.1530 -0.2040  0.3985
 2652TIP3    H1 7962   5.125   2.172   4.674 -0.0722  0.3737  0.4375
 2652TIP3    H2 7963   5.208   2.128   4.555  1.2683  1.7531  0.8320
 2653TIP3   OH2 7964   1.990   1.441   1.149 -0.2801  0.1978  0.2851
 2653TIP3    H1 7965   2.034   1.419   1.231 -2.2442  0.2093  1.4006
 2653TIP3    H2 7966   1.934   1.366   1.130  0.7122 -0.1581 -1.5307
 2654TIP3   OH2 7967   2.213   4.996   3.061  0.0034  0.4351 -0.1171
 2654TIP3    H1 7968   2.184   5.073   3.013 -0.9772  0.2357  0.1325
 2654TIP3    H2 7969   2.162   4.997   3.142 -0.9558 -1.1428 -0.6624
 2655TIP3   OH2 7970   0.074   5.560   2.495  0.2943 -0.3770 -0.3565
 2655TIP3    H1 7971   0.131   5.486   2.474  0.6720 -0.7247  1.7148
 2655TIP3    H2 7972   0.014   5.526   2.563  0.4461  1.1768  0.5936
 2656TIP3   OH2 7973   0.744   2.900   0.643  0.1731 -0.3340  0.1369
 2656TIP3    H1 7974   0.673   2.844   0.611 -0.1496 -0.3414  0.8639
 2656TIP3    H2 7975   0.700   2.975   0.683  0.5399 -0.7218  1.3043
 2657TIP3   OH2 7976   4.399   5.793   1.621  0.4540  0.3932 -0.0496
 2657TIP3    H1 7977   4.485   5.755   1.639  0.0109 -0.3873  0.5093
 2657TIP3    H2 7978   4.387   5.780   1.527 -0.0476 -1.7221  0.2542
 2658TIP3   OH2 7979   5.045   4.591   4.665 -0.4765 -0.2215 -0.0859
 2658TIP3    H1 7980   5.102   4.525   4.625 -0.4812 -0.2994  0.0345
 2658TIP3    H2 7981   5.029   4.558   4.753 -1.5112 -0.6992 -0.4418
 2659TIP3   OH2 7982   3.342   0.212   1.729 -0.2733 -0.0830 -0.0865
 2659TIP3    H1 7983   3.424   0.186   1.688  0.1895 -0.1294  0.8468
 2659TIP3    H2 7984   3.368   0.252   1.812 -1.2686 -1.7726  1.1007
 2660TIP3   OH2 7985   4.281   0.865   2.606 -0.4040  0.1915  0.6112
 2660TIP3    H1 7986   4.233   0.835   2.529  1.4835 -0.1778 -0.5026
 2660TIP3    H2 7987   4.370   0.832   2.592  0.9148  3.1844  1.1481
 2661TIP3   OH2 7988   3.307   0.224   3.940 -0.0128 -0.9616  0.2533
 2661TIP3    H1 7989   3.249   0.256   4.009  0.6153 -1.6420  1.1136
 2661TIP3    H2 7990   3.248   0.184   3.876 -0.6072 -0.2183  0.3177
 2662TIP3   OH2 7991   5.810   0.910   3.403 -0.6130 -0.5296  0.5790
 2662TIP3    H1 7992   5.901   0.934   3.381 -0.7839  0.7325  1.1506
 2662TIP3    H2 7993   5.760   0.934   3.325 -0.2642 -2.9007 -0.4675
 2663TIP3   OH2 7994   2.563   2.772   3.697 -0.0500 -0.5628 -0.4737
 2663TIP3    H1 7995   2.525   2.851   3.658  0.2023 -0.0108  0.3828
 2663TIP3    H2 7996   2.515   2.759   3.779  0.9008 -0.4448  0.1152
 2664TIP3   OH2 7997   5.125   0.370   4.075  0.6482 -0.2781  0.0057
 2664TIP3    H1 7998   5.033   0.349   4.090  0.4049 -0.0927 -1.1658
 2664TIP3    H2 7999   5.132   0.381   3.980  1.8688 -0.2446  0.0892
 2665TIP3   OH2 8000   6.268   3.477   4.530 -0.6987 -0.6186 -0.2577
 2665TIP3    H1 8001   6.224   3.404   4.486 -1.2752 -0.2990 -0.2371
 2665TIP3    H2 8002   6.360   3.452   4.535 -0.8045 -1.1076 -0.7291
 2666TIP3   OH2 8003   3.869   3.247   4.662 -0.1449 -0.4709  0.1095
 2666TIP3    H1 8004   3.853   3.327   4.613 -0.4334 -1.4758 -1.5249
 2666TIP3    H2 8005   3.920   3.275   4.738 -1.5399  1.4574  0.4048
 2667TIP3   OH2 8006   3.933   1.833   1.742 -0.0705 -0.0637 -0.0774
 2667TIP3    H1 8007   3.855   1.824   1.689 -0.9649  1.3015  0.9460
 2667TIP3    H2 8008   3.900   1.849   1.831  1.3485  1.0319  0.2901
 2668TIP3   OH2 8009   4.204   3.992   3.673  0.2969  0.2498  0.1743
 2668TIP3    H1 8010   4.211   4.081   3.706 -1.5734  0.1196  1.0191
 2668TIP3    H2 8011   4.245   3.938   3.741 -0.9333  0.2515  0.9444
 2669TIP3   OH2 8012   5.494   0.501   5.052  1.1416  0.0953 -0.2888
 2669TIP3    H1 8013   5.436   0.575   5.069  2.3433  1.0429 -0.2682
 2669TIP3    H2 8014   5.558   0.503   5.123  0.7451 -1.4489  0.1732
 2670TIP3   OH2 8015   2.631   1.030   3.941 -0.2686 -0.2587 -0.3809
 2670TIP3    H1 8016   2.649   1.062   3.853  1.1279  0.7161  0.2211
 2670TIP3    H2 8017   2.582   1.102   3.983  0.8751  0.1732  0.2585
 2671TIP3   OH2 8018   3.076   4.007   4.162 -0.5849 -0.3992 -0.1724
 2671TIP3    H1 8019   3.061   3.926   4.210 -2.0304  0.0278  0.1505
 2671TIP3    H2 8020   3.069   4.076   4.228  1.3582 -0.0159 -0.3060
 2672TIP3   OH2 8021   4.996   1.324   5.017  0.3170  0.2189  0.2830
 2672TIP3    H1 8022   4.994   1.345   4.924  0.0816 -1.4309 -0.1148
 2672TIP3    H2 8023   4.940   1.390   5.058  0.4366  0.9742 -0.7312
 2673TIP3   OH2 8024   2.969   1.159   1.993  0.4032 -0.2788  0.0563
 2673TIP3    H1 8025   3.011   1.240   1.966 -1.9807  1.3196  0.7827
 2673TIP3    H2 8026   3.037   1.109   2.038  1.8605  1.4364 -0.1713
 2674TIP3   OH2 8027   1.206   4.280   2.010  0.1220 -0.0457 -0.2329
 2674TIP3    H1 8028   1.173   4.341   2.076 -0.5133 -0.0770 -0.5136
 2674TIP3    H2 8029   1.206   4.331   1.929 -0.3758 -0.4001 -0.4604
 2675TIP3   OH2 8030   2.317   5.939   4.440 -0.0890  0.1274  0.3641
 2675TIP3    H1 8031   2.324   6.032   4.416  0.2720  0.3708  1.3387
 2675TIP3    H2 8032   2.277   5.897   4.364  1.9765  0.6418 -1.0956
 2676TIP3   OH2 8033   4.703   5.397   4.950 -0.3013 -0.4032 -0.3449
 2676TIP3    H1 8034   4.711   5.337   5.024  0.3425  0.7098  0.5284
 2676TIP3    H2 8035   4.629   5.453   4.973 -0.2990 -0.2531 -0.6969
 2677TIP3   OH2 8036   5.863   4.591   0.296 -0.4023  0.0263 -0.0563
 2677TIP3    H1 8037   5.848   4.615   0.388 -1.0604  0.1029 -0.1785
 2677TIP3    H2 8038   5.892   4.501   0.300 -1.4377 -0.3173  0.1740
 2678TIP3   OH2 8039   1.807   0.651   1.902  0.0858  0.6147 -0.3262
 2678TIP3    H1 8040   1.877   0.674   1.842  0.9498  1.1386  0.8599
 2678TIP3    H2 8041   1.779   0.563   1.873  1.3040  0.3437 -0.7293
 2679TIP3   OH2 8042   5.862   2.038   3.615 -0.1264  0.3625 -0.4516
 2679TIP3    H1 8043   5.825   2.112   3.568  0.5066 -0.2007 -1.8779
 2679TIP3    H2 8044   5.956   2.054   3.615 -0.1879  1.1429  2.0458
 2680TIP3   OH2 8045   5.942   4.782   0.533 -0.8291 -0.5095 -0.1913
 2680TIP3    H1 8046   5.943   4.849   0.465  0.6149  1.0061  1.2226
 2680TIP3    H2 8047   6.025   4.736   0.522 -0.0854  0.4568  1.1600
 2681TIP3   OH2 8048   2.205   0.530   2.408  0.3728  0.1075  0.3596
 2681TIP3    H1 8049   2.275   0.488   2.358  0.3742  0.4922  0.0253
 2681TIP3    H2 8050   2.160   0.584   2.343  0.7841  1.1304  0.8957
 2682TIP3   OH2 8051   3.995   1.954   0.650  0.1082  0.4917 -0.1082
 2682TIP3    H1 8052   3.931   1.891   0.685  0.7719 -0.6572 -0.9016
 2682TIP3    H2 8053   4.058   1.966   0.721 -0.8604  1.4916  0.6152
 2683TIP3   OH2 8054   2.298   4.779   1.335  0.6965  0.2384  0.5388
 2683TIP3    H1 8055   2.208   4.750   1.320 -0.0495  1.5551  2.1867
 2683TIP3    H2 8056   2.325   4.818   1.252  0.4606 -1.8057 -0.5724
 2684TIP3   OH2 8057   6.239   1.598   4.205 -0.5319  0.4998  0.0523
 2684TIP3    H1 8058   6.230   1.692   4.216  1.6035  1.1243 -2.5092
 2684TIP3    H2 8059   6.330   1.579   4.232 -0.2424 -0.4103 -1.4661
 2685TIP3   OH2 8060   1.950   2.897   2.923 -0.2261 -0.1119  0.5385
 2685TIP3    H1 8061   1.978   2.988   2.920 -0.7974  0.0805  0.9610
 2685TIP3    H2 8062   2.028   2.849   2.952  0.0990  0.2241  0.2358
 2686TIP3   OH2 8063   0.243   5.074   2.838 -0.0870 -0.6180  0.7542
 2686TIP3    H1 8064   0.151   5.098   2.823 -0.1957 -1.3081  0.2634
 2686TIP3    H2 8065   0.283   5.154   2.873 -0.5886  0.0777 -0.1964
 2687TIP3   OH2 8066   2.414   2.469   2.975 -0.1936 -0.0358  0.0901
 2687TIP3    H1 8067   2.502   2.469   2.937 -0.3351  2.0577 -0.3386
 2687TIP3    H2 8068   2.355   2.463   2.900 -0.4473 -0.8237  0.3390
 2688TIP3   OH2 8069   2.952   3.402   4.621 -0.2069  0.0639  0.1063
 2688TIP3    H1 8070   2.919   3.323   4.577 -1.2504  0.5173  0.0495
 2688TIP3    H2 8071   2.932   3.388   4.713  2.1280 -0.9611  0.5481
 2689TIP3   OH2 8072   4.985   5.141   2.059  0.1561 -0.2060 -0.0693
 2689TIP3    H1 8073   4.997   5.155   2.153  0.9748  0.0258 -0.1946
 2689TIP3    H2 8074   5.010   5.050   2.045 -1.8855 -0.8640  0.2236
 2690TIP3   OH2 8075   4.116   3.723   4.915  0.1688 -0.4031  0.0572
 2690TIP3    H1 8076   4.106   3.817   4.898  0.4513 -0.5293 -0.9013
 2690TIP3    H2 8077   4.034   3.684   4.883  0.8980 -0.6984 -1.5706
 2691TIP3   OH2 8078   3.406   5.207   3.691 -0.1448 -0.6250  0.3286
 2691TIP3    H1 8079   3.495   5.207   3.725 -0.1002  0.5096  0.2743
 2691TIP3    H2 8080   3.413   5.174   3.602  0.3048 -0.0773  0.1567
 2692TIP3   OH2 8081   5.862   0.881   4.551 -0.1128  0.7863 -0.1189
 2692TIP3    H1 8082   5.879   0.787   4.552 -3.0328  0.1861  0.2520
 2692TIP3    H2 8083   5.879   0.908   4.461  1.8248  0.1888  0.0230
 2693TIP3   OH2 8084   4.061   2.101   1.548  0.3196 -0.4051  0.4876
 2693TIP3    H1 8085   4.099   2.180   1.511 -1.9181  0.5574  0.0881
 2693TIP3    H2 8086   4.022   2.130   1.631 -0.9863 -0.9477  0.0840
 2694TIP3   OH2 8087   4.438   2.121   1.018  0.2061 -0.4990  0.3144
 2694TIP3    H1 8088   4.395   2.206   1.010  3.2283  1.0049 -2.0445
 2694TIP3    H2 8089   4.490   2.129   1.099  0.3850 -0.1477  0.1663
 2695TIP3   OH2 8090   3.110   3.626   4.475  0.3935 -0.7416  0.3339
 2695TIP3    H1 8091   3.093   3.536   4.449 -2.2988 -0.5990  1.2505
 2695TIP3    H2 8092   3.091   3.629   4.569  1.4981  0.5486  0.5436
 2696TIP3   OH2 8093   0.537   3.045   0.286  0.0862 -0.4728 -0.1384
 2696TIP3    H1 8094   0.552   3.119   0.227  0.4366 -1.0967 -0.8300
 2696TIP3    H2 8095   0.543   3.084   0.374 -0.6767  0.5064 -0.4933
 2697TIP3   OH2 8096   0.739   2.317   5.169  1.0303  0.0447  0.5006
 2697TIP3    H1 8097   0.648   2.295   5.148  0.7426  0.2699  1.4820
 2697TIP3    H2 8098   0.760   2.391   5.112  0.4441  0.2996  0.6128
 2698TIP3   OH2 8099   4.402   5.674   1.361 -0.0426 -0.0623 -0.0125
 2698TIP3    H1 8100   4.355   5.730   1.299  0.5193 -0.6722 -1.0387
 2698TIP3    H2 8101   4.354   5.591   1.357 -1.5874  0.6291  2.3778
 2699TIP3   OH2 8102   1.275   0.696   2.623  0.1434 -0.4264 -0.0685
 2699TIP3    H1 8103   1.288   0.753   2.699 -0.5666 -1.6526  1.0028
 2699TIP3    H2 8104   1.352   0.638   2.622  1.4002  1.1373 -1.7701
 2700TIP3   OH2 8105   0.212   1.146   2.746 -0.6346 -0.9933  0.0946
 2700TIP3    H1 8106   0.279   1.172   2.683 -0.6041 -0.6425  0.2672
 2700TIP3    H2 8107   0.136   1.201   2.725 -0.3398 -0.2519  0.9084
 2701TIP3   OH2 8108   2.977   2.503   4.778 -0.1610 -0.6059 -0.6357
 2701TIP3    H1 8109   2.887   2.510   4.811  0.3704 -1.1391  1.0059
 2701TIP3    H2 8110   3.029   2.555   4.839  0.6420 -0.1802 -1.6652
 2702TIP3   OH2 8111   3.745   2.195   4.593  0.0455  0.2473 -0.3078
 2702TIP3    H1 8112   3.676   2.128   4.590  0.2748  0.0379 -2.3977
 2702TIP3    H2 8113   3.812   2.158   4.651 -0.8380 -0.2864  0.4036
 2703TIP3   OH2 8114   4.374   3.325   2.364  0.2276  0.0373 -0.0722
 2703TIP3    H1 8115   4.439   3.274   2.316  0.3649 -0.0389  0.1938
 2703TIP3    H2 8116   4.426   3.382   2.420  0.0555 -0.7056  0.8593
 2704TIP3   OH2 8117   3.378   3.693   4.351  0.1692  0.3938 -0.1172
 2704TIP3    H1 8118   3.418   3.780   4.360  1.4547  0.0279 -1.8176
 2704TIP3    H2 8119   3.284   3.708   4.363  0.5412  1.6896  1.5096
 2705TIP3   OH2 8120   4.030   1.702   2.182 -0.0309  0.1368  0.3249
 2705TIP3    H1 8121   4.063   1.685   2.094  1.9389 -0.8502  1.1900
 2705TIP3    H2 8122   4.046   1.795   2.196  0.1038  0.1876 -0.1614
 2706TIP3   OH2 8123   1.065   5.145   4.212 -0.0955 -0.1035  0.5232
 2706TIP3    H1 8124   1.159   5.165   4.205 -0.6012  2.7685  0.8687
 2706TIP3    H2 8125   1.032   5.151   4.123 -0.2543  0.6973  0.6316
 2707TIP3   OH2 8126   3.764   4.548   3.574  0.6470 -0.4259 -0.0010
 2707TIP3    H1 8127   3.725   4.574   3.658  3.0234 -0.3069  1.1484
 2707TIP3    H2 8128   3.724   4.464   3.555 -3.0649  1.3311 -0.9767
 2708TIP3   OH2 8129   4.701   0.471   4.823 -0.1836 -0.6560 -0.4476
 2708TIP3    H1 8130   4.738   0.421   4.751 -0.9471 -1.4526 -0.2893
 2708TIP3    H2 8131   4.671   0.553   4.783  0.1436 -0.7437 -0.8784
 2709TIP3   OH2 8132   2.214   5.082   2.487  0.2035  0.4883 -0.4228
 2709TIP3    H1 8133   2.228   5.169   2.451 -0.2087  1.0639  0.7951
 2709TIP3    H2 8134   2.158   5.095   2.563 -0.5872 -0.9387 -0.7160
 2710TIP3   OH2 8135   0.974   3.195   4.094 -0.5073 -0.1276 -0.2710
 2710TIP3    H1 8136   0.968   3.201   4.189 -0.3952 -1.0157 -0.2018
 2710TIP3    H2 8137   0.916   3.123   4.071 -0.3062 -0.1086 -0.8547
 2711TIP3   OH2 8138   4.996   1.887   0.187 -0.6379 -0.0922  0.4123
 2711TIP3    H1 8139   5.082   1.855   0.214 -0.1372 -0.3024 -1.3171
 2711TIP3    H2 8140   4.934   1.822   0.220 -0.0141 -0.6209  0.5504
 2712TIP3   OH2 8141   0.265   5.050   2.267  0.3517  0.1593  0.4137
 2712TIP3    H1 8142   0.226   5.012   2.346 -1.8486 -0.6943 -1.0086
 2712TIP3    H2 8143   0.340   4.993   2.248  0.3878 -0.1342  1.3756
 2713TIP3   OH2 8144   0.656   3.867   4.053  0.0172 -0.2098  0.0283
 2713TIP3    H1 8145   0.626   3.825   3.973  0.2773  1.6654 -1.0970
 2713TIP3    H2 8146   0.587   3.930   4.075  0.6170  0.3090  0.4647
 2714TIP3   OH2 8147   6.029   1.241   5.044 -0.0339  0.4552  0.3050
 2714TIP3    H1 8148   5.961   1.294   5.085 -0.0319  1.0527 -0.4439
 2714TIP3    H2 8149   6.105   1.300   5.038  0.1142  0.2291 -0.1022
 2715TIP3   OH2 8150   5.654   4.561   3.376 -0.3775  0.1689  0.2210
 2715TIP3    H1 8151   5.612   4.499   3.435 -2.8843  0.2951 -1.2670
 2715TIP3    H2 8152   5.742   4.528   3.364 -0.8949 -1.7462  1.3548
 2716TIP3   OH2 8153   5.631   5.048   5.153  0.0489  0.0290 -0.1444
 2716TIP3    H1 8154   5.587   4.978   5.104  0.2128 -0.2449  0.0904
 2716TIP3    H2 8155   5.562   5.111   5.173 -0.4395 -0.8216  0.9782
 2717TIP3   OH2 8156   5.223   2.059   2.488 -0.1379 -0.4110  0.2104
 2717TIP3    H1 8157   5.145   2.077   2.541 -0.0631  0.5702  0.0096
 2717TIP3    H2 8158   5.262   2.145   2.474  0.3717 -0.7747 -0.6322
 2718TIP3   OH2 8159   5.110   1.892   5.040  0.4088 -0.5055  0.9290
 2718TIP3    H1 8160   5.119   1.807   4.997  0.1665 -1.2105  2.2196
 2718TIP3    H2 8161   5.163   1.884   5.119  1.2406  0.9289  0.5514
 2719TIP3   OH2 8162   5.937   2.966   1.027  0.2107  0.3784  0.0373
 2719TIP3    H1 8163   5.860   2.909   1.034  1.0941 -0.7679  0.7071
 2719TIP3    H2 8164   5.992   2.924   0.962 -0.6133  2.3262 -2.0515
 2720TIP3   OH2 8165   2.508   3.869   1.264  0.5155 -0.0143  0.2274
 2720TIP3    H1 8166   2.538   3.845   1.352  0.5450 -2.3246 -0.3581
 2720TIP3    H2 8167   2.565   3.943   1.239  1.4224 -0.2081  1.6104
 2721TIP3   OH2 8168   4.357   1.358   3.456 -0.2497 -0.2710  0.5999
 2721TIP3    H1 8169   4.384   1.447   3.479  1.2987 -0.7104  0.5605
 2721TIP3    H2 8170   4.333   1.318   3.540 -0.7590  0.1112  0.6411
 2722TIP3   OH2 8171   1.622   1.601   3.788 -0.1620 -0.7950  0.4551
 2722TIP3    H1 8172   1.671   1.667   3.837 -1.9226 -0.0913  1.3621
 2722TIP3    H2 8173   1.679   1.579   3.714  0.2931  2.1374 -0.1847
 2723TIP3   OH2 8174   4.449   4.048   4.356 -0.0240  0.4193  0.2502
 2723TIP3    H1 8175   4.499   4.127   4.372  0.9848 -0.3094  0.8425
 2723TIP3    H2 8176   4.493   4.006   4.282 -0.3012  0.2084  0.2010
 2724TIP3   OH2 8177   6.304   4.176   5.114  0.6733 -0.4782 -0.9255
 2724TIP3    H1 8178   6.254   4.105   5.154  0.8472  0.2476  0.6277
 2724TIP3    H2 8179   6.272   4.256   5.157  3.6374 -0.0483  0.6936
 2725TIP3   OH2 8180   1.119   3.746   0.008 -0.3160  0.3951 -0.1686
 2725TIP3    H1 8181   1.075   3.681   0.063 -0.2815 -0.1866 -0.8208
 2725TIP3    H2 8182   1.138   3.819   0.068 -0.1463 -0.2861  0.6224
 2726TIP3   OH2 8183   2.589   1.836   2.694 -0.2758  0.1677 -0.2966
 2726TIP3    H1 8184   2.530   1.855   2.621  0.3721  1.4183 -0.5310
 2726TIP3    H2 8185   2.660   1.786   2.654  1.0017  2.3913 -0.9599
 2727TIP3   OH2 8186   1.771   4.309   4.580  0.1730 -0.0629 -0.3572
 2727TIP3    H1 8187   1.853   4.315   4.628  0.3381  1.0629 -0.7546
 2727TIP3    H2 8188   1.752   4.399   4.553 -0.1033 -0.5957 -2.0839
 2728TIP3   OH2 8189   2.238   5.890   3.613  0.4275 -0.2383  0.6989
 2728TIP3    H1 8190   2.202   5.965   3.565  1.0097 -0.0000  0.6290
 2728TIP3    H2 8191   2.168   5.824   3.611  0.1098  0.1096  0.3097
 2729TIP3   OH2 8192   3.100   4.209   3.871 -0.7275 -0.2230 -0.3848
 2729TIP3    H1 8193   3.060   4.127   3.844 -0.5245 -0.3140 -0.4076
 2729TIP3    H2 8194   3.029   4.257   3.915 -0.8782 -0.3549 -0.4842
 2730TIP3   OH2 8195   4.782   4.912   2.716 -0.0491 -0.1588  0.1901
 2730TIP3    H1 8196   4.769   5.006   2.723 -2.9218 -0.3911 -0.7369
 2730TIP3    H2 8197   4.875   4.899   2.737  0.2624  2.7524  1.0518
 2731TIP3   OH2 8198   3.251   4.263   1.538 -0.4168 -0.1781  0.6875
 2731TIP3    H1 8199   3.326   4.262   1.478 -1.1752  0.6573 -0.2954
 2731TIP3    H2 8200   3.250   4.175   1.576 -0.0319 -0.7990 -0.6644
 2732TIP3   OH2 8201   3.709   3.678   1.770 -0.1968  0.6067 -0.0467
 2732TIP3    H1 8202   3.724   3.761   1.724 -2.1425  0.0538 -1.8198
 2732TIP3    H2 8203   3.709   3.612   1.701 -1.5449 -0.4819  0.9438
 2733TIP3   OH2 8204   5.044   5.045   0.409 -0.0030  0.2103  0.1562
 2733TIP3    H1 8205   5.073   4.974   0.466  0.4395  0.1287 -0.1712
 2733TIP3    H2 8206   5.121   5.101   0.397 -0.3775  0.8126  0.5045
 2734TIP3   OH2 8207   2.802   0.461   2.452  0.2446 -0.5758 -0.2562
 2734TIP3    H1 8208   2.731   0.523   2.433 -0.2090 -0.5143  1.4576
 2734TIP3    H2 8209   2.768   0.376   2.425 -0.1406 -0.4267 -0.2460
 2735TIP3   OH2 8210   1.737   0.008   0.460 -0.4888 -0.0247 -0.1810
 2735TIP3    H1 8211   1.776   0.044   0.380 -1.1572 -0.5119 -0.7495
 2735TIP3    H2 8212   1.687   0.081   0.497  0.9597  0.6201  0.5857
 2736TIP3   OH2 8213   1.011   0.304   4.675 -0.3540  0.0570  0.0495
 2736TIP3    H1 8214   1.004   0.376   4.612 -1.1126 -0.0937 -0.0435
 2736TIP3    H2 8215   0.929   0.306   4.724 -1.1546 -1.8155 -1.1118
 2737TIP3   OH2 8216   4.939   1.020   1.535  0.3826  0.4787 -0.2082
 2737TIP3    H1 8217   4.865   0.992   1.481  1.0541 -1.2146 -0.3111
 2737TIP3    H2 8218   4.941   1.115   1.525  1.1794  0.2063 -4.1436
 2738TIP3   OH2 8219   5.587   4.625   3.693 -0.1412  0.0140  0.1278
 2738TIP3    H1 8220   5.578   4.657   3.783 -0.7587  0.7912 -0.2016
 2738TIP3    H2 8221   5.498   4.631   3.657  0.6871  3.2102 -1.6914
 2739TIP3   OH2 8222   0.262   4.808   2.875 -0.2302 -1.0886  0.3824
 2739TIP3    H1 8223   0.348   4.795   2.916 -0.4743 -1.3980  0.8029
 2739TIP3    H2 8224   0.255   4.903   2.866 -0.1233 -1.0190  0.9679
 2740TIP3   OH2 8225   0.260   5.339   0.256  0.1705  0.0965 -0.1322
 2740TIP3    H1 8226   0.341   5.369   0.298 -0.0232  0.0297  0.2889
 2740TIP3    H2 8227   0.221   5.278   0.318 -1.2760  1.7022  0.6255
 2741TIP3   OH2 8228   0.768   4.488   4.589  0.3816 -0.8506  0.0026
 2741TIP3    H1 8229   0.845   4.531   4.552  0.4133 -0.5223  0.4422
 2741TIP3    H2 8230   0.703   4.557   4.596 -0.8510 -1.5878 -2.6757
 2742TIP3   OH2 8231   2.736   2.109   3.143 -0.2871  0.0415 -0.1913
 2742TIP3    H1 8232   2.771   2.108   3.054 -0.1328 -0.6151 -0.1232
 2742TIP3    H2 8233   2.738   2.202   3.168 -1.5469  0.4235 -1.3449
 2743TIP3   OH2 8234   5.629   4.991   0.657 -0.2031  0.8166  0.6125
 2743TIP3    H1 8235   5.629   5.006   0.563  0.5571  0.1060  0.4773
 2743TIP3    H2 8236   5.581   4.909   0.669  2.8404 -1.2113  0.3735
 2744TIP3   OH2 8237   1.999   2.209   0.223 -0.7978 -0.1070 -0.2657
 2744TIP3    H1 8238   1.931   2.222   0.158 -0.2299  1.0624 -0.6572
 2744TIP3    H2 8239   1.986   2.120   0.254 -3.0727  0.3759  0.3531
 2745TIP3   OH2 8240   4.828   5.335   2.995 -0.2713 -0.2495 -0.4821
 2745TIP3    H1 8241   4.907   5.324   3.047 -0.2622  0.5431 -0.3172
 2745TIP3    H2 8242   4.832   5.425   2.964 -1.0494 -0.2362 -0.5673
 2746TIP3   OH2 8243   0.703   0.167   4.120 -0.4638  0.3493 -0.1003
 2746TIP3    H1 8244   0.760   0.225   4.170  0.7404 -0.3665 -0.6084
 2746TIP3    H2 8245   0.732   0.079   4.143 -0.8389 -0.0118 -0.9767
 2747TIP3   OH2 8246   4.630   4.817   2.199 -0.0922  0.2542  0.1780
 2747TIP3    H1 8247   4.688   4.819   2.275  1.1298  2.6184 -0.7183
 2747TIP3    H2 8248   4.552   4.771   2.229  1.5993 -1.6995  1.8800
 2748TIP3   OH2 8249   0.101   2.486   4.110  0.1936 -0.3710  0.1084
 2748TIP3    H1 8250   0.055   2.545   4.049 -0.6714  0.1427  1.2151
 2748TIP3    H2 8251   0.072   2.398   4.085 -2.1067 -0.0292  1.2544
 2749TIP3   OH2 8252   3.771   3.259   3.443  0.2769 -0.0775 -0.7496
 2749TIP3    H1 8253   3.813   3.297   3.520  0.0873  1.0848 -1.2027
 2749TIP3    H2 8254   3.729   3.179   3.476 -1.3074  1.2747  0.7742
 2750TIP3   OH2 8255   5.850   2.467   0.118 -0.1883  0.3926  0.7575
 2750TIP3    H1 8256   5.841   2.413   0.039 -1.5261 -2.1749  2.5117
 2750TIP3    H2 8257   5.788   2.428   0.180  1.1915  1.9488  3.2683
 2751TIP3   OH2 8258   0.169   2.271   1.413  0.3329 -0.5189  0.3436
 2751TIP3    H1 8259   0.135   2.183   1.398 -0.7263 -0.4755  2.1828
 2751TIP3    H2 8260   0.222   2.263   1.493  1.5467  0.2080 -0.3573
 2752TIP3   OH2 8261   3.509   4.708   0.857  0.2791 -0.0888 -0.1184
 2752TIP3    H1 8262   3.568   4.782   0.842 -1.1389  1.1301  0.1299
 2752TIP3    H2 8263   3.428   4.732   0.813  0.4012 -2.4172 -1.8006
 2753TIP3   OH2 8264   2.832   0.536   3.489 -0.2478  0.5578  0.1367
 2753TIP3    H1 8265   2.826   0.574   3.401 -0.6766 -1.0050 -0.5307
 2753TIP3    H2 8266   2.753   0.482   3.497 -0.6685  1.3668  1.8397
 2754TIP3   OH2 8267   0.578   4.712   4.584  0.3783  0.1946  0.6214
 2754TIP3    H1 8268   0.555   4.792   4.630 -0.4267  0.8373 -0.8423
 2754TIP3    H2 8269   0.541   4.723   4.497 -0.9419 -2.3470  0.7684
 2755TIP3   OH2 8270   5.924   1.543   0.281  0.4269  0.1387 -0.0522
 2755TIP3    H1 8271   5.973   1.615   0.322  2.2114 -1.3017  0.4428
 2755TIP3    H2 8272   5.938   1.468   0.339  0.2485 -1.1218 -1.5918
 2756TIP3   OH2 8273   2.622   5.833   0.046 -0.9714 -0.4822 -0.1676
 2756TIP3    H1 8274   2.539   5.875   0.069 -0.0596  0.5225  1.4905
 2756TIP3    H2 8275   2.665   5.894  -0.013 -1.5703 -1.2051 -1.3839
 2757TIP3   OH2 8276   3.379   4.371   4.928  0.5350  0.5831 -0.6857
 2757TIP3    H1 8277   3.298   4.349   4.882 -0.6071  2.3299  0.3388
 2757TIP3    H2 8278   3.449   4.345   4.869 -0.6513 -2.7773 -0.8328
 2758TIP3   OH2 8279   4.695   5.585   2.586  0.0436  0.1544  0.1092
 2758TIP3    H1 8280   4.779   5.617   2.619 -0.2305 -0.6787  1.7010
 2758TIP3    H2 8281   4.718   5.513   2.528  0.4381 -0.0007  0.4543
 2759TIP3   OH2 8282   3.529   2.012   1.652 -0.0506  0.1460 -0.4006
 2759TIP3    H1 8283   3.515   1.985   1.742  0.0725  0.7115 -0.2061
 2759TIP3    H2 8284   3.566   2.101   1.659 -3.7647  1.9251 -1.0544
 2760TIP3   OH2 8285   4.216   0.421   4.245  0.3212  0.0771  0.2269
 2760TIP3    H1 8286   4.141   0.363   4.252  0.8368 -0.5549  0.6654
 2760TIP3    H2 8287   4.190   0.500   4.293  0.1015 -0.3090  0.7531
 2761TIP3   OH2 8288   5.020   3.748   1.235 -0.6962 -0.3462  0.5278
 2761TIP3    H1 8289   4.972   3.722   1.157  0.2919 -1.3603  0.2318
 2761TIP3    H2 8290   5.099   3.792   1.201 -0.9279  0.4507  0.9876
 2762TIP3   OH2 8291   0.816   2.800   2.956  0.2647 -0.5789  0.3719
 2762TIP3    H1 8292   0.782   2.886   2.980 -0.9788 -1.3484  1.4471
 2762TIP3    H2 8293   0.831   2.806   2.862 -2.0566  0.0845 -0.0093
 2763TIP3   OH2 8294   4.528   2.505   4.541 -0.1599 -0.7876  0.3004
 2763TIP3    H1 8295   4.595   2.488   4.475  0.0511 -0.1053  0.3274
 2763TIP3    H2 8296   4.545   2.595   4.570  0.9122 -1.6489  2.6343
 2764TIP3   OH2 8297   3.653   1.188   1.876  0.3517  0.3337 -0.3740
 2764TIP3    H1 8298   3.559   1.180   1.892  0.4809 -0.8930 -0.0930
 2764TIP3    H2 8299   3.665   1.159   1.786  0.2781  2.0971 -0.9807
 2765TIP3   OH2 8300   2.811   5.481   0.222  0.2891 -0.4979  0.1786
 2765TIP3    H1 8301   2.845   5.426   0.151  1.1168  0.8632 -0.5424
 2765TIP3    H2 8302   2.724   5.507   0.192 -0.4623 -2.0373  0.9111
 2766TIP3   OH2 8303   4.035   5.147   0.038 -0.1022  0.2350  0.2138
 2766TIP3    H1 8304   4.018   5.120  -0.052 -0.1452 -3.3343  1.1785
 2766TIP3    H2 8305   4.130   5.142   0.047 -0.1884 -0.5967  0.6921
 2767TIP3   OH2 8306   1.898   5.671   3.395 -0.1119  0.1033 -0.3591
 2767TIP3    H1 8307   1.813   5.679   3.438 -0.3801  0.0220 -0.8662
 2767TIP3    H2 8308   1.961   5.707   3.459 -0.4789 -0.1626  0.1606
 2768TIP3   OH2 8309   2.555   5.860   4.988  0.2318  0.1738 -0.0637
 2768TIP3    H1 8310   2.563   5.773   4.951 -0.5409  0.2392 -0.4180
 2768TIP3    H2 8311   2.578   5.850   5.080 -1.1507 -0.6859  0.2163
 2769TIP3   OH2 8312   2.980   0.020   0.423 -0.1317  0.0116 -0.2662
 2769TIP3    H1 8313   3.028   0.032   0.341  1.2879 -0.8453  0.4136
 2769TIP3    H2 8314   2.908  -0.039   0.400 -0.6198  0.9264 -1.1906
 2770TIP3   OH2 8315   0.989   4.086   0.273 -0.4644  0.0083  0.1329
 2770TIP3    H1 8316   0.960   4.097   0.364  0.2037  3.3857  0.0702
 2770TIP3    H2 8317   1.040   4.005   0.274  0.5283  0.5410  3.0619
 2771TIP3   OH2 8318   3.961   2.139   5.133 -0.0280  0.5645 -0.2849
 2771TIP3    H1 8319   3.914   2.063   5.167  1.1762 -0.2623 -0.3948
 2771TIP3    H2 8320   4.053   2.114   5.139  0.3778  1.9389 -0.5407
 2772TIP3   OH2 8321   2.765   5.507   4.570  0.6700  0.6260  0.0247
 2772TIP3    H1 8322   2.769   5.413   4.555 -1.6522  0.3807  0.5865
 2772TIP3    H2 8323   2.717   5.542   4.495 -0.3630  1.0353  0.8494
 2773TIP3   OH2 8324   5.152   4.826   1.294  0.0738 -0.6324 -0.6514
 2773TIP3    H1 8325   5.212   4.898   1.312  0.9172 -1.1035 -1.4856
 2773TIP3    H2 8326   5.086   4.832   1.363  0.6002  0.4138 -0.2122
 2774TIP3   OH2 8327   4.940   2.653   3.064  0.0056 -0.1808  0.9675
 2774TIP3    H1 8328   4.920   2.617   2.978  1.8739  1.1582 -0.1048
 2774TIP3    H2 8329   4.858   2.690   3.094 -1.1865 -2.4407  0.7241
 2775TIP3   OH2 8330   5.147   2.908   1.791  0.6992 -0.2903 -0.0054
 2775TIP3    H1 8331   5.093   2.835   1.762  1.2291 -0.3112 -0.9766
 2775TIP3    H2 8332   5.235   2.886   1.760  0.9158  0.6328 -0.0600
 2776TIP3   OH2 8333   6.012   5.760   1.188 -0.4503  0.1515 -0.4021
 2776TIP3    H1 8334   5.923   5.769   1.222  0.4221  1.7242  1.6427
 2776TIP3    H2 8335   6.004   5.782   1.095 -2.3317 -0.7344 -0.5079
 2777TIP3   OH2 8336   2.373   4.935   1.545 -0.1359 -0.3072  0.2348
 2777TIP3    H1 8337   2.347   4.874   1.476 -0.5249  0.7018 -0.5477
 2777TIP3    H2 8338   2.306   4.927   1.612 -1.9022  1.3547 -1.1963
 2778TIP3   OH2 8339   0.941   3.143   3.572  0.0580  0.5752  0.2075
 2778TIP3    H1 8340   0.866   3.202   3.577 -0.0521  0.3744  1.0531
 2778TIP3    H2 8341   0.905   3.063   3.532  0.0591  0.8363 -0.3260
 2779TIP3   OH2 8342   3.752   5.911   3.098 -0.1077  0.2492  0.1345
 2779TIP3    H1 8343   3.767   6.006   3.091 -1.2134  0.5277  1.2263
 2779TIP3    H2 8344   3.746   5.895   3.192  0.6095 -1.0137 -0.0088
 2780TIP3   OH2 8345   1.005   5.240   2.318  0.1761  0.0937 -0.0418
 2780TIP3    H1 8346   1.064   5.165   2.312 -0.5369 -0.3467 -2.3440
 2780TIP3    H2 8347   0.953   5.223   2.397 -1.3159 -2.9347 -1.5057
 2781TIP3   OH2 8348   0.983   3.880   1.285 -0.5392  0.0193 -0.0654
 2781TIP3    H1 8349   1.044   3.813   1.316 -0.1002  0.1097 -0.7232
 2781TIP3    H2 8350   0.925   3.895   1.359 -0.6085 -1.0482  0.1210
 2782TIP3   OH2 8351   3.172   2.388   3.230  0.3736  0.1804  0.2449
 2782TIP3    H1 8352   3.118   2.415   3.156  0.7862 -1.0746 -0.5524
 2782TIP3    H2 8353   3.159   2.456   3.296  0.6236  1.7550 -1.2743
 2783TIP3   OH2 8354   0.865   5.290   4.715 -1.2715 -0.2641  0.0407
 2783TIP3    H1 8355   0.832   5.251   4.634  0.6550 -0.5958 -0.6374
 2783TIP3    H2 8356   0.820   5.243   4.785 -0.3091 -2.5781 -0.7828
 2784TIP3   OH2 8357   2.220   3.509   2.933 -0.0369 -0.4532  0.0356
 2784TIP3    H1 8358   2.259   3.430   2.970  0.4383 -1.9176 -3.2622
 2784TIP3    H2 8359   2.206   3.566   3.008  1.7286 -2.7440  2.2714
 2785TIP3   OH2 8360   5.063   3.041   4.279  0.8995 -0.3045 -0.0339
 2785TIP3    H1 8361   5.133   3.027   4.343  1.2883  0.8980 -0.1719
 2785TIP3    H2 8362   5.060   2.960   4.229  2.5768 -0.1794 -0.3942
 2786TIP3   OH2 8363   2.358   4.846   0.684 -0.0271  0.7710  0.3010
 2786TIP3    H1 8364   2.319   4.775   0.633  0.4969  0.4777  0.2940
 2786TIP3    H2 8365   2.290   4.913   0.689 -1.1498 -0.4190  1.7597
 2787TIP3   OH2 8366   4.033   0.969   3.549  0.0009 -0.2678 -0.0358
 2787TIP3    H1 8367   4.014   1.063   3.556 -1.8624 -0.5327 -0.7547
 2787TIP3    H2 8368   4.127   0.961   3.564  0.0670  1.6317  0.7521
 2788TIP3   OH2 8369   2.339   4.281   2.175 -0.2770 -0.1888 -0.2343
 2788TIP3    H1 8370   2.370   4.369   2.154  1.7610 -1.2454 -1.8870
 2788TIP3    H2 8371   2.260   4.270   2.122 -1.0041  0.8662  0.5717
 2789TIP3   OH2 8372   3.777   4.430   4.972  0.5292 -0.5412  0.0472
 2789TIP3    H1 8373   3.713   4.450   4.903  0.7253 -2.2387 -0.6866
 2789TIP3    H2 8374   3.860   4.462   4.938  0.6487 -1.4970 -0.6040
 2790TIP3   OH2 8375   0.288   0.622   3.821  0.4411 -0.6271 -0.0359
 2790TIP3    H1 8376   0.367   0.613   3.874  0.7905  1.6300 -0.0829
 2790TIP3    H2 8377   0.252   0.708   3.846  0.0809  0.0893 -2.7134
 2791TIP3   OH2 8378   3.564   1.870   3.258 -0.0067  0.0763 -0.6004
 2791TIP3    H1 8379   3.636   1.909   3.208  0.4851  0.3218  0.2747
 2791TIP3    H2 8380   3.598   1.864   3.348 -0.8348 -0.4368 -0.3097
 2792TIP3   OH2 8381   5.280   3.493   4.940 -0.1198 -0.0127 -0.2285
 2792TIP3    H1 8382   5.354   3.539   4.899 -0.7999 -0.1944 -1.7225
 2792TIP3    H2 8383   5.206   3.553   4.930 -0.3709 -0.1960  0.4860
 2793TIP3   OH2 8384   4.781   2.518   2.314 -0.2612  0.2676  0.0448
 2793TIP3    H1 8385   4.767   2.465   2.236 -2.9551  1.6427 -0.5441
 2793TIP3    H2 8386   4.846   2.583   2.288 -1.7880  1.2838 -1.4373
 2794TIP3   OH2 8387   4.480   5.281   2.737  0.4012  0.2736 -0.0410
 2794TIP3    H1 8388   4.447   5.243   2.818 -0.0896 -0.2945 -0.5053
 2794TIP3    H2 8389   4.402   5.314   2.692  0.7065  0.8871 -0.1398
 2795TIP3   OH2 8390   6.098   5.916   4.740  0.1419 -0.0534 -0.4658
 2795TIP3    H1 8391   6.141   5.875   4.815  1.0402 -0.2088 -1.0587
 2795TIP3    H2 8392   6.157   5.986   4.714 -0.8893  0.9927 -0.1020
 2796TIP3   OH2 8393   4.643   1.211   2.797  0.2213 -0.7089 -0.2153
 2796TIP3    H1 8394   4.728   1.195   2.838  0.3694 -1.0713 -0.6516
 2796TIP3    H2 8395   4.663   1.265   2.721  0.1517 -1.3923 -0.7251
 2797TIP3   OH2 8396   3.322   4.385   4.532 -0.2757 -0.1618 -0.3813
 2797TIP3    H1 8397   3.275   4.463   4.562 -1.1498 -0.0454 -1.9302
 2797TIP3    H2 8398   3.414   4.406   4.544 -0.4649  1.3970 -1.3436
 2798TIP3   OH2 8399   4.933   5.593   4.649 -0.3136 -0.1142 -0.2999
 2798TIP3    H1 8400   4.870   5.628   4.712 -0.4378  2.3449 -1.6669
 2798TIP3    H2 8401   5.013   5.644   4.663 -0.1885  0.1455 -1.7522
 2799TIP3   OH2 8402   1.144   0.034   3.831 -0.2791 -0.0792  0.0361
 2799TIP3    H1 8403   1.227   0.051   3.786 -0.0740 -0.6732  0.1747
 2799TIP3    H2 8404   1.092   0.113   3.818  0.1242  0.1035 -0.4701
 2800TIP3   OH2 8405   3.819   5.041   4.522 -0.3675  0.2442 -0.4610
 2800TIP3    H1 8406   3.743   5.009   4.473 -1.2858  1.6287 -0.0171
 2800TIP3    H2 8407   3.794   5.028   4.614  1.0527 -1.6955 -0.2830
 2801TIP3   OH2 8408   6.316   4.903   1.099 -0.4755  0.5330  0.0932
 2801TIP3    H1 8409   6.266   4.901   1.181  2.3166 -2.1517  1.9396
 2801TIP3    H2 8410   6.406   4.917   1.127  0.4349  0.7646 -2.6966
 2802TIP3   OH2 8411   1.060   3.824   0.277 -0.1067 -0.5956  0.3747
 2802TIP3    H1 8412   0.996   3.804   0.345  0.2750  0.3510  1.0312
 2802TIP3    H2 8413   1.126   3.756   0.285  1.5210  1.1467  3.0052
 2803TIP3   OH2 8414   3.860   2.955   2.243 -0.0200  0.0978 -0.2864
 2803TIP3    H1 8415   3.887   2.912   2.325 -1.8562 -0.1775  0.2107
 2803TIP3    H2 8416   3.906   3.039   2.244  2.2225 -1.0389 -0.3906
 2804TIP3   OH2 8417   3.989   5.270   0.846 -0.6247  0.1675  0.4829
 2804TIP3    H1 8418   4.041   5.317   0.911  1.5223 -1.7144  0.2296
 2804TIP3    H2 8419   3.996   5.323   0.767  2.3544 -0.7288 -0.0013
 2805TIP3   OH2 8420   4.977   3.967   2.038  0.2499 -0.6096  0.2333
 2805TIP3    H1 8421   4.896   4.016   2.028  0.5816 -0.2505 -0.8861
 2805TIP3    H2 8422   4.972   3.928   2.125  0.2484  1.9687  1.4803
 2806TIP3   OH2 8423   2.667   3.474   0.277 -0.0160  0.1275 -0.1794
 2806TIP3    H1 8424   2.740   3.415   0.255 -0.4209 -1.3449  2.0282
 2806TIP3    H2 8425   2.592   3.438   0.231  0.3369  0.8624 -1.3860
 2807TIP3   OH2 8426   4.156   1.637   5.171  0.8336  0.2908 -0.0823
 2807TIP3    H1 8427   4.197   1.693   5.105 -1.0857  1.5578 -0.2863
 2807TIP3    H2 8428   4.094   1.584   5.122  0.3304  0.3001  0.5378
 2808TIP3   OH2 8429   5.599   3.604   1.550  0.0009 -0.1113 -0.1610
 2808TIP3    H1 8430   5.588   3.599   1.645  0.7202 -0.9880 -0.1120
 2808TIP3    H2 8431   5.610   3.697   1.532 -0.8626  0.1393  0.5220
 2809TIP3   OH2 8432   2.907   5.343   2.364 -0.1909 -0.0684 -0.5016
 2809TIP3    H1 8433   2.987   5.296   2.341 -0.6560 -1.4857  0.6054
 2809TIP3    H2 8434   2.891   5.401   2.290  0.4102 -1.7169 -2.0014
 2810TIP3   OH2 8435   4.682   3.211   2.671 -0.1472 -0.0820 -0.5071
 2810TIP3    H1 8436   4.639   3.220   2.586 -1.1866  0.6488  0.0724
 2810TIP3    H2 8437   4.627   3.261   2.731  2.0896  1.8630  0.0952
 2811TIP3   OH2 8438   1.105   4.278   3.132 -0.2969 -0.1915 -0.0020
 2811TIP3    H1 8439   1.138   4.223   3.202  0.6673  1.6456  1.0746
 2811TIP3    H2 8440   1.158   4.358   3.137 -1.1859  0.5936 -1.8905
 2812TIP3   OH2 8441   1.915   5.733   1.677  0.0699 -0.0026  0.5153
 2812TIP3    H1 8442   1.832   5.709   1.718  1.2081 -1.1964  2.2441
 2812TIP3    H2 8443   1.963   5.779   1.746  0.6592  1.1869 -0.6376
 2813TIP3   OH2 8444   1.573   3.579   5.135 -0.4949 -0.0544  0.3167
 2813TIP3    H1 8445   1.613   3.664   5.154 -1.3161  0.9498 -2.0711
 2813TIP3    H2 8446   1.639   3.532   5.084 -0.8511  0.0128 -0.2065
 2814TIP3   OH2 8447   4.367   2.836   3.405  0.6090 -0.1540  0.1037
 2814TIP3    H1 8448   4.273   2.836   3.421  0.8137 -1.8985  1.5717
 2814TIP3    H2 8449   4.378   2.791   3.321  0.1082  0.8287 -0.5055
 2815TIP3   OH2 8450   3.097   0.681   3.847 -0.0474 -0.4066 -0.4488
 2815TIP3    H1 8451   3.168   0.704   3.787  0.0226  0.6569  0.0206
 2815TIP3    H2 8452   3.050   0.763   3.862 -0.7979 -0.9077 -0.0001
 2816TIP3   OH2 8453   2.847   2.660   2.546 -0.1158 -0.5121  0.4962
 2816TIP3    H1 8454   2.812   2.749   2.550 -0.0747 -0.4757  0.0358
 2816TIP3    H2 8455   2.810   2.622   2.467  0.5331 -0.6204  0.2386
 2817TIP3   OH2 8456   3.201   1.672   2.975  0.8253  0.7173  0.2161
 2817TIP3    H1 8457   3.130   1.731   2.999 -0.3238 -0.7817  0.6972
 2817TIP3    H2 8458   3.206   1.678   2.880  0.2015  1.0264  0.1932
 2818TIP3   OH2 8459   2.745   2.202   4.287 -0.5443 -0.0141 -0.2924
 2818TIP3    H1 8460   2.801   2.132   4.318 -1.3806 -0.7026 -0.3018
 2818TIP3    H2 8461   2.804   2.260   4.239  0.9489  1.4646  3.0073
 2819TIP3   OH2 8462   4.432   5.064   2.082  0.5416 -0.0214  0.1240
 2819TIP3    H1 8463   4.451   5.024   2.167  0.1177 -0.4484  0.0274
 2819TIP3    H2 8464   4.481   5.146   2.082  1.0282 -0.3064  0.5326
 2820TIP3   OH2 8465   3.796   3.116   0.818  0.0991 -0.1344 -0.7884
 2820TIP3    H1 8466   3.719   3.061   0.802 -1.2731  1.7925 -1.1420
 2820TIP3    H2 8467   3.858   3.091   0.749  0.6467 -3.0125  0.5738
 2821TIP3   OH2 8468   0.793   1.751   3.267 -1.0193 -0.1303 -0.2645
 2821TIP3    H1 8469   0.768   1.696   3.193  0.5527  0.0765 -1.0040
 2821TIP3    H2 8470   0.805   1.838   3.228 -1.0957  0.1850  0.4112
 2822TIP3   OH2 8471   0.545   5.866   4.674 -0.5187 -0.7542 -0.5543
 2822TIP3    H1 8472   0.574   5.844   4.585  1.0705 -1.4931  0.1003
 2822TIP3    H2 8473   0.452   5.845   4.675 -0.6854 -0.2487 -2.1813
 2823TIP3   OH2 8474   5.899   3.071   4.116 -0.4423 -0.4054  0.2207
 2823TIP3    H1 8475   5.918   2.986   4.076 -0.4572 -0.4681  0.3480
 2823TIP3    H2 8476   5.985   3.109   4.135 -0.4152  0.0041 -0.6754
 2824TIP3   OH2 8477   4.885   5.093   4.246  0.2505 -0.6020 -0.3386
 2824TIP3    H1 8478   4.913   5.149   4.173 -0.4064  0.8859  0.5043
 2824TIP3    H2 8479   4.876   5.153   4.320 -1.1835 -1.6964  0.4294
 2825TIP3   OH2 8480   5.399   0.011   3.969 -1.0694  0.2692 -0.1333
 2825TIP3    H1 8481   5.402   0.029   3.875  1.8268  0.0729 -0.1728
 2825TIP3    H2 8482   5.317  -0.037   3.982 -1.6754  0.5481 -2.4879
 2826TIP3   OH2 8483   0.795   0.406   3.805 -0.2085  1.0846 -0.6077
 2826TIP3    H1 8484   0.773   0.314   3.791  1.1483  0.4985  0.7251
 2826TIP3    H2 8485   0.844   0.432   3.727  2.5722 -0.4898  0.4497
 2827TIP3   OH2 8486   0.819   0.994   1.871 -0.3334  0.6443  0.0832
 2827TIP3    H1 8487   0.819   0.930   1.800 -0.5508 -0.3815  0.9875
 2827TIP3    H2 8488   0.788   0.946   1.948  2.7643  0.8617  1.6460
 2828TIP3   OH2 8489   4.814   4.863   0.453 -0.4854 -0.5057 -0.6581
 2828TIP3    H1 8490   4.869   4.916   0.395  1.6681  0.1194  1.7698
 2828TIP3    H2 8491   4.839   4.773   0.433  1.3639 -0.2411  0.2322
 2829TIP3   OH2 8492   1.806   0.398   0.775 -0.4222 -0.4530 -0.1896
 2829TIP3    H1 8493   1.829   0.486   0.746  2.1463  0.2682  3.2986
 2829TIP3    H2 8494   1.714   0.404   0.801 -0.2884  1.2018 -0.0437
 2830TIP3   OH2 8495   2.857   1.632   1.348  0.2280  0.3400 -0.1737
 2830TIP3    H1 8496   2.925   1.690   1.313 -0.0226  0.4608 -0.4660
 2830TIP3    H2 8497   2.904   1.551   1.370  1.0714  1.4690  2.6476
 2831TIP3   OH2 8498   6.139   2.800   3.174 -0.7864 -0.2821 -0.4236
 2831TIP3    H1 8499   6.090   2.744   3.235 -0.2946  1.1696  1.4147
 2831TIP3    H2 8500   6.082   2.875   3.158 -0.6297 -0.3272 -1.2173
 2832TIP3   OH2 8501   2.885   4.159   2.433 -0.1293  0.4358 -0.5602
 2832TIP3    H1 8502   2.830   4.237   2.431 -1.4566 -0.3935  0.8945
 2832TIP3    H2 8503   2.962   4.185   2.484  0.0022  1.1109 -1.0919
 2833TIP3   OH2 8504   3.369   0.077   0.897 -0.4261 -0.4004  0.2359
 2833TIP3    H1 8505   3.350   0.059   0.805 -1.6420  0.2115  0.3493
 2833TIP3    H2 8506   3.352  -0.005   0.942  0.8982 -0.9195 -0.1675
 2834TIP3   OH2 8507   1.001   1.073   4.675  0.3461 -0.4147  0.0470
 2834TIP3    H1 8508   1.005   1.146   4.736  0.4293 -0.1657 -0.2521
 2834TIP3    H2 8509   1.085   1.075   4.629  0.3036 -0.6300 -0.0439
 2835TIP3   OH2 8510   5.267   2.845   2.149 -0.0760 -0.2004  0.0780
 2835TIP3    H1 8511   5.289   2.764   2.104  1.2408 -0.4669  1.1286
 2835TIP3    H2 8512   5.335   2.907   2.121 -0.1867  0.0918  0.4509
 2836TIP3   OH2 8513   3.660   5.811   4.162 -0.3155  0.5486  0.3786
 2836TIP3    H1 8514   3.625   5.864   4.090  0.0103 -1.4690 -1.3891
 2836TIP3    H2 8515   3.634   5.858   4.241  0.4706  3.6265 -1.0182
 2837TIP3   OH2 8516   0.577   1.340   1.327  0.2368 -0.3330 -0.0155
 2837TIP3    H1 8517   0.604   1.422   1.369 -0.2361 -0.9597  1.5677
 2837TIP3    H2 8518   0.482   1.342   1.328  0.1074  0.5502 -2.9877
 2838TIP3   OH2 8519   5.428   4.705   1.299 -0.2993  0.7218  0.2779
 2838TIP3    H1 8520   5.500   4.686   1.360 -0.1968  0.3149  0.0408
 2838TIP3    H2 8521   5.350   4.670   1.342 -0.2425  0.5277  0.2267
 2839TIP3   OH2 8522   2.238   1.955   2.708 -0.3249 -0.0611 -0.3055
 2839TIP3    H1 8523   2.307   1.957   2.642 -0.0802 -0.9414 -0.0922
 2839TIP3    H2 8524   2.194   1.871   2.695 -1.5769  0.6156 -0.6446
 2840TIP3   OH2 8525   4.880   1.720   4.016  0.0666  0.0940 -0.0843
 2840TIP3    H1 8526   4.922   1.718   3.930  0.3163 -1.7667  0.0378
 2840TIP3    H2 8527   4.893   1.809   4.048 -0.6998  1.0494 -2.2800
 2841TIP3   OH2 8528   2.720   5.895   2.857 -0.1906  0.1177 -0.1440
 2841TIP3    H1 8529   2.789   5.843   2.817  1.0000  0.6742  1.1003
 2841TIP3    H2 8530   2.656   5.831   2.889  0.0793 -0.4373 -0.7216
 2842TIP3   OH2 8531   4.973   1.864   1.227 -0.4149  0.2884 -0.1997
 2842TIP3    H1 8532   4.997   1.772   1.232 -0.7365  0.2646  1.5674
 2842TIP3    H2 8533   4.913   1.877   1.300 -0.9856  1.7293 -0.8924
 2843TIP3   OH2 8534   1.927   5.339   4.026  0.5179  0.1509  0.2949
 2843TIP3    H1 8535   1.890   5.255   4.000 -0.4564  0.8073 -0.4955
 2843TIP3    H2 8536   1.919   5.340   4.121  1.8741 -1.2417  0.4721
 2844TIP3   OH2 8537   3.991   1.012   3.133  0.5785 -0.6777  0.3826
 2844TIP3    H1 8538   3.954   1.074   3.196  0.6648 -0.2769  0.0432
 2844TIP3    H2 8539   4.072   1.052   3.104 -0.0179 -0.3045 -0.8350
 2845TIP3   OH2 8540   4.425   4.664   2.299 -0.5372  0.6940 -0.1073
 2845TIP3    H1 8541   4.457   4.586   2.343  1.2356  1.9184  0.9236
 2845TIP3    H2 8542   4.331   4.651   2.292 -0.2313 -1.7970 -0.5816
 2846TIP3   OH2 8543   1.745   4.726   2.930 -0.7014 -0.8564  0.1925
 2846TIP3    H1 8544   1.707   4.731   2.842 -0.6344 -1.2828  0.1380
 2846TIP3    H2 8545   1.839   4.729   2.916 -0.6945 -0.1350  0.3080
 2847TIP3   OH2 8546   4.901   0.162   2.246  0.1692 -0.7769 -0.4257
 2847TIP3    H1 8547   4.851   0.081   2.252  1.1638 -1.3172  2.3721
 2847TIP3    H2 8548   4.949   0.166   2.329 -0.3557  3.0190 -0.1252
 2848TIP3   OH2 8549   3.958   5.236   5.128 -0.1297 -0.5234  0.2672
 2848TIP3    H1 8550   3.868   5.202   5.126 -0.5703  0.4487 -2.8643
 2848TIP3    H2 8551   4.003   5.188   5.058  0.7200  1.4639 -0.6324
 2849TIP3   OH2 8552   5.606   4.464   1.633  0.2088 -0.4328 -0.2956
 2849TIP3    H1 8553   5.619   4.521   1.557  0.4394  0.6529  0.5254
 2849TIP3    H2 8554   5.648   4.511   1.705 -3.1584  0.3909  1.3076
 2850TIP3   OH2 8555   2.551   2.342   0.851 -0.3094 -0.8099 -0.0402
 2850TIP3    H1 8556   2.621   2.316   0.911  0.1106  0.7281  0.1994
 2850TIP3    H2 8557   2.585   2.420   0.807 -1.0364 -1.2910 -1.5254
 2851TIP3   OH2 8558   1.572   3.478   1.949  1.2922 -0.1373 -0.2330
 2851TIP3    H1 8559   1.503   3.513   1.894 -0.1644 -1.4633  0.6772
 2851TIP3    H2 8560   1.528   3.418   2.009  3.0367 -0.0169  1.2816
 2852TIP3   OH2 8561   0.250   2.891   1.387  0.9418 -0.0045  0.1083
 2852TIP3    H1 8562   0.220   2.805   1.357 -1.3941  0.6968  0.2317
 2852TIP3    H2 8563   0.232   2.891   1.481 -1.9179  1.5891 -0.3240
 2853TIP3   OH2 8564   1.736   5.033   1.587 -0.0076  0.0200 -0.3256
 2853TIP3    H1 8565   1.790   5.057   1.662 -1.8230  2.9350  0.2284
 2853TIP3    H2 8566   1.798   5.017   1.516  1.6454  1.1741  0.7968
 2854TIP3   OH2 8567   5.443   1.474   2.738  0.3486  0.6086  0.0948
 2854TIP3    H1 8568   5.356   1.505   2.763  0.5687  0.7839  0.6555
 2854TIP3    H2 8569   5.471   1.533   2.668  0.1891  0.8179  0.2067
 2855TIP3   OH2 8570   5.692   2.617   4.975 -0.0784 -0.1718  0.9985
 2855TIP3    H1 8571   5.608   2.648   5.010 -0.3516  0.6573 -0.3468
 2855TIP3    H2 8572   5.669   2.551   4.910  0.2485  0.7888 -0.1130
 2856TIP3   OH2 8573   3.245   5.762   0.752  0.2281  0.0970 -0.3378
 2856TIP3    H1 8574   3.165   5.813   0.740 -1.4293 -2.5241 -1.2801
 2856TIP3    H2 8575   3.295   5.776   0.672 -0.1542  0.2988 -0.5444
 2857TIP3   OH2 8576   0.935   1.655   4.744  0.2137  0.2436 -0.3263
 2857TIP3    H1 8577   0.872   1.721   4.773 -1.6516 -0.6683 -2.0598
 2857TIP3    H2 8578   0.941   1.667   4.650  0.9601 -1.1000 -0.4807
 2858TIP3   OH2 8579   2.493   0.976   4.528  0.3031 -0.2927 -0.3443
 2858TIP3    H1 8580   2.433   0.925   4.583  0.0834  0.3953  0.0740
 2858TIP3    H2 8581   2.493   0.931   4.444 -2.7873  1.0324 -1.1946
 2859TIP3   OH2 8582   2.218   1.765   1.533  0.2225  0.2336  0.3422
 2859TIP3    H1 8583   2.184   1.677   1.553 -0.2759  0.7482  1.9749
 2859TIP3    H2 8584   2.244   1.760   1.442  2.3759 -2.3341  0.9598
 2860TIP3   OH2 8585   4.807   2.462   1.440 -0.2991  0.1667  0.3130
 2860TIP3    H1 8586   4.749   2.386   1.440 -0.4781  0.2648 -1.3346
 2860TIP3    H2 8587   4.895   2.425   1.431 -0.3592  0.1257 -0.1455
 2861TIP3   OH2 8588   2.457   1.772   3.140  0.5073  0.3541 -0.1099
 2861TIP3    H1 8589   2.376   1.803   3.100  0.1164 -0.6900 -0.1673
 2861TIP3    H2 8590   2.440   1.680   3.160  1.5662  0.2100  0.1901
 2862TIP3   OH2 8591   0.153   0.063   4.008  0.2854  0.1066  0.4585
 2862TIP3    H1 8592   0.160   0.131   3.942 -0.2942 -0.9341 -0.7171
 2862TIP3    H2 8593   0.210  -0.007   3.977  0.0196 -0.3957  1.0786
 2863TIP3   OH2 8594   3.075   4.911   4.361  0.8809  0.2841  0.0439
 2863TIP3    H1 8595   3.055   4.956   4.442 -2.4006 -3.7938  1.9005
 2863TIP3    H2 8596   3.010   4.942   4.299  0.5771  0.3076  0.3713
 2864TIP3   OH2 8597   3.280   1.968   3.446 -0.1137 -0.3154 -0.4196
 2864TIP3    H1 8598   3.201   2.017   3.469 -0.6985 -0.7845 -1.3492
 2864TIP3    H2 8599   3.260   1.878   3.473  0.7589 -0.1533  0.8399
 2865TIP3   OH2 8600   1.542   1.898   4.983 -0.3107 -0.1810 -0.1191
 2865TIP3    H1 8601   1.565   1.895   4.890 -0.9144 -0.4194 -0.2692
 2865TIP3    H2 8602   1.548   1.990   5.007  2.2384 -0.3780  0.2405
 2866TIP3   OH2 8603   0.841   3.510   2.437  0.3859  0.7425 -0.3321
 2866TIP3    H1 8604   0.902   3.437   2.452 -0.3617  0.0569 -0.6111
 2866TIP3    H2 8605   0.802   3.492   2.352 -2.4562 -0.4862  1.0927
 2867TIP3   OH2 8606   0.784   1.580   2.594  0.4945 -0.6733  0.4752
 2867TIP3    H1 8607   0.858   1.577   2.534 -1.7048  2.7406 -2.8163
 2867TIP3    H2 8608   0.790   1.666   2.636 -1.0036 -0.7852  0.9876
 2868TIP3   OH2 8609   5.564   0.050   3.095  0.3571  0.5496  0.8413
 2868TIP3    H1 8610   5.639   0.100   3.063 -0.9934  0.6586 -2.5205
 2868TIP3    H2 8611   5.489   0.108   3.080 -1.1565 -1.9067 -2.2627
 2869TIP3   OH2 8612   4.468   4.535   3.723 -0.3040 -0.3276  0.3063
 2869TIP3    H1 8613   4.529   4.587   3.775  1.4415 -2.1317  0.1373
 2869TIP3    H2 8614   4.491   4.556   3.632 -0.2351 -0.6990  0.2398
 2870TIP3   OH2 8615   3.730   1.425   4.297  0.0394 -0.6297  0.4601
 2870TIP3    H1 8616   3.797   1.357   4.294 -0.8804 -1.5651 -2.2685
 2870TIP3    H2 8617   3.683   1.416   4.214 -0.0107  3.5190 -0.2017
 2871TIP3   OH2 8618   4.261   2.106   1.283 -0.1538  0.3375 -0.2329
 2871TIP3    H1 8619   4.284   2.065   1.366  3.6082  2.1470 -0.1921
 2871TIP3    H2 8620   4.231   2.033   1.228 -2.3824 -0.9521  2.4837
 2872TIP3   OH2 8621   1.064   0.107   3.410  0.2388 -0.0742  0.1239
 2872TIP3    H1 8622   1.044   0.091   3.317  2.3178  0.7510 -0.5378
 2872TIP3    H2 8623   1.112   0.029   3.437 -0.1415 -0.2014  0.4319
 2873TIP3   OH2 8624   3.761   3.606   3.768 -0.6367 -0.6596 -0.2554
 2873TIP3    H1 8625   3.741   3.612   3.862 -0.4371  1.9849 -0.2965
 2873TIP3    H2 8626   3.676   3.610   3.725 -0.6342  0.1683 -0.2027
 2874TIP3   OH2 8627   1.004   0.612   4.837  0.5033  0.8016 -0.0653
 2874TIP3    H1 8628   1.050   0.530   4.821 -0.9720  0.1901 -1.4154
 2874TIP3    H2 8629   0.940   0.591   4.905 -1.2751  0.2275 -1.8374
 2875TIP3   OH2 8630   2.355   0.092   4.651  0.2693  0.3414 -0.4490
 2875TIP3    H1 8631   2.366   0.003   4.618 -1.4200 -0.0549 -0.0497
 2875TIP3    H2 8632   2.338   0.145   4.573 -1.7970 -0.2625 -0.4706
 2876TIP3   OH2 8633   6.193   2.001   0.157 -0.2907 -0.8252 -0.1929
 2876TIP3    H1 8634   6.147   2.080   0.186  0.4213 -0.7045  0.6574
 2876TIP3    H2 8635   6.165   1.933   0.219 -1.0536 -1.2916 -1.0415
 2877TIP3   OH2 8636   0.209   4.314   0.377 -0.5607  0.1698 -0.5053
 2877TIP3    H1 8637   0.186   4.381   0.312 -1.7348 -0.2324 -0.5165
 2877TIP3    H2 8638   0.155   4.239   0.354  0.3019 -0.5906 -0.1133
 2878TIP3   OH2 8639   4.146   1.745   1.930  0.2123  0.4973 -0.1038
 2878TIP3    H1 8640   4.239   1.763   1.941 -0.2216  1.4941  2.5929
 2878TIP3    H2 8641   4.112   1.823   1.884 -0.1404  2.9790  3.9007
 2879TIP3   OH2 8642   3.230   4.494   0.345 -0.0637  0.5423 -0.1307
 2879TIP3    H1 8643   3.142   4.512   0.378 -0.4096  1.8857 -1.6963
 2879TIP3    H2 8644   3.256   4.574   0.299  2.2617  0.4326  0.8465
 2880TIP3   OH2 8645   3.052   3.913   3.251 -0.2787 -0.2259  0.0317
 2880TIP3    H1 8646   3.071   3.864   3.331 -2.3879 -0.7381  0.2946
 2880TIP3    H2 8647   3.117   3.883   3.188  0.7798 -0.5792  1.2623
 2881TIP3   OH2 8648   2.253   0.685   4.111 -0.4451  0.1980  0.1859
 2881TIP3    H1 8649   2.161   0.663   4.125 -0.4625 -0.2445 -0.5612
 2881TIP3    H2 8650   2.265   0.768   4.156 -1.4554  0.7365 -0.4972
 2882TIP3   OH2 8651   6.151   4.610   0.518 -0.3146  0.1775 -0.1734
 2882TIP3    H1 8652   6.157   4.574   0.430  0.9197  0.9342 -0.4228
 2882TIP3    H2 8653   6.241   4.637   0.539 -0.4699 -0.4807  1.5275
 2883TIP3   OH2 8654   5.317   4.145   5.000  0.2724  0.0663  0.1383
 2883TIP3    H1 8655   5.390   4.135   5.061  0.5795  1.6131  0.0642
 2883TIP3    H2 8656   5.353   4.122   4.914  1.0497  2.0033 -0.0907
 2884TIP3   OH2 8657   0.964   1.703   2.232  0.0443 -0.4542  0.4120
 2884TIP3    H1 8658   1.007   1.772   2.283  3.5779  0.3660 -3.2373
 2884TIP3    H2 8659   0.903   1.749   2.175  1.4410 -0.4046 -1.0999
 2885TIP3   OH2 8660   6.108   0.472   2.054  0.1744  0.0743 -0.4048
 2885TIP3    H1 8661   6.197   0.498   2.080  0.5480 -0.2204 -1.3675
 2885TIP3    H2 8662   6.072   0.550   2.011 -0.4787  0.5920  0.9952
 2886TIP3   OH2 8663   1.659   5.440   2.590 -0.1677  0.3985 -0.0957
 2886TIP3    H1 8664   1.708   5.419   2.669 -0.4795 -1.6953 -0.3949
 2886TIP3    H2 8665   1.710   5.402   2.519 -1.4357 -0.5348 -0.5536
 2887TIP3   OH2 8666   5.243   0.507   1.997 -0.1959  0.4706 -0.2339
 2887TIP3    H1 8667   5.201   0.422   2.011 -0.2749  0.7357  1.4248
 2887TIP3    H2 8668   5.257   0.541   2.086  0.6230  1.8052 -0.8430
 2888TIP3   OH2 8669   5.102   0.248   0.593 -0.1762 -0.4204 -0.1618
 2888TIP3    H1 8670   5.023   0.203   0.561 -0.1609 -0.8350  0.3836
 2888TIP3    H2 8671   5.167   0.179   0.604 -0.6499 -0.5620  2.2634
 2889TIP3   OH2 8672   1.031   5.085   0.839  0.3965 -0.2442 -0.2065
 2889TIP3    H1 8673   0.967   5.024   0.801  0.6967  0.0324 -1.1716
 2889TIP3    H2 8674   1.068   5.037   0.913  0.1201 -0.9616 -0.5191
 2890TIP3   OH2 8675   2.214   2.892   0.216 -0.6919  0.3008  0.3898
 2890TIP3    H1 8676   2.210   2.824   0.149 -3.6692 -0.3631  1.0811
 2890TIP3    H2 8677   2.167   2.966   0.178 -1.8380  0.1466  1.4480
 2891TIP3   OH2 8678   1.353   1.579   3.878  0.2878 -0.0264  0.0876
 2891TIP3    H1 8679   1.418   1.612   3.817 -0.3908 -0.8628 -1.1210
 2891TIP3    H2 8680   1.339   1.651   3.939  2.5933  0.0700  0.6219
 2892TIP3   OH2 8681   4.345   5.370   4.095  0.3124  0.5648 -0.6152
 2892TIP3    H1 8682   4.409   5.424   4.048  0.3415  1.2863  0.2284
 2892TIP3    H2 8683   4.392   5.289   4.114  0.0897 -0.0135 -2.3792
 2893TIP3   OH2 8684   4.676   1.559   4.924 -0.5777 -0.1198  0.0509
 2893TIP3    H1 8685   4.666   1.654   4.930  0.3939  0.1087 -1.4592
 2893TIP3    H2 8686   4.746   1.538   4.985 -0.5011  0.1971  0.0737
 2894TIP3   OH2 8687   4.510   0.440   4.028  0.3855 -0.3365 -0.2443
 2894TIP3    H1 8688   4.420   0.471   4.016  0.5572  1.3281  2.0943
 2894TIP3    H2 8689   4.505   0.346   4.011 -2.2169 -0.6540  1.6337
 2895TIP3   OH2 8690   1.347   3.123   1.764  0.1602  0.1099  0.5043
 2895TIP3    H1 8691   1.279   3.077   1.715  1.6759  0.4713 -2.1068
 2895TIP3    H2 8692   1.359   3.206   1.717  2.2852  0.1124  0.9466
 2896TIP3   OH2 8693   5.121   1.758   1.875 -0.4900  0.7674  0.0279
 2896TIP3    H1 8694   5.190   1.797   1.928 -0.8720 -1.4966  2.3570
 2896TIP3    H2 8695   5.163   1.682   1.834 -1.0969  0.4920 -0.0867
 2897TIP3   OH2 8696   4.510   1.115   1.750  0.3423  0.0881  0.2163
 2897TIP3    H1 8697   4.590   1.138   1.798  2.1151  0.4606 -2.6952
 2897TIP3    H2 8698   4.489   1.026   1.781  3.5281 -1.1618 -0.8281
 2898TIP3   OH2 8699   3.279   1.448   3.941  0.0838 -0.5416  0.2212
 2898TIP3    H1 8700   3.224   1.476   4.015 -0.2024  1.0815 -0.5574
 2898TIP3    H2 8701   3.324   1.528   3.914  1.5622 -1.4993 -0.2287
 2899TIP3   OH2 8702   0.014   0.494   4.392 -0.2528  0.2361  0.0868
 2899TIP3    H1 8703   0.085   0.496   4.456 -0.2266  1.7672  0.0455
 2899TIP3    H2 8704   0.056   0.473   4.309  0.0438  0.4534  0.1834
 2900TIP3   OH2 8705   5.625   1.907   5.003  0.1936  0.2917  0.7169
 2900TIP3    H1 8706   5.718   1.883   5.002 -0.0353 -0.6089  0.5202
 2900TIP3    H2 8707   5.581   1.831   5.041 -0.3745  1.0723  1.6602
 2901TIP3   OH2 8708   0.957   3.983   3.679  0.3816  0.0425 -0.1727
 2901TIP3    H1 8709   0.903   4.062   3.667 -0.3830 -0.7196 -2.0819
 2901TIP3    H2 8710   0.951   3.965   3.773 -0.7183  1.3571  0.0488
 2902TIP3   OH2 8711   2.537   2.078   5.003 -0.0268 -0.2241  0.1903
 2902TIP3    H1 8712   2.456   2.124   5.022  0.8947  1.0430  1.2292
 2902TIP3    H2 8713   2.600   2.147   4.981  0.7070 -1.1955 -0.8761
 2903TIP3   OH2 8714   1.498   4.874   3.723  0.2494  0.5547 -0.2200
 2903TIP3    H1 8715   1.507   4.804   3.658 -1.4837 -0.2933  0.3734
 2903TIP3    H2 8716   1.588   4.894   3.749  0.9191  0.1520 -2.0533
 2904TIP3   OH2 8717   1.784   1.794   0.491 -0.3775 -0.2599 -0.5393
 2904TIP3    H1 8718   1.763   1.776   0.582 -2.0294  1.0723 -0.5977
 2904TIP3    H2 8719   1.877   1.772   0.482 -0.4235 -1.3128  1.1906
 2905TIP3   OH2 8720   1.819   3.970   0.541  0.0219 -0.8197 -0.7413
 2905TIP3    H1 8721   1.894   4.028   0.550  0.4541 -1.5997  1.3027
 2905TIP3    H2 8722   1.826   3.935   0.452  2.1923 -1.0145 -0.5523
 2906TIP3   OH2 8723   3.293   0.383   2.733  0.3629  0.0526 -0.1358
 2906TIP3    H1 8724   3.269   0.423   2.650 -0.1924  0.2982  0.1341
 2906TIP3    H2 8725   3.311   0.458   2.791 -2.7472  0.0686  0.9953
 2907TIP3   OH2 8726   0.458   0.072   0.862  0.2025  0.5992 -0.0266
 2907TIP3    H1 8727   0.466   0.082   0.957 -0.0069 -1.7538  0.2879
 2907TIP3    H2 8728   0.463  -0.022   0.847 -1.3157  0.7870 -2.1970
 2908TIP3   OH2 8729   1.358   5.608   0.687  0.2434 -0.1705  1.1302
 2908TIP3    H1 8730   1.272   5.568   0.700  0.8286 -1.0641  2.5361
 2908TIP3    H2 8731   1.386   5.577   0.600 -0.1852 -1.1834  1.3354
 2909TIP3   OH2 8732   1.516   4.420   3.573 -0.1880 -0.2561 -0.7167
 2909TIP3    H1 8733   1.561   4.343   3.607  0.8850  0.6650  0.0356
 2909TIP3    H2 8734   1.554   4.493   3.622 -1.8521  0.6563 -0.7372
 2910TIP3   OH2 8735   3.964   2.470   2.148  0.0709  0.5567 -0.4148
 2910TIP3    H1 8736   3.925   2.498   2.231 -1.2940 -0.4220 -0.7016
 2910TIP3    H2 8737   3.899   2.493   2.082 -0.0667 -1.0945 -0.8993
 2911TIP3   OH2 8738   5.461   4.029   1.123  0.4089  0.3556  0.6730
 2911TIP3    H1 8739   5.515   3.955   1.095  0.7489  1.2556 -1.2400
 2911TIP3    H2 8740   5.522   4.103   1.126 -0.2900  0.9432  0.6356
 2912TIP3   OH2 8741   5.549   1.881   3.080 -0.4783 -0.0947 -0.0014
 2912TIP3    H1 8742   5.537   1.859   2.988  0.8327 -1.0981  0.0376
 2912TIP3    H2 8743   5.507   1.966   3.090 -0.6009  0.0556 -1.5305
 2913TIP3   OH2 8744   5.896   5.857   4.559  0.1464 -0.0114 -0.1063
 2913TIP3    H1 8745   5.937   5.861   4.473 -0.9881 -1.3928 -0.7494
 2913TIP3    H2 8746   5.968   5.867   4.621  0.8087  2.6011 -1.1715
 2914TIP3   OH2 8747   1.178   1.497   5.193  0.1619  0.3627 -0.5716
 2914TIP3    H1 8748   1.129   1.567   5.150  0.0296  0.3985 -0.3656
 2914TIP3    H2 8749   1.230   1.457   5.123  0.1010  0.5488 -0.7244
 2915TIP3   OH2 8750   4.370   5.620   0.960 -0.0691  0.1750  0.2561
 2915TIP3    H1 8751   4.394   5.619   0.868 -0.7037 -1.2047  0.0872
 2915TIP3    H2 8752   4.290   5.568   0.965  0.0357  0.0994  1.6107
 2916TIP3   OH2 8753   2.639   2.942   3.252 -0.0014 -0.3238 -0.2823
 2916TIP3    H1 8754   2.726   2.905   3.267 -0.0764 -0.6343 -0.6138
 2916TIP3    H2 8755   2.622   2.929   3.159  1.1250  3.0109 -1.0793
 2917TIP3   OH2 8756   5.970   4.926   2.521 -0.7192 -0.1615  0.3771
 2917TIP3    H1 8757   6.011   4.841   2.535  0.6269  0.6783  1.8886
 2917TIP3    H2 8758   5.990   4.948   2.430 -2.0136 -1.8804 -0.3840
 2918TIP3   OH2 8759   5.003   2.972   0.577  0.3298 -0.1275  0.2353
 2918TIP3    H1 8760   5.027   3.045   0.520 -1.6052  0.6040  0.2966
 2918TIP3    H2 8761   5.009   2.895   0.521  2.0365  0.0771  0.0727
 2919TIP3   OH2 8762   5.908   2.713   0.613  0.1874  0.2884 -0.1171
 2919TIP3    H1 8763   5.897   2.778   0.544 -2.5156  0.8054  0.6914
 2919TIP3    H2 8764   5.915   2.630   0.566  0.0097  0.7863 -1.0474
 2920TIP3   OH2 8765   4.887   4.367   0.714 -0.4110 -0.0747  0.6396
 2920TIP3    H1 8766   4.864   4.281   0.748  0.8545 -0.0433  1.6505
 2920TIP3    H2 8767   4.974   4.384   0.750  0.0254  0.9422 -0.8361
 2921TIP3   OH2 8768   5.703   4.161   1.138 -0.5779  0.5044  0.1545
 2921TIP3    H1 8769   5.713   4.239   1.193  1.0817  0.8626 -0.6020
 2921TIP3    H2 8770   5.756   4.094   1.181  0.1534  0.5832 -0.5905
 2922TIP3   OH2 8771   5.688   1.187   0.053 -0.0564  0.1740  0.2733
 2922TIP3    H1 8772   5.638   1.114   0.017  0.6850 -0.1994 -0.0326
 2922TIP3    H2 8773   5.673   1.184   0.147 -0.7991  0.2240  0.1604
 2923TIP3   OH2 8774   0.386   0.530   0.632  0.1533 -0.0985  0.4310
 2923TIP3    H1 8775   0.364   0.459   0.571  0.3867 -0.1178  0.3702
 2923TIP3    H2 8776   0.419   0.485   0.710  4.2236 -0.0386 -1.0381
 2924TIP3   OH2 8777   4.968   3.424   5.037 -0.4336 -0.0311 -0.4427
 2924TIP3    H1 8778   5.032   3.493   5.017  1.7680 -1.4344  1.3752
 2924TIP3    H2 8779   4.915   3.461   5.107  0.2980  0.0715  0.0651
 2925TIP3   OH2 8780   6.164   4.061   0.011  0.6024  0.3300  0.2190
 2925TIP3    H1 8781   6.120   4.033  -0.070  0.9084 -1.6602  0.6918
 2925TIP3    H2 8782   6.109   4.028   0.081  1.5721 -0.0610  0.8160
 2926TIP3   OH2 8783   0.788   1.103   2.212 -0.4359 -0.1795 -0.3332
 2926TIP3    H1 8784   0.875   1.143   2.214 -1.1418  1.4104  0.0844
 2926TIP3    H2 8785   0.738   1.151   2.278 -1.8327 -0.6040 -1.0447
 2927TIP3   OH2 8786   4.680   5.250   1.960 -0.3624  0.1446  0.0455
 2927TIP3    H1 8787   4.765   5.280   1.928  0.4972 -1.7813  0.3458
 2927TIP3    H2 8788   4.688   5.154   1.963 -1.7408  0.0242  2.2650
 2928TIP3   OH2 8789   2.295   5.736   0.337 -0.4110  0.2372  0.4008
 2928TIP3    H1 8790   2.293   5.797   0.264  0.0232 -0.3229 -0.0883
 2928TIP3    H2 8791   2.329   5.787   0.410 -1.4849  0.9851  0.3954
 2929TIP3   OH2 8792   2.029   4.580   0.709 -0.3384 -0.3249 -0.2647
 2929TIP3    H1 8793   1.993   4.499   0.672  1.0496 -0.7500 -0.7595
 2929TIP3    H2 8794   2.070   4.552   0.791  1.6119 -0.4929 -1.2314
 2930TIP3   OH2 8795   1.079   0.517   3.845  0.1967 -0.0184 -0.1199
 2930TIP3    H1 8796   1.134   0.528   3.922  0.6710 -0.4800 -0.3925
 2930TIP3    H2 8797   0.991   0.539   3.875  0.8174  3.1720 -0.2346
 2931TIP3   OH2 8798   1.647   5.000   0.270  0.0036 -0.1291 -0.1692
 2931TIP3    H1 8799   1.724   4.943   0.277  0.6704  0.8272  0.4553
 2931TIP3    H2 8800   1.654   5.059   0.345 -1.2563  0.0803 -0.2044
 2932TIP3   OH2 8801   2.295   3.874   3.449  0.2580  0.2099  0.3931
 2932TIP3    H1 8802   2.279   3.780   3.448 -0.0748  0.2695 -0.3567
 2932TIP3    H2 8803   2.386   3.883   3.422 -0.3189  0.1974 -1.7408
 2933TIP3   OH2 8804   2.816   2.045   0.402 -0.5122 -0.5293  0.1241
 2933TIP3    H1 8805   2.752   1.998   0.456  0.2039 -0.6638  0.8629
 2933TIP3    H2 8806   2.812   2.001   0.317 -1.4573 -0.4818  0.1307
 2934TIP3   OH2 8807   1.804   5.266   0.874  0.2892  0.0856  0.3146
 2934TIP3    H1 8808   1.718   5.301   0.852 -0.2283 -0.2262  1.7046
 2934TIP3    H2 8809   1.865   5.320   0.824 -0.6370  1.2849  0.4247
 2935TIP3   OH2 8810   1.615   0.677   3.526  0.1841  0.2778  0.5350
 2935TIP3    H1 8811   1.606   0.769   3.504  0.4273  0.1247 -0.2283
 2935TIP3    H2 8812   1.680   0.643   3.464 -0.5080 -0.5867  0.2532
 2936TIP3   OH2 8813   5.087   0.083   4.517  0.1839 -0.1723  0.0794
 2936TIP3    H1 8814   5.137   0.121   4.445  1.2850 -2.0673 -0.2272
 2936TIP3    H2 8815   5.141   0.100   4.594 -0.4262  0.8194  0.3083
 2937TIP3   OH2 8816   5.686   4.696   4.997  0.0678  0.0409  0.4401
 2937TIP3    H1 8817   5.761   4.756   5.000  1.1405 -1.2797  1.2886
 2937TIP3    H2 8818   5.653   4.703   4.907 -1.1118  3.3282  1.0030
 2938TIP3   OH2 8819   5.597   4.365   4.517 -0.6101  0.2348 -0.3192
 2938TIP3    H1 8820   5.534   4.433   4.542 -0.0785  0.8892 -0.7181
 2938TIP3    H2 8821   5.599   4.306   4.592 -1.3311  0.4710 -0.1002
 2939TIP3   OH2 8822   3.594   0.679   1.291  0.0630 -0.0226  0.2810
 2939TIP3    H1 8823   3.535   0.680   1.367 -0.3840 -2.6299  0.0664
 2939TIP3    H2 8824   3.535   0.668   1.216  0.6294  0.4706 -0.2376
 2940TIP3   OH2 8825   2.018   0.350   4.835  0.3478  0.4272  0.3989
 2940TIP3    H1 8826   1.930   0.359   4.873  0.0945 -0.0248 -0.0683
 2940TIP3    H2 8827   2.009   0.281   4.769  1.1361  0.1471  0.5758
 2941TIP3   OH2 8828   3.064   0.878   1.901 -0.3229  0.9362  0.3291
 2941TIP3    H1 8829   3.094   0.962   1.864 -0.6707  1.9772  2.2899
 2941TIP3    H2 8830   2.973   0.871   1.875  0.2497  0.0719 -1.6405
 2942TIP3   OH2 8831   3.902   2.005   4.227 -0.1125  0.3029 -0.4527
 2942TIP3    H1 8832   3.900   2.068   4.155 -1.3286 -0.0771 -0.7666
 2942TIP3    H2 8833   3.823   1.953   4.217  0.8839 -1.3349 -0.2361
 2943TIP3   OH2 8834   1.974   2.283   0.482  0.1860  0.3636  0.6256
 2943TIP3    H1 8835   2.009   2.373   0.484 -0.5122  0.6773 -0.3521
 2943TIP3    H2 8836   1.973   2.260   0.389 -1.1940 -0.0318  0.7229
 2944TIP3   OH2 8837   1.676   4.744   3.377  0.0931 -0.1934 -0.2488
 2944TIP3    H1 8838   1.608   4.781   3.321  1.2207 -0.0346 -1.5586
 2944TIP3    H2 8839   1.750   4.727   3.319  1.5135  0.4430  1.2637
 2945TIP3   OH2 8840   3.430   5.526   3.708  0.1624  0.2045  0.2858
 2945TIP3    H1 8841   3.494   5.471   3.752 -0.4490 -0.6518  0.1162
 2945TIP3    H2 8842   3.446   5.511   3.614 -2.7219 -3.0455  0.1332
 2946TIP3   OH2 8843   5.897   0.189   4.359  0.1635  0.2043 -0.3216
 2946TIP3    H1 8844   5.934   0.255   4.300 -0.2179 -1.1459 -2.1748
 2946TIP3    H2 8845   5.812   0.167   4.320  0.6076 -1.8999 -0.2127
 2947TIP3   OH2 8846   1.768   2.665   3.088 -0.0755 -0.1344  0.0275
 2947TIP3    H1 8847   1.740   2.714   3.011 -1.9588  0.0086  0.7211
 2947TIP3    H2 8848   1.828   2.724   3.134  1.0899 -0.2410 -1.3115
 2948TIP3   OH2 8849   4.152   0.839   2.340 -0.1892  0.1095 -0.0189
 2948TIP3    H1 8850   4.082   0.895   2.307 -0.1771 -1.1581 -2.4314
 2948TIP3    H2 8851   4.121   0.750   2.323  2.0665 -0.4908 -1.4570
 2949TIP3   OH2 8852   1.535   3.906   1.143  0.0347  0.2932 -0.0849
 2949TIP3    H1 8853   1.586   3.895   1.063  0.8027 -0.9385  0.5485
 2949TIP3    H2 8854   1.446   3.880   1.119  0.1159  0.5637 -0.6930
 2950TIP3   OH2 8855   5.170   3.036   3.515 -0.0722 -0.7876 -0.1972
 2950TIP3    H1 8856   5.120   3.089   3.452  1.5513  1.2814  0.1163
 2950TIP3    H2 8857   5.191   2.955   3.468  0.7224  0.5048 -2.2243
 2951TIP3   OH2 8858   5.685   4.112   4.085 -0.5772  0.0904 -0.6842
 2951TIP3    H1 8859   5.758   4.160   4.046  0.3565  1.0184  1.9425
 2951TIP3    H2 8860   5.727   4.043   4.137 -1.5145  0.5524  0.7586
 2952TIP3   OH2 8861   4.501   5.016   4.500 -0.1515  0.3454 -0.1906
 2952TIP3    H1 8862   4.558   5.067   4.559  0.6812  0.2831 -0.9312
 2952TIP3    H2 8863   4.423   4.997   4.553  1.0833 -0.7659  1.3197
 2953TIP3   OH2 8864   5.867   0.679   2.078  0.1743  0.1403  0.3715
 2953TIP3    H1 8865   5.808   0.716   2.012  0.5253  0.0199 -0.0100
 2953TIP3    H2 8866   5.947   0.731   2.071  1.0369 -1.2731 -0.8331
 2954TIP3   OH2 8867   2.101   4.395   4.494 -0.8114  0.8324 -0.1905
 2954TIP3    H1 8868   2.121   4.313   4.540  0.8164  1.1088 -0.3454
 2954TIP3    H2 8869   2.089   4.459   4.565  2.7862  1.5087 -0.0025
 2955TIP3   OH2 8870   4.271   1.047   0.509 -0.1784  0.1300 -0.2491
 2955TIP3    H1 8871   4.260   0.980   0.442 -2.3396 -0.7114  0.8549
 2955TIP3    H2 8872   4.366   1.055   0.520  0.1580 -2.3664 -0.8154
 2956TIP3   OH2 8873   0.404   3.305   2.958 -0.1902  0.4505  0.9361
 2956TIP3    H1 8874   0.418   3.267   2.871 -0.6641  0.2855  0.9266
 2956TIP3    H2 8875   0.341   3.376   2.942 -0.8635 -0.0629  1.2523
 2957TIP3   OH2 8876   0.404   0.071   5.137 -0.0468  0.0823 -0.2629
 2957TIP3    H1 8877   0.368   0.079   5.226 -0.2613 -0.9823 -0.2450
 2957TIP3    H2 8878   0.494   0.103   5.145 -0.4186  1.1029  0.0748
 2958TIP3   OH2 8879   4.606   0.451   0.153  0.5112  0.0693  0.4656
 2958TIP3    H1 8880   4.527   0.434   0.102 -1.5494 -0.1482  3.4117
 2958TIP3    H2 8881   4.657   0.370   0.146  1.1286  0.6119 -2.3855
 2959TIP3   OH2 8882   2.605   5.656   3.747 -0.3164 -0.2026  0.0932
 2959TIP3    H1 8883   2.608   5.630   3.839 -2.0263  0.9289  0.5098
 2959TIP3    H2 8884   2.551   5.735   3.746 -1.0882 -0.6871 -1.9941
 2960TIP3   OH2 8885   4.029   3.531   4.275  0.1960 -0.5929 -0.6792
 2960TIP3    H1 8886   4.118   3.498   4.288  0.2634 -0.4594 -0.7892
 2960TIP3    H2 8887   4.040   3.602   4.211  0.2025  0.3482  0.3439
 2961TIP3   OH2 8888   6.278   1.979   4.777 -0.3137 -0.4235 -0.0022
 2961TIP3    H1 8889   6.354   1.985   4.836 -1.4158  0.6366  1.3662
 2961TIP3    H2 8890   6.239   2.066   4.779 -0.3059 -0.2915 -2.4963
 2962TIP3   OH2 8891   2.033   4.705   1.853 -0.2570 -0.0551 -0.0356
 2962TIP3    H1 8892   1.977   4.737   1.923  1.1455  0.7136  0.7745
 2962TIP3    H2 8893   2.067   4.621   1.884  0.1090  0.1288  0.0615
 2963TIP3   OH2 8894   0.120   1.651   0.140 -0.0517 -0.5914 -0.2948
 2963TIP3    H1 8895   0.084   1.564   0.127 -0.9989 -0.2162 -0.2624
 2963TIP3    H2 8896   0.090   1.701   0.064 -1.6367  0.3536  0.8649
 2964TIP3   OH2 8897   6.115   5.901   4.292 -0.1955 -0.1532 -0.7269
 2964TIP3    H1 8898   6.207   5.919   4.312 -0.7812  0.9952  1.2325
 2964TIP3    H2 8899   6.083   5.980   4.250 -0.4533 -0.3007 -0.8118
 2965TIP3   OH2 8900   6.166   0.487   0.453 -0.4226 -0.3087  0.0793
 2965TIP3    H1 8901   6.097   0.491   0.386 -0.1649 -1.4549 -0.2805
 2965TIP3    H2 8902   6.227   0.557   0.428  0.4469 -1.6383 -1.8112
 2966TIP3   OH2 8903   0.180   3.448   2.862  0.3115  0.3438  0.2440
 2966TIP3    H1 8904   0.090   3.424   2.882  0.3122  1.5558  1.8877
 2966TIP3    H2 8905   0.189   3.432   2.768 -2.1862  1.9991 -0.3615
 2967TIP3   OH2 8906   5.013   0.423   1.059 -0.4015  0.0291  0.3812
 2967TIP3    H1 8907   4.968   0.340   1.077 -1.2860  0.0284 -1.6485
 2967TIP3    H2 8908   4.976   0.484   1.123 -0.1323 -0.9893  1.5517
 2968TIP3   OH2 8909   1.962   4.348   3.980 -0.0736 -0.2972 -0.2237
 2968TIP3    H1 8910   1.988   4.315   4.066  0.6195  2.1703  0.6121
 2968TIP3    H2 8911   1.933   4.438   3.997  0.6743  0.4793 -2.6317
 2969TIP3   OH2 8912   2.945   4.749   3.627 -0.4923  0.2216  0.0868
 2969TIP3    H1 8913   3.025   4.767   3.577 -1.8463 -0.4443 -2.4983
 2969TIP3    H2 8914   2.930   4.655   3.615 -3.0040  0.7631 -1.7579
 2970TIP3   OH2 8915   1.326   4.597   1.918 -0.9869 -0.0453 -0.1267
 2970TIP3    H1 8916   1.372   4.556   1.991  0.1767 -2.5101 -2.1279
 2970TIP3    H2 8917   1.249   4.636   1.959  0.6977  0.5992  2.7130
 2971TIP3   OH2 8918   2.103   3.530   2.507 -0.1610  0.6686 -0.4729
 2971TIP3    H1 8919   2.104   3.478   2.427 -1.6156  0.2013 -0.2111
 2971TIP3    H2 8920   2.162   3.484   2.566 -1.7811 -1.0410 -0.0699
 2972TIP3   OH2 8921   4.767   3.884   3.625 -0.3323  0.1835  0.5803
 2972TIP3    H1 8922   4.775   3.796   3.662 -0.0455  0.2642  0.7110
 2972TIP3    H2 8923   4.756   3.869   3.531  0.7826  0.0363  0.4594
 2973TIP3   OH2 8924   1.433   1.815   3.201 -0.2670  0.1382 -0.5520
 2973TIP3    H1 8925   1.517   1.786   3.164  0.0510  0.5201 -0.1441
 2973TIP3    H2 8926   1.403   1.884   3.141 -0.4268 -0.1807 -0.8462
 2974TIP3   OH2 8927   1.491   1.295   1.148 -0.3088 -0.2357  0.2835
 2974TIP3    H1 8928   1.398   1.277   1.134 -0.4294  0.5059  0.0967
 2974TIP3    H2 8929   1.497   1.314   1.242 -0.3960  0.0158  0.2378
 2975TIP3   OH2 8930   0.893   0.803   2.855 -0.2266  0.0253  0.3750
 2975TIP3    H1 8931   0.917   0.753   2.777 -1.0290 -1.0095  0.7613
 2975TIP3    H2 8932   0.949   0.880   2.853 -1.1976  0.7456 -1.9670
 2976TIP3   OH2 8933   2.427   2.697   3.974 -0.1657 -0.0279  0.0103
 2976TIP3    H1 8934   2.346   2.717   3.927 -0.7444  2.9720  1.9953
 2976TIP3    H2 8935   2.398   2.678   4.064  1.2053 -1.0506  0.2589
 2977TIP3   OH2 8936   2.540   2.186   0.604 -0.1288  0.1734  0.2382
 2977TIP3    H1 8937   2.455   2.165   0.566 -0.2661 -1.1354  1.1877
 2977TIP3    H2 8938   2.519   2.233   0.685  0.0980  0.7889 -0.0506
 2978TIP3   OH2 8939   0.350   0.336   1.641 -0.0363  0.2951  0.1085
 2978TIP3    H1 8940   0.446   0.343   1.637 -0.0938  0.4627 -1.7584
 2978TIP3    H2 8941   0.333   0.242   1.638  0.0511  0.3005 -1.6760
 2979TIP3   OH2 8942   1.961   0.865   0.825  0.5251 -0.3124  0.2274
 2979TIP3    H1 8943   1.995   0.908   0.747  0.3028 -0.8175 -0.1482
 2979TIP3    H2 8944   1.909   0.933   0.870  1.8514  0.4282  0.7184
 2980TIP3   OH2 8945   1.345   1.126   4.028  0.6753  0.0328 -0.7996
 2980TIP3    H1 8946   1.385   1.086   4.106  0.7686 -0.4094 -1.0741
 2980TIP3    H2 8947   1.325   1.215   4.055 -0.2695 -0.4185  0.0827
 2981TIP3   OH2 8948   3.594   3.345   2.086  0.2577 -0.0885 -0.0023
 2981TIP3    H1 8949   3.636   3.430   2.104 -0.2234  0.5390 -1.6304
 2981TIP3    H2 8950   3.526   3.337   2.153 -2.2615  2.6792 -1.9470
 2982TIP3   OH2 8951   5.316   4.427   0.407  0.2917  0.0616  0.0679
 2982TIP3    H1 8952   5.394   4.390   0.366 -0.3134 -1.1472 -0.0249
 2982TIP3    H2 8953   5.344   4.514   0.436  1.3623  0.0734 -0.9147
 2983TIP3   OH2 8954   1.464   5.073   2.857 -0.0764 -0.8029 -0.0706
 2983TIP3    H1 8955   1.381   5.033   2.880 -0.7407 -0.5013 -1.7509
 2983TIP3    H2 8956   1.514   5.004   2.814 -0.2969 -0.4721 -0.8882
 2984TIP3   OH2 8957   0.847   2.560   3.488 -0.5015  0.0941  0.5310
 2984TIP3    H1 8958   0.840   2.582   3.395  3.9582  0.0581  0.0098
 2984TIP3    H2 8959   0.915   2.617   3.522 -1.5809 -0.3196  3.7109
 2985TIP3   OH2 8960   1.309   4.152   0.869 -0.1402 -0.2305 -0.0500
 2985TIP3    H1 8961   1.322   4.071   0.918 -1.5894  0.8030  2.2697
 2985TIP3    H2 8962   1.375   4.150   0.800  0.2486 -3.0722  0.2787
 2986TIP3   OH2 8963   4.652   5.119   0.234  0.3055 -0.0510  0.2299
 2986TIP3    H1 8964   4.570   5.114   0.185  1.0853 -1.8609 -1.0207
 2986TIP3    H2 8965   4.695   5.035   0.216  3.0967  1.4294 -0.3545
 2987TIP3   OH2 8966   5.876   1.832   3.807  1.0330 -0.0251 -0.7410
 2987TIP3    H1 8967   5.915   1.750   3.774  0.9020  0.0795 -1.1621
 2987TIP3    H2 8968   5.866   1.887   3.729  0.8930  0.2997 -0.4960
 2988TIP3   OH2 8969   5.332   2.338   4.848  0.0404  0.1864  0.1264
 2988TIP3    H1 8970   5.331   2.354   4.753  1.0642  1.6905  0.3348
 2988TIP3    H2 8971   5.301   2.248   4.857 -2.7543  0.8791 -1.4159
 2989TIP3   OH2 8972   1.880   2.887   0.960  0.1042  0.5057  0.0012
 2989TIP3    H1 8973   1.878   2.957   0.895  0.9673  0.1276 -0.4469
 2989TIP3    H2 8974   1.906   2.930   1.041  1.0885  0.6328 -0.3739
 2990TIP3   OH2 8975   4.353   2.282   4.519  0.4046 -0.5467  0.6339
 2990TIP3    H1 8976   4.353   2.245   4.608  1.4468 -1.1711  0.3975
 2990TIP3    H2 8977   4.426   2.344   4.520  0.5586 -0.7178  0.1541
 2991TIP3   OH2 8978   0.131   3.340   0.325 -0.7546 -0.4250  0.0141
 2991TIP3    H1 8979   0.166   3.406   0.266 -0.9431  0.8862  1.3095
 2991TIP3    H2 8980   0.184   3.262   0.307 -1.0184 -0.1696 -2.0554
 2992TIP3   OH2 8981   4.035   5.779   1.703  0.2120  0.2357  0.1020
 2992TIP3    H1 8982   4.099   5.746   1.765 -1.5020 -1.6390  1.0067
 2992TIP3    H2 8983   4.005   5.861   1.740  0.4900  0.0162  0.8261
 2993TIP3   OH2 8984   5.939   1.602   1.423 -0.1412 -0.0321 -0.4781
 2993TIP3    H1 8985   5.982   1.652   1.354 -0.0160 -0.3833 -0.6582
 2993TIP3    H2 8986   5.854   1.579   1.385 -0.7033  1.0766  0.0558
 2994TIP3   OH2 8987   5.137   4.982   4.554 -0.2635 -0.1099 -0.2675
 2994TIP3    H1 8988   5.167   5.073   4.567  1.0267 -0.6558  0.9257
 2994TIP3    H2 8989   5.055   4.977   4.604 -0.4846  0.4616 -0.5579
 2995TIP3   OH2 8990   5.229   5.633   3.563  0.2507 -0.4765  0.1618
 2995TIP3    H1 8991   5.159   5.590   3.514 -1.8047  0.7692  1.7921
 2995TIP3    H2 8992   5.282   5.562   3.599 -0.3669 -1.4683 -0.8353
 2996TIP3   OH2 8993   0.190   4.145   4.613  0.3620  0.1206  0.3293
 2996TIP3    H1 8994   0.118   4.112   4.560  0.8879  0.8320 -0.8519
 2996TIP3    H2 8995   0.153   4.220   4.660  0.0762 -0.1077  0.4707
 2997TIP3   OH2 8996   1.576   0.543   0.576  0.1505 -0.7207 -0.1071
 2997TIP3    H1 8997   1.598   0.630   0.608  1.6264 -1.5110  1.1287
 2997TIP3    H2 8998   1.540   0.497   0.652 -1.1840 -1.0426 -0.8868
 2998TIP3   OH2 8999   2.740   3.318   3.274  0.3471  0.0079 -0.7031
 2998TIP3    H1 9000   2.696   3.250   3.224  2.6865 -0.6445 -2.0511
 2998TIP3    H2 9001   2.810   3.271   3.321  1.0791  1.2714 -0.4761
 2999TIP3   OH2 9002   4.657   2.512   0.654 -0.0129  0.3864  0.1393
 2999TIP3    H1 9003   4.626   2.437   0.705 -0.2236  0.2011 -0.2569
 2999TIP3    H2 9004   4.577   2.556   0.625  0.1095  0.7053  0.2874
 3000TIP3   OH2 9005   2.278   0.855   2.362 -0.0048 -0.4420  0.5826
 3000TIP3    H1 9006   2.304   0.831   2.450 -0.8457 -1.3289  0.6081
 3000TIP3    H2 9007   2.200   0.802   2.344  1.1880 -1.6600 -1.3748
 3001TIP3   OH2 9008   6.309   3.536   2.108  0.1941  0.0537 -0.8388
 3001TIP3    H1 9009   6.230   3.494   2.144  1.4825 -0.1068  2.1110
 3001TIP3    H2 9010   6.359   3.465   2.070  0.1985 -0.3234 -0.1442
 3002TIP3   OH2 9011   2.342   2.862   2.082 -0.2927  0.6781 -0.1943
 3002TIP3    H1 9012   2.350   2.951   2.047 -2.8309  0.9034 -0.3738
 3002TIP3    H2 9013   2.281   2.870   2.155 -0.4118 -0.8855 -0.0882
 3003TIP3   OH2 9014   4.579   3.320   0.623 -0.4327  0.2280  0.3025
 3003TIP3    H1 9015   4.618   3.264   0.690 -1.1230 -1.3982 -0.6029
 3003TIP3    H2 9016   4.646   3.386   0.605 -0.3752  0.9305  2.8088
 3004TIP3   OH2 9017   4.502   1.507   2.503 -0.2223 -0.3487  0.2942
 3004TIP3    H1 9018   4.507   1.442   2.573  1.5237 -0.5380  0.0471
 3004TIP3    H2 9019   4.574   1.485   2.444  0.1079  1.4965 -0.0688
 3005TIP3   OH2 9020   0.253   2.318   0.199 -0.0590 -0.7927 -0.2427
 3005TIP3    H1 9021   0.254   2.350   0.109  0.8104 -0.0119  0.0183
 3005TIP3    H2 9022   0.307   2.382   0.247 -0.4831 -1.2087  0.8183
 3006TIP3   OH2 9023   5.914   0.317   2.192  0.1352 -0.0518 -0.2828
 3006TIP3    H1 9024   5.935   0.367   2.271 -0.9283  1.8262 -1.1044
 3006TIP3    H2 9025   5.960   0.364   2.122 -1.2667  0.0987 -1.1494
 3007TIP3   OH2 9026   3.788   0.088   4.894 -0.5788  0.1111  0.3861
 3007TIP3    H1 9027   3.795   0.143   4.816  2.3670  2.5005  2.0866
 3007TIP3    H2 9028   3.869   0.037   4.894 -0.2605  0.5481  2.0814
 3008TIP3   OH2 9029   1.777   4.903   1.193  0.3100 -0.2659  0.4067
 3008TIP3    H1 9030   1.692   4.932   1.226  0.4791 -1.4799  2.0404
 3008TIP3    H2 9031   1.763   4.890   1.099 -0.8255  1.1485  0.3463
 3009TIP3   OH2 9032   5.460   2.658   2.043  0.0182 -0.0783  0.6788
 3009TIP3    H1 9033   5.440   2.589   1.979 -0.7623  1.2227 -0.5456
 3009TIP3    H2 9034   5.521   2.716   1.997 -1.3628  1.4447  0.6905
 3010TIP3   OH2 9035   2.701   3.116   1.675  0.2370 -0.4262  0.2308
 3010TIP3    H1 9036   2.626   3.060   1.692  0.4625 -0.7053  0.3096
 3010TIP3    H2 9037   2.758   3.104   1.751  1.1675 -1.5344 -0.6033
 3011TIP3   OH2 9038   3.001   1.967   2.689  0.1247  0.2996 -0.5200
 3011TIP3    H1 9039   3.031   2.057   2.677 -1.1373  0.6086 -1.6068
 3011TIP3    H2 9040   2.972   1.963   2.780 -0.1164  1.0958 -0.5581
 3012TIP3   OH2 9041   3.320   5.028   5.106  0.1142  0.0921  0.1774
 3012TIP3    H1 9042   3.356   5.047   5.193  1.7573 -0.1279 -0.4370
 3012TIP3    H2 9043   3.268   5.106   5.084  0.1021  0.3625  1.1245
 3013TIP3   OH2 9044   0.254   5.173   4.235  0.2744 -0.1267  0.5467
 3013TIP3    H1 9045   0.313   5.177   4.159  0.8074 -0.4625  0.9376
 3013TIP3    H2 9046   0.201   5.252   4.228  0.0831 -0.3246 -0.3693
 3014TIP3   OH2 9047   2.754   3.119   4.140  0.1288 -0.4406 -0.2220
 3014TIP3    H1 9048   2.711   3.204   4.149  0.5108 -0.2869  0.2291
 3014TIP3    H2 9049   2.715   3.065   4.209 -0.1963 -0.6726 -0.5813
 3015TIP3   OH2 9050   2.835   5.405   3.427  0.9585 -0.1173  0.0264
 3015TIP3    H1 9051   2.745   5.413   3.458  1.2289 -2.4685  1.6713
 3015TIP3    H2 9052   2.831   5.430   3.334 -1.7685 -1.8338 -0.4349
 3016TIP3   OH2 9053   0.857   5.474   4.387  0.6868  0.7456 -0.0331
 3016TIP3    H1 9054   0.837   5.565   4.364 -0.2604  0.7248  0.6399
 3016TIP3    H2 9055   0.804   5.457   4.465  1.4011 -0.1631  0.2748
 3017TIP3   OH2 9056   2.641   1.511   4.354 -0.1305 -0.2848 -0.0810
 3017TIP3    H1 9057   2.660   1.464   4.273 -1.6263 -1.4200  0.1798
 3017TIP3    H2 9058   2.550   1.489   4.374  0.5752 -1.1411  2.6102
 3018TIP3   OH2 9059   0.835   4.888   0.830 -0.4275  0.1297 -0.3104
 3018TIP3    H1 9060   0.845   4.850   0.742 -1.8737 -1.2744  0.0903
 3018TIP3    H2 9061   0.830   4.813   0.888  1.2358  1.0510  1.1154
 3019TIP3   OH2 9062   4.668   3.510   0.362  0.3940 -0.7031 -0.3131
 3019TIP3    H1 9063   4.587   3.557   0.378  0.6947  0.3399 -1.7083
 3019TIP3    H2 9064   4.705   3.551   0.284  2.0716 -1.4119  0.0674
 3020TIP3   OH2 9065   5.050   1.633   0.775  0.2703 -0.3260 -0.0715
 3020TIP3    H1 9066   5.029   1.681   0.855  2.2289 -1.0316  0.9316
 3020TIP3    H2 9067   5.008   1.682   0.705 -1.3151  0.4395  1.3571
 3021TIP3   OH2 9068   5.149   2.725   3.730  0.2810  0.0851 -0.4739
 3021TIP3    H1 9069   5.120   2.814   3.753  1.7322 -0.0277  2.0814
 3021TIP3    H2 9070   5.188   2.735   3.643 -0.8441  1.6469 -0.8477
 3022TIP3   OH2 9071   2.465   1.578   2.704  0.4042  0.0370  0.2461
 3022TIP3    H1 9072   2.425   1.549   2.786  1.6155 -1.6114  0.3094
 3022TIP3    H2 9073   2.504   1.663   2.726  0.1703 -0.0849  1.2051
 3023TIP3   OH2 9074   3.795   5.661   4.488  0.0664 -0.0845 -0.2461
 3023TIP3    H1 9075   3.774   5.733   4.547  1.0465 -0.2664  0.3300
 3023TIP3    H2 9076   3.890   5.658   4.486  0.0525 -1.8368  0.3157
 3024TIP3   OH2 9077   3.790   5.159   3.251 -0.3769 -0.4013 -0.5285
 3024TIP3    H1 9078   3.713   5.214   3.263 -0.2849 -0.1552 -1.0101
 3024TIP3    H2 9079   3.760   5.071   3.271 -0.4736 -0.1506  0.4403
 3025TIP3   OH2 9080   0.020   5.442   0.468  0.0727  0.3144 -0.5751
 3025TIP3    H1 9081  -0.009   5.387   0.541 -1.1602  1.2969 -0.2867
 3025TIP3    H2 9082   0.112   5.420   0.456  0.1337 -0.3146  0.8676
 3026TIP3   OH2 9083   3.967   5.319   2.200  0.5342  0.1553 -0.0617
 3026TIP3    H1 9084   3.916   5.326   2.119  1.4265  0.1445 -0.6485
 3026TIP3    H2 9085   4.001   5.407   2.215  1.2945 -0.0759 -0.3421
 3027TIP3   OH2 9086   3.271   1.916   2.202  0.3425  0.1679 -0.7493
 3027TIP3    H1 9087   3.213   1.978   2.245 -1.1743 -1.3550 -0.4555
 3027TIP3    H2 9088   3.347   1.909   2.261  0.1269  1.0569 -0.3498
 3028TIP3   OH2 9089   1.143   4.691   4.021 -0.0312  0.3179 -0.5991
 3028TIP3    H1 9090   1.182   4.616   3.977 -0.4585 -0.1888 -0.1228
 3028TIP3    H2 9091   1.055   4.698   3.984  0.3989  1.3087 -1.4922
 3029TIP3   OH2 9092   5.346   1.777   4.524 -0.8121  0.1577 -0.2614
 3029TIP3    H1 9093   5.354   1.765   4.619 -0.0801 -0.0838 -0.3403
 3029TIP3    H2 9094   5.324   1.869   4.513 -3.3105 -0.3039  0.2314
 3030TIP3   OH2 9095   3.261   2.971   3.999  0.4935  0.4836 -0.2689
 3030TIP3    H1 9096   3.286   2.910   3.929  1.3600 -0.9001  1.1888
 3030TIP3    H2 9097   3.199   2.921   4.052 -0.1452  1.5192 -0.0215
 3031TIP3   OH2 9098   3.693   3.843   3.011  0.5348  0.1130  0.5633
 3031TIP3    H1 9099   3.786   3.819   3.008  0.0616 -1.7512 -1.1151
 3031TIP3    H2 9100   3.671   3.867   2.921 -0.3693  1.7897  1.1698
 3032TIP3   OH2 9101   1.520   4.482   4.580 -0.0212 -0.6894 -0.2474
 3032TIP3    H1 9102   1.450   4.547   4.568 -0.3351 -0.7735  1.0372
 3032TIP3    H2 9103   1.527   4.439   4.495 -1.1335 -0.2812 -0.5593
 3033TIP3   OH2 9104   2.370   0.874   1.692 -0.5035  0.0682 -0.1860
 3033TIP3    H1 9105   2.319   0.920   1.759  1.2101  0.3429  1.0033
 3033TIP3    H2 9106   2.379   0.785   1.725 -0.3090 -0.0086 -0.4416
 3034TIP3   OH2 9107   6.008   3.021   3.112  0.2964  0.4165 -0.0134
 3034TIP3    H1 9108   5.928   2.981   3.078  1.0813 -0.0624 -1.4039
 3034TIP3    H2 9109   6.046   3.066   3.036  1.2080  0.8522  0.6890
 3035TIP3   OH2 9110   5.950   2.937   2.829 -0.4453  0.1376 -0.0315
 3035TIP3    H1 9111   5.867   2.953   2.783 -0.4097 -0.2873 -0.2448
 3035TIP3    H2 9112   5.935   2.857   2.878  0.6151 -1.3614 -2.0076
 3036TIP3   OH2 9113   2.353   2.804   3.049 -0.7198  0.0315 -0.7554
 3036TIP3    H1 9114   2.281   2.777   2.992  0.1121  0.1025 -1.8842
 3036TIP3    H2 9115   2.363   2.733   3.112  0.3445 -1.5866 -2.6337
 3037TIP3   OH2 9116   1.741   1.610   2.237  0.5988  0.0923  0.3062
 3037TIP3    H1 9117   1.677   1.666   2.281  1.0045  1.0854 -0.3334
 3037TIP3    H2 9118   1.824   1.631   2.278  0.9275  0.7876 -0.6871
 3038TIP3   OH2 9119   3.688   5.420   3.763  0.1576 -0.0267  0.0515
 3038TIP3    H1 9120   3.714   5.370   3.840  1.7530  1.2830  0.4219
 3038TIP3    H2 9121   3.735   5.378   3.691 -1.7554 -1.5934 -0.3745
 3039TIP3   OH2 9122   6.029   4.236   0.659 -0.3502 -0.1202 -0.2121
 3039TIP3    H1 9123   6.103   4.297   0.655 -0.7115  0.3299 -0.0131
 3039TIP3    H2 9124   6.023   4.212   0.751 -0.1710 -0.5089 -0.2983
 3040TIP3   OH2 9125   2.940   4.511   1.588 -0.0203  0.0255  0.0786
 3040TIP3    H1 9126   2.889   4.450   1.642 -0.9113  0.7732  0.1109
 3040TIP3    H2 9127   2.934   4.595   1.634 -0.1351  0.4933 -0.7544
 3041TIP3   OH2 9128   1.583   4.121   4.037 -0.0067 -0.3505  0.4328
 3041TIP3    H1 9129   1.584   4.030   4.008  3.1545 -0.0390 -0.8966
 3041TIP3    H2 9130   1.564   4.116   4.131  1.6799 -2.5696  0.7417
 3042TIP3   OH2 9131   2.973   5.441   4.042  0.2384  0.3128  0.1941
 3042TIP3    H1 9132   2.919   5.398   3.976 -0.8466  2.0005 -0.0726
 3042TIP3    H2 9133   3.041   5.486   3.992  1.0841 -0.6558  0.4397
 3043TIP3   OH2 9134   6.168   1.493   4.953 -0.1879 -0.7595 -0.0493
 3043TIP3    H1 9135   6.240   1.461   5.007  1.3667 -0.1806 -1.6756
 3043TIP3    H2 9136   6.207   1.563   4.901 -2.3431  0.7022  0.1450
 3044TIP3   OH2 9137   5.886   4.611   3.893  0.1473  0.1876 -0.2838
 3044TIP3    H1 9138   5.897   4.598   3.799  1.4999  0.6446 -0.2149
 3044TIP3    H2 9139   5.816   4.552   3.918 -1.4158  1.2695 -1.8709
 3045TIP3   OH2 9140   6.018   5.878   2.202 -0.3019  0.5049  0.6003
 3045TIP3    H1 9141   6.025   5.827   2.282 -0.0215 -0.6075 -0.1117
 3045TIP3    H2 9142   6.074   5.955   2.217  0.3793 -0.0890  1.1706
 3046TIP3   OH2 9143   0.804   2.004   4.929 -0.6788  0.1754  0.1335
 3046TIP3    H1 9144   0.884   2.039   4.966 -0.6975  0.0952  0.2511
 3046TIP3    H2 9145   0.734   2.054   4.971 -0.7781 -0.9628  1.3852
 3047TIP3   OH2 9146   6.048   4.032   2.069  0.2151 -0.4473  0.8133
 3047TIP3    H1 9147   6.015   3.998   2.153 -0.0455 -1.1338  0.4376
 3047TIP3    H2 9148   6.006   3.977   2.003 -0.1960  0.6034  0.1882
 3048TIP3   OH2 9149   0.478   1.105   3.437  0.2185 -0.1395 -0.0208
 3048TIP3    H1 9150   0.402   1.138   3.388 -0.3427  0.9754  1.5266
 3048TIP3    H2 9151   0.551   1.160   3.408 -0.2337  0.9279  0.7873
 3049TIP3   OH2 9152   2.476   2.978   5.072 -0.0145 -0.0658 -0.2511
 3049TIP3    H1 9153   2.483   3.017   5.160 -0.5437  1.0187 -0.6632
 3049TIP3    H2 9154   2.529   3.034   5.016 -2.3295  1.3149 -1.2226
 3050TIP3   OH2 9155   6.338   5.138   2.810  0.7045  0.3731  0.6042
 3050TIP3    H1 9156   6.265   5.116   2.752  1.0828  1.4550 -0.3124
 3050TIP3    H2 9157   6.317   5.226   2.842  1.5065  0.6197  0.4726
 3051TIP3   OH2 9158   3.926   3.052   4.244 -0.5755  0.1645  0.0752
 3051TIP3    H1 9159   3.959   3.071   4.332  0.2834 -0.2962 -0.1348
 3051TIP3    H2 9160   3.895   2.962   4.248 -1.3996  0.4416  0.1422
 3052TIP3   OH2 9161   3.249   5.237   3.945  0.4829  0.0543  0.3706
 3052TIP3    H1 9162   3.181   5.170   3.952 -0.9842  1.5460  1.0297
 3052TIP3    H2 9163   3.285   5.225   3.857  0.0630 -1.3899  0.3722
 3053TIP3   OH2 9164   2.052   2.053   1.393  0.1319 -0.0871  0.2819
 3053TIP3    H1 9165   2.056   2.148   1.384 -0.3718  0.0523  1.3491
 3053TIP3    H2 9166   2.135   2.022   1.357 -1.1424  0.3999 -3.6593
 3054TIP3   OH2 9167   3.372   1.586   4.713  0.2944 -0.2068  0.0006
 3054TIP3    H1 9168   3.429   1.654   4.679 -0.5167 -0.0958 -1.2113
 3054TIP3    H2 9169   3.370   1.600   4.807  2.5090 -0.4293  0.1183
 3055TIP3   OH2 9170   0.222   5.522   0.791 -0.3822  0.0856 -0.0506
 3055TIP3    H1 9171   0.158   5.592   0.776 -0.0431  0.1951 -1.0401
 3055TIP3    H2 9172   0.247   5.493   0.703  2.7175  1.6726  0.1451
 3056TIP3   OH2 9173   4.007   4.055   1.457 -0.1013  0.2401  0.2778
 3056TIP3    H1 9174   4.090   4.008   1.449  0.0254  0.4910  0.1311
 3056TIP3    H2 9175   4.030   4.136   1.503 -0.6021 -0.6277  2.1607
 3057TIP3   OH2 9176   2.397   3.993   0.644 -0.3485  0.3849 -0.0483
 3057TIP3    H1 9177   2.417   3.975   0.736 -0.8118  0.7467  0.1298
 3057TIP3    H2 9178   2.402   3.907   0.601  1.1206  0.3842  0.0544
 3058TIP3   OH2 9179   0.925   3.257   2.732  0.4231 -0.0868 -0.0105
 3058TIP3    H1 9180   0.914   3.196   2.660  0.2448 -0.1793  0.0959
 3058TIP3    H2 9181   0.848   3.314   2.728  0.6825  0.2575 -0.2294
 3059TIP3   OH2 9182   4.934   5.269   4.042  0.4956 -0.3372  0.0868
 3059TIP3    H1 9183   4.881   5.261   3.963 -1.7859 -1.5829  1.6326
 3059TIP3    H2 9184   4.948   5.363   4.052 -2.0144  0.1292 -0.0875
 3060TIP3   OH2 9185   0.540   5.619   2.762 -0.1099  0.0836  0.4435
 3060TIP3    H1 9186   0.526   5.681   2.691  1.7318 -0.0763 -0.1060
 3060TIP3    H2 9187   0.518   5.534   2.724 -2.3063  0.3104  1.0959
 3061TIP3   OH2 9188   0.199   3.933   2.449  0.5599  0.0835  0.4980
 3061TIP3    H1 9189   0.103   3.942   2.450  0.7200  2.3049  0.7567
 3061TIP3    H2 9190   0.225   3.942   2.541  1.0879  0.6367  0.2999
 3062TIP3   OH2 9191   3.931   2.347   0.361  0.2639 -0.0005  0.2703
 3062TIP3    H1 9192   3.973   2.284   0.419 -0.5031 -0.4038  0.4060
 3062TIP3    H2 9193   3.846   2.307   0.340 -0.7914  1.5559  1.4023
 3063TIP3   OH2 9194   5.449   2.605   5.117  0.2039 -0.1324  0.5184
 3063TIP3    H1 9195   5.377   2.668   5.117  1.9107  1.9138  0.2757
 3063TIP3    H2 9196   5.409   2.523   5.086 -1.8171  1.1475 -0.4719
 3064TIP3   OH2 9197   4.737   2.001   0.057  0.2018  0.3154  0.5077
 3064TIP3    H1 9198   4.828   2.002   0.030 -0.0662 -0.1061 -0.4292
 3064TIP3    H2 9199   4.738   2.036   0.146  1.4647 -1.1518  1.1117
 3065TIP3   OH2 9200   0.662   4.372   4.358  0.7028 -0.1794 -0.3030
 3065TIP3    H1 9201   0.580   4.328   4.382 -0.7691  1.6023 -1.7148
 3065TIP3    H2 9202   0.700   4.399   4.442 -1.6602  1.4434  0.3651
 3066TIP3   OH2 9203   3.320   4.647   1.050 -0.0479 -0.0397 -0.5712
 3066TIP3    H1 9204   3.387   4.673   0.987  1.0140 -0.2746  0.4308
 3066TIP3    H2 9205   3.268   4.581   1.004 -0.7961  1.4860 -2.0242
 3067TIP3   OH2 9206   4.672   1.342   3.946 -0.0850 -0.9885 -0.6657
 3067TIP3    H1 9207   4.709   1.396   4.016 -0.9540 -0.4419 -0.6131
 3067TIP3    H2 9208   4.747   1.292   3.912  1.4268  2.1988 -2.5329
 3068TIP3   OH2 9209   5.627   2.037   2.714 -0.2963 -0.6144 -0.1908
 3068TIP3    H1 9210   5.669   2.121   2.731 -2.1253 -0.0604  2.0920
 3068TIP3    H2 9211   5.572   2.053   2.636  0.4591 -0.1399 -0.6367
 3069TIP3   OH2 9212   4.136   1.204   1.246  0.0113  0.2323  0.7900
 3069TIP3    H1 9213   4.173   1.134   1.191 -3.1566  0.2962 -1.7082
 3069TIP3    H2 9214   4.209   1.265   1.259  1.5396 -0.9724 -1.4149
 3070TIP3   OH2 9215   1.391   3.256   0.100  0.4671 -0.2335  0.5314
 3070TIP3    H1 9216   1.477   3.223   0.128  1.8635  1.4303 -1.4606
 3070TIP3    H2 9217   1.410   3.343   0.065 -1.9931  0.0058 -0.3561
 3071TIP3   OH2 9218   0.269   1.087   3.024  0.7352  0.4586  0.0768
 3071TIP3    H1 9219   0.326   1.011   3.015 -1.2738 -0.9150 -2.2064
 3071TIP3    H2 9220   0.228   1.098   2.938 -0.2077  3.2163  0.7516
 3072TIP3   OH2 9221   5.327   3.570   4.249 -0.2225  0.0748 -0.1954
 3072TIP3    H1 9222   5.311   3.545   4.340 -1.5268 -0.1140 -0.4569
 3072TIP3    H2 9223   5.415   3.538   4.230 -0.4141 -0.9822  0.6330
 3073TIP3   OH2 9224   0.320   0.342   3.568 -0.2080 -0.1282  0.0107
 3073TIP3    H1 9225   0.257   0.413   3.581  1.2864  0.9923  1.5257
 3073TIP3    H2 9226   0.399   0.371   3.612  0.8946 -2.1856 -0.4651
 3074TIP3   OH2 9227   3.501   4.243   1.396 -0.3728  0.2858 -0.0628
 3074TIP3    H1 9228   3.580   4.282   1.433 -0.3519  1.2358 -1.0575
 3074TIP3    H2 9229   3.474   4.303   1.327 -0.3814 -1.4381 -1.6349
 3075TIP3   OH2 9230   5.298   1.355   4.804 -0.3148 -0.1604 -0.0819
 3075TIP3    H1 9231   5.323   1.440   4.768 -0.3165  0.5886  1.6055
 3075TIP3    H2 9232   5.352   1.292   4.756  2.3347  1.1082  1.0576
 3076TIP3   OH2 9233   2.298   2.972   3.943  0.2974  0.6641  0.0502
 3076TIP3    H1 9234   2.394   2.964   3.942  0.2041 -0.7217  0.0382
 3076TIP3    H2 9235   2.274   2.959   4.034  0.0574 -0.1593 -0.1175
 3077TIP3   OH2 9236   5.062   3.166   1.793 -0.1648  0.0378  0.4725
 3077TIP3    H1 9237   5.111   3.084   1.804  0.4021  0.2275 -0.5178
 3077TIP3    H2 9238   5.070   3.210   1.877 -1.1062 -1.2498  1.2693
 3078TIP3   OH2 9239   1.186   0.930   0.891 -0.5677 -0.6472  0.4024
 3078TIP3    H1 9240   1.187   0.835   0.885 -1.1790 -0.7342  1.5470
 3078TIP3    H2 9241   1.229   0.950   0.974  2.6390  0.2533 -1.2724
 3079TIP3   OH2 9242   5.318   0.232   4.641 -0.0168  0.3507 -0.2230
 3079TIP3    H1 9243   5.370   0.246   4.720 -0.6898 -0.7642  0.4489
 3079TIP3    H2 9244   5.270   0.314   4.630  0.6433  0.7951  0.0783
 3080TIP3   OH2 9245   1.251   3.034   1.128 -0.1153 -0.1489  0.1821
 3080TIP3    H1 9246   1.331   3.066   1.088 -1.1663  3.4200  0.6035
 3080TIP3    H2 9247   1.211   2.978   1.061  2.0746 -0.9962 -0.4861
 3081TIP3   OH2 9248   3.404   0.705   1.497 -0.0334  0.0046 -0.7256
 3081TIP3    H1 9249   3.329   0.701   1.438 -1.4556  3.0084  0.6804
 3081TIP3    H2 9250   3.383   0.641   1.565 -1.7664  1.3166  0.0437
 3082TIP3   OH2 9251   3.075   2.157   0.373  0.0997  0.0653 -0.3477
 3082TIP3    H1 9252   3.135   2.098   0.327 -0.6812  1.0364 -2.7756
 3082TIP3    H2 9253   2.994   2.106   0.380  0.7024 -0.7167  1.6360
 3083TIP3   OH2 9254   2.388   5.498   2.878 -0.1008  0.1214 -0.6179
 3083TIP3    H1 9255   2.439   5.419   2.857 -1.0101 -0.6234 -0.0734
 3083TIP3    H2 9256   2.388   5.501   2.974  0.4094  1.1199 -0.6400
 3084TIP3   OH2 9257   2.759   2.564   3.898  0.4295 -0.2918  0.3084
 3084TIP3    H1 9258   2.801   2.639   3.856 -0.7873  1.4156  1.9749
 3084TIP3    H2 9259   2.698   2.602   3.961 -0.4962 -2.6968  1.0004
 3085TIP3   OH2 9260   4.977   1.347   4.460  0.3531  0.1613 -0.1826
 3085TIP3    H1 9261   5.068   1.360   4.433  1.3719 -0.5455  2.6665
 3085TIP3    H2 9262   4.949   1.268   4.413  1.6730 -0.4307 -0.0055
 3086TIP3   OH2 9263   1.158   2.113   2.651  0.1088 -0.1919  0.4388
 3086TIP3    H1 9264   1.204   2.052   2.594  1.1723  1.5192 -0.6442
 3086TIP3    H2 9265   1.215   2.121   2.728 -0.8867 -1.8122  1.4126
 3087TIP3   OH2 9266   0.458   5.679   2.506  0.4137  0.2374  0.3702
 3087TIP3    H1 9267   0.367   5.702   2.489  0.7421  0.4603 -1.2284
 3087TIP3    H2 9268   0.472   5.599   2.455  1.4252  0.8543 -0.3478
 3088TIP3   OH2 9269   1.620   3.124   0.231 -0.6059 -0.1041 -0.5946
 3088TIP3    H1 9270   1.560   3.050   0.232 -0.3391 -0.3307 -1.1416
 3088TIP3    H2 9271   1.705   3.086   0.210 -0.2935  0.2316  0.0193
 3089TIP3   OH2 9272   0.411   5.496   4.180 -0.1722  0.2928 -0.4258
 3089TIP3    H1 9273   0.477   5.512   4.247  0.1141 -0.5448 -0.5045
 3089TIP3    H2 9274   0.334   5.465   4.229 -0.0846  0.0336 -0.4542
 3090TIP3   OH2 9275   5.566   2.707   1.262  0.3341 -0.5045 -0.3575
 3090TIP3    H1 9276   5.601   2.718   1.350 -1.9545 -1.8951  0.8078
 3090TIP3    H2 9277   5.581   2.791   1.220  1.2507  0.2817  1.4370
 3091TIP3   OH2 9278   2.803   5.331   3.861  0.3202 -0.2048  0.2012
 3091TIP3    H1 9279   2.750   5.352   3.785 -0.7802 -2.7830  0.1462
 3091TIP3    H2 9280   2.840   5.244   3.842 -0.6225 -1.2947  2.8495
 3092TIP3   OH2 9281   0.010   0.029   1.670  0.1940  0.3435  0.1376
 3092TIP3    H1 9282   0.071  -0.045   1.663  1.2082  1.2274 -0.8221
 3092TIP3    H2 9283   0.035   0.072   1.752 -0.3397 -0.3245  0.6522
 3093TIP3   OH2 9284   1.729   2.733   2.017  0.5794  0.0913 -0.0889
 3093TIP3    H1 9285   1.779   2.793   2.072  0.1980  0.3135  0.0212
 3093TIP3    H2 9286   1.715   2.782   1.936  0.7202 -0.0511 -0.1995
 3094TIP3   OH2 9287   1.902   2.688   2.447  0.0420 -0.3919 -0.2053
 3094TIP3    H1 9288   1.876   2.613   2.394 -0.6479 -0.5392  0.3241
 3094TIP3    H2 9289   1.843   2.758   2.421 -0.1903 -0.4177  0.2467
 3095TIP3   OH2 9290   3.746   5.881   4.667  0.7004  0.1871 -0.7152
 3095TIP3    H1 9291   3.701   5.905   4.748 -1.0508  0.1253 -1.6092
 3095TIP3    H2 9292   3.836   5.910   4.680  0.2270  1.0903  0.8655
 3096TIP3   OH2 9293   1.027   3.987   2.669 -0.1193 -0.0123 -0.4889
 3096TIP3    H1 9294   1.037   4.057   2.734 -0.0525 -0.6095  0.1569
 3096TIP3    H2 9295   0.934   3.965   2.672  0.2500 -1.5369  1.0139
 3097TIP3   OH2 9296   2.874   3.665   1.111 -0.6558 -0.0202 -0.0756
 3097TIP3    H1 9297   2.848   3.740   1.164  0.1066 -0.8311  1.4908
 3097TIP3    H2 9298   2.796   3.610   1.107 -0.2632 -0.7325  1.6028
 3098TIP3   OH2 9299   3.956   4.968   2.510 -0.7705 -0.1172 -0.2031
 3098TIP3    H1 9300   4.006   5.049   2.503  0.1611 -0.4809  1.6597
 3098TIP3    H2 9301   3.886   4.989   2.573 -4.4018  0.9912 -4.1198
 3099TIP3   OH2 9302   1.002   1.445   0.512  0.4160 -0.6882  0.0176
 3099TIP3    H1 9303   1.027   1.533   0.486  0.9480 -1.1997 -1.2765
 3099TIP3    H2 9304   0.911   1.454   0.542 -0.0623  0.0585 -1.5410
 3100TIP3   OH2 9305   3.679   5.583   4.902  0.0612  0.6564 -0.0399
 3100TIP3    H1 9306   3.616   5.644   4.864 -0.6301 -0.3525 -0.5429
 3100TIP3    H2 9307   3.689   5.514   4.836 -1.2690 -1.2184  1.5822
 3101TIP3   OH2 9308  -0.018   0.113   3.071 -0.3589 -0.1656  0.2731
 3101TIP3    H1 9309  -0.022   0.127   2.977 -0.1585  0.3292  0.3335
 3101TIP3    H2 9310   0.056   0.054   3.084  0.8507  1.2744  0.2654
 3102TIP3   OH2 9311   3.614   5.355   3.200  0.2829 -0.3509 -0.6211
 3102TIP3    H1 9312   3.685   5.418   3.195 -1.2493  1.5682  0.5334
 3102TIP3    H2 9313   3.541   5.395   3.153 -0.0890 -2.2762 -1.8145
 3103TIP3   OH2 9314   5.641   1.072   5.143 -0.6398 -0.1776 -0.5204
 3103TIP3    H1 9315   5.610   1.127   5.071 -1.3209 -0.0914 -0.1652
 3103TIP3    H2 9316   5.598   1.107   5.220 -0.6754 -0.8831 -0.2098
 3104TIP3   OH2 9317   1.712   5.904   3.587  0.2420  0.0863 -0.1659
 3104TIP3    H1 9318   1.762   5.971   3.540  0.8286 -1.9095 -2.6064
 3104TIP3    H2 9319   1.765   5.884   3.663  2.1613 -0.4552 -1.5785
 3105TIP3   OH2 9320   2.595   3.886   1.561 -0.3849  0.1919  0.2100
 3105TIP3    H1 9321   2.582   3.966   1.611 -0.5268  0.9333 -0.9782
 3105TIP3    H2 9322   2.602   3.817   1.627  0.2466  1.2393  1.2705
 3106TIP3   OH2 9323   0.179   2.508   2.372  0.2121 -0.1267  0.2033
 3106TIP3    H1 9324   0.237   2.553   2.434  1.4321 -2.4999  0.8956
 3106TIP3    H2 9325   0.178   2.566   2.296  0.6580  1.6724  1.4824
 3107TIP3   OH2 9326   0.061   3.715   1.408 -0.2279  0.5455  0.1128
 3107TIP3    H1 9327  -0.018   3.663   1.422  1.1030 -1.6597 -0.2515
 3107TIP3    H2 9328   0.091   3.737   1.496  0.1995 -0.8893  0.3382
 3108TIP3   OH2 9329   1.776   5.295   1.984  0.7875  0.3481  0.0252
 3108TIP3    H1 9330   1.775   5.275   2.078 -0.8193 -0.5112 -0.1321
 3108TIP3    H2 9331   1.794   5.211   1.942  0.1577  0.4474 -0.4593
 3109TIP3   OH2 9332   4.883   5.776   1.346  0.2572  0.9331 -0.1677
 3109TIP3    H1 9333   4.803   5.745   1.388 -0.0766  1.1267 -0.6471
 3109TIP3    H2 9334   4.930   5.696   1.323 -0.0112  0.8030 -0.2769
 3110TIP3   OH2 9335   1.542   2.821   4.737 -0.3256  0.0920 -0.0709
 3110TIP3    H1 9336   1.634   2.803   4.758 -0.4373  0.7801  1.1135
 3110TIP3    H2 9337   1.545   2.892   4.673 -0.0004 -1.3742 -1.7679
 3111TIP3   OH2 9338   1.639   5.532   3.515  0.2195  0.3392 -0.2306
 3111TIP3    H1 9339   1.601   5.611   3.553  0.0030 -0.2697  0.8385
 3111TIP3    H2 9340   1.570   5.496   3.459 -0.5299 -0.3266  1.0763
 3112TIP3   OH2 9341   4.376   3.946   1.044 -0.6140 -0.2713 -0.1710
 3112TIP3    H1 9342   4.309   4.012   1.026 -1.1766 -0.8905 -0.3779
 3112TIP3    H2 9343   4.347   3.902   1.124 -1.0580 -1.2892 -0.8678
 3113TIP3   OH2 9344   5.128   0.156   0.202 -0.2357  0.2100 -0.1449
 3113TIP3    H1 9345   5.097   0.242   0.174  0.8654  0.7288  0.1837
 3113TIP3    H2 9346   5.058   0.122   0.258 -1.5983 -0.0067 -1.8655
 3114TIP3   OH2 9347   3.376   3.140   1.467 -0.3940  0.7411 -0.0253
 3114TIP3    H1 9348   3.460   3.117   1.506  0.0653 -1.9339 -2.2853
 3114TIP3    H2 9349   3.392   3.140   1.372 -2.8416  0.5816 -0.5232
 3115TIP3   OH2 9350   4.219   3.270   0.412  0.9512 -0.1390 -0.0164
 3115TIP3    H1 9351   4.168   3.335   0.461  1.0938 -0.4918  0.6125
 3115TIP3    H2 9352   4.306   3.273   0.452  1.0015 -0.5965 -0.0851
 3116TIP3   OH2 9353   6.267   5.420   2.898 -0.8988 -0.3214  0.3097
 3116TIP3    H1 9354   6.176   5.404   2.924 -1.6461  0.6536 -1.5282
 3116TIP3    H2 9355   6.294   5.496   2.948 -0.9091 -0.8888  1.2067
 3117TIP3   OH2 9356   4.696   5.787   0.839  0.5453  0.2003 -0.0478
 3117TIP3    H1 9357   4.690   5.698   0.804 -0.5673  0.3680 -0.2977
 3117TIP3    H2 9358   4.677   5.777   0.932  3.1063 -0.1857  0.5156
 3118TIP3   OH2 9359   6.248   4.849   1.683 -0.5188  0.3410 -0.7145
 3118TIP3    H1 9360   6.240   4.865   1.589 -0.3239 -1.7667 -1.1361
 3118TIP3    H2 9361   6.314   4.911   1.712 -0.8858  1.3244 -1.8662
 3119TIP3   OH2 9362   3.177   5.236   0.433 -0.5887  0.2988  0.6145
 3119TIP3    H1 9363   3.170   5.202   0.344 -0.7052  0.0620  0.7115
 3119TIP3    H2 9364   3.225   5.318   0.424 -1.4447  0.7729  0.2108
 3120TIP3   OH2 9365   3.249   4.623   4.648  0.1715  0.1986  0.3101
 3120TIP3    H1 9366   3.291   4.613   4.733  0.3520  0.7428  0.2897
 3120TIP3    H2 9367   3.155   4.615   4.666  0.2272 -0.0296  0.5044
 3121TIP3   OH2 9368   0.925   3.700   0.522 -0.0694  0.5594  0.5965
 3121TIP3    H1 9369   0.950   3.616   0.560 -3.7371 -1.1086 -0.2056
 3121TIP3    H2 9370   0.895   3.752   0.597  1.1378  0.7732  0.9535
 3122TIP3   OH2 9371   3.222   5.882   0.282 -0.4928 -0.5540 -0.3692
 3122TIP3    H1 9372   3.140   5.920   0.252  0.0284 -0.0199 -1.1713
 3122TIP3    H2 9373   3.279   5.957   0.298 -0.6777 -0.8264  1.8322
 3123TIP3   OH2 9374   1.902   0.327   0.133 -0.7085  0.3748  0.0846
 3123TIP3    H1 9375   1.983   0.335   0.184 -0.5783 -0.3969 -0.0016
 3123TIP3    H2 9376   1.919   0.255   0.072 -1.3184  0.4726 -0.2013
 3124TIP3   OH2 9377   1.755   0.271   3.987  0.5578 -0.3513 -0.5443
 3124TIP3    H1 9378   1.778   0.339   4.050  0.1300 -0.0259 -0.7359
 3124TIP3    H2 9379   1.838   0.232   3.962  0.6028 -2.2988  2.2320
 3125TIP3   OH2 9380   0.577   3.412   1.736  0.2032 -0.4562  0.6573
 3125TIP3    H1 9381   0.532   3.371   1.810  0.3645 -0.9627  0.4776
 3125TIP3    H2 9382   0.566   3.351   1.664  0.0715  0.0253  0.2651
 3126TIP3   OH2 9383   0.524   4.051   1.218 -0.1942 -0.2560 -0.1764
 3126TIP3    H1 9384   0.514   4.120   1.282  2.7105 -0.0688  0.2071
 3126TIP3    H2 9385   0.523   3.970   1.269  0.2277 -0.2307 -0.1251
 3127TIP3   OH2 9386   3.706   4.739   2.838  0.4493 -0.0483  0.0980
 3127TIP3    H1 9387   3.725   4.654   2.878  0.8882 -0.3266 -0.6916
 3127TIP3    H2 9388   3.612   4.752   2.854 -0.2496 -1.9216 -2.0319
 3128TIP3   OH2 9389   5.959   3.384   4.471 -0.0815 -0.4465 -0.2317
 3128TIP3    H1 9390   5.956   3.384   4.375 -0.1937  0.9711 -0.2539
 3128TIP3    H2 9391   5.880   3.432   4.497 -1.1260 -2.5144  0.6601
 3129TIP3   OH2 9392   3.301   5.628   0.216  0.3430 -0.1376 -0.3023
 3129TIP3    H1 9393   3.280   5.721   0.228  0.8552  0.0842 -1.0421
 3129TIP3    H2 9394   3.303   5.616   0.121 -1.2702 -1.2730 -0.2478
 3130TIP3   OH2 9395   5.576   2.959   0.459 -0.4783 -0.5937  0.4357
 3130TIP3    H1 9396   5.521   2.884   0.483 -1.4061 -0.1652 -0.3054
 3130TIP3    H2 9397   5.590   2.950   0.365  0.0320 -0.2417  0.4752
 3131TIP3   OH2 9398   3.277   3.906   0.536 -0.0607 -0.2166  0.0943
 3131TIP3    H1 9399   3.296   3.997   0.513 -0.6360  0.0980  0.8245
 3131TIP3    H2 9400   3.258   3.864   0.452 -0.5624  0.5191 -0.1750
 3132TIP3   OH2 9401   5.596   4.755   0.228  0.3112  0.6080 -0.1817
 3132TIP3    H1 9402   5.526   4.782   0.169 -0.7711 -2.2179 -0.3346
 3132TIP3    H2 9403   5.662   4.716   0.170  0.7295  0.7268  0.2076
 3133TIP3   OH2 9404   5.329   2.801   2.487  0.2640 -0.4332  0.3075
 3133TIP3    H1 9405   5.357   2.893   2.486  0.4202 -0.4695  0.7920
 3133TIP3    H2 9406   5.386   2.760   2.553 -0.9536 -0.5036  1.3555
 3134TIP3   OH2 9407   2.145   2.795   1.541 -0.0774 -0.1274  0.7188
 3134TIP3    H1 9408   2.159   2.795   1.636 -3.7511  0.1778  1.4245
 3134TIP3    H2 9409   2.066   2.743   1.529 -0.2602  0.6397 -2.0854
 3135TIP3   OH2 9410   6.009   0.648   0.730  0.0363  0.4975 -0.3821
 3135TIP3    H1 9411   5.940   0.701   0.771 -0.1758  0.0219 -0.1045
 3135TIP3    H2 9412   6.005   0.671   0.637 -1.2695 -0.3422 -0.5695
 3136TIP3   OH2 9413   1.949   1.628   5.097 -0.2837 -0.2256 -0.3894
 3136TIP3    H1 9414   1.938   1.608   5.190  0.8925 -1.7163 -0.5282
 3136TIP3    H2 9415   1.909   1.714   5.085  0.2610  0.3503  1.6602
 3137TIP3   OH2 9416   0.828   0.789   1.672  0.6025 -0.2767  0.2026
 3137TIP3    H1 9417   0.751   0.739   1.700  0.2149  0.4843  0.5225
 3137TIP3    H2 9418   0.801   0.827   1.588  0.6212  0.0161  0.3308
 3138TIP3   OH2 9419   5.664   4.294   0.297 -0.2354  0.5589 -0.5487
 3138TIP3    H1 9420   5.647   4.200   0.295 -0.1628  0.5492 -2.2545
 3138TIP3    H2 9421   5.755   4.302   0.327 -0.2851  0.0941 -0.2704
 3139TIP3   OH2 9422   4.026   1.910   3.701  0.3750  0.4294 -0.1659
 3139TIP3    H1 9423   3.971   1.987   3.685  1.1334  0.9313 -0.4055
 3139TIP3    H2 9424   4.098   1.943   3.755  0.2014 -0.3212  0.5467
 3140TIP3   OH2 9425   4.734   2.192   2.353  0.0197  0.4493  0.0425
 3140TIP3    H1 9426   4.820   2.150   2.352 -0.3118 -0.2489  0.3923
 3140TIP3    H2 9427   4.734   2.247   2.274  0.4416 -0.2368 -0.4472
 3141TIP3   OH2 9428   4.650   2.029   4.757 -0.0114  0.6029 -0.2896
 3141TIP3    H1 9429   4.690   2.054   4.674 -1.0553  1.4827 -0.5546
 3141TIP3    H2 9430   4.610   2.109   4.790 -1.0385 -0.0999  0.2399
 3142TIP3   OH2 9431   0.115   3.407   0.949  0.0954  0.1399 -0.0356
 3142TIP3    H1 9432   0.034   3.409   0.897 -0.5759 -0.2420  0.9747
 3142TIP3    H2 9433   0.181   3.447   0.891 -0.8681  0.7354 -0.7672
 3143TIP3   OH2 9434   3.946   5.070   4.251 -0.3170  0.0230 -0.1892
 3143TIP3    H1 9435   3.887   5.097   4.322 -0.4361 -1.6262  0.3740
 3143TIP3    H2 9436   4.008   5.010   4.293  1.0317  0.7749 -1.0286
 3144TIP3   OH2 9437   1.072   5.678   0.241 -0.1978  0.5539  0.0249
 3144TIP3    H1 9438   1.040   5.668   0.151 -0.4909 -0.4182  0.2280
 3144TIP3    H2 9439   1.136   5.749   0.236  0.7862 -0.3856 -1.1981
 3145TIP3   OH2 9440   0.821   3.108   0.480  0.0653  0.1423 -0.4575
 3145TIP3    H1 9441   0.733   3.144   0.488  0.5494  1.4477 -0.8470
 3145TIP3    H2 9442   0.820   3.032   0.539 -0.2926  2.1334  2.2967
 3146TIP3   OH2 9443   1.522   0.682   2.942  0.2955 -0.2452  0.5527
 3146TIP3    H1 9444   1.514   0.648   2.853 -0.7145 -0.3759  0.6839
 3146TIP3    H2 9445   1.432   0.703   2.968  0.2636 -2.2129  2.3346
 3147TIP3   OH2 9446   3.770   2.593   0.298  0.3883 -0.1970 -0.5005
 3147TIP3    H1 9447   3.711   2.526   0.262 -0.2708  0.9839 -1.6849
 3147TIP3    H2 9448   3.854   2.577   0.255  0.5534 -0.9224  0.0514
 3148TIP3   OH2 9449   4.435   3.627   3.504  0.5651  0.3881  1.4501
 3148TIP3    H1 9450   4.390   3.601   3.584  1.0304  0.1856  1.6457
 3148TIP3    H2 9451   4.521   3.585   3.509  0.4478  0.0238  0.6514
 3149TIP3   OH2 9452   5.526   1.685   2.197  0.0068  0.4154 -0.2983
 3149TIP3    H1 9453   5.533   1.650   2.108 -0.1266 -1.2078  0.2980
 3149TIP3    H2 9454   5.614   1.717   2.216  1.1321 -2.6654  0.2986
 3150TIP3   OH2 9455   3.340   0.202   3.006  0.0146  0.3380  0.1404
 3150TIP3    H1 9456   3.352   0.240   3.094  0.0259 -0.2908  0.4122
 3150TIP3    H2 9457   3.339   0.278   2.948  3.5603  0.6258  0.2572
 3151TIP3   OH2 9458   3.136   1.286   2.191  0.1116 -0.2544  0.0912
 3151TIP3    H1 9459   3.108   1.326   2.108  2.4068  2.0266  0.2750
 3151TIP3    H2 9460   3.187   1.209   2.164  2.4418  1.4843 -0.8887
 3152TIP3   OH2 9461   2.176   3.862   2.142  0.4745 -0.4560 -0.1337
 3152TIP3    H1 9462   2.104   3.867   2.079 -0.0901 -0.2292  0.5143
 3152TIP3    H2 9463   2.136   3.824   2.221  0.9198  0.2327  0.4318
 3153TIP3   OH2 9464   4.380   4.118   2.011 -0.1490  0.0651  0.0855
 3153TIP3    H1 9465   4.350   4.104   1.921  0.7521 -0.2651 -0.1762
 3153TIP3    H2 9466   4.301   4.114   2.064 -0.9259  1.8778 -0.8567
 3154TIP3   OH2 9467   4.480   3.055   4.856 -0.1519 -0.3520 -0.7506
 3154TIP3    H1 9468   4.561   3.026   4.899  0.2528 -0.6031 -1.6729
 3154TIP3    H2 9469   4.412   2.997   4.892 -0.2038  0.7583  1.0978
 3155TIP3   OH2 9470   2.651   2.582   3.501 -0.0899  0.1292  0.2314
 3155TIP3    H1 9471   2.629   2.645   3.570 -0.8482  1.0024 -0.7911
 3155TIP3    H2 9472   2.589   2.601   3.431 -0.1971 -1.6415 -0.1766
 3156TIP3   OH2 9473   0.063   2.864   3.089  0.2974 -0.4726  0.4108
 3156TIP3    H1 9474  -0.033   2.864   3.097  0.3319  0.7661  1.1774
 3156TIP3    H2 9475   0.080   2.834   3.000 -0.7753 -1.3452  0.4811
 3157TIP3   OH2 9476   2.939   3.505   1.764  0.7963 -0.5225  0.2517
 3157TIP3    H1 9477   2.978   3.534   1.847 -0.1057 -0.8499  0.8058
 3157TIP3    H2 9478   2.929   3.411   1.775 -0.3728 -0.4125  0.2276
 3158TIP3   OH2 9479   1.756   0.761   2.280 -0.5631 -0.0105 -0.2683
 3158TIP3    H1 9480   1.675   0.750   2.331 -0.5235  1.5166  0.1785
 3158TIP3    H2 9481   1.766   0.856   2.271  0.5333 -0.2013 -1.3883
 3159TIP3   OH2 9482   0.631   2.271   4.156 -0.1557  0.4336 -0.1689
 3159TIP3    H1 9483   0.635   2.298   4.248 -0.7669  2.6432 -0.7451
 3159TIP3    H2 9484   0.538   2.257   4.140 -0.2231  1.5409 -0.8279
 3160TIP3   OH2 9485   6.175   1.737   4.764 -0.0262 -0.1611  0.8546
 3160TIP3    H1 9486   6.122   1.744   4.684  1.5714 -2.2057 -0.4875
 3160TIP3    H2 9487   6.195   1.828   4.786 -1.3016  0.5129 -0.4941
 3161TIP3   OH2 9488   3.021   1.654   0.826  0.2485  0.1269 -0.1390
 3161TIP3    H1 9489   3.006   1.740   0.785  0.7770  0.1233 -0.3457
 3161TIP3    H2 9490   3.090   1.614   0.773 -2.8866 -2.2695 -2.7900
 3162TIP3   OH2 9491   5.815   0.798   0.875  0.7010  0.2621  0.1469
 3162TIP3    H1 9492   5.737   0.854   0.881  0.7448  0.2000  1.6910
 3162TIP3    H2 9493   5.788   0.716   0.917  0.9777 -0.5166 -1.1383
 3163TIP3   OH2 9494   1.464   3.523   0.079  0.8762  0.6360 -0.2154
 3163TIP3    H1 9495   1.458   3.619   0.070  1.6966  0.8053  0.9080
 3163TIP3    H2 9496   1.547   3.508   0.125  1.6960 -0.7296 -1.9929
 3164TIP3   OH2 9497   2.641   0.606   0.419  0.2301  0.0350  0.0809
 3164TIP3    H1 9498   2.622   0.514   0.400 -1.2701 -0.1089  1.9296
 3164TIP3    H2 9499   2.571   0.633   0.479  1.4174  1.9715  0.6937
 3165TIP3   OH2 9500   3.558   0.128   4.729  0.1900  0.1758  0.2165
 3165TIP3    H1 9501   3.491   0.110   4.794 -1.6988 -1.0817 -1.9295
 3165TIP3    H2 9502   3.542   0.218   4.702  1.1063  0.7655  1.5792
 3166TIP3   OH2 9503   4.841   3.645   2.104  0.1944 -0.6346  0.3839
 3166TIP3    H1 9504   4.900   3.713   2.136  1.3568 -1.7016  0.5928
 3166TIP3    H2 9505   4.762   3.654   2.157  0.3556  0.5016  0.4438
 3167TIP3   OH2 9506   3.670   4.888   4.992 -0.3912 -0.1306 -0.1461
 3167TIP3    H1 9507   3.620   4.825   4.941 -2.1224  1.2826 -0.2976
 3167TIP3    H2 9508   3.752   4.900   4.944  0.9519 -3.7191  0.9554
 3168TIP3   OH2 9509   1.136   2.000   0.431 -0.0189  0.0625  0.2476
 3168TIP3    H1 9510   1.056   2.043   0.462  0.9792  1.0323  1.6208
 3168TIP3    H2 9511   1.126   1.909   0.457  0.5656  0.7433  3.2114
 3169TIP3   OH2 9512   5.730   5.573   4.680 -0.1517  0.1618 -0.6368
 3169TIP3    H1 9513   5.762   5.658   4.710  1.0458 -0.4591 -0.0429
 3169TIP3    H2 9514   5.649   5.559   4.729  0.6851  0.0994  0.7810
 3170TIP3   OH2 9515   2.131   2.106   0.945  0.1219  0.4046 -0.4410
 3170TIP3    H1 9516   2.082   2.108   0.863  0.2729  1.1577 -0.5230
 3170TIP3    H2 9517   2.090   2.174   0.999  0.7529  0.6979 -0.3215
 3171TIP3   OH2 9518   0.705   3.124   0.806  0.2962 -0.3526  0.4643
 3171TIP3    H1 9519   0.784   3.177   0.803  0.3639 -0.5082 -1.1233
 3171TIP3    H2 9520   0.635   3.187   0.825  0.7985 -0.2530  2.1372
 3172TIP3   OH2 9521   2.093   2.272   2.723  0.0688 -0.0030  0.2559
 3172TIP3    H1 9522   2.024   2.206   2.715  1.0754 -0.9171 -1.3244
 3172TIP3    H2 9523   2.153   2.236   2.789 -0.7184  0.6234  1.3596
 3173TIP3   OH2 9524   5.547   2.463   1.626 -0.1368  0.0123 -0.2114
 3173TIP3    H1 9525   5.579   2.418   1.548  0.8607  0.9430 -0.3724
 3173TIP3    H2 9526   5.452   2.463   1.617 -0.2059 -2.2185 -0.0824
 3174TIP3   OH2 9527   1.432   5.881   2.373 -0.1777 -0.4450 -0.3615
 3174TIP3    H1 9528   1.401   5.912   2.288 -2.0731 -1.5395 -0.1343
 3174TIP3    H2 9529   1.431   5.959   2.429  2.3149  0.5727 -1.5780
 3175TIP3   OH2 9530   3.240   1.690   2.704 -0.1285 -0.0261 -0.4420
 3175TIP3    H1 9531   3.323   1.690   2.656 -1.7593 -0.2798 -3.5508
 3175TIP3    H2 9532   3.175   1.715   2.638 -2.5208  0.4385  1.9202
 3176TIP3   OH2 9533   4.270   1.831   4.034  0.1208  0.0424  0.0765
 3176TIP3    H1 9534   4.257   1.913   4.082  2.2207 -0.2253  1.2284
 3176TIP3    H2 9535   4.327   1.778   4.091 -1.6660 -2.5194 -0.3244
 3177TIP3   OH2 9536   3.057   5.257   3.475  0.3001  0.1938 -0.1521
 3177TIP3    H1 9537   3.042   5.183   3.415 -1.2306 -0.4633  0.9890
 3177TIP3    H2 9538   2.980   5.312   3.465 -0.1816 -0.1372  1.4797
 3178TIP3   OH2 9539   1.930   2.338   3.797 -0.1168  0.2524 -0.0815
 3178TIP3    H1 9540   1.857   2.281   3.820  1.1929 -1.0152  1.1985
 3178TIP3    H2 9541   1.890   2.423   3.779 -1.9472 -0.5628 -0.0706
 3179TIP3   OH2 9542   2.038   3.648   3.361  0.0955  0.2052  0.8398
 3179TIP3    H1 9543   2.054   3.555   3.378  0.0990 -0.0035 -0.1920
 3179TIP3    H2 9544   1.956   3.667   3.407 -0.5815 -0.6476  0.0322
 3180TIP3   OH2 9545   5.756   5.834   2.277 -0.0712  0.0207 -0.1610
 3180TIP3    H1 9546   5.708   5.912   2.304  1.9849  1.7083 -1.0311
 3180TIP3    H2 9547   5.843   5.867   2.254 -0.0387 -2.0270 -3.6844
 3181TIP3   OH2 9548   3.728   1.505   1.874 -0.3475 -0.2448 -0.3216
 3181TIP3    H1 9549   3.698   1.590   1.907 -0.4477 -0.2055 -0.5135
 3181TIP3    H2 9550   3.677   1.441   1.925  1.0187 -0.2515  1.1226
 3182TIP3   OH2 9551   6.060   4.939   3.671  0.4257 -0.2898  0.3651
 3182TIP3    H1 9552   5.995   4.880   3.632 -0.0039  0.3019  0.1695
 3182TIP3    H2 9553   6.139   4.886   3.677  1.0899  0.0969 -3.0463
 3183TIP3   OH2 9554   2.583   1.070   1.012  0.3131 -0.4608 -0.6200
 3183TIP3    H1 9555   2.611   1.156   1.044  1.2274 -1.4599  1.4413
 3183TIP3    H2 9556   2.509   1.089   0.955  2.5708  1.9824 -3.0296
 3184TIP3   OH2 9557   3.713   3.255   1.333 -0.2866 -0.1923 -0.4338
 3184TIP3    H1 9558   3.683   3.165   1.342 -1.1129  0.2295  1.4730
 3184TIP3    H2 9559   3.683   3.299   1.413  0.4959  1.6639 -1.0976
 3185TIP3   OH2 9560   2.660   0.397   1.964 -0.9127 -0.4770  0.4696
 3185TIP3    H1 9561   2.704   0.472   2.005 -0.7066  0.1756 -0.9118
 3185TIP3    H2 9562   2.683   0.323   2.020 -1.1930  0.4851  1.9216
 3186TIP3   OH2 9563   4.220   0.799   4.189  0.1080 -0.0074 -0.5440
 3186TIP3    H1 9564   4.220   0.759   4.276  2.1400  0.8631 -0.0898
 3186TIP3    H2 9565   4.301   0.849   4.185 -0.6855  1.2666 -2.3737
 3187TIP3   OH2 9566   3.074   2.513   2.588  0.0980 -0.5043  1.0108
 3187TIP3    H1 9567   2.992   2.557   2.610 -0.6334 -1.2987 -0.0442
 3187TIP3    H2 9568   3.142   2.569   2.626 -0.5586  2.9559 -2.2845
 3188TIP3   OH2 9569   6.123   0.251   1.912  0.0344  0.5009 -0.0935
 3188TIP3    H1 9570   6.140   0.333   1.958  1.2275 -0.0314  0.4540
 3188TIP3    H2 9571   6.102   0.277   1.823 -2.7953  1.5855  0.7935
 3189TIP3   OH2 9572   4.598   5.585   2.838 -0.0708  0.1442  0.5513
 3189TIP3    H1 9573   4.680   5.563   2.882 -0.3395 -2.2462  0.0273
 3189TIP3    H2 9574   4.613   5.562   2.746 -1.2928 -0.3742  0.4530
 3190TIP3   OH2 9575   4.257   3.187   4.036  0.1863  0.3623  0.1075
 3190TIP3    H1 9576   4.169   3.225   4.029  0.1156  0.7656  2.3405
 3190TIP3    H2 9577   4.282   3.167   3.946 -2.6889 -0.9340 -0.5365
 3191TIP3   OH2 9578   2.641   0.553   4.724 -0.3303 -0.0183 -0.5428
 3191TIP3    H1 9579   2.587   0.474   4.713  0.2176 -0.4177 -0.4126
 3191TIP3    H2 9580   2.726   0.528   4.689  0.6386 -0.3807  1.9180
 3192TIP3   OH2 9581   0.144   1.318   0.319 -0.1036 -0.2478 -0.7407
 3192TIP3    H1 9582   0.229   1.362   0.309 -0.6784  0.4588 -2.9267
 3192TIP3    H2 9583   0.139   1.258   0.244 -0.6702 -1.8479  0.5144
 3193TIP3   OH2 9584   4.598   0.722   4.722 -0.2416 -0.4404 -0.3611
 3193TIP3    H1 9585   4.535   0.781   4.681 -0.2503 -1.1035 -1.3521
 3193TIP3    H2 9586   4.665   0.779   4.759 -0.7835  0.2222 -0.4078
 3194TIP3   OH2 9587   1.168   1.006   2.354  0.4485 -0.5223  0.0577
 3194TIP3    H1 9588   1.164   0.978   2.263  0.8270  0.2831 -0.2189
 3194TIP3    H2 9589   1.148   0.927   2.404 -4.0523 -0.1216 -0.7436
 3195TIP3   OH2 9590   0.126   1.859   0.730 -0.2547 -0.0683  0.4229
 3195TIP3    H1 9591   0.085   1.774   0.713  0.1956 -0.1611 -0.2390
 3195TIP3    H2 9592   0.055   1.922   0.719 -1.1259 -0.4864  3.0697
 3196TIP3   OH2 9593   5.708   0.313   4.700  0.3991 -0.2051  0.6600
 3196TIP3    H1 9594   5.681   0.397   4.664 -0.2709 -0.6441  0.1138
 3196TIP3    H2 9595   5.803   0.316   4.701  0.3832  0.4580  0.4173
 3197TIP3   OH2 9596   5.749   5.741   1.245 -0.3064  0.1336  0.4605
 3197TIP3    H1 9597   5.712   5.743   1.157 -0.9014  1.0202  0.7299
 3197TIP3    H2 9598   5.754   5.647   1.266 -4.1850 -0.0661  1.1555
 3198TIP3   OH2 9599   3.974   1.710   1.033 -0.0676  0.3222  0.0341
 3198TIP3    H1 9600   4.052   1.663   1.065 -0.7674  0.2519  1.7572
 3198TIP3    H2 9601   3.906   1.690   1.098 -1.6589  0.0717 -1.6190
 3199TIP3   OH2 9602   2.155   2.337   2.467 -0.2784  0.4176 -0.0129
 3199TIP3    H1 9603   2.171   2.429   2.446  0.3609  0.1506 -0.7859
 3199TIP3    H2 9604   2.149   2.334   2.562 -0.0338  1.2175  0.0322
 3200TIP3   OH2 9605   2.978   5.501   0.492  0.5094 -0.2315 -0.1281
 3200TIP3    H1 9606   2.957   5.552   0.414  2.9349 -0.4641 -1.0027
 3200TIP3    H2 9607   2.910   5.433   0.496 -1.8780  1.9915  0.1892
 3201TIP3   OH2 9608   3.893   1.483   3.453  0.3565 -0.3461 -0.0285
 3201TIP3    H1 9609   3.925   1.520   3.535 -0.6050  0.5770 -0.0387
 3201TIP3    H2 9610   3.818   1.430   3.478  0.1823 -0.2236 -0.2850
 3202TIP3   OH2 9611   4.678   4.875   4.842  0.3917  0.6275  0.1414
 3202TIP3    H1 9612   4.676   4.970   4.851  0.3860  0.6551 -0.1341
 3202TIP3    H2 9613   4.587   4.848   4.856  0.1059  0.8083 -1.2440
 3203TIP3   OH2 9614   0.741   1.412   2.785 -0.2649  0.0518  0.3208
 3203TIP3    H1 9615   0.701   1.345   2.730  1.2527  0.9203 -2.0024
 3203TIP3    H2 9616   0.758   1.485   2.726  0.1294  1.6478  2.2952
 3204TIP3   OH2 9617   0.111   0.508   0.224 -0.4888  0.1350  0.4847
 3204TIP3    H1 9618   0.206   0.511   0.233 -0.4329  0.5619 -0.1216
 3204TIP3    H2 9619   0.091   0.418   0.200 -0.2849 -0.0662  1.0632
 3205TIP3   OH2 9620   0.727   5.509   3.705 -0.0311  0.1802  0.6164
 3205TIP3    H1 9621   0.785   5.483   3.633  0.5068 -0.2343  1.1847
 3205TIP3    H2 9622   0.649   5.543   3.662  0.9833  1.6064 -0.1987
 3206TIP3   OH2 9623   1.913   0.972   1.316 -0.2537  0.4368  0.1214
 3206TIP3    H1 9624   1.825   0.981   1.281 -0.6989 -0.1571  1.0556
 3206TIP3    H2 9625   1.917   0.882   1.348  0.3594  0.7595  0.9886
 3207TIP3   OH2 9626   2.898   4.375   2.153 -0.1047 -0.0371 -0.1001
 3207TIP3    H1 9627   2.953   4.428   2.212  0.4538  0.4671 -1.0568
 3207TIP3    H2 9628   2.959   4.339   2.089 -0.8248  0.2363 -0.9626
 3208TIP3   OH2 9629   3.801   1.172   4.733  0.3505  0.7470  0.2797
 3208TIP3    H1 9630   3.729   1.187   4.672 -0.5016 -0.5754  0.9052
 3208TIP3    H2 9631   3.872   1.137   4.679  0.1719  1.1101 -0.1917
 3209TIP3   OH2 9632   1.270   0.770   4.281 -0.1042 -0.8119 -0.3326
 3209TIP3    H1 9633   1.268   0.764   4.186  1.2412  0.6967 -0.5020
 3209TIP3    H2 9634   1.199   0.831   4.303  0.9680  0.5592 -0.5821
 3210TIP3   OH2 9635   2.741   5.359   0.450 -0.3801  0.0203 -0.4490
 3210TIP3    H1 9636   2.718   5.391   0.363 -1.5641  0.3357 -0.0427
 3210TIP3    H2 9637   2.684   5.284   0.464 -0.1288 -0.0890  0.0193
 3211TIP3   OH2 9638   3.912   5.704   3.021 -0.4771 -0.3887  0.3509
 3211TIP3    H1 9639   3.945   5.735   2.936  0.2656 -2.0450 -0.0081
 3211TIP3    H2 9640   3.859   5.776   3.054 -1.7604 -0.1225 -2.0764
 3212TIP3   OH2 9641   5.201   0.232   4.317  0.1633  0.1642  0.0122
 3212TIP3    H1 9642   5.127   0.183   4.281 -1.3980  2.5922 -0.3259
 3212TIP3    H2 9643   5.198   0.317   4.273  2.4365  0.7785  0.8921
 3213TIP3   OH2 9644   3.176   4.275   4.738  0.0615  0.2044  0.2558
 3213TIP3    H1 9645   3.223   4.316   4.666 -0.7590  3.1075  1.2359
 3213TIP3    H2 9646   3.166   4.184   4.711 -1.0373  1.2989 -3.7784
 3214TIP3   OH2 9647   3.099   3.707   5.117  0.8776 -0.3431  0.1952
 3214TIP3    H1 9648   3.150   3.676   5.042 -0.3075 -1.9260 -0.0137
 3214TIP3    H2 9649   3.053   3.629   5.148 -1.3126  0.9717  0.4404
 3215TIP3   OH2 9650   2.038   1.132   4.128  0.1549 -0.2914  0.2645
 3215TIP3    H1 9651   2.120   1.181   4.122  0.8400 -1.2828  1.2224
 3215TIP3    H2 9652   2.042   1.087   4.213 -0.0066 -2.7429 -0.9312
 3216TIP3   OH2 9653   2.470   3.179   4.702  0.4205  0.4660 -0.1138
 3216TIP3    H1 9654   2.442   3.088   4.715 -0.1122  0.7983  1.2779
 3216TIP3    H2 9655   2.544   3.191   4.762  1.5611  0.5154 -1.4686
 3217TIP3   OH2 9656   5.025   0.966   3.326  0.3679  0.2914 -0.3048
 3217TIP3    H1 9657   4.986   0.899   3.271  1.1685 -0.0843 -0.4286
 3217TIP3    H2 9658   5.087   1.011   3.269  1.4241 -0.2973  0.3305
 3218TIP3   OH2 9659   0.723   0.985   0.424  0.1762  0.5406  0.6078
 3218TIP3    H1 9660   0.725   1.030   0.340 -0.1675 -0.3791  0.0990
 3218TIP3    H2 9661   0.800   1.017   0.470 -0.0310  1.6174  0.2526
 3219TIP3   OH2 9662   5.492   2.708   3.598  0.0725  0.4668  0.0771
 3219TIP3    H1 9663   5.424   2.717   3.532  0.2703  1.4496 -0.0046
 3219TIP3    H2 9664   5.478   2.781   3.658  1.2230  0.8697 -0.1050
 3220TIP3   OH2 9665   0.633   1.600   4.862 -0.3551  0.5285  0.4115
 3220TIP3    H1 9666   0.601   1.671   4.917 -0.9477 -0.1428  0.9528
 3220TIP3    H2 9667   0.633   1.523   4.920 -0.0949  0.0092 -0.2682
 3221TIP3   OH2 9668   3.227   3.272   4.500  0.1149 -0.2118  0.6905
 3221TIP3    H1 9669   3.290   3.343   4.509  0.5038 -0.2378 -1.2783
 3221TIP3    H2 9670   3.151   3.313   4.457 -0.3799 -0.6297  1.1488
 3222TIP3   OH2 9671   6.311   4.038   2.114 -0.8592  0.0363 -0.4149
 3222TIP3    H1 9672   6.230   4.058   2.068 -1.1558  0.3747  0.2445
 3222TIP3    H2 9673   6.338   3.953   2.079  0.1186  1.2442 -2.8551
 3223TIP3   OH2 9674   5.670   0.155   2.216  0.0516  0.7786  0.0065
 3223TIP3    H1 9675   5.755   0.195   2.232  1.0443 -1.2202  0.0337
 3223TIP3    H2 9676   5.673   0.126   2.125  0.0754 -0.7460  0.4603
 3224TIP3   OH2 9677   5.793   2.193   0.584 -0.3128  0.5520 -0.1136
 3224TIP3    H1 9678   5.835   2.223   0.664  0.0017 -1.9386  0.7349
 3224TIP3    H2 9679   5.703   2.225   0.591 -0.2678  0.4375  1.2054
 3225TIP3   OH2 9680   5.426   3.226   1.133 -0.4262 -0.6233 -0.0446
 3225TIP3    H1 9681   5.399   3.230   1.041  2.9070  1.3220 -1.0693
 3225TIP3    H2 9682   5.422   3.316   1.163 -0.0919 -1.0381  1.2961
 3226TIP3   OH2 9683   0.443   3.005   3.017 -0.0329  0.7092  0.4211
 3226TIP3    H1 9684   0.468   2.943   2.948  0.5485  0.6005  0.7317
 3226TIP3    H2 9685   0.418   3.084   2.969  1.7572  1.1325  0.1255
 3227TIP3   OH2 9686   5.342   4.161   1.772  0.2571  0.7933  0.2694
 3227TIP3    H1 9687   5.246   4.159   1.768  0.3026 -0.4241 -0.7876
 3227TIP3    H2 9688   5.361   4.231   1.835 -1.3187  0.9273  0.6601
 3228TIP3   OH2 9689   5.222   3.727   1.537 -0.4552  0.6253 -0.6351
 3228TIP3    H1 9690   5.155   3.795   1.540  0.1616  1.2072  1.7087
 3228TIP3    H2 9691   5.291   3.757   1.596  1.6849 -0.2076 -2.5674
 3229TIP3   OH2 9692   2.526   5.940   3.431  0.4795 -0.8965  0.7413
 3229TIP3    H1 9693   2.437   5.964   3.405  1.0591 -0.8664 -1.4233
 3229TIP3    H2 9694   2.524   5.941   3.527 -1.8639 -1.0068  0.7562
 3230TIP3   OH2 9695   3.388   1.608   4.304  0.2966  0.4121 -0.7484
 3230TIP3    H1 9696   3.417   1.593   4.214  1.5272  0.6622 -0.4147
 3230TIP3    H2 9697   3.317   1.671   4.296 -1.7524 -1.8606 -1.7782
 3231TIP3   OH2 9698   2.518   5.024   3.584 -1.0976 -0.4299 -0.2628
 3231TIP3    H1 9699   2.583   4.955   3.577  0.4988  0.5838  2.7477
 3231TIP3    H2 9700   2.515   5.064   3.498  1.6482 -1.0769 -0.7340
 3232TIP3   OH2 9701   4.407   1.422   0.615 -0.9104  0.1716 -0.0536
 3232TIP3    H1 9702   4.342   1.374   0.564  0.5423 -3.0004  0.7765
 3232TIP3    H2 9703   4.410   1.376   0.699  0.0244  2.3346  1.1734
 3233TIP3   OH2 9704   2.288   2.951   2.778  0.0716 -0.0548 -0.2743
 3233TIP3    H1 9705   2.269   2.861   2.803  2.5405 -0.9829 -1.3940
 3233TIP3    H2 9706   2.264   2.956   2.685  0.5663  0.2123 -0.3935
 3234TIP3   OH2 9707   6.328   5.210   3.170  0.1819  0.4931 -0.4949
 3234TIP3    H1 9708   6.402   5.257   3.207  0.8996 -0.3704 -0.7965
 3234TIP3    H2 9709   6.278   5.276   3.122 -0.0876  1.3848  0.9553
 3235TIP3   OH2 9710   2.085   1.538   0.679  0.0396  0.5946  0.2836
 3235TIP3    H1 9711   2.061   1.454   0.719  0.1217  0.7836  0.7354
 3235TIP3    H2 9712   2.161   1.568   0.730  0.7047  0.4124 -0.5862
 3236TIP3   OH2 9713   4.520   1.760   3.445  0.1619 -0.1696  0.3514
 3236TIP3    H1 9714   4.524   1.855   3.432 -0.8517 -0.2504 -0.7294
 3236TIP3    H2 9715   4.554   1.723   3.364  2.3027 -0.7697  1.4590
 3237TIP3   OH2 9716   5.367   2.242   0.011  0.7583 -0.1764  0.7455
 3237TIP3    H1 9717   5.414   2.298   0.073  0.2634 -0.2442  1.1855
 3237TIP3    H2 9718   5.279   2.278   0.006  1.1800  0.7093 -1.0532
 3238TIP3   OH2 9719   3.116   0.545   0.941  0.3653  0.2575  0.7231
 3238TIP3    H1 9720   3.183   0.481   0.917  0.2379 -0.1196  1.3711
 3238TIP3    H2 9721   3.068   0.504   1.013 -1.0358  0.2094 -0.2011
 3239TIP3   OH2 9722   2.026   5.826   1.941 -0.0025  0.0811 -0.4544
 3239TIP3    H1 9723   1.955   5.867   1.990  0.4841 -0.3744  0.6641
 3239TIP3    H2 9724   2.075   5.899   1.903  0.0061  0.4792  0.3119
 3240TIP3   OH2 9725   1.916   4.142   2.488  0.0400  0.8531 -0.1517
 3240TIP3    H1 9726   1.967   4.221   2.473 -0.5611  1.0944 -1.0223
 3240TIP3    H2 9727   1.856   4.165   2.558  0.0868  1.0618 -0.1793
 3241TIP3   OH2 9728   1.440   2.962   3.608  0.2463 -0.0345 -0.2818
 3241TIP3    H1 9729   1.462   2.870   3.620  2.4352  0.3455 -0.9446
 3241TIP3    H2 9730   1.481   3.006   3.683  0.3946  0.5299 -0.6864
 3242TIP3   OH2 9731   3.584   0.168   3.550 -0.1387 -0.6137  0.4909
 3242TIP3    H1 9732   3.518   0.214   3.497 -1.8988 -0.1108  2.9582
 3242TIP3    H2 9733   3.594   0.083   3.506  0.3577  0.6620 -2.0140
 3243TIP3   OH2 9734   2.845   3.987   0.566  0.7561 -0.3846 -0.1675
 3243TIP3    H1 9735   2.845   3.924   0.638  0.5523  0.4814  0.6112
 3243TIP3    H2 9736   2.823   4.071   0.607  0.8546  0.1713 -1.2048
 3244TIP3   OH2 9737   5.919   1.685   0.843  0.2894  0.2390 -0.1277
 3244TIP3    H1 9738   5.830   1.674   0.811  0.8039 -0.5823 -1.3923
 3244TIP3    H2 9739   5.926   1.625   0.918  0.2625 -1.0508 -1.1078
 3245TIP3   OH2 9740   0.063   0.848   2.964 -0.7552  0.0206 -0.2828
 3245TIP3    H1 9741   0.124   0.833   3.036 -1.4463 -2.0715 -0.0707
 3245TIP3    H2 9742   0.005   0.917   2.997  0.6349  1.1064  0.0172
 3246TIP3   OH2 9743   3.380   1.197   1.851 -0.0650  0.2613 -0.1371
 3246TIP3    H1 9744   3.321   1.132   1.814  1.2087 -1.1027  0.1512
 3246TIP3    H2 9745   3.360   1.278   1.803 -0.8926 -0.6052 -1.2972
 3247TIP3   OH2 9746   0.960   1.213   5.084  0.3849 -0.1428 -0.5322
 3247TIP3    H1 9747   0.996   1.237   4.998  0.8255  0.2033 -0.2561
 3247TIP3    H2 9748   0.907   1.288   5.110 -0.1204 -0.4365 -0.7019
 3248TIP3   OH2 9749   0.479   0.093   0.485  0.6119  0.0786 -0.0942
 3248TIP3    H1 9750   0.550   0.109   0.547 -1.4745 -0.1734  2.5251
 3248TIP3    H2 9751   0.500   0.008   0.446  2.3564  0.5864 -0.3188
 3249TIP3   OH2 9752   1.761   5.344   3.682 -0.6112  0.2772  0.1818
 3249TIP3    H1 9753   1.699   5.412   3.655  0.9249  1.5961 -0.1609
 3249TIP3    H2 9754   1.808   5.382   3.756 -0.3156 -0.7732  0.5544
 3250TIP3   OH2 9755   2.856   4.459   4.910  0.7254 -0.0908 -0.1699
 3250TIP3    H1 9756   2.810   4.391   4.961  1.5513  0.5595  1.5073
 3250TIP3    H2 9757   2.940   4.419   4.887  1.4214  0.4904  1.2519
 3251TIP3   OH2 9758   1.821   0.553   3.849 -0.0607 -0.5899  0.3622
 3251TIP3    H1 9759   1.794   0.632   3.896 -0.9115 -1.5807  1.5903
 3251TIP3    H2 9760   1.744   0.496   3.850  0.3585 -1.2314 -0.9956
 3252TIP3   OH2 9761   1.935   3.874   2.018 -0.3155 -0.5435 -0.2700
 3252TIP3    H1 9762   1.845   3.842   2.026  0.2845 -2.1486  0.4060
 3252TIP3    H2 9763   1.958   3.857   1.927 -0.3563 -1.1338 -0.1773
 3253TIP3   OH2 9764   3.681   1.745   1.688  0.3187 -0.6198  0.6619
 3253TIP3    H1 9765   3.609   1.799   1.722  0.0383  0.7257 -1.7728
 3253TIP3    H2 9766   3.640   1.661   1.668 -0.5201 -0.0480 -0.1766
 3254TIP3   OH2 9767   0.240   3.171   2.479  0.3417  0.8907 -0.0869
 3254TIP3    H1 9768   0.229   3.266   2.489  0.2787  0.8588  0.1564
 3254TIP3    H2 9769   0.222   3.154   2.387 -0.2427  1.0357  0.0004
 3255TIP3   OH2 9770   5.741   2.599   0.992 -0.4042  0.2687 -0.3029
 3255TIP3    H1 9771   5.736   2.672   0.931 -1.0628 -0.0960 -0.6937
 3255TIP3    H2 9772   5.654   2.595   1.032 -0.1117  0.2343  0.3430
 3256TIP3   OH2 9773   4.244   0.121   3.459  0.0362  0.2089 -0.3488
 3256TIP3    H1 9774   4.301   0.194   3.435 -1.5082  1.1580 -1.3331
 3256TIP3    H2 9775   4.230   0.074   3.377 -0.6448  0.0329 -0.1380
 3257TIP3   OH2 9776   0.764   3.872   3.397  0.1159  0.0558  0.0196
 3257TIP3    H1 9777   0.844   3.843   3.440  0.7569  1.3029 -0.2957
 3257TIP3    H2 9778   0.766   3.829   3.311  0.0551 -0.5041  0.2924
 3258TIP3   OH2 9779   5.540   3.667   3.076 -0.1129  0.1972  0.2989
 3258TIP3    H1 9780   5.599   3.644   3.148  0.0328 -1.9735 -0.4150
 3258TIP3    H2 9781   5.464   3.706   3.118  1.8594  3.3887  1.2254
 3259TIP3   OH2 9782   6.133   2.111   4.187  0.5666 -0.0537 -0.6821
 3259TIP3    H1 9783   6.118   2.048   4.116  0.5174 -1.0606  0.1996
 3259TIP3    H2 9784   6.201   2.169   4.154  1.5743 -1.3877 -1.0130
 3260TIP3   OH2 9785   1.294   4.359   1.036 -0.0609 -0.4810  0.4210
 3260TIP3    H1 9786   1.371   4.358   1.093  0.9073  0.1305 -0.8397
 3260TIP3    H2 9787   1.300   4.278   0.985  0.3624  0.1039 -0.4677
 3261TIP3   OH2 9788   5.414   5.248   0.747 -0.5162 -0.3283  0.2043
 3261TIP3    H1 9789   5.406   5.181   0.678  0.7608 -0.5468  0.2419
 3261TIP3    H2 9790   5.474   5.209   0.810 -0.3658  0.5541  0.6101
 3262TIP3   OH2 9791   1.797   5.766   1.398 -0.3208  0.2328  0.7096
 3262TIP3    H1 9792   1.798   5.850   1.352 -1.7157 -0.2528 -0.2713
 3262TIP3    H2 9793   1.850   5.780   1.476 -0.0906  1.8612  0.2802
 3263TIP3   OH2 9794   3.099   0.798   0.326  0.1501 -0.8786  0.1126
 3263TIP3    H1 9795   3.038   0.868   0.302  0.1730 -0.7953  0.2883
 3263TIP3    H2 9796   3.059   0.758   0.403 -0.7737 -2.2429 -1.0441
 3264TIP3   OH2 9797   0.071   2.432   4.861 -0.7325  0.0168  0.0075
 3264TIP3    H1 9798   0.020   2.389   4.929  1.5924 -0.8116  1.3522
 3264TIP3    H2 9799   0.103   2.360   4.806 -1.0300  0.5136 -0.8283
 3265TIP3   OH2 9800   4.816   3.792   1.669  0.4494  0.1290  0.1550
 3265TIP3    H1 9801   4.878   3.727   1.703  0.2517 -0.2488 -0.1873
 3265TIP3    H2 9802   4.737   3.780   1.722  0.0015 -0.7360 -0.6665
 3266TIP3   OH2 9803   4.001   0.036   1.299 -0.0711 -0.8519 -0.1214
 3266TIP3    H1 9804   4.072   0.046   1.362 -0.2136  1.4025 -0.2323
 3266TIP3    H2 9805   4.043   0.046   1.213 -0.7166  2.9208 -0.1421
 3267TIP3   OH2 9806   1.446   4.004   4.317  0.3233  0.0145 -0.0532
 3267TIP3    H1 9807   1.387   3.930   4.334 -0.6762  0.6188 -0.7701
 3267TIP3    H2 9808   1.469   4.037   4.404  2.1069 -2.1043  0.3649
 3268TIP3   OH2 9809   5.942   4.847   4.998 -0.0590  0.1282  0.5648
 3268TIP3    H1 9810   5.979   4.783   5.059 -2.4470  1.7855  4.0967
 3268TIP3    H2 9811   5.992   4.927   5.015  0.3326  0.2436 -0.9812
 3269TIP3   OH2 9812   2.282   0.649   4.411  0.3523 -0.2468 -0.4800
 3269TIP3    H1 9813   2.236   0.634   4.493  0.6112  2.2468  0.1840
 3269TIP3    H2 9814   2.373   0.628   4.431  0.6241  1.4850  0.2850
 3270TIP3   OH2 9815   5.888   1.722   4.333 -0.2105  0.3350 -0.1451
 3270TIP3    H1 9816   5.887   1.809   4.293 -0.2152  0.6440  0.5201
 3270TIP3    H2 9817   5.801   1.687   4.314 -2.0751  2.3536  3.5767
 3271TIP3   OH2 9818   5.003   3.331   2.629 -0.6804 -0.3283  0.4103
 3271TIP3    H1 9819   4.933   3.325   2.563  0.3747  1.1673 -0.9189
 3271TIP3    H2 9820   5.078   3.367   2.581  0.9246 -1.5876  1.8751
 3272TIP3   OH2 9821   3.844   4.151   2.932  0.0816 -0.0533 -0.0659
 3272TIP3    H1 9822   3.794   4.168   2.852 -0.1269 -1.1644 -0.1988
 3272TIP3    H2 9823   3.802   4.206   2.998 -2.3119 -1.9647  0.1593
 3273TIP3   OH2 9824   2.608   2.383   3.781 -0.2195  0.0716 -0.1018
 3273TIP3    H1 9825   2.526   2.431   3.773 -0.3299 -0.4172 -2.5398
 3273TIP3    H2 9826   2.674   2.451   3.798 -0.6945  0.8414 -1.2438
 3274TIP3   OH2 9827   1.840   4.559   4.439  0.0108  0.9570  0.0907
 3274TIP3    H1 9828   1.835   4.621   4.366  0.5797  0.2397 -0.5793
 3274TIP3    H2 9829   1.906   4.597   4.498  2.2832 -0.2040 -1.5486
 3275TIP3   OH2 9830   0.863   5.825   4.831  0.6897  0.5723 -0.1032
 3275TIP3    H1 9831   0.947   5.848   4.871  1.3320 -1.0177 -0.4602
 3275TIP3    H2 9832   0.886   5.771   4.756 -0.6094  1.4687 -1.1796
 3276TIP3   OH2 9833   1.020   4.159   3.909 -0.1333  0.3208 -0.0904
 3276TIP3    H1 9834   1.031   4.080   3.962  0.0750  0.7824  0.5719
 3276TIP3    H2 9835   0.965   4.216   3.962  1.4488  1.4654  0.3926
 3277TIP3   OH2 9836   4.913   5.008   3.483  0.0713  0.4735 -0.0591
 3277TIP3    H1 9837   4.897   5.096   3.450 -0.1982  0.1672 -0.7797
 3277TIP3    H2 9838   4.997   4.983   3.445  1.2425  1.2222  1.8939
 3278TIP3   OH2 9839   5.099   5.070   0.746 -0.1957  0.4782  0.9507
 3278TIP3    H1 9840   5.059   5.156   0.733 -0.1532  0.3050 -0.4042
 3278TIP3    H2 9841   5.182   5.074   0.699 -0.0304 -0.1943  1.1762
 3279TIP3   OH2 9842   0.958   5.542   2.394 -0.1967 -0.3411  0.3416
 3279TIP3    H1 9843   0.964   5.617   2.334 -0.0307 -0.4057  0.2776
 3279TIP3    H2 9844   0.879   5.495   2.365  0.5662 -1.0682 -0.6365
 3280TIP3   OH2 9845   4.747   2.703   3.871  0.5509  0.5664  0.2891
 3280TIP3    H1 9846   4.745   2.789   3.913 -1.1434  0.4598  0.4955
 3280TIP3    H2 9847   4.768   2.721   3.779 -1.4429  1.3958 -0.0373
 3281TIP3   OH2 9848   0.467   0.573   2.443 -0.0111  0.3834 -0.2123
 3281TIP3    H1 9849   0.469   0.661   2.406  0.9338  0.4795  0.0243
 3281TIP3    H2 9850   0.523   0.521   2.384 -1.4389 -0.3319 -0.9821
 3282TIP3   OH2 9851   3.774   0.867   1.444  0.1492  0.1583  0.4419
 3282TIP3    H1 9852   3.833   0.896   1.374 -1.0488  1.3497 -0.1097
 3282TIP3    H2 9853   3.691   0.851   1.401 -0.5933  0.8312  1.5682
 3283TIP3   OH2 9854   1.718   5.469   1.462 -0.7981  0.3577 -0.3073
 3283TIP3    H1 9855   1.745   5.549   1.506 -0.1309 -0.2960  0.5014
 3283TIP3    H2 9856   1.622   5.468   1.471 -0.6285 -0.3355  2.2281
 3284TIP3   OH2 9857   1.125   2.987   0.140 -0.5273 -0.0824  0.6752
 3284TIP3    H1 9858   1.046   2.967   0.191 -1.3397  0.4289 -0.3598
 3284TIP3    H2 9859   1.176   2.905   0.142 -0.8226 -0.2586  1.7853
 3285TIP3   OH2 9860   0.163   3.433   5.131 -0.4383  0.2190 -0.0265
 3285TIP3    H1 9861   0.170   3.379   5.053 -0.5776  0.7685 -0.4276
 3285TIP3    H2 9862   0.106   3.384   5.190 -0.5680 -0.0656 -0.3866
 3286TIP3   OH2 9863   0.848   1.018   2.599 -0.7882 -0.4313  0.0884
 3286TIP3    H1 9864   0.873   1.058   2.683  0.2734 -1.8171  0.4728
 3286TIP3    H2 9865   0.895   1.069   2.533 -0.3514 -0.3456  0.4633
 3287TIP3   OH2 9866   5.799   0.134   0.262 -0.0832  0.0840 -0.6046
 3287TIP3    H1 9867   5.773   0.213   0.215  0.5660  0.2638 -0.6642
 3287TIP3    H2 9868   5.879   0.159   0.309 -0.8660 -0.0024  0.8328
 3288TIP3   OH2 9869   0.459   0.024   2.655 -0.1541  0.2685  0.2388
 3288TIP3    H1 9870   0.439  -0.007   2.743  3.5430  1.9077  1.8646
 3288TIP3    H2 9871   0.417   0.109   2.649 -0.1743  0.2786  0.5293
 3289TIP3   OH2 9872   5.662   3.394   0.499  0.0246  0.0427 -0.2332
 3289TIP3    H1 9873   5.662   3.376   0.405 -0.1461 -1.1884 -0.0171
 3289TIP3    H2 9874   5.574   3.370   0.528  0.2476 -0.1207  0.3292
 3290TIP3   OH2 9875   5.935   3.055   5.057 -0.7266  0.1237 -0.1322
 3290TIP3    H1 9876   5.918   3.075   4.965 -0.8944 -1.1953 -0.4131
 3290TIP3    H2 9877   6.023   3.089   5.074 -0.5909  0.1461 -0.8617
 3291TIP3   OH2 9878   3.003   1.869   0.584 -0.4314 -0.0026  0.4885
 3291TIP3    H1 9879   3.079   1.813   0.572 -0.1277  0.9194 -2.5364
 3291TIP3    H2 9880   2.933   1.824   0.536 -0.9286  0.7694  0.4773
 3292TIP3   OH2 9881   1.266   3.538   3.529  0.1614 -0.1590 -0.0706
 3292TIP3    H1 9882   1.272   3.447   3.501  0.8170 -1.1823  2.9978
 3292TIP3    H2 9883   1.335   3.548   3.594 -0.3784  2.3349  0.2284
 3293TIP3   OH2 9884   3.443   4.965   1.027  0.1455  0.4586 -0.0768
 3293TIP3    H1 9885   3.417   4.944   0.937 -2.5038  0.5498  0.5894
 3293TIP3    H2 9886   3.484   5.051   1.020 -0.3640  0.6413 -1.1707
 3294TIP3   OH2 9887   2.941   1.709   2.067  0.2912 -0.4554 -0.0933
 3294TIP3    H1 9888   2.869   1.654   2.037  1.3191 -0.9571 -1.7919
 3294TIP3    H2 9889   2.995   1.652   2.122  1.6847 -1.4400 -2.3387
 3295TIP3   OH2 9890   0.058   0.930   1.880 -0.2508  0.2905  0.0792
 3295TIP3    H1 9891   0.045   1.004   1.939  1.5818  0.4840  0.2909
 3295TIP3    H2 9892   0.077   0.969   1.795  1.5506  0.1050  0.3757
 3296TIP3   OH2 9893   2.233   0.989   0.123 -0.2181 -0.0310 -0.3000
 3296TIP3    H1 9894   2.143   0.960   0.110 -0.3338 -1.0140  2.1267
 3296TIP3    H2 9895   2.282   0.952   0.050 -1.4575 -1.1160 -0.6114
 3297TIP3   OH2 9896   2.044   2.062   0.671  0.1633 -0.1036 -0.2436
 3297TIP3    H1 9897   2.009   2.123   0.607 -0.1458  1.3767  1.2675
 3297TIP3    H2 9898   2.131   2.039   0.637 -0.9260 -1.3454 -2.4179
 3298TIP3   OH2 9899   2.918   4.672   4.321 -0.4532 -0.2624  0.5702
 3298TIP3    H1 9900   2.999   4.719   4.344  1.5896 -3.4178  0.4576
 3298TIP3    H2 9901   2.868   4.669   4.402  0.4612  0.0653  1.1643
 3299TIP3   OH2 9902   3.617   5.276   5.019 -1.1935 -0.7777  0.3259
 3299TIP3    H1 9903   3.542   5.336   5.029 -1.7240 -1.5990  1.4833
 3299TIP3    H2 9904   3.611   5.245   4.929 -0.3908  1.5446 -0.6262
 3300TIP3   OH2 9905   1.894   0.640   0.666  0.0775 -0.0494 -0.1123
 3300TIP3    H1 9906   1.867   0.715   0.614  0.7664 -0.6485 -1.3672
 3300TIP3    H2 9907   1.955   0.676   0.731  2.0406  0.2468 -1.9933
 3301TIP3   OH2 9908   4.199   1.802   4.587 -0.0464 -0.0638  0.4551
 3301TIP3    H1 9909   4.131   1.738   4.566 -0.9444  0.2617  2.2338
 3301TIP3    H2 9910   4.187   1.871   4.521 -0.5998 -0.6017 -0.0270
 3302TIP3   OH2 9911   4.799   1.767   2.881  0.2862 -0.0945  0.4933
 3302TIP3    H1 9912   4.809   1.711   2.958  2.5579 -0.2553  0.1444
 3302TIP3    H2 9913   4.802   1.706   2.807  1.4771  0.3329  0.1654
 3303TIP3   OH2 9914   2.450   3.282   1.145  0.4956  0.1234  0.4763
 3303TIP3    H1 9915   2.525   3.226   1.165  0.2623  0.0884  1.2520
 3303TIP3    H2 9916   2.378   3.248   1.199 -0.2042 -0.1134 -0.5636
 3304TIP3   OH2 9917   4.917   0.412   3.280 -0.1173 -0.5449 -0.3558
 3304TIP3    H1 9918   4.928   0.417   3.185 -1.2204 -0.3423 -0.4882
 3304TIP3    H2 9919   4.865   0.333   3.294  0.8667 -1.1185  0.1743
 3305TIP3   OH2 9920   2.068   2.150   4.292  0.2772  0.2664  0.1654
 3305TIP3    H1 9921   2.148   2.176   4.246  0.2347 -1.6767 -1.1413
 3305TIP3    H2 9922   2.098   2.090   4.360 -0.0708 -0.8508 -0.6394
 3306TIP3   OH2 9923   3.040   5.932   4.830  0.5289 -0.4482  0.0291
 3306TIP3    H1 9924   2.978   6.004   4.844  0.2946 -0.0854 -2.4930
 3306TIP3    H2 9925   2.986   5.858   4.802  1.1378 -0.2709 -1.7144
 3307TIP3   OH2 9926   4.410   1.099   3.322  0.5330  0.4575  0.2836
 3307TIP3    H1 9927   4.381   1.186   3.350  3.6051  1.8349 -0.4172
 3307TIP3    H2 9928   4.373   1.089   3.234  0.2115  1.0773  0.3397
 3308TIP3   OH2 9929   5.165   4.776   3.080  0.2311  0.3250  0.0955
 3308TIP3    H1 9930   5.088   4.825   3.051  0.7651  1.8299  1.0790
 3308TIP3    H2 9931   5.232   4.797   3.015  0.5642  1.2317  0.7157
 3309TIP3   OH2 9932   0.527   3.649   4.763 -0.0098  0.1694 -0.5478
 3309TIP3    H1 9933   0.489   3.735   4.747  2.7704  1.7930  0.8501
 3309TIP3    H2 9934   0.611   3.650   4.717  0.8099 -1.1570  0.7994
 3310TIP3   OH2 9935   4.491   1.651   4.099 -0.2982 -0.4368  0.3650
 3310TIP3    H1 9936   4.540   1.587   4.151  0.9535  0.9528  0.9624
 3310TIP3    H2 9937   4.459   1.601   4.024 -0.8908 -2.1515  1.7001
 3311TIP3   OH2 9938   5.167   2.065   1.747  0.2415  0.6233 -0.4468
 3311TIP3    H1 9939   5.161   2.137   1.809 -0.2689  0.0156  0.2344
 3311TIP3    H2 9940   5.240   2.012   1.778 -1.0299 -0.5829  0.6660
 3312TIP3   OH2 9941   1.954   0.876   3.302 -0.6004  0.1926  0.0530
 3312TIP3    H1 9942   1.948   0.799   3.358 -0.6713  0.1894  0.0416
 3312TIP3    H2 9943   1.865   0.911   3.301 -0.3133  0.9718  1.0363
 3313TIP3   OH2 9944   2.640   4.094   1.189  0.0513  0.0515 -0.3861
 3313TIP3    H1 9945   2.560   4.141   1.168 -0.6636 -1.2504 -0.6674
 3313TIP3    H2 9946   2.677   4.142   1.264 -1.6414 -0.0411  0.5596
 3314TIP3   OH2 9947   1.668   3.259   2.941 -0.9609  0.5800  0.3110
 3314TIP3    H1 9948   1.600   3.306   2.894 -0.5554 -0.4793 -1.4351
 3314TIP3    H2 9949   1.723   3.327   2.980 -0.9649  1.5360 -1.2960
 3315TIP3   OH2 9950   1.317   1.237   2.985 -0.1933  0.3630  0.7442
 3315TIP3    H1 9951   1.326   1.143   3.001 -2.4847  0.3395  2.3522
 3315TIP3    H2 9952   1.298   1.243   2.892  0.7064 -0.6784  0.4633
 3316TIP3   OH2 9953   4.871   2.978   0.811 -0.0980  0.4368 -0.2520
 3316TIP3    H1 9954   4.918   2.970   0.728 -0.6071  0.9316 -0.5931
 3316TIP3    H2 9955   4.804   2.910   0.807  0.2186  0.1002 -0.0025
 3317TIP3   OH2 9956   4.644   2.548   2.813 -0.2448  0.6008  0.3214
 3317TIP3    H1 9957   4.655   2.554   2.719 -2.8050  0.3505 -0.0504
 3317TIP3    H2 9958   4.704   2.614   2.849  0.9653  0.5041 -1.4145
 3318TIP3   OH2 9959   3.465   5.756   3.068  0.5792  0.2837  0.6535
 3318TIP3    H1 9960   3.478   5.851   3.065  0.8448  0.3397  2.4548
 3318TIP3    H2 9961   3.507   5.729   3.150 -0.0731 -1.2948  0.4948
 3319TIP3   OH2 9962   2.015   3.065   4.818  0.0383  0.2074 -0.2840
 3319TIP3    H1 9963   2.064   3.079   4.737  0.5886  0.3808  0.0779
 3319TIP3    H2 9964   1.923   3.080   4.793  0.2050  0.3079 -0.8588
 3320TIP3   OH2 9965   4.857   3.020   2.372  0.4706 -0.3828  0.5606
 3320TIP3    H1 9966   4.952   3.007   2.376  0.4291 -0.2998  3.5045
 3320TIP3    H2 9967   4.842   3.062   2.287  3.1426  0.3562  0.3834
 3321TIP3   OH2 9968   5.546   1.796   2.823 -0.0513 -0.1556  0.4483
 3321TIP3    H1 9969   5.469   1.813   2.770  0.9265  0.3148 -0.8706
 3321TIP3    H2 9970   5.604   1.870   2.805  1.3551 -1.2819  0.1715
 3322TIP3   OH2 9971   1.754   5.479   0.343 -0.3829 -0.1941 -0.0903
 3322TIP3    H1 9972   1.848   5.462   0.344 -0.4734 -0.7031 -0.0132
 3322TIP3    H2 9973   1.730   5.478   0.251 -0.2738  0.1569 -0.1225
 3323TIP3   OH2 9974   5.272   3.511   3.155 -0.2297 -0.2790  0.2449
 3323TIP3    H1 9975   5.320   3.507   3.072  0.7240  0.7832  0.7160
 3323TIP3    H2 9976   5.337   3.540   3.219 -1.1204 -0.3981  1.2381
 3324TIP3   OH2 9977   4.445   2.947   1.725  0.1773  0.7118  0.3929
 3324TIP3    H1 9978   4.365   2.998   1.738 -0.5770  0.0322 -1.2649
 3324TIP3    H2 9979   4.481   2.978   1.642  0.3545 -0.5723 -0.0399
 3325TIP3   OH2 9980   6.210   5.629   4.899  0.1160 -0.0106 -0.4954
 3325TIP3    H1 9981   6.202   5.670   4.985 -1.3950  0.3456 -0.7890
 3325TIP3    H2 9982   6.248   5.543   4.917 -1.6584 -0.5758  0.7111
 3326TIP3   OH2 9983   6.062   5.373   1.071 -0.0918 -0.0031  0.0317
 3326TIP3    H1 9984   6.107   5.292   1.049 -0.0218 -0.3760  1.4223
 3326TIP3    H2 9985   5.971   5.358   1.047  0.1390 -0.0306 -0.8410
 3327TIP3   OH2 9986   5.077   1.704   3.831 -0.2013  0.2415  0.5178
 3327TIP3    H1 9987   5.106   1.627   3.782 -1.7550  0.7368 -1.2934
 3327TIP3    H2 9988   5.129   1.776   3.795  1.0989  0.1198  2.0618
 3328TIP3   OH2 9989   0.116   5.106   2.528 -0.5007 -0.7090  0.7124
 3328TIP3    H1 9990   0.123   5.141   2.617 -0.8459  2.2319 -0.2919
 3328TIP3    H2 9991   0.167   5.025   2.529  0.3009 -0.2469  3.3261
 3329TIP3   OH2 9992   6.064   3.347   3.111 -0.2708  0.1067  0.0122
 3329TIP3    H1 9993   6.057   3.441   3.092  0.4723  0.1559 -0.0300
 3329TIP3    H2 9994   6.083   3.308   3.026  2.5319  0.2667  0.4829
 3330TIP3   OH2 9995   5.637   0.205   2.904 -0.8282  0.2909  0.7956
 3330TIP3    H1 9996   5.701   0.144   2.869 -0.4211 -0.0049  2.0349
 3330TIP3    H2 9997   5.558   0.190   2.851 -1.0875 -2.0768  1.7316
 3331TIP3   OH2 9998   5.863   5.086   2.287 -0.1078  0.5158  0.2718
 3331TIP3    H1 9999   5.807   5.097   2.363 -0.2286  0.2731  0.2213
 3331TIP3    H210000   5.813   5.027   2.230  0.4883 -0.2468  0.5213
 3332TIP3   OH210001   2.582   3.415   2.190  0.2130 -0.1687 -0.5861
 3332TIP3    H110002   2.544   3.469   2.121 -1.1283 -1.5307 -0.9919
 3332TIP3    H210003   2.578   3.325   2.155  0.0206 -0.8204  1.0227
 3333TIP3   OH210004   6.198   5.761   5.125 -0.7321  0.7850  0.3851
 3333TIP3    H110005   6.281   5.809   5.122 -0.4511  0.2637 -0.8764
 3333TIP3    H210006   6.133   5.824   5.094 -0.4974  0.6163 -0.4619
 3334TIP3   OH210007   2.601   2.000   1.191  0.1265 -0.3933 -0.0640
 3334TIP3    H110008   2.639   2.054   1.121 -0.2985 -0.6566 -0.4970
 3334TIP3    H210009   2.639   1.914   1.178  0.6447 -0.2561  0.5042
 3335TIP3   OH210010   0.562   3.430   4.497 -0.2929  0.2202  0.0355
 3335TIP3    H110011   0.507   3.386   4.561 -0.0309 -1.4176 -0.8050
 3335TIP3    H210012   0.646   3.384   4.501 -0.2933  0.0289 -1.5022
 3336TIP3   OH210013   4.028   4.021   4.552 -0.6862 -0.6972 -0.4573
 3336TIP3    H110014   4.031   4.002   4.459 -0.9541 -2.2357 -0.1916
 3336TIP3    H210015   4.034   3.935   4.594  3.5265  0.0896  1.0755
 3337TIP3   OH210016   1.749   5.498   2.983  0.1599  0.5261  0.5658
 3337TIP3    H110017   1.739   5.408   2.952 -0.6444  0.5387  0.7728
 3337TIP3    H210018   1.807   5.539   2.919 -0.1736  0.1032 -0.0142
 3338TIP3   OH210019   5.381   0.187   2.106 -0.0070  0.0654  0.3970
 3338TIP3    H110020   5.476   0.188   2.121  0.2992 -1.8067 -1.0216
 3338TIP3    H210021   5.352   0.102   2.139 -1.2237  0.6342  0.8541
 3339TIP3   OH210022   3.599   5.945   4.420 -0.2136 -0.0306  0.3254
 3339TIP3    H110023   3.535   6.015   4.437  0.9771  1.1263  0.2101
 3339TIP3    H210024   3.637   5.926   4.506 -1.7025 -1.7664  0.6551
 3340TIP3   OH210025   5.371   2.818   1.631 -0.3481 -0.6954 -0.4951
 3340TIP3    H110026   5.338   2.735   1.664  0.3016  0.0125  2.2507
 3340TIP3    H210027   5.449   2.835   1.684 -0.6578  1.7957 -0.7118
 3341TIP3   OH210028   4.134   4.300   1.118  0.4786 -0.3543  0.3630
 3341TIP3    H110029   4.198   4.251   1.067  0.6931 -0.2766  0.5591
 3341TIP3    H210030   4.166   4.390   1.115  1.3789 -0.5904  1.9982
 3342TIP3   OH210031   5.009   0.489   5.094 -0.3007  0.0907 -0.1102
 3342TIP3    H110032   5.015   0.562   5.032 -0.6742  0.0128 -0.2409
 3342TIP3    H210033   4.956   0.424   5.049  0.1856 -0.3391 -0.0652
 3343TIP3   OH210034   3.102   2.074   2.314 -0.1850 -0.3424  0.3525
 3343TIP3    H110035   3.174   2.094   2.374  0.8010  2.6706 -1.6006
 3343TIP3    H210036   3.033   2.136   2.338  0.5543  1.5462 -2.0133
 3344TIP3   OH210037   3.848   3.916   3.272  0.3761  0.4064 -0.1646
 3344TIP3    H110038   3.770   3.882   3.317 -0.0899  0.1851 -1.1153
 3344TIP3    H210039   3.850   3.869   3.189  0.3634  1.8909 -1.0415
 3345TIP3   OH210040   4.300   0.480   1.527  0.1189  0.1278 -0.4446
 3345TIP3    H110041   4.243   0.542   1.483  1.1191  1.8506  0.6077
 3345TIP3    H210042   4.296   0.401   1.472 -0.6866  1.3072 -2.1628
 3346TIP3   OH210043   2.958   0.338   4.873 -0.1671  0.0705  0.5340
 3346TIP3    H110044   2.960   0.432   4.852 -1.0602 -0.3246 -1.5001
 3346TIP3    H210045   3.048   0.317   4.897  0.6526  0.9126 -1.6048
 3347TIP3   OH210046   2.095   1.963   3.988 -0.2615  0.5961  0.0145
 3347TIP3    H110047   2.152   2.039   3.975  1.4123 -0.2678  1.6944
 3347TIP3    H210048   2.099   1.916   3.905  0.2499  1.3509 -0.4021
 3348TIP3   OH210049   1.408   3.670   0.445 -0.3556  0.0025  0.2966
 3348TIP3    H110050   1.395   3.738   0.511 -1.4882  0.7382 -0.6531
 3348TIP3    H210051   1.504   3.660   0.440  0.0951  3.5094 -1.4402
 3349TIP3   OH210052   5.132   4.387   0.829  0.1192  0.2401  0.3615
 3349TIP3    H110053   5.191   4.322   0.867  0.8999  0.3265 -0.6524
 3349TIP3    H210054   5.191   4.453   0.792 -0.6031  0.2285 -0.8551
 3350TIP3   OH210055   3.922   5.634   4.122  0.5369  0.2724 -0.8468
 3350TIP3    H110056   4.004   5.653   4.167 -0.0877  0.1906  0.3683
 3350TIP3    H210057   3.919   5.697   4.049  1.1870  0.9570 -0.2953
 3351TIP3   OH210058   4.329   1.704   1.523 -0.1699  0.2212  0.2595
 3351TIP3    H110059   4.252   1.654   1.548  1.6584 -2.4012  1.0136
 3351TIP3    H210060   4.317   1.790   1.564 -2.4546 -0.2461  0.6744
 3352TIP3   OH210061   5.827   0.953   1.461  0.3701  0.1271  0.5564
 3352TIP3    H110062   5.791   0.866   1.449  1.1910 -0.1378 -0.1382
 3352TIP3    H210063   5.893   0.943   1.530  0.3793  0.2191  0.5612
 3353TIP3   OH210064   4.675   5.715   1.723  0.3104 -0.2727 -0.1000
 3353TIP3    H110065   4.663   5.628   1.762  0.3004  0.2442  1.0611
 3353TIP3    H210066   4.686   5.697   1.629  2.2786 -1.7191  0.3376
 3354TIP3   OH210067   6.269   4.315   4.328  0.2240 -0.0719  0.0837
 3354TIP3    H110068   6.271   4.409   4.313 -0.0936  0.2355  1.8304
 3354TIP3    H210069   6.198   4.283   4.272 -2.7221  1.4089  2.7037
 3355TIP3   OH210070   5.774   4.441   3.676 -0.0374  0.0565 -0.2896
 3355TIP3    H110071   5.740   4.354   3.696  0.6024 -0.7844 -2.5464
 3355TIP3    H210072   5.697   4.498   3.678 -0.1464  0.0847  3.7568
 3356TIP3   OH210073   2.144   0.635   0.215 -0.2774  0.1044  0.2599
 3356TIP3    H110074   2.142   0.685   0.133 -0.3141 -0.3978 -0.0517
 3356TIP3    H210075   2.152   0.544   0.187  2.3516  0.0823  0.8529
 3357TIP3   OH210076   0.637   3.385   4.130 -0.3415 -0.3078  0.2756
 3357TIP3    H110077   0.682   3.448   4.185  2.1783 -1.6620 -0.1005
 3357TIP3    H210078   0.548   3.382   4.165  0.4725  0.7420  2.6236
 3358TIP3   OH210079   4.476   1.553   3.614  0.0850  0.2393  0.4870
 3358TIP3    H110080   4.529   1.554   3.693  0.3557 -0.5708  0.3285
 3358TIP3    H210081   4.517   1.617   3.556 -0.5479  1.3819  1.2551
 3359TIP3   OH210082   2.521   3.437   2.454  0.6781 -0.3989  0.4705
 3359TIP3    H110083   2.515   3.416   2.361  0.0167 -1.5952  0.7692
 3359TIP3    H210084   2.605   3.399   2.481  1.7032  1.4262  0.0251
 3360TIP3   OH210085   1.431   1.058   1.392  0.1690 -0.2053 -0.0560
 3360TIP3    H110086   1.468   0.994   1.330  1.5190  0.6111 -0.1246
 3360TIP3    H210087   1.439   1.015   1.477  1.8571  0.1876  0.0036
 3361TIP3   OH210088   6.032   2.231   0.228 -0.7103  0.4811  0.6287
 3361TIP3    H110089   6.030   2.251   0.134 -1.4822 -1.2131  0.2438
 3361TIP3    H210090   6.010   2.314   0.271 -4.0950  0.4992 -0.8397
 3362TIP3   OH210091   5.857   3.478   1.541  0.3583  0.5083 -0.1111
 3362TIP3    H110092   5.891   3.553   1.590 -0.6959 -0.3927  2.1326
 3362TIP3    H210093   5.764   3.497   1.530 -0.2073 -1.0038  1.6550
 3363TIP3   OH210094   2.440   2.939   3.479 -0.5418  0.1102 -0.9651
 3363TIP3    H110095   2.366   2.909   3.425 -0.6107 -1.0519 -0.2713
 3363TIP3    H210096   2.515   2.938   3.420 -0.5833 -1.3159 -1.0207
 3364TIP3   OH210097   6.049   2.515   0.339 -0.1205  0.0675  0.8095
 3364TIP3    H110098   5.973   2.488   0.391  0.6551 -2.5773  0.7427
 3364TIP3    H210099   6.011   2.551   0.259 -1.2886  1.7606  2.0418
 3365TIP3   OH210100   5.595   4.481   2.780  0.9197 -0.5230  0.1902
 3365TIP3    H110101   5.678   4.438   2.763 -0.6206 -2.6877 -2.9464
 3365TIP3    H210102   5.606   4.570   2.746  1.8419 -0.8994 -0.5247
 3366TIP3   OH210103   3.322   2.051   0.987  0.4552 -0.0997  0.5656
 3366TIP3    H110104   3.324   2.011   0.901  1.5030 -0.2222  0.6343
 3366TIP3    H210105   3.247   2.011   1.031 -1.1662  1.2268 -0.8715
 3367TIP3   OH210106   0.286   4.299   2.274 -0.1425 -0.5810  0.8134
 3367TIP3    H110107   0.226   4.326   2.344  0.2644 -1.9049  1.7076
 3367TIP3    H210108   0.233   4.302   2.195 -0.1811  2.6540  0.8160
 3368TIP3   OH210109   3.147   3.447   2.859  0.1045  0.1108  0.1495
 3368TIP3    H110110   3.076   3.458   2.796 -1.0014  0.7284  1.4507
 3368TIP3    H210111   3.197   3.528   2.853 -1.6444  1.4375  1.9693
 3369TIP3   OH210112   2.308   3.571   0.902 -0.6912 -0.9730  0.6560
 3369TIP3    H110113   2.318   3.596   0.994  0.5874  1.6190 -0.0820
 3369TIP3    H210114   2.238   3.628   0.870  0.1196 -0.5379 -0.3878
 3370TIP3   OH210115   1.319   4.062   1.502  0.3766 -0.1719  0.1013
 3370TIP3    H110116   1.313   4.131   1.569  2.3423  1.4862 -1.3116
 3370TIP3    H210117   1.248   4.081   1.442  0.5754  0.2906  0.0115
 3371TIP3   OH210118   6.004   2.957   0.107  0.0132  0.2612  0.6330
 3371TIP3    H110119   6.072   3.006   0.062 -0.4966 -0.2739 -0.7771
 3371TIP3    H210120   6.022   2.865   0.086 -0.5254  0.0364  1.1196
 3372TIP3   OH210121   0.238   4.160   5.109 -0.3223  0.1653 -0.4050
 3372TIP3    H110122   0.144   4.168   5.126 -0.3164  0.7461 -0.6262
 3372TIP3    H210123   0.259   4.235   5.054  0.0125 -0.6994 -1.4943
 3373TIP3   OH210124   3.433   4.661   4.277  0.7603  0.1508 -0.4128
 3373TIP3    H110125   3.366   4.596   4.259  1.8654 -0.8896 -0.8675
 3373TIP3    H210126   3.394   4.744   4.249 -0.4102 -0.3948 -0.4514
 3374TIP3   OH210127   1.010   3.748   3.123  0.5191  0.5267  0.9619
 3374TIP3    H110128   0.934   3.701   3.089  0.3324  1.3891  0.1412
 3374TIP3    H210129   0.975   3.834   3.147  0.2612 -0.4953  4.9516
 3375TIP3   OH210130   4.430   2.917   3.723  0.1166  0.3273  0.1137
 3375TIP3    H110131   4.516   2.939   3.687  0.1296  0.8053  0.4133
 3375TIP3    H210132   4.388   2.865   3.655  1.2357 -1.2689  0.5974
 3376TIP3   OH210133   2.220   3.493   2.135 -0.0362 -0.1070 -0.3760
 3376TIP3    H110134   2.216   3.417   2.078  1.1644 -0.0389 -0.5592
 3376TIP3    H210135   2.141   3.486   2.189 -0.5228 -0.8573 -1.1608
 3377TIP3   OH210136   2.895   1.991   0.956  0.1268 -0.3844  0.1361
 3377TIP3    H110137   2.924   2.037   0.878 -0.6359  0.1134  0.1329
 3377TIP3    H210138   2.841   1.919   0.923 -0.6462  0.1467  0.2014
 3378TIP3   OH210139   1.412   4.561   1.637 -0.1042 -0.3875 -0.9069
 3378TIP3    H110140   1.389   4.594   1.724 -1.9506  0.2313 -1.5899
 3378TIP3    H210141   1.458   4.633   1.595  1.4143 -0.9304 -0.2291
 3379TIP3   OH210142   0.487   1.303   3.655  0.6729  0.0876 -0.4595
 3379TIP3    H110143   0.577   1.330   3.634  1.1517 -0.1183  1.2107
 3379TIP3    H210144   0.434   1.341   3.585  2.0949 -0.1048 -1.6931
 3380TIP3   OH210145   4.743   2.379   0.978  0.7972 -0.1886 -0.5853
 3380TIP3    H110146   4.665   2.415   1.021 -0.7193 -3.1426 -0.6242
 3380TIP3    H210147   4.801   2.355   1.050 -0.3816 -2.1826 -0.2099
 3381TIP3   OH210148   2.777   5.021   0.547  0.1642 -0.2899 -0.6046
 3381TIP3    H110149   2.808   5.106   0.578 -0.1501 -1.0386  1.9332
 3381TIP3    H210150   2.843   4.959   0.578 -1.1180 -1.2977  0.1821
 3382TIP3   OH210151   1.042   4.828   2.289  0.0118 -0.2029 -0.3450
 3382TIP3    H110152   0.967   4.769   2.279  0.5517 -0.8091 -0.9327
 3382TIP3    H210153   1.068   4.849   2.199  1.6370 -1.4156 -0.2031
 3383TIP3   OH210154   1.476   0.299   3.486 -1.0024  0.8846  0.2357
 3383TIP3    H110155   1.498   0.207   3.472 -1.0682  0.5357  2.2009
 3383TIP3    H210156   1.531   0.347   3.423  1.1029 -0.3205  1.0502
 3384TIP3   OH210157   4.426   1.701   2.283  0.2529  0.1091  0.1069
 3384TIP3    H110158   4.423   1.620   2.334  1.9661 -1.4093 -2.0287
 3384TIP3    H210159   4.355   1.691   2.219 -0.0169  0.6818  0.3082
 3385TIP3   OH210160   1.414   3.584   0.821  0.2168  0.1382 -0.1102
 3385TIP3    H110161   1.458   3.632   0.891 -1.8524  1.9423  0.0640
 3385TIP3    H210162   1.408   3.646   0.748 -0.4491 -0.6425 -0.7510
 3386TIP3   OH210163   0.611   3.703   4.387 -0.1782  0.3778 -0.6763
 3386TIP3    H110164   0.583   3.618   4.421 -1.2644  1.2284  0.6736
 3386TIP3    H210165   0.539   3.730   4.329  0.8762 -0.2781 -2.3785
 3387TIP3   OH210166   1.686   2.411   0.506  0.2400  0.3848  0.1090
 3387TIP3    H110167   1.655   2.467   0.435 -1.4191 -0.0423  0.4476
 3387TIP3    H210168   1.744   2.347   0.464  0.3830  0.9814 -0.6170
 3388TIP3   OH210169   4.336   3.406   0.611 -0.0854 -1.1953 -0.1184
 3388TIP3    H110170   4.430   3.393   0.596  0.0940 -0.1269  0.0466
 3388TIP3    H210171   4.330   3.486   0.664 -0.7904 -3.5815  3.9031
 3389TIP3   OH210172   5.129   1.109   0.719  0.1245  0.1204 -0.0373
 3389TIP3    H110173   5.107   1.117   0.812  1.1537  2.9788  0.0454
 3389TIP3    H210174   5.052   1.144   0.674 -0.6104 -1.7808 -0.3595
 3390TIP3   OH210175   1.448   4.797   0.536  0.1108  0.0985  0.3554
 3390TIP3    H110176   1.473   4.754   0.454  1.4282 -0.3124  0.9525
 3390TIP3    H210177   1.518   4.774   0.597 -0.5670  0.8708  1.4404
 3391TIP3   OH210178   4.116   4.041   2.085 -0.6666  0.1755 -0.1920
 3391TIP3    H110179   4.128   3.995   2.002  0.5860 -0.7860  0.4880
 3391TIP3    H210180   4.050   4.108   2.066 -0.3197  0.0584 -1.9862
 3392TIP3   OH210181   0.273   4.370   4.956 -0.2424  0.2830  0.3118
 3392TIP3    H110182   0.232   4.433   5.015 -1.0590 -1.2761  1.4727
 3392TIP3    H210183   0.230   4.386   4.871 -1.6409  0.1829  0.9806
 3393TIP3   OH210184   2.250   2.151   2.893 -0.8251 -0.1843 -0.0162
 3393TIP3    H110185   2.294   2.123   2.973  0.8092 -1.7154 -1.3400
 3393TIP3    H210186   2.256   2.074   2.835 -1.4350  1.0421 -1.7898
 3394TIP3   OH210187   1.242   0.770   5.137  0.7401  0.1480  0.2265
 3394TIP3    H110188   1.210   0.724   5.214  0.7973  1.0424  0.7967
 3394TIP3    H210189   1.172   0.832   5.114  1.7600  1.7065  1.1334
 3395TIP3   OH210190   2.660   1.623   3.732  0.5846  0.6475  0.0274
 3395TIP3    H110191   2.674   1.629   3.637 -1.6407  1.4876 -0.2986
 3395TIP3    H210192   2.625   1.535   3.746  1.2544  0.3919  0.1417
 3396TIP3   OH210193   0.611   0.067   3.110 -1.0427 -0.6978 -0.6189
 3396TIP3    H110194   0.663   0.001   3.065 -2.4495 -1.1473 -1.6317
 3396TIP3    H210195   0.618   0.043   3.203  1.2952 -0.1728 -0.5976
 3397TIP3   OH210196   5.477   2.652   2.319 -0.3086  0.1680 -0.0886
 3397TIP3    H110197   5.475   2.670   2.226  0.9534  1.3530  0.0873
 3397TIP3    H210198   5.420   2.718   2.358  1.0525  1.2232  0.1761
 3398TIP3   OH210199   4.992   5.986   0.790 -0.0427  0.0174 -0.0433
 3398TIP3    H110200   4.934   6.020   0.858 -1.0259 -0.2626 -0.7382
 3398TIP3    H210201   4.985   5.891   0.798 -0.1377 -0.0157 -0.5166
 3399TIP3   OH210202   1.436   1.593   1.312  0.1030 -0.2294  0.4460
 3399TIP3    H110203   1.387   1.648   1.373 -0.7484 -1.1129  0.5890
 3399TIP3    H210204   1.470   1.522   1.366  0.5067 -0.2790  0.1276
 3400TIP3   OH210205   1.293   4.449   2.600 -0.1537 -0.0026 -0.6950
 3400TIP3    H110206   1.305   4.442   2.505 -0.6713  1.4402 -0.8828
 3400TIP3    H210207   1.222   4.388   2.619 -2.2957  2.0111 -1.7694
 3401TIP3   OH210208   1.035   0.809   2.093  0.1777  0.4333 -0.2143
 3401TIP3    H110209   1.053   0.881   2.033 -2.9391  0.9906 -0.6652
 3401TIP3    H210210   0.946   0.826   2.125 -0.2362 -2.5905  0.5779
 3402TIP3   OH210211   3.643   0.319   3.188 -0.4297 -0.4617 -0.2548
 3402TIP3    H110212   3.685   0.241   3.224  0.0749  0.1076  0.4345
 3402TIP3    H210213   3.680   0.328   3.100  0.1939 -0.5053 -0.0085
 3403TIP3   OH210214   2.819   4.023   2.995 -0.2045 -0.3435 -0.6259
 3403TIP3    H110215   2.887   3.959   3.013 -0.9915 -0.9120  0.4744
 3403TIP3    H210216   2.764   4.022   3.074  0.1417  2.1694 -0.2574
 3404TIP3   OH210217   1.835   0.588   4.459  0.3823 -0.1794 -0.4277
 3404TIP3    H110218   1.829   0.634   4.543 -0.6517  0.3426 -0.7767
 3404TIP3    H210219   1.874   0.651   4.399  1.4855 -0.6832 -0.2609
 3405TIP3   OH210220   4.865   4.924   4.601  0.1352  0.8053 -0.5997
 3405TIP3    H110221   4.818   4.874   4.668 -0.0625  1.2979 -0.3634
 3405TIP3    H210222   4.875   4.863   4.528  0.6496  0.1582  0.0047
 3406TIP3   OH210223   1.941   1.150   0.921 -0.1295 -0.4886  0.2019
 3406TIP3    H110224   1.876   1.176   0.986 -0.0009 -2.5287  1.1901
 3406TIP3    H210225   2.014   1.116   0.971 -0.5727 -3.4238 -0.9317
 3407TIP3   OH210226   3.421   5.832   1.121  0.3700  0.2511 -0.0647
 3407TIP3    H110227   3.364   5.902   1.089  0.4729  0.2236 -0.3130
 3407TIP3    H210228   3.415   5.764   1.053 -0.2894 -0.2802  0.5124
 3408TIP3   OH210229   5.469   2.055   1.723  0.4092 -0.0624  0.6180
 3408TIP3    H110230   5.503   2.056   1.633  0.3234 -0.3316  0.5813
 3408TIP3    H210231   5.547   2.053   1.778  0.4618 -0.0340  0.5447
 3409TIP3   OH210232   2.951   1.867   5.056 -0.6336 -0.9830  0.3251
 3409TIP3    H110233   2.867   1.897   5.092  0.5493 -1.0613  3.4545
 3409TIP3    H210234   2.964   1.780   5.094  0.2909 -1.5076 -1.1394
 3410TIP3   OH210235   4.616   3.663   2.265 -0.5150 -0.8751 -0.8621
 3410TIP3    H110236   4.598   3.710   2.346 -0.3131 -0.5602 -1.0000
 3410TIP3    H210237   4.533   3.621   2.243 -0.7069 -0.5504 -0.7626
 3411TIP3   OH210238   1.040   1.640   4.480 -0.0529  0.4047  0.5431
 3411TIP3    H110239   0.971   1.694   4.440 -1.2599 -0.3621  1.5327
 3411TIP3    H210240   1.120   1.670   4.438 -1.0636  0.7665 -1.2585
 3412TIP3   OH210241   6.193   4.173   1.184  0.1394 -0.5195  0.0354
 3412TIP3    H110242   6.286   4.169   1.204  0.1178 -0.9762  0.0577
 3412TIP3    H210243   6.152   4.114   1.247  0.1494 -2.5504 -1.7231
 3413TIP3   OH210244   0.446   2.829   4.375  0.2731 -0.4111 -0.4315
 3413TIP3    H110245   0.358   2.829   4.411  0.3541  2.3665 -0.0408
 3413TIP3    H210246   0.470   2.736   4.371 -2.3998 -1.2053 -0.0024
 3414TIP3   OH210247   4.851   3.402   1.850 -0.0693 -0.4267  0.4353
 3414TIP3    H110248   4.832   3.414   1.943  1.6986 -0.8483  0.8841
 3414TIP3    H210249   4.921   3.464   1.832 -1.3251  0.6550 -0.9981
 3415TIP3   OH210250   5.281   3.065   0.700 -0.6496 -0.2575 -0.0891
 3415TIP3    H110251   5.295   2.971   0.687 -1.8078 -0.5168  0.4223
 3415TIP3    H210252   5.193   3.072   0.736 -0.2506  0.9645  0.7265
 3416TIP3   OH210253   5.872   0.070   3.792 -0.4324  0.1145 -0.0461
 3416TIP3    H110254   5.941   0.125   3.829  0.3702 -0.6552 -0.3827
 3416TIP3    H210255   5.813   0.053   3.865 -2.6010  4.1483 -0.5722
 3417TIP3   OH210256   4.784   4.056   1.600 -0.1889  0.0519 -0.7099
 3417TIP3    H110257   4.799   3.971   1.641 -1.7577 -0.5877 -1.3769
 3417TIP3    H210258   4.704   4.089   1.641  0.0904  0.9659 -0.8637
 3418TIP3   OH210259   1.176   1.042   4.451  0.0916 -0.5574  0.4182
 3418TIP3    H110260   1.134   1.028   4.366 -4.0012  0.1777  2.0977
 3418TIP3    H210261   1.161   1.135   4.470  3.6195  0.0843  0.7917
 3419TIP3   OH210262   1.448   5.855   3.522  0.1891  0.8279  0.3671
 3419TIP3    H110263   1.406   5.840   3.606 -0.3366 -0.3763 -0.0831
 3419TIP3    H210264   1.540   5.869   3.543  0.2257 -0.3654  1.0758
 3420TIP3   OH210265   0.407   4.075   4.928 -0.5372 -0.8210  0.2035
 3420TIP3    H110266   0.345   4.116   4.988 -1.3966 -1.2734 -0.3540
 3420TIP3    H210267   0.424   3.989   4.965 -0.4925 -0.8182  0.1891
 3421TIP3   OH210268   4.999   2.171   2.628 -0.3290  0.0430  0.7589
 3421TIP3    H110269   4.933   2.108   2.657  1.4523 -1.3996  1.7928
 3421TIP3    H210270   5.052   2.189   2.705  1.2401  0.2459 -0.3220
 3422TIP3   OH210271   0.692   4.975   2.098 -0.0927 -0.0171 -0.0175
 3422TIP3    H110272   0.718   4.926   2.176  0.0104  1.8369  1.1675
 3422TIP3    H210273   0.663   4.907   2.037  0.8588 -1.6172  1.1980
 3423TIP3   OH210274   2.550   0.777   3.688 -0.1613 -0.5609  0.4662
 3423TIP3    H110275   2.523   0.770   3.780 -0.4301  1.4876  0.5823
 3423TIP3    H210276   2.468   0.790   3.641 -0.0433 -1.8101 -0.1218
 3424TIP3   OH210277   3.632   2.058   0.593 -0.0682  0.3208 -0.3318
 3424TIP3    H110278   3.543   2.034   0.567 -0.2373 -0.6547  1.0498
 3424TIP3    H210279   3.688   1.994   0.550 -0.2222 -0.3617  0.4652
 3425TIP3   OH210280   5.400   2.288   2.574  0.6112 -0.2662 -0.3503
 3425TIP3    H110281   5.336   2.353   2.603 -0.7365 -1.9275  0.5874
 3425TIP3    H210282   5.478   2.339   2.552 -1.1434  1.9063 -2.0151
 3426TIP3   OH210283   3.240   0.351   4.909 -0.1879 -0.0129 -0.1759
 3426TIP3    H110284   3.220   0.395   4.992  0.6099  0.4948 -0.2475
 3426TIP3    H210285   3.279   0.418   4.854 -1.2245 -0.2040 -1.1856
 3427TIP3   OH210286   5.697   2.291   2.719 -0.0573  0.3857  0.0703
 3427TIP3    H110287   5.677   2.336   2.637 -1.7982 -0.5322 -0.0731
 3427TIP3    H210288   5.706   2.361   2.784 -1.1062  1.0165 -0.4404
 3428TIP3   OH210289   1.970   1.106   5.054  0.0806  0.6273 -0.2718
 3428TIP3    H110290   1.987   1.187   5.007 -0.3497 -0.0901 -1.7258
 3428TIP3    H210291   1.875   1.102   5.062 -0.0572 -0.5746 -1.8751
 3429TIP3   OH210292   1.731   3.326   0.367  0.4280  0.1303  0.0728
 3429TIP3    H110293   1.681   3.258   0.323  0.0033  0.1240  0.5510
 3429TIP3    H210294   1.751   3.390   0.299  1.4223 -0.7993 -0.5281
 3430TIP3   OH210295   4.914   4.099   3.701 -0.1690 -0.2014  0.3840
 3430TIP3    H110296   4.842   4.043   3.673  0.0838 -0.3835  0.0935
 3430TIP3    H210297   4.948   4.056   3.779  1.6458 -1.8780 -1.2307
 3431TIP3   OH210298   2.207   0.007   2.847 -0.5668  0.4370  0.0705
 3431TIP3    H110299   2.133  -0.050   2.827 -1.6056  1.1816  1.5616
 3431TIP3    H210300   2.221   0.058   2.767  0.0438 -1.4771 -1.1118
 3432TIP3   OH210301   3.698   2.477   5.093  0.3170 -0.7247 -0.4492
 3432TIP3    H110302   3.792   2.486   5.108 -0.0856  4.1179  0.8684
 3432TIP3    H210303   3.659   2.474   5.180 -0.8625 -3.4349 -0.9656
 3433TIP3   OH210304   3.280   5.868   1.371  0.3179  0.1283  0.7185
 3433TIP3    H110305   3.343   5.859   1.299 -0.4562  0.3623 -0.0005
 3433TIP3    H210306   3.284   5.961   1.394  0.2907  0.1294  0.7193
 3434TIP3   OH210307   2.401  -0.014   0.795  0.7930  0.3367  0.2243
 3434TIP3    H110308   2.351   0.038   0.731  0.8145 -0.9644 -0.9051
 3434TIP3    H210309   2.485   0.030   0.800  0.7309  0.5680 -0.5403
 3435TIP3   OH210310   1.290   3.358   0.712  0.4395 -0.2929 -0.0091
 3435TIP3    H110311   1.324   3.438   0.754  0.2701  0.0722 -0.5532
 3435TIP3    H210312   1.356   3.334   0.648 -0.8090  1.1271 -1.9512
 3436TIP3   OH210313   0.073   2.094   0.985 -0.4237  0.3913  0.0747
 3436TIP3    H110314   0.017   2.016   0.984 -0.8916  0.7106  0.8311
 3436TIP3    H210315   0.023   2.159   1.035  0.5592  0.7373  0.6173
 3437TIP3   OH210316   4.525   2.462   1.802  0.0526  0.1201  0.5744
 3437TIP3    H110317   4.506   2.460   1.896 -1.3452 -0.5458  0.3006
 3437TIP3    H210318   4.521   2.555   1.779 -5.4408  0.1242  0.1658
 3438TIP3   OH210319   2.941   0.386   3.241  0.2278 -0.0667 -0.3510
 3438TIP3    H110320   2.965   0.329   3.168  1.7711  0.8406 -0.6069
 3438TIP3    H210321   2.846   0.382   3.245  0.0382  0.4080 -2.8966
 3439TIP3   OH210322   5.020   4.759   4.454 -0.2087 -0.5558  1.0536
 3439TIP3    H110323   5.036   4.706   4.533 -0.2897  0.7430  1.9609
 3439TIP3    H210324   5.076   4.836   4.465  0.1683 -0.5921 -0.4169
 3440TIP3   OH210325   0.361   3.075   3.765 -0.3127  0.0370  0.3921
 3440TIP3    H110326   0.426   3.127   3.811 -0.8863  1.9365 -0.8384
 3440TIP3    H210327   0.327   3.014   3.831  0.2041  1.3788  1.9490
 3441TIP3   OH210328   4.956   5.910   3.702 -0.1400 -0.1771 -0.2853
 3441TIP3    H110329   4.991   5.831   3.745 -1.5104 -0.4752  0.3285
 3441TIP3    H210330   4.892   5.876   3.640  0.3598  0.3794 -1.1084
 3442TIP3   OH210331   5.271   5.424   0.593 -0.2462 -0.2729 -0.7194
 3442TIP3    H110332   5.283   5.401   0.501  2.4974  1.0154 -0.7896
 3442TIP3    H210333   5.337   5.371   0.639 -1.4419 -0.7425  0.5113
 3443TIP3   OH210334   3.562   0.825   2.845  0.0756 -0.1456  0.0731
 3443TIP3    H110335   3.563   0.870   2.930 -0.3862 -1.2166  0.6566
 3443TIP3    H210336   3.648   0.844   2.808  0.4605 -0.0379  0.9791
 3444TIP3   OH210337   0.728   2.569   3.022 -0.6548 -0.1094  0.1076
 3444TIP3    H110338   0.771   2.651   2.994 -2.1953  0.8250  0.3412
 3444TIP3    H210339   0.718   2.578   3.116 -0.1249 -0.9427  0.2518
 3445TIP3   OH210340   5.114   0.754   1.306 -0.2976  0.4816 -0.2439
 3445TIP3    H110341   5.143   0.846   1.303 -0.4768  0.5836  0.7510
 3445TIP3    H210342   5.067   0.747   1.389 -0.3537 -0.4995 -0.3504
 3446TIP3   OH210343   5.984   1.390   2.661 -0.0288  0.1712 -0.1149
 3446TIP3    H110344   5.987   1.479   2.627 -0.4272  0.5260  0.7474
 3446TIP3    H210345   5.894   1.378   2.691  0.6577  0.4945  2.3523
 3447TIP3   OH210346   5.687   5.159   2.783  0.1485  0.8696  0.1503
 3447TIP3    H110347   5.615   5.220   2.802 -1.8435 -1.3809  0.3325
 3447TIP3    H210348   5.721   5.135   2.869 -1.2045 -0.5991  0.3272
 3448TIP3   OH210349   2.803   0.635   3.844  0.1355 -0.2388  0.2317
 3448TIP3    H110350   2.819   0.723   3.807 -1.2967 -0.6586 -1.5338
 3448TIP3    H210351   2.878   0.620   3.902  0.6517  1.9569  0.2334
 3449TIP3   OH210352   3.561   0.507   0.830  0.5111  0.4288 -0.6325
 3449TIP3    H110353   3.587   0.418   0.851  1.4100  1.0908  1.3335
 3449TIP3    H210354   3.634   0.542   0.779  0.4195  0.2330 -0.9011
 3450TIP3   OH210355   1.199   1.267   0.423 -0.0525  0.1719  0.7662
 3450TIP3    H110356   1.211   1.184   0.470 -1.7492 -0.3504  0.3619
 3450TIP3    H210357   1.131   1.313   0.472  1.1334  1.5333  1.2009
 3451TIP3   OH210358   5.141   5.677   0.166 -0.1508  0.0109 -0.0460
 3451TIP3    H110359   5.222   5.690   0.216 -0.1123  1.6901 -0.4866
 3451TIP3    H210360   5.168   5.625   0.090  0.1118 -1.0988  0.7697
 3452TIP3   OH210361   0.263   4.180   1.815 -0.2901 -0.5751  0.0251
 3452TIP3    H110362   0.295   4.218   1.733  0.4022 -0.8627  0.1623
 3452TIP3    H210363   0.216   4.101   1.788  0.6942 -1.1552 -0.0342
 3453TIP3   OH210364   5.173   3.090   3.017 -0.1666  0.1026  0.7795
 3453TIP3    H110365   5.258   3.094   3.060  0.6770  0.6007 -0.8398
 3453TIP3    H210366   5.158   3.180   2.986 -0.5425 -0.3131 -0.2862
 3454TIP3   OH210367   3.768   4.400   4.279 -0.5889  0.2658  0.6229
 3454TIP3    H110368   3.778   4.481   4.228  0.0127  0.4339  0.9852
 3454TIP3    H210369   3.844   4.400   4.338  0.0704 -1.1480 -0.1690
 3455TIP3   OH210370   6.048   4.246   3.716  0.0405  0.2210  0.5539
 3455TIP3    H110371   6.022   4.193   3.640  1.3286 -0.1237  0.3220
 3455TIP3    H210372   6.023   4.335   3.693  0.5248  0.1413 -0.3519
 3456TIP3   OH210373   1.113   5.907   2.355  0.8820 -0.5090  0.1283
 3456TIP3    H110374   1.177   5.958   2.305 -1.0198  2.2301  0.2508
 3456TIP3    H210375   1.065   5.858   2.289  0.7380  0.2852 -0.3760
 3457TIP3   OH210376   2.374   1.673   1.195 -0.4200  0.3679 -0.2061
 3457TIP3    H110377   2.454   1.717   1.224 -0.2289 -0.9067  1.3396
 3457TIP3    H210378   2.402   1.584   1.173 -1.4703 -0.2439  0.8206
 3458TIP3   OH210379   2.257   2.605   2.138  0.5144  0.7178  0.4901
 3458TIP3    H110380   2.186   2.583   2.078 -0.6527  2.3629  1.1969
 3458TIP3    H210381   2.287   2.691   2.109  1.5218  0.5126  0.8659
 3459TIP3   OH210382   3.697   3.534   4.851 -0.5890  0.0197 -0.1758
 3459TIP3    H110383   3.777   3.565   4.808 -0.3488  0.1453  0.3556
 3459TIP3    H210384   3.719   3.532   4.944 -1.8413  2.0699  0.2305
 3460TIP3   OH210385   5.147   3.952   3.340 -0.1491  0.0483 -0.2199
 3460TIP3    H110386   5.129   3.934   3.432 -0.9196 -0.0166 -0.3729
 3460TIP3    H210387   5.072   3.914   3.294  0.6641 -0.7190 -0.9455
 3461TIP3   OH210388   1.081   0.520   0.163  0.4118 -0.2592  0.4102
 3461TIP3    H110389   1.003   0.562   0.128  0.5032 -1.6777 -1.6762
 3461TIP3    H210390   1.150   0.540   0.100  1.7912  0.9437  2.1960
 3462TIP3   OH210391   0.692   1.411   3.061  0.1895  0.0580 -0.2932
 3462TIP3    H110392   0.636   1.340   3.093 -0.4008  1.1419  1.2325
 3462TIP3    H210393   0.661   1.428   2.972 -0.6704 -0.5995 -0.1341
 3463TIP3   OH210394   1.608   1.263   3.124 -0.2502 -1.3150 -0.2006
 3463TIP3    H110395   1.694   1.220   3.115  1.5182  2.2200 -2.6246
 3463TIP3    H210396   1.555   1.226   3.054  0.4335 -1.2665 -0.7580
 3464TIP3   OH210397   0.859   2.896   3.507  0.3059 -0.0582  0.3215
 3464TIP3    H110398   0.892   2.810   3.482  2.0813  0.7929 -0.4737
 3464TIP3    H210399   0.773   2.879   3.546  1.2311 -2.3312  1.5569
 3465TIP3   OH210400   0.188   4.627   4.469 -0.7332  0.2049 -0.0281
 3465TIP3    H110401   0.192   4.719   4.495  0.5564  0.4564 -0.9443
 3465TIP3    H210402   0.185   4.578   4.551  1.7688  0.9896  0.6290
 3466TIP3   OH210403   4.795   3.608   4.362 -0.4424  0.2614  0.1366
 3466TIP3    H110404   4.807   3.692   4.405  1.4901  0.0278  0.1833
 3466TIP3    H210405   4.838   3.545   4.421  0.7768 -0.2975 -1.2737
 3467TIP3   OH210406   4.634   0.173   0.327  0.0670  0.7039  0.1690
 3467TIP3    H110407   4.700   0.156   0.261 -0.2942 -0.3444  0.0616
 3467TIP3    H210408   4.555   0.131   0.293 -0.3493  0.9219  0.8491
 3468TIP3   OH210409   1.268   5.417   4.964  0.4731  0.3126 -0.2148
 3468TIP3    H110410   1.204   5.366   5.014  1.2390 -0.8857 -0.4171
 3468TIP3    H210411   1.278   5.370   4.881  1.1939  0.7936 -0.4170
 3469TIP3   OH210412   4.845   4.346   1.524 -0.8868 -0.4051 -0.3866
 3469TIP3    H110413   4.777   4.292   1.483  0.0831 -0.6062 -1.8538
 3469TIP3    H210414   4.843   4.429   1.476 -0.3602 -0.2737 -0.1975
 3470TIP3   OH210415   3.069   0.225   2.737 -0.2024  0.4068  0.1293
 3470TIP3    H110416   3.152   0.273   2.736  0.0748 -0.0634 -0.7132
 3470TIP3    H210417   3.088   0.145   2.687 -0.3919 -1.0258  2.2181
 3471TIP3   OH210418   4.050   0.421   1.248  0.4084  0.2476 -0.1069
 3471TIP3    H110419   4.088   0.461   1.325 -1.6811 -2.0777  2.3504
 3471TIP3    H210420   3.961   0.457   1.243 -0.3158 -1.3912  0.1315
 3472TIP3   OH210421   2.232   4.909   1.798 -0.3020 -0.6206 -0.4011
 3472TIP3    H110422   2.211   4.972   1.866 -0.3490  0.4930 -1.4137
 3472TIP3    H210423   2.179   4.832   1.819  0.5630 -0.7476  1.4605
 3473TIP3   OH210424   6.193   5.959   0.231  0.1553 -0.1109 -0.1208
 3473TIP3    H110425   6.284   5.979   0.253 -0.2982 -0.0868  1.9701
 3473TIP3    H210426   6.196   5.873   0.189  1.1278 -0.1354 -0.0172
 3474TIP3   OH210427   0.277   4.322   3.992  1.0541  0.0418 -0.6964
 3474TIP3    H110428   0.294   4.271   4.071  2.0787  2.4449  0.7162
 3474TIP3    H210429   0.217   4.391   4.020  0.6774  0.3921 -2.2574
 3475TIP3   OH210430   2.781   3.595   3.177  0.6811 -0.1167 -0.7868
 3475TIP3    H110431   2.760   3.547   3.097  0.2001  0.3221 -0.9318
 3475TIP3    H210432   2.748   3.539   3.247 -1.5138  0.7563 -1.0205
 3476TIP3   OH210433   5.196   0.902   4.998  0.1423 -0.4544  0.7930
 3476TIP3    H110434   5.233   0.989   5.011 -2.3051  0.7995  0.0965
 3476TIP3    H210435   5.256   0.843   5.042  1.5462  1.6612  1.8662
 3477TIP3   OH210436   3.592   3.812   0.956  0.1196 -0.0225 -0.4231
 3477TIP3    H110437   3.499   3.791   0.955  0.0531  0.0397  1.4439
 3477TIP3    H210438   3.600   3.884   1.019  0.8029  3.4125 -4.0205
 3478TIP3   OH210439   4.726   1.593   0.737 -0.0052  0.1464  0.0569
 3478TIP3    H110440   4.815   1.628   0.740 -0.7320  2.2267 -0.4847
 3478TIP3    H210441   4.709   1.579   0.643 -1.0885  2.3221 -0.1465
 3479TIP3   OH210442   3.168   0.846   4.856 -0.7330 -0.4677 -0.2683
 3479TIP3    H110443   3.208   0.891   4.781 -2.7369  1.6677 -0.1723
 3479TIP3    H210444   3.226   0.866   4.929 -2.4862  3.9732  0.2303
 3480TIP3   OH210445   0.499   5.956   1.749  0.6502  0.1553  0.0836
 3480TIP3    H110446   0.472   6.037   1.793 -2.7853 -0.5697 -0.4625
 3480TIP3    H210447   0.519   5.895   1.821  3.0432  1.2831  0.4951
 3481TIP3   OH210448   6.067   3.532   0.029  0.2278 -0.0571  0.1612
 3481TIP3    H110449   6.080   3.464   0.094  1.1094  0.1585  0.2233
 3481TIP3    H210450   6.132   3.513  -0.039 -0.0728  0.2467 -0.2166
 3482TIP3   OH210451   2.317   5.854   1.227  0.9506 -0.6619 -0.1762
 3482TIP3    H110452   2.373   5.859   1.149  0.1553 -0.4021 -0.7449
 3482TIP3    H210453   2.318   5.761   1.251 -1.6818 -1.4897 -2.7018
 3483TIP3   OH210454   1.944   0.320   3.260  0.2210  0.2419 -0.1823
 3483TIP3    H110455   1.909   0.243   3.215  2.8685 -0.7146 -0.7849
 3483TIP3    H210456   1.913   0.312   3.350  0.5385 -1.6250 -0.2077
 3484TIP3   OH210457   4.018   5.508   3.615  0.2246 -0.0130  0.3628
 3484TIP3    H110458   3.957   5.438   3.591 -0.3690  0.5861  0.1110
 3484TIP3    H210459   4.082   5.508   3.544  1.1492 -1.3392  1.1443
 3485TIP3   OH210460   5.454   3.754   0.058 -0.3561 -0.3159  0.2550
 3485TIP3    H110461   5.381   3.816   0.055 -0.4639 -0.4332  0.4397
 3485TIP3    H210462   5.518   3.790  -0.004 -0.0996  0.3788  0.9161
 3486TIP3   OH210463   2.150   0.428   2.977 -0.5709  0.0297 -0.8408
 3486TIP3    H110464   2.189   0.352   3.021  1.0553  1.7190  0.8007
 3486TIP3    H210465   2.219   0.462   2.921 -0.9259  0.9121 -0.7561
 3487TIP3   OH210466   6.288   0.642   3.951 -0.3544  0.1196  0.2058
 3487TIP3    H110467   6.225   0.647   4.023  0.0277 -1.1543  0.6620
 3487TIP3    H210468   6.316   0.733   3.937 -1.4209  0.5537  0.7657
 3488TIP3   OH210469   0.773   2.553   5.029  0.3304  0.0364 -0.4800
 3488TIP3    H110470   0.841   2.607   5.069 -0.9727  0.8407  0.7270
 3488TIP3    H210471   0.711   2.616   4.991 -1.2420 -0.5517  0.9940
 3489TIP3   OH210472   0.906   2.296   1.015 -0.2925  0.0957  0.6582
 3489TIP3    H110473   0.975   2.230   1.014 -0.7059 -0.4243 -2.0374
 3489TIP3    H210474   0.923   2.348   1.094  0.7186 -2.4935  2.2626
 3490TIP3   OH210475   2.529   1.582   1.716  0.3648  0.2587 -0.3161
 3490TIP3    H110476   2.559   1.505   1.766 -0.0106  0.7768  0.7243
 3490TIP3    H210477   2.595   1.649   1.734 -0.3114  0.7633  0.3126
 3491TIP3   OH210478   2.933   3.200   2.365  0.3804  0.1934 -0.0084
 3491TIP3    H110479   2.901   3.120   2.325 -0.9192  1.7934 -2.4454
 3491TIP3    H210480   3.018   3.176   2.404 -1.0656 -2.8606  1.6394
 3492TIP3   OH210481   2.564   0.508   3.682 -0.4440  0.1296 -0.4319
 3492TIP3    H110482   2.598   0.593   3.711  0.5050 -0.8402  1.5401
 3492TIP3    H210483   2.483   0.497   3.731 -0.3051 -0.3097 -0.3021
 3493TIP3   OH210484   2.009   0.439   1.304 -0.2930  0.0074 -0.0497
 3493TIP3    H110485   2.033   0.347   1.317 -3.5736 -1.1900 -1.3287
 3493TIP3    H210486   1.975   0.442   1.215 -0.1447  2.5647 -0.0955
 3494TIP3   OH210487   3.635   4.549   4.755 -0.4574 -0.5390 -0.0565
 3494TIP3    H110488   3.604   4.634   4.787 -0.4880 -0.8769  0.8433
 3494TIP3    H210489   3.599   4.541   4.667 -1.7270 -0.2840  0.4272
 3495TIP3   OH210490   5.309   3.366   2.729 -0.7894 -0.1950  0.2445
 3495TIP3    H110491   5.235   3.327   2.776  0.0862  1.0673  2.8407
 3495TIP3    H210492   5.378   3.375   2.795  1.6566 -1.0759 -2.0233
 3496TIP3   OH210493   3.696   4.134   2.396  0.7762 -0.1472 -0.5012
 3496TIP3    H110494   3.759   4.136   2.469  1.2415  1.0557 -0.9047
 3496TIP3    H210495   3.689   4.042   2.372 -1.5333 -1.0249  2.8583
 3497TIP3   OH210496   3.500   1.987   4.902  0.6527 -0.2174 -0.4326
 3497TIP3    H110497   3.474   1.937   4.980  0.2935  1.0046  0.2505
 3497TIP3    H210498   3.571   2.044   4.932 -2.3267  3.4858  0.2433
 3498TIP3   OH210499   2.064   4.171   4.650 -0.1240 -0.4096 -0.2149
 3498TIP3    H110500   2.004   4.216   4.710  0.3151  0.3763 -0.3448
 3498TIP3    H210501   2.049   4.078   4.666 -1.4058 -0.2283 -0.2832
 3499TIP3   OH210502   3.376   2.686   0.596 -0.4150 -0.1656  0.1183
 3499TIP3    H110503   3.435   2.647   0.660 -0.2007  0.2968  0.2033
 3499TIP3    H210504   3.434   2.726   0.531 -0.5368  2.5390  1.5078
 3500TIP3   OH210505   5.026   3.603   1.763  0.2444 -0.2493 -0.9320
 3500TIP3    H110506   5.101   3.553   1.730  2.0250  1.3770  0.4002
 3500TIP3    H210507   5.064   3.687   1.789 -1.8788  0.2432  0.8009
 3501TIP3   OH210508   5.094   3.803   3.072  0.5365  0.5556  0.7053
 3501TIP3    H110509   5.181   3.784   3.108  1.0617  0.4395 -0.5755
 3501TIP3    H210510   5.104   3.886   3.027 -0.6295  1.7175  2.4843
 3502TIP3   OH210511   0.598   2.166   1.682  0.5159  0.3983  0.7830
 3502TIP3    H110512   0.656   2.101   1.723  0.6671  1.0060  1.5569
 3502TIP3    H210513   0.580   2.229   1.751 -0.0332  0.9219  0.1788
 3503TIP3   OH210514   3.430   0.120   4.399 -0.8737 -0.2899  0.4533
 3503TIP3    H110515   3.430   0.025   4.392 -0.9275 -0.7176  4.2916
 3503TIP3    H210516   3.523   0.144   4.394 -0.5699 -0.9314  2.1754
 3504TIP3   OH210517   4.419   0.530   4.579 -0.1386 -0.0620 -0.1391
 3504TIP3    H110518   4.467   0.566   4.653  0.7301 -0.2067 -0.6249
 3504TIP3    H210519   4.468   0.558   4.502 -0.1012 -1.2958 -0.5869
 3505TIP3   OH210520   2.880   3.306   1.346 -0.6654  0.5783  0.0184
 3505TIP3    H110521   2.866   3.287   1.253 -0.4087 -1.0871  0.2948
 3505TIP3    H210522   2.963   3.352   1.349  0.5604 -1.4986 -0.3998
 3506TIP3   OH210523   4.943   1.649   4.776 -0.2589  0.7860 -0.7955
 3506TIP3    H110524   4.999   1.635   4.852 -0.2128  0.2449 -0.9300
 3506TIP3    H210525   4.854   1.647   4.812 -0.2049  1.7016 -0.5735
 3507TIP3   OH210526   3.170   1.131   0.401 -0.4133 -0.0289  0.2709
 3507TIP3    H110527   3.089   1.176   0.425 -0.5733 -0.3305  0.2945
 3507TIP3    H210528   3.182   1.065   0.469 -0.3825 -0.2769  0.0243
 3508TIP3   OH210529   1.785   2.550   3.390  0.4703 -0.3023  0.2570
 3508TIP3    H110530   1.757   2.460   3.410  0.8958 -0.5328 -0.1688
 3508TIP3    H210531   1.774   2.557   3.295 -0.5291  0.4322  0.4057
 3509TIP3   OH210532   2.574   1.376   3.829  0.1640 -0.0232  0.9268
 3509TIP3    H110533   2.534   1.328   3.757 -0.6149 -0.7634  1.8215
 3509TIP3    H210534   2.667   1.355   3.823  0.2096  0.4335 -0.2243
 3510TIP3   OH210535   6.257   2.564   2.468 -0.3623  0.0967 -0.0921
 3510TIP3    H110536   6.346   2.531   2.460  0.0383  0.5697  1.8550
 3510TIP3    H210537   6.216   2.543   2.384  1.2595 -1.0591 -0.6517
 3511TIP3   OH210538   5.682   2.262   1.137 -0.2192  0.0390  0.0594
 3511TIP3    H110539   5.645   2.183   1.178  0.9410 -0.9257 -0.7015
 3511TIP3    H210540   5.678   2.244   1.043 -0.2830  1.0593 -0.1392
 3512TIP3   OH210541   2.017   0.697   3.017  0.0323 -0.4198  0.1742
 3512TIP3    H110542   1.955   0.733   3.081  1.1421 -0.3736  1.2587
 3512TIP3    H210543   2.033   0.607   3.046  0.8064 -0.2892  0.1776
 3513TIP3   OH210544   1.869   4.499   1.544 -0.0012  0.3229 -0.2408
 3513TIP3    H110545   1.900   4.585   1.573 -0.0373  0.2322  0.0711
 3513TIP3    H210546   1.848   4.453   1.625  0.9707 -0.3419 -0.3514
 3514TIP3   OH210547   1.176   3.980   4.701  0.0683 -0.2740 -0.2491
 3514TIP3    H110548   1.241   3.910   4.692  2.1071  1.6226 -1.2271
 3514TIP3    H210549   1.225   4.060   4.683 -2.4525  1.3198 -0.4222
 3515TIP3   OH210550   2.356   3.791   5.201  0.3946  0.9067  0.0799
 3515TIP3    H110551   2.399   3.721   5.152  0.7763  1.0719  0.1731
 3515TIP3    H210552   2.316   3.846   5.133 -0.3978  0.2980  0.0286
 3516TIP3   OH210553   4.590   4.965   2.926  0.3409 -0.4457 -0.2568
 3516TIP3    H110554   4.513   4.910   2.913 -0.0575  0.2277 -0.7976
 3516TIP3    H210555   4.659   4.920   2.878  0.1510 -0.7541 -0.2465
 3517TIP3   OH210556   2.767   0.610   0.931 -0.1000 -0.1612  0.5260
 3517TIP3    H110557   2.801   0.696   0.955 -0.8619 -0.0253  1.1777
 3517TIP3    H210558   2.780   0.557   1.010 -0.5824 -0.3462  0.4841
 3518TIP3   OH210559  -0.013   0.162   3.670  0.1002  0.2869  0.4015
 3518TIP3    H110560   0.081   0.153   3.651 -0.0169 -1.2914  0.3894
 3518TIP3    H210561  -0.020   0.244   3.719  1.1741  1.5937 -1.4933
 3519TIP3   OH210562   2.422   4.739   0.088 -0.4109  0.1300 -0.2196
 3519TIP3    H110563   2.445   4.695   0.170 -0.7937  0.1994 -0.0706
 3519TIP3    H210564   2.422   4.669   0.023  0.0172  0.0956 -0.1846
 3520TIP3   OH210565   6.084   2.488   1.396  0.0699  0.1429 -0.2657
 3520TIP3    H110566   6.136   2.568   1.393  0.3425 -0.0414 -0.5003
 3520TIP3    H210567   6.029   2.493   1.318  0.0417  0.1301 -0.2468
 3521TIP3   OH210568   4.765   3.344   4.230  0.1197  0.4659 -0.1252
 3521TIP3    H110569   4.848   3.325   4.187  0.1230 -2.9501  1.0932
 3521TIP3    H210570   4.760   3.439   4.231  4.0190  0.8399 -0.2462
 3522TIP3   OH210571   2.340   5.701   0.651 -0.1672  0.1639 -0.5559
 3522TIP3    H110572   2.404   5.753   0.603 -0.9478  1.0943 -0.6217
 3522TIP3    H210573   2.341   5.738   0.739 -0.6598  0.2372 -0.5789
 3523TIP3   OH210574   4.236   2.270   0.635 -0.0112 -0.8114 -0.3538
 3523TIP3    H110575   4.149   2.229   0.632 -0.4275 -0.3411  2.4604
 3523TIP3    H210576   4.219   2.361   0.657  1.2050 -0.9784  1.4649
 3524TIP3   OH210577   1.629   3.276   0.954 -0.2371  0.5180 -0.7387
 3524TIP3    H110578   1.698   3.338   0.978 -0.5675 -0.1382  2.3909
 3524TIP3    H210579   1.548   3.317   0.983 -0.7606 -0.2273 -1.1105
 3525TIP3   OH210580   6.335   1.177   1.975 -0.4407 -0.4521  0.0165
 3525TIP3    H110581   6.327   1.164   1.881  0.1413 -0.7965  0.0139
 3525TIP3    H210582   6.323   1.272   1.987  1.2904 -0.1277 -0.6041
 3526TIP3   OH210583   2.747   0.993   3.027 -0.5352 -0.2262 -0.0995
 3526TIP3    H110584   2.792   0.908   3.026  2.2151  1.1119 -0.8721
 3526TIP3    H210585   2.666   0.977   3.076  0.1294 -3.1451  0.2370
 3527TIP3   OH210586   0.740   1.817   1.553 -0.2269  0.1715 -0.5183
 3527TIP3    H110587   0.665   1.761   1.534 -0.5426  0.1143  0.7904
 3527TIP3    H210588   0.786   1.825   1.470 -1.7427  0.3066 -1.3836
 3528TIP3   OH210589   4.889   5.762   0.084 -0.4565 -0.0043  0.2536
 3528TIP3    H110590   4.824   5.783   0.151 -1.0737 -0.6671 -0.1234
 3528TIP3    H210591   4.972   5.757   0.132 -0.5507  1.5611  0.6192
 3529TIP3   OH210592   1.552   3.898   3.648  0.1101 -0.3658 -0.0762
 3529TIP3    H110593   1.507   3.915   3.730  1.9825 -1.3510  1.2154
 3529TIP3    H210594   1.525   3.809   3.624 -0.3918 -0.0998 -0.5191
 3530TIP3   OH210595   3.305   1.033   4.682 -0.3087 -0.1648 -0.1292
 3530TIP3    H110596   3.230   1.090   4.664  0.1372  1.0214  1.5168
 3530TIP3    H210597   3.370   1.091   4.722  0.2049 -1.7997  1.5551
 3531TIP3   OH210598   2.054   5.044   1.195 -0.6750  0.1622  0.6020
 3531TIP3    H110599   1.970   5.000   1.186 -0.2766 -1.0512  2.2962
 3531TIP3    H210600   2.040   5.131   1.157 -2.2742 -0.4772 -0.3737
 3532TIP3   OH210601   6.196   5.910   0.732  0.5573 -0.1147  0.4138
 3532TIP3    H110602   6.140   5.912   0.654  0.6471  0.5133  0.3647
 3532TIP3    H210603   6.142   5.871   0.800  0.6827 -1.2848 -0.1219
 3533TIP3   OH210604   2.690   4.565   3.470  0.7669  0.2493  0.2684
 3533TIP3    H110605   2.638   4.546   3.392  1.7735 -0.1201 -0.3318
 3533TIP3    H210606   2.681   4.486   3.524 -1.6241  1.2996  1.5333
 3534TIP3   OH210607   0.261   3.766   3.615  0.1026 -0.5453 -0.5133
 3534TIP3    H110608   0.352   3.793   3.625  0.0402 -0.6603  0.4542
 3534TIP3    H210609   0.215   3.812   3.685 -0.5837 -0.5166 -0.9694
 3535TIP3   OH210610   5.015   4.185   4.017  0.2963 -0.4991 -0.1778
 3535TIP3    H110611   4.998   4.091   4.018  1.0108 -0.6705  2.4111
 3535TIP3    H210612   5.105   4.194   4.049 -0.6489  1.1157  2.3662
 3536TIP3   OH210613   2.408   2.318   1.331 -0.3780 -0.0296  0.3733
 3536TIP3    H110614   2.433   2.233   1.366  0.6011 -0.1925 -0.6579
 3536TIP3    H210615   2.410   2.306   1.236 -0.2059  1.1479  0.2129
 3537TIP3   OH210616   4.760   2.288   0.202  0.6322  0.4690  0.0082
 3537TIP3    H110617   4.765   2.384   0.199 -1.3963  0.6099  0.2938
 3537TIP3    H210618   4.695   2.265   0.137 -0.0962 -0.5962  1.0867
 3538TIP3   OH210619   3.328   1.931   3.153 -0.2376  0.0930  0.3114
 3538TIP3    H110620   3.415   1.916   3.190 -0.8302  1.0411  2.2344
 3538TIP3    H210621   3.272   1.947   3.229 -0.8930  5.6693 -0.9211
 3539TIP3   OH210622   4.766   5.821   3.998 -0.1938 -0.2194 -1.0711
 3539TIP3    H110623   4.856   5.834   4.028 -0.1846  1.4451 -1.7026
 3539TIP3    H210624   4.712   5.845   4.073 -0.1315 -0.7267 -0.8578
 3540TIP3   OH210625   4.520   2.766   4.937 -0.5181  0.0142 -0.0087
 3540TIP3    H110626   4.581   2.699   4.967 -0.0203 -0.0946 -1.1821
 3540TIP3    H210627   4.534   2.770   4.842 -2.9001 -0.5905 -0.4559
 3541TIP3   OH210628   1.716   0.337   3.043  0.3192 -0.3858 -0.2169
 3541TIP3    H110629   1.772   0.275   2.998 -2.9291 -2.5554 -1.6013
 3541TIP3    H210630   1.702   0.299   3.130 -0.8254 -1.1315 -0.7018
 3542TIP3   OH210631   5.178   2.379   0.390 -0.4058  0.5343  0.2931
 3542TIP3    H110632   5.125   2.330   0.327 -0.3562  0.4422  0.3235
 3542TIP3    H210633   5.207   2.457   0.341 -0.0265  0.2606  0.0714
 3543TIP3   OH210634   5.442   3.354   1.548  0.1676  0.1740 -0.5207
 3543TIP3    H110635   5.503   3.347   1.475  1.9058  0.1272  0.8655
 3543TIP3    H210636   5.433   3.448   1.564 -1.5370  0.2664 -1.8083
 3544TIP3   OH210637   2.003   5.106   0.452  0.4424  0.5094  1.0231
 3544TIP3    H110638   1.915   5.138   0.474  0.6986  1.2437  1.0094
 3544TIP3    H210639   1.992   5.011   0.442 -0.6499  0.7446 -0.3531
 3545TIP3   OH210640   3.879   1.063   0.893  0.1700  0.0063 -0.7404
 3545TIP3    H110641   3.906   1.148   0.926  0.3847 -0.2390 -0.2655
 3545TIP3    H210642   3.943   1.041   0.826 -0.1572  0.4248 -1.1967
 3546TIP3   OH210643   3.855   1.365   0.003  0.4104 -0.1599  0.0349
 3546TIP3    H110644   3.869   1.325   0.089  0.2516 -0.9873 -0.3201
 3546TIP3    H210645   3.842   1.291  -0.056 -0.9280  0.4449 -0.4514
 3547TIP3   OH210646   0.869   3.805   0.768 -0.6745  1.0041 -0.2441
 3547TIP3    H110647   0.936   3.870   0.789 -1.3610  1.5574  0.2737
 3547TIP3    H210648   0.860   3.752   0.847  0.2540 -0.0842 -0.8321
 3548TIP3   OH210649   1.230   5.268   4.677 -0.2966  0.0862 -0.1260
 3548TIP3    H110650   1.209   5.308   4.592 -1.6783  2.1836  1.0932
 3548TIP3    H210651   1.175   5.190   4.681 -0.3836  0.0878 -1.0621
 3549TIP3   OH210652   3.553   1.279   2.255  0.1413  0.1210  0.4935
 3549TIP3    H110653   3.528   1.192   2.285 -0.9009 -0.1673 -1.0848
 3549TIP3    H210654   3.627   1.264   2.196 -0.6514  0.1621 -0.5440
 3550TIP3   OH210655   6.360   5.660   1.746  0.3863  0.7730  0.1161
 3550TIP3    H110656   6.351   5.679   1.652  0.3063 -0.1274 -0.0698
 3550TIP3    H210657   6.280   5.613   1.768  1.4108 -1.1154  0.0702
 3551TIP3   OH210658   4.376   5.140   0.440 -0.4177  0.2811 -0.1655
 3551TIP3    H110659   4.447   5.174   0.385 -0.0537  0.1292  0.2089
 3551TIP3    H210660   4.315   5.101   0.378 -1.0411  1.9444 -0.6466
 3552TIP3   OH210661   5.018   3.576   3.248  0.6689 -0.1969  0.5559
 3552TIP3    H110662   5.014   3.540   3.337  2.8551 -0.0677  0.7500
 3552TIP3    H210663   5.107   3.558   3.218 -0.6386 -2.3130 -2.5762
 3553TIP3   OH210664   3.317   2.732   4.327 -0.7310 -0.1262 -0.7689
 3553TIP3    H110665   3.297   2.641   4.306  0.6212 -0.7191  0.3376
 3553TIP3    H210666   3.382   2.758   4.262  0.3331 -0.6121  0.0628
 3554TIP3   OH210667   3.630   5.403   1.505 -0.0028 -0.2068 -0.3606
 3554TIP3    H110668   3.609   5.445   1.589 -2.4989 -0.6095 -0.7022
 3554TIP3    H210669   3.676   5.323   1.530 -2.0238 -1.1015  0.8078
 3555TIP3   OH210670   3.626   4.870   1.912 -0.1090  0.0071  0.3242
 3555TIP3    H110671   3.599   4.795   1.859 -0.4259 -0.0991  0.6316
 3555TIP3    H210672   3.626   4.837   2.002  0.7210  0.0959  0.3689
 3556TIP3   OH210673   0.047   5.699   2.824 -0.2905 -0.6702 -0.4230
 3556TIP3    H110674   0.119   5.636   2.822 -0.5953 -1.0265 -0.3121
 3556TIP3    H210675   0.018   5.707   2.733 -0.1642 -0.5907 -0.4555
 3557TIP3   OH210676   0.984   0.097   0.919  0.5962 -0.6482 -0.0732
 3557TIP3    H110677   0.938   0.121   1.000  0.9088 -3.3076  1.0015
 3557TIP3    H210678   0.915   0.068   0.860  0.4118  0.8792 -0.6541
 3558TIP3   OH210679   3.722   4.054   4.542 -0.1827  0.1397  0.5953
 3558TIP3    H110680   3.811   4.027   4.565 -0.2005 -1.7716 -1.2441
 3558TIP3    H210681   3.706   4.131   4.596  2.2605  0.0450  1.6131
 3559TIP3   OH210682   6.237   0.684   4.781 -0.0161 -0.2699 -0.9589
 3559TIP3    H110683   6.331   0.697   4.792  0.1114 -0.9195 -1.2145
 3559TIP3    H210684   6.213   0.743   4.709  0.3049 -0.5167 -1.2716
 3560TIP3   OH210685   6.127   5.872   1.922  0.3209  0.3220  0.3047
 3560TIP3    H110686   6.064   5.943   1.936 -1.0237 -0.8104  0.1529
 3560TIP3    H210687   6.150   5.878   1.829 -1.7950 -1.0073 -0.3540
 3561TIP3   OH210688   0.217   1.898   3.685  0.0335 -0.3179 -0.2023
 3561TIP3    H110689   0.207   1.930   3.774  0.6496 -0.6720 -0.0006
 3561TIP3    H210690   0.287   1.833   3.690 -0.3307 -0.7755 -0.8332
 3562TIP3   OH210691   1.673   3.633   0.379  0.1688 -0.0244  0.1098
 3562TIP3    H110692   1.734   3.666   0.313  0.2371 -0.5870 -0.1118
 3562TIP3    H210693   1.729   3.598   0.448  0.1326 -2.0888 -0.8583
 3563TIP3   OH210694   5.048   0.527   2.687 -0.6464  0.0581  0.4917
 3563TIP3    H110695   5.064   0.620   2.706 -0.5081  0.3403 -0.9326
 3563TIP3    H210696   5.128   0.484   2.716 -0.1483  0.5711 -0.0757
 3564TIP3   OH210697   2.739   3.117   0.895  0.5303  0.3204  0.1731
 3564TIP3    H110698   2.779   3.033   0.874 -0.8403 -0.4927  0.7254
 3564TIP3    H210699   2.645   3.100   0.898  0.1778  1.9788 -0.1496
 3565TIP3   OH210700   5.614   4.403   2.065 -0.0873  0.5274 -0.1697
 3565TIP3    H110701   5.694   4.351   2.062  1.0473  2.2031 -0.6876
 3565TIP3    H210702   5.572   4.379   2.148  1.8822  0.8799  0.9885
 3566TIP3   OH210703   1.226   4.820   2.763 -0.5679  0.3051  0.0444
 3566TIP3    H110704   1.144   4.840   2.719 -0.6683 -0.1771  0.0158
 3566TIP3    H210705   1.293   4.833   2.695 -0.4568  2.1673  0.4483
 3567TIP3   OH210706   0.438   0.115   4.508  0.1394  0.0771  0.6589
 3567TIP3    H110707   0.436   0.050   4.438  1.2743 -0.0827  0.7533
 3567TIP3    H210708   0.382   0.186   4.477 -0.7523 -0.7457  0.3592
 3568TIP3   OH210709   5.442   4.844   2.511  0.3836  0.0892  0.5001
 3568TIP3    H110710   5.390   4.812   2.437 -0.0558 -0.8379  1.1933
 3568TIP3    H210711   5.476   4.929   2.481  1.1562 -0.7632 -1.1949
 3569TIP3   OH210712   3.584   0.858   0.337  0.0768 -0.1119 -0.0146
 3569TIP3    H110713   3.509   0.893   0.290  0.5290 -0.5756 -1.1305
 3569TIP3    H210714   3.638   0.817   0.269  0.4981 -1.2921  0.9765
 3570TIP3   OH210715   5.496   3.524   2.558  0.1620 -0.1108  0.2161
 3570TIP3    H110716   5.570   3.500   2.613  0.0334  1.0524  0.9234
 3570TIP3    H210717   5.421   3.522   2.617 -0.6737 -2.7009 -0.7858
 3571TIP3   OH210718   6.313   3.062   0.216 -0.2231 -0.1443  0.7266
 3571TIP3    H110719   6.285   3.004   0.145  1.0643  1.0089 -0.7774
 3571TIP3    H210720   6.409   3.058   0.214 -0.0372  2.8316 -0.1557
 3572TIP3   OH210721   1.928   5.455   0.706 -0.0037  0.0227  0.6094
 3572TIP3    H110722   1.970   5.452   0.621  0.8467  1.4384  0.9505
 3572TIP3    H210723   1.852   5.511   0.693 -0.0809 -0.0585  0.7057
 3573TIP3   OH210724   2.264   1.790   2.053 -0.8787 -0.2380 -0.6422
 3573TIP3    H110725   2.319   1.711   2.049  0.6808  0.6727  1.1310
 3573TIP3    H210726   2.213   1.779   2.133  0.2587  1.0670  0.2980
 3574TIP3   OH210727   1.101   1.778   3.902  0.2679  0.7810 -0.3348
 3574TIP3    H110728   1.130   1.837   3.832  0.6833 -0.5685 -1.3502
 3574TIP3    H210729   1.165   1.707   3.902 -1.1976 -0.6012 -0.3876
 3575TIP3   OH210730   0.256   1.508   4.522 -0.0217 -0.1311 -0.3489
 3575TIP3    H110731   0.184   1.518   4.584 -0.0143 -1.5611 -0.0792
 3575TIP3    H210732   0.329   1.554   4.563 -0.4396  0.2664 -0.0348
 3576TIP3   OH210733   2.666   3.102   4.897 -0.2415  0.4790  0.1746
 3576TIP3    H110734   2.753   3.062   4.888  0.0560  0.9934  0.7454
 3576TIP3    H210735   2.683   3.192   4.926 -1.0070  0.2919  1.2460
 3577TIP3   OH210736   4.873   4.415   3.751 -0.0141  0.2991 -0.5095
 3577TIP3    H110737   4.836   4.413   3.839 -3.1524 -0.1909 -1.7215
 3577TIP3    H210738   4.878   4.508   3.730  3.2518  0.6100  1.0129
 3578TIP3   OH210739   2.566   2.363   3.162 -0.6192  0.0261  0.5581
 3578TIP3    H110740   2.509   2.405   3.098  0.8844  3.6141  1.3549
 3578TIP3    H210741   2.505   2.331   3.229 -1.8930  1.1518 -0.0001
 3579TIP3   OH210742   3.172   3.283   1.225  0.0339 -0.3347  0.2960
 3579TIP3    H110743   3.229   3.314   1.295 -0.0205 -0.0936  0.2339
 3579TIP3    H210744   3.231   3.236   1.166  0.2125  0.1181  0.1086
 3580TIP3   OH210745   6.100   2.784   4.175 -0.2529 -0.6546  0.3836
 3580TIP3    H110746   6.114   2.828   4.259  0.6061 -1.0204  0.4443
 3580TIP3    H210747   6.005   2.788   4.161 -0.1532  2.0551 -0.0650
 3581TIP3   OH210748   4.109   5.532   0.841 -0.4830 -0.1934  0.5134
 3581TIP3    H110749   4.086   5.622   0.865 -2.9602 -0.7042  0.3229
 3581TIP3    H210750   4.157   5.541   0.758 -1.2285  0.9266  0.1773
 3582TIP3   OH210751   4.228   0.127   2.726 -0.6475  0.1278 -0.3517
 3582TIP3    H110752   4.246   0.192   2.793  0.1267 -1.1457  0.7140
 3582TIP3    H210753   4.137   0.102   2.741 -0.6512  0.2647 -0.1415
 3583TIP3   OH210754   5.429   4.686   0.466  0.6260  0.4091  0.2471
 3583TIP3    H110755   5.473   4.740   0.400 -0.3086  0.9640  0.0569
 3583TIP3    H210756   5.490   4.684   0.540  0.6909  1.7354  0.2513
 3584TIP3   OH210757   5.712   2.792   0.797  0.3097 -0.1221 -0.1715
 3584TIP3    H110758   5.714   2.881   0.761 -0.0008  0.3070  0.8388
 3584TIP3    H210759   5.743   2.737   0.725  0.5455  0.8035 -0.8044
 3585TIP3   OH210760   6.230   0.323   2.562  0.0673  0.0856  0.2023
 3585TIP3    H110761   6.180   0.294   2.638  2.1416 -0.1443  1.5755
 3585TIP3    H210762   6.250   0.415   2.580 -0.8240  0.5116 -0.8935
 3586TIP3   OH210763   1.354   4.037   0.498 -0.3999  0.6766 -0.2950
 3586TIP3    H110764   1.285   4.100   0.480 -0.3673  0.5726 -0.7953
 3586TIP3    H210765   1.377   4.001   0.413  0.2835  0.7238 -0.1364
 3587TIP3   OH210766   5.922   4.415   0.997  0.4436  1.0421 -0.3463
 3587TIP3    H110767   5.897   4.329   0.963  1.4989  0.7476 -0.4009
 3587TIP3    H210768   5.905   4.475   0.925  1.4884  0.6014 -0.9712
 3588TIP3   OH210769   1.409   0.295   1.068 -0.4978 -0.2390  0.4460
 3588TIP3    H110770   1.364   0.372   1.101 -2.2581 -0.8340 -0.4410
 3588TIP3    H210771   1.353   0.221   1.095  0.2978 -1.0766 -0.1233
 3589TIP3   OH210772   5.500   5.597   4.854  0.4129  0.0883 -0.2316
 3589TIP3    H110773   5.550   5.633   4.927 -0.3816 -0.9906  0.8955
 3589TIP3    H210774   5.429   5.659   4.841  1.6410  1.3222 -1.4519
 3590TIP3   OH210775   3.415   4.958   3.896  0.4669  0.3202  0.4696
 3590TIP3    H110776   3.387   5.048   3.910  0.8801  0.5730 -0.2856
 3590TIP3    H210777   3.336   4.912   3.867  0.5449  0.7326 -0.3990
 3591TIP3   OH210778   0.273   5.809   4.607  0.3684 -0.3162  0.2487
 3591TIP3    H110779   0.202   5.761   4.650 -2.2345  1.4937 -1.6332
 3591TIP3    H210780   0.296   5.755   4.531 -0.2227 -0.1811 -0.0394
 3592TIP3   OH210781   0.946   2.970   5.137 -0.1796 -0.8467  0.8215
 3592TIP3    H110782   0.912   3.029   5.204 -1.7977  0.4534 -1.0056
 3592TIP3    H210783   1.041   2.977   5.144 -0.3159  1.7752  0.8982
 3593TIP3   OH210784   4.449   4.782   2.586  0.2512 -0.5382  0.6401
 3593TIP3    H110785   4.418   4.824   2.666  0.6808  0.6198  0.2193
 3593TIP3    H210786   4.372   4.776   2.530 -0.3287 -2.4467  1.5514
 3594TIP3   OH210787   2.542   0.854   1.175  0.0344 -0.4647  0.1211
 3594TIP3    H110788   2.576   0.918   1.112  1.1012 -1.3275 -0.2246
 3594TIP3    H210789   2.542   0.771   1.127  1.8165 -1.3378  1.5046
 3595TIP3   OH210790   6.163   3.860   4.119 -0.3669 -0.1371  0.4598
 3595TIP3    H110791   6.080   3.902   4.142 -0.0658  0.5437  0.3301
 3595TIP3    H210792   6.160   3.774   4.162 -0.7769  0.2127  1.1417
 3596TIP3   OH210793   5.858   3.938   1.015 -0.0060  0.1683 -0.5881
 3596TIP3    H110794   5.901   3.883   1.080  0.9245  0.7373 -0.7014
 3596TIP3    H210795   5.767   3.907   1.013  0.3732 -1.0058 -0.2818
 3597TIP3   OH210796   0.154   2.185   2.700 -0.0022 -0.6631  0.2877
 3597TIP3    H110797   0.093   2.140   2.641 -0.2845  1.3013 -1.0215
 3597TIP3    H210798   0.119   2.274   2.707  1.4041 -0.1665  1.4617
 3598TIP3   OH210799   2.017   3.232   4.575  0.4135  0.1579 -0.3796
 3598TIP3    H110800   2.070   3.279   4.639  0.1688  0.7860 -0.6334
 3598TIP3    H210801   2.067   3.239   4.493 -0.1124  0.8554 -0.6479
 3599TIP3   OH210802   3.771   1.786   2.392  0.3599  0.0779  0.4719
 3599TIP3    H110803   3.858   1.809   2.424  0.3706 -0.0711  0.5511
 3599TIP3    H210804   3.785   1.750   2.305  0.3409  0.3962  0.3378
 3600TIP3   OH210805   5.670   3.991   1.967 -0.5624 -0.0686  0.4062
 3600TIP3    H110806   5.675   3.915   2.025  1.1104 -1.5241 -1.4418
 3600TIP3    H210807   5.674   4.067   2.024 -0.3694 -1.4082  2.2461
 3601TIP3   OH210808   3.262   2.786   0.030  0.2992 -0.0971 -0.5706
 3601TIP3    H110809   3.358   2.788   0.025  0.2412  0.1225 -1.8214
 3601TIP3    H210810   3.237   2.871   0.065  0.4271  1.2761 -3.5340
 3602TIP3   OH210811   4.450   0.255   4.314 -0.2197 -0.1802 -0.0393
 3602TIP3    H110812   4.427   0.189   4.249  4.3058  0.0454 -2.2344
 3602TIP3    H210813   4.423   0.338   4.275  1.1302 -0.1772 -1.0298
 3603TIP3   OH210814   3.014   1.119   0.787 -0.2881  0.0570  0.1480
 3603TIP3    H110815   3.012   1.182   0.715  1.0719 -0.9058 -0.7860
 3603TIP3    H210816   2.923   1.105   0.809 -0.7244  0.6614 -1.1428
 3604TIP3   OH210817   6.131   4.423   3.420  0.0762 -0.3386  0.4484
 3604TIP3    H110818   6.199   4.366   3.383 -2.2542 -2.3071 -1.1342
 3604TIP3    H210819   6.049   4.377   3.401 -1.7327  1.9743  2.1487
 3605TIP3   OH210820   3.417   5.463   3.433 -0.3320 -0.1027 -0.0478
 3605TIP3    H110821   3.496   5.465   3.379 -0.2487 -0.2052  0.0729
 3605TIP3    H210822   3.393   5.555   3.443 -1.8193 -0.1530 -2.4399
 3606TIP3   OH210823   1.055   5.509   1.350  0.5857  0.3716  0.3925
 3606TIP3    H110824   1.138   5.548   1.324  0.5708 -0.2931 -0.7590
 3606TIP3    H210825   0.995   5.530   1.277 -0.1363  0.4816  1.0062
 3607TIP3   OH210826   2.815   2.498   1.374  0.1307  0.1336  0.7566
 3607TIP3    H110827   2.753   2.514   1.303 -1.7458 -2.0702  1.7545
 3607TIP3    H210828   2.781   2.547   1.448 -0.4442 -1.0435  1.2970
 3608TIP3   OH210829   0.509   0.284   0.287  0.6066  0.0964 -0.0280
 3608TIP3    H110830   0.593   0.324   0.310 -0.1721  0.7936  1.8528
 3608TIP3    H210831   0.485   0.234   0.365 -0.1963 -1.0072 -0.9640
 3609TIP3   OH210832   4.013   5.951   1.914 -0.5171 -0.2284  0.1763
 3609TIP3    H110833   4.049   5.913   1.995 -0.7085 -0.3085  0.2241
 3609TIP3    H210834   4.020   6.045   1.927  0.8251 -0.2425 -0.3278
 3610TIP3   OH210835   1.548   5.253   1.637 -0.2623  0.5689  0.1534
 3610TIP3    H110836   1.624   5.199   1.618  0.7855  1.5822  1.3007
 3610TIP3    H210837   1.497   5.202   1.700 -0.8020 -0.2946 -0.9331
 3611TIP3   OH210838   2.779   5.187   0.974 -0.4355  0.0751 -0.0479
 3611TIP3    H110839   2.687   5.210   0.963 -0.5700  0.1561  1.0845
 3611TIP3    H210840   2.779   5.091   0.979 -0.2731 -0.0191 -1.4409
 3612TIP3   OH210841   3.472   4.133   0.871 -0.2782 -0.1956  0.0311
 3612TIP3    H110842   3.454   4.051   0.918 -1.1543 -0.5137 -0.8007
 3612TIP3    H210843   3.387   4.157   0.833 -0.2857  1.7164  1.1868
 3613TIP3   OH210844   3.535   4.572   0.132  0.6054 -0.2576  0.4095
 3613TIP3    H110845   3.453   4.538   0.096  1.4674 -1.3753 -0.6028
 3613TIP3    H210846   3.590   4.587   0.055  1.7782 -0.7382  1.1281
 3614TIP3   OH210847   4.681   0.443   0.988  0.4986 -0.6298  0.0223
 3614TIP3    H110848   4.718   0.521   0.947  1.3337 -0.1349  1.6305
 3614TIP3    H210849   4.724   0.369   0.944  1.1583 -0.1340 -0.1715
 3615TIP3   OH210850   0.177   2.617   2.022  0.3488  0.1681 -0.3256
 3615TIP3    H110851   0.177   2.604   1.927  0.9000  0.8216 -0.4193
 3615TIP3    H210852   0.149   2.708   2.034  2.8721  0.9769 -0.0177
 3616TIP3   OH210853   3.903   3.744   1.195  0.0672 -0.2670 -0.2826
 3616TIP3    H110854   3.833   3.801   1.226  0.1435 -0.9340  1.2090
 3616TIP3    H210855   3.980   3.801   1.191  0.1638 -0.2452  1.2847
 3617TIP3   OH210856   0.361   5.307   2.913 -0.1117 -0.5373  0.1106
 3617TIP3    H110857   0.329   5.328   3.001  1.5263 -0.9450  0.8348
 3617TIP3    H210858   0.370   5.392   2.870  1.4469 -0.1052  1.2154
 3618TIP3   OH210859   3.121   0.603   4.111  0.1791 -0.2437  0.7957
 3618TIP3    H110860   3.117   0.508   4.116 -0.0634 -0.2480  0.5072
 3618TIP3    H210861   3.108   0.623   4.018 -1.3820  0.1548  1.0805
 3619TIP3   OH210862   1.104   3.338   1.690  0.5265  0.1814  0.1298
 3619TIP3    H110863   1.042   3.400   1.726  1.0035  0.8792 -0.2309
 3619TIP3    H210864   1.052   3.280   1.634  0.2886  1.1720 -0.7038
 3620TIP3   OH210865   4.698   2.762   0.812 -0.0649  0.3289 -0.1848
 3620TIP3    H110866   4.683   2.675   0.776  0.7412 -0.3033  0.9457
 3620TIP3    H210867   4.622   2.778   0.869 -0.4234  0.5606 -0.7154
 3621TIP3   OH210868   0.354   5.061   1.801  0.5411  0.5264 -0.2294
 3621TIP3    H110869   0.267   5.078   1.764 -0.1395  0.4505  1.2540
 3621TIP3    H210870   0.374   4.971   1.776  0.1725  0.5274 -0.5345
 3622TIP3   OH210871   3.092   4.956   0.953 -0.0297 -0.2756 -0.4887
 3622TIP3    H110872   3.105   5.030   0.894  1.0227  0.3194  0.4496
 3622TIP3    H210873   3.085   4.995   1.040  0.9963 -1.2913  0.0858
 3623TIP3   OH210874   0.778   0.929   4.708  0.0801 -0.0246  0.0505
 3623TIP3    H110875   0.756   0.953   4.799 -1.4001  0.6451 -0.4449
 3623TIP3    H210876   0.847   0.989   4.683  1.4962 -1.1302  1.1670
 3624TIP3   OH210877   5.713   1.957   1.836  0.0870 -0.0192 -0.0628
 3624TIP3    H110878   5.715   1.941   1.742  2.2545  1.3785 -0.3248
 3624TIP3    H210879   5.697   1.871   1.875 -2.7188 -0.3630 -1.6731
 3625TIP3   OH210880   4.809   5.246   4.462 -0.0645  0.1787 -0.0885
 3625TIP3    H110881   4.861   5.217   4.537 -0.1919  0.3348  0.0610
 3625TIP3    H210882   4.833   5.337   4.449  0.3207  0.0129 -0.5487
 3626TIP3   OH210883   0.768   3.142   3.339  0.1057 -0.1019  0.3284
 3626TIP3    H110884   0.706   3.115   3.406  1.2669  1.7931  2.2957
 3626TIP3    H210885   0.756   3.236   3.332  0.0258 -0.2303 -2.2118
 3627TIP3   OH210886   5.354   1.799   4.804  0.4122  0.4192 -0.1297
 3627TIP3    H110887   5.289   1.783   4.872 -0.5225  1.4174 -0.7479
 3627TIP3    H210888   5.436   1.811   4.851  0.2837 -1.4488  0.6215
 3628TIP3   OH210889   1.368   0.590   3.961  0.1980  0.2523  0.3074
 3628TIP3    H110890   1.315   0.669   3.957 -2.4254 -1.3927 -0.1559
 3628TIP3    H210891   1.433   0.600   3.891  0.5174  2.3155  0.8519
 3629TIP3   OH210892   1.011   0.799   4.524 -0.0826  0.0517  0.5416
 3629TIP3    H110893   0.973   0.857   4.590 -0.0258  0.0175  0.6044
 3629TIP3    H210894   1.009   0.851   4.443 -1.4414 -0.3975  0.2544
 3630TIP3   OH210895   6.195   3.586   1.203  0.5098  0.3150 -0.0476
 3630TIP3    H110896   6.190   3.533   1.282  0.9236  0.0679 -0.1846
 3630TIP3    H210897   6.169   3.526   1.133  0.3008  0.4880 -0.1185
 3631TIP3   OH210898   6.068   3.435   2.181  0.0902 -0.3932 -0.5020
 3631TIP3    H110899   6.058   3.450   2.275 -0.6356 -1.7166 -0.3444
 3631TIP3    H210900   6.105   3.347   2.175  2.2039  0.5011 -1.4202
 3632TIP3   OH210901   2.545   4.047   3.165  0.1909  0.0977 -0.1552
 3632TIP3    H110902   2.606   4.063   3.237 -0.6161 -2.3399  1.1929
 3632TIP3    H210903   2.483   4.120   3.170  0.6390  0.4218  1.0964
 3633TIP3   OH210904   5.482   1.066   4.049  0.4001 -0.0047 -0.4962
 3633TIP3    H110905   5.577   1.061   4.060  0.5740 -0.6059 -2.1022
 3633TIP3    H210906   5.468   1.059   3.955 -1.4282 -4.1161 -0.1334
 3634TIP3   OH210907   6.301   4.483   2.257  0.1066  0.3564 -0.3989
 3634TIP3    H110908   6.294   4.388   2.251 -1.1979  0.3322  0.9715
 3634TIP3    H210909   6.249   4.516   2.184  0.4256  0.0179 -0.7800
 3635TIP3   OH210910   1.100   5.152   2.607 -0.2037 -0.5403  0.3277
 3635TIP3    H110911   1.185   5.117   2.582  0.4056  1.5777 -0.7815
 3635TIP3    H210912   1.118   5.212   2.679 -0.6827  0.2437 -0.1917
 3636TIP3   OH210913   3.743   0.376   2.931 -0.1972 -0.0331 -0.4707
 3636TIP3    H110914   3.824   0.392   2.882 -1.0188 -0.2515 -1.9212
 3636TIP3    H210915   3.703   0.301   2.888 -1.0470 -0.1123  0.4237
 3637TIP3   OH210916   3.021   3.573   2.458 -0.0505  0.1646  0.3585
 3637TIP3    H110917   3.097   3.617   2.420 -1.0465  0.4348 -1.4393
 3637TIP3    H210918   2.951   3.589   2.395 -1.1930 -1.4434  1.1735
 3638TIP3   OH210919   3.653   2.296   4.316  0.2647  0.3341  0.6252
 3638TIP3    H110920   3.690   2.274   4.402  1.0194 -1.4021 -0.1017
 3638TIP3    H210921   3.728   2.323   4.264  0.1524 -0.7125 -0.1039
 3639TIP3   OH210922   3.152   4.635   2.061 -0.1027  0.4037  0.5158
 3639TIP3    H110923   3.129   4.593   1.978  0.0023 -0.4541  0.9101
 3639TIP3    H210924   3.068   4.656   2.102 -0.1557  0.6331  0.2888
 3640TIP3   OH210925   5.868   5.213   4.410 -0.1945 -0.4338  0.0204
 3640TIP3    H110926   5.931   5.217   4.338 -2.5252 -1.6040 -2.2328
 3640TIP3    H210927   5.894   5.285   4.469  2.3852 -0.0483 -1.4512
 3641TIP3   OH210928   2.326   3.592   4.930  0.1100 -0.0242 -0.9305
 3641TIP3    H110929   2.250   3.627   4.975  1.7405 -1.1147  3.1286
 3641TIP3    H210930   2.380   3.669   4.911 -0.0075  0.4175  0.3882
 3642TIP3   OH210931   2.963   5.701   3.070 -0.4665 -0.5273 -0.1674
 3642TIP3    H110932   3.050   5.737   3.089  0.2540 -1.5875 -1.2635
 3642TIP3    H210933   2.902   5.763   3.108  0.7564  1.0382 -0.6504
 3643TIP3   OH210934   3.967   3.729   1.892 -0.3612  0.6372  0.0672
 3643TIP3    H110935   4.033   3.787   1.853 -1.9888  1.1518 -2.1294
 3643TIP3    H210936   3.891   3.785   1.905 -0.3336  0.1435  2.9018
 3644TIP3   OH210937   5.184   1.180   1.037  0.0079  0.2761 -0.1045
 3644TIP3    H110938   5.104   1.129   1.034 -1.2622  2.1247  0.3919
 3644TIP3    H210939   5.168   1.247   1.104  1.3131  1.6946 -1.1249
 3645TIP3   OH210940   1.543   4.635   0.334 -0.1646 -0.1919  0.2935
 3645TIP3    H110941   1.620   4.650   0.280  0.9337  0.0186  1.8392
 3645TIP3    H210942   1.547   4.543   0.357  0.6291  0.1791  1.7754
 3646TIP3   OH210943   1.266   1.566   0.721 -0.0286 -0.4393  0.4126
 3646TIP3    H110944   1.237   1.494   0.777 -0.1536  0.1728  1.1579
 3646TIP3    H210945   1.311   1.524   0.648 -2.3455 -1.4331 -0.5407
 3647TIP3   OH210946   2.896   3.827   1.780 -0.4986  0.1074  0.3780
 3647TIP3    H110947   2.857   3.765   1.842 -0.1331 -0.7610 -0.2347
 3647TIP3    H210948   2.831   3.836   1.710  0.1979 -1.0667 -0.4662
 3648TIP3   OH210949   5.672   1.259   2.461 -0.2082 -0.1922 -0.9101
 3648TIP3    H110950   5.594   1.270   2.407 -0.3646  0.2001 -0.6071
 3648TIP3    H210951   5.731   1.329   2.434 -0.7413  0.7315  0.2051
 3649TIP3   OH210952   3.691   5.516   4.244 -0.4499 -0.5507 -0.0926
 3649TIP3    H110953   3.737   5.576   4.186 -0.2957 -1.2503 -0.7073
 3649TIP3    H210954   3.732   5.529   4.330 -0.0538 -0.1751 -0.3362
 3650TIP3   OH210955   3.753   5.795   5.052  0.3537  0.1473  0.3788
 3650TIP3    H110956   3.708   5.773   5.134  1.0503 -1.1414  0.4444
 3650TIP3    H210957   3.735   5.722   4.994 -0.0084  0.9832 -0.6006
 3651TIP3   OH210958   5.427   3.191   0.506  0.5468 -0.1492  0.8332
 3651TIP3    H110959   5.487   3.118   0.491 -0.1528 -0.3193 -1.5863
 3651TIP3    H210960   5.364   3.157   0.569 -0.0684 -1.8809 -0.6117
 3652TIP3   OH210961   4.098   5.363   4.230 -0.1244  0.1405 -0.5605
 3652TIP3    H110962   4.181   5.396   4.195  0.0517  0.7976  0.4377
 3652TIP3    H210963   4.063   5.309   4.160  2.0579 -1.7542 -0.3374
 3653TIP3   OH210964   3.977   3.627   0.511 -0.6268  0.5140 -0.2615
 3653TIP3    H110965   3.889   3.604   0.484 -0.5102 -0.9008  0.4769
 3653TIP3    H210966   3.967   3.709   0.560 -1.4677  0.5774 -0.5363
 3654TIP3   OH210967   5.014   2.115   0.018 -0.3355 -0.5777  0.3167
 3654TIP3    H110968   5.035   2.047   0.083  1.1663 -0.0405  0.4359
 3654TIP3    H210969   5.099   2.147  -0.011 -0.9429 -1.1749 -2.3634
 3655TIP3   OH210970   4.642   0.916   0.334  0.4657 -0.1124  0.6406
 3655TIP3    H110971   4.593   0.934   0.253  1.8667  1.6770  0.1210
 3655TIP3    H210972   4.663   0.823   0.328  0.6763  0.0059 -1.1588
 3656TIP3   OH210973   2.877   4.348   3.962 -0.4736  0.2404  0.0788
 3656TIP3    H110974   2.913   4.421   4.013 -0.9223 -0.4835  1.4773
 3656TIP3    H210975   2.824   4.299   4.025  0.5830 -1.8496 -0.5850
 3657TIP3   OH210976   0.636   2.928   3.181 -0.2198 -0.2984 -0.3349
 3657TIP3    H110977   0.694   3.002   3.198 -0.0718 -0.2385 -1.0899
 3657TIP3    H210978   0.570   2.962   3.121  0.1799 -0.9195 -1.1561
 3658TIP3   OH210979   3.114   5.007   4.001  0.0721 -0.4754 -0.4487
 3658TIP3    H110980   3.127   4.951   4.078 -0.4106  0.1417  0.0969
 3658TIP3    H210981   3.026   4.987   3.970 -0.2000  0.1494 -0.0992
 3659TIP3   OH210982   6.298   4.220   2.300  0.0355 -0.2059 -0.0505
 3659TIP3    H110983   6.302   4.153   2.232  0.0149 -0.0968 -0.1602
 3659TIP3    H210984   6.327   4.176   2.380 -0.3460 -0.4467 -0.0448
 3660TIP3   OH210985   5.891   1.505   4.868 -0.5206  0.5524  0.4322
 3660TIP3    H110986   5.904   1.499   4.774 -1.8266 -0.5968  0.2929
 3660TIP3    H210987   5.979   1.510   4.905  0.0043  0.9157 -0.8300
 3661TIP3   OH210988   3.345   5.770   2.687  0.1612  0.4880  0.1370
 3661TIP3    H110989   3.400   5.821   2.747  3.7111 -1.8168 -0.8426
 3661TIP3    H210990   3.378   5.791   2.600 -1.0403 -0.4377 -0.5782
 3662TIP3   OH210991   1.605   2.278   4.409 -0.6338  0.4274  0.7941
 3662TIP3    H110992   1.524   2.269   4.358 -1.0026 -0.3210  1.4916
 3662TIP3    H210993   1.576   2.315   4.492 -0.2444  0.2312  1.0175
 3663TIP3   OH210994   4.288   0.026   1.805 -0.0616  0.1265  0.0357
 3663TIP3    H110995   4.265   0.118   1.817  2.8539  0.8135  1.1528
 3663TIP3    H210996   4.317   0.020   1.714  1.5694  0.8511  0.4591
 3664TIP3   OH210997   2.526   4.006   3.786  0.6530 -0.6046  0.2222
 3664TIP3    H110998   2.551   4.097   3.804 -0.3937 -0.1017 -0.7434
 3664TIP3    H210999   2.596   3.954   3.825  2.5544  0.6775 -1.3091
 3665TIP3   OH211000   3.016   2.202   1.912 -0.2626 -0.4068 -0.2097
 3665TIP3    H111001   3.016   2.240   1.824 -0.4219 -1.2154 -0.5705
 3665TIP3    H211002   2.964   2.122   1.904  0.7976 -1.1724  0.3080
 3666TIP3   OH211003   1.286   2.377   1.179 -0.0330  0.5549  0.4026
 3666TIP3    H111004   1.292   2.288   1.145 -0.4086  0.2540  1.0949
 3666TIP3    H211005   1.242   2.427   1.110  1.0813  0.4444 -0.4124
 3667TIP3   OH211006   1.873   2.441   2.328 -0.3012  0.5507 -0.1265
 3667TIP3    H111007   1.845   2.406   2.413 -0.1358  0.7106 -0.0065
 3667TIP3    H211008   1.798   2.426   2.270  0.1430 -1.0219 -0.3604
 3668TIP3   OH211009   5.883   2.706   1.869 -0.5607  0.1791  0.7834
 3668TIP3    H111010   5.961   2.659   1.900 -1.0180 -0.5921  0.7720
 3668TIP3    H211011   5.915   2.794   1.849  0.5748 -0.4536 -0.3674
 3669TIP3   OH211012   2.478   3.046   0.886  0.3499 -0.0320  0.5111
 3669TIP3    H111013   2.391   3.006   0.889  0.3825 -0.3042 -1.0149
 3669TIP3    H211014   2.461   3.139   0.874  0.1881 -0.2894 -1.8277
 3670TIP3   OH211015   5.225   1.602   2.678  0.5702  0.1760 -0.2963
 3670TIP3    H111016   5.172   1.601   2.599 -1.0870  0.7672  0.7475
 3670TIP3    H211017   5.248   1.694   2.691  0.7617  0.0963 -0.0630
 3671TIP3   OH211018   4.524   2.979   0.650 -0.4983  0.1436  0.0192
 3671TIP3    H111019   4.573   2.971   0.568 -0.5040  2.9611 -0.3462
 3671TIP3    H211020   4.453   2.914   0.641 -0.6306  0.5110 -2.3344
 3672TIP3   OH211021   4.286   2.308   3.770  0.1531 -0.4763  0.1830
 3672TIP3    H111022   4.380   2.291   3.771  0.0107 -1.5183 -1.1099
 3672TIP3    H211023   4.246   2.223   3.793 -0.4860  0.0786  1.2304
 3673TIP3   OH211024   1.703   0.482   4.146 -0.5591  0.1952 -0.1759
 3673TIP3    H111025   1.620   0.495   4.191  0.1141 -0.8531  1.4618
 3673TIP3    H211026   1.762   0.448   4.213  1.5044  1.8585 -1.0256
 3674TIP3   OH211027   5.479   0.304   3.939 -0.0762  0.1005  0.3534
 3674TIP3    H111028   5.406   0.242   3.942 -1.5870  1.7971  0.2675
 3674TIP3    H211029   5.553   0.256   3.976 -1.5740 -1.2330  1.7606
 3675TIP3   OH211030   2.681   3.628   5.166 -0.5679  0.2847 -0.0103
 3675TIP3    H111031   2.684   3.692   5.237  1.0231  1.5854 -1.1954
 3675TIP3    H211032   2.654   3.678   5.089 -1.0555 -0.8501 -0.6009
 3676TIP3   OH211033   2.201   3.687   3.136  0.2607 -0.0745  0.1143
 3676TIP3    H111034   2.146   3.765   3.133  0.5671  0.1239 -0.5575
 3676TIP3    H211035   2.172   3.640   3.214 -0.8665  0.0214 -0.2426
 3677TIP3   OH211036   3.111   0.331   4.139  0.3397  0.4199 -0.0310
 3677TIP3    H111037   3.127   0.283   4.221 -0.2599  1.1004  0.4946
 3677TIP3    H211038   3.045   0.277   4.094 -1.2254  1.2889  1.0930
 3678TIP3   OH211039   1.376   0.527   4.831  0.5592 -0.5563  0.0009
 3678TIP3    H111040   1.341   0.576   4.757  1.7087  0.6146  0.1997
 3678TIP3    H211041   1.414   0.594   4.888  1.8713 -1.6435  0.4440
 3679TIP3   OH211042   5.330   2.504   3.028  0.0239 -0.2140  0.0172
 3679TIP3    H111043   5.288   2.534   2.948 -0.0814  0.5710  0.3574
 3679TIP3    H211044   5.269   2.528   3.098 -0.2881 -1.6388  0.2833
 3680TIP3   OH211045   6.012   1.870   1.669  0.9001 -0.2235 -0.1715
 3680TIP3    H111046   5.991   1.780   1.692  0.6498  0.3711  2.2690
 3680TIP3    H211047   6.089   1.864   1.614  2.4619 -1.8711  2.0283
 3681TIP3   OH211048   5.844   4.824   4.046 -0.1248  0.1791  0.3063
 3681TIP3    H111049   5.866   4.741   4.004 -1.2401  0.3299 -0.6408
 3681TIP3    H211050   5.848   4.888   3.975 -0.4315  0.7321  0.7822
 3682TIP3   OH211051   1.570   0.466   0.923  0.6156  0.7055 -0.0188
 3682TIP3    H111052   1.549   0.528   0.993 -0.1648 -0.4630  0.8281
 3682TIP3    H211053   1.502   0.400   0.928  0.0837  0.9763 -2.4376
 3683TIP3   OH211054   3.387   4.201   2.891  0.3829 -0.2022  0.0059
 3683TIP3    H111055   3.346   4.207   2.804  1.6277  0.3647 -0.5615
 3683TIP3    H211056   3.343   4.126   2.932 -3.7532  2.3624  0.8384
 3684TIP3   OH211057   4.569   4.311   2.158 -0.1319  0.3127 -0.4236
 3684TIP3    H111058   4.626   4.378   2.120  0.1888 -0.0697 -0.6180
 3684TIP3    H211059   4.485   4.323   2.113 -0.0463  0.5133 -0.5333
 3685TIP3   OH211060   3.077   3.039   1.271 -0.2050  0.7600 -0.3388
 3685TIP3    H111061   3.001   3.036   1.330 -0.2531  0.1308 -0.4255
 3685TIP3    H211062   3.083   3.131   1.246  0.5727  1.3110  1.6242
 3686TIP3   OH211063   0.904   3.277   4.825 -0.2828 -0.3804 -0.5070
 3686TIP3    H111064   0.819   3.258   4.864  0.6448 -1.8441  0.9409
 3686TIP3    H211065   0.945   3.338   4.885 -0.4188  0.6118 -1.3905
 3687TIP3   OH211066   4.120   4.996   0.777  0.1715 -0.1457 -0.1360
 3687TIP3    H111067   4.213   5.016   0.765  0.2937  1.5666  2.7767
 3687TIP3    H211068   4.080   5.081   0.798 -2.5862 -0.3793 -3.5249
 3688TIP3   OH211069   0.583   2.309   3.670  0.4810  0.0074  0.3268
 3688TIP3    H111070   0.515   2.244   3.688  1.0295 -0.6456  0.0775
 3688TIP3    H211071   0.604   2.346   3.756  0.5116 -0.4991  0.5432
 3689TIP3   OH211072   4.045   5.518   0.023 -0.1021  0.0728 -0.1730
 3689TIP3    H111073   3.958   5.477   0.020  0.3114 -1.0242  1.3922
 3689TIP3    H211074   4.028   5.611   0.010 -1.1328 -0.4413 -3.4136
 3690TIP3   OH211075   2.272   3.331   2.577  0.2563  0.5005 -0.1754
 3690TIP3    H111076   2.339   3.310   2.642 -0.1765  0.5570  0.2967
 3690TIP3    H211077   2.320   3.373   2.505  0.5237  1.9826  0.8361
 3691TIP3   OH211078   4.477   5.558   2.102  0.3581 -0.8604  0.0903
 3691TIP3    H111079   4.384   5.535   2.100  0.0614  0.1525  0.8955
 3691TIP3    H211080   4.517   5.488   2.154  0.1122 -1.4951 -0.5600
 3692TIP3   OH211081   2.076   4.381   0.235  0.0209  0.3541 -0.0599
 3692TIP3    H111082   2.160   4.418   0.262 -0.2130  0.5493  0.4034
 3692TIP3    H211083   2.083   4.373   0.140  0.3836  0.8241 -0.0764
 3693TIP3   OH211084   4.758   0.212   1.498  0.2818 -0.0367 -0.2379
 3693TIP3    H111085   4.709   0.268   1.437 -0.9899 -0.6289  0.2198
 3693TIP3    H211086   4.800   0.274   1.558  0.5449  0.4948 -0.9453
 3694TIP3   OH211087   5.058   4.099   1.726  0.1979  0.3407 -0.0897
 3694TIP3    H111088   5.097   4.014   1.746  1.8962  0.8929 -0.9065
 3694TIP3    H211089   4.985   4.079   1.667  1.8774 -0.4263 -2.0045
 3695TIP3   OH211090   2.047   1.254   3.216  0.0347  0.4321 -0.3796
 3695TIP3    H111091   2.081   1.170   3.246  1.1460  1.3909  1.2627
 3695TIP3    H211092   1.952   1.247   3.226  0.2284 -0.0560  1.4589
 3696TIP3   OH211093   5.158   1.348   1.297  0.2248 -0.9821 -0.3016
 3696TIP3    H111094   5.236   1.299   1.323  0.0362 -2.0285 -1.5780
 3696TIP3    H211095   5.151   1.419   1.360  1.2500 -1.8720  0.8451
 3697TIP3   OH211096   4.241   5.155   5.140 -0.0310 -0.2384 -0.0274
 3697TIP3    H111097   4.225   5.154   5.234  0.0441  0.5065 -0.0002
 3697TIP3    H211098   4.336   5.151   5.131 -0.0451 -0.5154 -0.0831
 3698TIP3   OH211099   5.893   1.783   3.482 -0.4977  0.2769 -0.2588
 3698TIP3    H111100   5.933   1.822   3.404  2.1411 -0.4467  0.6473
 3698TIP3    H211101   5.861   1.859   3.532 -1.9061  0.7677 -1.8015
 3699TIP3   OH211102   5.437   1.389   3.681  0.2774 -0.2550  0.2633
 3699TIP3    H111103   5.511   1.450   3.691  0.1559 -0.1586  0.5724
 3699TIP3    H211104   5.429   1.347   3.766  0.2995 -0.6361  0.0786
 3700TIP3   OH211105   4.964   2.692   2.196  0.9076 -0.6986  0.4995
 3700TIP3    H111106   4.933   2.659   2.112  0.6309 -0.8461  0.6591
 3700TIP3    H211107   4.961   2.788   2.188 -0.9144 -0.6769  0.9855
 3701TIP3   OH211108   1.652   5.337   4.729  0.1721 -0.0968  0.1402
 3701TIP3    H111109   1.738   5.295   4.720  0.5911  0.7610  0.0514
 3701TIP3    H211110   1.671   5.431   4.725 -0.3681  0.2560  3.2836
 3702TIP3   OH211111   3.181   2.302   1.049 -0.1360 -1.0615  0.0591
 3702TIP3    H111112   3.143   2.214   1.059  0.3101 -1.2539  0.0942
 3702TIP3    H211113   3.148   2.350   1.125  0.1991 -1.4150  0.4334
 3703TIP3   OH211114   1.498   0.024   4.988  0.1833  0.1352  0.5251
 3703TIP3    H111115   1.472   0.009   4.897 -0.9637  0.1847  0.8245
 3703TIP3    H211116   1.426  -0.012   5.039  0.4880  0.7426  1.4023
 3704TIP3   OH211117   1.190   0.077   5.117  0.9342  0.6306  0.3239
 3704TIP3    H111118   1.212   0.142   5.050  0.2381  0.5773  0.0343
 3704TIP3    H211119   1.097   0.058   5.102  0.9525  0.1000  0.8623
 3705TIP3   OH211120   1.010   5.494   4.840 -0.8163  0.1819  0.2941
 3705TIP3    H111121   1.105   5.501   4.840 -0.9179  2.4870  0.1498
 3705TIP3    H211122   0.989   5.432   4.771  0.5329  1.2430 -1.1096
 3706TIP3   OH211123   5.839   3.229   1.625 -0.3162 -0.2442  0.1683
 3706TIP3    H111124   5.928   3.198   1.605  0.4634  0.2513  2.4946
 3706TIP3    H211125   5.843   3.323   1.606  0.1699  0.0660  1.6387
 3707TIP3   OH211126   1.949   1.571   2.423  0.0939 -0.2001 -0.5343
 3707TIP3    H111127   1.890   1.546   2.494  1.6261  1.1192  1.2933
 3707TIP3    H211128   1.992   1.489   2.398  0.7045 -0.4536  1.2205
 3708TIP3   OH211129   3.299   0.473   1.610  0.6586  0.0717 -0.0952
 3708TIP3    H111130   3.326   0.387   1.640  0.9883  0.2581  0.1510
 3708TIP3    H211131   3.264   0.516   1.689  4.8957  1.9495  1.0528
 3709TIP3   OH211132   1.511   5.213   3.650 -0.2638 -0.1864 -0.2080
 3709TIP3    H111133   1.495   5.197   3.743  1.4579  0.1649  0.1915
 3709TIP3    H211134   1.603   5.242   3.647  0.1457 -1.5195 -2.1522
 3710TIP3   OH211135   0.030   2.792   1.099 -0.0694  0.1141 -0.3306
 3710TIP3    H111136   0.013   2.883   1.123 -0.8869  0.5540 -2.3707
 3710TIP3    H211137   0.123   2.790   1.078 -0.1875  0.6505 -0.9305
 3711TIP3   OH211138   2.876   5.119   3.722 -0.0272 -0.0688  0.0255
 3711TIP3    H111139   2.819   5.125   3.645 -0.2454  0.9630  0.2595
 3711TIP3    H211140   2.960   5.089   3.687 -0.0208  0.7312 -0.6730
 3712TIP3   OH211141   5.006   5.158   2.339 -0.7958  0.2387  0.3441
 3712TIP3    H111142   5.064   5.102   2.391  0.1618 -0.5419 -1.4668
 3712TIP3    H211143   4.918   5.134   2.368 -0.3886 -1.8065  0.0653
 3713TIP3   OH211144   3.424   2.394   2.280  0.5226  0.0152  0.4998
 3713TIP3    H111145   3.331   2.374   2.269  0.0747  1.0550  2.0897
 3713TIP3    H211146   3.468   2.333   2.220 -1.2306  0.7720 -1.7310
 3714TIP3   OH211147   6.265   3.716   5.005  0.2717 -0.5347  0.0857
 3714TIP3    H111148   6.226   3.629   4.995  1.3112 -0.8550 -1.6361
 3714TIP3    H211149   6.334   3.719   4.939  1.6747  0.8356  1.5200
 3715TIP3   OH211150   2.067   3.903   2.761  0.2091 -0.1565 -0.0468
 3715TIP3    H111151   2.016   3.833   2.720 -1.0243  1.5201 -1.5031
 3715TIP3    H211152   2.110   3.948   2.688 -0.7453  1.9049  0.5791
 3716TIP3   OH211153   0.035   3.860   0.126  0.3493  0.2546 -0.1749
 3716TIP3    H111154   0.113   3.894   0.082  0.5670  0.6108  0.4725
 3716TIP3    H211155  -0.038   3.901   0.080  0.5114 -0.4253 -1.0793
 3717TIP3   OH211156   2.962   4.083   0.825  0.4286 -0.1231  0.4073
 3717TIP3    H111157   2.964   3.988   0.829  0.5236 -0.1072  0.7768
 3717TIP3    H211158   2.869   4.105   0.812  0.6313 -0.3315 -1.7995
 3718TIP3   OH211159   1.845   1.392   1.769 -0.0479 -0.0774  0.2129
 3718TIP3    H111160   1.928   1.401   1.816  0.7095  1.4602 -1.3331
 3718TIP3    H211161   1.797   1.472   1.789 -0.6494 -0.4087  0.1193
 3719TIP3   OH211162   1.685   0.410   1.834  0.4660 -0.0332 -0.2520
 3719TIP3    H111163   1.630   0.399   1.756  0.4532 -2.1650  0.0146
 3719TIP3    H211164   1.747   0.337   1.831  1.2369  0.5232  1.1330
 3720TIP3   OH211165   3.895   5.453   1.407 -0.6571 -0.2498  0.0792
 3720TIP3    H111166   3.877   5.547   1.401 -0.7939 -0.0726  2.3904
 3720TIP3    H211167   3.820   5.412   1.365 -0.4997  0.6447 -1.1470
 3721TIP3   OH211168   5.242   2.784   0.710  0.2230  0.4720  0.1302
 3721TIP3    H111169   5.153   2.756   0.691  0.5916 -1.2375  0.7140
 3721TIP3    H211170   5.272   2.723   0.778  1.0740  2.4386  1.6020
 3722TIP3   OH211171   3.835   2.197   1.162  0.0494 -0.2466  0.0696
 3722TIP3    H111172   3.913   2.211   1.109  0.0013  1.2165  0.3409
 3722TIP3    H211173   3.767   2.175   1.099  0.7853 -2.1087 -0.1180
 3723TIP3   OH211174   4.520   4.492   1.659  0.3748  0.0630  0.2044
 3723TIP3    H111175   4.574   4.458   1.730 -0.5441 -4.0137 -0.8049
 3723TIP3    H211176   4.582   4.509   1.588  0.8885  0.7736  0.8013
 3724TIP3   OH211177   1.685   4.216   0.218  0.1445  0.0497 -0.1401
 3724TIP3    H111178   1.653   4.257   0.138  0.4515  1.4782  0.4359
 3724TIP3    H211179   1.651   4.270   0.289  0.7380 -0.5804  0.6534
 3725TIP3   OH211180   0.323   2.991   1.071  0.5939  0.5985 -0.2709
 3725TIP3    H111181   0.388   2.956   1.131 -1.7617 -1.0987  1.4854
 3725TIP3    H211182   0.312   2.922   1.005 -0.2522  0.3235  0.1423
 3726TIP3   OH211183   3.913   4.597   3.326  0.2025  0.5047  0.6517
 3726TIP3    H111184   3.845   4.569   3.387 -1.4087  0.2021 -1.1894
 3726TIP3    H211185   3.978   4.528   3.330 -0.9789 -0.6629  0.3926
 3727TIP3   OH211186   1.462   3.842   2.162 -0.0082  0.5076 -0.3699
 3727TIP3    H111187   1.497   3.897   2.233  1.7193 -1.7927  0.6660
 3727TIP3    H211188   1.531   3.840   2.096  0.4550 -1.2768  0.1201
 3728TIP3   OH211189   0.718   2.529   1.438  0.2800  0.2853 -0.0098
 3728TIP3    H111190   0.721   2.597   1.505 -0.5702 -0.2602  0.5899
 3728TIP3    H211191   0.674   2.571   1.364  0.5746  0.6627  0.0223
 3729TIP3   OH211192   4.830   3.860   5.088 -0.0738 -0.5325  0.0018
 3729TIP3    H111193   4.820   3.766   5.108 -0.0431 -0.2023  1.7445
 3729TIP3    H211194   4.923   3.876   5.101 -0.1095 -0.2316 -0.1313
 3730TIP3   OH211195   4.488   4.694   3.168  0.1283 -0.0728 -0.2806
 3730TIP3    H111196   4.509   4.729   3.082 -2.5091  2.2714 -0.0980
 3730TIP3    H211197   4.401   4.657   3.159  0.1136 -0.4561  1.2069
 3731TIP3   OH211198   6.032   1.064   1.123 -0.2395  0.2899 -0.0259
 3731TIP3    H111199   5.941   1.059   1.153  0.4792  1.5339  2.6300
 3731TIP3    H211200   6.062   1.150   1.150  1.9594 -0.3522 -0.2034
 3732TIP3   OH211201   6.222   2.371   0.847 -0.3682 -0.0395  0.0026
 3732TIP3    H111202   6.295   2.363   0.786 -0.0250 -1.7199  0.5744
 3732TIP3    H211203   6.221   2.463   0.872  3.7288 -0.4427  2.5627
 3733TIP3   OH211204   3.712   4.677   4.156 -0.2233 -0.6644  0.5124
 3733TIP3    H111205   3.628   4.696   4.199  1.0769  2.3232  2.0690
 3733TIP3    H211206   3.696   4.696   4.063 -1.2429  0.0692  0.8149
 3734TIP3   OH211207   1.777   1.872   3.637  0.2133 -0.2411  0.4680
 3734TIP3    H111208   1.783   1.835   3.725  1.1626  1.6085  1.2508
 3734TIP3    H211209   1.727   1.808   3.587 -0.3026 -1.3793  2.3340
 3735TIP3   OH211210   6.098   3.813   3.582 -0.6181  0.4727 -0.4395
 3735TIP3    H111211   6.057   3.891   3.545  0.5088  1.0684 -0.4651
 3735TIP3    H211212   6.064   3.809   3.672 -0.2134  1.3470 -0.2396
 3736TIP3   OH211213   3.130   1.569   2.200  0.0544 -0.3275  0.3041
 3736TIP3    H111214   3.211   1.602   2.239  1.2899 -0.0464 -2.2802
 3736TIP3    H211215   3.125   1.478   2.230  0.6813  0.0135  1.4780
 3737TIP3   OH211216   0.471   4.984   2.468  0.1423  0.1605 -0.7634
 3737TIP3    H111217   0.376   4.972   2.470 -0.3749  2.5348  4.3250
 3737TIP3    H211218   0.503   4.936   2.544  3.2081 -0.8752 -2.5290
 3738TIP3   OH211219   3.018   1.097   2.562  0.2662 -0.2458 -0.2551
 3738TIP3    H111220   2.998   1.032   2.629 -0.0073 -0.1782 -0.2724
 3738TIP3    H211221   2.962   1.073   2.488  2.9590 -2.4372 -1.7985
 3739TIP3   OH211222   4.808   0.421   4.037 -0.6276  0.1997 -0.0196
 3739TIP3    H111223   4.726   0.467   4.019 -0.6200  0.7117  1.1606
 3739TIP3    H211224   4.841   0.396   3.951  0.5226  4.3257 -0.9811
 3740TIP3   OH211225   3.840   3.354   0.357 -0.3544  0.0148  0.0948
 3740TIP3    H111226   3.781   3.365   0.282  0.0139  0.8680 -0.0894
 3740TIP3    H211227   3.895   3.280   0.333  0.3764  0.8512 -0.9252
 3741TIP3   OH211228   5.679   5.614   1.842  0.3834  0.6385  0.4001
 3741TIP3    H111229   5.724   5.620   1.758  1.0219  0.2109  0.7007
 3741TIP3    H211230   5.626   5.534   1.835  0.0149  0.8985  0.2090
 3742TIP3   OH211231   0.978   4.398   2.239 -0.0976  0.1177 -0.1160
 3742TIP3    H111232   0.904   4.455   2.216  0.3264  0.9264  0.4719
 3742TIP3    H211233   0.949   4.310   2.215 -1.1163  0.4649 -0.2086
 3743TIP3   OH211234   5.413   0.112   1.537 -0.3633  0.4496  0.2334
 3743TIP3    H111235   5.411   0.126   1.632  1.2035  1.0143  0.2128
 3743TIP3    H211236   5.484   0.168   1.506  1.9978 -2.7870 -0.7241
 3744TIP3   OH211237   0.923   4.198   1.201 -0.5989 -0.3656  0.3317
 3744TIP3    H111238   0.877   4.270   1.157 -1.0165 -0.1885  1.0343
 3744TIP3    H211239   0.879   4.119   1.170  1.6021 -0.5947 -2.5856
 3745TIP3   OH211240   5.897   5.257   0.262  0.2030  0.8492  0.1499
 3745TIP3    H111241   5.866   5.320   0.197 -0.7327  0.1555 -0.1094
 3745TIP3    H211242   5.925   5.310   0.336  0.7866  1.6261 -0.6087
 3746TIP3   OH211243   3.702   4.248   2.685 -0.0256  0.4823  0.0308
 3746TIP3    H111244   3.764   4.320   2.689 -0.4224  0.7804  1.1680
 3746TIP3    H211245   3.626   4.284   2.640  0.0270  0.5737  0.0147
 3747TIP3   OH211246   2.509   5.731   3.200 -0.4267  0.7696  0.1923
 3747TIP3    H111247   2.436   5.669   3.201  1.1752 -1.1743  0.5950
 3747TIP3    H211248   2.509   5.769   3.288 -0.4452  0.1733  0.4535
 3748TIP3   OH211249   5.376   1.218   1.388 -0.6872  0.5497 -0.0035
 3748TIP3    H111250   5.417   1.287   1.440  0.8736  0.6933 -1.3625
 3748TIP3    H211251   5.442   1.149   1.381 -1.3449 -0.0438 -0.6830
 3749TIP3   OH211252  -0.020   2.976   0.731  0.2153  0.1288  0.2197
 3749TIP3    H111253  -0.007   2.991   0.637  1.8263  1.1350  0.5505
 3749TIP3    H211254   0.050   3.027   0.773  0.1829 -1.1266  1.9188
 3750TIP3   OH211255   1.323   4.035   5.033 -0.2330  0.1508 -0.1324
 3750TIP3    H111256   1.377   4.009   4.958  0.1963  0.0202  0.2208
 3750TIP3    H211257   1.244   3.982   5.025  0.0285 -0.2328 -0.2115
 3751TIP3   OH211258   4.789   1.975   1.748  0.3283  0.5582  0.8861
 3751TIP3    H111259   4.821   1.980   1.838  2.3597  1.0230  0.1750
 3751TIP3    H211260   4.826   2.052   1.705 -0.1491  0.0376 -0.4982
 3752TIP3   OH211261   0.460   0.910   0.800 -0.1831 -0.6786  0.1055
 3752TIP3    H111262   0.537   0.967   0.795 -1.0856  0.6741  1.0403
 3752TIP3    H211263   0.435   0.896   0.708 -1.7037  3.0260 -0.2445
 3753TIP3   OH211264   2.286   4.592   1.611  0.2296  0.1718  0.6338
 3753TIP3    H111265   2.209   4.616   1.560 -0.6340  0.0276  1.8435
 3753TIP3    H211266   2.269   4.503   1.641  1.1213 -0.0709  0.4556
 3754TIP3   OH211267   5.481   0.118   0.352 -1.2977 -0.0939 -0.0669
 3754TIP3    H111268   5.567   0.158   0.366 -1.7473  0.0791  2.7733
 3754TIP3    H211269   5.429   0.187   0.311 -0.0452 -0.3089 -2.1264
 3755TIP3   OH211270   5.511   3.577   3.932  0.2735 -0.4744 -0.4451
 3755TIP3    H111271   5.529   3.582   3.838 -0.6616  1.2185 -0.5732
 3755TIP3    H211272   5.480   3.487   3.945 -0.8276 -0.3740 -2.0158
 3756TIP3   OH211273   6.117   4.055   1.434 -0.4953 -0.1250  0.1385
 3756TIP3    H111274   6.133   4.091   1.521 -0.6154 -0.2713  0.2202
 3756TIP3    H211275   6.041   3.998   1.444  0.6410 -1.6628  0.3505
 3757TIP3   OH211276   1.131   4.911   2.050  0.1144  0.5702 -0.3069
 3757TIP3    H111277   1.067   4.970   2.011 -1.9274 -1.7545 -0.6957
 3757TIP3    H211278   1.117   4.827   2.005  0.2383 -1.2460  2.7695
 3758TIP3   OH211279   2.799   3.867   1.269 -0.4850 -0.1525 -0.4942
 3758TIP3    H111280   2.732   3.932   1.248  0.6759  0.8949 -1.1091
 3758TIP3    H211281   2.807   3.871   1.364 -0.8122  0.2174 -0.4792
 3759TIP3   OH211282   6.001   1.170   2.504 -0.6517 -0.1575  0.0661
 3759TIP3    H111283   5.986   1.100   2.567  0.8342 -0.2007  0.4056
 3759TIP3    H211284   5.998   1.251   2.556 -0.0849 -0.1432  0.0791
 3760TIP3   OH211285   0.231   4.872   2.532 -0.7413 -0.1166 -0.4336
 3760TIP3    H111286   0.183   4.801   2.491 -1.9289 -0.3048  1.1724
 3760TIP3    H211287   0.231   4.850   2.625  0.3537  1.1287 -0.1091
 3761TIP3   OH211288   2.971   1.816   0.187  0.1649  0.0699 -0.3890
 3761TIP3    H111289   3.055   1.863   0.186  1.9211 -2.8196 -0.4012
 3761TIP3    H211290   2.967   1.773   0.102 -1.9629  1.0523 -0.8455
 3762TIP3   OH211291   4.359   5.406   1.371 -0.9092 -0.7549 -0.7327
 3762TIP3    H111292   4.272   5.366   1.371 -0.0208 -2.8220 -0.8655
 3762TIP3    H211293   4.412   5.348   1.316  0.5720  0.4454 -0.6429
 3763TIP3   OH211294   0.200   5.787   2.566 -0.2259 -0.1225  0.3480
 3763TIP3    H111295   0.160   5.861   2.519  2.1134  0.1045 -1.4709
 3763TIP3    H211296   0.143   5.712   2.546 -1.1712  0.6539  0.0307
 3764TIP3   OH211297   0.083   3.375   3.967 -0.1086 -0.0355  0.2737
 3764TIP3    H111298   0.070   3.308   3.900 -0.8607  0.5029 -0.1340
 3764TIP3    H211299   0.175   3.399   3.959  0.1981 -1.0654  0.4835
 3765TIP3   OH211300   6.074   0.326   5.115  0.3768  0.1543  0.7401
 3765TIP3    H111301   6.023   0.265   5.061 -0.4177  0.8849  0.6398
 3765TIP3    H211302   6.145   0.356   5.058  0.1016  0.1881  0.4113
 3766TIP3   OH211303   2.552   0.780   4.316  0.0623 -0.0239 -0.0465
 3766TIP3    H111304   2.626   0.759   4.259 -1.9790 -0.8416 -2.5764
 3766TIP3    H211305   2.521   0.695   4.348 -2.9368 -0.4628 -3.4056
 3767TIP3   OH211306   2.606   0.027   5.131  0.0044 -0.3940  0.0594
 3767TIP3    H111307   2.648   0.054   5.213  0.5807 -1.6941  0.2084
 3767TIP3    H211308   2.550   0.101   5.108  0.9386  0.6002  0.8573
 3768TIP3   OH211309   6.160   5.707   3.683  0.2695 -0.1476  0.1756
 3768TIP3    H111310   6.217   5.635   3.709  0.1279 -0.3171  0.0156
 3768TIP3    H211311   6.136   5.749   3.766  0.0961 -0.4762  0.2935
 3769TIP3   OH211312   5.737   0.844   3.117 -0.0367  0.1316  0.2339
 3769TIP3    H111313   5.828   0.871   3.104  0.0533 -0.4245 -0.3473
 3769TIP3    H211314   5.687   0.925   3.108  0.4738  0.6442  1.6514
 3770TIP3   OH211315   2.417   3.663   2.056  0.3948  0.0428 -0.3147
 3770TIP3    H111316   2.364   3.729   2.013 -0.0125  1.0475  1.6391
 3770TIP3    H211317   2.354   3.598   2.089  0.1915  1.4576  2.3890
 3771TIP3   OH211318   3.351   4.721   2.595 -0.5339 -0.1772  0.4882
 3771TIP3    H111319   3.387   4.709   2.682  0.2668 -0.3345  0.1388
 3771TIP3    H211320   3.425   4.753   2.542 -1.2976  1.1377  0.1597
 3772TIP3   OH211321   0.604   2.352   4.687  0.3741 -0.3082 -0.0100
 3772TIP3    H111322   0.576   2.331   4.776 -0.2360 -0.2352 -0.1837
 3772TIP3    H211323   0.542   2.418   4.657  1.2283  0.4739 -0.1014
 3773TIP3   OH211324   5.480   5.142   2.354  0.3149  0.0830  0.3116
 3773TIP3    H111325   5.541   5.166   2.424  1.2111 -0.2160 -0.3508
 3773TIP3    H211326   5.481   5.216   2.294  0.4664 -0.1617  0.0085
 3774TIP3   OH211327   1.360   5.729   1.534 -0.3018 -0.3322 -0.3450
 3774TIP3    H111328   1.385   5.767   1.618 -0.4099 -0.9383 -0.0325
 3774TIP3    H211329   1.426   5.662   1.517  0.9473  1.1848 -1.7717
 3775TIP3   OH211330   0.187   4.885   0.690 -0.5579  0.1958  0.6551
 3775TIP3    H111331   0.242   4.809   0.669 -1.0784  0.2829 -1.2245
 3775TIP3    H211332   0.167   4.875   0.783  1.5406 -0.5349  1.0865
 3776TIP3   OH211333   3.272   1.348   3.228 -0.2624 -0.1912 -0.3323
 3776TIP3    H111334   3.183   1.379   3.209 -1.0974 -0.0986  3.0847
 3776TIP3    H211335   3.324   1.428   3.233 -0.1941 -0.1654 -1.3667
 3777TIP3   OH211336   4.739   4.642   4.582 -0.3149 -0.0922  0.0071
 3777TIP3    H111337   4.647   4.624   4.602 -0.4005 -0.3877 -0.6390
 3777TIP3    H211338   4.788   4.592   4.648 -0.5497 -2.2595 -1.3700
 3778TIP3   OH211339   1.711   3.865   0.789  0.3073  0.1148 -0.0546
 3778TIP3    H111340   1.749   3.904   0.711  0.0735 -0.4772 -0.4677
 3778TIP3    H211341   1.619   3.851   0.767  0.2548 -0.1102  0.3024
 3779TIP3   OH211342   1.942   1.410   2.710 -0.4762  0.5777  0.1833
 3779TIP3    H111343   2.032   1.378   2.715 -0.7097  0.0230  1.1154
 3779TIP3    H211344   1.914   1.417   2.801 -1.4192  0.6188 -0.0973
 3780TIP3   OH211345   2.867   0.892   4.591  0.3288  0.3300 -0.3582
 3780TIP3    H111346   2.864   0.798   4.572 -2.8469  0.4667 -1.1302
 3780TIP3    H211347   2.917   0.929   4.519  0.5494 -0.6600 -0.7293
 3781TIP3   OH211348   3.102   1.234   3.864 -1.0460 -0.3023  0.3077
 3781TIP3    H111349   3.122   1.164   3.925 -0.5696 -0.8059 -0.4025
 3781TIP3    H211350   3.169   1.301   3.881 -0.4672 -0.7541 -0.1357
 3782TIP3   OH211351   2.326   4.211   4.820 -0.6223 -0.4726  0.1883
 3782TIP3    H111352   2.235   4.234   4.802 -0.0232  1.9567 -0.0748
 3782TIP3    H211353   2.332   4.207   4.915 -0.4034  2.6458  0.4234
 3783TIP3   OH211354   5.764   2.685   2.150  0.3182 -0.2611  0.2408
 3783TIP3    H111355   5.730   2.668   2.062  1.2670 -1.0239  0.0125
 3783TIP3    H211356   5.754   2.602   2.196 -0.2697  0.1646  0.8974
 3784TIP3   OH211357   0.598   5.024   3.182 -0.2377  0.9807 -0.7141
 3784TIP3    H111358   0.641   5.101   3.220  0.2974  0.3828 -0.0766
 3784TIP3    H211359   0.668   4.980   3.134 -0.0966 -0.0207  0.3584
 3785TIP3   OH211360   4.878   1.622   2.116  0.4040 -1.1424  0.7905
 3785TIP3    H111361   4.847   1.655   2.032  2.4492 -0.9860  0.0376
 3785TIP3    H211362   4.884   1.699   2.172  2.4500 -0.5975 -0.0836
 3786TIP3   OH211363   2.972   4.411   4.281  0.0416 -0.3961  0.0592
 3786TIP3    H111364   2.937   4.495   4.310  0.7860 -0.0711  0.0466
 3786TIP3    H211365   2.904   4.347   4.305 -0.3147  0.1410  0.5194
 3787TIP3   OH211366   0.170   3.670   4.395 -0.0166  0.1601  0.1024
 3787TIP3    H111367   0.122   3.645   4.316 -0.3906  1.0220  0.0398
 3787TIP3    H211368   0.105   3.716   4.448  0.6869  1.1815  0.1020
 3788TIP3   OH211369   5.296   4.764   2.295  0.1170  0.1794 -0.6158
 3788TIP3    H111370   5.220   4.707   2.290 -0.4457  0.9442 -1.1902
 3788TIP3    H211371   5.303   4.801   2.207  1.3546 -0.1293 -0.6607
 3789TIP3   OH211372   1.494   5.326   0.919 -0.5905  0.4746 -0.2201
 3789TIP3    H111373   1.530   5.355   1.003  0.4344  0.6283 -0.6950
 3789TIP3    H211374   1.405   5.360   0.918 -0.3978  1.0301  0.5262
 3790TIP3   OH211375   1.014   1.245   2.158  0.5281 -0.1374 -0.1579
 3790TIP3    H111376   1.007   1.219   2.066  0.9965  0.5058 -0.3753
 3790TIP3    H211377   1.081   1.313   2.159  1.8035 -1.3541  0.9089
 3791TIP3   OH211378   2.426   4.922   4.794  0.1681  0.9253 -0.1054
 3791TIP3    H111379   2.507   4.875   4.779  0.7909  1.3139  1.7252
 3791TIP3    H211380   2.445   5.013   4.770  0.5629  1.1744  1.0777
 3792TIP3   OH211381   4.628   4.795   0.923  0.1563  0.1092 -0.1120
 3792TIP3    H111382   4.633   4.889   0.942  1.0287 -0.2585  1.6938
 3792TIP3    H211383   4.701   4.779   0.864  1.8472  0.1324  1.8443
 3793TIP3   OH211384   3.479   2.823   1.807  0.5253  0.1062 -0.8081
 3793TIP3    H111385   3.564   2.846   1.769  0.2819 -0.1134 -1.4984
 3793TIP3    H211386   3.439   2.907   1.828  1.4448  0.1895  0.7520
 3794TIP3   OH211387   2.623   1.460   1.470 -0.6451  0.4462 -0.6137
 3794TIP3    H111388   2.687   1.514   1.424  0.6507  0.1209  0.6991
 3794TIP3    H211389   2.571   1.523   1.520 -1.3167  0.7085 -1.6228
 3795TIP3   OH211390   5.045   2.874   2.941  0.0176 -0.1244  0.6226
 3795TIP3    H111391   5.000   2.836   3.016  0.2396 -0.2598  0.6892
 3795TIP3    H211392   5.076   2.959   2.971  0.0070 -0.1304  0.6499
 3796TIP3   OH211393   5.356   4.370   1.930 -0.0691  0.1302 -0.0437
 3796TIP3    H111394   5.440   4.391   1.970 -0.8396  4.1914 -0.1973
 3796TIP3    H211395   5.302   4.337   2.002  0.4676  1.3597  0.9483
 3797TIP3   OH211396   4.046   1.217   4.918 -0.2359  0.2726 -0.4503
 3797TIP3    H111397   4.100   1.263   4.854 -0.4188  0.2827 -0.5999
 3797TIP3    H211398   3.962   1.205   4.873 -0.6005  0.9150  0.0512
 3798TIP3   OH211399   0.955   1.037   1.247  0.0735 -0.3648  0.4221
 3798TIP3    H111400   1.007   1.040   1.327 -1.8541  0.0368  1.7349
 3798TIP3    H211401   0.873   1.081   1.270  0.4861  2.4144 -2.5941
 3799TIP3   OH211402   4.353   4.199   3.449 -0.4404  0.0901 -0.2151
 3799TIP3    H111403   4.414   4.198   3.375 -1.1037  0.1282 -0.7851
 3799TIP3    H211404   4.289   4.131   3.426 -1.9706  1.6592 -0.8352
 3800TIP3   OH211405   0.245   2.741   2.889  0.3132 -0.2976  0.1441
 3800TIP3    H111406   0.263   2.726   2.982 -1.4103  2.3116  1.0182
 3800TIP3    H211407   0.318   2.699   2.843  1.5071 -1.2020  2.6755
 3801TIP3   OH211408   5.436   0.042   3.706  0.0604 -0.2431  0.2150
 3801TIP3    H111409   5.514   0.093   3.681  0.4972 -1.1326 -0.2929
 3801TIP3    H211410   5.463  -0.049   3.695 -1.5178 -0.5698 -1.4402
 3802TIP3   OH211411   3.044   0.389   1.847 -0.8688  0.1025 -0.4864
 3802TIP3    H111412   3.089   0.474   1.848 -1.3449  0.3567 -0.5049
 3802TIP3    H211413   2.966   0.404   1.793 -0.3040 -0.6874 -1.5770
 3803TIP3   OH211414   0.310   0.872   1.752  0.4929  0.0497  0.0799
 3803TIP3    H111415   0.257   0.952   1.751  0.1861 -0.1512  0.1406
 3803TIP3    H211416   0.370   0.882   1.678  0.7856  0.5530  0.3758
 3804TIP3   OH211417   1.625   1.662   0.322 -0.4203  0.8811  0.1043
 3804TIP3    H111418   1.592   1.586   0.369  3.4034 -0.3064  1.2095
 3804TIP3    H211419   1.679   1.709   0.386 -1.0526  3.4742 -1.1108
 3805TIP3   OH211420   2.430   4.296   3.231 -0.2006 -0.5400  0.3385
 3805TIP3    H111421   2.481   4.290   3.312  0.0910  2.5627  0.4784
 3805TIP3    H211422   2.356   4.353   3.253  0.2766  0.9906 -1.7211
 3806TIP3   OH211423   1.344   2.357   4.830  0.0984  0.4587  0.1679
 3806TIP3    H111424   1.343   2.262   4.817  1.1202  0.4978 -0.3366
 3806TIP3    H211425   1.266   2.388   4.784  0.2980 -0.0393 -0.5260
 3807TIP3   OH211426   6.064   1.321   1.211 -0.7820 -0.5528  0.0032
 3807TIP3    H111427   6.049   1.329   1.305  1.3834 -0.0551  0.3545
 3807TIP3    H211428   6.159   1.328   1.201 -1.0301  0.4436 -2.3242
 3808TIP3   OH211429   0.541   2.580  -0.018 -0.4932 -0.3320 -0.3404
 3808TIP3    H111430   0.547   2.675  -0.002  1.6569  0.1405 -3.1376
 3808TIP3    H211431   0.563   2.540   0.067 -1.7924  1.6074  1.0003
 3809TIP3   OH211432   0.813   5.376   3.239 -0.3647 -0.1693 -0.4217
 3809TIP3    H111433   0.844   5.338   3.157  0.8830 -1.2741  0.5254
 3809TIP3    H211434   0.800   5.469   3.220 -0.9307 -0.5668 -2.0861
 3810TIP3   OH211435   4.131   2.745   1.675  0.0704 -0.6793  0.0490
 3810TIP3    H111436   4.135   2.771   1.583 -0.8180  0.1594  0.2255
 3810TIP3    H211437   4.140   2.650   1.674  1.7594 -0.5361 -0.7545
 3811TIP3   OH211438   3.158   0.624   1.786  0.2652 -0.2131 -0.3499
 3811TIP3    H111439   3.130   0.685   1.856  0.5981 -1.0435  0.5310
 3811TIP3    H211440   3.107   0.651   1.710  2.9537  3.5252 -1.0937
 3812TIP3   OH211441   0.562   5.326   1.129  0.3696 -0.3808  0.8043
 3812TIP3    H111442   0.631   5.393   1.121  0.6892 -0.8503 -0.9590
 3812TIP3    H211443   0.608   5.243   1.115 -0.4176 -0.7553  0.3570
 3813TIP3   OH211444   3.549   2.637   4.038  0.2495 -0.3248 -0.1306
 3813TIP3    H111445   3.519   2.707   4.096  0.6111 -1.4953  1.5423
 3813TIP3    H211446   3.644   2.652   4.030  0.2058 -0.1855 -0.4054
 3814TIP3   OH211447   3.570   0.468   1.741 -0.6907  0.3567  0.8689
 3814TIP3    H111448   3.565   0.467   1.645 -1.1038  0.7013  0.8852
 3814TIP3    H211449   3.648   0.416   1.761 -1.6298 -1.3438  0.4058
 3815TIP3   OH211450   0.303   0.267   4.256  0.1054  0.0584 -0.2156
 3815TIP3    H111451   0.382   0.316   4.277  0.9909 -1.0577 -0.8397
 3815TIP3    H211452   0.257   0.322   4.193  2.4217 -1.0110 -3.0484
 3816TIP3   OH211453   4.486   2.467   2.069 -0.0308 -0.4993 -0.1687
 3816TIP3    H111454   4.464   2.416   2.146  2.3102 -0.2273  0.7463
 3816TIP3    H211455   4.489   2.558   2.100  0.0809 -0.2874 -0.7808
 3817TIP3   OH211456   4.137   4.545   0.593 -0.4414 -0.3151 -0.1767
 3817TIP3    H111457   4.125   4.637   0.619  1.9600  0.0930 -0.3116
 3817TIP3    H211458   4.054   4.522   0.551 -1.6549  1.3167  1.1671
 3818TIP3   OH211459   1.248   1.666   4.262 -0.7063 -0.0138 -0.3874
 3818TIP3    H111460   1.259   1.760   4.281 -0.6067  0.1697 -1.3386
 3818TIP3    H211461   1.330   1.640   4.220 -0.8631 -0.4628 -0.4207
 3819TIP3   OH211462   5.406   2.769   4.433 -0.0152 -0.0986 -0.0023
 3819TIP3    H111463   5.366   2.853   4.412 -0.4158 -0.4963 -0.8755
 3819TIP3    H211464   5.499   2.781   4.416 -0.0861  0.1397 -0.2253
 3820TIP3   OH211465   0.977   5.159   3.693  0.1824 -0.4572  0.0509
 3820TIP3    H111466   0.971   5.251   3.718 -1.0299 -0.4292 -0.3162
 3820TIP3    H211467   1.065   5.150   3.657  0.0521  0.7355 -0.6145
 3821TIP3   OH211468   0.988   2.238   1.756  0.4861  0.2136  0.2866
 3821TIP3    H111469   0.962   2.197   1.839 -0.6777  0.2922 -0.0197
 3821TIP3    H211470   0.953   2.179   1.689  1.4904  0.1065 -0.1654
 3822TIP3   OH211471   5.575   5.970   2.617 -0.2838 -0.4181  0.3722
 3822TIP3    H111472   5.555   5.886   2.576  2.2100 -1.1386  0.4722
 3822TIP3    H211473   5.668   5.964   2.639 -0.1964  2.1406  0.9651
 3823TIP3   OH211474   3.771   4.870   3.658 -0.7713  0.4818 -0.0623
 3823TIP3    H111475   3.804   4.946   3.706  0.4202 -0.5208  0.7772
 3823TIP3    H211476   3.847   4.840   3.607 -0.8110 -0.9315  0.6779
 3824TIP3   OH211477   2.175   2.381   0.786  0.9618 -0.4096 -0.4103
 3824TIP3    H111478   2.236   2.332   0.731 -0.5468 -2.4630 -0.3827
 3824TIP3    H211479   2.112   2.418   0.725  1.3521  0.4062 -0.3247
 3825TIP3   OH211480   2.585   4.568   0.615  0.1223  0.2449 -0.0088
 3825TIP3    H111481   2.516   4.502   0.622  1.7644 -1.5634 -0.0299
 3825TIP3    H211482   2.585   4.612   0.700 -0.9551  0.1852  0.0317
 3826TIP3   OH211483   4.632   3.311   5.138 -0.4729 -0.9467 -0.0313
 3826TIP3    H111484   4.591   3.382   5.089  0.0127  0.1434  1.0941
 3826TIP3    H211485   4.569   3.288   5.206  0.1505 -0.2364  0.8146
 3827TIP3   OH211486   0.033   4.412   1.793  0.4286  0.0352 -0.2863
 3827TIP3    H111487   0.021   4.373   1.706 -1.2613  0.0653 -0.0892
 3827TIP3    H211488   0.007   4.343   1.854  2.4836 -0.3158  0.2911
 3828TIP3   OH211489   6.271   3.391   4.865  0.5614 -0.2932  0.5796
 3828TIP3    H111490   6.303   3.470   4.820 -0.9187 -0.2694 -0.5233
 3828TIP3    H211491   6.350   3.348   4.898  1.3970  1.7976  1.5044
 3829TIP3   OH211492   4.677   4.975   1.977  0.3080 -0.1370 -0.9462
 3829TIP3    H111493   4.684   4.930   2.061  1.0040 -0.4823 -1.1789
 3829TIP3    H211494   4.583   4.985   1.963  0.1723 -0.6129 -0.4065
 3830TIP3   OH211495   3.208   3.366   3.847 -0.0232 -0.2709 -0.4359
 3830TIP3    H111496   3.140   3.319   3.798 -1.8455 -1.3058  2.7976
 3830TIP3    H211497   3.234   3.305   3.916  4.8199 -0.1665 -1.8173
 3831TIP3   OH211498   2.294   5.458   0.367  0.7937 -1.0722  0.5296
 3831TIP3    H111499   2.297   5.551   0.387 -0.5805 -1.2847  1.8844
 3831TIP3    H211500   2.300   5.415   0.452 -3.1184 -2.0753  0.4742
 3832TIP3   OH211501   1.464   5.115   3.385 -0.0738  0.8382 -0.3347
 3832TIP3    H111502   1.463   5.193   3.329 -0.4661  0.7695 -0.4237
 3832TIP3    H211503   1.488   5.149   3.471 -2.0598  1.3667  0.0718
 3833TIP3   OH211504   2.305   1.572   2.921  0.7917  0.2280  0.6816
 3833TIP3    H111505   2.354   1.525   2.989  0.0402 -0.4378  0.7841
 3833TIP3    H211506   2.294   1.660   2.957  2.1572  0.4736  0.5219
 3834TIP3   OH211507   5.186   4.316   3.712  0.1676 -0.4310  0.1835
 3834TIP3    H111508   5.216   4.378   3.646  0.8209 -1.5244 -0.5841
 3834TIP3    H211509   5.266   4.288   3.757  0.3189 -2.8489 -1.4083
 3835TIP3   OH211510   4.892   3.417   1.333 -0.2225  0.3881 -0.2053
 3835TIP3    H111511   4.858   3.503   1.358  0.0165  0.1473  0.9816
 3835TIP3    H211512   4.976   3.436   1.291  1.0829  0.6334  2.3055
 3836TIP3   OH211513   4.728   3.555   0.656 -0.0554  0.5648  0.5939
 3836TIP3    H111514   4.668   3.623   0.626  0.8008  0.9786 -0.2574
 3836TIP3    H211515   4.815   3.591   0.637  0.4183 -0.6468  0.4105
 3837TIP3   OH211516   5.678   2.717   1.503  0.1995  0.3020  0.5463
 3837TIP3    H111517   5.752   2.659   1.520  0.1710  0.1501  0.1468
 3837TIP3    H211518   5.624   2.709   1.582  0.0398 -0.4533  0.3697
 3838TIP3   OH211519   2.719   5.685   4.349  0.0422  0.4373  0.1743
 3838TIP3    H111520   2.739   5.607   4.296 -0.5647 -1.0038  1.9474
 3838TIP3    H211521   2.802   5.732   4.353  0.8078 -0.8405  0.1530
 3839TIP3   OH211522   1.949   5.724   4.161  0.1593 -0.1648 -0.6044
 3839TIP3    H111523   1.909   5.785   4.100 -0.0786 -0.3931 -0.6801
 3839TIP3    H211524   1.875   5.689   4.211  0.3880  0.3023  0.0727
 3840TIP3   OH211525   2.178   2.721   1.837  0.0838 -0.5213 -0.3127
 3840TIP3    H111526   2.119   2.646   1.837  1.6863 -1.9243  2.4657
 3840TIP3    H211527   2.123   2.795   1.863 -1.3700 -0.7360 -2.4416
 3841TIP3   OH211528   2.068   3.694   3.929  0.0187 -0.4540  0.4505
 3841TIP3    H111529   2.003   3.741   3.983 -0.9446 -2.3071  0.9895
 3841TIP3    H211530   2.017   3.661   3.855  0.2613 -2.1372  0.9985
 3842TIP3   OH211531   0.155   5.521   5.117  0.1570 -0.8377  0.0758
 3842TIP3    H111532   0.097   5.468   5.063 -0.0272 -1.4530  0.8505
 3842TIP3    H211533   0.125   5.506   5.207 -0.1428  0.8874  0.2988
 3843TIP3   OH211534   2.674   5.161   4.755  0.4879  0.0178 -0.3160
 3843TIP3    H111535   2.745   5.111   4.715  0.7776  1.6269 -1.9799
 3843TIP3    H211536   2.704   5.178   4.844  2.3546  0.8613 -1.0481
 3844TIP3   OH211537   5.148   0.281   3.352  0.2794  0.6676  0.1597
 3844TIP3    H111538   5.065   0.320   3.323  0.0178 -0.6282 -0.9346
 3844TIP3    H211539   5.132   0.186   3.348  2.5934  0.2718 -2.6244
 3845TIP3   OH211540   3.525   4.171   0.033  0.5858  0.0132 -0.0867
 3845TIP3    H111541   3.475   4.146   0.111 -0.4995  1.3171 -0.3337
 3845TIP3    H211542   3.473   4.138  -0.040  0.2337  1.0803 -0.3361
 3846TIP3   OH211543   0.133   4.805   3.326 -0.2000 -0.1386  0.7433
 3846TIP3    H111544   0.105   4.716   3.351 -0.0047 -0.0273  1.3882
 3846TIP3    H211545   0.228   4.799   3.320 -0.2804 -0.3332 -0.7177
 3847TIP3   OH211546   2.704   0.918   2.338  0.3329 -0.2612 -0.1574
 3847TIP3    H111547   2.692   0.943   2.429 -0.1646 -0.6416 -0.1141
 3847TIP3    H211548   2.705   0.822   2.339  0.7411 -0.2626 -0.5000
 3848TIP3   OH211549   5.542   5.418   1.949 -0.7041  0.1980 -0.2840
 3848TIP3    H111550   5.528   5.370   2.031  1.7568  1.4269  0.9829
 3848TIP3    H211551   5.572   5.351   1.887  1.4829 -0.1968  1.0873
 3849TIP3   OH211552   3.574   5.124   2.672 -0.3863  0.2305  0.1368
 3849TIP3    H111553   3.614   5.122   2.759  0.8549  0.0760 -0.4247
 3849TIP3    H211554   3.586   5.036   2.637 -0.7357  0.3361 -0.2561
 3850TIP3   OH211555   3.647   5.056   3.491 -0.3009  0.0882  0.2330
 3850TIP3    H111556   3.681   4.999   3.560  1.8252  0.9809  0.0364
 3850TIP3    H211557   3.584   5.003   3.444 -1.3135 -0.7666  2.4330
 3851TIP3   OH211558   4.148   2.851   4.520  0.1123 -0.0170 -0.3596
 3851TIP3    H111559   4.190   2.852   4.434 -0.2143 -1.3676 -0.5453
 3851TIP3    H211560   4.096   2.931   4.522  0.4503  0.2378 -1.2538
 3852TIP3   OH211561   5.984   3.599   3.092  0.3713 -0.4794 -0.7664
 3852TIP3    H111562   5.909   3.574   3.039 -1.0577 -0.0045  0.9272
 3852TIP3    H211563   5.950   3.603   3.182  2.3484  0.0625  0.0205
 3853TIP3   OH211564   5.569   4.052   2.909 -0.5971 -0.0888  0.2443
 3853TIP3    H111565   5.610   4.049   2.996 -0.4262 -1.2045  0.1398
 3853TIP3    H211566   5.591   3.968   2.870 -1.3560  0.0859 -0.5760
 3854TIP3   OH211567   6.328   2.979   5.036 -0.1411 -0.3541  0.0781
 3854TIP3    H111568   6.376   2.979   5.120  0.4077 -1.2988 -0.2212
 3854TIP3    H211569   6.288   3.066   5.032  1.3611  0.3934  0.4543
 3855TIP3   OH211570   4.561   1.680   0.930  0.3222  0.0968  0.3785
 3855TIP3    H111571   4.589   1.616   0.995  0.8702  0.2332  0.2840
 3855TIP3    H211572   4.595   1.647   0.847 -0.4683 -0.1320  0.1429
 3856TIP3   OH211573   4.889   5.279   3.399  0.0848  0.8799  0.0493
 3856TIP3    H111574   4.891   5.293   3.305  0.4522  1.3267  0.1215
 3856TIP3    H211575   4.795   5.271   3.420  0.0516 -0.2440 -0.4891
 3857TIP3   OH211576   2.228   5.746   2.128  0.0244 -0.1438  0.1177
 3857TIP3    H111577   2.209   5.805   2.201  1.0091 -0.7187  0.8747
 3857TIP3    H211578   2.154   5.755   2.069 -1.0576 -0.0433  1.4393
 3858TIP3   OH211579   6.294   1.613   1.578  0.1598  0.2595 -0.5977
 3858TIP3    H111580   6.298   1.579   1.667  0.2988  0.2691 -0.6005
 3858TIP3    H211581   6.281   1.707   1.588  0.5047  0.3074 -0.5842
 3859TIP3   OH211582   0.283   3.552   0.796  0.7138  0.0793 -0.0527
 3859TIP3    H111583   0.289   3.597   0.711  0.5884  0.1671 -0.0166
 3859TIP3    H211584   0.295   3.622   0.861  0.4697  0.0707  0.0043
 3860TIP3   OH211585   2.050   4.718   1.564  0.3784 -0.5575 -0.6906
 3860TIP3    H111586   2.039   4.803   1.523 -0.6715  0.3222  1.2863
 3860TIP3    H211587   2.031   4.733   1.657  0.1353 -2.9429 -0.2872
 3861TIP3   OH211588   5.594   1.628   1.029  0.0350  0.0843  0.3963
 3861TIP3    H111589   5.514   1.644   0.978  0.0053  0.8394  0.6668
 3861TIP3    H211590   5.571   1.554   1.085 -0.9743  1.1866  1.4935
 3862TIP3   OH211591   4.656   2.771   1.815 -0.1421 -0.0103 -0.3536
 3862TIP3    H111592   4.577   2.824   1.823 -1.4809 -1.8672 -0.8247
 3862TIP3    H211593   4.683   2.781   1.724 -1.0630 -1.0188 -0.7511
 3863TIP3   OH211594   3.644   3.624   1.457 -0.5262 -0.0790  0.3131
 3863TIP3    H111595   3.702   3.640   1.382  1.8866 -0.5160  1.9772
 3863TIP3    H211596   3.644   3.529   1.468 -2.0473 -0.1350  0.0339
 3864TIP3   OH211597   4.772   0.390   4.555 -0.1653  0.6363  0.3565
 3864TIP3    H111598   4.748   0.298   4.560  2.5950 -0.2377 -0.6204
 3864TIP3    H211599   4.758   0.415   4.464 -0.2633  0.9970  0.4667
 3865TIP3   OH211600   1.421   3.858   0.718  0.4659  0.1862  0.5221
 3865TIP3    H111601   1.385   3.891   0.800  2.2438  1.1397  0.9748
 3865TIP3    H211602   1.410   3.930   0.656 -0.1550 -0.2419  0.1231
 3866TIP3   OH211603   6.018   3.482   3.474  0.0629 -0.4612 -0.0686
 3866TIP3    H111604   5.958   3.532   3.418  1.0226  1.4240  0.5217
 3866TIP3    H211605   6.100   3.531   3.471  0.2981 -0.5652  2.5759
 3867TIP3   OH211606   4.873   2.892   1.105  0.0077 -0.4708  0.4524
 3867TIP3    H111607   4.902   2.923   1.019  0.5599 -0.9004  0.4787
 3867TIP3    H211608   4.816   2.962   1.138 -0.5527 -0.4938 -0.4394
 3868TIP3   OH211609   2.799   4.470   1.079  0.2765  0.2661  0.0096
 3868TIP3    H111610   2.781   4.518   1.160 -0.5032  0.4209 -0.2546
 3868TIP3    H211611   2.871   4.411   1.103 -0.6497 -0.4652  1.1235
 3869TIP3   OH211612   2.320   2.450   4.571  0.3057  0.4291 -0.7930
 3869TIP3    H111613   2.360   2.480   4.653 -0.2906  1.5948 -0.9108
 3869TIP3    H211614   2.355   2.362   4.558 -0.7187 -0.4090  1.4982
 3870TIP3   OH211615   0.632   1.733   2.009 -0.8237  0.3408 -0.2460
 3870TIP3    H111616   0.670   1.657   1.966 -1.4611 -0.1023 -0.0350
 3870TIP3    H211617   0.538   1.724   1.997 -1.0510  0.0559  1.4405
 3871TIP3   OH211618   2.279   3.078   4.204  0.4380  0.3023 -0.5338
 3871TIP3    H111619   2.352   3.036   4.250  0.2346 -0.6893 -1.0739
 3871TIP3    H211620   2.257   3.154   4.258  0.9506 -0.1789  0.3890
 3872TIP3   OH211621   1.440   1.995   4.248  0.2445  0.2146 -0.4965
 3872TIP3    H111622   1.528   1.960   4.262  0.3092  1.2122  2.0945
 3872TIP3    H211623   1.455   2.077   4.201  0.7685  0.5641  0.2531
 3873TIP3   OH211624   3.339   3.373   3.151  1.2719  0.3324 -0.0848
 3873TIP3    H111625   3.321   3.437   3.083 -1.2528 -0.0936  0.0804
 3873TIP3    H211626   3.405   3.315   3.113  1.8430  1.6238 -1.1352
 3874TIP3   OH211627   2.393   2.580   2.635 -0.3716 -0.3044  0.1031
 3874TIP3    H111628   2.328   2.558   2.568 -1.1795 -0.1996  0.8329
 3874TIP3    H211629   2.471   2.530   2.611 -0.0579  1.0129 -1.8744
 3875TIP3   OH211630   3.788   0.604   4.521 -0.1755 -0.5695 -0.6531
 3875TIP3    H111631   3.728   0.637   4.455 -0.6090 -2.0433 -1.0249
 3875TIP3    H211632   3.751   0.520   4.548  0.7937 -0.6885  0.3745
 3876TIP3   OH211633   3.939   2.533   3.172  0.2078  0.1168  0.2376
 3876TIP3    H111634   3.889   2.461   3.134 -0.9085  1.2546 -0.5386
 3876TIP3    H211635   4.030   2.503   3.169 -0.2585 -1.3964  0.2970
 3877TIP3   OH211636   6.339   2.798   1.799  0.1398 -0.3520  0.0555
 3877TIP3    H111637   6.341   2.854   1.876  2.1028  0.2470 -0.3855
 3877TIP3    H211638   6.265   2.830   1.748 -0.6179 -0.1625  1.2404
 3878TIP3   OH211639   6.066   5.909   1.440  0.9821  0.4408 -0.1339
 3878TIP3    H111640   6.062   5.840   1.375  1.4924 -1.1948  1.4867
 3878TIP3    H211641   5.977   5.944   1.443  0.8795  0.3531 -1.4560
 3879TIP3   OH211642   5.047   2.147   5.124 -0.1973 -0.0316  0.0420
 3879TIP3    H111643   5.008   2.189   5.048  0.8529  1.2516  0.1702
 3879TIP3    H211644   5.062   2.056   5.097  0.3168  0.4518 -1.3522
 3880TIP3   OH211645   2.790   4.003   3.520 -0.5517  0.2169 -0.2028
 3880TIP3    H111646   2.749   3.992   3.606 -1.5656  0.5048 -0.6404
 3880TIP3    H211647   2.813   3.914   3.492  4.1333  0.2945  2.3659
 3881TIP3   OH211648   5.539   5.602   0.598  0.2605  0.1086 -0.0488
 3881TIP3    H111649   5.457   5.646   0.619 -1.8150 -2.6908 -1.5470
 3881TIP3    H211650   5.599   5.672   0.573 -2.7011  2.1677 -2.0741
 3882TIP3   OH211651   0.404   2.425   0.676 -0.0677 -0.3640 -0.2379
 3882TIP3    H111652   0.329   2.402   0.731  0.2696  2.1652  1.4551
 3882TIP3    H211653   0.471   2.456   0.737  1.2990  0.1755 -1.9093
 3883TIP3   OH211654   3.807   2.754   3.548 -0.3891  0.0446  0.1759
 3883TIP3    H111655   3.741   2.728   3.484 -0.6120  0.5032  0.2125
 3883TIP3    H211656   3.883   2.699   3.528 -0.1746  0.7245 -1.0007
 3884TIP3   OH211657   4.896   0.204   1.197  0.1961  0.2752 -0.2752
 3884TIP3    H111658   4.963   0.156   1.244 -0.3965 -0.6415 -0.3305
 3884TIP3    H211659   4.822   0.208   1.258 -0.2644 -0.1494 -0.8017
 3885TIP3   OH211660   0.438   0.812   3.002  1.1670  0.8091  0.7104
 3885TIP3    H111661   0.504   0.867   2.960  1.1354  1.1118  1.0547
 3885TIP3    H211662   0.444   0.728   2.956 -0.1639  1.6869 -1.2084
 3886TIP3   OH211663   0.178   5.599   1.074  0.5418 -0.8359 -0.0559
 3886TIP3    H111664   0.215   5.684   1.098  0.0461 -0.8270  0.7125
 3886TIP3    H211665   0.198   5.590   0.981  3.0887 -1.1582  0.4333
 3887TIP3   OH211666   4.353   5.790   2.824  0.1811 -0.3604 -1.5130
 3887TIP3    H111667   4.423   5.730   2.800  1.7269  1.2588 -1.2640
 3887TIP3    H211668   4.348   5.851   2.750 -0.5806 -0.1370 -1.2838
 3888TIP3   OH211669   1.282   0.790   1.377 -0.2645 -0.6001 -0.3615
 3888TIP3    H111670   1.344   0.753   1.439 -0.2883 -1.4551 -0.8391
 3888TIP3    H211671   1.197   0.753   1.402 -0.8193  1.3975  0.9773
 3889TIP3   OH211672   5.893   1.490   4.590 -0.1255 -0.0849 -0.3647
 3889TIP3    H111673   5.877   1.429   4.518 -1.3519 -1.3687  0.9107
 3889TIP3    H211674   5.858   1.574   4.560  2.1749  0.2425 -2.4081
 3890TIP3   OH211675   2.953   5.824   4.359 -0.1954  0.3828  0.1770
 3890TIP3    H111676   3.026   5.841   4.299 -0.9064  1.1921 -0.4785
 3890TIP3    H211677   2.957   5.895   4.423 -0.3712  0.3987  0.1713
 3891TIP3   OH211678   5.183   3.485   3.614  0.0698 -0.1663  0.4304
 3891TIP3    H111679   5.254   3.547   3.595 -1.0611  0.6247 -1.5886
 3891TIP3    H211680   5.228   3.402   3.632  1.5457  0.7599  1.2076
 3892TIP3   OH211681   4.017   1.471   3.031  0.0772 -0.3974  0.1743
 3892TIP3    H111682   4.044   1.460   3.122  0.4143 -1.5413 -0.0499
 3892TIP3    H211683   4.054   1.396   2.985  3.1567  1.9851 -1.6742
 3893TIP3   OH211684   6.370   4.554   1.183  0.3427 -0.0384  0.0705
 3893TIP3    H111685   6.319   4.518   1.111 -0.9479  0.8395  0.5111
 3893TIP3    H211686   6.307   4.567   1.253  1.3205  0.3626  0.9047
 3894TIP3   OH211687   2.042   5.620   4.797  0.2788 -0.3133  0.0601
 3894TIP3    H111688   2.112   5.574   4.843  0.1606  0.5663  1.1413
 3894TIP3    H211689   2.084   5.652   4.716  0.9772 -0.2640  0.4337
 3895TIP3   OH211690   4.658   2.341   4.779 -0.3892 -0.2024 -0.3378
 3895TIP3    H111691   4.692   2.430   4.773  0.7044 -0.4371  1.6028
 3895TIP3    H211692   4.678   2.302   4.694  0.8978  0.8181 -0.5308
 3896TIP3   OH211693   0.211   0.998   4.610  0.0986 -0.0136 -0.5423
 3896TIP3    H111694   0.288   0.996   4.667 -1.5322 -1.9493  1.7861
 3896TIP3    H211695   0.247   0.994   4.522  2.7000  0.9119  0.3545
 3897TIP3   OH211696   3.056   3.506   2.043  0.0961  0.0995  0.9287
 3897TIP3    H111697   2.999   3.504   2.120 -0.9388 -2.3800  0.1869
 3897TIP3    H211698   3.109   3.427   2.051 -0.1149 -0.2716 -0.9494
 3898TIP3   OH211699   2.266   5.661   1.586  0.0589 -0.2733  0.0280
 3898TIP3    H111700   2.243   5.646   1.678 -0.6521 -0.2420 -0.1354
 3898TIP3    H211701   2.355   5.696   1.589 -0.4761  1.1368  0.8203
 3899TIP3   OH211702   0.234   3.754   3.320 -0.5263  0.3243  0.3512
 3899TIP3    H111703   0.181   3.834   3.318 -1.1427 -0.0635  0.6257
 3899TIP3    H211704   0.247   3.736   3.413 -1.3963 -0.5205  0.3358
 3900TIP3   OH211705   3.219   4.188   0.797  0.2690 -0.6203  0.2163
 3900TIP3    H111706   3.161   4.119   0.829 -1.8605 -0.9290 -3.6607
 3900TIP3    H211707   3.168   4.231   0.728  2.9233  2.4073 -0.0688
 3901TIP3   OH211708   0.593   3.681   0.050  0.1973 -0.0254 -0.3068
 3901TIP3    H111709   0.621   3.599   0.009 -0.8908 -0.7125  0.2793
 3901TIP3    H211710   0.673   3.718   0.087  0.7380 -0.7239 -0.7444
 3902TIP3   OH211711   2.400   3.567   4.117 -0.0678  0.0092  0.1842
 3902TIP3    H111712   2.323   3.514   4.096 -0.4297  0.4615  0.3556
 3902TIP3    H211713   2.365   3.645   4.160  0.5407 -0.1740  1.0495
 3903TIP3   OH211714   0.310   3.129   4.572 -0.0291 -0.4745 -0.2118
 3903TIP3    H111715   0.277   3.084   4.650 -2.6709  0.6658 -0.5799
 3903TIP3    H211716   0.266   3.087   4.499 -0.6305  1.0306 -0.7573
 3904TIP3   OH211717   0.394   1.035   4.346 -0.0154 -0.0222  0.4771
 3904TIP3    H111718   0.333   1.109   4.344  0.8107  0.6597 -0.3994
 3904TIP3    H211719   0.468   1.066   4.398  0.4010 -0.1805 -0.0170
 3905TIP3   OH211720   0.464   3.500   5.000 -0.6460  0.0289  0.3659
 3905TIP3    H111721   0.459   3.568   4.933  1.5653 -0.0198  0.0833
 3905TIP3    H211722   0.392   3.520   5.060 -1.9090  0.8040 -1.3367
 3906TIP3   OH211723   5.603   3.789   1.096 -0.0465 -0.6687  0.3705
 3906TIP3    H111724   5.635   3.727   1.030 -0.0804 -1.7931  1.3637
 3906TIP3    H211725   5.527   3.745   1.135  0.5900 -0.5295  1.8641
 3907TIP3   OH211726   2.864   0.970   2.768  0.0940 -0.6099 -0.1542
 3907TIP3    H111727   2.797   0.992   2.703  0.3602 -0.2149 -0.3067
 3907TIP3    H211728   2.824   0.990   2.852  0.3067  0.4627 -0.2853
 3908TIP3   OH211729   0.590   2.236   1.046  0.3933 -0.1191  0.3349
 3908TIP3    H111730   0.603   2.142   1.058 -1.8865 -0.8295 -1.7578
 3908TIP3    H211731   0.660   2.262   0.985 -0.5151 -1.1100 -1.1972
 3909TIP3   OH211732   1.030   5.834   0.974 -0.1103  0.2089  0.9093
 3909TIP3    H111733   1.119   5.803   0.961  0.3446  1.8617 -0.2378
 3909TIP3    H211734   0.993   5.837   0.885 -0.8794  0.7371  1.2376
 3910TIP3   OH211735   5.085   2.119   0.900  0.1393  0.2234 -0.3370
 3910TIP3    H111736   5.030   2.071   0.838 -0.0560  0.1249 -0.0902
 3910TIP3    H211737   5.162   2.145   0.850 -0.3828  0.8274 -0.8295
 3911TIP3   OH211738   0.420   5.068   0.299  0.3199 -0.3277 -0.1738
 3911TIP3    H111739   0.491   5.073   0.236 -0.0719 -0.0789 -0.5957
 3911TIP3    H211740   0.463   5.048   0.382  0.9376  0.3743 -0.3152
 3912TIP3   OH211741   3.148   3.389   3.512  0.1404 -0.0484  0.6913
 3912TIP3    H111742   3.138   3.437   3.594  1.8220  1.3379  0.1382
 3912TIP3    H211743   3.242   3.370   3.505  0.2085  0.7274 -1.3549
 3913TIP3   OH211744   5.999   0.407   0.196 -0.3883 -0.3504  0.3362
 3913TIP3    H111745   6.013   0.318   0.229 -1.9931 -0.5975  0.4163
 3913TIP3    H211746   5.921   0.400   0.141 -0.3788  0.9661  0.1441
 3914TIP3   OH211747   4.170   4.397   3.465  0.4271  0.1897 -0.4224
 3914TIP3    H111748   4.234   4.326   3.472  0.4403  0.3226  0.9904
 3914TIP3    H211749   4.091   4.364   3.508  0.2271  0.7905 -0.3151
 3915TIP3   OH211750   2.907   4.420  -0.008 -0.6817  0.7787 -0.1211
 3915TIP3    H111751   2.835   4.358  -0.015  0.1848 -0.4706  1.2527
 3915TIP3    H211752   2.876   4.487   0.053 -0.8848  0.5732  0.0012
 3916TIP3   OH211753   3.854   0.560   0.402 -0.2588 -0.0046  0.4241
 3916TIP3    H111754   3.900   0.477   0.415 -0.6348 -0.3788 -0.5510
 3916TIP3    H211755   3.783   0.539   0.341  1.3007  1.5618 -2.1051
 3917TIP3   OH211756   4.938   1.974   1.983 -0.6913  0.4951  0.2991
 3917TIP3    H111757   4.914   1.935   2.068  0.2097 -1.1297 -0.1494
 3917TIP3    H211758   5.032   1.956   1.974 -0.7812  0.6186 -1.0577
 3918TIP3   OH211759   2.055   2.884   0.659  0.1126 -0.3283  0.0829
 3918TIP3    H111760   2.040   2.978   0.670 -1.9548 -0.5694 -0.2893
 3918TIP3    H211761   2.102   2.877   0.577  1.0142  0.4240  0.5185
 3919TIP3   OH211762   2.460   4.297   0.600  0.4565  0.0749 -0.1976
 3919TIP3    H111763   2.420   4.216   0.631  2.5487 -0.2679  1.8620
 3919TIP3    H211764   2.518   4.270   0.529 -1.0809  0.2517 -1.5770
 3920TIP3   OH211765   0.070   5.695   0.666 -0.3045  0.2396  0.1679
 3920TIP3    H111766   0.035   5.771   0.713 -0.4338 -0.7428  1.7294
 3920TIP3    H211767  -0.002   5.666   0.610 -0.5884  0.6816  0.3002
 3921TIP3   OH211768   3.458   4.966   4.187 -0.3345 -0.2477 -0.0646
 3921TIP3    H111769   3.399   5.040   4.201  0.3980  0.4132 -0.4005
 3921TIP3    H211770   3.476   4.968   4.093  1.2256  0.3556  0.2234
 3922TIP3   OH211771   4.201   3.244   2.156 -0.8436  0.2596  0.6575
 3922TIP3    H111772   4.252   3.171   2.122 -2.2230 -1.3088  1.8355
 3922TIP3    H211773   4.254   3.280   2.226 -1.2543 -1.2947  1.8090
 3923TIP3   OH211774   5.185   4.195   2.082  0.4430  0.3514  0.1199
 3923TIP3    H111775   5.108   4.141   2.067  0.4698  0.0072  1.1525
 3923TIP3    H211776   5.248   4.136   2.124  0.7618  0.9707  0.5261
 3924TIP3   OH211777   2.570   3.183   3.553 -0.7441  0.1426  0.3392
 3924TIP3    H111778   2.521   3.105   3.527  0.8107 -1.2751  1.4676
 3924TIP3    H211779   2.522   3.217   3.629 -1.4135  0.2839 -0.1394
 3925TIP3   OH211780   5.689   2.829   4.474 -0.0688 -0.0568 -0.1173
 3925TIP3    H111781   5.691   2.909   4.422  0.2971  0.1349  0.1818
 3925TIP3    H211782   5.733   2.853   4.556  0.3254 -0.6425 -0.1489
 3926TIP3   OH211783   0.344   3.744   0.988  0.1233 -0.5304 -0.0373
 3926TIP3    H111784   0.320   3.834   0.966  0.2669 -0.2034  1.0476
 3926TIP3    H211785   0.321   3.735   1.081 -0.8450 -1.9508 -0.3714
 3927TIP3   OH211786   1.049   2.563   3.209  0.3341 -0.0937  0.1853
 3927TIP3    H111787   1.096   2.632   3.256 -1.0958  1.1541 -0.1150
 3927TIP3    H211788   1.113   2.526   3.149  1.0531  1.2110  0.1161
 3928TIP3   OH211789   5.808   5.970   1.399  0.4661 -0.5308  0.6248
 3928TIP3    H111790   5.801   5.902   1.332 -0.3251 -0.9629  1.1212
 3928TIP3    H211791   5.721   6.010   1.402  0.3953 -0.7214  1.5762
 3929TIP3   OH211792   1.268   2.892   4.484 -0.0214 -0.0352 -1.1869
 3929TIP3    H111793   1.192   2.946   4.509  0.9090  1.3320 -1.1916
 3929TIP3    H211794   1.239   2.846   4.405 -1.3201 -0.6437 -0.3877
 3930TIP3   OH211795   4.743   5.681   3.525 -0.4336  0.4565  0.1805
 3930TIP3    H111796   4.721   5.588   3.528 -0.2782  0.3821 -0.6856
 3930TIP3    H211797   4.673   5.723   3.575 -0.0488 -0.1973  1.2993
 3931TIP3   OH211798   4.997   4.207   4.746 -0.5341 -0.9265  0.3997
 3931TIP3    H111799   4.972   4.120   4.715 -1.0599 -1.2362  1.6553
 3931TIP3    H211800   5.057   4.240   4.679 -1.5839 -1.5951 -0.9058
 3932TIP3   OH211801   0.929   2.213   2.301  0.0977  0.3720  0.1415
 3932TIP3    H111802   0.868   2.142   2.320 -0.6307  0.6639 -0.9890
 3932TIP3    H211803   0.873   2.289   2.283  0.7067  0.4376 -1.7909
 3933TIP3   OH211804   2.797   2.510   0.070  0.3944 -0.1016  0.8802
 3933TIP3    H111805   2.708   2.489   0.098  0.2986  1.8359  2.1993
 3933TIP3    H211806   2.821   2.587   0.121  3.0993 -0.9612  1.0653
 3934TIP3   OH211807   2.884   5.615   3.651 -0.1880  0.3487  0.3428
 3934TIP3    H111808   2.931   5.532   3.650  1.2578  1.1371 -0.1199
 3934TIP3    H211809   2.815   5.603   3.716 -0.4470 -1.4301 -0.2020
 3935TIP3   OH211810   5.028   0.455   0.424 -0.1861  0.2438 -0.1872
 3935TIP3    H111811   5.097   0.517   0.448  0.4244  0.4853 -2.3417
 3935TIP3    H211812   5.049   0.375   0.472  2.1170  0.0418 -1.3925
 3936TIP3   OH211813   0.198   5.846   1.773  0.2493 -0.2657 -0.2929
 3936TIP3    H111814   0.135   5.774   1.770 -0.0350 -0.0693  0.6832
 3936TIP3    H211815   0.234   5.842   1.862 -0.2531  1.2189 -0.0063
 3937TIP3   OH211816   4.790   1.954   3.504  0.1548 -0.3586 -0.2681
 3937TIP3    H111817   4.826   1.962   3.415  0.9052 -0.4654  0.0144
 3937TIP3    H211818   4.817   1.866   3.533 -0.5828 -0.5464 -0.1489
 3938TIP3   OH211819   2.681   5.272   2.109  0.1399  0.2819  0.3113
 3938TIP3    H111820   2.773   5.300   2.111  0.3496 -0.4000  0.9229
 3938TIP3    H211821   2.667   5.244   2.019  0.5363  0.3910  0.2126
 3939TIP3   OH211822   2.563   2.962   4.015  0.1729  0.3812  0.0243
 3939TIP3    H111823   2.605   2.890   4.061  0.6523  0.0983 -0.8354
 3939TIP3    H211824   2.604   3.041   4.051 -1.2760  0.3464  1.9172
 3940TIP3   OH211825   1.464   3.178   1.290  0.2703 -0.1983 -0.3616
 3940TIP3    H111826   1.403   3.213   1.226  0.6660  1.1259 -0.0654
 3940TIP3    H211827   1.544   3.229   1.277 -0.0896  1.1924  2.1050
 3941TIP3   OH211828   3.952   1.224   3.655 -0.0833  0.4243  0.8478
 3941TIP3    H111829   3.971   1.198   3.745  0.8416 -0.3020  0.4641
 3941TIP3    H211830   3.947   1.320   3.658 -0.8447  0.3711  1.7995
 3942TIP3   OH211831   2.420   2.050   2.212  0.0855  0.5727 -0.3147
 3942TIP3    H111832   2.370   1.971   2.234 -0.2201  0.4893 -1.2780
 3942TIP3    H211833   2.507   2.017   2.188 -0.0472  0.5269 -0.7333
 3943TIP3   OH211834   0.721   5.954   3.124 -0.0873 -0.0199 -0.1472
 3943TIP3    H111835   0.681   5.883   3.073  1.9982 -1.4987  0.1301
 3943TIP3    H211836   0.811   5.960   3.091  1.9014 -2.0086  4.0148
 3944TIP3   OH211837   1.128   5.171   3.107  0.4129 -0.1682  0.1831
 3944TIP3    H111838   1.122   5.095   3.049  2.0434  0.5563 -1.0086
 3944TIP3    H211839   1.053   5.226   3.083  0.9102 -0.0065 -1.1066
 3945TIP3   OH211840   5.118   2.099   0.594 -0.2277  0.6018  0.1016
 3945TIP3    H111841   5.077   2.086   0.509  0.4980 -0.8831 -0.0639
 3945TIP3    H211842   5.117   2.194   0.607  0.3742  0.9421 -1.9362
 3946TIP3   OH211843   5.525   1.881   3.387  0.0948 -0.0951 -0.2305
 3946TIP3    H111844   5.553   1.971   3.403  0.3645 -0.3896  1.0862
 3946TIP3    H211845   5.508   1.877   3.293  1.3674  0.9751 -0.5359
 3947TIP3   OH211846   1.566   2.025   3.402 -0.3105 -0.2075 -0.6266
 3947TIP3    H111847   1.575   1.941   3.446 -2.0103  0.2238  0.6179
 3947TIP3    H211848   1.531   2.004   3.316 -1.6158 -0.7308  0.0148
 3948TIP3   OH211849   4.727   4.806   2.472 -0.3927 -0.0826  0.1899
 3948TIP3    H111850   4.657   4.745   2.494 -1.7694  1.2971 -0.2094
 3948TIP3    H211851   4.750   4.848   2.555  0.5678 -1.1216  0.4679
 3949TIP3   OH211852   4.009   0.189   4.716 -0.6933 -0.2760 -0.3689
 3949TIP3    H111853   3.992   0.132   4.641 -1.9454 -1.2309  0.5879
 3949TIP3    H211854   4.007   0.277   4.680 -3.1622 -0.5804 -1.1977
 3950TIP3   OH211855   4.450   1.327   2.133  0.0413 -0.1282 -0.4085
 3950TIP3    H111856   4.418   1.385   2.064  1.4695  0.6350 -0.4664
 3950TIP3    H211857   4.533   1.366   2.160 -0.1550 -0.7945  1.2654
 3951TIP3   OH211858   5.802   1.161   4.028  0.2967  0.1069  0.1432
 3951TIP3    H111859   5.871   1.167   4.093  0.1488  1.5041  0.1952
 3951TIP3    H211860   5.838   1.105   3.959  1.6520  1.1559 -0.0304
 3952TIP3   OH211861   0.296   5.131   3.765 -0.7683 -0.3333 -0.4420
 3952TIP3    H111862   0.209   5.136   3.803 -0.0943  1.0362  1.0363
 3952TIP3    H211863   0.292   5.056   3.706 -2.2472 -1.7850  1.3863
 3953TIP3   OH211864   1.178   2.166   2.186  0.8555  0.3715  0.0350
 3953TIP3    H111865   1.121   2.180   2.262  1.4471  0.7421  0.4121
 3953TIP3    H211866   1.223   2.249   2.174  0.0621  0.6287 -1.3232
 3954TIP3   OH211867   5.428   1.618   3.302  0.1584  0.4061  0.6725
 3954TIP3    H111868   5.489   1.592   3.233  0.7173  0.9995  0.9236
 3954TIP3    H211869   5.479   1.679   3.356 -0.5994  0.7478  1.0113
 3955TIP3   OH211870   6.116   4.115   3.212  0.7378 -0.0560 -0.2136
 3955TIP3    H111871   6.150   4.042   3.159  0.1948 -0.0154 -0.6316
 3955TIP3    H211872   6.111   4.189   3.151  1.4905  0.3974  0.2645
 3956TIP3   OH211873   3.944   3.771   3.045  0.0495  0.0060  0.0346
 3956TIP3    H111874   3.975   3.684   3.020  1.2588  0.5061 -0.2951
 3956TIP3    H211875   4.023   3.826   3.041 -0.7449  1.1631 -0.0210
 3957TIP3   OH211876   1.936   0.941   4.492 -0.4478 -0.1454 -0.2642
 3957TIP3    H111877   1.890   0.928   4.575 -2.2755 -3.3289 -1.5892
 3957TIP3    H211878   1.869   0.975   4.433 -1.1425 -3.8918 -1.9603
 3958TIP3   OH211879   0.539   3.089   3.553 -0.3800  0.0660  0.4655
 3958TIP3    H111880   0.466   3.076   3.613 -0.1250  0.6544  0.9130
 3958TIP3    H211881   0.599   3.146   3.600 -0.1152  0.4335 -0.3033
 3959TIP3   OH211882   5.551   4.349   3.513 -0.0085 -0.4187  0.2615
 3959TIP3    H111883   5.556   4.256   3.535  0.8568  0.0429  2.2907
 3959TIP3    H211884   5.469   4.378   3.552 -0.2950 -0.3283 -0.4007
 3960TIP3   OH211885   4.185   2.587   5.085 -0.1152  0.1224 -0.3186
 3960TIP3    H111886   4.260   2.586   5.027 -0.3554  0.3978 -0.6395
 3960TIP3    H211887   4.133   2.662   5.056  0.5882  1.3083  1.3026
 3961TIP3   OH211888   4.275   1.536   4.588 -0.0208 -0.2675  0.3209
 3961TIP3    H111889   4.297   1.629   4.582  0.2314 -0.3487 -0.1045
 3961TIP3    H211890   4.341   1.493   4.533  0.6054 -0.8227  1.4713
 3962TIP3   OH211891   5.128   3.225   1.534  0.7273  0.0302  0.3066
 3962TIP3    H111892   5.092   3.201   1.619 -1.6124 -0.5002 -0.7514
 3962TIP3    H211893   5.201   3.165   1.521  0.4408 -0.6067  1.4731
 3963TIP3   OH211894   5.665   5.300   1.715 -0.3531 -0.2538 -0.0960
 3963TIP3    H111895   5.715   5.305   1.634  0.8489  0.2801  0.6553
 3963TIP3    H211896   5.574   5.293   1.687  0.0924 -0.6922 -1.4874
 3964TIP3   OH211897   0.276   0.593   4.474  0.4671 -0.3165  0.3850
 3964TIP3    H111898   0.345   0.529   4.459 -0.3667 -0.8765 -1.3160
 3964TIP3    H211899   0.308   0.673   4.432 -0.5278 -1.0148 -1.8400
 3965TIP3   OH211900   1.465   4.950   4.978 -0.5872 -0.0815 -0.2505
 3965TIP3    H111901   1.504   5.002   5.048 -1.8582  0.8145 -0.1661
 3965TIP3    H211902   1.500   4.988   4.897  1.9940 -2.0171 -0.1499
 3966TIP3   OH211903   2.739   5.912   0.938  0.1452  0.3287  0.1245
 3966TIP3    H111904   2.724   5.907   0.844  0.0198  0.4602  0.1387
 3966TIP3    H211905   2.789   5.832   0.958 -0.5733 -0.1353  0.0948
 3967TIP3   OH211906   0.556   4.536   1.388 -0.1155  0.2569  0.6341
 3967TIP3    H111907   0.617   4.561   1.318  0.4169 -0.6951  0.7459
 3967TIP3    H211908   0.572   4.599   1.458  2.1269 -1.1119  1.4287
 3968TIP3   OH211909   2.205   4.618   3.890 -0.4282  0.0042  0.1733
 3968TIP3    H111910   2.180   4.530   3.863 -0.6233  0.5140 -1.3816
 3968TIP3    H211911   2.144   4.675   3.845 -0.3174  0.9517  1.1795
 3969TIP3   OH211912   0.829   5.641   3.135  0.2299 -0.1152 -0.4068
 3969TIP3    H111913   0.865   5.648   3.047 -1.0410 -0.1955 -0.9643
 3969TIP3    H211914   0.903   5.655   3.193  0.8650  1.1807 -1.4847
 3970TIP3   OH211915   4.933   1.184   2.354  0.0202  0.3189  0.5525
 3970TIP3    H111916   4.945   1.113   2.291 -1.6330  1.4161 -1.0840
 3970TIP3    H211917   5.018   1.228   2.357  0.3620 -0.2632 -0.2842
 3971TIP3   OH211918   4.344   0.276   1.009 -0.0515 -0.5877 -0.6728
 3971TIP3    H111919   4.313   0.277   0.918  0.1889  0.3295 -0.7586
 3971TIP3    H211920   4.432   0.239   1.004 -0.6358 -2.0611 -0.5865
 3972TIP3   OH211921   1.924   0.703   1.355  0.1234 -0.3738  0.7672
 3972TIP3    H111922   2.005   0.704   1.407  0.3236  0.2199  0.4500
 3972TIP3    H211923   1.929   0.621   1.306 -0.0816 -0.9586  1.7003
 3973TIP3   OH211924   1.861   2.771   5.135 -0.0357  0.0601 -0.5482
 3973TIP3    H111925   1.898   2.841   5.188  0.6083 -0.8223  0.1881
 3973TIP3    H211926   1.821   2.816   5.060  0.4944  1.1927 -0.1670
 3974TIP3   OH211927   1.690   1.821   4.212 -0.4954 -0.5184  0.6957
 3974TIP3    H111928   1.761   1.878   4.240 -2.2227  0.7440  2.8323
 3974TIP3    H211929   1.723   1.732   4.226  0.6412  0.0315  1.6593
 3975TIP3   OH211930   5.037   0.305   1.778  0.8985 -0.6627 -0.0558
 3975TIP3    H111931   5.125   0.289   1.812  1.2772 -2.2886 -1.6568
 3975TIP3    H211932   4.981   0.245   1.827  0.7919 -0.1420  0.4637
 3976TIP3   OH211933   4.810   1.244   3.199 -0.1447  0.3816 -0.3428
 3976TIP3    H111934   4.901   1.237   3.228  0.6644 -2.5972 -3.0156
 3976TIP3    H211935   4.763   1.184   3.256 -0.0447  0.3994 -0.2399
 3977TIP3   OH211936   3.170   0.359   0.494 -0.3104  0.0261 -0.0117
 3977TIP3    H111937   3.204   0.420   0.560 -3.1569  0.5892  1.0721
 3977TIP3    H211938   3.109   0.412   0.442 -0.3054 -1.1336 -1.2442
 3978TIP3   OH211939   2.437   2.426   1.674  0.0829  0.0290 -0.3231
 3978TIP3    H111940   2.531   2.408   1.669  0.0543 -0.4734  0.7090
 3978TIP3    H211941   2.405   2.409   1.585  0.6319 -1.8492 -0.2132
 3979TIP3   OH211942   4.041   0.591   2.274 -0.5709 -0.1936  0.4442
 3979TIP3    H111943   4.113   0.527   2.281 -1.8849 -1.6511  1.2867
 3979TIP3    H211944   4.013   0.586   2.183 -0.3650 -0.4910  0.3939
 3980TIP3   OH211945   0.615   4.515   4.112  0.4797  0.0176 -0.4612
 3980TIP3    H111946   0.659   4.599   4.125  0.0530 -0.0353  1.6380
 3980TIP3    H211947   0.630   4.467   4.193 -0.2565 -1.5030 -1.1809
 3981TIP3   OH211948   2.778   1.417   0.669  0.1128  0.4612 -0.1986
 3981TIP3    H111949   2.726   1.486   0.629  1.0228  0.2425 -1.8363
 3981TIP3    H211950   2.715   1.348   0.688 -0.3515  0.5275 -1.3865
 3982TIP3   OH211951   1.960   5.300   1.122 -0.5666  0.3159 -0.6948
 3982TIP3    H111952   1.965   5.375   1.181 -3.5288  0.3320 -0.2979
 3982TIP3    H211953   1.889   5.322   1.061 -0.6724 -1.6445 -1.3567
 3983TIP3   OH211954   3.951   0.992   2.245 -0.3998 -0.2288  0.1304
 3983TIP3    H111955   3.887   0.950   2.187 -0.1357 -1.0031  0.3891
 3983TIP3    H211956   3.980   1.069   2.197 -2.5038  0.9188  0.5376
 3984TIP3   OH211957   5.264   1.575   2.278 -0.4603 -0.0417  0.3319
 3984TIP3    H111958   5.234   1.559   2.188 -0.6100 -4.1934  0.9117
 3984TIP3    H211959   5.345   1.625   2.268  0.5574 -1.9819 -2.3276
 3985TIP3   OH211960   3.079   5.529   2.048 -0.0723  0.5111  0.0598
 3985TIP3    H111961   3.114   5.530   2.137  0.8399 -1.1675 -0.2390
 3985TIP3    H211962   3.057   5.437   2.032  1.0310  0.5273 -1.8991
 3986TIP3   OH211963   1.379   2.184   2.859 -0.3480 -0.1245 -0.1549
 3986TIP3    H111964   1.450   2.190   2.795  0.8981  1.9531  1.3291
 3986TIP3    H211965   1.332   2.267   2.851 -1.5222 -0.7432  0.1252
 3987TIP3   OH211966   4.368   1.790   5.021 -0.0093 -0.6608 -0.3591
 3987TIP3    H111967   4.300   1.854   5.043  2.3668  1.5453  1.1765
 3987TIP3    H211968   4.395   1.813   4.932  0.7717  0.5175  0.1535
 3988TIP3   OH211969   3.882   0.135   0.133  0.4047 -0.1376  0.0059
 3988TIP3    H111970   3.863   0.066   0.197 -1.0079  0.3295  0.1088
 3988TIP3    H211971   3.861   0.095   0.048  1.4489 -0.4629 -0.1176
 3989TIP3   OH211972   4.275   1.278   5.107  0.0812  0.2503  0.0932
 3989TIP3    H111973   4.313   1.326   5.034 -0.5386 -0.0898 -0.4586
 3989TIP3    H211974   4.197   1.235   5.071 -0.1834 -0.0004  0.9223
 3990TIP3   OH211975   2.337   5.345   1.070  0.1588  0.4257  0.6798
 3990TIP3    H111976   2.276   5.358   0.997  2.1134 -0.3055 -1.1984
 3990TIP3    H211977   2.307   5.266   1.114 -2.2111  1.9497  1.9996
 3991TIP3   OH211978   0.291   5.173   2.034 -0.0739 -0.2125  0.1951
 3991TIP3    H111979   0.308   5.112   1.962  3.1286  0.8804 -0.1401
 3991TIP3    H211980   0.274   5.118   2.110  0.2439 -1.4847 -0.6335
 3992TIP3   OH211981   0.998   1.900   0.109 -0.0177 -0.5209  0.0215
 3992TIP3    H111982   1.054   1.859   0.174 -0.6276 -0.0609  0.8594
 3992TIP3    H211983   1.058   1.942   0.048  0.5598 -0.3437  0.7001
 3993TIP3   OH211984   5.692   0.753   1.871  0.0335 -0.3974 -0.3864
 3993TIP3    H111985   5.721   0.836   1.833 -0.5976 -0.9243 -2.1165
 3993TIP3    H211986   5.597   0.755   1.862 -0.2099 -0.2926  1.7985
 3994TIP3   OH211987   4.106   3.669   2.807 -0.2224 -0.2102 -0.2011
 3994TIP3    H111988   4.151   3.612   2.744  0.0268  1.2525 -1.4103
 3994TIP3    H211989   4.174   3.698   2.867 -0.3574 -1.1885  0.4421
 3995TIP3   OH211990   2.102   4.020   0.529 -0.1493  0.3330 -0.0180
 3995TIP3    H111991   2.126   4.086   0.464  0.1682 -0.7923 -1.0861
 3995TIP3    H211992   2.180   4.011   0.584 -0.5877  1.6453  0.8799
 3996TIP3   OH211993   2.013   2.290   1.107  0.0446  0.2446  0.5880
 3996TIP3    H111994   2.005   2.314   1.200 -0.2639  1.3032  0.2950
 3996TIP3    H211995   2.053   2.366   1.066 -1.3824  0.4810 -0.4445
 3997TIP3   OH211996   4.303   4.843   3.347  0.0176 -0.0266 -0.3297
 3997TIP3    H111997   4.353   4.814   3.424  1.1658 -0.0042 -1.0444
 3997TIP3    H211998   4.261   4.764   3.314 -0.7741  0.0258  0.5149
 3998TIP3   OH211999   1.133   3.873   4.966  0.2622 -0.2023 -0.1735
 3998TIP3    H112000   1.139   3.868   4.870  2.2426 -0.5288 -0.0655
 3998TIP3    H212001   1.171   3.791   4.997 -2.2420 -1.0619  0.9129
 3999TIP3   OH212002   1.922   0.050   2.723 -0.0117 -0.7521  0.0702
 3999TIP3    H112003   1.838   0.018   2.754 -0.4669  1.2136  0.9935
 3999TIP3    H212004   1.948   0.117   2.787  1.5395 -0.2612 -1.0053
 4000TIP3   OH212005   2.510   5.361   0.223 -0.7680 -0.3889  0.1263
 4000TIP3    H112006   2.432   5.410   0.251  1.1318  2.4760  0.9521
 4000TIP3    H212007   2.553   5.419   0.160  1.5577 -1.0643  0.9959
 4001TIP3   OH212008   6.201   4.280   1.997  0.1282 -0.0208 -0.2635
 4001TIP3    H112009   6.127   4.258   2.053  0.0716 -1.2778 -0.8004
 4001TIP3    H212010   6.190   4.373   1.977 -2.1488 -0.5112 -1.5664
 4002TIP3   OH212011   1.284   3.220   5.104 -0.0419 -0.3238 -0.0365
 4002TIP3    H112012   1.359   3.217   5.044  1.3761  0.1452  1.6317
 4002TIP3    H212013   1.258   3.129   5.115  0.3336 -0.4998 -0.5869
 4003TIP3   OH212014   6.224   5.234   2.393  0.3902 -0.0036  0.3921
 4003TIP3    H112015   6.314   5.201   2.389  0.2832 -0.4602  1.5090
 4003TIP3    H212016   6.203   5.235   2.486 -0.4270  1.0472  0.2102
 4004TIP3   OH212017   6.251   0.424   1.225 -0.3528  0.2794 -0.1884
 4004TIP3    H112018   6.186   0.368   1.183 -0.3237 -0.7120  1.0438
 4004TIP3    H212019   6.278   0.485   1.156  0.7717 -2.1806 -2.0532
 4005TIP3   OH212020   3.994   1.491   0.245  0.0549  0.4686  0.3936
 4005TIP3    H112021   4.066   1.470   0.186  0.8818  1.4099  1.0333
 4005TIP3    H212022   4.033   1.484   0.333 -1.2277 -1.2529  0.8898
 4006TIP3   OH212023   1.615   0.215   2.244  0.2304  0.2367  0.0292
 4006TIP3    H112024   1.699   0.260   2.234  0.0923  1.0375  2.0342
 4006TIP3    H212025   1.550   0.285   2.237 -0.2015 -0.1708 -0.0902
 4007TIP3   OH212026   3.253   2.627   3.033  0.1632 -0.5639 -0.3311
 4007TIP3    H112027   3.247   2.669   2.947  0.5609 -0.8711 -0.5115
 4007TIP3    H212028   3.166   2.591   3.048  0.2648 -1.0730 -0.9040
 4008TIP3   OH212029   1.393   4.298   3.011 -0.4051 -0.0311  0.1662
 4008TIP3    H112030   1.372   4.361   3.081  0.7104 -0.4207  0.8817
 4008TIP3    H212031   1.370   4.213   3.048 -1.9459 -0.0786 -0.8142
 4009TIP3   OH212032   4.354   4.409   4.015 -0.0164  0.4295  0.2896
 4009TIP3    H112033   4.288   4.469   4.048  0.5380  0.4154  1.4797
 4009TIP3    H212034   4.378   4.445   3.930 -1.4830  0.4705 -0.1288
 4010TIP3   OH212035   5.139   1.638   1.175 -0.0702 -0.5225  0.8859
 4010TIP3    H112036   5.140   1.550   1.212  2.4186 -1.0712 -0.2549
 4010TIP3    H212037   5.194   1.632   1.097  0.3261  2.0844  0.8634
 4011TIP3   OH212038   1.942   2.058   2.036  0.6180  0.1328  0.7093
 4011TIP3    H112039   2.008   2.092   2.095  0.7486  1.3161 -0.0921
 4011TIP3    H212040   1.940   2.119   1.963  0.5337 -1.3432 -0.5824
 4012TIP3   OH212041   1.444   2.219   4.085 -0.3771  0.0844  0.3449
 4012TIP3    H112042   1.370   2.230   4.026 -0.8068 -1.3000  0.5924
 4012TIP3    H212043   1.520   2.251   4.035 -1.1128  1.4800  0.0815
 4013TIP3   OH212044   5.360   5.576   1.344  0.2957 -0.2291 -0.0527
 4013TIP3    H112045   5.275   5.543   1.371 -0.0421 -0.3533 -1.2084
 4013TIP3    H212046   5.341   5.644   1.279  1.0612  0.0755  0.0231
 4014TIP3   OH212047   4.687   0.531   1.890 -0.1866  0.1141 -0.2398
 4014TIP3    H112048   4.631   0.543   1.813 -0.1742 -1.3223 -0.5027
 4014TIP3    H212049   4.776   0.547   1.858 -0.1254 -1.0435 -0.6774
 4015TIP3   OH212050   3.223   5.296   5.072  0.2193 -0.6271 -0.2932
 4015TIP3    H112051   3.206   5.319   5.163 -0.8477 -0.4987 -0.5063
 4015TIP3    H212052   3.279   5.366   5.039 -1.3158  0.6162 -0.3654
 4016TIP3   OH212053   4.250   2.072   3.362  0.2323  0.2575  0.3992
 4016TIP3    H112054   4.335   2.082   3.405  0.2914 -1.8232  0.8827
 4016TIP3    H212055   4.215   1.990   3.397 -1.5069  0.5249 -0.5957
 4017TIP3   OH212056   5.231   1.130   4.186 -0.0329 -0.6797 -0.3323
 4017TIP3    H112057   5.253   1.046   4.225 -1.2975 -1.2229 -0.7349
 4017TIP3    H212058   5.300   1.145   4.121  2.1457  0.2666  2.0215
 4018TIP3   OH212059   1.928   2.704   0.348  0.3053  0.4734 -0.5573
 4018TIP3    H112060   1.875   2.721   0.270 -2.2484  1.4301  1.2534
 4018TIP3    H212061   1.928   2.786   0.396  0.7024 -0.4253  1.0670
 4019TIP3   OH212062   4.809   2.286   2.117 -0.1895  0.5195 -0.1320
 4019TIP3    H112063   4.904   2.293   2.115 -0.2565  1.3714 -0.5659
 4019TIP3    H212064   4.785   2.259   2.028 -0.2708 -1.0397  0.3265
 4020TIP3   OH212065   4.131   3.281   1.585 -0.1933 -0.5539 -0.1756
 4020TIP3    H112066   4.222   3.295   1.611  0.4212 -5.6047  1.5016
 4020TIP3    H212067   4.112   3.353   1.525  3.7898  2.5274  1.7881
 4021TIP3   OH212068   2.301   5.352   1.449 -0.2685  0.2675 -0.0747
 4021TIP3    H112069   2.354   5.333   1.527  0.7614  1.0285 -0.5548
 4021TIP3    H212070   2.292   5.268   1.405  1.3558  0.2583 -0.4517
 4022TIP3   OH212071   3.406   0.327   5.163  0.0277  0.6613 -0.5674
 4022TIP3    H112072   3.484   0.335   5.109 -1.0973  1.1371 -2.1773
 4022TIP3    H212073   3.370   0.416   5.166 -0.0100  0.6364  0.9174
 4023TIP3   OH212074   0.900   2.916   0.282 -0.2035 -0.0381  0.1798
 4023TIP3    H112075   0.887   2.992   0.339 -2.7635 -0.1483 -0.1516
 4023TIP3    H212076   0.925   2.845   0.343 -1.4475  0.2042  1.0141
 4024TIP3   OH212077   4.281   0.853   0.305 -0.4015  0.0325 -0.1012
 4024TIP3    H112078   4.298   0.842   0.211  2.4431 -0.2034  0.3440
 4024TIP3    H212079   4.334   0.786   0.347  0.0154  1.4491  1.7530
 4025TIP3   OH212080   3.155   5.256   2.717 -0.1539 -0.1187 -0.2795
 4025TIP3    H112081   3.109   5.184   2.761 -0.8292  1.5299  1.8495
 4025TIP3    H212082   3.214   5.291   2.784 -0.4424  1.8474 -0.9990
 4026TIP3   OH212083   5.744   5.251   1.453 -0.1822 -0.2190 -0.4974
 4026TIP3    H112084   5.781   5.181   1.399 -0.4288  0.3544 -1.4267
 4026TIP3    H212085   5.655   5.222   1.472  0.1047 -0.7145  0.1550
 4027TIP3   OH212086   2.000   2.467   3.026  0.0434 -0.3815 -0.6221
 4027TIP3    H112087   1.921   2.512   3.054  1.0507  1.3288 -0.3572
 4027TIP3    H212088   2.005   2.483   2.931 -0.2504 -1.0243 -0.7478
 4028TIP3   OH212089   2.974   0.525   5.151 -0.6808  0.1815  0.5607
 4028TIP3    H112090   2.964   0.502   5.243 -1.9075 -2.5857 -0.1769
 4028TIP3    H212091   2.888   0.509   5.113 -0.1141  0.9594 -1.1595
 4029TIP3   OH212092   0.341   1.409   0.542 -0.4948  0.6447  0.5170
 4029TIP3    H112093   0.394   1.338   0.507  0.8433  2.0885 -0.5455
 4029TIP3    H212094   0.260   1.367   0.572  0.0308 -1.2193 -0.5539
 4030TIP3   OH212095   4.101   1.410   3.271 -0.6520  0.2181 -0.1615
 4030TIP3    H112096   4.028   1.427   3.330 -1.5584  1.2151 -1.4874
 4030TIP3    H212097   4.178   1.406   3.327 -1.1397  3.4575  0.9223
 4031TIP3   OH212098   2.950   5.239   2.011 -0.4699 -0.3987  0.1215
 4031TIP3    H112099   2.921   5.148   2.008 -1.2808 -0.2409  1.7078
 4031TIP3    H212100   2.999   5.246   2.094  0.2081  0.4441 -0.3270
 4032TIP3   OH212101   4.339   1.301   2.697 -0.4078  0.5243 -0.1639
 4032TIP3    H112102   4.422   1.265   2.728 -0.1459 -0.2197 -1.6375
 4032TIP3    H212103   4.322   1.256   2.614 -1.8288  1.3198 -0.3498
 4033TIP3   OH212104   0.896   3.701   2.797  0.4978  0.2538 -0.0998
 4033TIP3    H112105   0.888   3.776   2.856 -0.3913 -0.2836  0.4796
 4033TIP3    H212106   0.987   3.673   2.806  0.3421  0.0915  1.1521
 4034TIP3   OH212107   0.094   3.941   1.806 -0.1313  0.1176 -0.0637
 4034TIP3    H112108   0.127   3.864   1.760 -1.4242  0.6547 -2.0072
 4034TIP3    H212109   0.078   3.911   1.895  0.3856 -1.5587 -0.5059
 4035TIP3   OH212110   0.217   3.706   1.646 -0.3900 -0.1245  0.0495
 4035TIP3    H112111   0.214   3.614   1.673 -0.7771  0.2184  1.2280
 4035TIP3    H212112   0.308   3.721   1.624 -0.1581 -0.5821  0.6575
 4036TIP3   OH212113   0.401   2.902   0.489 -0.5109 -0.5658  0.7452
 4036TIP3    H112114   0.429   2.945   0.409 -2.1184  1.1064  1.0183
 4036TIP3    H212115   0.366   2.817   0.460  0.3046 -0.6158 -0.1214
 4037TIP3   OH212116   1.377   0.726   2.339 -0.3926  0.0032 -0.2898
 4037TIP3    H112117   1.337   0.716   2.425  1.3229 -1.7318  0.3853
 4037TIP3    H212118   1.454   0.779   2.354 -0.3342  0.0861 -0.8519
 4038TIP3   OH212119   4.959   3.933   3.989 -0.4438  0.5382  0.1279
 4038TIP3    H112120   5.047   3.907   3.962 -0.0420  2.1960 -0.2353
 4038TIP3    H212121   4.921   3.853   4.025  0.6739 -0.5774 -1.0777
 4039TIP3   OH212122   0.903   1.168   0.591  0.1246  0.1807 -0.3469
 4039TIP3    H112123   0.911   1.260   0.565 -0.5020  1.3357  3.0650
 4039TIP3    H212124   0.990   1.144   0.623  0.2417 -0.4170 -1.0721
 4040TIP3   OH212125   1.821   3.740   3.121 -0.7503 -0.7194 -0.0275
 4040TIP3    H112126   1.823   3.734   3.216  0.0640 -0.3558 -0.0143
 4040TIP3    H212127   1.883   3.809   3.099  1.2261 -2.6550 -0.9534
 4041TIP3   OH212128   1.152   0.180   1.506  0.4691 -0.3801  0.4547
 4041TIP3    H112129   1.228   0.179   1.564  0.4791  1.8227  0.5712
 4041TIP3    H212130   1.079   0.155   1.563  0.5395  1.3720  1.3845
 4042TIP3   OH212131   5.656   3.806   4.228 -0.2719 -0.2008 -0.2987
 4042TIP3    H112132   5.730   3.745   4.229  1.5902  1.9311 -0.4326
 4042TIP3    H212133   5.657   3.847   4.314 -0.7063  0.5563 -0.6457
 4043TIP3   OH212134   1.744   1.567   2.615 -0.3909 -0.1182 -0.2140
 4043TIP3    H112135   1.656   1.566   2.653 -0.9340 -0.6021 -1.4540
 4043TIP3    H212136   1.799   1.526   2.682 -1.3284 -0.9672  0.0627
 4044TIP3   OH212137   2.021   2.797   4.560 -0.6999 -0.2642 -0.3892
 4044TIP3    H112138   2.114   2.784   4.579 -1.1152 -0.4507  1.8849
 4044TIP3    H212139   2.019   2.839   4.474  1.4280 -1.0344 -0.8765
 4045TIP3   OH212140   2.450   5.363   1.699 -0.2931  0.3792  0.5626
 4045TIP3    H112141   2.500   5.294   1.656 -0.3778  0.0988  0.9095
 4045TIP3    H212142   2.496   5.444   1.677 -0.5781  0.2936 -0.4096
 4046TIP3   OH212143   5.207   5.779   1.209 -0.1364  0.3577  0.9215
 4046TIP3    H112144   5.165   5.850   1.258 -1.4350  0.8637 -0.8277
 4046TIP3    H212145   5.134   5.730   1.171  0.7621 -1.5252  1.4942
 4047TIP3   OH212146   0.071   1.577   4.715 -0.2375  0.6998 -0.0670
 4047TIP3    H112147   0.029   1.492   4.711  2.2363 -0.6529  0.5511
 4047TIP3    H212148  -0.001   1.640   4.709 -2.0835 -1.3789 -1.3633
 4048TIP3   OH212149   0.796   5.234   2.524  0.5850  0.1356  0.3641
 4048TIP3    H112150   0.785   5.324   2.494 -0.2943 -0.6953 -2.0806
 4048TIP3    H212151   0.707   5.201   2.535  0.8756 -0.7044  0.2858
 4049TIP3   OH212152   6.077   4.786   1.888 -0.0403  0.3536 -0.3489
 4049TIP3    H112153   6.138   4.821   1.822 -0.2284 -0.0498 -0.7390
 4049TIP3    H212154   6.008   4.852   1.893  0.5559  0.9518  0.2988
 4050TIP3   OH212155   0.595   2.775   1.594  0.4144  0.2331  0.3244
 4050TIP3    H112156   0.534   2.722   1.545  0.1043  2.3926 -1.8152
 4050TIP3    H212157   0.580   2.751   1.686 -3.8991  0.8661 -0.0221
 4051TIP3   OH212158   3.233   1.334   4.263 -0.1387 -0.1641  0.0391
 4051TIP3    H112159   3.245   1.326   4.358 -0.3843 -0.6571  0.0287
 4051TIP3    H212160   3.223   1.428   4.249 -0.1603 -0.0903  0.5093
 4052TIP3   OH212161   2.745   0.251   2.181 -0.2193  0.0628 -0.3915
 4052TIP3    H112162   2.750   0.191   2.256  0.8649  2.2117  1.3926
 4052TIP3    H212163   2.812   0.219   2.121  0.1092 -0.7081  0.3551
 4053TIP3   OH212164   3.905   1.224   2.844  0.1226  0.1760  0.1397
 4053TIP3    H112165   3.918   1.174   2.763  0.6889 -0.2708  0.5017
 4053TIP3    H212166   3.992   1.226   2.884 -0.2844 -0.1407  1.0473
 4054TIP3   OH212167   6.030   4.072   3.496  0.0023  0.0644 -0.2229
 4054TIP3    H112168   5.937   4.084   3.475 -0.1263 -0.5379 -0.0173
 4054TIP3    H212169   6.075   4.078   3.412 -0.1552  0.9589 -0.2506
 4055TIP3   OH212170   2.816   0.118   1.022  0.1625  0.8608 -0.2397
 4055TIP3    H112171   2.885   0.171   0.982 -1.7292  3.1768 -0.5919
 4055TIP3    H212172   2.818   0.142   1.115  2.8215 -2.6053  0.8379
 4056TIP3   OH212173   0.600   2.371   1.904 -0.6223  0.3507  0.2885
 4056TIP3    H112174   0.623   2.394   1.994 -1.0242 -0.1416  0.5258
 4056TIP3    H212175   0.527   2.429   1.882  1.6724  2.9794 -0.9950
 4057TIP3   OH212176   1.056   5.049   4.733  0.5503  0.2562  0.2335
 4057TIP3    H112177   0.967   5.015   4.717  0.1064  1.7215 -0.5769
 4057TIP3    H212178   1.058   5.065   4.827 -1.0537  2.7515 -0.0629
 4058TIP3   OH212179   2.429   2.952   4.440 -0.4571 -0.0456 -0.0993
 4058TIP3    H112180   2.402   2.997   4.520  0.5460 -0.1392  0.3020
 4058TIP3    H212181   2.387   2.866   4.446 -0.2999 -0.0906  0.3821
 4059TIP3   OH212182   3.438   5.810   0.538  0.4952  0.1400  1.1023
 4059TIP3    H112183   3.521   5.771   0.565  0.7263 -0.3947 -0.2874
 4059TIP3    H212184   3.424   5.778   0.449 -1.8896 -0.8568  1.7667
 4060TIP3   OH212185   6.194   2.977   1.258 -0.9667  0.3329 -0.1467
 4060TIP3    H112186   6.123   2.986   1.195 -0.9771  0.6951 -0.0854
 4060TIP3    H212187   6.249   3.054   1.245 -0.8777  0.3276  0.1737
 4061TIP3   OH212188   0.853   2.311   3.586  0.6114 -0.3441  0.2417
 4061TIP3    H112189   0.853   2.402   3.557 -1.1976 -0.9380 -1.8092
 4061TIP3    H212190   0.763   2.294   3.613  0.8595 -1.6265  0.3095
 4062TIP3   OH212191   4.490   0.082   5.081 -0.7026  0.1762  0.4645
 4062TIP3    H112192   4.539   0.012   5.037  0.5385  0.4475  1.3709
 4062TIP3    H212193   4.398   0.058   5.068 -0.5895  1.2434 -3.9384
 4063TIP3   OH212194   1.322   3.766   4.364 -0.1442  0.0097 -0.3367
 4063TIP3    H112195   1.227   3.759   4.377 -0.0741  0.4684  0.4595
 4063TIP3    H212196   1.354   3.676   4.372 -0.4465 -0.0795 -0.1203
 4064TIP3   OH212197   3.537   3.603   0.069  0.7209  0.1329 -0.0598
 4064TIP3    H112198   3.602   3.651   0.120  1.2424  0.2533 -0.8198
 4064TIP3    H212199   3.489   3.670   0.021 -0.0569  0.0539  0.5930
 4065TIP3   OH212200   5.390   1.637   0.610  0.3407  0.5320 -0.6129
 4065TIP3    H112201   5.329   1.692   0.561 -0.6942 -0.2845 -0.2717
 4065TIP3    H212202   5.338   1.562   0.638  0.5260  1.5301  2.8272
 4066TIP3   OH212203   3.081   5.445   1.389  0.3348 -0.3600  0.3294
 4066TIP3    H112204   3.093   5.476   1.299 -0.4939  0.0452  0.3508
 4066TIP3    H212205   3.069   5.525   1.440 -0.9499 -0.6691  0.5275
 4067TIP3   OH212206   2.430   5.425   5.117  0.2807 -0.5372 -0.8992
 4067TIP3    H112207   2.516   5.466   5.127 -0.3164  0.5337  0.0795
 4067TIP3    H212208   2.449   5.335   5.094  1.6592 -0.0285 -1.8873
 4068TIP3   OH212209   3.259   2.787   2.514 -0.1500  0.2040  0.1773
 4068TIP3    H112210   3.249   2.774   2.420  0.4348 -1.3892  0.3085
 4068TIP3    H212211   3.350   2.762   2.532 -0.6065 -0.7084  1.3357
 4069TIP3   OH212212   5.475   0.303   0.699 -0.1000  0.0174  0.2954
 4069TIP3    H112213   5.474   0.332   0.790  0.9564 -0.0301  0.3350
 4069TIP3    H212214   5.475   0.384   0.648  1.0316  0.0790  0.3749
 4070TIP3   OH212215   2.334   0.407   4.230 -0.8716  0.4201 -0.2211
 4070TIP3    H112216   2.294   0.493   4.239 -0.6155  0.6925 -1.5081
 4070TIP3    H212217   2.408   0.421   4.171  0.6443 -0.2326  1.4184
 4071TIP3   OH212218   0.965   0.861   0.190  0.3818 -0.3558 -0.7126
 4071TIP3    H112219   0.891   0.921   0.184  1.0209  0.5060 -0.1683
 4071TIP3    H212220   0.962   0.811   0.108 -0.1542  0.4132 -1.1759
 4072TIP3   OH212221   4.196   2.441   3.039 -0.4218 -0.0554  0.0175
 4072TIP3    H112222   4.216   2.347   3.034 -1.4846 -0.2360 -1.2160
 4072TIP3    H212223   4.277   2.480   3.071  0.4169 -1.2646 -0.5350
 4073TIP3   OH212224   1.357   3.084   4.683 -0.1807 -0.0935  0.6886
 4073TIP3    H112225   1.270   3.102   4.719 -0.4149  1.2079 -0.4529
 4073TIP3    H212226   1.341   3.019   4.615  0.1182 -1.7360  2.1110
 4074TIP3   OH212227   6.303   0.592   2.598 -0.1197 -0.0076  0.5988
 4074TIP3    H112228   6.304   0.654   2.526  0.4958  0.7138  1.2097
 4074TIP3    H212229   6.332   0.643   2.674 -0.4287 -0.8322  1.2854
 4075TIP3   OH212230   5.539   3.710   0.784  0.1503  0.2040 -0.3526
 4075TIP3    H112231   5.619   3.673   0.748 -0.3939 -1.4753  0.1020
 4075TIP3    H212232   5.514   3.650   0.854 -1.3951  0.8128 -0.3486
 4076TIP3   OH212233   1.115   5.920   3.323  0.0337  0.2520 -0.3486
 4076TIP3    H112234   1.075   5.943   3.239  0.8182 -1.1631 -1.1454
 4076TIP3    H212235   1.205   5.954   3.316  0.8418 -1.8616 -1.0774
 4077TIP3   OH212236   2.151   0.036   4.288  0.0931 -0.1855  0.0517
 4077TIP3    H112237   2.142   0.082   4.372  0.4565  0.3772 -0.2163
 4077TIP3    H212238   2.213  -0.035   4.307  0.2514 -0.0013  0.2344
 4078TIP3   OH212239   2.191   5.821   2.962  0.1619 -0.6222 -0.1128
 4078TIP3    H112240   2.201   5.763   3.038 -1.6508 -0.6387  0.1536
 4078TIP3    H212241   2.143   5.896   2.996 -3.5041 -1.9961 -1.7942
 4079TIP3   OH212242   2.360   1.523   0.783  0.1308  0.1488 -0.0559
 4079TIP3    H112243   2.396   1.449   0.735 -3.4000 -0.5800 -1.9229
 4079TIP3    H212244   2.313   1.483   0.857  0.2283  0.7352  0.3290
 4080TIP3   OH212245   2.492   5.821   1.038 -0.1891 -0.1359  0.1061
 4080TIP3    H112246   2.575   5.860   1.011  0.0790  1.0117  2.3205
 4080TIP3    H212247   2.511   5.728   1.049  0.8518  0.1245  0.6154
 4081TIP3   OH212248   5.248   4.610   3.890 -0.2447 -0.5733  0.0925
 4081TIP3    H112249   5.319   4.546   3.895 -0.4163 -0.7461  0.3353
 4081TIP3    H212250   5.178   4.573   3.944 -0.3180 -0.1452  0.2960
 4082TIP3   OH212251   3.740   3.786   3.496  0.0518 -0.2268  0.0227
 4082TIP3    H112252   3.679   3.738   3.440  1.0364  0.5689 -1.8308
 4082TIP3    H212253   3.827   3.756   3.468  0.8059  3.2183 -2.0268
 4083TIP3   OH212254   1.384   1.480   4.990  0.4388  0.1488  0.3108
 4083TIP3    H112255   1.455   1.529   5.031  1.5509 -1.0980 -0.0387
 4083TIP3    H212256   1.397   1.493   4.896 -0.6445  1.0252  0.2625
 4084TIP3   OH212257   4.579   0.612   4.395  0.0598  0.3858 -0.0850
 4084TIP3    H112258   4.582   0.607   4.300  1.0018  0.2223 -0.0560
 4084TIP3    H212259   4.623   0.694   4.417 -0.1719  0.4350  0.2013
 4085TIP3   OH212260   0.755   0.444   1.169  0.4239 -0.7121  0.7350
 4085TIP3    H112261   0.715   0.522   1.206  1.1680 -1.1049  2.4958
 4085TIP3    H212262   0.718   0.437   1.081 -2.1890 -0.2372  1.7106
 4086TIP3   OH212263   4.525   0.474   1.650 -0.3592  0.0980 -0.2571
 4086TIP3    H112264   4.597   0.470   1.587  0.1980  2.0177  0.1830
 4086TIP3    H212265   4.453   0.514   1.602 -0.6011 -0.2880 -0.2234
 4087TIP3   OH212266   2.431   4.283   1.186  0.2355  0.6605  0.7100
 4087TIP3    H112267   2.423   4.293   1.091  1.3531 -1.2480  0.3645
 4087TIP3    H212268   2.415   4.371   1.220  0.0237  1.4471 -1.2463
 4088TIP3   OH212269   0.085   3.796   2.024 -0.3816  0.0488  0.8609
 4088TIP3    H112270   0.168   3.771   2.064  0.6829 -1.0552 -1.8051
 4088TIP3    H212271   0.033   3.716   2.024  0.1257 -0.3190 -0.9737
 4089TIP3   OH212272   4.144   5.771   4.243  0.3009  0.4895 -0.1894
 4089TIP3    H112273   4.092   5.850   4.258 -1.6557 -0.7977  0.2035
 4089TIP3    H212274   4.174   5.778   4.153 -2.2911  0.4154 -1.1588
 4090TIP3   OH212275   0.795   4.393   1.065  0.0142  0.2094 -0.6083
 4090TIP3    H112276   0.823   4.432   0.983  2.6397 -0.1806  0.0222
 4090TIP3    H212277   0.781   4.467   1.124  0.4260  0.3934 -0.7393
 4091TIP3   OH212278   5.027   0.373   4.720  0.2321 -0.2047 -0.1452
 4091TIP3    H112279   4.967   0.408   4.656  1.6395  1.0471 -0.8352
 4091TIP3    H212280   5.094   0.440   4.731  0.7161 -0.9053  1.7073
 4092TIP3   OH212281   0.197   0.296   3.104  0.5804  0.3291 -0.1978
 4092TIP3    H112282   0.220   0.340   3.022 -0.2881 -0.1345 -0.7066
 4092TIP3    H212283   0.115   0.251   3.084  0.7463 -0.3936  0.7152
 4093TIP3   OH212284   2.084   2.432   4.307 -0.1578  0.3264 -0.5983
 4093TIP3    H112285   2.064   2.437   4.214 -0.1367 -0.0210 -0.6228
 4093TIP3    H212286   2.057   2.344   4.333 -0.6506  0.6003 -0.1602
 4094TIP3   OH212287   3.381   5.692   4.461  0.2457 -0.6017  0.4427
 4094TIP3    H112288   3.437   5.765   4.434 -1.8318  1.1763  0.6699
 4094TIP3    H212289   3.301   5.703   4.410 -0.0089 -2.9713  0.2360
 4095TIP3   OH212290   0.586   4.357   3.627 -0.2704  0.1879 -0.1923
 4095TIP3    H112291   0.551   4.381   3.713 -0.2125 -1.1786  0.2399
 4095TIP3    H212292   0.666   4.309   3.647 -0.2537 -0.1347 -1.0094
 4096TIP3   OH212293   2.733   0.890   3.324 -0.2833  0.2245  0.0168
 4096TIP3    H112294   2.795   0.879   3.396  0.3187  0.7651 -0.4067
 4096TIP3    H212295   2.736   0.807   3.277 -1.2983 -0.4401  1.0689
 4097TIP3   OH212296   3.103   1.793   2.464 -0.0061 -0.0402  0.3413
 4097TIP3    H112297   3.058   1.857   2.519 -1.7555  0.3052 -1.3973
 4097TIP3    H212298   3.127   1.841   2.385  1.8625 -0.6854  0.4777
 4098TIP3   OH212299   2.059   3.193   0.355  0.0598  0.3589  0.2076
 4098TIP3    H112300   2.011   3.276   0.365 -1.0227 -0.3181  0.8058
 4098TIP3    H212301   2.075   3.164   0.444 -0.9298 -0.8320  0.0145
 4099TIP3   OH212302   2.685   2.285   3.529  0.2346 -0.0880 -0.1176
 4099TIP3    H112303   2.651   2.301   3.617 -1.3337  0.6659 -0.8236
 4099TIP3    H212304   2.735   2.365   3.509 -0.0230  0.0582 -0.1846
 4100TIP3   OH212305   4.862   4.578   1.387  0.2103  0.1283 -0.3647
 4100TIP3    H112306   4.854   4.613   1.298  1.6805  1.1024 -0.1440
 4100TIP3    H212307   4.904   4.649   1.436  2.1323 -1.4886  0.4124
 4101TIP3   OH212308   1.447   2.610   3.444 -0.3826 -0.0352 -0.9894
 4101TIP3    H112309   1.463   2.555   3.368  0.7764 -0.6015 -0.3708
 4101TIP3    H212310   1.533   2.648   3.464 -0.9308  1.1114 -0.7231
 4102TIP3   OH212311   5.195   3.747   0.314  0.4264  0.2251  0.1931
 4102TIP3    H112312   5.284   3.769   0.288  0.3443 -1.8714 -2.3143
 4102TIP3    H212313   5.141   3.776   0.240 -0.5108 -1.5332  0.1419
 4103TIP3   OH212314   2.804   3.940   5.091 -0.3207  0.1140 -0.2144
 4103TIP3    H112315   2.889   3.950   5.048 -0.2173  0.5617  0.0798
 4103TIP3    H212316   2.769   3.857   5.057  0.4094 -0.2768 -0.0367
 4104TIP3   OH212317   6.166   0.548   1.451  0.2559 -0.0607 -0.3027
 4104TIP3    H112318   6.205   0.635   1.461  0.1316  0.0561 -0.7862
 4104TIP3    H212319   6.205   0.514   1.370 -0.2856 -0.1364 -0.5345
 4105TIP3   OH212320   2.769   2.150   3.844 -0.5657 -0.1320 -0.4264
 4105TIP3    H112321   2.834   2.190   3.787 -0.4243  0.7687  0.3503
 4105TIP3    H212322   2.694   2.211   3.841  0.0720  0.8368  1.6471
 4106TIP3   OH212323   4.076   0.424   0.979 -0.2370 -0.1152  0.1739
 4106TIP3    H112324   4.100   0.403   1.069  0.5407 -0.1188 -0.0291
 4106TIP3    H212325   4.040   0.343   0.944 -0.7007 -0.0677  0.5296
 4107TIP3   OH212326   0.501   4.780   0.484  0.0627 -0.1912 -0.0938
 4107TIP3    H112327   0.596   4.773   0.482  0.2725  0.8548  2.2189
 4107TIP3    H212328   0.471   4.734   0.406  2.5165  0.7318 -1.6728
 4108TIP3   OH212329   0.932   1.286   1.420  0.2573  0.0719 -0.2960
 4108TIP3    H112330   0.883   1.248   1.493  1.0823  1.1714  0.8929
 4108TIP3    H212331   0.986   1.354   1.461  0.4544  1.0069 -1.9964
 4109TIP3   OH212332   0.583   5.817   3.568 -0.7247 -0.0528  0.4826
 4109TIP3    H112333   0.500   5.846   3.606 -1.3352 -0.0285 -0.8195
 4109TIP3    H212334   0.572   5.722   3.557 -0.7202 -0.0023  0.0110
 4110TIP3   OH212335   5.200   1.174   2.093 -0.4776  0.2349  0.3568
 4110TIP3    H112336   5.153   1.092   2.097 -0.0799 -0.1601 -1.9902
 4110TIP3    H212337   5.257   1.166   2.016 -0.0522  2.4892  0.3672
 4111TIP3   OH212338   4.280   3.184   4.500 -0.3012  0.0649  0.2611
 4111TIP3    H112339   4.328   3.205   4.580 -0.8397 -2.7529  1.4468
 4111TIP3    H212340   4.303   3.093   4.482 -1.6547  0.0665 -1.7412
 4112TIP3   OH212341   0.448   2.080   4.662  0.2345 -0.2528 -0.0975
 4112TIP3    H112342   0.488   2.154   4.709 -0.6491 -0.2700  0.7049
 4112TIP3    H212343   0.455   2.007   4.723 -2.4156  0.1090  0.7281
 4113TIP3   OH212344   3.981   5.244   2.720  0.1958 -0.6240  0.0027
 4113TIP3    H112345   3.924   5.262   2.645  0.7043 -0.5892 -0.3845
 4113TIP3    H212346   3.946   5.298   2.791 -0.9667 -1.5085  0.1121
 4114TIP3   OH212347   5.480   4.082   4.464 -0.4737  0.1154 -0.6209
 4114TIP3    H112348   5.423   4.026   4.411  0.3008 -1.6262  0.3155
 4114TIP3    H212349   5.569   4.053   4.444 -0.1632 -0.6787  1.6610
 4115TIP3   OH212350   3.164   1.082   4.105  0.3117  0.1756  0.4393
 4115TIP3    H112351   3.220   1.023   4.154 -1.3886  0.0353  2.2987
 4115TIP3    H212352   3.176   1.168   4.146 -0.8589  0.1317  0.9169
 4116TIP3   OH212353   0.190   5.437  -0.004  0.1164 -0.0494  0.1154
 4116TIP3    H112354   0.100   5.466   0.007 -0.4389 -1.7648  0.2920
 4116TIP3    H212355   0.219   5.413   0.084  1.2701  1.8199  0.3136
 4117TIP3   OH212356   5.401   5.908   0.271  0.3127 -0.5177  0.1116
 4117TIP3    H112357   5.363   5.827   0.305  0.1434 -0.2632  0.5373
 4117TIP3    H212358   5.494   5.890   0.263  0.1028 -1.1808 -1.0344
 4118TIP3   OH212359   0.037   4.630   2.874 -0.3375  0.3291 -0.0463
 4118TIP3    H112360   0.108   4.693   2.861 -0.1390  0.3051  0.8353
 4118TIP3    H212361  -0.010   4.662   2.950 -0.9904  0.0804 -0.3382
 4119TIP3   OH212362   6.251   1.693   3.935 -0.2844  0.1319  0.1104
 4119TIP3    H112363   6.325   1.737   3.976 -1.1684  1.2384  0.5767
 4119TIP3    H212364   6.240   1.612   3.985 -0.2657  0.6421  0.9595
 4120TIP3   OH212365   1.631   0.647   1.337 -0.3940 -0.1076  0.2028
 4120TIP3    H112366   1.718   0.677   1.362 -1.0317  1.7082  0.4572
 4120TIP3    H212367   1.576   0.668   1.413 -1.3036  0.0999 -0.4963
 4121TIP3   OH212368   3.699   0.145   1.947 -0.1552 -0.3903 -0.0953
 4121TIP3    H112369   3.708   0.086   2.022  0.9013  0.0555  0.1386
 4121TIP3    H212370   3.728   0.230   1.979  0.7908 -0.2977 -1.1338
 4122TIP3   OH212371   6.056   0.256   3.881 -0.3758 -0.2965 -0.2554
 4122TIP3    H112372   6.109   0.330   3.851 -0.5785 -0.1106 -0.1514
 4122TIP3    H212373   6.112   0.209   3.943 -0.2537 -0.2223 -0.3100
 4123TIP3   OH212374   0.694   2.207   1.443 -0.1724 -0.2732  0.4108
 4123TIP3    H112375   0.675   2.188   1.534 -1.6309 -0.0367  0.1722
 4123TIP3    H212376   0.694   2.303   1.437  0.9597 -0.2623  0.3595
 4124TIP3   OH212377   1.596   5.279   4.164 -0.3639  0.3224  0.0078
 4124TIP3    H112378   1.653   5.213   4.124  0.8732  0.7718  0.9723
 4124TIP3    H212379   1.652   5.354   4.178 -0.7247  0.2166  2.5194
 4125TIP3   OH212380   4.420   5.901   1.020  0.2552  0.4588  0.5658
 4125TIP3    H112381   4.345   5.873   1.072 -0.7877  0.3235 -0.9406
 4125TIP3    H212382   4.473   5.822   1.010 -0.7133 -0.0962 -0.4433
 4126TIP3   OH212383   3.273   2.728   1.972  0.5215 -0.1201  0.2504
 4126TIP3    H112384   3.315   2.650   2.010  1.5262  0.2682 -0.0216
 4126TIP3    H212385   3.324   2.746   1.893  1.3062  1.7084  1.1156
 4127TIP3   OH212386   1.252   0.677   4.611 -0.1976 -0.1519  0.1733
 4127TIP3    H112387   1.324   0.730   4.577  0.0223 -0.0975  0.7073
 4127TIP3    H212388   1.173   0.725   4.586  0.0330  1.5526  2.3644
 4128TIP3   OH212389   1.456   2.235   3.514  0.2805 -0.1717  0.2752
 4128TIP3    H112390   1.501   2.158   3.479  0.5193 -0.0134  0.2244
 4128TIP3    H212391   1.383   2.250   3.454 -0.7681 -1.3325  1.2032
 4129TIP3   OH212392   3.543   1.275   3.416  0.7185  0.3119  0.1091
 4129TIP3    H112393   3.551   1.341   3.348 -0.4594  0.4249  0.0695
 4129TIP3    H212394   3.556   1.323   3.498  0.2336  0.5256  0.0607
 4130TIP3   OH212395   5.420   2.298   0.898 -0.2126  0.1620 -0.2128
 4130TIP3    H112396   5.391   2.245   0.823  0.0473 -1.9457  1.0760
 4130TIP3    H212397   5.516   2.294   0.894 -0.1782  1.0614 -0.4315
 4131TIP3   OH212398   2.559   5.235   2.378  0.1655 -0.0046  0.1861
 4131TIP3    H112399   2.603   5.248   2.294 -0.7221  0.2988 -0.2535
 4131TIP3    H212400   2.536   5.324   2.407  3.1128  0.2245  2.2845
 4132TIP3   OH212401   0.749   4.480   0.558  0.7510  0.6078  0.2303
 4132TIP3    H112402   0.773   4.390   0.579  1.6405  0.6845 -0.4108
 4132TIP3    H212403   0.675   4.471   0.497  1.7680  0.2563 -0.9911
 4133TIP3   OH212404   3.726   1.040   4.474 -0.1679 -0.1172 -0.0746
 4133TIP3    H112405   3.652   1.101   4.468 -1.1517 -1.2180  0.5407
 4133TIP3    H212406   3.707   0.973   4.409  0.0950 -0.6259  0.3715
 4134TIP3   OH212407   4.087   1.985   1.084  0.2277 -0.0697  0.0302
 4134TIP3    H112408   4.025   1.980   1.157  1.4250 -0.3690  1.0614
 4134TIP3    H212409   4.110   1.894   1.066  1.0894  0.0883  0.3054
 4135TIP3   OH212410   2.124   2.323   1.392 -0.1741 -0.0184 -0.3136
 4135TIP3    H112411   2.105   2.413   1.418 -1.3484 -0.3162 -0.0908
 4135TIP3    H212412   2.189   2.331   1.322  0.0345  0.9777 -0.0220
 4136TIP3   OH212413   5.901   2.021   0.386 -0.3200  0.1658  0.5485
 4136TIP3    H112414   5.944   2.069   0.315 -2.0334 -1.1982 -1.5283
 4136TIP3    H212415   5.847   2.087   0.429 -0.0977  0.7943 -0.1012
 4137TIP3   OH212416   3.162   3.625   3.750 -0.4332 -0.1497  0.2960
 4137TIP3    H112417   3.068   3.620   3.767 -0.4484 -0.4366  0.1320
 4137TIP3    H212418   3.198   3.548   3.794 -0.2351  0.1259  0.6184
 4138TIP3   OH212419   0.228   2.285   0.839  0.6504  0.0785  0.4300
 4138TIP3    H112420   0.304   2.251   0.886  0.5052 -1.3490 -0.2960
 4138TIP3    H212421   0.159   2.219   0.854  0.7263 -0.6937 -2.0565
 4139TIP3   OH212422   2.181   2.678   0.053 -0.1049  0.0070  0.2145
 4139TIP3    H112423   2.137   2.610   0.003 -1.2158  0.5411  0.4461
 4139TIP3    H212424   2.117   2.704   0.120  0.3264  1.2373  0.1660
 4140TIP3   OH212425   4.098   2.035   4.447  0.4446  0.1106  0.6469
 4140TIP3    H112426   4.024   2.011   4.392  1.8358 -0.4981 -1.0264
 4140TIP3    H212427   4.174   2.031   4.390  1.6837  1.7042  2.0574
 4141TIP3   OH212428   2.250   3.335   5.033  0.4987 -0.6816  0.0815
 4141TIP3    H112429   2.264   3.422   4.998 -0.8419 -0.7305 -0.6362
 4141TIP3    H212430   2.293   3.336   5.119  1.9167  0.1306 -0.6050
 4142TIP3   OH212431   4.207   4.567   2.830  0.0990 -0.5879 -0.6017
 4142TIP3    H112432   4.205   4.626   2.755  1.6808 -1.8550 -1.7475
 4142TIP3    H212433   4.194   4.480   2.792 -0.9644 -1.1169  0.8671
 4143TIP3   OH212434   6.233   3.320   0.137 -0.6361  0.3160 -0.3630
 4143TIP3    H112435   6.141   3.299   0.154 -0.7754  1.8276  1.0291
 4143TIP3    H212436   6.279   3.238   0.152 -1.5775 -0.0589  0.6954
 4144TIP3   OH212437   3.578   4.894   4.419 -0.4003  0.1066  0.0724
 4144TIP3    H112438   3.539   4.913   4.333 -2.1592 -0.6873  0.6556
 4144TIP3    H212439   3.504   4.871   4.474  0.9566 -2.1084  1.0853
 4145TIP3   OH212440   4.004   0.676   0.897  0.3511 -0.3814 -0.4153
 4145TIP3    H112441   4.073   0.696   0.835 -0.0285 -0.3986 -0.8486
 4145TIP3    H212442   4.026   0.590   0.931  0.9396 -0.0752  0.0060
 4146TIP3   OH212443   0.911   3.920   4.206 -0.3050 -0.2099 -0.7145
 4146TIP3    H112444   0.818   3.918   4.182 -0.5765 -0.6314  0.3083
 4146TIP3    H212445   0.923   4.005   4.248 -0.6379 -0.7905  0.6177
 4147TIP3   OH212446   4.948   0.094   0.409 -0.0630  0.0139 -0.2276
 4147TIP3    H112447   4.938  -0.000   0.422  1.4436 -0.2844 -0.9608
 4147TIP3    H212448   4.880   0.133   0.464  0.6145 -1.4131  1.7595
 4148TIP3   OH212449   5.841   3.088   3.338 -0.4271 -0.2592  0.2469
 4148TIP3    H112450   5.880   3.006   3.368  2.4103  0.8699 -0.0950
 4148TIP3    H212451   5.850   3.147   3.413 -1.9655 -0.0640  0.3095
 4149TIP3   OH212452   0.373   2.286   4.231  0.0906 -0.2155  0.3439
 4149TIP3    H112453   0.358   2.338   4.310 -1.3265 -0.3231  0.1717
 4149TIP3    H212454   0.338   2.199   4.252 -0.8616 -0.0863 -0.5743
 4150TIP3   OH212455   2.152   0.564   0.840  0.3261  0.0980  0.3719
 4150TIP3    H112456   2.093   0.520   0.902 -1.4931  0.0651 -1.2588
 4150TIP3    H212457   2.170   0.649   0.880  0.5830 -0.5535  1.7004
 4151TIP3   OH212458   6.163   2.224   4.759 -0.0631  0.5027 -0.2145
 4151TIP3    H112459   6.067   2.220   4.768 -0.1264  3.1676  1.6969
 4151TIP3    H212460   6.178   2.290   4.691  0.3134  2.1360  1.3711
 4152TIP3   OH212461   1.936   4.607   2.470 -0.2556  0.2333  1.0940
 4152TIP3    H112462   1.909   4.614   2.378  0.8462 -2.9149  0.3872
 4152TIP3    H212463   2.010   4.667   2.478 -0.2617  0.4314 -0.1345
 4153TIP3   OH212464   1.134   2.253   3.590  0.0499 -0.1332 -0.7142
 4153TIP3    H112465   1.103   2.170   3.552  0.4937  0.9085 -3.5929
 4153TIP3    H212466   1.059   2.311   3.587 -0.3558 -0.4385  1.6187
 4154TIP3   OH212467   3.891   2.246   3.806  0.1062  0.4749 -0.1911
 4154TIP3    H112468   3.942   2.326   3.797  1.2088 -0.1585  0.3050
 4154TIP3    H212469   3.810   2.275   3.849 -0.0851  1.5260 -1.2112
 4155TIP3   OH212470   3.972   2.837   5.096  0.3141  0.1697  0.0474
 4155TIP3    H112471   3.968   2.906   5.029 -0.8033 -1.5498 -1.7684
 4155TIP3    H212472   3.936   2.760   5.053 -0.0444 -1.1541  2.5365
 4156TIP3   OH212473   0.717   3.963   0.375  0.6780  0.1873 -0.1350
 4156TIP3    H112474   0.710   3.892   0.310  0.0785 -0.1868  0.3381
 4156TIP3    H212475   0.738   4.041   0.323  0.4501 -0.1589 -0.7508
 4157TIP3   OH212476   3.249   5.495   0.456  0.1433 -0.2674 -0.0392
 4157TIP3    H112477   3.154   5.499   0.468  0.0620 -2.4535  0.5146
 4157TIP3    H212478   3.264   5.528   0.368 -1.0962  0.3371 -0.0429
 4158TIP3   OH212479   5.474   1.461   1.962 -0.5852 -0.0451  0.0706
 4158TIP3    H112480   5.499   1.369   1.960  0.8124  0.3101  0.1168
 4158TIP3    H212481   5.379   1.460   1.967 -0.5406 -1.5154  1.6764
 4159TIP3   OH212482   3.800   0.285   0.366 -0.4912  0.1078  0.0906
 4159TIP3    H112483   3.814   0.203   0.319 -0.9251  0.2975 -0.3793
 4159TIP3    H212484   3.720   0.271   0.416 -0.0794 -0.0613  0.7102
 4160TIP3   OH212485   2.414   4.098   0.187  1.2673  0.1736  0.2479
 4160TIP3    H112486   2.495   4.125   0.145  2.0446 -1.0889  0.8739
 4160TIP3    H212487   2.442   4.053   0.267 -0.0080 -0.9276  0.1145
 4161TIP3   OH212488   5.216   4.556   1.755 -0.3925  0.0270 -0.2991
 4161TIP3    H112489   5.191   4.491   1.689  1.5858 -0.8979 -0.2152
 4161TIP3    H212490   5.264   4.506   1.821  2.7685  1.7343 -1.0929
 4162TIP3   OH212491   6.308   0.601   1.033 -0.4272 -0.9585  0.1135
 4162TIP3    H112492   6.281   0.693   1.033 -0.1453 -0.8712 -0.7976
 4162TIP3    H212493   6.256   0.561   0.964  0.9582 -1.0261 -0.9234
 4163TIP3   OH212494   4.559   0.052   0.731 -0.0968  0.2792 -0.3878
 4163TIP3    H112495   4.545   0.145   0.745 -1.9893 -0.1828  1.1476
 4163TIP3    H212496   4.563   0.014   0.819 -0.6273 -1.2413 -0.9753
 4164TIP3   OH212497   3.295   2.287   3.620 -0.3479  0.1911 -0.1345
 4164TIP3    H112498   3.219   2.258   3.570  0.4783 -1.2220 -0.6167
 4164TIP3    H212499   3.369   2.278   3.559  0.9808 -3.1385  1.7018
 4165TIP3   OH212500   2.445   4.449   4.081  0.1946  0.1857  0.1450
 4165TIP3    H112501   2.450   4.519   4.015 -2.6579  2.9137  2.5245
 4165TIP3    H212502   2.498   4.482   4.154 -0.5654 -0.4771  1.0105
 4166TIP3   OH212503   3.081   1.436   1.400 -0.2300 -0.3666 -0.0097
 4166TIP3    H112504   3.083   1.348   1.438 -0.7106 -0.3758  0.0050
 4166TIP3    H212505   3.086   1.421   1.305 -0.0283 -0.3939  0.0047
 4167TIP3   OH212506   2.703   4.174   2.799 -0.4265 -0.2861  0.2700
 4167TIP3    H112507   2.672   4.118   2.728  0.3993  0.3243 -0.5909
 4167TIP3    H212508   2.730   4.113   2.868 -4.9662 -0.9042  1.8252
 4168TIP3   OH212509   1.395  -0.014   2.896  0.5593  0.3907 -0.5864
 4168TIP3    H112510   1.329  -0.045   2.833  1.2822 -1.5912 -0.4544
 4168TIP3    H212511   1.362   0.070   2.926 -1.5576 -0.2042 -1.0619
 4169TIP3   OH212512   2.282   0.106   4.914  0.8482 -0.1305  0.1608
 4169TIP3    H112513   2.264   0.021   4.954 -1.0494 -0.1267 -0.5872
 4169TIP3    H212514   2.311   0.085   4.825  0.5523 -0.0060  0.0348
 4170TIP3   OH212515   1.875   4.052   0.898 -0.3382  0.0273  0.4707
 4170TIP3    H112516   1.888   3.993   0.973 -1.4167  0.4283  0.9794
 4170TIP3    H212517   1.788   4.030   0.865 -1.2292  2.0534  1.3340
 4171TIP3   OH212518   3.441   1.220   2.558 -0.3514  0.1424  0.4538
 4171TIP3    H112519   3.507   1.202   2.625  1.0974 -0.1598 -0.9896
 4171TIP3    H212520   3.448   1.147   2.497 -1.9361  0.1877  0.1674
 4172TIP3   OH212521   0.935   1.863   4.094  0.3550 -0.8984 -0.0939
 4172TIP3    H112522   0.915   1.949   4.058 -0.6462 -1.4419 -0.8822
 4172TIP3    H212523   1.000   1.826   4.033 -1.1432 -1.7127 -1.2490
 4173TIP3   OH212524   1.716   0.063   2.456 -0.4854 -0.5207 -0.4693
 4173TIP3    H112525   1.744   0.123   2.525  0.7194 -0.5747 -0.8872
 4173TIP3    H212526   1.652   0.113   2.405 -0.7905 -0.2074  0.2152
 4174TIP3   OH212527   5.090   3.967   5.018  0.1618 -0.1806  0.1286
 4174TIP3    H112528   5.178   3.999   5.000  0.7165 -0.5068  2.1023
 4174TIP3    H212529   5.065   4.008   5.101 -1.1404 -0.8824  0.1147
 4175TIP3   OH212530   5.299   4.791   3.668 -0.5786  0.6137 -0.1758
 4175TIP3    H112531   5.256   4.746   3.741  0.6042 -0.4962 -0.1445
 4175TIP3    H212532   5.294   4.884   3.692 -0.5853  0.3035  1.1116
 4176TIP3   OH212533   5.106   1.592   3.313  0.1242 -0.0685  0.2710
 4176TIP3    H112534   5.201   1.604   3.316  0.3634 -1.2426 -1.1586
 4176TIP3    H212535   5.079   1.633   3.231 -0.0295 -2.7121 -1.1062
 4177TIP3   OH212536   0.840   5.844   3.363 -0.0459  0.6875 -0.0189
 4177TIP3    H112537   0.933   5.827   3.377 -0.2887  0.3242  1.2882
 4177TIP3    H212538   0.827   5.828   3.269  0.2589 -4.0695  0.5249
 4178TIP3   OH212539   5.244   0.566   4.675 -0.2872  0.6107  0.7872
 4178TIP3    H112540   5.317   0.628   4.677  0.3042 -0.0797  0.9978
 4178TIP3    H212541   5.201   0.582   4.591  0.8463  0.1992  0.1177
 4179TIP3   OH212542   5.928   1.315   0.068 -0.1404 -0.0943  0.2207
 4179TIP3    H112543   5.836   1.291   0.068  0.0736 -0.9530  0.6484
 4179TIP3    H212544   5.931   1.400   0.024 -1.1055 -0.1483  0.0373
 4180TIP3   OH212545   0.505   0.424   4.400 -0.4150 -0.6215 -0.1880
 4180TIP3    H112546   0.541   0.411   4.488  0.5573  0.3244 -0.4254
 4180TIP3    H212547   0.579   0.454   4.348 -1.2191 -0.1331 -1.0851
 4181TIP3   OH212548   2.563   5.165   4.266 -0.4078 -0.1684 -0.1269
 4181TIP3    H112549   2.631   5.100   4.246 -0.2565  0.2941 -1.1944
 4181TIP3    H212550   2.526   5.188   4.181 -2.4754 -0.9776  0.4898
 4182TIP3   OH212551   3.228   4.040   4.629 -0.2826  0.4014  0.0221
 4182TIP3    H112552   3.169   3.966   4.611 -0.1580  0.6652 -1.6064
 4182TIP3    H212553   3.303   4.024   4.572 -0.6532  2.2391 -1.0511
 4183TIP3   OH212554   2.957   1.438   3.258  0.3547  0.3704  0.5635
 4183TIP3    H112555   2.954   1.463   3.166 -0.3810  0.0529  0.4920
 4183TIP3    H212556   2.875   1.390   3.272  1.0026 -0.6234  1.0786
 4184TIP3   OH212557   4.550   5.848   3.591  0.2095 -0.3580 -0.5149
 4184TIP3    H112558   4.459   5.837   3.620  0.1441 -1.0857 -0.9550
 4184TIP3    H212559   4.543   5.883   3.502  0.4000  1.1935  0.0441
 4185TIP3   OH212560   4.610   4.166   1.802 -0.6816 -0.4158  0.0408
 4185TIP3    H112561   4.521   4.148   1.834 -1.2212  2.1678  0.2259
 4185TIP3    H212562   4.628   4.255   1.833  0.7957  0.2586 -2.5211
 4186TIP3   OH212563   2.812   0.316   2.755  0.3222  0.0558  0.2301
 4186TIP3    H112564   2.777   0.232   2.782 -0.2181  0.3900  0.5998
 4186TIP3    H212565   2.897   0.296   2.716 -0.7018 -0.8855 -1.6095
 4187TIP3   OH212566   4.345   2.574   3.675  0.1387 -0.6386 -0.0634
 4187TIP3    H112567   4.328   2.489   3.715  2.0093 -1.2725 -0.5179
 4187TIP3    H212568   4.419   2.559   3.617 -0.3540  1.0190 -1.1907
 4188TIP3   OH212569   1.232   4.489   2.863  0.5600  0.5431  0.0434
 4188TIP3    H112570   1.257   4.492   2.771  0.2392  1.8124 -0.0266
 4188TIP3    H212571   1.287   4.421   2.901  2.2542  1.4659 -0.6459
 4189TIP3   OH212572   4.689   0.861   1.735  0.0184  0.5814  0.3056
 4189TIP3    H112573   4.715   0.942   1.779 -1.5443  1.3208 -0.0579
 4189TIP3    H212574   4.763   0.841   1.677  0.2359  2.0444  0.0268
 4190TIP3   OH212575   2.645   0.111   0.803 -0.1386  0.2234  0.3932
 4190TIP3    H112576   2.703   0.101   0.879  0.4117 -1.4058 -0.2020
 4190TIP3    H212577   2.704   0.130   0.730 -0.6579  1.7058  0.3358
 4191TIP3   OH212578   1.749   2.123   3.048 -0.3029  0.0936 -0.1650
 4191TIP3    H112579   1.752   2.217   3.034  1.1507  0.5235  2.3838
 4191TIP3    H212580   1.841   2.096   3.052 -0.6429 -1.0246  1.2902
 4192TIP3   OH212581   0.818   3.608   4.192  0.0545 -0.3106 -0.4582
 4192TIP3    H112582   0.833   3.648   4.106 -2.2628 -1.0514 -1.2749
 4192TIP3    H212583   0.771   3.675   4.241 -1.1545 -0.8931 -0.7887
 4193TIP3   OH212584   0.201   2.029   0.308 -0.3276 -0.3686 -0.1691
 4193TIP3    H112585   0.273   2.026   0.369 -1.8708  3.3286  2.1866
 4193TIP3    H212586   0.141   1.960   0.337 -0.0690 -0.0361  1.2155
 4194TIP3   OH212587   5.639   4.993   0.399 -0.2307  0.1636  0.2912
 4194TIP3    H112588   5.718   5.038   0.369 -0.9978  0.5538 -1.2195
 4194TIP3    H212589   5.646   4.904   0.364  0.6950 -0.6045  2.2567
 4195TIP3   OH212590   5.313   1.381   3.432 -0.4631  0.0444 -0.0689
 4195TIP3    H112591   5.368   1.423   3.366  0.3759 -1.2685 -0.2465
 4195TIP3    H212592   5.362   1.394   3.514 -1.9410  2.4889  0.5532
 4196TIP3   OH212593   3.308   5.629   0.989 -0.0566  0.2791 -0.0284
 4196TIP3    H112594   3.288   5.667   0.903  0.6575 -0.1969 -0.4122
 4196TIP3    H212595   3.222   5.611   1.027 -0.3909 -0.4423 -1.0695
 4197TIP3   OH212596   3.048   4.232   4.979 -1.0000  0.0476  0.1657
 4197TIP3    H112597   3.041   4.136   4.979 -2.8070  0.1369  0.1612
 4197TIP3    H212598   3.094   4.252   4.898 -0.4447 -0.8182  0.2501
 4198TIP3   OH212599   2.499   0.657   2.168  0.1543  0.1829 -0.5174
 4198TIP3    H112600   2.593   0.655   2.148  0.0084  0.0803 -1.2403
 4198TIP3    H212601   2.473   0.565   2.166 -0.2678  0.3078 -1.9282
 4199TIP3   OH212602   3.213   2.352   4.805 -0.1032 -0.3360  0.1809
 4199TIP3    H112603   3.147   2.404   4.760  1.0199 -0.4774 -1.7734
 4199TIP3    H212604   3.169   2.269   4.826 -1.0084  0.2136  0.5022
 4200TIP3   OH212605   5.081   5.552   1.530 -0.3459 -0.1869  0.0329
 4200TIP3    H112606   5.015   5.588   1.590  0.2620  1.0796 -0.0186
 4200TIP3    H212607   5.034   5.542   1.447 -0.3429  1.3305 -0.1857
 4201TIP3   OH212608   4.662   4.714   3.814  0.1034 -0.5217  0.1976
 4201TIP3    H112609   4.671   4.807   3.833  2.3077 -0.6717  0.1549
 4201TIP3    H212610   4.655   4.673   3.901 -0.4082 -0.3692  0.2330
 4202TIP3   OH212611   1.492   3.910   3.909  0.0394 -0.8884  0.0681
 4202TIP3    H112612   1.414   3.896   3.962 -0.7084 -1.0816 -1.0341
 4202TIP3    H212613   1.549   3.837   3.931  0.0853 -0.5299  1.1797
 4203TIP3   OH212614   5.668   4.707   0.578  0.0675  0.1394 -0.4308
 4203TIP3    H112615   5.756   4.744   0.584 -0.3316  1.0897 -0.2670
 4203TIP3    H212616   5.674   4.623   0.623  0.3609  1.1944  1.5921
 4204TIP3   OH212617   1.810   3.440   3.327  0.6350 -0.2864  0.3495
 4204TIP3    H112618   1.778   3.369   3.383 -2.8939  0.6812 -0.1986
 4204TIP3    H212619   1.839   3.507   3.388  1.2114 -1.0169  0.9035
 4205TIP3   OH212620   1.964   0.325   2.267 -0.4298 -0.3158 -0.4024
 4205TIP3    H112621   2.003   0.306   2.182 -1.3609 -1.7097 -0.5509
 4205TIP3    H212622   1.898   0.393   2.248  0.9622  1.1062 -0.3567
 4206TIP3   OH212623   3.640   0.148   2.807 -0.6225  0.0529  0.0140
 4206TIP3    H112624   3.554   0.156   2.764 -1.6639  1.6173  2.2095
 4206TIP3    H212625   3.700   0.193   2.748 -1.1524 -1.4514 -1.7895
 4207TIP3   OH212626   3.148   2.428   0.375 -0.5473  0.3792  0.6435
 4207TIP3    H112627   3.110   2.340   0.385  2.2888 -0.8068  2.2047
 4207TIP3    H212628   3.230   2.413   0.327  0.0351  2.1465  1.0103
 4208TIP3   OH212629   6.063   2.419   3.545  0.4408  0.0825 -0.1185
 4208TIP3    H112630   6.014   2.386   3.621 -0.9312  2.1050 -0.0287
 4208TIP3    H212631   6.149   2.378   3.552 -0.1594 -0.9934  1.6455
 4209TIP3   OH212632   1.676   3.640   1.252 -0.4138  0.2672  0.1274
 4209TIP3    H112633   1.674   3.733   1.272 -1.0910  0.1429  0.6441
 4209TIP3    H212634   1.663   3.635   1.157  0.0626  0.7166  0.0376
 4210TIP3   OH212635   0.282   3.203   0.132 -0.4195  0.6438 -0.3885
 4210TIP3    H112636   0.284   3.296   0.110 -1.5840  0.5945 -0.7849
 4210TIP3    H212637   0.294   3.158   0.049 -0.4549  0.4457 -0.2878
 4211TIP3   OH212638   5.436   4.292   3.856  0.0139 -0.3170 -0.4475
 4211TIP3    H112639   5.525   4.295   3.823  0.4504  1.5494  0.7498
 4211TIP3    H212640   5.444   4.303   3.951 -1.4973  1.4536 -0.4463
 4212TIP3   OH212641   5.052   3.968   1.464  0.3336 -0.4753  0.1802
 4212TIP3    H112642   5.056   4.059   1.432  1.7192 -0.5486  0.0789
 4212TIP3    H212643   5.055   3.915   1.384 -2.5451 -0.6344  0.1031
 4213TIP3   OH212644   1.333   2.844   3.925  0.3345 -0.5906 -0.4854
 4213TIP3    H112645   1.386   2.919   3.953 -0.3333 -0.8291  1.5706
 4213TIP3    H212646   1.247   2.882   3.904  0.3859 -0.6144 -0.7413
 4214TIP3   OH212647   1.542   3.182   2.589  1.0499 -0.0994  0.5544
 4214TIP3    H112648   1.544   3.197   2.495 -4.0657  0.6390  0.2910
 4214TIP3    H212649   1.557   3.088   2.599  0.9094 -0.3188 -1.0885
 4215TIP3   OH212650   0.710   3.891   4.578  0.2620 -0.4737  0.2124
 4215TIP3    H112651   0.645   3.848   4.522 -1.5260  1.4737  0.6402
 4215TIP3    H212652   0.783   3.912   4.518 -0.5858 -0.5198 -0.8717
 4216TIP3   OH212653   5.126   4.211   0.354  0.7633  0.2318 -0.4358
 4216TIP3    H112654   5.169   4.289   0.389 -2.1605  1.1748  1.4512
 4216TIP3    H212655   5.034   4.221   0.378 -0.3385 -2.2867 -2.9705
 4217TIP3   OH212656   6.291   5.168   3.548  0.6580  0.1369 -0.0000
 4217TIP3    H112657   6.282   5.237   3.614 -0.4715  1.0451 -1.0541
 4217TIP3    H212658   6.283   5.215   3.464  2.2981 -0.9388 -0.8100
 4218TIP3   OH212659   1.253   5.808   3.992 -0.4134 -0.1738  0.3795
 4218TIP3    H112660   1.315   5.753   4.039 -0.0036  0.4976  0.6356
 4218TIP3    H212661   1.300   5.838   3.915 -1.1147 -1.3504 -0.5503
 4219TIP3   OH212662   5.746   5.587   2.441  0.2721 -0.1764  0.7348
 4219TIP3    H112663   5.803   5.532   2.386 -0.5136 -0.7662  0.4959
 4219TIP3    H212664   5.729   5.532   2.518 -1.8704 -0.9941 -0.2386
 4220TIP3   OH212665   1.619   2.485   0.239  0.0203 -0.1815 -0.5342
 4220TIP3    H112666   1.628   2.390   0.250 -0.2909 -0.1384  0.1510
 4220TIP3    H212667   1.668   2.504   0.159 -1.2954 -1.1566 -1.6330
 4221TIP3   OH212668   0.515   3.900   1.456 -0.0650 -0.0281  0.2172
 4221TIP3    H112669   0.517   3.915   1.550 -0.1744  0.9805  0.0707
 4221TIP3    H212670   0.421   3.892   1.435 -0.2495  2.4336 -0.1731
 4222TIP3   OH212671   4.316   2.368   0.999  0.1704  0.1106 -0.0918
 4222TIP3    H112672   4.348   2.404   0.916  1.8030 -1.9922 -0.4415
 4222TIP3    H212673   4.333   2.438   1.063  0.5270  1.0758 -1.2077
 4223TIP3   OH212674   2.020   1.740   3.337 -0.0973  0.2206 -0.3081
 4223TIP3    H112675   2.027   1.650   3.370 -1.4394  0.0623 -0.3845
 4223TIP3    H212676   2.110   1.768   3.323  0.4014 -0.6496  0.9800
 4224TIP3   OH212677   2.984   1.372   4.723 -0.0142 -0.4162 -0.7632
 4224TIP3    H112678   3.020   1.441   4.780 -1.9325 -0.7749  1.0009
 4224TIP3    H212679   2.911   1.415   4.679 -0.1667 -0.8739 -0.9506
 4225TIP3   OH212680   4.872   1.192   2.935  0.3896  0.2702  0.9121
 4225TIP3    H112681   4.958   1.234   2.927  0.7930 -0.1958  2.3992
 4225TIP3    H212682   4.850   1.199   3.028 -1.1098  0.2096  0.5904
 4226TIP3   OH212683   2.866   3.268   1.066 -0.1951 -0.1933 -0.2878
 4226TIP3    H112684   2.931   3.327   1.028  0.4866 -0.1900  0.8465
 4226TIP3    H212685   2.847   3.206   0.997 -1.2805  1.6012 -1.6921
 4227TIP3   OH212686   6.122   2.048   3.565  0.2129 -0.3504 -0.0414
 4227TIP3    H112687   6.176   2.119   3.600 -0.7478  0.0427  0.6528
 4227TIP3    H212688   6.183   1.974   3.555  0.8595  0.0551  0.8308
 4228TIP3   OH212689   4.994   3.273   4.124 -0.2323  0.3196  1.3063
 4228TIP3    H112690   5.014   3.180   4.140  0.2670  0.0574 -0.5675
 4228TIP3    H212691   4.980   3.278   4.029 -2.9906  1.6632  1.6689
 4229TIP3   OH212692   1.874   4.716   0.936 -0.3511  0.0902  0.4940
 4229TIP3    H112693   1.794   4.673   0.967 -1.6454  0.4795 -2.0931
 4229TIP3    H212694   1.931   4.644   0.909  1.0654 -0.3088  3.9635
 4230TIP3   OH212695   4.602   4.570   2.555  0.3958 -0.7913  0.6960
 4230TIP3    H112696   4.537   4.636   2.579 -0.0769 -0.7151 -0.7153
 4230TIP3    H212697   4.555   4.509   2.498  0.8686 -2.2868  1.8414
 4231TIP3   OH212698   0.569   1.399   0.766 -0.0343  0.6219 -0.1774
 4231TIP3    H112699   0.663   1.389   0.782 -0.2024 -1.1874 -0.0503
 4231TIP3    H212700   0.563   1.420   0.673  0.4536 -1.7906 -0.8370
 4232TIP3   OH212701   3.768   5.606   2.022 -0.0517 -0.5594  0.1491
 4232TIP3    H112702   3.794   5.637   1.935  2.5717 -0.3708  0.8978
 4232TIP3    H212703   3.787   5.512   2.020 -3.1382 -1.2582 -0.4683
 4233TIP3   OH212704   5.691   0.695   3.858  0.1307 -0.0542 -0.1877
 4233TIP3    H112705   5.727   0.615   3.819 -0.3244  0.6394 -2.1124
 4233TIP3    H212706   5.656   0.745   3.784 -1.2609  1.0951  1.1687
 4234TIP3   OH212707   2.428   3.115   0.217  0.0360  0.5855 -0.2162
 4234TIP3    H112708   2.398   3.030   0.248  2.7982  0.0654  1.3526
 4234TIP3    H212709   2.367   3.178   0.256 -0.5303 -0.5151  0.7384
 4235TIP3   OH212710   1.469   4.521   5.136  0.5011 -0.2190  0.2476
 4235TIP3    H112711   1.424   4.561   5.061 -0.7103 -2.6715 -0.4183
 4235TIP3    H212712   1.452   4.581   5.208  1.5917  2.1627 -1.3380
 4236TIP3   OH212713   2.283   0.799   3.665  0.4201  0.2079 -0.2912
 4236TIP3    H112714   2.203   0.823   3.711  1.3288  0.3855  1.2694
 4236TIP3    H212715   2.302   0.710   3.696 -0.2247 -0.6815 -2.2178
 4237TIP3   OH212716   3.758   5.155   2.281  0.6080  0.6472  0.5176
 4237TIP3    H112717   3.776   5.082   2.222  1.1286  1.6548 -0.6326
 4237TIP3    H212718   3.817   5.225   2.251 -0.5057  1.8311  0.9883
 4238TIP3   OH212719   3.042   2.699   2.289  0.2720 -0.5487 -0.3342
 4238TIP3    H112720   3.059   2.673   2.380 -0.0567  2.2679  0.6416
 4238TIP3    H212721   3.125   2.686   2.244  1.0363 -0.1020  0.8869
 4239TIP3   OH212722   2.018   4.603   4.657 -0.0966  0.0935 -0.5433
 4239TIP3    H112723   1.957   4.565   4.721  0.8817 -0.0390  0.3338
 4239TIP3    H212724   2.104   4.595   4.698  0.3527  1.6619 -1.0994
 4240TIP3   OH212725   3.296   1.402   2.791 -0.3381  0.2044 -0.6059
 4240TIP3    H112726   3.216   1.371   2.749 -2.7276  4.3587  0.3230
 4240TIP3    H212727   3.269   1.425   2.880  1.8377  1.7820 -0.2652
 4241TIP3   OH212728   2.760   5.810   0.298  0.5105 -0.4708 -0.0212
 4241TIP3    H112729   2.718   5.810   0.212 -0.5319  0.8708  0.4580
 4241TIP3    H212730   2.851   5.783   0.280  0.4625  0.2988 -1.6139
 4242TIP3   OH212731   5.597   2.396   4.813  0.1222 -0.6788  0.0033
 4242TIP3    H112732   5.622   2.306   4.794  0.5686 -0.4141 -0.6870
 4242TIP3    H212733   5.504   2.391   4.833  0.5742 -1.6333  2.2623
 4243TIP3   OH212734   4.251   3.868   2.298 -0.5510  0.8014  0.2613
 4243TIP3    H112735   4.221   3.939   2.242  2.5917  0.6436 -1.9752
 4243TIP3    H212736   4.202   3.791   2.268 -1.9011  1.4936  0.6773
 4244TIP3   OH212737   0.595   1.324   4.931 -0.2437  0.0622  0.6186
 4244TIP3    H112738   0.537   1.308   4.857  1.9430 -0.2440 -1.1218
 4244TIP3    H212739   0.597   1.241   4.979  2.8435 -1.9017 -2.4281
 4245TIP3   OH212740   1.727   2.516   4.788  0.0747  0.1093 -0.0778
 4245TIP3    H112741   1.806   2.465   4.801 -1.0147 -1.1640  2.0509
 4245TIP3    H212742   1.756   2.607   4.792  1.2500 -0.2896  2.5716
 4246TIP3   OH212743   1.082   1.946   1.143  0.1552 -0.5327  0.1903
 4246TIP3    H112744   1.102   1.914   1.230  1.1657 -0.8649 -0.1508
 4246TIP3    H212745   1.144   1.901   1.086  2.1492  2.4911 -0.2495
 4247TIP3   OH212746   2.654   2.816   2.059  0.4184 -0.3696  0.3258
 4247TIP3    H112747   2.560   2.835   2.062  0.5777  0.4342  0.3732
 4247TIP3    H212748   2.690   2.860   2.136  1.0042  0.3363 -0.3350
 4248TIP3   OH212749   4.550   2.815   4.192  0.4685  0.0632  0.6932
 4248TIP3    H112750   4.468   2.863   4.198  0.0169 -0.7569  1.2791
 4248TIP3    H212751   4.569   2.812   4.098 -1.6906 -2.2069  0.2388
 4249TIP3   OH212752   3.330   3.754   0.925  0.1754  0.2343 -0.0199
 4249TIP3    H112753   3.254   3.776   0.871  0.5467  0.7661 -0.3337
 4249TIP3    H212754   3.296   3.693   0.991 -0.6176  0.7780  0.0893
 4250TIP3   OH212755   0.088   5.040   5.080  0.5292 -0.4774 -0.8071
 4250TIP3    H112756   0.089   5.100   5.154  0.4163 -1.0177 -0.3583
 4250TIP3    H212757   0.057   4.957   5.117  2.7455 -1.4188 -0.9363
 4251TIP3   OH212758   6.323   1.988   2.841 -0.7149  0.1275 -0.2022
 4251TIP3    H112759   6.325   1.930   2.765  2.1948  0.7868 -0.7440
 4251TIP3    H212760   6.277   2.067   2.811  0.8440  0.5858 -1.4793
 4252TIP3   OH212761   0.556   5.164   2.676 -0.4869  0.4758  0.4881
 4252TIP3    H112762   0.641   5.154   2.717 -0.6160  1.1988  0.9486
 4252TIP3    H212763   0.505   5.088   2.706 -0.5821  1.0005  1.6865
 4253TIP3   OH212764   4.668   3.507   3.468 -0.1912 -0.0563  0.2278
 4253TIP3    H112765   4.680   3.581   3.408  1.9325  0.5560  1.2955
 4253TIP3    H212766   4.756   3.490   3.503 -1.0954 -1.3585  2.0272
 4254TIP3   OH212767   3.499   0.508   2.422 -0.1400  0.2789  0.0994
 4254TIP3    H112768   3.487   0.579   2.485 -0.3205  0.8279 -0.5457
 4254TIP3    H212769   3.594   0.504   2.410 -0.1984  1.3964 -0.9491
 4255TIP3   OH212770   3.115   1.337   0.058  0.0537 -0.1175 -0.6050
 4255TIP3    H112771   3.188   1.377   0.010  0.1544 -2.3410 -2.4690
 4255TIP3    H212772   3.045   1.329  -0.007 -1.0996 -0.0513  0.5854
 4256TIP3   OH212773   2.263   1.946   1.303  0.3428  0.1536  0.1723
 4256TIP3    H112774   2.343   1.976   1.347  1.3961  0.0203 -1.5352
 4256TIP3    H212775   2.293   1.918   1.216 -1.4706 -0.5756 -0.2684
 4257TIP3   OH212776   6.161   2.799   4.865 -0.0346 -0.8322  0.2183
 4257TIP3    H112777   6.201   2.847   4.937 -0.9756  0.0265  0.1754
 4257TIP3    H212778   6.094   2.745   4.906 -0.6489 -0.2575 -0.0177
 4258TIP3   OH212779   3.767   0.195   1.167 -0.4385  0.2100 -0.3826
 4258TIP3    H112780   3.849   0.226   1.130  0.4801 -1.3312  0.2889
 4258TIP3    H212781   3.742   0.120   1.113 -0.7357 -0.1076  0.1759
 4259TIP3   OH212782   3.545   1.906   1.915  0.0402  0.3766 -0.1585
 4259TIP3    H112783   3.479   1.958   1.960  1.7135  1.8475  0.7628
 4259TIP3    H212784   3.562   1.832   1.973 -0.1300  0.5176  0.0721
 4260TIP3   OH212785   4.623   5.788   2.012 -0.2354 -0.2660 -0.3360
 4260TIP3    H112786   4.664   5.792   2.098  0.6795  1.2710 -0.8131
 4260TIP3    H212787   4.549   5.729   2.024  0.3365 -0.7028  1.2996
 4261TIP3   OH212788   1.061   5.306   4.442  0.3222 -0.3888 -0.2166
 4261TIP3    H112789   0.982   5.360   4.430 -0.9181 -1.5192  2.1680
 4261TIP3    H212790   1.056   5.241   4.372 -1.5593 -1.1655  0.5704
 4262TIP3   OH212791   5.956   1.515   1.058 -0.0951 -0.0687  0.1062
 4262TIP3    H112792   5.902   1.464   0.997  0.6693  0.0257 -0.6599
 4262TIP3    H212793   5.994   1.450   1.117  1.7833 -0.5756 -1.5580
 4263TIP3   OH212794   3.558   2.952   3.592 -0.3871 -0.3175  0.1286
 4263TIP3    H112795   3.608   2.888   3.539  2.1781  0.5239  1.3658
 4263TIP3    H212796   3.623   2.988   3.652 -2.1243  2.3405  0.5325
 4264TIP3   OH212797   1.864   3.424   0.978  0.7543 -0.1713 -0.2506
 4264TIP3    H112798   1.944   3.411   0.928  1.4470 -1.0349  1.0300
 4264TIP3    H212799   1.894   3.441   1.067 -0.2758  4.2652 -0.4855
 4265TIP3   OH212800   5.683   0.088   4.827 -0.1761  0.0238 -0.6005
 4265TIP3    H112801   5.693   0.165   4.771 -0.6844  0.3612 -0.2472
 4265TIP3    H212802   5.599   0.051   4.801 -0.6852  0.4988  0.2888
 4266TIP3   OH212803   4.564   5.548   0.490 -0.6327 -0.5290 -0.3345
 4266TIP3    H112804   4.512   5.613   0.442 -0.6362 -0.8212 -0.7398
 4266TIP3    H212805   4.652   5.556   0.453 -0.3391  0.1040  0.4928
 4267TIP3   OH212806   0.516   4.735   4.316 -0.4345 -0.0080 -0.2349
 4267TIP3    H112807   0.467   4.657   4.290  0.7138 -1.0592  0.6141
 4267TIP3    H212808   0.592   4.735   4.259 -1.5998  1.9231 -1.9280
 4268TIP3   OH212809   4.598   4.140   2.643 -0.4321  0.1220  0.2433
 4268TIP3    H112810   4.543   4.194   2.586 -0.8901  0.3048  0.8465
 4268TIP3    H212811   4.537   4.102   2.706 -0.0281 -0.6486  0.1741
 4269TIP3   OH212812   4.950   2.941   2.018 -0.5833 -0.4050 -0.6965
 4269TIP3    H112813   4.923   3.008   1.954 -0.4624 -0.0169 -0.3445
 4269TIP3    H212814   5.044   2.931   2.005 -0.5702 -0.3745 -0.6248
 4270TIP3   OH212815   3.097   5.045   3.273  0.7234  0.1980 -0.1387
 4270TIP3    H112816   3.021   5.016   3.222 -1.0286  0.1115  2.3561
 4270TIP3    H212817   3.155   5.085   3.208 -0.8246 -0.9218 -2.3488
 4271TIP3   OH212818   0.352   3.401   3.956 -0.1138 -0.2942 -0.5412
 4271TIP3    H112819   0.420   3.357   3.905 -0.1093 -1.3046  0.2942
 4271TIP3    H212820   0.379   3.390   4.047  0.3113  2.1994 -0.3019
 4272TIP3   OH212821   3.309   2.205   0.097  0.2073 -0.1711 -0.0924
 4272TIP3    H112822   3.238   2.267   0.079 -0.8712 -1.3125  0.0969
 4272TIP3    H212823   3.359   2.247   0.168  0.3570  1.1150 -0.9201
 4273TIP3   OH212824   0.028   3.436   2.478  0.4823  0.1948 -0.1082
 4273TIP3    H112825  -0.001   3.520   2.442  0.3129  0.6334  1.0240
 4273TIP3    H212826   0.116   3.453   2.510  0.6210 -0.1878 -0.2788
 4274TIP3   OH212827   3.319   4.356   3.157  0.0744  0.7152  0.0402
 4274TIP3    H112828   3.349   4.344   3.067 -0.5473 -2.6407  0.1453
 4274TIP3    H212829   3.240   4.409   3.149  1.5906  2.9390 -1.0180
 4275TIP3   OH212830   6.044   0.937   2.732 -0.0380  0.4228 -0.6699
 4275TIP3    H112831   5.969   0.886   2.764 -0.0831 -0.0837 -1.5637
 4275TIP3    H212832   6.117   0.875   2.732  0.2521  0.7568 -0.3768
 4276TIP3   OH212833   4.867   0.087   3.908 -0.2832 -0.2061  0.2804
 4276TIP3    H112834   4.850  -0.007   3.922  1.5778 -0.9649 -1.9431
 4276TIP3    H212835   4.815   0.109   3.832 -1.6581  0.9446  1.5070
 4277TIP3   OH212836   2.637   1.216   2.803 -0.2315  0.1180 -0.4400
 4277TIP3    H112837   2.658   1.211   2.896 -0.1837  0.0274 -0.4550
 4277TIP3    H212838   2.636   1.309   2.783  0.6136  0.1143 -0.5403
 4278TIP3   OH212839   6.117   5.079   0.587  0.0444 -0.6528 -0.1901
 4278TIP3    H112840   6.050   5.034   0.639 -0.6345  1.6982  1.1452
 4278TIP3    H212841   6.086   5.072   0.497 -0.1999 -2.4947  0.0151
 4279TIP3   OH212842   1.298   0.009   4.462 -0.4072  0.3223  0.3428
 4279TIP3    H112843   1.314   0.101   4.484  1.6656 -0.2452  1.4108
 4279TIP3    H212844   1.371  -0.015   4.405 -0.9297 -0.6712  0.0744
 4280TIP3   OH212845   2.445   2.192   3.357  0.2333  0.5653  0.6460
 4280TIP3    H112846   2.379   2.204   3.425 -0.3706  1.0828 -0.0179
 4280TIP3    H212847   2.528   2.207   3.402 -0.1835  1.4092  1.1548
 4281TIP3   OH212848   4.969   1.976   3.310 -0.2083 -0.1792  1.2657
 4281TIP3    H112849   4.980   1.883   3.289  0.4292 -0.4523  2.6735
 4281TIP3    H212850   4.981   2.021   3.227  1.5856 -1.2352  0.9017
 4282TIP3   OH212851   0.261   0.683   4.123 -0.4149  0.0067 -0.4055
 4282TIP3    H112852   0.254   0.776   4.104 -0.2823  0.4698  1.5286
 4282TIP3    H212853   0.325   0.650   4.060 -0.2040  1.2998 -0.8944
 4283TIP3   OH212854   1.867   0.390   1.054  0.0499 -0.4428  0.0654
 4283TIP3    H112855   1.870   0.391   0.958 -1.1998 -2.3504 -0.0537
 4283TIP3    H212856   1.777   0.365   1.075  0.1500  0.4910  1.7766
 4284TIP3   OH212857   3.949   4.999   1.368  0.1626 -0.3487  0.6720
 4284TIP3    H112858   3.895   5.051   1.308  1.3097  1.1817  0.8747
 4284TIP3    H212859   3.988   4.931   1.313 -0.0439  0.0610  0.0108
 4285TIP3   OH212860   5.838   1.397   2.125 -0.1577 -0.4399 -0.2727
 4285TIP3    H112861   5.927   1.434   2.127 -0.5298  0.4358  0.5035
 4285TIP3    H212862   5.802   1.428   2.042  0.4252 -1.2230 -0.8378
 4286TIP3   OH212863   0.504   4.873   2.955  0.3843  0.1857  0.3165
 4286TIP3    H112864   0.496   4.948   3.014  1.1202  0.3997  0.1614
 4286TIP3    H212865   0.581   4.825   2.988  1.1777  0.6374 -0.8083
 4287TIP3   OH212866   2.575   5.687   2.932 -0.1985 -0.4450  0.4177
 4287TIP3    H112867   2.493   5.640   2.912 -1.8104  2.6261 -0.9588
 4287TIP3    H212868   2.558   5.729   3.016 -1.7373  3.1818 -1.4759
 4288TIP3   OH212869   1.542   2.636   1.633 -0.1669 -0.0774  0.2526
 4288TIP3    H112870   1.606   2.680   1.577  0.0755 -0.2322  0.4067
 4288TIP3    H212871   1.463   2.690   1.627 -0.5699 -0.7708 -1.2570
 4289TIP3   OH212872   6.091   0.722   1.798  0.1128  0.3801  0.9432
 4289TIP3    H112873   6.114   0.800   1.748 -2.5810  1.1842  0.7922
 4289TIP3    H212874   6.168   0.666   1.793  1.7021  2.5422  0.0912
 4290TIP3   OH212875   0.587   0.680   0.503  0.5841 -0.5190  0.2724
 4290TIP3    H112876   0.513   0.653   0.557  1.1453  0.2955  1.4826
 4290TIP3    H212877   0.654   0.709   0.566  1.3369  0.2531 -0.8486
 4291TIP3   OH212878   2.126   2.840   2.524  0.3238  0.4925  0.5755
 4291TIP3    H112879   2.098   2.923   2.563  0.6151  0.6074  0.5463
 4291TIP3    H212880   2.048   2.786   2.523 -0.7871  1.9486 -2.5818
 4292TIP3   OH212881   6.211   0.739   5.063 -0.0611  0.1353  0.2921
 4292TIP3    H112882   6.291   0.710   5.107  0.8337  0.9930 -0.7167
 4292TIP3    H212883   6.230   0.728   4.970 -0.8830  0.9613  0.0166
 4293TIP3   OH212884   2.334   1.141   0.899 -0.0366 -0.1165  0.7524
 4293TIP3    H112885   2.271   1.085   0.944 -1.2734  1.7205  1.3998
 4293TIP3    H212886   2.306   1.139   0.807  1.8741 -3.0389  0.0931
 4294TIP3   OH212887   6.263   4.836   2.171 -0.4720 -0.2057  0.2320
 4294TIP3    H112888   6.178   4.816   2.210 -1.5058 -0.1793 -1.8269
 4294TIP3    H212889   6.271   4.774   2.098  0.2679  1.1777 -0.9204
 4295TIP3   OH212890   0.440   5.617   5.090 -0.1326  0.1850 -0.2457
 4295TIP3    H112891   0.504   5.627   5.160  0.7771 -0.9514 -0.8829
 4295TIP3    H212892   0.372   5.562   5.128  0.5805 -0.8112 -0.3684
 4296TIP3   OH212893   3.423   3.572   2.969 -0.0192  0.2327 -0.1064
 4296TIP3    H112894   3.385   3.629   2.902  2.2282 -0.1739 -1.8318
 4296TIP3    H212895   3.517   3.587   2.964  0.2875 -0.2877  2.5945
 4297TIP3   OH212896   2.717   2.681   1.565 -0.0962  0.3865  0.4948
 4297TIP3    H112897   2.739   2.706   1.655  0.8366  3.7363 -0.5057
 4297TIP3    H212898   2.635   2.726   1.547 -0.8604 -1.1580 -0.0368
 4298TIP3   OH212899   5.139   4.572   3.266  0.7449 -0.2415 -0.1406
 4298TIP3    H112900   5.052   4.567   3.305  1.6542  1.6696  2.3820
 4298TIP3    H212901   5.137   4.651   3.212  1.3056  0.7274  1.1949
 4299TIP3   OH212902   5.175   1.176   3.803  0.3427  0.0798 -0.5628
 4299TIP3    H112903   5.193   1.179   3.709  0.1812  1.8412 -0.5727
 4299TIP3    H212904   5.171   1.083   3.824  0.9035 -0.3406 -2.1960
 4300TIP3   OH212905   3.598   2.785   0.441  0.4788 -0.2964  0.1854
 4300TIP3    H112906   3.671   2.746   0.392  0.9506  0.1987  0.4781
 4300TIP3    H212907   3.636   2.863   0.483 -0.5508  0.7597 -0.7607
 4301TIP3   OH212908   6.040   0.157   2.876 -0.4978 -0.4731 -0.5883
 4301TIP3    H112909   5.994   0.163   2.959 -1.0371  0.8535 -0.9564
 4301TIP3    H212910   6.093   0.237   2.871  1.2407 -1.5682 -0.5553
 4302TIP3   OH212911   1.860   3.893   4.142  0.2136 -0.2533  0.0344
 4302TIP3    H112912   1.777   3.864   4.180  0.2710  0.7316  0.9818
 4302TIP3    H212913   1.919   3.900   4.217  1.0393 -0.5375 -0.5745
 4303TIP3   OH212914   2.448   2.691   1.776  0.1107  0.1689  0.0654
 4303TIP3    H112915   2.352   2.691   1.782  0.1407  2.0909  1.5550
 4303TIP3    H212916   2.469   2.610   1.729 -2.2931  0.3417 -1.4663
 4304TIP3   OH212917   1.224   2.081   1.605 -0.2045  0.1188  0.1628
 4304TIP3    H112918   1.175   2.108   1.683 -1.0753 -0.7461 -0.0722
 4304TIP3    H212919   1.314   2.109   1.623 -0.4657  0.2843  1.3044
 4305TIP3   OH212920   2.936   1.653   4.417 -0.0672  0.1135 -0.1191
 4305TIP3    H112921   2.870   1.720   4.438 -1.3897 -1.3861  0.7202
 4305TIP3    H212922   2.991   1.649   4.496 -0.0814  0.1006 -0.1100
 4306TIP3   OH212923   3.155   5.687   3.801  0.1505  0.2663  0.1903
 4306TIP3    H112924   3.184   5.644   3.881 -0.9072  1.3124  1.1641
 4306TIP3    H212925   3.136   5.614   3.741 -2.2395 -0.7489  2.0060
 4307TIP3   OH212926   1.971   3.324   3.845  0.2227 -0.3515  0.0694
 4307TIP3    H112927   2.027   3.368   3.781  1.0288 -0.6826  0.5253
 4307TIP3    H212928   2.033   3.277   3.902 -0.2697  1.8175  2.5453
 4308TIP3   OH212929   3.067   2.522   3.827 -0.9802  0.1035 -0.1482
 4308TIP3    H112930   3.146   2.537   3.880 -0.6684 -1.4973 -0.0945
 4308TIP3    H212931   3.019   2.604   3.831  0.6326  1.0822 -0.0905
 4309TIP3   OH212932   2.546   0.231   2.988 -0.6323 -0.2109 -0.0262
 4309TIP3    H112933   2.602   0.309   2.990 -1.4581  0.4515 -1.3580
 4309TIP3    H212934   2.587   0.175   2.923 -1.5310  0.3211 -1.0833
 4310TIP3   OH212935   1.011   1.233   2.432  0.6117 -0.2462  0.4720
 4310TIP3    H112936   0.986   1.245   2.340 -0.1289 -0.0304  0.6941
 4310TIP3    H212937   1.071   1.158   2.430  0.4653 -0.3586 -0.1665
 4311TIP3   OH212938   3.339   1.570   1.415  0.2767 -0.4073  0.4783
 4311TIP3    H112939   3.371   1.485   1.386 -0.7919 -0.2758 -1.2904
 4311TIP3    H212940   3.244   1.561   1.416  0.1659  0.6359  0.6641
 4312TIP3   OH212941   2.045   5.002   3.260 -0.1933 -0.0343  0.2684
 4312TIP3    H112942   1.968   4.949   3.239 -0.6824  1.7902 -3.3387
 4312TIP3    H212943   2.010   5.085   3.291  0.0589  1.4112 -2.9184
 4313TIP3   OH212944   1.549   0.937   3.520 -0.5072  0.5904  0.0299
 4313TIP3    H112945   1.466   0.952   3.475  0.1899  1.6138 -0.9655
 4313TIP3    H212946   1.594   1.021   3.516  0.3881  0.1762  0.9670
 4314TIP3   OH212947   1.000   5.907   3.043  0.0215 -0.1660 -0.2341
 4314TIP3    H112948   1.078   5.939   2.998  0.1363 -0.8657 -0.5524
 4314TIP3    H212949   0.998   5.813   3.023  0.6503 -0.7298  2.0334
 4315TIP3   OH212950   4.742   2.559   0.182 -0.1231 -0.0366  0.4889
 4315TIP3    H112951   4.728   2.621   0.253  2.1372  0.0631  0.9203
 4315TIP3    H212952   4.809   2.599   0.127 -2.8626  0.6480 -2.7430
 4316TIP3   OH212953   3.087   3.494   1.070 -0.2125 -0.2300 -0.1409
 4316TIP3    H112954   3.025   3.558   1.105 -0.6579 -0.1155 -1.0857
 4316TIP3    H212955   3.117   3.445   1.146 -2.0313 -0.7997  0.2667
 4317TIP3   OH212956   1.376   2.446   2.405  0.1044 -0.0640 -0.3925
 4317TIP3    H112957   1.442   2.418   2.342 -1.0189  0.7671 -1.9944
 4317TIP3    H212958   1.321   2.509   2.357 -1.3194 -0.0586  1.1458
 4318TIP3   OH212959   2.756   3.511   3.910 -0.1621 -0.4392  0.0632
 4318TIP3    H112960   2.696   3.585   3.913  0.1599 -0.0764 -1.6121
 4318TIP3    H212961   2.807   3.518   3.991 -1.7118 -0.2240  1.0714
 4319TIP3   OH212962   5.709   5.773   0.325  0.3913  0.3761  0.0477
 4319TIP3    H112963   5.704   5.831   0.249  0.9750  2.0613  1.2478
 4319TIP3    H212964   5.681   5.826   0.399  1.0788 -0.8180  1.2220
 4320TIP3   OH212965   4.126   5.098   2.140  0.3661 -0.3355  0.3161
 4320TIP3    H112966   4.107   5.185   2.175  0.2232 -0.1937 -0.1030
 4320TIP3    H212967   4.213   5.106   2.102 -0.6957  0.4169 -2.1553
 4321TIP3   OH212968   0.999   4.144   4.849 -0.0458  0.0220  0.7525
 4321TIP3    H112969   1.088   4.157   4.883  0.2205  0.5478 -0.0942
 4321TIP3    H212970   1.006   4.069   4.791  0.4228  1.4390 -1.1467
 4322TIP3   OH212971   5.128   5.448   1.922  0.2378  0.2789  0.3701
 4322TIP3    H112972   5.052   5.419   1.971 -0.4778  1.3466 -0.0579
 4322TIP3    H212973   5.131   5.391   1.846  0.1060 -0.0295  0.5947
 4323TIP3   OH212974   2.307   0.857   1.297 -0.2693 -0.1698  0.1590
 4323TIP3    H112975   2.256   0.788   1.254 -3.9104  3.2570 -1.5754
 4323TIP3    H212976   2.374   0.881   1.234 -0.6770 -0.3415 -0.3446
 4324TIP3   OH212977   3.503   0.252   0.203  0.3686 -0.0376 -0.2635
 4324TIP3    H112978   3.461   0.199   0.271  2.0405 -3.0270 -1.4241
 4324TIP3    H212979   3.522   0.191   0.132  1.6816  2.3099 -2.0847
 4325TIP3   OH212980   6.216   1.270   3.641 -0.2712  0.1423 -0.2902
 4325TIP3    H112981   6.253   1.186   3.668 -0.6926 -0.2421 -0.8800
 4325TIP3    H212982   6.292   1.325   3.622  0.0116  0.0293  0.4916
 4326TIP3   OH212983   2.007   4.967   1.480  0.3817  0.0037 -0.5306
 4326TIP3    H112984   2.049   5.001   1.401  0.1071  1.4726 -0.0743
 4326TIP3    H212985   1.983   5.045   1.530 -0.2582 -0.8777  0.5868
 4327TIP3   OH212986   5.742   2.984   1.711 -0.8455 -0.4122  0.5957
 4327TIP3    H112987   5.777   3.062   1.667 -1.7996 -0.6510 -0.6241
 4327TIP3    H212988   5.785   2.910   1.667  1.6805 -0.6455  3.1120
 4328TIP3   OH212989   5.697   5.600   3.262 -0.3223  0.9193  0.3190
 4328TIP3    H112990   5.672   5.692   3.264 -2.3421  0.3966  1.3364
 4328TIP3    H212991   5.733   5.584   3.349  0.3273  0.8022  0.0351
 4329TIP3   OH212992   6.311   0.805   2.440  0.0811  0.4859 -0.0714
 4329TIP3    H112993   6.314   0.852   2.524 -0.5544 -1.2359  0.9746
 4329TIP3    H212994   6.227   0.831   2.402 -0.0494  0.5826  0.2743
 4330TIP3   OH212995   6.224   4.581   2.007  0.0172  0.8188  0.2444
 4330TIP3    H112996   6.300   4.565   1.951  0.2710 -0.0623  0.8081
 4330TIP3    H212997   6.169   4.641   1.957 -0.0515 -0.3995 -1.2260
 4331TIP3   OH212998   4.465   4.325   0.247 -0.0035  0.5645  0.0763
 4331TIP3    H112999   4.558   4.345   0.253 -0.0341  0.3963  1.3959
 4331TIP3    H213000   4.421   4.409   0.263 -0.0809  0.4592  0.4278
 4332TIP3   OH213001   5.751   5.934   4.294 -0.1176  0.1380 -0.0587
 4332TIP3    H113002   5.812   5.919   4.222  1.2906 -0.1127  1.1372
 4332TIP3    H213003   5.755   6.028   4.310  1.3758 -0.0880  1.1620
 4333TIP3   OH213004   4.028   1.729   4.266  0.3761 -1.1297 -0.0011
 4333TIP3    H113005   4.037   1.705   4.174  1.8600 -1.0961  0.1003
 4333TIP3    H213006   3.990   1.817   4.265  0.4734 -1.0938 -0.5892
 4334TIP3   OH213007   2.156   0.950   2.701 -0.1097  0.6549 -0.9923
 4334TIP3    H113008   2.090   0.909   2.645 -2.3343  0.8217  1.3348
 4334TIP3    H213009   2.182   0.881   2.762  0.9513  0.9532 -1.0996
 4335TIP3   OH213010   2.648   4.684   4.870  0.5647 -0.4915 -0.2268
 4335TIP3    H113011   2.727   4.632   4.883  1.2691  0.2127 -1.5101
 4335TIP3    H213012   2.607   4.645   4.792 -0.2780 -0.7512  0.3399
 4336TIP3   OH213013   5.545   4.194   0.597 -0.0505  0.7844 -0.2947
 4336TIP3    H113014   5.494   4.164   0.522 -2.3555  2.7111  0.3628
 4336TIP3    H213015   5.534   4.126   0.663 -0.5383  0.4882 -0.6826
 4337TIP3   OH213016   1.703   4.119   3.600  0.0015 -0.4024 -0.0946
 4337TIP3    H113017   1.746   4.164   3.673  3.4180 -3.4114  0.0349
 4337TIP3    H213018   1.645   4.056   3.642 -1.6053  0.9138 -0.2107
 4338TIP3   OH213019   5.321   5.467   0.927 -0.2117  0.3895 -0.3614
 4338TIP3    H113020   5.346   5.552   0.891  0.3962  0.2941 -0.1791
 4338TIP3    H213021   5.355   5.403   0.865 -2.3427  0.2885 -1.5427
 4339TIP3   OH213022   3.951   5.416   4.864  0.1890 -0.4715 -0.3711
 4339TIP3    H113023   3.894   5.415   4.787  1.2741 -0.2526 -1.1868
 4339TIP3    H213024   3.997   5.500   4.860  2.1726 -1.5335 -0.9300
 4340TIP3   OH213025   1.525   3.450   3.191  0.4133  0.4451  0.9761
 4340TIP3    H113026   1.611   3.466   3.230  2.6842 -1.4301 -2.6211
 4340TIP3    H213027   1.500   3.364   3.224  0.8703  0.1840  0.6668
 4341TIP3   OH213028   6.208   5.958   1.659  0.4026  0.2701 -0.2822
 4341TIP3    H113029   6.292   5.995   1.632  0.5199 -0.8195 -1.5628
 4341TIP3    H213030   6.172   5.922   1.578 -0.2194 -1.3311  0.6661
 4342TIP3   OH213031   5.162   5.309   4.857  0.3644 -0.5294 -0.9500
 4342TIP3    H113032   5.228   5.241   4.871 -1.4911 -2.0426  1.0879
 4342TIP3    H213033   5.156   5.353   4.942 -0.6328  0.1663 -1.3735
 4343TIP3   OH213034   3.302   1.609   4.964  0.0804  0.0986  0.0828
 4343TIP3    H113035   3.364   1.675   4.994  0.0738 -0.3674  1.2085
 4343TIP3    H213036   3.216   1.649   4.979  0.0801 -0.0710  0.5436
 4344TIP3   OH213037   2.484   2.569   1.344  0.4953  0.0583  1.0027
 4344TIP3    H113038   2.446   2.483   1.359 -1.1994  0.5609 -0.1156
 4344TIP3    H213039   2.561   2.552   1.289 -0.0978 -0.7189  0.3926
 4345TIP3   OH213040   3.924   4.618   2.984  0.3156  0.1900  0.0515
 4345TIP3    H113041   3.947   4.703   2.946 -1.9733  0.5299 -0.7413
 4345TIP3    H213042   3.971   4.614   3.067 -0.9116  3.0739  0.9909
 4346TIP3   OH213043   5.200   3.643   2.681  0.0296  0.1079  0.0484
 4346TIP3    H113044   5.147   3.588   2.739  0.4098  1.4714  1.7720
 4346TIP3    H213045   5.217   3.722   2.732  1.5584  0.7935 -1.4347
 4347TIP3   OH213046   2.030   1.721   2.784 -0.2506 -0.1432  0.0338
 4347TIP3    H113047   2.093   1.650   2.776  0.5154  0.5389 -0.0960
 4347TIP3    H213048   1.998   1.714   2.874 -0.9234 -1.2407 -0.2653
 4348TIP3   OH213049   1.102   2.335   4.637 -0.7773  0.0149  0.0222
 4348TIP3    H113050   1.085   2.275   4.564 -0.2244  0.4189 -0.4547
 4348TIP3    H213051   1.015   2.366   4.664 -0.9341  0.9576 -1.4246
 4349TIP3   OH213052   1.892   4.346   3.417 -0.5795  0.6620 -0.2755
 4349TIP3    H113053   1.904   4.347   3.512  2.9065  0.9917 -0.6095
 4349TIP3    H213054   1.834   4.421   3.399  0.0290  1.5913  1.4676
 4350TIP3   OH213055   4.333   4.010   1.770  0.3131  0.0936  0.3716
 4350TIP3    H113056   4.374   3.935   1.726 -0.8067 -0.4366  0.2063
 4350TIP3    H213057   4.253   4.027   1.720  0.8483  1.8151  0.0261
 4351TIP3   OH213058   3.631   1.463   1.613 -0.5442 -0.4068 -0.1276
 4351TIP3    H113059   3.565   1.505   1.669 -0.5199  0.5070 -0.7770
 4351TIP3    H213060   3.711   1.464   1.666 -0.4042  0.8808 -0.3424
 4352TIP3   OH213061   0.067   2.685   0.715  0.2574  0.1003 -0.2714
 4352TIP3    H113062   0.056   2.777   0.739  0.8287  0.4510 -1.2935
 4352TIP3    H213063  -0.015   2.662   0.672 -0.4547 -0.3029  1.2314
 4353TIP3   OH213064   1.954   4.324   0.595 -0.6483 -0.8254 -0.2847
 4353TIP3    H113065   1.964   4.301   0.688 -2.0494 -1.4238 -0.2407
 4353TIP3    H213066   2.021   4.274   0.550 -0.9345 -1.7437  0.2726
 4354TIP3   OH213067   6.261   3.923   3.078 -0.4827 -0.3749 -0.0820
 4354TIP3    H113068   6.315   3.847   3.102  0.3414  0.1525 -0.2474
 4354TIP3    H213069   6.295   3.950   2.992  0.3132  1.1622  0.6830
 4355TIP3   OH213070   6.230   0.637   0.063 -0.5257 -0.1844  0.0790
 4355TIP3    H113071   6.301   0.627   0.126 -0.2143 -3.1882 -0.6092
 4355TIP3    H213072   6.166   0.571   0.088 -0.1397 -1.9034 -2.9844
 4356TIP3   OH213073   1.479   1.845   4.636  0.1257 -0.4735  0.3568
 4356TIP3    H113074   1.551   1.784   4.626  1.6373  1.4021 -1.1283
 4356TIP3    H213075   1.402   1.796   4.608  1.1168 -1.9821  0.1726
 4357TIP3   OH213076   3.878   3.729   2.514 -0.2723  0.6891  0.5717
 4357TIP3    H113077   3.861   3.653   2.459 -1.1111  1.5126 -0.3428
 4357TIP3    H213078   3.932   3.787   2.460  2.0456 -0.0514  1.9512
 4358TIP3   OH213079   1.116   3.905   3.923 -0.1647 -0.0021  0.3737
 4358TIP3    H113080   1.166   3.836   3.879 -1.0784 -1.4194  1.4676
 4358TIP3    H213081   1.169   3.926   4.001 -0.2061  0.0621  0.3843
 4359TIP3   OH213082   2.362   2.269   1.026  0.2058  0.5332  0.7618
 4359TIP3    H113083   2.412   2.302   0.952  0.4333 -0.0996  0.6288
 4359TIP3    H213084   2.288   2.222   0.987  0.7957 -0.5491  0.9023
 4360TIP3   OH213085   2.254   1.484   1.451  0.5020 -0.2063 -0.5007
 4360TIP3    H113086   2.254   1.401   1.404 -0.8984 -0.8722  0.5954
 4360TIP3    H213087   2.162   1.509   1.456  0.7025  0.3084  1.0788
 4361TIP3   OH213088   1.932   3.775   3.692  0.3531  0.0184 -0.5320
 4361TIP3    H113089   2.020   3.810   3.678  0.6739 -0.8695 -0.7986
 4361TIP3    H213090   1.890   3.838   3.750  0.7385  1.1134 -1.3986
 4362TIP3   OH213091   0.601   0.808   0.236  0.3824  0.6123  0.3286
 4362TIP3    H113092   0.571   0.766   0.317  1.0686  0.6461  0.6076
 4362TIP3    H213093   0.658   0.879   0.266  0.2832  0.9037 -0.1763
 4363TIP3   OH213094   4.886   5.540   1.750  0.1324  0.0116 -0.2023
 4363TIP3    H113095   4.875   5.448   1.727 -1.5783  0.1408 -0.0368
 4363TIP3    H213096   4.924   5.539   1.838 -0.2741 -0.5491 -0.0312
 4364TIP3   OH213097   5.560   4.567   3.123 -0.0305 -0.2234 -0.0725
 4364TIP3    H113098   5.616   4.496   3.094 -1.1447 -2.0084  1.8390
 4364TIP3    H213099   5.580   4.577   3.216 -0.6018  1.3020 -0.0790
 4365TIP3   OH213100   2.613   0.502   2.711  0.4363  0.0328  0.2269
 4365TIP3    H113101   2.667   0.424   2.710 -1.6471 -1.4835 -0.2728
 4365TIP3    H213102   2.651   0.559   2.644  1.5729 -0.8221  0.1191
 4366TIP3   OH213103   1.855   1.211   0.683  0.3482  0.1051 -0.1769
 4366TIP3    H113104   1.759   1.210   0.693  0.3917  0.2828  0.3225
 4366TIP3    H213105   1.888   1.185   0.769  0.7478 -0.4280 -0.4886
 4367TIP3   OH213106   2.158   4.118   1.758  0.5215  0.5080 -0.7145
 4367TIP3    H113107   2.078   4.087   1.717  0.7030 -0.8622 -0.0759
 4367TIP3    H213108   2.204   4.166   1.688 -2.6095  4.9896 -0.1544
 4368TIP3   OH213109   5.511   3.215   4.231 -0.5402 -0.0343 -0.3208
 4368TIP3    H113110   5.431   3.244   4.276 -1.5105 -1.9486 -0.7175
 4368TIP3    H213111   5.524   3.280   4.162 -0.6642  1.3469  0.8872
 4369TIP3   OH213112   2.921   5.889   1.963  0.4088  0.0661 -0.2381
 4369TIP3    H113113   2.846   5.913   1.908 -0.2016 -2.5574 -0.6813
 4369TIP3    H213114   2.891   5.904   2.053  0.0516  0.8253 -0.4815
 4370TIP3   OH213115   3.542   3.343   1.799 -0.1956  0.2274 -0.6307
 4370TIP3    H113116   3.544   3.357   1.893 -0.0827  1.5081 -0.8122
 4370TIP3    H213117   3.628   3.305   1.778  0.2234  1.0220 -0.3780
 4371TIP3   OH213118   5.897   5.425   2.288 -0.3642  0.5487 -0.5140
 4371TIP3    H113119   5.880   5.340   2.249 -0.5351  0.4027 -0.1218
 4371TIP3    H213120   5.986   5.447   2.260  0.2051 -0.3845  0.5167
 4372TIP3   OH213121   2.970   5.704   2.467  1.0935  0.4379  0.1407
 4372TIP3    H113122   3.003   5.632   2.520  0.4820 -0.8199 -1.1168
 4372TIP3    H213123   3.043   5.725   2.408  0.6964 -0.3980 -0.6898
 4373TIP3   OH213124   0.244   1.005   0.413  0.1021  0.0357  0.1725
 4373TIP3    H113125   0.203   0.999   0.326  0.2395  0.4897  0.0757
 4373TIP3    H213126   0.330   0.964   0.400  0.0290 -0.1124  0.1531
 4374TIP3   OH213127   4.511   3.270   0.331 -0.7288  0.3440 -0.2235
 4374TIP3    H113128   4.449   3.292   0.262  0.9781 -1.5629 -2.5182
 4374TIP3    H213129   4.548   3.355   0.357 -1.9316  1.1811 -1.1404
 4375TIP3   OH213130   2.222   5.601   3.178  0.3675  0.0994 -0.2188
 4375TIP3    H113131   2.239   5.631   3.267  3.0880  0.1538 -0.6443
 4375TIP3    H213132   2.211   5.507   3.185  1.9393 -0.0999  0.1064
 4376TIP3   OH213133   4.458   4.390   2.403 -0.4160 -0.0340  0.7784
 4376TIP3    H113134   4.512   4.375   2.325  0.5518  0.6476  1.2912
 4376TIP3    H213135   4.430   4.303   2.429  0.7734 -0.4605  0.7089
 4377TIP3   OH213136   2.306   3.597   3.509  0.2331 -0.1252 -0.1358
 4377TIP3    H113137   2.237   3.559   3.454 -0.9461  0.3555  0.9710
 4377TIP3    H213138   2.384   3.595   3.454 -1.0308  0.9240 -2.0641
 4378TIP3   OH213139   3.600   2.799   2.904  0.2970  0.3455  0.4308
 4378TIP3    H113140   3.688   2.834   2.891  0.4543  0.0373  0.6423
 4378TIP3    H213141   3.546   2.843   2.838  1.1541 -1.5811 -1.6828
 4379TIP3   OH213142   2.811   2.774   4.981  0.2429 -0.3020 -0.1585
 4379TIP3    H113143   2.786   2.788   5.072 -1.7517 -1.3224 -0.4740
 4379TIP3    H213144   2.903   2.748   4.985 -0.2864 -2.2477  1.7983
 4380TIP3   OH213145   4.224   0.494   3.973 -0.4569  0.6315  0.2445
 4380TIP3    H113146   4.136   0.522   3.948 -0.6104 -1.0680 -1.3570
 4380TIP3    H213147   4.230   0.513   4.066 -2.1426  1.7137  0.1733
 4381TIP3   OH213148   3.256   4.402   2.167 -0.0025  0.1756 -0.2500
 4381TIP3    H113149   3.311   4.373   2.095  2.6178  0.5371  1.4867
 4381TIP3    H213150   3.225   4.489   2.139 -0.1042 -0.2217 -1.4395
 4382TIP3   OH213151   3.306   3.186   2.792  0.4136  0.1294 -0.8151
 4382TIP3    H113152   3.268   3.273   2.776  0.9352  0.1328 -2.1437
 4382TIP3    H213153   3.389   3.203   2.836  0.4440  0.2883 -0.9366
 4383TIP3   OH213154   5.930   4.530   1.865 -0.0858 -0.4276  0.2301
 4383TIP3    H113155   5.867   4.600   1.886  0.5512 -0.1961  1.5049
 4383TIP3    H213156   6.014   4.575   1.859  0.1808 -0.9446  0.0650
 4384TIP3   OH213157   3.475   1.564   2.608  0.1996  0.0753  0.7556
 4384TIP3    H113158   3.429   1.499   2.661  1.5488 -0.6108  1.1347
 4384TIP3    H213159   3.550   1.517   2.572  1.2905  1.4553  1.1545
 4385TIP3   OH213160   3.884   3.516   2.347  0.4267 -0.2939  0.0302
 4385TIP3    H113161   3.920   3.436   2.309 -1.5811 -0.9315 -0.6265
 4385TIP3    H213162   3.818   3.545   2.285  1.2104  1.9921  0.1903
 4386TIP3   OH213163   3.367   3.932   2.655 -0.2871 -0.7729 -0.3385
 4386TIP3    H113164   3.328   4.014   2.625 -1.2572 -1.4198 -0.9106
 4386TIP3    H213165   3.453   3.957   2.689 -0.7635  0.5379 -0.0515
 4387TIP3   OH213166   2.357   0.071   3.429 -0.0804 -0.3680  0.3225
 4387TIP3    H113167   2.432   0.130   3.439 -0.3321 -0.1841  1.2185
 4387TIP3    H213168   2.286   0.128   3.399 -0.3575 -0.1675  1.3094
 4388TIP3   OH213169   3.825   4.734   4.433 -0.1129  0.1074 -0.4120
 4388TIP3    H113170   3.864   4.732   4.346  0.8920  2.1300 -0.0595
 4388TIP3    H213171   3.750   4.793   4.425  0.8372  1.4831  0.3642
 4389TIP3   OH213172   5.324   1.638   0.924  0.3569 -0.2100  0.0392
 4389TIP3    H113173   5.337   1.549   0.957 -0.4746 -0.3062  0.1402
 4389TIP3    H213174   5.277   1.627   0.842  1.4900  0.0844 -0.6602
 4390TIP3   OH213175   2.833   0.154   0.117  0.9591 -0.3041  0.3358
 4390TIP3    H113176   2.928   0.162   0.123  1.0925 -0.9069 -0.6773
 4390TIP3    H213177   2.818   0.060   0.108  0.3588 -0.1343 -0.6129
 4391TIP3   OH213178   2.111   5.668   4.507  0.1783  0.6079 -0.3488
 4391TIP3    H113179   2.071   5.726   4.443  0.9809  0.1516 -1.2883
 4391TIP3    H213180   2.188   5.632   4.463  0.1921 -0.4953  0.5134
 4392TIP3   OH213181   0.724   2.960   4.417  0.5549  0.2633 -0.1377
 4392TIP3    H113182   0.698   3.035   4.471  2.2441  0.4981  0.4150
 4392TIP3    H213183   0.648   2.902   4.417 -0.0761  1.0662  1.0948
 4393TIP3   OH213184   4.754   5.558   0.009 -0.3829 -0.2586 -0.0224
 4393TIP3    H113185   4.806   5.629   0.047  0.0385  0.1850 -1.3452
 4393TIP3    H213186   4.818   5.505  -0.039 -0.5228 -2.1673  1.7953
 4394TIP3   OH213187   2.805   3.906   0.037 -0.4994  0.4126  0.2308
 4394TIP3    H113188   2.782   3.848   0.109 -1.7563 -0.1820 -0.6026
 4394TIP3    H213189   2.742   3.977   0.043 -0.7374  0.2612 -0.3805
 4395TIP3   OH213190   5.874   3.908   4.664  0.7566 -0.1365 -0.4294
 4395TIP3    H113191   5.840   3.933   4.750 -0.7001  0.3845 -1.1082
 4395TIP3    H213192   5.942   3.843   4.682 -0.1529 -0.7221  1.0808
 4396TIP3   OH213193   1.421   5.862   1.798  0.0548  0.1331  0.3610
 4396TIP3    H113194   1.439   5.951   1.767 -0.5638  0.3032  0.4840
 4396TIP3    H213195   1.342   5.871   1.851  0.1662 -0.4412  0.6208
 4397TIP3   OH213196   0.290   3.631   2.357 -0.8418 -0.3526 -0.1226
 4397TIP3    H113197   0.361   3.597   2.303 -1.2286 -0.7135 -0.4039
 4397TIP3    H213198   0.324   3.714   2.392 -1.1554  0.7063 -2.1890
 4398TIP3   OH213199   5.294   5.712   1.655 -0.0319 -0.2926 -0.4574
 4398TIP3    H113200   5.291   5.670   1.741 -1.1201 -1.3945 -1.0078
 4398TIP3    H213201   5.214   5.684   1.612 -0.9629  2.5909 -0.7743
 4399TIP3   OH213202   5.697   4.200   3.768  0.2466  0.3386  0.0469
 4399TIP3    H113203   5.656   4.118   3.739 -1.8134  0.1652  2.9965
 4399TIP3    H213204   5.729   4.181   3.856  2.7654  1.8474 -0.4248
 4400TIP3   OH213205   1.447   3.061   4.355  0.0475  0.8275  0.1343
 4400TIP3    H113206   1.372   3.118   4.372 -0.6485 -0.0840  0.2624
 4400TIP3    H213207   1.424   2.979   4.400  2.1796  1.2490  2.1722
 4401TIP3   OH213208   4.870   1.315   0.921 -0.0786 -0.4610 -0.6062
 4401TIP3    H113209   4.844   1.277   0.837  0.3334 -0.6281 -0.6620
 4401TIP3    H213210   4.889   1.239   0.976  3.5070 -0.4587 -1.5587
 4402TIP3   OH213211   3.039   3.099   2.754 -0.4002  0.3296  0.4921
 4402TIP3    H113212   3.120   3.139   2.785 -0.7569 -0.0118  1.9347
 4402TIP3    H213213   3.050   3.094   2.659  1.3255  0.1714  0.6627
 4403TIP3   OH213214   4.431   4.385   3.248  0.2234 -0.1320  0.1485
 4403TIP3    H113215   4.524   4.385   3.271  0.4879  3.2895 -0.5127
 4403TIP3    H213216   4.400   4.473   3.270 -2.7407 -0.9582 -0.2518
 4404TIP3   OH213217   6.007   2.674   2.312 -0.0505  0.3015  0.0082
 4404TIP3    H113218   5.923   2.719   2.300  0.7888  1.8134 -0.3700
 4404TIP3    H213219   6.059   2.733   2.365  0.4028 -1.1446  1.2517
 4405TIP3   OH213220   1.461   3.222   4.887 -0.2824  0.0891 -0.0590
 4405TIP3    H113221   1.427   3.162   4.821  0.5910 -1.7147  1.0471
 4405TIP3    H213222   1.512   3.166   4.946 -1.1200  1.5983  2.2201
 4406TIP3   OH213223   3.050   3.547   3.106  0.3970 -0.3332 -0.3630
 4406TIP3    H113224   3.039   3.501   3.023 -0.9442 -0.4168 -0.1587
 4406TIP3    H213225   2.965   3.541   3.149  0.8833  0.2643  0.7406
 4407TIP3   OH213226   2.065   3.092   2.616 -0.1279 -0.3063 -0.2846
 4407TIP3    H113227   2.127   3.165   2.612  0.3979 -0.5019  2.5041
 4407TIP3    H213228   1.980   3.131   2.597  0.3554  0.6960 -0.4616
 4408TIP3   OH213229   2.935   3.818   0.358  0.3215 -0.2092 -0.9603
 4408TIP3    H113230   3.024   3.846   0.338  0.1921  1.0264  0.0954
 4408TIP3    H213231   2.913   3.863   0.439 -1.3272 -0.3759 -1.2826
 4409TIP3   OH213232   3.506   4.390   2.608  0.5278  0.6664  0.4247
 4409TIP3    H113233   3.413   4.414   2.605 -0.7107 -3.4132  0.9190
 4409TIP3    H213234   3.548   4.454   2.551 -2.9060  1.4411 -1.5496
 4410TIP3   OH213235   2.038   0.739   4.821 -0.2900  0.0860  0.7299
 4410TIP3    H113236   2.032   0.834   4.829 -1.7686  0.1867 -1.0041
 4410TIP3    H213237   1.965   0.715   4.764  0.9070 -1.9214 -0.0673
 4411TIP3   OH213238   6.075   0.685   4.123  0.0462  0.2527  0.5423
 4411TIP3    H113239   5.980   0.696   4.126  0.0551  1.2092 -1.2390
 4411TIP3    H213240   6.106   0.717   4.208 -1.0435  2.4291  0.1890
 4412TIP3   OH213241   0.736   5.577   0.111  0.1165 -0.3390  0.2092
 4412TIP3    H113242   0.802   5.507   0.113  0.0485 -0.3782  1.6020
 4412TIP3    H213243   0.713   5.585   0.018  1.0292 -1.3107 -0.1200
 4413TIP3   OH213244   3.936   4.244   2.148 -0.1797  0.0537  0.2655
 4413TIP3    H113245   3.842   4.256   2.161 -0.1047  0.7270  0.1906
 4413TIP3    H213246   3.975   4.267   2.232 -0.1532 -1.2139  0.6184
 4414TIP3   OH213247   3.354   0.845   2.176  0.5802 -0.0333  0.0644
 4414TIP3    H113248   3.394   0.804   2.099 -1.1571 -1.6402 -0.0580
 4414TIP3    H213249   3.322   0.772   2.228 -0.5823  1.1068  1.0141
 4415TIP3   OH213250   0.292   2.805   4.929  0.1043  0.3976 -0.1738
 4415TIP3    H113251   0.271   2.887   4.883 -0.1902 -0.4003 -1.5168
 4415TIP3    H213252   0.208   2.777   4.966 -0.0539  0.0811 -0.7630
 4416TIP3   OH213253   5.497   5.281   3.818 -0.2779  0.3402  0.1459
 4416TIP3    H113254   5.535   5.330   3.891 -1.2921  0.3865  0.6538
 4416TIP3    H213255   5.467   5.199   3.857 -1.3228  0.5967 -0.1026
 4417TIP3   OH213256   3.249   3.221   4.125 -0.0507 -0.4524  0.3064
 4417TIP3    H113257   3.205   3.211   4.210  0.8486 -1.1328  0.7192
 4417TIP3    H213258   3.231   3.139   4.079 -2.6484  0.8782 -1.2334
 4418TIP3   OH213259   4.136   4.911   4.425  0.2310 -0.3218 -0.2249
 4418TIP3    H113260   4.183   4.828   4.424 -0.5232 -0.9095  3.0392
 4418TIP3    H213261   4.068   4.900   4.491 -1.4865  2.1162 -1.4058
 4419TIP3   OH213262   4.855   4.661   3.627 -0.6180 -0.0850 -0.2019
 4419TIP3    H113263   4.767   4.672   3.664  0.2557 -2.6406  3.1403
 4419TIP3    H213264   4.899   4.744   3.647 -1.3691  0.0455  1.0260
 4420TIP3   OH213265   6.291   3.877   1.199  0.0888  0.5722 -0.1798
 4420TIP3    H113266   6.325   3.845   1.283 -0.7226  0.4454  0.1073
 4420TIP3    H213267   6.197   3.862   1.204  0.0386  0.4842 -1.1538
 4421TIP3   OH213268   5.763   3.383   1.016 -0.1394 -0.0044  0.0269
 4421TIP3    H113269   5.773   3.465   0.969  0.1475  0.2361  0.5052
 4421TIP3    H213270   5.748   3.408   1.107  0.9040 -0.4869  0.3523
 4422TIP3   OH213271   6.313   2.801   2.814  0.4864 -0.4935 -0.0845
 4422TIP3    H113272   6.278   2.877   2.767  0.7047  0.9532  1.9657
 4422TIP3    H213273   6.408   2.813   2.812  0.4896  1.4170  3.3031
 4423TIP3   OH213274   4.245   3.110   2.961 -0.2743 -0.4876 -0.7023
 4423TIP3    H113275   4.153   3.103   2.936 -0.0778 -0.3984 -1.5032
 4423TIP3    H213276   4.284   3.027   2.934  0.3918  0.4171 -2.7724
 4424TIP3   OH213277   4.117   5.023   2.833  0.3406 -0.8571 -0.0445
 4424TIP3    H113278   4.092   5.102   2.786  1.1005  0.0892  1.0830
 4424TIP3    H213279   4.054   5.015   2.904 -0.5206 -2.0180 -0.8975
 4425TIP3   OH213280   1.448   0.780   4.939 -0.0861 -0.6364  0.3419
 4425TIP3    H113281   1.409   0.845   4.881  1.2682  0.3499  0.5152
 4425TIP3    H213282   1.379   0.761   5.003 -0.7462  0.0729 -0.1420
 4426TIP3   OH213283   5.962   2.270   1.122  0.4651  0.6357 -0.0504
 4426TIP3    H113284   5.869   2.248   1.126  0.3915  0.5283 -1.6081
 4426TIP3    H213285   5.965   2.366   1.125  0.2520  0.6607 -0.5568
 4427TIP3   OH213286   1.887   5.294   4.321  0.0534  0.1256  0.6642
 4427TIP3    H113287   1.962   5.296   4.380  0.8614 -2.6354 -0.1279
 4427TIP3    H213288   1.860   5.202   4.319 -1.1558  0.4416 -1.7570
 4428TIP3   OH213289   0.379   0.616   1.508 -0.6276 -0.0884  0.2160
 4428TIP3    H113290   0.358   0.539   1.455 -0.4223 -0.6013  0.8750
 4428TIP3    H213291   0.347   0.690   1.456  1.1839 -0.4258 -1.4952
 4429TIP3   OH213292   1.699   2.245   4.000  0.0295  0.1240 -0.5140
 4429TIP3    H113293   1.721   2.182   4.069 -2.5955  0.1342  0.4286
 4429TIP3    H213294   1.704   2.194   3.919 -0.0161 -0.7410  0.0142
 4430TIP3   OH213295   2.784   4.508   0.418 -0.1085  0.3224  0.0788
 4430TIP3    H113296   2.788   4.421   0.376  0.5928  0.4200 -0.0804
 4430TIP3    H213297   2.701   4.508   0.466 -1.2165  0.4014 -1.7394
 4431TIP3   OH213298   1.171   4.145   0.080  0.0751 -0.0009 -0.5520
 4431TIP3    H113299   1.103   4.141   0.148  0.9546  0.2581  0.3702
 4431TIP3    H213300   1.123   4.159  -0.001 -1.0640 -1.0583 -0.0899
 4432TIP3   OH213301   4.753   1.530   4.465 -0.0296 -0.3036 -0.1181
 4432TIP3    H113302   4.696   1.520   4.541  2.0417  0.2509  1.5983
 4432TIP3    H213303   4.826   1.472   4.481  0.9647  0.5875 -1.1911
 4433TIP3   OH213304   0.655   4.771   1.919  0.2131  0.5309 -0.3556
 4433TIP3    H113305   0.629   4.683   1.945  1.0054  0.3127 -0.2938
 4433TIP3    H213306   0.732   4.758   1.864 -0.0515  1.1453 -0.8853
 4434TIP3   OH213307   0.564   1.167   4.499  0.1537 -0.1145 -0.6006
 4434TIP3    H113308   0.602   1.235   4.443 -0.8902  0.4893 -0.5961
 4434TIP3    H213309   0.551   1.209   4.584 -0.3618 -0.3562 -0.5535
 4435TIP3   OH213310   5.225   2.544   4.336  0.5995 -0.1484  0.6354
 4435TIP3    H113311   5.247   2.464   4.288  0.2975  0.6949 -0.9782
 4435TIP3    H213312   5.304   2.563   4.388  1.6104 -0.1942 -0.8123
 4436TIP3   OH213313   4.049   2.222   0.995 -0.5391  0.1764 -0.2767
 4436TIP3    H113314   4.114   2.290   1.008 -1.3798  1.3216 -1.7247
 4436TIP3    H213315   4.088   2.143   1.033  1.5633  0.8693 -0.8674
 4437TIP3   OH213316   2.362   1.348   2.597  0.0816 -0.0076  0.2315
 4437TIP3    H113317   2.402   1.428   2.631  3.4445 -1.8586  1.0642
 4437TIP3    H213318   2.297   1.322   2.663 -0.1644  1.3384  0.5410
 4438TIP3   OH213319   6.090   5.060   5.148  0.3782  0.3343  0.3862
 4438TIP3    H113320   6.105   5.155   5.154 -0.3188  0.7209 -2.3073
 4438TIP3    H213321   6.178   5.022   5.149  0.6836  1.0358  1.1610
 4439TIP3   OH213322   4.963   4.905   1.079  0.5220  0.1536  0.0077
 4439TIP3    H113323   5.039   4.871   1.126  0.5295  0.4492  0.2171
 4439TIP3    H213324   4.968   5.000   1.092 -0.2687  0.1266  0.6124
 4440TIP3   OH213325   5.104   5.436   2.906  0.0937 -0.2775 -0.3566
 4440TIP3    H113326   5.071   5.392   2.985 -2.9322  2.1148 -0.0870
 4440TIP3    H213327   5.168   5.499   2.939 -0.7531  0.3323  0.1711
 4441TIP3   OH213328   3.575   3.121   3.039 -0.4820  0.2976 -0.3756
 4441TIP3    H113329   3.500   3.080   3.083  1.8241 -0.9073  2.7912
 4441TIP3    H213330   3.629   3.048   3.010  0.6022  1.1304 -0.4961
 4442TIP3   OH213331   2.568   0.254   4.740  0.2429  0.2482 -0.4244
 4442TIP3    H113332   2.494   0.194   4.729  1.1407 -0.6732 -1.8034
 4442TIP3    H213333   2.614   0.221   4.817 -0.1168  0.0901 -0.2749
 4443TIP3   OH213334   0.743   0.503   4.275 -0.7027 -0.3120 -0.2445
 4443TIP3    H113335   0.826   0.459   4.292 -0.9255 -1.0457 -1.0031
 4443TIP3    H213336   0.765   0.597   4.277 -0.0999 -0.4623  0.7190
 4444TIP3   OH213337   0.782   1.042   3.240  0.2747  0.6483  0.1604
 4444TIP3    H113338   0.781   1.125   3.192 -0.9236  0.7593  0.3594
 4444TIP3    H213339   0.840   1.058   3.314  1.9161  0.5697 -1.0362
 4445TIP3   OH213340   2.462   5.640   1.866  0.3288 -0.1104 -0.0155
 4445TIP3    H113341   2.438   5.732   1.875  0.4638 -0.1789  1.2668
 4445TIP3    H213342   2.383   5.592   1.890 -0.1384 -0.3533 -1.9204
 4446TIP3   OH213343   2.564   5.476   3.243 -0.1960 -0.1383  0.5443
 4446TIP3    H113344   2.544   5.485   3.336 -0.1660  0.8312  0.4631
 4446TIP3    H213345   2.599   5.561   3.218 -1.6842  0.1445 -0.7153
 4447TIP3   OH213346   1.074   4.679   0.684  0.3957 -0.6276  0.4108
 4447TIP3    H113347   1.123   4.753   0.721  3.3286 -1.7633 -0.8970
 4447TIP3    H213348   1.111   4.602   0.727 -0.5187 -1.5267 -0.3725
 4448TIP3   OH213349   5.421   4.808   0.756 -0.4602  0.3253  0.0711
 4448TIP3    H113350   5.363   4.820   0.831  0.1994 -0.2410  0.6923
 4448TIP3    H213351   5.437   4.713   0.753 -0.5001  0.3386 -0.8038
 4449TIP3   OH213352   5.936   0.661   3.521 -0.0014 -0.1476  0.2961
 4449TIP3    H113353   5.878   0.734   3.499 -0.2908 -0.4175  0.1638
 4449TIP3    H213354   5.969   0.630   3.437  0.8345  0.4048  0.4044
 4450TIP3   OH213355   2.733   2.856   1.087  0.1123 -0.4799  0.5285
 4450TIP3    H113356   2.720   2.849   0.993  1.4637 -0.4951  0.3133
 4450TIP3    H213357   2.671   2.923   1.116 -0.3550 -0.5217 -0.3570
 4451TIP3   OH213358   1.707   5.741   2.721  0.0283 -0.5720  0.2763
 4451TIP3    H113359   1.735   5.650   2.723  0.3285 -0.4946 -0.1685
 4451TIP3    H213360   1.703   5.763   2.627 -0.6422 -0.3120  0.3577
 4452TIP3   OH213361   4.050   0.128   1.572  0.0261  0.5275 -0.0112
 4452TIP3    H113362   4.036   0.140   1.666  1.6826  0.2536  0.3029
 4452TIP3    H213363   4.114   0.057   1.566 -1.2009 -0.5249 -1.4280
 4453TIP3   OH213364   4.291   3.718   5.145 -0.6286  0.4365  0.0703
 4453TIP3    H113365   4.227   3.715   5.074  0.8128  0.9700 -1.3238
 4453TIP3    H213366   4.363   3.770   5.110  1.2077 -1.3214  1.0062
 4454TIP3   OH213367   2.463   0.138   4.226  0.1157  0.5306  0.3152
 4454TIP3    H113368   2.463   0.133   4.130 -1.0845  0.2772  0.3225
 4454TIP3    H213369   2.383   0.186   4.248  0.2176  0.3044  1.2111
 4455TIP3   OH213370   0.021   3.498   4.237 -0.5052  0.2991 -0.5699
 4455TIP3    H113371   0.022   3.418   4.291  1.2772  0.9271  0.4198
 4455TIP3    H213372   0.058   3.471   4.154  0.7211  0.2001 -0.0140
 4456TIP3   OH213373   3.714   1.377   5.121  0.2310 -0.4502  0.2658
 4456TIP3    H113374   3.683   1.332   5.042  0.3646 -0.6544  0.3306
 4456TIP3    H213375   3.713   1.310   5.189  3.0168 -1.1243 -0.2186
 4457TIP3   OH213376   3.838   0.985   1.173  0.0955  0.1148 -0.4203
 4457TIP3    H113377   3.743   0.987   1.163  0.2805  0.4638 -2.6043
 4457TIP3    H213378   3.871   0.996   1.084  2.1717 -4.1026 -0.3755
 4458TIP3   OH213379   3.427   5.469   4.982 -0.0445  0.1429 -0.0844
 4458TIP3    H113380   3.465   5.557   4.984  0.9977 -0.2823 -0.4734
 4458TIP3    H213381   3.437   5.441   4.891 -1.7011  0.1758 -0.2943
 4459TIP3   OH213382   2.631   2.156   1.990  0.4817 -0.2024 -0.1248
 4459TIP3    H113383   2.700   2.099   2.026  0.8453 -0.6108 -1.4122
 4459TIP3    H213384   2.588   2.102   1.924  0.5038  0.8407 -1.0141
 4460TIP3   OH213385   0.042   5.382   4.248 -0.0237 -0.3754  0.0354
 4460TIP3    H113386   0.012   5.470   4.224  0.9011 -0.0233  0.1557
 4460TIP3    H213387  -0.037   5.328   4.242 -1.2614  0.9317  2.5122
 4461TIP3   OH213388   5.460   1.684   3.837 -0.2926 -0.0661 -0.1672
 4461TIP3    H113389   5.556   1.680   3.836 -0.2516  0.2316  0.9557
 4461TIP3    H213390   5.438   1.734   3.758  0.5695  1.1374  0.3149
 4462TIP3   OH213391   1.992   1.364   4.460  0.0760  0.6025 -0.4983
 4462TIP3    H113392   1.900   1.337   4.461  0.6784 -1.6484  0.3076
 4462TIP3    H213393   2.004   1.412   4.542  0.2123 -1.4978  0.7766
 4463TIP3   OH213394   1.930   2.608   0.970 -0.2716  0.2658  0.1523
 4463TIP3    H113395   1.873   2.566   0.906  0.4989 -0.6050  0.0169
 4463TIP3    H213396   1.917   2.702   0.956 -0.6024  0.0813 -0.8412
 4464TIP3   OH213397   4.244   1.376   1.655  0.0626  0.2533 -0.7497
 4464TIP3    H113398   4.195   1.354   1.576 -0.8179  0.2757 -0.2264
 4464TIP3    H213399   4.202   1.325   1.724 -0.0526  1.2474 -0.0633
 4465TIP3   OH213400   4.834   0.158   3.350 -0.3328  0.0818 -0.6930
 4465TIP3    H113401   4.820   0.131   3.260 -1.6687 -2.0921  0.0834
 4465TIP3    H213402   4.765   0.114   3.400 -0.2476  1.9995  1.2776
 4466TIP3   OH213403   2.314   2.007   4.778  0.1458 -0.1240 -0.0382
 4466TIP3    H113404   2.406   2.022   4.758 -0.5761  1.6632 -2.5175
 4466TIP3    H213405   2.295   2.066   4.851  0.8727 -0.3201  0.3215
 4467TIP3   OH213406   3.558   0.589   3.798 -0.2313 -0.2294  0.3093
 4467TIP3    H113407   3.635   0.533   3.789 -0.1893 -0.1273  0.0343
 4467TIP3    H213408   3.552   0.635   3.715 -0.4420 -0.0470  0.4256
 4468TIP3   OH213409   0.948   4.365   0.248  0.0654 -0.5127  0.1806
 4468TIP3    H113410   0.968   4.401   0.334 -1.6169 -0.9189  0.7798
 4468TIP3    H213411   0.933   4.272   0.264 -3.1217 -0.1162  0.0272
 4469TIP3   OH213412   6.156   4.368   4.862 -0.5882  0.3803  0.4833
 4469TIP3    H113413   6.195   4.443   4.908  0.7316 -0.1296  0.2507
 4469TIP3    H213414   6.174   4.385   4.770 -1.0897  0.2170  0.3544
 4470TIP3   OH213415   1.266   1.314   1.738  0.0662 -0.3318  0.3716
 4470TIP3    H113416   1.282   1.223   1.714  3.4022  0.0431  0.6589
 4470TIP3    H213417   1.297   1.321   1.828 -1.0880  0.8811  0.6972
 4471TIP3   OH213418   5.624   1.598   4.719 -0.2313  0.1136  0.2933
 4471TIP3    H113419   5.688   1.569   4.785  0.3246  0.7278  0.0327
 4471TIP3    H213420   5.635   1.536   4.647  0.3765  0.4744  0.0723
 4472TIP3   OH213421   2.034   3.603   4.361 -0.0075  0.5694  0.3359
 4472TIP3    H113422   2.073   3.557   4.435 -1.5173 -1.7365 -0.2014
 4472TIP3    H213423   1.945   3.625   4.390 -0.5743 -0.2583 -0.7051
 4473TIP3   OH213424   1.376   1.364   2.002 -0.3699  0.2777 -0.2934
 4473TIP3    H113425   1.455   1.411   1.977 -0.9113  1.4673  0.1597
 4473TIP3    H213426   1.379   1.361   2.097 -1.0970  0.7562 -0.2479
 4474TIP3   OH213427   1.838   2.753   0.091 -0.3885 -0.3321  0.4140
 4474TIP3    H113428   1.762   2.697   0.075 -1.1689  0.6205  0.6517
 4474TIP3    H213429   1.826   2.827   0.032 -1.0783  1.1394  2.2925
 4475TIP3   OH213430   5.474   2.496   0.149  0.0322  0.0547  0.1999
 4475TIP3    H113431   5.519   2.564   0.099 -0.0191 -1.2241 -1.7334
 4475TIP3    H213432   5.544   2.452   0.197  0.1090  1.2185  1.1825
 4476TIP3   OH213433   4.976   1.068   4.308 -0.0006 -0.1764 -0.2294
 4476TIP3    H113434   4.939   0.985   4.278  2.2260 -1.0166 -0.8029
 4476TIP3    H213435   5.067   1.066   4.280  0.4186  1.9856  0.7478
 4477TIP3   OH213436   5.094   2.341   0.678  0.3967 -0.3346 -0.4389
 4477TIP3    H113437   5.058   2.373   0.595  1.2820 -0.6362 -0.9590
 4477TIP3    H213438   5.050   2.393   0.745  0.8626  1.1112 -1.1877
 4478TIP3   OH213439   2.806   5.120   5.089 -0.1570  0.0829  0.2540
 4478TIP3    H113440   2.729   5.062   5.082  0.1457 -0.4289  1.0444
 4478TIP3    H213441   2.880   5.060   5.101  0.6269  0.4750 -2.0731
 4479TIP3   OH213442   4.907   3.497   4.628 -0.2583 -0.5889 -0.0428
 4479TIP3    H113443   4.822   3.538   4.644 -0.5681 -1.3522  0.3527
 4479TIP3    H213444   4.908   3.422   4.688 -0.7049 -2.5346 -2.3393
 4480TIP3   OH213445   5.617   0.364   3.240  0.1612 -0.0499  0.2980
 4480TIP3    H113446   5.662   0.447   3.225 -1.3193  0.7336  0.0503
 4480TIP3    H213447   5.584   0.370   3.330 -0.3368 -0.1798  0.1267
 4481TIP3   OH213448   0.049   5.675   4.725 -0.0996  0.4761 -0.2516
 4481TIP3    H113449   0.025   5.633   4.642  0.8215  0.0103 -0.2989
 4481TIP3    H213450  -0.030   5.669   4.778  0.0427 -1.5305 -0.1927
 4482TIP3   OH213451   5.590   2.068   0.961  0.0071  0.0786  0.2319
 4482TIP3    H113452   5.656   1.998   0.961  0.6670  0.6038 -2.0221
 4482TIP3    H213453   5.509   2.024   0.935 -0.0255 -0.1741  0.7530
 4483TIP3   OH213454   1.320   2.091   0.790  0.3964 -0.0847 -0.7099
 4483TIP3    H113455   1.299   2.003   0.823  1.0069  0.2711  0.6769
 4483TIP3    H213456   1.238   2.139   0.797  0.5605  0.0478  0.5626
 4484TIP3   OH213457   2.928   0.675   4.319 -0.4287 -0.0456 -0.0294
 4484TIP3    H113458   2.995   0.649   4.256  0.4920  1.8692  0.0724
 4484TIP3    H213459   2.859   0.714   4.265  0.0376  0.9294  0.0351
 4485TIP3   OH213460   3.386   4.084   5.026 -0.3507 -0.6651  0.1212
 4485TIP3    H113461   3.449   4.096   4.956 -0.5977 -1.3971 -0.2391
 4485TIP3    H213462   3.343   4.170   5.035  1.3542  0.1252  1.0521
 4486TIP3   OH213463   4.624   0.601   3.030 -0.1483 -0.4502  0.1534
 4486TIP3    H113464   4.603   0.680   2.979  1.5352  0.4578  0.8038
 4486TIP3    H213465   4.701   0.564   2.986 -0.3187 -1.1874  0.4584
 4487TIP3   OH213466   0.785   4.612   0.854  0.2282  0.0412 -0.1118
 4487TIP3    H113467   0.692   4.608   0.876  0.3224  0.8300  0.4826
 4487TIP3    H213468   0.793   4.560   0.774 -1.4706  3.0675 -2.5092
 4488TIP3   OH213469   1.128   5.175   0.330  0.2802  0.7946  0.3997
 4488TIP3    H113470   1.213   5.132   0.337  0.1084  0.7007  2.1984
 4488TIP3    H213471   1.107   5.201   0.419 -0.5514  2.8277 -0.3380
 4489TIP3   OH213472   1.364   3.384   1.680  0.3055  0.4408  0.1845
 4489TIP3    H113473   1.400   3.464   1.720 -1.6495 -0.0803  3.3063
 4489TIP3    H213474   1.269   3.395   1.686 -0.0416 -1.1684 -1.4565
 4490TIP3   OH213475   1.380   5.642   3.113 -0.8216 -0.5981 -0.3357
 4490TIP3    H113476   1.442   5.686   3.055 -0.4271 -0.5889  0.0880
 4490TIP3    H213477   1.334   5.580   3.056 -0.8868 -0.1387 -0.7873
 4491TIP3   OH213478   0.154   1.497   4.269  0.1895  0.7328 -0.0672
 4491TIP3    H113479   0.225   1.518   4.210  0.1285  4.3628  0.8893
 4491TIP3    H213480   0.192   1.507   4.357 -0.8677  0.1873  0.4728
 4492TIP3   OH213481   1.857   5.321   2.433  0.2054  0.3069 -0.5817
 4492TIP3    H113482   1.901   5.262   2.372 -0.7955  0.2581 -1.2774
 4492TIP3    H213483   1.886   5.409   2.408  1.2211  0.1697  0.0650
 4493TIP3   OH213484   2.284   1.650   0.178  0.3879  0.2358  0.1988
 4493TIP3    H113485   2.362   1.676   0.228  1.1025 -0.8798 -0.2898
 4493TIP3    H213486   2.219   1.627   0.245 -0.7210  4.1708  0.7217
 4494TIP3   OH213487   4.855   3.225   2.150  0.1952 -0.2647  0.3601
 4494TIP3    H113488   4.866   3.309   2.195  2.2830 -0.3315  0.0571
 4494TIP3    H213489   4.912   3.230   2.074  0.4744 -2.0013  0.4062
 4495TIP3   OH213490   5.070   2.786   2.642  0.2608  0.0706 -0.0113
 4495TIP3    H113491   5.022   2.868   2.641  1.0798  0.5745  0.4172
 4495TIP3    H213492   5.141   2.799   2.579  0.0881 -0.5034 -0.3329
 4496TIP3   OH213493   0.753   0.165   1.879  0.3437 -0.6230  0.6422
 4496TIP3    H113494   0.730   0.225   1.808  0.9988 -3.0865 -1.8721
 4496TIP3    H213495   0.840   0.193   1.908 -1.0024  2.0123  2.4392
 4497TIP3   OH213496   2.387   2.291   1.907 -0.3216 -0.0579  0.1613
 4497TIP3    H113497   2.303   2.247   1.894 -1.5763  1.9097  1.0841
 4497TIP3    H213498   2.399   2.344   1.828  1.0980 -1.7866 -0.8696
 4498TIP3   OH213499   5.539   1.657   2.510 -0.4461  0.3195  0.3045
 4498TIP3    H113500   5.618   1.692   2.550  0.7559 -2.5511  0.6644
 4498TIP3    H213501   5.566   1.635   2.420 -1.1049  0.2139  0.1287
 4499TIP3   OH213502   2.921   5.005   1.236 -0.2329  0.0363 -0.3829
 4499TIP3    H113503   2.996   4.945   1.233 -0.8039 -0.6807 -2.0397
 4499TIP3    H213504   2.868   4.979   1.161 -0.5808  2.5547 -1.1059
 4500TIP3   OH213505   3.378   3.649   1.719  0.2013  0.4617 -0.4439
 4500TIP3    H113506   3.360   3.704   1.795  0.7250 -0.4301  0.3540
 4500TIP3    H213507   3.470   3.626   1.729 -0.0560 -0.6883 -0.6692
 4501TIP3   OH213508   0.010   4.611   1.536 -0.1607  0.4629  0.1114
 4501TIP3    H113509   0.006   4.516   1.525 -0.6719  0.4601  0.2751
 4501TIP3    H213510   0.023   4.623   1.630  0.1071  0.5524  0.0630
 4502TIP3   OH213511   3.586   0.501   0.291  0.2294 -0.1415 -0.1747
 4502TIP3    H113512   3.566   0.425   0.236  3.6123 -0.2462 -1.5101
 4502TIP3    H213513   3.537   0.486   0.371 -0.5274 -2.9000 -1.0314
 4503TIP3   OH213514   6.107   2.715   2.639 -0.0092  0.0476 -0.1530
 4503TIP3    H113515   6.172   2.668   2.588 -1.1450 -1.6359 -0.1265
 4503TIP3    H213516   6.155   2.751   2.713  1.0780 -0.1712 -0.7405
 4504TIP3   OH213517   5.650   1.957   3.898  0.3194  0.2178 -0.0750
 4504TIP3    H113518   5.642   1.945   3.993  0.1339 -0.4600 -0.1736
 4504TIP3    H213519   5.740   1.933   3.879  0.9966  2.3237  0.2076
 4505TIP3   OH213520   2.162   3.155   0.609  0.6709 -0.4183  0.1770
 4505TIP3    H113521   2.220   3.222   0.645  1.4577 -0.9934  0.0228
 4505TIP3    H213522   2.222   3.084   0.582  0.3098  0.3772 -3.1980
 4506TIP3   OH213523   3.081   5.522   0.758  0.1797  0.2994  0.3511
 4506TIP3    H113524   3.124   5.608   0.759 -1.1977  1.0160  0.2622
 4506TIP3    H213525   3.060   5.506   0.666 -0.2618  0.2346  0.4587
 4507TIP3   OH213526   4.625   5.710   1.086 -0.2558  0.1275 -0.1172
 4507TIP3    H113527   4.676   5.665   1.153 -0.0227 -1.5489 -1.3620
 4507TIP3    H213528   4.542   5.664   1.083 -1.1235  1.5780  0.4878
 4508TIP3   OH213529   5.457   5.552   3.033  0.6486  0.3162 -0.5764
 4508TIP3    H113530   5.478   5.485   2.968  1.8389  0.1556 -0.0402
 4508TIP3    H213531   5.507   5.527   3.110 -0.7558  0.5000  0.4261
 4509TIP3   OH213532   5.003   4.054   3.032  0.0573 -0.1410  0.0936
 4509TIP3    H113533   4.938   4.071   2.964  0.2082  0.8022  0.1794
 4509TIP3    H213534   5.054   4.135   3.039 -0.9196  0.3668  2.3647
 4510TIP3   OH213535   4.289   0.741   1.044 -0.0889 -0.0406  0.9102
 4510TIP3    H113536   4.212   0.741   1.102  0.3713 -0.0766  1.5277
 4510TIP3    H213537   4.303   0.648   1.023  1.1122 -0.2778  2.5993
 4511TIP3   OH213538   1.343   3.318   2.970  0.3032 -0.1036 -0.0016
 4511TIP3    H113539   1.364   3.227   2.992 -0.2085 -0.6297 -1.5193
 4511TIP3    H213540   1.247   3.318   2.961  0.3255  0.5179 -0.2700
 4512TIP3   OH213541   2.649   4.035   1.976  0.7408  0.1227 -0.0328
 4512TIP3    H113542   2.701   4.077   2.045 -0.6191  2.2013 -0.1882
 4512TIP3    H213543   2.559   4.036   2.009 -0.1288  2.0603 -2.1104
 4513TIP3   OH213544   3.388   1.708   3.925 -0.0832 -0.1508 -0.0480
 4513TIP3    H113545   3.477   1.681   3.949 -0.2367 -0.0243  0.6813
 4513TIP3    H213546   3.380   1.796   3.960  0.3413  0.8123 -2.2287
 4514TIP3   OH213547   3.174   3.079   1.722 -0.0162  0.3833  0.0687
 4514TIP3    H113548   3.192   3.065   1.629 -3.7586  1.6023 -1.0351
 4514TIP3    H213549   3.094   3.029   1.739 -0.5365  1.7428  2.0674
 4515TIP3   OH213550   1.856   6.003   2.725 -0.8704  0.4139  0.0175
 4515TIP3    H113551   1.817   5.999   2.812 -0.2372  1.6654  0.3913
 4515TIP3    H213552   1.854   5.913   2.693 -0.5919 -0.1635  1.5595
 4516TIP3   OH213553   1.900   1.699   1.042 -0.0043  0.2203  0.2123
 4516TIP3    H113554   1.811   1.688   1.077  0.3317 -0.3018  0.9111
 4516TIP3    H213555   1.944   1.617   1.061  0.9222  0.8171  0.7195
 4517TIP3   OH213556   3.414   4.757   2.038  0.4217  0.1209  0.5992
 4517TIP3    H113557   3.324   4.732   2.062  1.3662 -0.8575  3.5161
 4517TIP3    H213558   3.436   4.699   1.965 -0.3730 -1.6997  1.7394
 4518TIP3   OH213559   2.277   4.805   2.758 -0.4167  0.1483  0.3339
 4518TIP3    H113560   2.363   4.830   2.794  0.3370 -0.8521 -0.7153
 4518TIP3    H213561   2.253   4.726   2.806  0.2181 -0.7336 -0.7732
 4519TIP3   OH213562   5.937   4.216   4.008  0.1259  0.6398 -0.4255
 4519TIP3    H113563   6.025   4.215   4.045  0.9218 -1.6381 -2.1257
 4519TIP3    H213564   5.943   4.279   3.935 -0.1192  1.6143  0.3752
 4520TIP3   OH213565   5.247   1.111   4.500  0.1296 -0.4087  0.6156
 4520TIP3    H113566   5.179   1.045   4.499  0.8053 -1.1455  1.5007
 4520TIP3    H213567   5.247   1.147   4.412 -2.1651  0.4311  0.8988
 4521TIP3   OH213568   3.065   2.117   4.856 -0.3149 -0.3277 -0.4720
 4521TIP3    H113569   3.083   2.070   4.937  0.9368  1.3711  0.3027
 4521TIP3    H213570   2.976   2.092   4.833 -0.3277 -1.6464  0.8666
 4522TIP3   OH213571   1.871   1.610   4.287  0.1404 -0.1228 -0.3641
 4522TIP3    H113572   1.815   1.559   4.346  2.2476 -2.5437 -0.2894
 4522TIP3    H213573   1.940   1.644   4.343  0.4830  0.1643 -0.9571
 4523TIP3   OH213574   1.772   4.228   3.837  0.6577  0.4930  0.6658
 4523TIP3    H113575   1.830   4.267   3.903  0.9653  1.4718 -0.1762
 4523TIP3    H213576   1.690   4.212   3.885 -0.4587  4.6271  0.5018
 4524TIP3   OH213577   6.267   2.242   5.012 -0.3129 -0.7477 -0.5695
 4524TIP3    H113578   6.221   2.224   4.930 -1.2598  0.4666 -0.3207
 4524TIP3    H213579   6.259   2.160   5.062 -0.2511 -1.2885 -1.4193
 4525TIP3   OH213580   5.302   3.875   2.809 -0.3815 -0.5921  0.3811
 4525TIP3    H113581   5.208   3.892   2.807 -0.1013  1.3501  1.7381
 4525TIP3    H213582   5.339   3.945   2.862  2.1000 -0.0716 -1.8094
 4526TIP3   OH213583   5.621   2.515   3.148 -0.1755 -0.2761  0.6553
 4526TIP3    H113584   5.532   2.537   3.121  0.5771  1.7520 -0.4084
 4526TIP3    H213585   5.619   2.519   3.244 -0.6190  2.7203  0.6117
 4527TIP3   OH213586   4.247   5.424   2.669 -0.3180  0.2997  0.1942
 4527TIP3    H113587   4.204   5.494   2.620 -0.7415 -0.0479  0.0626
 4527TIP3    H213588   4.180   5.357   2.679  0.1957 -0.2595 -0.0229
 4528TIP3   OH213589   6.221   4.433   2.747  0.0413  0.6637 -0.1404
 4528TIP3    H113590   6.265   4.501   2.798 -0.7982  0.2789  1.1408
 4528TIP3    H213591   6.287   4.364   2.739 -0.1858  0.2164  1.5038
 4529TIP3   OH213592   5.719   0.686   1.354 -0.3076 -0.6466 -0.4534
 4529TIP3    H113593   5.680   0.657   1.436 -1.8178 -0.4128 -1.0618
 4529TIP3    H213594   5.791   0.625   1.338 -1.2911 -1.9502 -0.0010
 4530TIP3   OH213595   4.977   1.289   0.156  0.1311 -0.2421  0.0885
 4530TIP3    H113596   4.949   1.209   0.201  0.7739 -1.4560 -1.5415
 4530TIP3    H213597   5.067   1.302   0.184  0.2527 -0.5124 -0.1610
 4531TIP3   OH213598   2.936   5.370   4.774 -0.0071  0.4464 -0.1275
 4531TIP3    H113599   2.877   5.430   4.729  0.2314  1.1335  0.4580
 4531TIP3    H213600   2.907   5.372   4.865 -0.0285 -0.3728 -0.1096
 4532TIP3   OH213601   2.236   0.273   4.487 -0.0130  0.0237 -0.4854
 4532TIP3    H113602   2.240   0.356   4.535  1.1361 -0.4550  0.2994
 4532TIP3    H213603   2.256   0.297   4.397 -0.4473  0.6957 -0.4135
 4533TIP3   OH213604   4.949   0.569   1.834  0.7181  0.3930 -0.2504
 4533TIP3    H113605   5.000   0.491   1.854 -1.2618 -0.8084  0.4143
 4533TIP3    H213606   4.963   0.627   1.909  2.6510  0.9710 -1.0114
 4534TIP3   OH213607   5.530   3.840   1.451  1.1794 -0.0896 -0.3910
 4534TIP3    H113608   5.484   3.862   1.531 -1.2209 -0.1070 -1.6938
 4534TIP3    H213609   5.563   3.924   1.418 -1.0625  0.5029 -1.2558
 4535TIP3   OH213610   3.762   0.384   2.076 -0.2773  0.2274  0.1748
 4535TIP3    H113611   3.685   0.436   2.101  1.4028  2.8226  0.3602
 4535TIP3    H213612   3.814   0.444   2.021  2.2207 -0.9521  1.1205
 4536TIP3   OH213613   1.204   4.331   0.426 -0.5299 -0.0883  1.0206
 4536TIP3    H113614   1.126   4.387   0.422  0.1321  0.8339  0.1680
 4536TIP3    H213615   1.244   4.342   0.340 -0.5868 -2.2492  0.6675
 4537TIP3   OH213616   6.166   1.984   2.341 -0.6125  0.4697  0.4620
 4537TIP3    H113617   6.178   1.924   2.268 -2.7494  1.8392 -1.1422
 4537TIP3    H213618   6.072   2.003   2.342 -0.5932  0.8681  3.3162
 4538TIP3   OH213619   3.508   1.303   4.152 -0.6616  0.3199 -0.3194
 4538TIP3    H113620   3.543   1.246   4.220  1.0121  2.0353  0.3448
 4538TIP3    H213621   3.432   1.345   4.193  0.7225  1.8457  0.8092
 4539TIP3   OH213622   0.500   0.314   0.766  0.1127 -0.5828 -0.4273
 4539TIP3    H113623   0.551   0.280   0.693 -2.1743 -1.2764 -1.8170
 4539TIP3    H213624   0.442   0.242   0.790  0.9833 -0.4902  2.3435
 4540TIP3   OH213625  -0.000   4.320   3.666  0.8004 -0.0408 -0.2173
 4540TIP3    H113626   0.095   4.312   3.675  0.7442 -0.8184 -0.2455
 4540TIP3    H213627  -0.029   4.232   3.643 -0.1996 -0.4179  2.2026
 4541TIP3   OH213628   5.770   3.726   3.747  0.8553  0.0013  0.3775
 4541TIP3    H113629   5.701   3.696   3.688 -1.7365  2.6287  1.8171
 4541TIP3    H213630   5.794   3.649   3.798 -0.1813 -1.2533 -0.9451
 4542TIP3   OH213631   2.321   2.001   1.652 -0.2922  0.3933  0.8869
 4542TIP3    H113632   2.399   1.999   1.596 -0.4632  1.1769  0.6094
 4542TIP3    H213633   2.281   1.915   1.641  0.1018  0.2646  0.4115
 4543TIP3   OH213634   2.210   1.238   3.766  0.4833 -0.5679  0.1087
 4543TIP3    H113635   2.140   1.231   3.700 -2.8565  1.6218  3.0566
 4543TIP3    H213636   2.208   1.154   3.812 -2.1379  0.2796  1.7392
 4544TIP3   OH213637   3.749   3.580   1.073 -0.0589  0.2796 -0.1854
 4544TIP3    H113638   3.821   3.625   1.117  1.1723  0.0253 -1.8180
 4544TIP3    H213639   3.722   3.640   1.003 -0.5115 -0.2050 -0.4393
 4545TIP3   OH213640   0.874   2.365   3.867  0.1945  0.0176  0.3341
 4545TIP3    H113641   0.876   2.391   3.775  0.8513  0.2444  0.4049
 4545TIP3    H213642   0.786   2.387   3.897 -0.8432 -2.2218 -0.8472
 4546TIP3   OH213643   3.115   4.949   2.171 -0.0223  0.3193  0.1135
 4546TIP3    H113644   3.151   4.885   2.232 -0.3766 -0.6639 -0.6778
 4546TIP3    H213645   3.035   4.908   2.137  0.1169  0.8621 -0.9334
 4547TIP3   OH213646   1.154   0.674   1.074  0.0998  0.1470  0.3899
 4547TIP3    H113647   1.146   0.710   1.162 -0.3141 -0.7221  0.7213
 4547TIP3    H213648   1.225   0.610   1.080  1.4545  1.5339 -0.4171
 4548TIP3   OH213649   5.464   2.756   0.928 -0.0540 -0.5906 -0.2700
 4548TIP3    H113650   5.516   2.755   0.848  0.7811 -3.1177  0.1909
 4548TIP3    H213651   5.402   2.683   0.917  0.9444 -1.8549  1.8322
 4549TIP3   OH213652   1.533   2.653   3.945  0.0909 -0.0606 -0.4857
 4549TIP3    H113653   1.521   2.698   4.029  1.4487  2.3914 -1.4924
 4549TIP3    H213654   1.457   2.680   3.893  0.2156 -0.0157 -0.6463
 4550TIP3   OH213655   5.884   0.577   4.637 -0.3687  0.7632 -0.2180
 4550TIP3    H113656   5.908   0.558   4.728 -1.3141  0.2454 -0.0608
 4550TIP3    H213657   5.939   0.518   4.586 -0.0047  0.8813  0.0316
 4551TIP3   OH213658   4.733   4.548   2.151 -0.3411 -0.1557 -0.0317
 4551TIP3    H113659   4.770   4.520   2.234 -1.9432 -1.0867  0.4163
 4551TIP3    H213660   4.748   4.642   2.148  0.7520 -0.2840  0.7518
 4552TIP3   OH213661   4.841   2.990   4.431  0.3663 -0.2684 -0.0064
 4552TIP3    H113662   4.908   3.020   4.369  1.4753  0.5090  1.4942
 4552TIP3    H213663   4.802   3.071   4.464 -0.5108 -0.6856 -0.0057
 4553TIP3   OH213664   0.997   3.732   4.617  0.1677  0.4347  0.4950
 4553TIP3    H113665   0.992   3.746   4.522  1.2498 -0.7093  0.2462
 4553TIP3    H213666   0.986   3.820   4.654 -0.7544  0.8357 -0.6596
 4554TIP3   OH213667   0.214   2.918   0.184 -0.2094  0.2188 -0.2196
 4554TIP3    H113668   0.292   2.865   0.169  0.8188  1.1651  1.5629
 4554TIP3    H213669   0.244   3.008   0.173 -1.3950  0.5471 -0.9031
 4555TIP3   OH213670   3.066   2.659   3.331  0.2751 -0.5994 -0.1545
 4555TIP3    H113671   3.019   2.707   3.263  0.5979 -0.5281 -0.3321
 4555TIP3    H213672   3.158   2.683   3.318  0.4268 -1.1731 -0.1745
 4556TIP3   OH213673   1.038   3.029   3.282 -0.0737 -0.1928 -0.3402
 4556TIP3    H113674   1.040   2.980   3.364  0.9136  0.1282 -0.1603
 4556TIP3    H213675   0.957   3.079   3.286 -0.2871 -0.5686  0.2077
 4557TIP3   OH213676   5.448   4.099   4.763 -0.0993 -0.0492  0.2873
 4557TIP3    H113677   5.430   4.056   4.679 -1.4990 -1.1192  1.0985
 4557TIP3    H213678   5.529   4.149   4.747 -0.1872 -0.4272 -1.6089
 4558TIP3   OH213679   5.643   4.093   1.469  0.4999 -0.7323  0.1831
 4558TIP3    H113680   5.703   4.153   1.425 -0.1102  0.3437  0.7791
 4558TIP3    H213681   5.566   4.146   1.489  0.2838 -1.5012  1.4936
 4559TIP3   OH213682   6.305   5.958   3.431 -0.7214  0.3906 -0.2701
 4559TIP3    H113683   6.333   5.969   3.340  1.0692 -1.1308  0.0269
 4559TIP3    H213684   6.369   5.898   3.469 -0.0681  2.6795  2.6481
 4560TIP3   OH213685   5.977   3.243   3.858 -0.2466 -0.6133  0.0071
 4560TIP3    H113686   5.887   3.244   3.889 -1.1819  1.4608 -2.4637
 4560TIP3    H213687   6.014   3.325   3.891  0.4462 -0.9880  0.1821
 4561TIP3   OH213688   5.228   3.134   3.865  0.0123 -0.5623  0.1772
 4561TIP3    H113689   5.133   3.144   3.870 -0.1680 -0.7516 -1.9196
 4561TIP3    H213690   5.251   3.166   3.778  2.0767  0.7855  1.1390
 4562TIP3   OH213691   4.877   0.713   1.088  0.2603 -0.0484  0.6545
 4562TIP3    H113692   4.969   0.739   1.079 -0.1306  1.1523 -0.1429
 4562TIP3    H213693   4.847   0.700   0.999 -0.8347  1.4779  0.7521
 4563TIP3   OH213694   4.310   0.496   2.073 -0.3456  0.0906  0.6607
 4563TIP3    H113695   4.284   0.588   2.071 -1.0605 -0.0901  1.0879
 4563TIP3    H213696   4.390   0.494   2.125 -0.2379  0.4871  0.5136
 4564TIP3   OH213697   5.447   5.226   3.009  0.1832  0.4144  0.2530
 4564TIP3    H113698   5.506   5.279   3.062  1.1671 -0.2481 -0.1514
 4564TIP3    H213699   5.444   5.142   3.055 -2.5390  1.1915  1.7292
 4565TIP3   OH213700   1.556   1.489   0.964 -0.6727  0.1208 -0.0988
 4565TIP3    H113701   1.525   1.430   1.033  0.6355  0.2485  0.6306
 4565TIP3    H213702   1.579   1.570   1.010  0.2213  0.2132 -0.6813
 4566TIP3   OH213703   0.685   0.667   4.778 -0.2030 -0.1243  0.0426
 4566TIP3    H113704   0.766   0.718   4.779 -0.5558  0.4334  0.6796
 4566TIP3    H213705   0.652   0.677   4.688 -0.3580  0.9289  0.2036
 4567TIP3   OH213706   5.674   1.579   0.623  0.0491  0.5089  0.7975
 4567TIP3    H113707   5.731   1.650   0.592 -1.1727  1.2780  0.2484
 4567TIP3    H213708   5.588   1.620   0.631 -0.3613 -0.5443  1.9624
 4568TIP3   OH213709   5.380   5.086   4.353  0.0373 -0.3225 -0.1756
 4568TIP3    H113710   5.305   5.082   4.294  0.2248 -3.3368 -0.3688
 4568TIP3    H213711   5.456   5.088   4.294  0.2130  2.2382  0.0247
 4569TIP3   OH213712   2.830   3.634   1.481 -0.4483  0.0309  0.4289
 4569TIP3    H113713   2.871   3.601   1.561 -0.1901 -0.9889 -0.1085
 4569TIP3    H213714   2.896   3.618   1.413 -1.2792 -0.5389 -0.2491
 4570TIP3   OH213715   4.394   0.897   1.452  0.3139 -0.4860 -0.2168
 4570TIP3    H113716   4.415   0.913   1.544  0.9032 -2.5310  0.0717
 4570TIP3    H213717   4.311   0.850   1.455 -1.2929  2.1135 -0.9875
 4571TIP3   OH213718   3.223   2.482   4.274 -0.0120  0.1346  0.0251
 4571TIP3    H113719   3.191   2.435   4.351  1.3987  0.4873  0.8596
 4571TIP3    H213720   3.234   2.415   4.207  0.8445 -0.5562  0.8303
 4572TIP3   OH213721   4.959   0.213   3.596  0.1314 -0.6743 -0.0967
 4572TIP3    H113722   5.019   0.141   3.613  1.7194  0.4236 -0.7927
 4572TIP3    H213723   4.938   0.206   3.503 -0.1425 -0.5436 -0.0493
 4573TIP3   OH213724   1.931   2.696   1.281 -0.4414  0.0422  0.2520
 4573TIP3    H113725   1.986   2.774   1.288 -0.4089  0.0479 -0.0521
 4573TIP3    H213726   1.957   2.656   1.198 -0.1066 -0.5575  0.6347
 4574TIP3   OH213727   1.165   2.395   0.816  0.3085 -0.1173  0.0872
 4574TIP3    H113728   1.196   2.417   0.728  0.6532 -1.1453 -0.0595
 4574TIP3    H213729   1.198   2.465   0.872 -1.2229  1.3955 -0.8243
 4575TIP3   OH213730   1.877   5.540   1.933 -0.4427 -0.6073  0.2163
 4575TIP3    H113731   1.805   5.595   1.902  0.9393  0.4208 -1.4100
 4575TIP3    H213732   1.836   5.458   1.958 -2.7179  1.3282  3.5004
 4576TIP3   OH213733   1.782   1.726   0.754 -0.0025  0.0916 -0.4057
 4576TIP3    H113734   1.831   1.700   0.832 -1.1556 -1.6041 -0.1859
 4576TIP3    H213735   1.753   1.643   0.715  0.1072  0.9171 -2.3656
 4577TIP3   OH213736   2.723   0.921   1.366 -0.2560  0.0924  0.7599
 4577TIP3    H113737   2.710   1.015   1.372  0.8428  0.4546 -1.4875
 4577TIP3    H213738   2.662   0.893   1.298 -0.7237 -0.8947  1.5523
 4578TIP3   OH213739   5.907   0.997   5.140 -0.0080 -0.0402 -0.0660
 4578TIP3    H113740   5.959   1.070   5.108  0.6594 -0.7239 -0.5959
 4578TIP3    H213741   5.823   1.036   5.166  0.0314  0.7875 -1.1107
 4579TIP3   OH213742   6.310   2.991   3.978 -0.5732  0.3687  0.4558
 4579TIP3    H113743   6.336   3.065   3.924 -1.7025 -0.0057 -0.6487
 4579TIP3    H213744   6.256   2.937   3.920 -0.0705 -1.1411  1.3366
 4580TIP3   OH213745   4.184   2.826   3.058 -0.1946  0.4178  0.0996
 4580TIP3    H113746   4.108   2.794   3.106  0.3485  0.6244  1.1334
 4580TIP3    H213747   4.246   2.753   3.059 -0.5870  0.0473 -1.2422
 4581TIP3   OH213748   0.840   5.797   3.651  0.5361  0.5051  0.2538
 4581TIP3    H113749   0.833   5.709   3.615  1.5376  0.1531  0.8447
 4581TIP3    H213750   0.911   5.790   3.716  0.2791  1.6214  0.6777
 4582TIP3   OH213751   0.829   0.537   5.059 -0.1657  0.2519 -0.6011
 4582TIP3    H113752   0.741   0.512   5.085  0.0754 -0.7024 -0.6544
 4582TIP3    H213753   0.877   0.545   5.141 -0.1329  0.1228 -0.6086
 4583TIP3   OH213754   4.479   0.594   2.329  0.4762 -0.0630  0.1318
 4583TIP3    H113755   4.499   0.503   2.352 -0.0166 -0.5590 -1.3240
 4583TIP3    H213756   4.495   0.643   2.410 -0.3519 -1.6086  1.2909
 4584TIP3   OH213757   3.635   3.984   2.741 -0.0194 -0.0901 -0.1605
 4584TIP3    H113758   3.717   3.934   2.738 -0.0125 -0.2711  1.7767
 4584TIP3    H213759   3.656   4.067   2.698  1.0471 -0.3131 -0.1108
 4585TIP3   OH213760   5.921   4.685   1.586  0.6270 -0.2301 -0.4345
 4585TIP3    H113761   5.989   4.740   1.626  1.0473 -1.2373  0.2613
 4585TIP3    H213762   5.959   4.598   1.582 -0.6942 -0.8729  0.1855
 4586TIP3   OH213763   2.662   0.777   0.187  0.2923 -0.1642  0.1198
 4586TIP3    H113764   2.684   0.728   0.267 -0.7056 -0.0088  0.5030
 4586TIP3    H213765   2.567   0.769   0.180  0.5869 -3.4990 -3.1755
 4587TIP3   OH213766   0.543   0.798   4.968  0.3639  0.1770 -0.0035
 4587TIP3    H113767   0.578   0.724   4.918 -1.8809 -1.0992  0.1756
 4587TIP3    H213768   0.606   0.810   5.040  0.6116 -1.8372  0.1791
 4588TIP3   OH213769   5.212   5.833   2.434  0.2469  0.4257 -0.0730
 4588TIP3    H113770   5.207   5.820   2.339 -0.5540  0.9919 -0.1223
 4588TIP3    H213771   5.305   5.848   2.452  0.8321 -2.2321 -0.4051
 4589TIP3   OH213772   3.326   4.168   4.373  0.2685  0.0440  0.6382
 4589TIP3    H113773   3.350   4.246   4.423  1.0552 -0.4494  1.0455
 4589TIP3    H213774   3.397   4.157   4.310  0.2972 -0.5020  0.7637
 4590TIP3   OH213775   3.779   2.791   1.210  0.3610  0.0292  0.2336
 4590TIP3    H113776   3.778   2.852   1.136 -0.7246  0.1778  0.3569
 4590TIP3    H213777   3.811   2.709   1.172  2.8316  0.8897  0.2765
 4591TIP3   OH213778   4.763   2.167   4.545 -0.0645 -0.3367 -0.4570
 4591TIP3    H113779   4.719   2.199   4.466 -1.2982 -0.2910  0.2330
 4591TIP3    H213780   4.837   2.227   4.557 -0.7614  0.5959 -0.7125
 4592TIP3   OH213781   4.427   2.167   1.754 -0.2086 -0.2330 -0.0939
 4592TIP3    H113782   4.443   2.261   1.743  1.5060 -0.6774 -1.9162
 4592TIP3    H213783   4.461   2.147   1.841 -0.1897  0.7578  0.1392
 4593TIP3   OH213784   0.446   5.380   1.640 -0.0844  0.4553 -0.1719
 4593TIP3    H113785   0.363   5.403   1.681 -0.9003 -0.5656 -1.1839
 4593TIP3    H213786   0.422   5.320   1.569  1.6799 -1.7867  0.9790
 4594TIP3   OH213787   6.207   4.689   3.101 -0.1343  0.1652 -0.0418
 4594TIP3    H113788   6.232   4.772   3.141 -0.1954 -0.2898  0.9740
 4594TIP3    H213789   6.154   4.645   3.167 -0.3101 -0.5841 -0.6545
 4595TIP3   OH213790   0.821   4.223   3.615  0.2195  0.0613 -0.0502
 4595TIP3    H113791   0.781   4.222   3.528 -0.6188  2.4458  0.2248
 4595TIP3    H213792   0.912   4.248   3.598  0.4084 -0.7739 -0.3202
 4596TIP3   OH213793   3.493   5.617   2.077 -0.9333 -0.2102 -0.1332
 4596TIP3    H113794   3.581   5.617   2.039 -0.7861  1.8590  0.1205
 4596TIP3    H213795   3.447   5.548   2.029  0.2679 -0.0452 -1.5991
 4597TIP3   OH213796   6.098   2.829   1.683 -0.1956  0.8693  0.5130
 4597TIP3    H113797   6.056   2.757   1.635  0.9877  1.0912 -0.9265
 4597TIP3    H213798   6.072   2.908   1.635  0.3309  1.1824  0.7398
 4598TIP3   OH213799   5.479   2.669   2.681 -0.0195  0.1003  0.4095
 4598TIP3    H113800   5.539   2.725   2.730  0.0763 -0.4769  0.9652
 4598TIP3    H213801   5.398   2.670   2.732 -0.0846 -0.0991  0.3089
 4599TIP3   OH213802   4.862   3.169   2.881 -0.2513  0.1247  0.2722
 4599TIP3    H113803   4.846   3.193   2.790 -0.7181 -0.9540  0.0560
 4599TIP3    H213804   4.785   3.118   2.906 -0.0105  0.2002  1.1973
 4600TIP3   OH213805   1.708   5.035   3.261 -0.4791  0.3754 -0.3404
 4600TIP3    H113806   1.623   5.069   3.286 -1.1601 -1.6383  0.2708
 4600TIP3    H213807   1.768   5.066   3.329 -1.0286  0.5217  0.0818
 4601TIP3   OH213808   5.211   5.714   4.148 -0.0768 -0.2913  0.1523
 4601TIP3    H113809   5.268   5.648   4.187 -0.2697 -0.9326 -0.6399
 4601TIP3    H213810   5.266   5.793   4.144  0.3567 -0.5670  0.5138
 4602TIP3   OH213811   2.498   0.095   2.024 -0.0557  0.2781  0.0697
 4602TIP3    H113812   2.440   0.019   2.014  0.3810 -0.0407 -0.0696
 4602TIP3    H213813   2.566   0.065   2.083  0.1674  0.5367 -0.0565
 4603TIP3   OH213814   1.223   2.954   5.167  0.0190  0.3601  0.2383
 4603TIP3    H113815   1.260   2.943   5.254 -0.5177 -1.2701  0.2953
 4603TIP3    H213816   1.272   2.892   5.112  0.2646  1.2714 -0.6161
 4604TIP3   OH213817   4.759   4.515   5.114 -0.6080 -0.1032 -0.9214
 4604TIP3    H113818   4.800   4.541   5.032  2.1401  0.2958  0.4413
 4604TIP3    H213819   4.677   4.563   5.117  0.2594  1.5619 -2.4456
 4605TIP3   OH213820   0.797   2.022   3.582 -0.4553 -0.1862 -0.5707
 4605TIP3    H113821   0.747   2.027   3.663  0.7119 -0.5322  0.1982
 4605TIP3    H213822   0.836   2.110   3.573 -0.1958 -0.2925 -0.4944
 4606TIP3   OH213823   4.353   2.236   2.245 -0.3116  0.1693  0.6648
 4606TIP3    H113824   4.257   2.241   2.244 -0.4142 -0.7966  2.4258
 4606TIP3    H213825   4.373   2.175   2.316  1.5664 -1.0155 -0.8052
 4607TIP3   OH213826   4.678   1.068   4.348  0.4113  0.0137 -0.1066
 4607TIP3    H113827   4.643   1.020   4.423 -0.5020  1.6679  0.5743
 4607TIP3    H213828   4.771   1.080   4.368  0.5069 -0.8983  0.0096
 4608TIP3   OH213829   2.576   3.779   4.488  0.1930  0.5696  0.6892
 4608TIP3    H113830   2.522   3.743   4.559 -0.7785  2.2399  0.8318
 4608TIP3    H213831   2.643   3.712   4.474 -0.4194 -0.4321  2.2234
 4609TIP3   OH213832   2.085   4.827   2.559 -0.1587 -0.0532 -0.2341
 4609TIP3    H113833   2.135   4.892   2.510  0.4006 -0.0588  0.3199
 4609TIP3    H213834   2.140   4.807   2.635  0.0591 -1.7687 -0.8031
 4610TIP3   OH213835   4.052   2.604   0.478 -0.1370 -0.2616  0.5107
 4610TIP3    H113836   4.079   2.649   0.398  1.0334 -0.9298  0.5111
 4610TIP3    H213837   4.032   2.515   0.451 -0.0344 -0.4112  0.9099
 4611TIP3   OH213838   1.534   0.501   3.744 -0.3366 -0.1438  0.3249
 4611TIP3    H113839   1.558   0.561   3.674  0.6084 -0.6997  0.1662
 4611TIP3    H213840   1.498   0.424   3.699 -0.7733 -0.0504  0.5009
 4612TIP3   OH213841   6.132   5.572   0.716  0.0244  0.3526  0.1513
 4612TIP3    H113842   6.179   5.488   0.712  0.1626  0.4525 -0.3075
 4612TIP3    H213843   6.149   5.614   0.632 -1.4186  0.1120 -0.2832
 4613TIP3   OH213844   4.388   5.625   0.687 -0.4618  0.6486 -0.3035
 4613TIP3    H113845   4.371   5.718   0.674 -1.7104  0.4593 -0.0969
 4613TIP3    H213846   4.435   5.598   0.608  0.9671  1.6927  0.1536
 4614TIP3   OH213847   1.702   4.756   3.967 -0.5401 -0.1728  0.1195
 4614TIP3    H113848   1.773   4.736   3.905 -1.8730  0.1722 -1.6099
 4614TIP3    H213849   1.661   4.671   3.985 -2.3299  0.0380 -2.3456
 4615TIP3   OH213850   4.254   1.790   0.306 -0.4936  0.0185  0.1613
 4615TIP3    H113851   4.279   1.746   0.388  0.3156  0.7478  0.3258
 4615TIP3    H213852   4.302   1.873   0.309 -0.0848 -0.1492 -1.2782
 4616TIP3   OH213853   0.694   4.971   3.932  0.3033 -0.6321  0.1379
 4616TIP3    H113854   0.686   5.058   3.893 -0.5540 -0.1442  1.3484
 4616TIP3    H213855   0.609   4.930   3.916  0.1108 -0.6032  1.0484
 4617TIP3   OH213856   0.662   2.994   1.875  0.8869  0.2491  0.1972
 4617TIP3    H113857   0.648   2.901   1.891  1.4404 -0.0527 -0.9351
 4617TIP3    H213858   0.707   3.026   1.954 -2.0971  0.3237  2.0350
 4618TIP3   OH213859   2.106   1.549   3.634 -0.1362  0.9459 -0.8393
 4618TIP3    H113860   2.175   1.615   3.645  0.3286  0.3326  0.1086
 4618TIP3    H213861   2.116   1.518   3.544  0.4662  1.2665 -0.8908
 4619TIP3   OH213862   1.780   4.436   1.833  0.2447 -0.1156  0.2281
 4619TIP3    H113863   1.712   4.464   1.894 -1.8649 -0.7939 -1.6312
 4619TIP3    H213864   1.794   4.343   1.853 -2.9925 -1.3505 -2.2734
 4620TIP3   OH213865   0.964   4.189   0.527 -0.0622 -0.8429 -0.1841
 4620TIP3    H113866   1.029   4.227   0.586 -0.9967 -0.0891  0.4081
 4620TIP3    H213867   0.882   4.194   0.577 -0.6748 -1.1934 -1.1407
 4621TIP3   OH213868   1.159   5.894   1.457 -0.0063 -0.3097  0.6968
 4621TIP3    H113869   1.215   5.838   1.511 -0.1572 -0.1968  0.9685
 4621TIP3    H213870   1.207   5.903   1.374 -0.1952 -1.2363  0.4693
 4622TIP3   OH213871   0.828   5.364   0.560 -0.4904  0.5482 -0.4717
 4622TIP3    H113872   0.875   5.334   0.638  0.8719  0.9809 -1.0929
 4622TIP3    H213873   0.866   5.449   0.540 -0.9665  0.5385 -1.4788
 4623TIP3   OH213874   3.538   0.217   2.384 -0.1145  0.4419  0.1950
 4623TIP3    H113875   3.528   0.309   2.409  0.7378  0.2539  1.3513
 4623TIP3    H213876   3.456   0.195   2.340 -0.6294  1.5583  0.5466
 4624TIP3   OH213877   0.570   3.356   0.923 -0.7432  0.6525  0.9499
 4624TIP3    H113878   0.616   3.415   0.863 -1.4478 -0.4502 -0.7877
 4624TIP3    H213879   0.561   3.405   1.004 -1.7693  3.1468 -0.5579
 4625TIP3   OH213880   5.794   5.756   3.721 -0.4514  0.2252  0.5207
 4625TIP3    H113881   5.733   5.705   3.774  0.8508 -0.1436  1.7300
 4625TIP3    H213882   5.794   5.843   3.762 -0.7271  0.4515  0.0503
 4626TIP3   OH213883   3.586   1.710   2.101 -0.1315  0.1581 -0.0240
 4626TIP3    H113884   3.559   1.739   2.187  1.4892 -0.3557  0.7093
 4626TIP3    H213885   3.552   1.621   2.093  2.2287 -0.9719  1.4176
 4627TIP3   OH213886   0.497   5.920   1.282  0.0762 -0.0391  0.4874
 4627TIP3    H113887   0.512   5.881   1.368  0.6693 -0.9966 -0.0385
 4627TIP3    H213888   0.435   5.861   1.239  0.5390 -0.1141 -0.0994
 4628TIP3   OH213889   5.946   5.364   2.650  0.5948 -0.4100  0.4395
 4628TIP3    H113890   5.852   5.380   2.643  0.8932  0.6974 -2.3785
 4628TIP3    H213891   5.964   5.365   2.744 -1.6613  2.6542  0.9809
 4629TIP3   OH213892   4.602   0.169   4.017  0.5975 -0.2875  0.2188
 4629TIP3    H113893   4.594   0.098   4.081 -0.2370  0.2555  0.7449
 4629TIP3    H213894   4.682   0.216   4.042  0.3972 -0.2143  0.7392
 4630TIP3   OH213895   3.237   1.094   3.661 -0.1047  0.0327  0.5237
 4630TIP3    H113896   3.244   1.147   3.582 -0.6858 -0.4024  0.1722
 4630TIP3    H213897   3.154   1.121   3.701 -0.8678 -1.2242 -0.1377
 4631TIP3   OH213898   2.365   5.504   2.121  0.7654 -0.2264  0.0111
 4631TIP3    H113899   2.382   5.499   2.215 -2.1674 -0.3295  0.6286
 4631TIP3    H213900   2.309   5.581   2.111  0.5414 -0.5665 -1.5745
 4632TIP3   OH213901   6.172   2.599   0.619  0.1606 -0.8079  0.2944
 4632TIP3    H113902   6.149   2.517   0.574 -0.0504 -0.2457 -0.6443
 4632TIP3    H213903   6.093   2.653   0.612  1.6626  1.3499 -3.3853
 4633TIP3   OH213904   3.724   3.674   4.038 -0.0250 -0.4747 -0.2700
 4633TIP3    H113905   3.715   3.763   4.005 -1.4376 -0.5820 -0.2174
 4633TIP3    H213906   3.696   3.678   4.129 -1.9918 -1.3009 -0.7905
 4634TIP3   OH213907   4.390   3.550   2.778  0.1440  0.4127  0.3101
 4634TIP3    H113908   4.363   3.459   2.764  1.0269  0.4144 -1.8386
 4634TIP3    H213909   4.400   3.558   2.872  0.9605 -2.0157  0.4948
 4635TIP3   OH213910   2.165   5.564   1.851 -0.0444 -0.1090 -0.2875
 4635TIP3    H113911   2.126   5.487   1.809  0.5679  0.4423 -1.9715
 4635TIP3    H213912   2.092   5.606   1.897 -0.5893 -1.1642 -0.1597
 4636TIP3   OH213913   4.026   3.077   4.493 -0.1148  0.0630 -0.0761
 4636TIP3    H113914   4.096   3.141   4.485 -0.2978  0.2875  0.1113
 4636TIP3    H213915   3.961   3.119   4.549 -0.0261 -0.4661  0.4297
 4637TIP3   OH213916   0.981   4.025   5.183 -0.0478  0.2214  0.1049
 4637TIP3    H113917   1.014   4.108   5.149 -0.1110 -0.5728 -2.0911
 4637TIP3    H213918   0.995   3.963   5.111 -0.4967 -1.5481  1.4800
 4638TIP3   OH213919   4.071   5.074   3.515 -0.4112  0.0201  0.1425
 4638TIP3    H113920   4.048   5.025   3.594  1.7385  0.2775  0.9854
 4638TIP3    H213921   4.093   5.007   3.450  0.8673 -0.1771  0.7636
 4639TIP3   OH213922   1.848   1.117   0.324  0.0652 -0.5607  0.5479
 4639TIP3    H113923   1.866   1.115   0.230  2.2592  3.6926  0.6485
 4639TIP3    H213924   1.933   1.098   0.365  0.1882  1.7234  1.4902
 4640TIP3   OH213925   5.724   0.758   2.337 -0.6311  0.2270 -0.7545
 4640TIP3    H113926   5.776   0.684   2.305  0.0431  1.1007 -1.7470
 4640TIP3    H213927   5.763   0.834   2.295 -0.9025  1.2322  0.7501
 4641TIP3   OH213928   2.169   5.281   2.929 -0.4493  0.1434 -0.3117
 4641TIP3    H113929   2.229   5.311   2.860  0.2073 -0.8824 -0.2124
 4641TIP3    H213930   2.111   5.219   2.885 -0.2970 -0.1977 -0.0404
 4642TIP3   OH213931   2.842   4.600   5.192  0.0106  0.0288  0.0553
 4642TIP3    H113932   2.878   4.527   5.142 -1.1730 -0.1407 -0.5764
 4642TIP3    H213933   2.748   4.581   5.198 -0.1783  1.0751  0.6157
 4643TIP3   OH213934   0.272   4.639   4.778  0.1229  0.3349  0.0247
 4643TIP3    H113935   0.343   4.669   4.835 -1.1518  1.4676  1.0875
 4643TIP3    H213936   0.249   4.716   4.726  1.2963 -0.6901 -2.1515
 4644TIP3   OH213937   5.798   5.569   3.529  0.4263 -0.6583 -0.4400
 4644TIP3    H113938   5.814   5.640   3.591 -0.1286 -1.3051  0.4869
 4644TIP3    H213939   5.885   5.540   3.502  0.6675  1.5841 -2.3215
 4645TIP3   OH213940   5.315   0.349   0.307 -0.2618  0.5132 -0.9525
 4645TIP3    H113941   5.297   0.433   0.265 -0.4225  0.9608 -0.0097
 4645TIP3    H213942   5.238   0.295   0.287 -0.7581  1.0306 -0.4581
 4646TIP3   OH213943   2.287   1.993   0.525  0.3338  0.1921 -0.2346
 4646TIP3    H113944   2.233   1.914   0.520 -0.7892  0.9333 -0.2223
 4646TIP3    H213945   2.345   1.987   0.449  0.0841 -0.5187 -0.3785
 4647TIP3   OH213946   2.845   3.232   3.514 -0.1002  0.5938 -0.4263
 4647TIP3    H113947   2.761   3.200   3.547  0.5941  0.6434  1.5050
 4647TIP3    H213948   2.837   3.327   3.517  0.4591  0.6202  1.0613
 4648TIP3   OH213949   4.936   0.786   2.626 -0.1025  0.1700  0.1416
 4648TIP3    H113950   4.991   0.796   2.548 -1.8004 -0.3769 -1.2068
 4648TIP3    H213951   4.939   0.871   2.669  1.7584  0.1472  0.1253
 4649TIP3   OH213952   0.931   2.837   2.127  0.4745  0.0480 -0.2386
 4649TIP3    H113953   1.018   2.863   2.156  0.4319 -0.3602  0.2675
 4649TIP3    H213954   0.936   2.742   2.117  0.5258  0.1813 -1.7052
 4650TIP3   OH213955   5.918   2.112   4.765  0.1076 -0.3811 -0.2253
 4650TIP3    H113956   5.937   2.034   4.817 -0.9167 -0.7177 -0.3305
 4650TIP3    H213957   5.826   2.131   4.783  0.4665  1.0979  0.1819
 4651TIP3   OH213958   2.675   1.810   2.989 -0.3066  0.0921  0.0170
 4651TIP3    H113959   2.660   1.843   2.900  1.0379  0.8619  0.0495
 4651TIP3    H213960   2.587   1.797   3.025 -0.9089 -1.4781 -1.8529
 4652TIP3   OH213961   6.086   3.734   4.707 -0.4232  0.0420 -0.5715
 4652TIP3    H113962   6.041   3.688   4.778  1.7839  0.0390  0.9266
 4652TIP3    H213963   6.135   3.665   4.662  1.1342  0.5301  0.2925
 4653TIP3   OH213964   1.893   5.554   3.877  0.1214 -0.2035 -0.1854
 4653TIP3    H113965   1.923   5.473   3.918  0.2509 -0.0603  0.0049
 4653TIP3    H213966   1.809   5.573   3.918  0.2867 -0.0194  0.0708
 4654TIP3   OH213967   2.922   2.974   2.203  0.9653  0.3556  0.1713
 4654TIP3    H113968   2.998   2.979   2.146  0.3461  0.9248 -0.6211
 4654TIP3    H213969   2.939   2.898   2.259  1.4266 -0.4208 -0.9904
 4655TIP3   OH213970   0.082   4.007   3.300 -0.2105  0.4950 -0.0762
 4655TIP3    H113971   0.068   4.063   3.376 -1.2711 -1.0270  0.9137
 4655TIP3    H213972  -0.005   3.996   3.262 -0.2232 -1.2209  0.3468
 4656TIP3   OH213973   4.385   5.240   0.869 -0.5215  0.6004 -0.8769
 4656TIP3    H113974   4.365   5.328   0.836  1.1517  0.7004 -1.7188
 4656TIP3    H213975   4.371   5.183   0.794 -1.4084  0.1319 -0.3840
 4657TIP3   OH213976   4.500   2.782   4.648  0.3719  0.2057 -0.2892
 4657TIP3    H113977   4.452   2.857   4.613 -0.0420 -0.6121 -1.5164
 4657TIP3    H213978   4.582   2.780   4.598  0.5297  0.0314 -0.0287
 4658TIP3   OH213979   1.835   0.012   5.087  0.0633 -0.1109 -0.2636
 4658TIP3    H113980   1.755   0.048   5.124 -0.5656 -1.0401 -0.6890
 4658TIP3    H213981   1.891   0.088   5.072 -1.9427  0.9999 -2.9079
 4659TIP3   OH213982   2.694   1.879   0.145 -0.0625 -0.1791 -0.0917
 4659TIP3    H113983   2.674   1.859   0.053  1.1527  0.4485 -0.5104
 4659TIP3    H213984   2.789   1.873   0.151 -0.0300  0.9112  0.8536
 4660TIP3   OH213985   3.925   5.918   1.130 -0.4915 -0.4289 -0.1560
 4660TIP3    H113986   3.843   5.964   1.147 -0.9600 -1.9032  2.1189
 4660TIP3    H213987   3.993   5.975   1.167 -0.9704 -0.9968  1.7538
 4661TIP3   OH213988   1.326   0.267   0.231  0.2756 -0.2453 -0.2763
 4661TIP3    H113989   1.346   0.353   0.269 -0.1305  0.7219 -2.1458
 4661TIP3    H213990   1.242   0.243   0.269  0.0763  0.5028 -0.2351
 4662TIP3   OH213991   5.619   0.199   4.245 -0.7598  0.6463  0.4327
 4662TIP3    H113992   5.579   0.170   4.326 -0.1145  0.8698  0.8419
 4662TIP3    H213993   5.630   0.294   4.257  1.2724  0.3886  0.9733
 4663TIP3   OH213994   0.754   0.645   3.048 -0.6636 -0.0211 -0.2469
 4663TIP3    H113995   0.688   0.625   2.982  0.4733 -0.7102 -1.2233
 4663TIP3    H213996   0.813   0.708   3.006 -0.8120  0.7880  0.6950
 4664TIP3   OH213997   4.484   5.125   4.910  0.5997 -0.4101  0.3927
 4664TIP3    H113998   4.409   5.146   4.855  1.1280 -1.7087 -0.8820
 4664TIP3    H213999   4.558   5.169   4.869  0.7567 -0.1729  0.9194
 4665TIP3   OH214000   2.515   5.293   0.710  0.4895  0.3068 -0.2900
 4665TIP3    H114001   2.511   5.285   0.614  0.8346 -1.4432 -0.2022
 4665TIP3    H214002   2.521   5.387   0.726 -3.5072  1.0372 -1.8248
 4666TIP3   OH214003   0.666   5.520   4.782  0.2935 -0.1646  0.3490
 4666TIP3    H114004   0.693   5.609   4.804  0.3253 -0.5372  1.9549
 4666TIP3    H214005   0.747   5.469   4.782  0.2413 -0.2614 -0.2953
 4667TIP3   OH214006   3.486   3.654   4.723 -0.3453 -0.0591 -0.4323
 4667TIP3    H114007   3.486   3.585   4.657 -2.0064 -0.1806 -0.3434
 4667TIP3    H214008   3.566   3.639   4.774  0.9486 -0.0129 -2.3202
 4668TIP3   OH214009   0.213   0.265   3.842 -0.3064 -0.1199 -0.2176
 4668TIP3    H114010   0.222   0.357   3.869 -0.4043 -0.4320  0.9499
 4668TIP3    H214011   0.299   0.243   3.805 -0.3010  0.4561 -0.5630
 4669TIP3   OH214012   0.107   1.730   3.189  0.1686  0.0074 -0.1948
 4669TIP3    H114013   0.123   1.799   3.253 -0.5029 -1.3984  1.5588
 4669TIP3    H214014   0.157   1.655   3.221  0.9918 -0.3306 -2.1306
 4670TIP3   OH214015   2.541   3.686   0.870  0.5457 -0.4133 -0.1307
 4670TIP3    H114016   2.456   3.646   0.851 -0.9326  1.3485  2.2613
 4670TIP3    H214017   2.595   3.615   0.904  0.5823 -1.8307 -2.8280
 4671TIP3   OH214018   1.211   4.136   2.294 -0.0603 -0.3525  0.3765
 4671TIP3    H114019   1.196   4.051   2.335 -0.6624 -0.1690  0.5542
 4671TIP3    H214020   1.161   4.133   2.213 -0.1954 -0.1180  0.4491
 4672TIP3   OH214021   5.514   3.051   3.524 -0.1260 -0.2746  0.3357
 4672TIP3    H114022   5.466   2.986   3.575  0.0707 -0.5661  0.1546
 4672TIP3    H214023   5.596   3.064   3.572 -0.3427  0.1522  0.5943
 4673TIP3   OH214024   2.009   4.090   0.266 -0.3132 -0.4582  0.4286
 4673TIP3    H114025   2.035   4.083   0.174 -0.6305 -1.3670  0.4018
 4673TIP3    H214026   1.984   4.182   0.276  2.3757  0.3587  0.3381
 4674TIP3   OH214027   1.467   2.201   2.608 -0.2059 -0.9300 -0.1011
 4674TIP3    H114028   1.426   2.276   2.564 -0.6808 -1.2780 -0.2543
 4674TIP3    H214029   1.537   2.173   2.548  0.2594 -0.3510  0.1510
 4675TIP3   OH214030   1.224   5.469   4.311 -0.1478 -0.0881  0.1655
 4675TIP3    H114031   1.138   5.442   4.339  0.2101 -1.4845 -0.0328
 4675TIP3    H214032   1.282   5.397   4.334  0.9030  0.6337 -0.0966
 4676TIP3   OH214033   4.505   3.128   1.504 -0.2892 -0.9014 -0.5817
 4676TIP3    H114034   4.592   3.162   1.526 -1.1373 -0.0494  1.7593
 4676TIP3    H214035   4.516   3.089   1.417  2.2677 -0.2797 -0.6225
 4677TIP3   OH214036   6.272   5.118   2.100 -0.3295  0.6294 -0.2029
 4677TIP3    H114037   6.242   5.134   2.190  0.7828  1.6196  0.0177
 4677TIP3    H214038   6.314   5.032   2.104 -0.6414  0.4882  0.1273
 4678TIP3   OH214039   1.369   4.683   4.939  0.2738 -0.4185  0.0724
 4678TIP3    H114040   1.428   4.647   4.872 -0.3109 -1.0494 -0.1106
 4678TIP3    H214041   1.399   4.773   4.950  1.2758 -0.7216 -0.0159
 4679TIP3   OH214042   1.908   3.919   1.122  0.2027  0.0157  0.8332
 4679TIP3    H114043   1.896   3.928   1.217  2.0065  0.7106  1.0447
 4679TIP3    H214044   1.960   3.839   1.112 -0.5715 -0.4463  0.3436
 4680TIP3   OH214045   4.116   2.762   2.500  0.2184  0.8371 -0.1631
 4680TIP3    H114046   4.100   2.777   2.593  0.2935  0.2509 -0.0472
 4680TIP3    H214047   4.090   2.671   2.486 -0.3098  1.0822 -0.8387
 4681TIP3   OH214048   1.325   0.900   2.120 -0.2022 -0.6420  0.3564
 4681TIP3    H114049   1.402   0.857   2.082 -0.2675 -0.5393  0.1067
 4681TIP3    H214050   1.314   0.858   2.205 -0.5591 -1.4649 -0.0859
 4682TIP3   OH214051   3.696   4.702   0.319  0.4747  0.1133  0.1661
 4682TIP3    H114052   3.738   4.779   0.281 -0.3229  0.4205 -0.1050
 4682TIP3    H214053   3.627   4.678   0.257 -1.2810  1.0149  1.6843
 4683TIP3   OH214054   5.180   1.024   1.279  0.2526 -0.2826  0.2372
 4683TIP3    H114055   5.237   1.099   1.298 -0.0214  0.3767 -1.3649
 4683TIP3    H214056   5.091   1.059   1.291  0.1371 -0.6257  0.3883
 4684TIP3   OH214057   5.305   0.592   0.087  0.1312  0.0464  0.2839
 4684TIP3    H114058   5.300   0.667   0.146  1.9734 -0.3494  1.0057
 4684TIP3    H214059   5.388   0.603   0.041 -0.4222 -0.6249 -0.9160
 4685TIP3   OH214060   5.523   1.687   5.107 -0.5898  0.2979 -0.0555
 4685TIP3    H114061   5.549   1.598   5.084  0.2125  0.2207  1.0536
 4685TIP3    H214062   5.471   1.677   5.187 -1.1232  0.7567 -0.3419
 4686TIP3   OH214063   4.113   1.435   2.372  0.0504  0.1016 -0.0531
 4686TIP3    H114064   4.144   1.475   2.454 -1.2712  1.5984 -0.2130
 4686TIP3    H214065   4.020   1.460   2.368 -0.2036 -0.9703 -1.4276
 4687TIP3   OH214066   5.195   2.474   2.592  0.4906  0.0450 -0.4722
 4687TIP3    H114067   5.184   2.519   2.508  1.2674  0.0457 -0.5751
 4687TIP3    H214068   5.160   2.535   2.657  0.2996  0.2273 -0.7446
 4688TIP3   OH214069   6.115   0.791   2.074 -0.2706  0.1892 -0.1536
 4688TIP3    H114070   6.128   0.755   1.987 -0.5331 -1.2883  0.3892
 4688TIP3    H214071   6.179   0.862   2.081  1.2717 -1.0947 -0.7607
 4689TIP3   OH214072   4.329   5.376   2.330  0.6190 -0.5279  0.8413
 4689TIP3    H114073   4.288   5.304   2.378 -0.9709  0.1524  0.6003
 4689TIP3    H214074   4.395   5.335   2.276 -0.2132 -1.8151  0.7557
 4690TIP3   OH214075   1.651   4.616   1.063  0.1632  0.2815  0.4535
 4690TIP3    H114076   1.596   4.650   1.133  0.6306 -0.0724  0.9998
 4690TIP3    H214077   1.703   4.547   1.104  1.4133  0.9676  0.0965
 4691TIP3   OH214078   0.437   1.315   4.702  0.2534 -0.4829 -0.4603
 4691TIP3    H114079   0.440   1.401   4.660  0.7600  0.1584  0.8236
 4691TIP3    H214080   0.343   1.296   4.711  0.1399 -0.2192 -1.0532
 4692TIP3   OH214081   6.303   5.864   1.039  1.0787  0.0349 -0.1366
 4692TIP3    H114082   6.324   5.862   1.132 -0.1308  0.7220  0.1755
 4692TIP3    H214083   6.302   5.772   1.013 -2.2059 -0.5295  1.4508
 4693TIP3   OH214084   5.812   1.742   2.535  0.3372  0.5209 -0.2655
 4693TIP3    H114085   5.863   1.719   2.612 -0.6765 -0.6101  0.0977
 4693TIP3    H214086   5.810   1.662   2.482  0.0399  0.9353 -0.9024
 4694TIP3   OH214087   5.635   4.851   1.164  0.1667 -0.1884 -0.6720
 4694TIP3    H114088   5.565   4.814   1.218  1.3427 -0.1937  0.9026
 4694TIP3    H214089   5.715   4.809   1.196  1.0828  0.9669 -1.3751
 4695TIP3   OH214090   1.033   1.685   1.361 -0.0939  0.4505 -0.1154
 4695TIP3    H114091   0.952   1.735   1.351 -0.3417  0.0763  0.0101
 4695TIP3    H214092   1.041   1.672   1.455 -1.6684 -2.3935 -0.2677
 4696TIP3   OH214093   2.252   4.687   0.484 -0.2599 -0.1746 -0.1181
 4696TIP3    H114094   2.165   4.648   0.495  0.5276 -2.3386 -0.9878
 4696TIP3    H214095   2.245   4.740   0.405 -0.8716 -0.0994 -0.0170
 4697TIP3   OH214096   1.721   2.250   1.911 -0.2285  0.2842 -0.0535
 4697TIP3    H114097   1.717   2.343   1.892  2.6046  0.2328 -1.3277
 4697TIP3    H214098   1.802   2.220   1.870 -0.6635 -2.6017  0.9588
 4698TIP3   OH214099   5.069   5.305   3.152 -0.0406 -0.2933  0.2728
 4698TIP3    H114100   5.144   5.322   3.209  0.3277  0.4168 -0.4060
 4698TIP3    H214101   5.089   5.221   3.110 -0.5174 -1.0396  1.4919
 4699TIP3   OH214102   4.800   3.689   1.388  0.4678 -0.3444  0.1493
 4699TIP3    H114103   4.808   3.732   1.473  0.0782 -0.7845  0.4106
 4699TIP3    H214104   4.880   3.713   1.342  1.2911 -1.1415  1.1171
 4700TIP3   OH214105   5.116   4.761   1.898 -0.6845 -0.5065  0.2847
 4700TIP3    H114106   5.196   4.814   1.901 -1.0672  0.3601 -2.2702
 4700TIP3    H214107   5.143   4.679   1.856 -1.4048  0.5590 -2.4692
 4701TIP3   OH214108   3.674   2.371   0.124  0.2627 -0.3936 -0.4384
 4701TIP3    H114109   3.675   2.331   0.037  2.0972 -0.3649 -0.4721
 4701TIP3    H214110   3.675   2.297   0.184  1.0139 -0.4188 -0.4743
 4702TIP3   OH214111   2.890   2.600   4.331  0.0770 -0.0955  0.0787
 4702TIP3    H114112   2.953   2.612   4.402  0.6360 -0.8696 -0.2597
 4702TIP3    H214113   2.929   2.530   4.278  0.9956  2.1825 -2.4540
 4703TIP3   OH214114   4.569   3.528   3.890  0.2051  0.2540  0.6049
 4703TIP3    H114115   4.510   3.547   3.963  0.4483  1.5347  0.4892
 4703TIP3    H214116   4.544   3.441   3.861 -2.3758  1.1618 -0.1327
 4704TIP3   OH214117   4.403   4.833   4.894  0.0411  0.1036 -0.3273
 4704TIP3    H114118   4.356   4.831   4.977  0.3588 -0.7214 -0.1568
 4704TIP3    H214119   4.342   4.876   4.833 -0.7758 -0.5762 -0.0168
 4705TIP3   OH214120   1.223   0.449   4.384  0.5076 -0.1471  0.2188
 4705TIP3    H114121   1.286   0.497   4.330  0.7748 -2.0909 -1.3315
 4705TIP3    H214122   1.183   0.387   4.323 -0.9207 -0.8262  1.7844
 4706TIP3   OH214123   4.945   0.172   4.169  0.1482  0.2734  0.3507
 4706TIP3    H114124   4.864   0.188   4.217  1.1663  0.7066  2.0045
 4706TIP3    H214125   4.917   0.148   4.081 -1.7826 -0.5056  1.1457
 4707TIP3   OH214126   0.579   2.124   5.026 -0.1640  0.5614  0.1297
 4707TIP3    H114127   0.513   2.160   4.968 -0.4882 -3.8408 -2.6615
 4707TIP3    H214128   0.531   2.097   5.105 -0.4278  2.9732  0.8645
 4708TIP3   OH214129   5.833   1.800   0.551 -0.5681  0.3174 -0.0395
 4708TIP3    H114130   5.921   1.798   0.589  0.6757 -3.4913 -2.4960
 4708TIP3    H214131   5.834   1.876   0.493  1.1161  0.3579 -0.0063
 4709TIP3   OH214132   0.442   0.990   4.780 -0.2193  0.2497 -0.3595
 4709TIP3    H114133   0.512   1.044   4.744 -1.0606  0.9614 -0.9860
 4709TIP3    H214134   0.487   0.922   4.830  0.8791  1.2604  0.0638
 4710TIP3   OH214135   0.759   1.974   1.792 -0.2674 -0.1402 -0.0515
 4710TIP3    H114136   0.768   1.929   1.876 -3.2383 -1.2714 -0.2207
 4710TIP3    H214137   0.737   1.905   1.730  0.4552  0.8679 -1.4694
 4711TIP3   OH214138   6.005   3.580   0.633  0.6292 -0.5771  0.0721
 4711TIP3    H114139   6.006   3.490   0.600 -0.5690 -0.2767 -0.8669
 4711TIP3    H214140   6.019   3.633   0.555  2.3440  0.0580  0.7615
 4712TIP3   OH214141   1.737   2.971   2.171  0.2925 -0.0197 -0.1291
 4712TIP3    H114142   1.665   3.018   2.130 -0.0151  1.1859  1.6491
 4712TIP3    H214143   1.702   2.942   2.256  1.0768 -1.8408 -0.3697
 4713TIP3   OH214144   2.648   3.741   4.938 -0.2426 -0.0414 -0.0452
 4713TIP3    H114145   2.571   3.787   4.905 -0.7487  0.2950  1.5053
 4713TIP3    H214146   2.693   3.709   4.860 -0.8282  1.5638 -1.0697
 4714TIP3   OH214147   5.174   1.380   4.277 -0.1396  0.4695 -0.1429
 4714TIP3    H114148   5.181   1.302   4.222 -1.2628  0.8076 -0.8002
 4714TIP3    H214149   5.124   1.442   4.224 -2.1009  0.4880  1.5798
 4715TIP3   OH214150   5.632   5.963   0.827 -0.0467  0.2800 -0.7457
 4715TIP3    H114151   5.630   5.879   0.872 -1.3637  1.9036  2.5669
 4715TIP3    H214152   5.720   5.997   0.843 -0.8466  1.3563  1.9030
 4716TIP3   OH214153   4.657   1.823   4.954  0.3039  0.2538  0.2305
 4716TIP3    H114154   4.576   1.829   5.003  0.3864 -0.3317  0.4483
 4716TIP3    H214155   4.641   1.873   4.874 -0.5849 -0.5770 -0.1355
 4717TIP3   OH214156   3.192   1.919   1.677  0.1402 -0.3569  0.1452
 4717TIP3    H114157   3.183   1.826   1.656  1.0534 -0.2163 -0.9683
 4717TIP3    H214158   3.169   1.924   1.770  1.0202 -1.8603  0.4890
 4718TIP3   OH214159   6.035   3.029   1.516  0.4380 -0.5598  0.4499
 4718TIP3    H114160   6.110   3.067   1.470  0.0561 -0.0887  0.2037
 4718TIP3    H214161   5.969   3.016   1.448  0.3068 -0.9943  0.6581
 4719TIP3   OH214162   5.722   1.242   1.362 -0.4414  0.1068 -0.3664
 4719TIP3    H114163   5.761   1.170   1.312 -3.5014 -0.2281 -2.5550
 4719TIP3    H214164   5.750   1.226   1.452  0.7999 -2.5296 -1.1012
 4720TIP3   OH214165   6.099   3.190   2.866 -0.0195 -0.0227  0.3799
 4720TIP3    H114166   6.108   3.098   2.843  1.3400 -0.2020  1.4841
 4720TIP3    H214167   6.156   3.236   2.805  1.2299 -0.1955  1.3690
 4721TIP3   OH214168   6.110   2.044   1.195 -0.0178  0.4444  0.3155
 4721TIP3    H114169   6.052   2.109   1.154  0.1777 -0.4905 -1.5728
 4721TIP3    H214170   6.078   1.960   1.161  2.0845 -0.1347 -0.3532
 4722TIP3   OH214171   4.878   3.165   1.451  0.3770  0.0313  0.5092
 4722TIP3    H114172   4.967   3.186   1.480 -0.4747  2.3401  1.7385
 4722TIP3    H214173   4.858   3.233   1.386 -0.7769  0.0921  0.9039
 4723TIP3   OH214174   2.721   5.685   1.992 -0.0041 -0.3289 -0.2043
 4723TIP3    H114175   2.639   5.637   1.993 -0.0861 -0.1861  0.1861
 4723TIP3    H214176   2.768   5.651   1.916 -0.1695 -0.8370 -0.0815
 4724TIP3   OH214177   0.352   5.471   3.879  0.0614 -0.3498 -0.4760
 4724TIP3    H114178   0.370   5.510   3.964 -1.6999 -0.0928 -0.1716
 4724TIP3    H214179   0.396   5.386   3.881  1.0573  0.1620  0.1924
 4725TIP3   OH214180   1.238   4.900   0.681 -0.1265  0.0799  0.3632
 4725TIP3    H114181   1.297   4.880   0.608 -1.1319 -1.2725 -0.1173
 4725TIP3    H214182   1.297   4.918   0.755  0.8924 -0.1382 -0.3721
 4726TIP3   OH214183   2.121   4.190   3.051 -0.5274  0.1133 -0.2318
 4726TIP3    H114184   2.116   4.252   2.978 -1.3524  0.2326 -0.0827
 4726TIP3    H214185   2.149   4.244   3.125  0.6766 -0.0799 -0.5330
 4727TIP3   OH214186   0.640   3.280   0.115 -0.1685  0.8280 -0.6300
 4727TIP3    H114187   0.663   3.331   0.192 -1.0758 -0.3117  0.4314
 4727TIP3    H214188   0.570   3.330   0.073 -1.7195  0.0419  0.9281
 4728TIP3   OH214189   3.199   5.209   3.049 -0.3497  0.0460  0.5582
 4728TIP3    H114190   3.107   5.196   3.028 -0.3018  0.0535  0.3409
 4728TIP3    H214191   3.199   5.272   3.121 -0.5174 -0.0130  0.6093
 4729TIP3   OH214192   3.580   2.581   1.664  0.1234 -0.1076 -0.6941
 4729TIP3    H114193   3.562   2.672   1.640 -0.9765 -0.7651 -2.6337
 4729TIP3    H214194   3.675   2.573   1.652  0.4156  1.0290  0.5693
 4730TIP3   OH214195   3.126   2.940   2.056  0.1963  0.7723  0.0491
 4730TIP3    H114196   3.189   2.989   2.108  0.3809  0.3378  0.2454
 4730TIP3    H214197   3.176   2.864   2.024 -0.0799  0.7159 -0.2528
 4731TIP3   OH214198   5.957   3.200   1.178  0.1680  0.3224 -0.6350
 4731TIP3    H114199   5.960   3.142   1.102  3.8112  0.2011 -0.5768
 4731TIP3    H214200   5.929   3.285   1.142  0.0747 -0.1692 -1.7671
 4732TIP3   OH214201   1.342   5.134   4.121 -0.0395  0.6336 -0.0510
 4732TIP3    H114202   1.416   5.193   4.136 -1.0546  1.6299  1.1536
 4732TIP3    H214203   1.360   5.096   4.035  2.2901  0.2177  0.5479
 4733TIP3   OH214204   2.995   2.334   2.376 -0.4215  0.3529  0.0612
 4733TIP3    H114205   3.018   2.359   2.466 -0.0893  0.0686  0.0602
 4733TIP3    H214206   2.913   2.380   2.358  1.0405  2.9120 -0.5747
 4734TIP3   OH214207   4.311   4.132   3.959  0.0669  0.2703  0.1008
 4734TIP3    H114208   4.380   4.160   4.019 -0.4145  1.9222 -0.0703
 4734TIP3    H214209   4.288   4.211   3.911 -2.8055  0.0908  1.0085
 4735TIP3   OH214210   0.228   3.106   3.233 -0.1047  0.1323 -0.0085
 4735TIP3    H114211   0.282   3.164   3.287  0.0074 -0.8779  0.9876
 4735TIP3    H214212   0.290   3.052   3.185 -0.2117 -0.3419  0.3797
 4736TIP3   OH214213   4.285   1.508   3.966 -0.0138  0.0373  0.2131
 4736TIP3    H114214   4.257   1.530   3.878  0.8806 -2.8510 -0.9155
 4736TIP3    H214215   4.207   1.519   4.020 -1.8805 -2.2688 -1.7872
 4737TIP3   OH214216   1.770   5.106   4.051  0.5338  0.0995 -0.0439
 4737TIP3    H114217   1.839   5.049   4.086  2.0885  1.9516  0.0908
 4737TIP3    H214218   1.741   5.063   3.971  1.6061 -0.9167  0.0896
 4738TIP3   OH214219   3.596   5.184   0.653  0.2948 -0.2493  1.0019
 4738TIP3    H114220   3.594   5.193   0.557  1.7288 -1.2240  0.8542
 4738TIP3    H214221   3.531   5.248   0.684 -0.3407 -0.0568 -0.6202
 4739TIP3   OH214222   0.320   3.409   2.221 -0.4985  0.0219  0.9708
 4739TIP3    H114223   0.401   3.365   2.244  0.4388  1.2151  0.0394
 4739TIP3    H214224   0.270   3.343   2.172  0.6479 -0.1857  0.0572
 4740TIP3   OH214225   3.814   0.437   0.025  0.2837  0.1236 -0.2301
 4740TIP3    H114226   3.901   0.468   0.050 -0.1358 -0.6566  2.4285
 4740TIP3    H214227   3.802   0.355   0.073 -1.5541 -0.3321 -1.3428
 4741TIP3   OH214228   1.290   0.194   0.508  0.1011 -0.4093 -0.0396
 4741TIP3    H114229   1.247   0.269   0.549  0.9324  0.2607 -0.3626
 4741TIP3    H214230   1.384   0.213   0.518  0.3276 -0.5314 -1.6961
 4742TIP3   OH214231   3.018   0.788   1.042  0.3174  0.0680 -0.4043
 4742TIP3    H114232   3.065   0.709   1.016  0.6910  0.0424  0.3196
 4742TIP3    H214233   3.081   0.859   1.027  0.2019  0.1565 -0.4674
 4743TIP3   OH214234   4.610   2.672   2.522 -0.0360  0.3823 -0.2982
 4743TIP3    H114235   4.652   2.606   2.466 -1.0449 -1.6392  1.1970
 4743TIP3    H214236   4.682   2.728   2.550  1.0985 -0.8343 -0.6573
 4744TIP3   OH214237   2.253   5.038   4.211 -0.4587 -0.1399  0.2212
 4744TIP3    H114238   2.289   5.034   4.300 -0.7460 -1.8165  0.2926
 4744TIP3    H214239   2.311   4.982   4.159 -0.2488  0.8872 -0.6870
 4745TIP3   OH214240   2.426   1.037   0.374 -0.1359  0.3500 -0.7492
 4745TIP3    H114241   2.431   0.961   0.315  2.7129  1.2828 -1.8422
 4745TIP3    H214242   2.480   1.103   0.333 -1.1141  2.4197  1.0881
 4746TIP3   OH214243   5.243   2.676   2.846 -0.8573  0.0970 -0.2818
 4746TIP3    H114244   5.256   2.724   2.928 -1.4631 -2.0384  1.1365
 4746TIP3    H214245   5.161   2.711   2.811 -0.4532  1.2187 -0.1594
 4747TIP3   OH214246   5.188   5.852   1.899 -0.0847  0.5490  0.4071
 4747TIP3    H114247   5.183   5.893   1.985 -0.2039 -0.1144  0.7201
 4747TIP3    H214248   5.262   5.792   1.905 -1.5861 -1.3490  0.8746
 4748TIP3   OH214249   3.025   5.874   1.203  0.3961  0.4345  0.0474
 4748TIP3    H114250   3.098   5.813   1.216 -1.0890 -1.2908  0.6369
 4748TIP3    H214251   3.026   5.929   1.281  0.8712  0.2102  0.2028
 4749TIP3   OH214252   1.510   5.240   2.172  0.1126 -0.1892 -0.1405
 4749TIP3    H114253   1.448   5.190   2.119  1.0369 -1.2185 -0.2981
 4749TIP3    H214254   1.504   5.201   2.259  1.1452 -0.9070 -0.3662
 4750TIP3   OH214255   0.156   0.862   3.868  0.5154 -0.0926 -0.6724
 4750TIP3    H114256   0.135   0.911   3.788  1.5618 -0.1793 -1.0240
 4750TIP3    H214257   0.139   0.923   3.939 -0.5676 -0.0592 -0.9440
 4751TIP3   OH214258   5.591   3.799   2.568  0.0527  0.0206 -0.0450
 4751TIP3    H114259   5.617   3.796   2.660 -0.0901 -1.3841 -0.0422
 4751TIP3    H214260   5.559   3.712   2.549  0.2059  0.2558 -1.4762
 4752TIP3   OH214261   2.224   2.875   0.894 -0.0904 -0.2671  0.0869
 4752TIP3    H114262   2.173   2.882   0.814 -0.9000 -1.1049  0.5068
 4752TIP3    H214263   2.254   2.785   0.896  1.5136  0.2365 -0.1916
 4753TIP3   OH214264   0.887   3.505   1.182  0.2813 -0.2088  0.0307
 4753TIP3    H114265   0.941   3.585   1.187 -1.3909  1.0567 -0.8984
 4753TIP3    H214266   0.935   3.440   1.233  2.6889  0.8253 -0.7570
 4754TIP3   OH214267   1.106   4.566   2.407  0.1613 -0.4688 -0.0714
 4754TIP3    H114268   1.066   4.514   2.337 -0.5484  0.4914 -0.3866
 4754TIP3    H214269   1.123   4.651   2.368 -0.7299  0.2612  1.0522
 4755TIP3   OH214270   1.084   3.171   1.903 -0.1194  0.8196 -0.6831
 4755TIP3    H114271   1.003   3.151   1.858 -1.1559 -0.4125  1.5595
 4755TIP3    H214272   1.141   3.208   1.836 -1.6573 -0.5619 -2.8514
 4756TIP3   OH214273   5.679   3.907   0.508  0.1610  0.4001 -0.3823
 4756TIP3    H114274   5.701   3.815   0.515 -1.7001 -0.0555  0.1839
 4756TIP3    H214275   5.741   3.952   0.564 -0.3017 -0.7715  1.1319
 4757TIP3   OH214276   6.203   1.847   3.088  0.5809  0.0413 -0.1267
 4757TIP3    H114277   6.291   1.813   3.099  0.9179  0.7572 -0.5216
 4757TIP3    H214278   6.210   1.909   3.015 -0.4856 -0.7697 -0.9692
 4758TIP3   OH214279   5.195   5.879   3.099  0.1110 -0.4837  0.2267
 4758TIP3    H114280   5.220   5.847   3.185 -0.7400 -0.8707  0.3336
 4758TIP3    H214281   5.234   5.817   3.038 -0.7188 -1.1930  0.3989
 4759TIP3   OH214282   5.473   1.077   3.773 -0.1733 -0.3216  0.5178
 4759TIP3    H114283   5.537   1.131   3.727  0.2170 -1.5461 -0.4178
 4759TIP3    H214284   5.413   1.047   3.705 -1.5913  0.5360  1.3328
 4760TIP3   OH214285   1.522   0.593   2.660  0.1867 -0.3644 -0.0946
 4760TIP3    H114286   1.584   0.520   2.666 -0.1204 -0.6850 -0.7525
 4760TIP3    H214287   1.577   0.669   2.642  0.5131 -0.4157  0.6295
 4761TIP3   OH214288   3.994   4.332   1.610  0.9218 -0.3780 -0.2766
 4761TIP3    H114289   3.943   4.355   1.532  1.4940 -1.4378 -0.9882
 4761TIP3    H214290   3.978   4.405   1.671 -2.9887 -1.4980  0.3347
 4762TIP3   OH214291   1.738   4.571   2.205  0.3937  0.4611  0.0461
 4762TIP3    H114292   1.733   4.479   2.179  0.3619  0.1182  1.1906
 4762TIP3    H214293   1.666   4.582   2.268  1.7824  0.6520  1.6734
 4763TIP3   OH214294   4.021   5.869   0.401 -0.3348  0.3588  0.0469
 4763TIP3    H114295   3.998   5.878   0.309  0.6299  1.9734 -0.0843
 4763TIP3    H214296   3.944   5.827   0.441 -0.6454 -0.6508 -1.5144
 4764TIP3   OH214297   4.267   5.661   1.889 -0.3265 -0.2141  0.3793
 4764TIP3    H114298   4.288   5.695   1.976 -1.9800 -0.8529  1.0644
 4764TIP3    H214299   4.294   5.731   1.829  0.8996  0.2052  1.3764
 4765TIP3   OH214300   3.829   2.977   2.992  0.1725 -0.0920  0.1732
 4765TIP3    H114301   3.857   2.929   3.069 -0.7229 -1.9433 -0.5917
 4765TIP3    H214302   3.905   3.028   2.966  1.3509 -1.5083  0.7282
 4766TIP3   OH214303   4.142   1.844   0.016 -0.3416 -0.1192 -0.3152
 4766TIP3    H114304   4.169   1.826   0.106  0.2633 -0.5373 -0.5770
 4766TIP3    H214305   4.085   1.770  -0.007 -1.7909  0.7634  0.2395
 4767TIP3   OH214306   1.080   4.722   4.939  0.5058 -0.1999 -0.1300
 4767TIP3    H114307   1.152   4.680   4.891  0.4388 -2.0399  1.2660
 4767TIP3    H214308   1.117   4.804   4.971  0.8337  0.6432 -2.4483
 4768TIP3   OH214309   1.549   1.890   1.792  0.7461 -0.6035 -0.0604
 4768TIP3    H114310   1.604   1.881   1.714 -0.0757 -1.4418 -0.5540
 4768TIP3    H214311   1.521   1.981   1.791 -1.1253 -1.1180 -2.0474
 4769TIP3   OH214312   0.822   5.882   2.042  0.4502 -0.0713  0.3021
 4769TIP3    H114313   0.872   5.921   1.970 -1.8219  1.2725 -0.6520
 4769TIP3    H214314   0.823   5.949   2.110  1.4886 -0.8197  1.0608
 4770TIP3   OH214315   1.083   4.894   0.072  0.1371 -0.2426  0.3528
 4770TIP3    H114316   1.045   4.954   0.136 -0.1407  1.4036 -1.2773
 4770TIP3    H214317   1.172   4.927   0.058  0.7262 -1.4855  0.9365
 4771TIP3   OH214318   4.487   1.538   0.118  0.5141 -0.1037 -0.0870
 4771TIP3    H114319   4.498   1.613   0.060  0.6815 -0.1879 -0.1664
 4771TIP3    H214320   4.569   1.490   0.111 -0.5275 -1.7328 -2.0990
 4772TIP3   OH214321   3.627   3.339   4.361  0.4371 -0.2079 -0.1987
 4772TIP3    H114322   3.557   3.358   4.299  0.2032  1.1585  0.4373
 4772TIP3    H214323   3.618   3.246   4.380  0.1836 -0.5385 -1.7793
 4773TIP3   OH214324   2.663   2.527   2.880  0.1440 -0.4296  0.0924
 4773TIP3    H114325   2.720   2.547   2.955  1.1896 -1.3651 -0.4298
 4773TIP3    H214326   2.650   2.611   2.837 -0.2758  0.0878  1.1768
 4774TIP3   OH214327   4.369   0.527   2.770  0.0853 -0.1322  0.0018
 4774TIP3    H114328   4.431   0.461   2.739 -0.1187 -0.6338  0.6346
 4774TIP3    H214329   4.292   0.476   2.797  0.2691  0.2605  1.3656
 4775TIP3   OH214330   4.034   3.333   3.273 -0.3214 -0.1048 -0.6044
 4775TIP3    H114331   3.953   3.313   3.319 -0.6191 -0.0597 -1.0950
 4775TIP3    H214332   4.006   3.383   3.196  0.0078 -1.4764 -1.6545
 4776TIP3   OH214333   4.716   5.747   4.319  0.3706 -0.2031 -0.1751
 4776TIP3    H114334   4.797   5.796   4.303 -0.5300  1.1620 -0.7663
 4776TIP3    H214335   4.651   5.815   4.340 -0.8726 -1.1786 -0.7587
 4777TIP3   OH214336   1.799   3.254   2.380  0.0410 -0.2964 -0.0008
 4777TIP3    H114337   1.786   3.247   2.474 -0.2811  0.6384  0.0326
 4777TIP3    H214338   1.722   3.301   2.348 -0.8403 -2.3565 -1.0321
 4778TIP3   OH214339   2.015   5.613   0.200 -0.3397  0.5932  0.0301
 4778TIP3    H114340   2.103   5.624   0.236  0.5822  3.2589 -2.6850
 4778TIP3    H214341   1.994   5.521   0.217  2.8872 -0.1160  0.9220
 4779TIP3   OH214342   0.150   2.640   1.404 -0.5772 -0.0949 -0.0386
 4779TIP3    H114343   0.138   2.583   1.327 -3.1878  1.3562 -0.8437
 4779TIP3    H214344   0.061   2.664   1.429  0.3631  2.0583  1.4993
 4780TIP3   OH214345   5.721   1.349   0.482 -0.3960  0.1193  0.8795
 4780TIP3    H114346   5.817   1.347   0.486 -0.2707 -0.6917 -1.0428
 4780TIP3    H214347   5.697   1.432   0.522  1.1648  0.5898  0.9102
 4781TIP3   OH214348   6.331   2.055   1.350  0.1100  0.0172 -0.5450
 4781TIP3    H114349   6.362   1.984   1.293 -0.1288  0.5786 -1.4050
 4781TIP3    H214350   6.244   2.077   1.316 -0.2328  0.0588  0.3400
 4782TIP3   OH214351   1.254   5.899   2.879 -0.3061 -0.2933 -0.0839
 4782TIP3    H114352   1.241   5.983   2.835 -1.7159 -0.5779 -0.2802
 4782TIP3    H214353   1.239   5.833   2.810  0.1658 -0.7137  0.2080
 4783TIP3   OH214354   2.694   4.987   2.305 -0.8602  0.5772 -0.2394
 4783TIP3    H114355   2.657   4.906   2.340 -0.0535 -0.1885 -1.1251
 4783TIP3    H214356   2.770   5.004   2.360 -1.0993  0.8279  0.0260
 4784TIP3   OH214357   2.488   2.485   0.157 -0.6389 -0.4724  0.0954
 4784TIP3    H114358   2.432   2.443   0.092 -1.2817  1.1921 -0.4900
 4784TIP3    H214359   2.491   2.577   0.130  0.4143 -0.0566  1.5001
 4785TIP3   OH214360   5.910   2.698   2.947  0.1180  0.4332 -0.6880
 4785TIP3    H114361   5.832   2.659   2.988  0.8635 -0.8884 -0.4666
 4785TIP3    H214362   5.933   2.636   2.877  1.2646  0.5406 -0.4176
 4786TIP3   OH214363   1.642   1.763   2.437  0.2677 -0.4289  0.6474
 4786TIP3    H114364   1.707   1.729   2.500  1.1203 -1.2503 -0.6306
 4786TIP3    H214365   1.557   1.741   2.476  0.7863 -1.2306  1.3610
 4787TIP3   OH214366   4.591   3.861   3.854 -0.5967  0.5937 -0.9633
 4787TIP3    H114367   4.649   3.815   3.793 -0.7077 -0.1412 -0.5334
 4787TIP3    H214368   4.611   3.953   3.841  2.1860  0.3204  0.6138
 4788TIP3   OH214369   1.197   1.091   5.028  0.3770 -0.2013 -0.2190
 4788TIP3    H114370   1.164   1.012   4.984  1.3574 -1.3066  0.9513
 4788TIP3    H214371   1.139   1.102   5.104  1.1449 -0.6799  0.4450
 4789TIP3   OH214372   0.342   5.317   3.551  0.4960  0.4462 -0.4955
 4789TIP3    H114373   0.422   5.284   3.508  0.5748  1.1990 -0.9358
 4789TIP3    H214374   0.328   5.256   3.623  0.5133 -0.7058 -1.4285
 4790TIP3   OH214375   2.295   3.969   4.007  0.6572 -0.0247 -0.3821
 4790TIP3    H114376   2.285   4.064   4.017  0.4045  0.0881 -1.4873
 4790TIP3    H214377   2.335   3.959   3.920  1.0124 -0.9198 -0.1253
 4791TIP3   OH214378   5.844   5.016   3.832 -0.3223  0.1494  0.4974
 4791TIP3    H114379   5.779   5.035   3.764  0.6339  1.1594 -0.1784
 4791TIP3    H214380   5.914   4.970   3.787  1.0609  2.2131  0.3794
 4792TIP3   OH214381   4.551   3.281   1.058  0.3076 -0.3492  0.4876
 4792TIP3    H114382   4.588   3.364   1.027 -0.4992 -0.4108 -0.6820
 4792TIP3    H214383   4.475   3.307   1.110  0.6632 -0.3196  0.9992
 4793TIP3   OH214384   0.564   0.732   3.701  0.8843  0.0197 -0.2528
 4793TIP3    H114385   0.607   0.795   3.643  0.1651  1.7947  1.0268
 4793TIP3    H214386   0.471   0.756   3.698  0.8237  0.2136  1.6146
 4794TIP3   OH214387   6.140   4.014   0.496  0.1121  0.4888 -0.2223
 4794TIP3    H114388   6.123   3.922   0.517 -0.7639  0.8318  0.6282
 4794TIP3    H214389   6.075   4.063   0.547  0.5476  1.5818 -0.6867
 4795TIP3   OH214390   3.781   0.092   3.240  0.0476  0.5147 -0.5562
 4795TIP3    H114391   3.717   0.022   3.226  1.3055 -0.8249  0.1540
 4795TIP3    H214392   3.814   0.076   3.328  2.7450 -0.0289 -1.5869
 4796TIP3   OH214393   4.856   3.576   2.610 -0.8482 -0.4542  0.2478
 4796TIP3    H114394   4.903   3.505   2.654  0.1364 -1.1350 -1.7584
 4796TIP3    H214395   4.829   3.635   2.680  1.0190 -1.2241  1.6783
 4797TIP3   OH214396   4.855   1.527   2.998  0.6412 -0.3971  0.0659
 4797TIP3    H114397   4.829   1.470   2.926 -1.5127 -0.4996  0.8675
 4797TIP3    H214398   4.946   1.501   3.017  0.5692 -1.7504 -1.2638
 4798TIP3   OH214399   4.876   1.886   0.784 -0.4204  0.0479 -0.2646
 4798TIP3    H114400   4.785   1.914   0.791 -0.2132  0.7542 -0.3058
 4798TIP3    H214401   4.895   1.843   0.867 -0.7827 -0.0661 -0.2431
 4799TIP3   OH214402   5.401   1.780   1.796  0.0747  0.4303 -0.1428
 4799TIP3    H114403   5.437   1.853   1.745 -0.2921  0.7610  0.0665
 4799TIP3    H214404   5.467   1.763   1.864  0.8285 -0.3833 -1.0529
 4800TIP3   OH214405   2.821   3.046   3.871  0.4818 -0.1703  0.5007
 4800TIP3    H114406   2.825   3.088   3.957  1.2366 -0.7904  0.7857
 4800TIP3    H214407   2.733   3.010   3.865  0.7207 -0.9403  1.4222
 4801TIP3   OH214408   0.520   0.696   0.960 -0.0709 -0.4583 -0.6247
 4801TIP3    H114409   0.429   0.668   0.966  0.3701 -2.2432 -1.5328
 4801TIP3    H214410   0.518   0.769   0.898 -1.0869  0.7480  0.7588
 4802TIP3   OH214411   4.992   0.649   0.094 -0.2060 -0.0302 -0.1636
 4802TIP3    H114412   4.987   0.699   0.013  1.2073  0.5552  0.0861
 4802TIP3    H214413   5.082   0.661   0.124 -0.2618 -1.5215  0.6779
 4803TIP3   OH214414   1.661   0.419   3.293  0.2958 -0.2583 -0.1184
 4803TIP3    H114415   1.587   0.428   3.232 -0.1461 -2.2745  0.0518
 4803TIP3    H214416   1.738   0.438   3.240 -0.1004 -1.7145 -1.2781
 4804TIP3   OH214417   4.397   1.830   1.959  0.6651  0.1583 -0.1948
 4804TIP3    H114418   4.481   1.840   2.004  0.0931  2.2597  0.4996
 4804TIP3    H214419   4.378   1.917   1.924 -1.1433 -0.3144 -0.4914
 4805TIP3   OH214420   6.002   4.502   0.713  0.7387 -0.0328  0.2318
 4805TIP3    H114421   5.934   4.450   0.670  0.4567  1.3018 -1.0212
 4805TIP3    H214422   6.052   4.540   0.641  3.5692 -1.8514  1.1131
 4806TIP3   OH214423   2.413   5.344   4.448 -0.1290 -0.3773  0.4250
 4806TIP3    H114424   2.399   5.436   4.425  0.4451 -0.5978 -0.9388
 4806TIP3    H214425   2.462   5.309   4.374  0.6262 -1.5168  1.4356
 4807TIP3   OH214426   4.248   5.752   3.413  0.5262  0.5341  0.4557
 4807TIP3    H114427   4.313   5.812   3.450 -0.3152  0.4569  2.1787
 4807TIP3    H214428   4.231   5.689   3.483 -0.7156  0.0101 -0.2804
 4808TIP3   OH214429   2.147   5.303   0.879  0.2271  0.0304  0.4401
 4808TIP3    H114430   2.091   5.308   0.801 -0.1937 -1.1291  0.6575
 4808TIP3    H214431   2.088   5.274   0.949  0.6353  0.9202  1.1723
 4809TIP3   OH214432   0.879   2.841   1.614 -0.0436 -1.0404  0.1110
 4809TIP3    H114433   0.786   2.820   1.621 -0.1649 -0.3719  0.6634
 4809TIP3    H214434   0.900   2.826   1.522 -0.6357 -1.4371  0.0349
 4810TIP3   OH214435   3.686   4.875   1.134 -0.0812 -0.1079  0.3962
 4810TIP3    H114436   3.604   4.892   1.088  0.9385  0.6307 -1.2199
 4810TIP3    H214437   3.738   4.824   1.072  1.0320  0.2059  1.0405
 4811TIP3   OH214438   4.816   4.357   4.015 -0.3387  0.0757  0.1477
 4811TIP3    H114439   4.891   4.300   4.031  0.3310  0.6689 -0.7094
 4811TIP3    H214440   4.743   4.316   4.060  0.0920 -1.5154 -0.5501
 4812TIP3   OH214441   6.049   3.888   5.030  0.1630  0.0972  0.6155
 4812TIP3    H114442   6.122   3.831   5.007  0.1801  0.6354 -0.7538
 4812TIP3    H214443   5.971   3.840   5.003  0.1919  0.8098 -0.8342
 4813TIP3   OH214444   5.878   2.950   2.078 -0.5246  0.0258  0.5790
 4813TIP3    H114445   5.900   2.864   2.114 -1.8817 -1.1833 -1.2915
 4813TIP3    H214446   5.951   2.972   2.021  0.4485  0.7968  2.0392
 4814TIP3   OH214447   0.609   2.722   1.873  0.3718  0.0162  1.0587
 4814TIP3    H114448   0.679   2.661   1.895 -0.5652 -1.6024 -0.2602
 4814TIP3    H214449   0.531   2.685   1.914  0.1953  1.7227  2.3960
 4815TIP3   OH214450   2.334   3.709   2.806  0.2429 -0.1869  0.3561
 4815TIP3    H114451   2.295   3.640   2.859  0.4047 -0.4486  0.1377
 4815TIP3    H214452   2.267   3.777   2.801 -2.0923 -2.4384 -3.7286
 4816TIP3   OH214453   2.618   5.599   4.844  0.8991  0.2574  0.1577
 4816TIP3    H114454   2.562   5.572   4.771  0.3285  0.1800  0.6171
 4816TIP3    H214455   2.636   5.519   4.892  1.1537  0.3326  0.1911
 4817TIP3   OH214456   3.330   4.395   1.246  0.8800  0.6397  0.1317
 4817TIP3    H114457   3.294   4.402   1.158  1.2258  1.9554  0.0788
 4817TIP3    H214458   3.287   4.464   1.296 -0.8711 -1.3835  1.5855
 4818TIP3   OH214459   3.835   1.645   2.949  0.1123 -0.4818 -0.2866
 4818TIP3    H114460   3.908   1.593   2.982 -1.6368 -2.8431  0.1433
 4818TIP3    H214461   3.799   1.688   3.027  0.9373  0.6122 -0.4853
 4819TIP3   OH214462   1.021   5.930   4.200 -0.2492  0.1559  0.2871
 4819TIP3    H114463   1.084   5.916   4.129  1.2634  1.3528  1.3321
 4819TIP3    H214464   0.943   5.962   4.157 -1.0180 -3.3664 -1.3016
 4820TIP3   OH214465   5.978   4.172   4.376  0.7105 -0.2748  0.1861
 4820TIP3    H114466   5.993   4.149   4.468 -0.0993 -0.6682  0.2282
 4820TIP3    H214467   5.942   4.260   4.379 -0.5284 -0.7525  0.3618
 4821TIP3   OH214468   5.378   0.723   3.236  0.2915 -0.2789  0.1305
 4821TIP3    H114469   5.417   0.808   3.256 -0.3395 -0.1654  0.9557
 4821TIP3    H214470   5.349   0.690   3.321 -0.5565 -0.7769 -0.3401
 4822TIP3   OH214471   3.917   0.195   0.908 -0.0035 -0.2628 -0.0292
 4822TIP3    H114472   3.987   0.143   0.868 -2.0738 -5.0236  1.7584
 4822TIP3    H214473   3.849   0.199   0.841 -0.4517 -1.3669  0.3386
 4823TIP3   OH214474   2.164   4.330   3.332 -0.2426  0.5825  0.1211
 4823TIP3    H114475   2.190   4.242   3.361 -0.0246  0.9952  1.2347
 4823TIP3    H214476   2.073   4.338   3.361  0.2272  1.3065  1.5013
 4824TIP3   OH214477   0.848   5.440   4.051  0.0342 -0.0965  0.1428
 4824TIP3    H114478   0.942   5.447   4.035  0.4019 -2.5439  0.8360
 4824TIP3    H214479   0.841   5.412   4.142 -1.2268 -1.7773 -0.4148
 4825TIP3   OH214480   0.064   4.512   4.075  1.0471 -0.4407 -0.0871
 4825TIP3    H114481   0.005   4.529   4.002 -0.0774  1.0311  1.0710
 4825TIP3    H214482   0.015   4.542   4.152  2.5235 -1.1087  1.1651
 4826TIP3   OH214483   4.519   5.586   4.366  0.4112  0.1020  0.2867
 4826TIP3    H114484   4.532   5.552   4.455  1.7717  0.2037  0.1569
 4826TIP3    H214485   4.595   5.643   4.351  0.5870 -0.4830 -1.2030
 4827TIP3   OH214486   4.123   4.413   3.089  0.2904 -1.0767  0.2645
 4827TIP3    H114487   4.119   4.458   3.004 -0.1431 -1.9559 -0.1987
 4827TIP3    H214488   4.210   4.371   3.090  0.2371 -1.1905  0.1846
 4828TIP3   OH214489   2.885   1.119   4.077  0.0261  0.2268  0.1027
 4828TIP3    H114490   2.970   1.117   4.121  0.5222  0.5042 -0.8254
 4828TIP3    H214491   2.824   1.083   4.142  0.8694 -0.1233  0.7241
 4829TIP3   OH214492   4.290   2.072   5.130 -0.0661  0.1146  0.7998
 4829TIP3    H114493   4.379   2.087   5.097 -0.3455  1.7509  0.7072
 4829TIP3    H214494   4.303   2.040   5.219  0.6381 -1.7395  0.0730
 4830TIP3   OH214495   5.769   4.070   3.434 -0.5558 -0.5008 -0.7482
 4830TIP3    H114496   5.677   4.093   3.447 -0.5663 -0.2270 -1.2699
 4830TIP3    H214497   5.775   3.978   3.458 -0.5853 -0.0628  1.0646
 4831TIP3   OH214498   5.159   0.760   3.927  0.6069  0.1957 -0.2411
 4831TIP3    H114499   5.250   0.790   3.922  1.2835 -1.7616 -3.9147
 4831TIP3    H214500   5.109   0.828   3.882  0.6006  0.3172 -0.0482
 4832TIP3   OH214501   2.355   5.301   3.813 -0.0742 -0.0602  0.0976
 4832TIP3    H114502   2.429   5.320   3.871  0.1880 -0.4385 -0.1127
 4832TIP3    H214503   2.301   5.239   3.863 -0.6498  0.7792  0.5597
 4833TIP3   OH214504   3.467   1.195   4.817 -0.5304 -0.3807 -0.1221
 4833TIP3    H114505   3.539   1.158   4.868 -0.8085 -1.3022 -0.3887
 4833TIP3    H214506   3.427   1.259   4.876  1.2132  1.0302 -0.3813
 4834TIP3   OH214507   3.454   5.307   2.455 -0.4754  0.1627  0.7269
 4834TIP3    H114508   3.463   5.393   2.497  1.1977  0.2038  0.3587
 4834TIP3    H214509   3.493   5.245   2.517  1.9337  0.2118 -0.5988
 4835TIP3   OH214510   2.017   2.369   2.086 -0.1704 -0.2418  0.3560
 4835TIP3    H114511   2.075   2.300   2.118  0.3826  0.1312  0.1838
 4835TIP3    H214512   1.941   2.366   2.144 -0.7622 -1.8454 -0.4183
 4836TIP3   OH214513   2.847   1.341   3.787 -0.3147 -0.1827  0.3692
 4836TIP3    H114514   2.866   1.397   3.712  0.0846  0.8270  1.2158
 4836TIP3    H214515   2.933   1.317   3.822 -0.4993 -0.5510  0.5776
 4837TIP3   OH214516   0.903   2.157   0.243 -0.8113  0.8951 -0.2553
 4837TIP3    H114517   0.822   2.139   0.289 -0.7778  0.1929 -0.4677
 4837TIP3    H214518   0.916   2.082   0.185 -0.1364  1.1086 -0.3955
 4838TIP3   OH214519   0.825   3.058   2.965 -0.2095 -0.0769  0.4489
 4838TIP3    H114520   0.895   3.094   2.910 -0.6779  0.6240  0.2909
 4838TIP3    H214521   0.806   3.128   3.028 -1.0538 -0.0912  0.2196
 4839TIP3   OH214522   4.343   4.854   3.767  0.1557  0.4951  0.5620
 4839TIP3    H114523   4.351   4.759   3.776  0.6273  0.2879 -1.3905
 4839TIP3    H214524   4.363   4.889   3.854  0.9612 -1.1500  1.0766
 4840TIP3   OH214525   4.086   1.866   4.890 -0.5963 -0.2258  0.1920
 4840TIP3    H114526   4.083   1.952   4.848 -0.8745 -0.2427  0.1734
 4840TIP3    H214527   4.124   1.808   4.824 -0.6512 -0.1691  0.1102
 4841TIP3   OH214528   5.440   1.645   1.555  0.1373 -0.0116  0.3029
 4841TIP3    H114529   5.431   1.639   1.650 -0.7135 -1.9905  0.1266
 4841TIP3    H214530   5.352   1.629   1.521  0.6595 -0.5433 -0.8489
 4842TIP3   OH214531   4.681   5.832   0.318 -0.0239 -0.2194  0.2895
 4842TIP3    H114532   4.597   5.796   0.289 -0.8961  0.4052  1.9294
 4842TIP3    H214533   4.731   5.756   0.345  0.4820 -0.7317 -1.9016
 4843TIP3   OH214534   2.181   3.306   4.320  0.2225 -0.1222 -0.0722
 4843TIP3    H114535   2.247   3.323   4.386  2.7507 -1.4937 -2.0942
 4843TIP3    H214536   2.164   3.392   4.280  1.3567  0.1309 -0.0222
 4844TIP3   OH214537   1.737   2.255   1.328 -0.1262  0.4082 -0.1178
 4844TIP3    H114538   1.736   2.216   1.240  2.9449  2.1999 -1.0713
 4844TIP3    H214539   1.656   2.306   1.332 -0.1954  0.5319 -2.0429
 4845TIP3   OH214540   2.949   1.079   2.287 -0.3141 -0.1873 -0.0951
 4845TIP3    H114541   2.866   1.048   2.252 -1.5640  0.3947  2.1335
 4845TIP3    H214542   2.948   1.174   2.271 -0.8653  0.0728  1.3182
 4846TIP3   OH214543   5.244   1.113   1.806 -0.3431  0.6937 -0.5018
 4846TIP3    H114544   5.188   1.188   1.787  0.9294  1.6977 -0.4294
 4846TIP3    H214545   5.326   1.132   1.761  1.6363  1.6194  3.1106
 4847TIP3   OH214546   4.724   1.497   1.062 -0.2837 -0.0382 -0.0641
 4847TIP3    H114547   4.769   1.454   0.990 -0.6468  1.0279 -0.9556
 4847TIP3    H214548   4.753   1.450   1.140 -0.1768 -1.4672 -0.9257
 4848TIP3   OH214549   0.453   2.430   2.322 -0.4229  0.5928 -0.2297
 4848TIP3    H114550   0.381   2.367   2.318 -0.4057  0.5424  0.1815
 4848TIP3    H214551   0.461   2.452   2.415  0.1474  0.5291 -0.2572
 4849TIP3   OH214552   0.411   0.949   4.064  0.3121 -0.5495  0.0088
 4849TIP3    H114553   0.367   0.966   4.148  0.9686 -2.1286  0.7254
 4849TIP3    H214554   0.453   1.032   4.041 -1.6059  0.5232  0.1415
 4850TIP3   OH214555   2.999   4.613   2.325 -0.4109 -0.7108 -0.4450
 4850TIP3    H114556   3.086   4.646   2.348 -0.5121 -1.2354  0.8088
 4850TIP3    H214557   2.943   4.638   2.399 -1.0042 -1.5793 -0.5783
 4851TIP3   OH214558   3.211   1.900   4.997 -0.1493 -0.0057  0.1311
 4851TIP3    H114559   3.119   1.873   5.008  0.0656 -1.0933 -0.6254
 4851TIP3    H214560   3.216   1.985   5.042 -1.9173  0.8644 -1.1848
 4852TIP3   OH214561   0.789   1.324   3.990 -0.3717  0.1787 -0.4457
 4852TIP3    H114562   0.754   1.402   4.033 -0.0315  0.9579 -1.5349
 4852TIP3    H214563   0.819   1.355   3.904  0.1555 -1.0698 -0.7392
 4853TIP3   OH214564   2.774   1.074   4.870 -0.1751 -0.4473  0.5249
 4853TIP3    H114565   2.831   1.100   4.797  0.7614  0.8325  1.6646
 4853TIP3    H214566   2.744   0.987   4.846  0.6316 -0.3240 -1.0909
 4854TIP3   OH214567   4.805   5.596   0.370  0.1088  0.4351  0.1021
 4854TIP3    H114568   4.786   5.520   0.315 -0.0110  2.3028 -2.5877
 4854TIP3    H214569   4.894   5.580   0.403 -0.0375 -0.9906 -0.1490
 4855TIP3   OH214570   4.757   0.231   1.892  0.4674  0.6972 -0.3899
 4855TIP3    H114571   4.742   0.325   1.883  0.3893  0.6801 -0.4442
 4855TIP3    H214572   4.687   0.201   1.950  1.2933  0.8984  0.7352
 4856TIP3   OH214573   0.544   1.776   5.101  0.2746 -0.1219  0.6123
 4856TIP3    H114574   0.494   1.733   5.170  0.9642 -1.8114  0.1122
 4856TIP3    H214575   0.628   1.797   5.141  0.0094  0.5813  0.8005
 4857TIP3   OH214576   0.602   2.915   2.351 -0.6542  0.0648 -0.2395
 4857TIP3    H114577   0.653   2.975   2.406 -0.2822 -0.6688  0.2263
 4857TIP3    H214578   0.613   2.829   2.392 -1.0211 -0.3609 -1.0113
 4858TIP3   OH214579   2.178   2.516   4.933  0.5378 -0.2896 -0.3133
 4858TIP3    H114580   2.100   2.462   4.920  1.4998 -1.4204 -1.7582
 4858TIP3    H214581   2.173   2.544   5.025 -0.6412 -1.8109  0.1341
 4859TIP3   OH214582   2.117   4.285   2.614  0.3968  0.0276 -0.0554
 4859TIP3    H114583   2.135   4.290   2.707  0.1685 -1.2917  0.0871
 4859TIP3    H214584   2.131   4.192   2.592 -0.7737  0.0601 -1.0664
 4860TIP3   OH214585   6.297   5.429   3.492 -0.0571 -0.7140 -0.2105
 4860TIP3    H114586   6.337   5.483   3.560  1.2113 -2.3007  0.3795
 4860TIP3    H214587   6.353   5.441   3.416 -1.3556  0.8938 -0.9693
 4861TIP3   OH214588   3.893   2.816   3.199  0.4194 -0.0811  0.0991
 4861TIP3    H114589   3.838   2.830   3.277 -2.0443 -0.2949 -1.4827
 4861TIP3    H214590   3.901   2.721   3.191 -1.6514 -0.2028 -1.3148
 4862TIP3   OH214591   5.240   4.170   0.986 -0.2363  0.0272  0.1136
 4862TIP3    H114592   5.285   4.139   1.065  0.7947 -0.9764 -0.8306
 4862TIP3    H214593   5.274   4.115   0.915 -0.5484  1.4072 -1.1680
 4863TIP3   OH214594   0.273   3.779   3.977 -0.0079 -0.2473  0.2994
 4863TIP3    H114595   0.219   3.703   3.956  1.0926 -0.4098 -2.3121
 4863TIP3    H214596   0.233   3.851   3.927  0.5252  0.2840  0.6235
 4864TIP3   OH214597   5.459   4.291   2.289 -0.5047 -0.4853 -0.1919
 4864TIP3    H114598   5.439   4.219   2.348 -0.6180  0.0964  0.4933
 4864TIP3    H214599   5.408   4.364   2.322  0.7574  0.3253  0.0448
 4865TIP3   OH214600   0.300   3.533   0.135 -0.1426 -0.3008 -0.4864
 4865TIP3    H114601   0.301   3.629   0.139 -1.5046 -0.2218 -1.4916
 4865TIP3    H214602   0.316   3.513   0.043  0.7352 -1.0846 -0.1841
 4866TIP3   OH214603   5.506   3.107   1.727  0.3387 -0.0964  0.3981
 4866TIP3    H114604   5.519   3.198   1.700  2.0100 -0.1895  0.7596
 4866TIP3    H214605   5.595   3.073   1.741 -0.2825 -1.4649  1.3147
 4867TIP3   OH214606   3.196   2.283   1.393 -0.6803 -0.1684  0.2754
 4867TIP3    H114607   3.141   2.326   1.328 -0.3006 -0.4429 -0.2367
 4867TIP3    H214608   3.227   2.353   1.450  0.8137  0.4277 -1.1858
 4868TIP3   OH214609   2.064   1.902   3.684  0.6979 -0.6587  0.2490
 4868TIP3    H114610   1.973   1.874   3.672  0.4471 -0.4807  1.5232
 4868TIP3    H214611   2.067   1.989   3.643 -0.2032  0.0939  1.6807
 4869TIP3   OH214612   5.367   3.321   5.158  0.3119 -0.9404 -0.5295
 4869TIP3    H114613   5.388   3.383   5.088  0.7773 -2.6756 -1.9964
 4869TIP3    H214614   5.439   3.331   5.220 -1.2274  2.2525  1.0059
 4870TIP3   OH214615   1.738   3.103   1.158  0.4989 -0.4427 -0.4479
 4870TIP3    H114616   1.758   3.182   1.207  0.2130 -0.7806  0.2253
 4870TIP3    H214617   1.681   3.132   1.087 -1.5361 -0.3558  1.1349
 4871TIP3   OH214618   1.572   3.918   2.454  0.5306 -0.0725 -0.4493
 4871TIP3    H114619   1.661   3.892   2.477  0.7355 -0.9420 -2.0197
 4871TIP3    H214620   1.518   3.881   2.523  1.2989 -0.3764  0.0106
 4872TIP3   OH214621   5.029   0.144   5.146 -0.1280  0.1060  0.1526
 4872TIP3    H114622   5.008   0.166   5.056  0.0801 -0.5099 -0.0482
 4872TIP3    H214623   4.977   0.205   5.198  0.8808  1.4770 -0.3926
 4873TIP3   OH214624   1.244   0.713   3.650 -0.2428  0.1984 -0.0068
 4873TIP3    H114625   1.204   0.646   3.706  0.1567  0.1239  0.1959
 4873TIP3    H214626   1.267   0.665   3.570 -1.3974  0.4439 -0.5047
 4874TIP3   OH214627   2.746   5.521   1.432 -0.4964 -1.0477  0.4162
 4874TIP3    H114628   2.776   5.431   1.418 -1.0699 -1.3962  1.3493
 4874TIP3    H214629   2.799   5.574   1.372 -0.9752 -2.1363 -1.0278
 4875TIP3   OH214630   0.988   4.280   4.356  0.1939  0.0978  0.3224
 4875TIP3    H114631   1.047   4.302   4.283  1.4119 -0.5626  1.0622
 4875TIP3    H214632   0.955   4.364   4.387  1.4054  0.5693  0.4024
 4876TIP3   OH214633   1.519   4.577   2.708 -0.2710 -0.6021  0.0196
 4876TIP3    H114634   1.547   4.508   2.768 -2.6034 -1.2802  0.4310
 4876TIP3    H214635   1.443   4.540   2.662 -0.2863  0.9396 -1.2871
 4877TIP3   OH214636   0.288   5.866   1.524 -0.4421 -0.1634 -0.2795
 4877TIP3    H114637   0.367   5.866   1.579 -0.3974  0.0645 -0.3405
 4877TIP3    H214638   0.216   5.856   1.586 -0.3335 -0.9684 -0.2778
 4878TIP3   OH214639   6.031   1.922   3.300 -0.4798  0.3724  0.3451
 4878TIP3    H114640   6.068   1.885   3.220 -2.1767  1.8185 -1.2214
 4878TIP3    H214641   6.088   1.996   3.321  0.6284 -0.6925  1.1786
 4879TIP3   OH214642   0.976   4.051   2.116 -0.1151  0.1992  0.7009
 4879TIP3    H114643   0.942   4.044   2.027  0.3196  1.4896  0.4181
 4879TIP3    H214644   0.900   4.038   2.172 -0.6410  0.7190  0.1145
 4880TIP3   OH214645   0.669   0.258   2.779  0.7897 -0.2700  0.3098
 4880TIP3    H114646   0.689   0.269   2.872  0.6507  0.2211  0.2817
 4880TIP3    H214647   0.575   0.238   2.778  0.1448  2.4945  0.0976
 4881TIP3   OH214648   2.471   1.598   4.764 -0.6363  0.1447  0.0502
 4881TIP3    H114649   2.450   1.520   4.816 -0.9764 -0.6312 -1.1782
 4881TIP3    H214650   2.484   1.667   4.828  0.6875 -1.1387  1.2494
 4882TIP3   OH214651   1.326   0.717   1.790 -0.2612 -0.0556 -0.1466
 4882TIP3    H114652   1.258   0.770   1.748 -0.7664  1.1086  1.9656
 4882TIP3    H214653   1.285   0.631   1.802 -0.6727  0.0721 -0.5974
 4883TIP3   OH214654   0.084   2.528   1.739  0.1666 -0.1013 -0.0214
 4883TIP3    H114655   0.010   2.476   1.706  0.1922  0.4427 -0.9540
 4883TIP3    H214656   0.054   2.618   1.734  1.0566  0.1658 -0.8560
 4884TIP3   OH214657   5.353   3.903   4.309 -0.3060 -0.5252 -0.3757
 4884TIP3    H114658   5.297   3.871   4.379 -0.7555 -0.7821 -0.8464
 4884TIP3    H214659   5.384   3.823   4.265 -0.2578 -0.3598 -0.6446
 4885TIP3   OH214660   1.371   5.957   2.098 -0.0465  0.2234 -0.0956
 4885TIP3    H114661   1.349   6.048   2.117 -1.4042 -0.0927 -0.0207
 4885TIP3    H214662   1.308   5.931   2.030  1.6168 -0.0800 -1.5827
 4886TIP3   OH214663   1.232   2.664   4.313 -0.3186  0.1319 -0.0324
 4886TIP3    H114664   1.308   2.627   4.360 -0.2101 -0.6010 -0.7566
 4886TIP3    H214665   1.216   2.602   4.242 -0.6277  1.1024 -0.8260
 4887TIP3   OH214666   6.271   4.112   0.791  0.5057  0.5785 -0.7136
 4887TIP3    H114667   6.280   4.198   0.750 -2.1153  1.4667  0.3183
 4887TIP3    H214668   6.179   4.108   0.818 -0.0398 -3.3708 -2.4151
 4888TIP3   OH214669   4.133   1.079   4.311 -0.3020 -0.0156 -0.2572
 4888TIP3    H114670   4.217   1.060   4.268 -0.8186  0.4229 -1.5062
 4888TIP3    H214671   4.151   1.068   4.404  1.0061 -0.4622 -0.5375
 4889TIP3   OH214672   6.192   1.590   1.312 -0.3120 -0.1171 -0.0989
 4889TIP3    H114673   6.196   1.602   1.407 -0.2563  0.3942 -0.1637
 4889TIP3    H214674   6.245   1.511   1.296 -0.9962 -0.6851  0.3743
 4890TIP3   OH214675   3.944   2.424   4.804 -0.4935 -0.1148  0.4074
 4890TIP3    H114676   3.970   2.448   4.715  1.1903  1.0473  1.1660
 4890TIP3    H214677   3.996   2.347   4.825 -1.4503 -0.8528  0.1402
 4891TIP3   OH214678   4.073   5.885   2.221  0.3640 -0.2562 -0.0289
 4891TIP3    H114679   3.991   5.853   2.259 -0.3773 -0.7838 -1.9423
 4891TIP3    H214680   4.071   5.979   2.235 -0.0498 -0.3921  0.8951
 4892TIP3   OH214681   2.706   3.358   4.989  0.8958 -0.1460  0.1965
 4892TIP3    H114682   2.796   3.343   4.960  0.1879 -0.0414 -2.2845
 4892TIP3    H214683   2.704   3.451   5.012  1.2179  0.0733 -0.6274
 4893TIP3   OH214684   0.086   2.830   4.216 -0.5168 -0.0475 -0.3819
 4893TIP3    H114685   0.042   2.745   4.213  0.4741 -0.6249  0.6326
 4893TIP3    H214686   0.046   2.880   4.145 -0.6424 -1.6013 -1.4686
 4894TIP3   OH214687   1.557   0.902   0.319 -0.2673  0.2251 -0.7226
 4894TIP3    H114688   1.467   0.870   0.314 -0.6653  1.1600  0.3221
 4894TIP3    H214689   1.552   0.993   0.291  0.3408  0.3202 -0.5342
 4895TIP3   OH214690   4.841   3.261   0.114  0.0799  0.4953  0.6063
 4895TIP3    H114691   4.832   3.324   0.042  0.5697  1.2091  1.1556
 4895TIP3    H214692   4.845   3.315   0.193 -3.5630 -0.3381  1.5604
 4896TIP3   OH214693   4.579   0.387   2.663  0.2477  0.2250  0.0116
 4896TIP3    H114694   4.608   0.296   2.670  1.6612  0.7429  1.6229
 4896TIP3    H214695   4.649   0.437   2.704 -0.1158  2.1334 -1.5774
 4897TIP3   OH214696   3.236   0.629   0.582 -0.2739  0.6172 -0.1475
 4897TIP3    H114697   3.243   0.687   0.506  0.6967 -0.0122 -0.5587
 4897TIP3    H214698   3.183   0.678   0.645 -1.9967  0.7325 -1.6100
 4898TIP3   OH214699   4.106   5.580   2.216 -0.4302  0.5433  0.4997
 4898TIP3    H114700   4.160   5.559   2.293 -1.0180  2.4284  1.5172
 4898TIP3    H214701   4.102   5.676   2.216 -3.1849  0.5160  0.0851
 4899TIP3   OH214702   2.128   4.196   2.033  0.1749  0.0410 -0.2874
 4899TIP3    H114703   2.131   4.180   1.938 -0.5505 -0.0399 -0.3085
 4899TIP3    H214704   2.049   4.151   2.062 -0.9764  2.0464 -0.0617
 4900TIP3   OH214705   0.963   1.449   3.103  0.4573  0.2883 -0.5606
 4900TIP3    H114706   0.870   1.443   3.084  0.0143  1.0354  1.2459
 4900TIP3    H214707   1.005   1.441   3.017 -1.2374 -0.2913 -1.3747
 4901TIP3   OH214708   4.504   1.290   1.108 -0.0231  0.1207  0.3158
 4901TIP3    H114709   4.523   1.208   1.155 -0.9903  0.3672  1.1903
 4901TIP3    H214710   4.585   1.340   1.113 -0.3129  0.4701  2.4824
 4902TIP3   OH214711   1.963   1.914   1.608  0.6893  0.0040 -0.0613
 4902TIP3    H114712   1.997   1.948   1.525  1.0840 -0.1171  0.0481
 4902TIP3    H214713   2.030   1.852   1.637 -0.1354 -1.0665 -0.3863
 4903TIP3   OH214714   1.330   4.735   3.018  0.0013  0.2246  0.2514
 4903TIP3    H114715   1.242   4.769   3.034 -0.1533  0.4110 -0.8555
 4903TIP3    H214716   1.335   4.727   2.923  0.8607 -0.6697  0.3592
 4904TIP3   OH214717   5.298   0.219   5.157  0.1442 -0.3212  0.1154
 4904TIP3    H114718   5.211   0.185   5.176  0.1903 -0.5184 -0.0228
 4904TIP3    H214719   5.293   0.312   5.177 -0.4344 -0.0927 -0.9950
 4905TIP3   OH214720   4.403   5.177   2.991  0.0888 -0.1897 -0.3271
 4905TIP3    H114721   4.339   5.152   3.057 -1.6324  1.6220 -1.1794
 4905TIP3    H214722   4.485   5.138   3.020 -0.8388 -0.3920  2.2432
 4906TIP3   OH214723   3.411   3.581   5.155 -0.0493  0.1323  0.7441
 4906TIP3    H114724   3.372   3.579   5.068 -1.2727  0.0998  1.2714
 4906TIP3    H214725   3.446   3.670   5.164  1.6793 -0.3880 -0.4296
 4907TIP3   OH214726   5.230   2.926   0.287 -0.1068  0.2605 -0.2836
 4907TIP3    H114727   5.289   2.991   0.247 -0.5701  1.0867  0.3553
 4907TIP3    H214728   5.159   2.977   0.324  0.2486 -0.4808  1.5362
 4908TIP3   OH214729   0.741   3.489   2.688 -0.1797 -0.0465 -0.1680
 4908TIP3    H114730   0.771   3.519   2.602 -0.5106  0.9070  0.0253
 4908TIP3    H214731   0.786   3.547   2.750  0.7463 -1.3010  0.3717
 4909TIP3   OH214732   4.535   2.496   1.156 -0.0380  0.2663 -0.0961
 4909TIP3    H114733   4.516   2.563   1.222  1.0345  0.9154 -0.4112
 4909TIP3    H214734   4.505   2.414   1.195 -0.7045  0.8327  0.6055
 4910TIP3   OH214735   0.531   3.345   2.588 -0.4409  0.3716  0.1482
 4910TIP3    H114736   0.563   3.302   2.509 -1.0724  1.2129 -0.5821
 4910TIP3    H214737   0.608   3.391   2.623  0.0919 -0.8423  0.6096
 4911TIP3   OH214738   5.601   5.269   4.311 -0.3541  0.4297  0.1864
 4911TIP3    H114739   5.666   5.213   4.355 -0.4148  0.3253  0.1452
 4911TIP3    H214740   5.635   5.357   4.320  0.1199  0.3104 -0.4018
 4912TIP3   OH214741   2.188   4.118   3.481  0.5404 -0.5529 -0.0769
 4912TIP3    H114742   2.223   4.029   3.476 -1.5576 -1.6669  2.4603
 4912TIP3    H214743   2.216   4.150   3.567  1.2752  1.3429 -0.9368
 4913TIP3   OH214744   2.028   3.785   1.739 -0.0872  0.2045  0.2430
 4913TIP3    H114745   2.103   3.826   1.697 -0.4587  0.8700  0.2212
 4913TIP3    H214746   1.953   3.811   1.686 -0.4489  0.3047  0.7926
 4914TIP3   OH214747   0.709   0.477   0.351  0.0934  0.2596  0.0508
 4914TIP3    H114748   0.789   0.505   0.395  0.3047  1.4792 -1.0304
 4914TIP3    H214749   0.642   0.537   0.384 -0.1602 -0.1188  0.2176
 4915TIP3   OH214750   1.235   5.464   0.308 -0.3212  0.7862 -0.0424
 4915TIP3    H114751   1.178   5.392   0.334  0.6458  0.0163  0.0100
 4915TIP3    H214752   1.175   5.537   0.292 -1.3978 -0.1964 -0.7321
 4916TIP3   OH214753   1.289   0.932   4.757 -0.1435 -0.4032 -0.2004
 4916TIP3    H114754   1.205   0.922   4.802 -0.4498  2.2353 -0.0361
 4916TIP3    H214755   1.270   0.907   4.666 -0.5150 -1.8952  0.2521
 4917TIP3   OH214756   4.638   3.064   3.603 -0.0677  0.0048 -0.2618
 4917TIP3    H114757   4.733   3.065   3.614 -0.2627  0.8812  1.9088
 4917TIP3    H214758   4.624   3.092   3.512  1.7244  1.7133 -0.0866
 4918TIP3   OH214759   0.406   5.857   3.300  0.3351  0.7036 -0.2039
 4918TIP3    H114760   0.493   5.897   3.296 -0.1274  1.6539 -1.6974
 4918TIP3    H214761   0.348   5.928   3.328  0.1616 -0.2096  1.9188
 4919TIP3   OH214762   5.377   0.485   4.357  0.0236  0.0362 -0.2855
 4919TIP3    H114763   5.447   0.483   4.422 -0.9076 -0.2555  0.7333
 4919TIP3    H214764   5.421   0.510   4.275  1.4131 -0.7694  0.1885
 4920TIP3   OH214765   4.033   2.646   0.188 -0.2229 -0.1465 -0.0128
 4920TIP3    H114766   4.120   2.607   0.182  0.6507  1.3639  1.7272
 4920TIP3    H214767   4.029   2.707   0.115  0.3597  0.0471  0.1076
 4921TIP3   OH214768   2.358   3.933   1.805  0.2403 -0.6323 -0.8604
 4921TIP3    H114769   2.288   3.997   1.793  0.2277 -0.6252 -0.7473
 4921TIP3    H214770   2.396   3.955   1.890  1.0049 -0.0289 -1.3460
 4922TIP3   OH214771   1.304   5.187   1.317  0.3107  0.4288  0.4295
 4922TIP3    H114772   1.300   5.280   1.343  1.9288  1.0905 -1.4219
 4922TIP3    H214773   1.393   5.161   1.339 -0.5204 -1.1464  2.1633
 4923TIP3   OH214774   2.619   1.900   0.583 -0.0987 -0.0937 -0.3742
 4923TIP3    H114775   2.543   1.843   0.593 -0.9457  1.1422  0.6255
 4923TIP3    H214776   2.593   1.982   0.627  1.6120  0.5382 -0.4747
 4924TIP3   OH214777   2.432   3.172   2.801 -0.4562  0.5716 -0.1304
 4924TIP3    H114778   2.374   3.096   2.805  0.3318 -0.1024 -1.0108
 4924TIP3    H214779   2.465   3.181   2.891  1.9863 -2.2250 -0.5591
 4925TIP3   OH214780   5.692   0.126   3.588 -0.1842 -0.2720 -0.0716
 4925TIP3    H114781   5.760   0.132   3.655  0.2055 -0.6949 -0.4211
 4925TIP3    H214782   5.721   0.186   3.519 -0.6489  0.2600  0.1897
 4926TIP3   OH214783   5.084   0.885   1.743 -0.0092  0.2603  0.6675
 4926TIP3    H114784   5.141   0.957   1.772 -1.8369  1.1844  2.1593
 4926TIP3    H214785   5.033   0.923   1.671  2.0448 -0.9668 -1.5839
 4927TIP3   OH214786   4.170   3.407   2.999 -0.5020  0.1283 -1.0293
 4927TIP3    H114787   4.214   3.327   3.028 -0.4761 -0.4129 -2.4701
 4927TIP3    H214788   4.210   3.477   3.050 -0.6400 -0.7815  0.3811
 4928TIP3   OH214789   1.754   0.599   3.079  0.2048 -0.3246  0.2566
 4928TIP3    H114790   1.761   0.507   3.055 -0.3970 -0.1781 -0.5212
 4928TIP3    H214791   1.672   0.628   3.040  0.7023  0.7086 -0.0772
 4929TIP3   OH214792   3.375   0.111   4.972  0.3865  0.4050 -0.1377
 4929TIP3    H114793   3.310   0.176   4.948  0.0549  0.6999  1.4747
 4929TIP3    H214794   3.425   0.151   5.043  2.0770  0.0236 -1.0513
 4930TIP3   OH214795   2.546   1.009   1.971 -0.4222  1.2492 -0.3272
 4930TIP3    H114796   2.503   0.928   1.997  2.3615 -0.3826 -0.4030
 4930TIP3    H214797   2.491   1.078   2.006 -1.2042 -0.7127  2.6926
 4931TIP3   OH214798   3.405   1.598   2.306 -0.4617 -0.2205 -0.0063
 4931TIP3    H114799   3.406   1.632   2.396 -0.4256  0.1085 -0.1304
 4931TIP3    H214800   3.438   1.508   2.314  0.0336 -0.0162  0.2379
 4932TIP3   OH214801   6.330   3.199   1.207 -0.2337  0.4302  0.0271
 4932TIP3    H114802   6.272   3.215   1.133  0.0487  1.1939 -0.0392
 4932TIP3    H214803   6.377   3.282   1.219  1.7740 -0.5253 -0.7213
 4933TIP3   OH214804   1.193   2.992   2.118  0.3926  0.3953  0.1160
 4933TIP3    H114805   1.132   3.001   2.191 -1.5327 -0.8508 -1.2404
 4933TIP3    H214806   1.159   3.052   2.051  0.0868 -0.9638 -0.9826
 4934TIP3   OH214807   0.345   0.235   2.178  0.1898 -0.6150 -0.5868
 4934TIP3    H114808   0.312   0.307   2.124  0.3957  0.9731  1.3040
 4934TIP3    H214809   0.436   0.259   2.197  1.1005 -2.6793 -1.9916
 4935TIP3   OH214810   4.091   3.113   5.143 -0.0160  0.4179 -0.2833
 4935TIP3    H114811   4.053   3.128   5.057  1.1678  1.8787 -0.6011
 4935TIP3    H214812   4.150   3.039   5.131 -2.2597 -1.5334  0.0997
 4936TIP3   OH214813   2.435   5.505   2.376  0.0763 -0.1340 -0.0453
 4936TIP3    H114814   2.416   5.528   2.467  0.7286 -0.1609  0.0977
 4936TIP3    H214815   2.491   5.575   2.344 -2.0449  1.1573 -1.1663
 4937TIP3   OH214816   0.888   4.919   3.285 -0.3082  0.5465 -0.2001
 4937TIP3    H114817   0.939   5.000   3.282  0.6780  0.0580  1.6001
 4937TIP3    H214818   0.954   4.849   3.281 -0.9389 -0.1201  0.7397
 4938TIP3   OH214819   0.736   2.665   2.213  0.5439 -0.4520 -0.0701
 4938TIP3    H114820   0.784   2.748   2.203  0.0722 -0.2272 -0.5159
 4938TIP3    H214821   0.656   2.678   2.163  0.6925 -1.3697 -0.5565
 4939TIP3   OH214822   2.710   1.476   2.016  0.3542  0.7846 -0.0083
 4939TIP3    H114823   2.729   1.449   2.106  0.4661  1.0100  0.0363
 4939TIP3    H214824   2.710   1.394   1.966 -0.3864  0.5776  0.3111
 4940TIP3   OH214825   3.579   5.136   1.930 -0.3558 -0.4816 -0.5335
 4940TIP3    H114826   3.510   5.104   1.989 -0.1423 -1.2087 -0.6628
 4940TIP3    H214827   3.612   5.057   1.888  1.3582 -0.2865  0.3869
 4941TIP3   OH214828   4.358   4.744   0.969  0.0630  0.3996 -0.4969
 4941TIP3    H114829   4.448   4.713   0.972 -0.6305 -1.7995  2.8493
 4941TIP3    H214830   4.364   4.838   0.990  1.5117 -0.1492  1.9417
 4942TIP3   OH214831   1.592   1.239   2.839 -0.1378 -0.1572  0.4798
 4942TIP3    H114832   1.511   1.189   2.831  0.9764 -1.9232 -0.4282
 4942TIP3    H214833   1.661   1.174   2.833  1.3860  1.4082  0.1540
 4943TIP3   OH214834   2.162   5.269   4.510 -0.4522  0.3914  0.4261
 4943TIP3    H114835   2.135   5.305   4.595 -0.3892  0.7715  0.2902
 4943TIP3    H214836   2.250   5.304   4.496  0.0601 -0.7156  0.7924
 4944TIP3   OH214837   3.412   1.631   3.149 -0.2891 -0.1134  0.7181
 4944TIP3    H114838   3.439   1.716   3.182 -1.3256 -0.1521  1.7126
 4944TIP3    H214839   3.342   1.650   3.087  0.4806 -0.1565 -0.1782
 4945TIP3   OH214840   2.547   3.853   4.186 -0.1629  0.2952  0.5582
 4945TIP3    H114841   2.452   3.864   4.184 -0.0589  1.3872  0.8305
 4945TIP3    H214842   2.565   3.820   4.274 -0.2694  0.2859  0.5770
 4946TIP3   OH214843   1.319   1.775   1.517  0.0536 -0.5962  0.5561
 4946TIP3    H114844   1.348   1.704   1.575  0.0779  0.2635  1.6331
 4946TIP3    H214845   1.241   1.810   1.560 -0.0887 -0.1287 -0.0841
 4947TIP3   OH214846   3.860   4.108   3.507 -0.1889 -0.0546 -0.3202
 4947TIP3    H114847   3.809   4.056   3.569  1.1404 -1.5826 -0.4328
 4947TIP3    H214848   3.916   4.163   3.562  0.2363 -0.6368 -0.1650
 4948TIP3   OH214849   2.495   5.361   4.696  0.3126  0.8275  0.2847
 4948TIP3    H114850   2.460   5.353   4.607  1.1274  0.3985 -0.0047
 4948TIP3    H214851   2.560   5.291   4.703 -0.5216  0.1363  1.6008
 4949TIP3   OH214852   3.562   4.528   3.790 -0.9719  0.0624 -0.3397
 4949TIP3    H114853   3.569   4.450   3.845 -1.3981  0.8369  0.8760
 4949TIP3    H214854   3.591   4.600   3.847 -1.2350  0.8735 -1.1978
 4950TIP3   OH214855   6.068   5.593   3.429  0.4026 -0.2278  0.0451
 4950TIP3    H114856   6.148   5.543   3.417  0.2134 -0.7697  0.9527
 4950TIP3    H214857   6.087   5.651   3.503  0.5964  1.0177 -0.9465
 4951TIP3   OH214858   1.435   5.311   2.502 -0.1833 -0.5619 -0.2317
 4951TIP3    H114859   1.377   5.377   2.466  0.0511 -1.9766 -3.5411
 4951TIP3    H214860   1.516   5.358   2.522 -1.6039  1.0135  2.4901
 4952TIP3   OH214861   3.818   5.409   0.031  0.1641  0.1915  0.0298
 4952TIP3    H114862   3.758   5.472  -0.010 -1.1396 -0.5105  0.7820
 4952TIP3    H214863   3.776   5.387   0.114  0.9274 -1.1632  0.0813
 4953TIP3   OH214864   5.300   4.466   3.454 -0.1202 -0.0252  0.8654
 4953TIP3    H114865   5.298   4.375   3.425 -1.8835 -0.5370  2.3432
 4953TIP3    H214866   5.230   4.509   3.405 -1.0688 -0.1554  2.0559
 4954TIP3   OH214867   1.187   5.880   1.914  1.1091 -0.3960 -0.3788
 4954TIP3    H114868   1.153   5.791   1.927  2.1622 -0.8350 -0.5337
 4954TIP3    H214869   1.112   5.929   1.880  0.7265 -1.4410 -1.0983
 4955TIP3   OH214870   5.078   4.600   2.284  0.4877 -0.3613  0.4874
 4955TIP3    H114871   5.006   4.613   2.346  0.0401 -0.6238  0.0327
 4955TIP3    H214872   5.037   4.556   2.209  0.9009  0.4664 -0.2371
 4956TIP3   OH214873   4.824   0.472   2.828 -0.5588 -0.4629  0.0725
 4956TIP3    H114874   4.869   0.424   2.897 -1.1580 -0.5182  0.4360
 4956TIP3    H214875   4.892   0.493   2.764  0.6386  2.1425  2.0393
 4957TIP3   OH214876   3.822   0.343   1.759  0.7376 -0.0521 -0.1089
 4957TIP3    H114877   3.816   0.352   1.664 -1.6224 -1.1482 -0.1253
 4957TIP3    H214878   3.906   0.383   1.781  0.7954  1.3685 -2.5013
 4958TIP3   OH214879   3.013   0.459   1.164  1.1845  0.1386  0.3984
 4958TIP3    H114880   3.035   0.483   1.254  1.1874 -0.7604  0.6427
 4958TIP3    H214881   2.926   0.420   1.169  0.8698  0.7374 -0.1068
 4959TIP3   OH214882   1.114   1.044   1.502  0.3853 -0.2056  0.3732
 4959TIP3    H114883   1.044   1.031   1.566  0.9427  1.7530  1.4829
 4959TIP3    H214884   1.193   1.012   1.545  0.4023 -1.1543 -0.3364
 4960TIP3   OH214885   1.893   5.204   4.716 -0.0783 -0.2473 -0.1536
 4960TIP3    H114886   1.965   5.195   4.779 -0.7987 -2.5088  0.4401
 4960TIP3    H214887   1.866   5.115   4.698 -2.7678  0.5304 -0.3475
 4961TIP3   OH214888   3.792   4.232   0.337 -0.1731 -0.3015  0.3003
 4961TIP3    H114889   3.711   4.282   0.343 -0.9319 -1.4935  0.2293
 4961TIP3    H214890   3.767   4.143   0.358  1.3684 -0.4780  1.5631
 4962TIP3   OH214891   3.369   1.188   0.249  0.2764 -0.2268  0.5088
 4962TIP3    H114892   3.452   1.207   0.293 -0.3483  1.1948  1.1585
 4962TIP3    H214893   3.306   1.179   0.320 -0.4906  0.7391 -0.0194
 4963TIP3   OH214894   2.940   5.134   2.990 -0.2786  0.8329  0.0789
 4963TIP3    H114895   2.896   5.062   3.036 -1.6885  1.4422 -0.2757
 4963TIP3    H214896   2.942   5.106   2.899  0.3537  0.6790  0.1374
 4964TIP3   OH214897   3.871   5.712   1.358  0.0209 -0.1237  0.1310
 4964TIP3    H114898   3.800   5.761   1.399  0.7732 -0.0224  1.3607
 4964TIP3    H214899   3.932   5.779   1.327  0.7751 -0.2341  1.3126
 4965TIP3   OH214900   3.723   1.711   4.927  0.0404  0.1708  0.2170
 4965TIP3    H114901   3.768   1.760   4.858  0.4957 -0.3188  0.1650
 4965TIP3    H214902   3.709   1.624   4.890 -0.5536  0.1876  0.3971
 4966TIP3   OH214903   4.761   3.155   1.150  0.3931  0.0925 -0.6815
 4966TIP3    H114904   4.692   3.206   1.107  0.9462  0.0876 -1.5759
 4966TIP3    H214905   4.823   3.221   1.182 -0.4208  0.1548  0.8685
 4967TIP3   OH214906   1.757   1.292   3.833 -0.1136 -0.0323  0.1836
 4967TIP3    H114907   1.842   1.250   3.846  0.9665  1.9338 -0.0983
 4967TIP3    H214908   1.769   1.381   3.866 -2.2423  0.1351  0.6259
 4968TIP3   OH214909   5.563   5.738   4.248 -0.2100  0.2218  0.0578
 4968TIP3    H114910   5.638   5.797   4.250  0.3466 -0.4787  1.1312
 4968TIP3    H214911   5.496   5.784   4.197 -0.2857  2.3693  1.9509
 4969TIP3   OH214912   3.752   4.346   1.189 -0.2360 -0.2440 -0.2122
 4969TIP3    H114913   3.732   4.252   1.181 -0.4284 -0.2883  0.5969
 4969TIP3    H214914   3.682   4.390   1.141 -1.4392 -0.4611  1.2527
 4970TIP3   OH214915   3.039   0.309   2.401 -0.0797  0.0733  0.1497
 4970TIP3    H114916   2.989   0.375   2.450  0.2682 -0.5551  1.4060
 4970TIP3    H214917   3.033   0.337   2.310  1.7753  3.0074  0.7858
 4971TIP3   OH214918   1.690   4.999   0.943  0.0565  0.3574  0.7337
 4971TIP3    H114919   1.737   5.082   0.938 -0.8725  0.8356 -0.7760
 4971TIP3    H214920   1.697   4.962   0.855 -0.8599 -0.4063  0.9659
 4972TIP3   OH214921   0.092   4.414   4.734  0.2009  0.1093  0.1729
 4972TIP3    H114922   0.131   4.501   4.736  0.5429 -0.0415  0.0582
 4972TIP3    H214923   0.007   4.427   4.692 -1.8051  1.1966  4.0865
 4973TIP3   OH214924   0.440   3.764   3.120  0.7350 -0.3505 -0.4902
 4973TIP3    H114925   0.362   3.783   3.172  0.1669  0.1476 -1.5056
 4973TIP3    H214926   0.408   3.756   3.030  2.0211  1.1970 -1.1377
 4974TIP3   OH214927   4.588   4.099   0.049 -0.1545  0.1507  0.3291
 4974TIP3    H114928   4.502   4.101   0.006  0.3323 -1.7558 -0.8635
 4974TIP3    H214929   4.578   4.032   0.118  0.6499 -0.8888 -0.5353
 4975TIP3   OH214930   4.424   5.932   3.039 -0.0903  0.6719 -0.2110
 4975TIP3    H114931   4.518   5.926   3.020 -0.1625  0.4699 -0.5217
 4975TIP3    H214932   4.383   5.881   2.969 -0.4455  0.9391 -0.1985
 4976TIP3   OH214933   3.833   5.433   2.900 -0.0138 -0.3126  0.1167
 4976TIP3    H114934   3.752   5.476   2.874  0.1757 -0.6670 -1.1256
 4976TIP3    H214935   3.872   5.492   2.964 -0.0278  1.1414 -1.1526
 4977TIP3   OH214936   4.466   0.574   0.849 -0.0600 -0.2338 -0.7821
 4977TIP3    H114937   4.525   0.515   0.896 -0.6107  0.4487  0.8522
 4977TIP3    H214938   4.508   0.659   0.855 -0.6826  0.0634 -0.5247
 4978TIP3   OH214939   0.015   4.970   0.479 -0.2831  1.1347 -0.0106
 4978TIP3    H114940  -0.073   4.966   0.516 -0.8911 -2.4405 -1.4559
 4978TIP3    H214941   0.072   4.943   0.551 -0.8625 -0.5143 -0.1388
 4979TIP3   OH214942   3.804   2.566   4.406 -0.0909  0.0201 -0.4627
 4979TIP3    H114943   3.839   2.492   4.358  0.8043 -0.4221  0.8121
 4979TIP3    H214944   3.726   2.533   4.449  1.3701 -0.8297  1.7108
 4980TIP3   OH214945   4.082   5.649   2.608 -0.4642  0.1237  0.0713
 4980TIP3    H114946   3.989   5.659   2.589 -0.4153  0.6691  0.1110
 4980TIP3    H214947   4.104   5.725   2.662 -0.0431 -0.1077  0.2290
 4981TIP3   OH214948   2.518   1.170   2.271  0.2524 -0.0076 -0.4199
 4981TIP3    H114949   2.545   1.078   2.273 -0.9029 -0.3557  1.4966
 4981TIP3    H214950   2.570   1.212   2.340  1.3428  1.0102 -1.7755
 4982TIP3   OH214951   0.176   2.721   3.748 -0.3488  0.7693  0.0341
 4982TIP3    H114952   0.081   2.727   3.758 -0.3633 -0.7700  1.2197
 4982TIP3    H214953   0.211   2.776   3.818 -0.3514  0.8740 -0.0451
 4983TIP3   OH214954   3.665   0.908   3.859 -0.4962  0.0547 -0.2326
 4983TIP3    H114955   3.691   0.837   3.801  0.4292 -0.1211  0.3875
 4983TIP3    H214956   3.595   0.954   3.811 -0.9931 -1.1639 -0.6984
 4984TIP3   OH214957   2.668   1.799   4.400  0.3835 -0.2616 -0.1739
 4984TIP3    H114958   2.581   1.832   4.376  0.4228  0.2270  0.3300
 4984TIP3    H214959   2.665   1.706   4.379  0.4651  0.1322 -2.2108
 4985TIP3   OH214960   6.218   0.178   4.458 -0.1620  0.4763  0.2141
 4985TIP3    H114961   6.271   0.172   4.379 -1.6215  1.1709 -0.8609
 4985TIP3    H214962   6.131   0.206   4.427 -0.6547  1.1873  2.0929
 4986TIP3   OH214963   0.046   2.818   2.376  0.1222 -0.5262 -0.0558
 4986TIP3    H114964   0.134   2.826   2.340 -0.3301  1.0631 -0.8964
 4986TIP3    H214965   0.058   2.805   2.470  1.2388  1.7332  0.1614
 4987TIP3   OH214966   3.375   2.471   1.982  0.0433 -0.2132 -0.1367
 4987TIP3    H114967   3.344   2.407   1.918  0.9309 -0.8805  0.0824
 4987TIP3    H214968   3.386   2.421   2.062  0.7320  0.2138  0.0443
 4988TIP3   OH214969   4.332   1.385   1.323  0.2799  0.3244  0.4426
 4988TIP3    H114970   4.404   1.408   1.264  0.7447 -2.2027 -0.1012
 4988TIP3    H214971   4.372   1.384   1.410  0.7114 -0.2816  0.2420
 4989TIP3   OH214972   4.306   1.086   2.149  0.1437 -0.0134  0.1245
 4989TIP3    H114973   4.347   1.027   2.086  0.8278  0.8140 -0.2304
 4989TIP3    H214974   4.353   1.169   2.139 -2.2007  1.3024 -1.0056
 4990TIP3   OH214975   5.318   3.466   0.670 -0.1294 -0.0177 -0.0680
 4990TIP3    H114976   5.363   3.391   0.710 -1.0802 -1.0378 -0.8361
 4990TIP3    H214977   5.281   3.514   0.743 -1.8036 -1.8271  0.3278
 4991TIP3   OH214978   5.259   3.441   1.752 -0.1222  0.3354  0.2106
 4991TIP3    H114979   5.187   3.394   1.794 -0.9092  1.2511 -0.0750
 4991TIP3    H214980   5.314   3.372   1.715  0.2203 -0.4689  2.0896
 4992TIP3   OH214981   2.789   2.531   2.307 -0.3332  0.0137  0.6966
 4992TIP3    H114982   2.821   2.580   2.231 -1.1277  1.7284  1.4168
 4992TIP3    H214983   2.694   2.539   2.302 -0.4253 -0.5133  1.4681
 4993TIP3   OH214984   3.623   3.954   1.608  0.2119 -0.0031  0.0553
 4993TIP3    H114985   3.539   3.926   1.570 -0.1667  0.5920  0.4313
 4993TIP3    H214986   3.599   3.999   1.689  0.7117  1.8788 -0.7644
 4994TIP3   OH214987   2.059   4.678   2.218 -0.0287  0.4781  0.2987
 4994TIP3    H114988   2.144   4.658   2.257 -0.4351  0.7581  1.3409
 4994TIP3    H214989   2.039   4.601   2.165  1.3924  0.8756 -0.8975
 4995TIP3   OH214990   6.158   1.519   0.133 -0.6993 -0.1852 -0.6588
 4995TIP3    H114991   6.176   1.542   0.042 -0.4660  0.8715 -0.3559
 4995TIP3    H214992   6.065   1.536   0.144 -0.8135 -0.6919 -0.7974
 4996TIP3   OH214993   0.279   4.210   0.093 -0.3406 -0.0567  0.0426
 4996TIP3    H114994   0.209   4.229   0.030 -0.8652 -0.4603  0.4994
 4996TIP3    H214995   0.289   4.115   0.090  0.8094  0.0730 -0.6695
 4997TIP3   OH214996   4.142   4.292   2.790  0.3140  0.2775 -0.0245
 4997TIP3    H114997   4.225   4.313   2.833 -0.4460  1.0023  1.1488
 4997TIP3    H214998   4.145   4.197   2.778  0.4135 -0.0298  2.0162
 4998TIP3   OH214999   1.100   4.247   5.096  0.0820 -0.2124 -0.0132
 4998TIP3    H115000   1.186   4.210   5.075 -0.3783 -0.4575 -1.6144
 4998TIP3    H215001   1.111   4.341   5.084 -0.2844 -0.3684 -2.0707
 4999TIP3   OH215002   0.777   2.696   3.271 -0.1256  0.1446 -0.4980
 4999TIP3    H115003   0.854   2.697   3.214 -0.8940 -2.1962 -1.7130
 4999TIP3    H215004   0.731   2.778   3.252  1.5256  1.1299 -0.4495
 5000TIP3   OH215005   1.715   1.243   1.600 -0.2098 -0.0311  0.1028
 5000TIP3    H115006   1.762   1.300   1.661 -0.3756  0.3001 -0.0764
 5000TIP3    H215007   1.782   1.187   1.562 -0.2026 -0.8097  1.1895
 5001TIP3   OH215008   1.335   1.028   3.388 -0.3350 -0.1036  0.5030
 5001TIP3    H115009   1.252   1.046   3.432 -0.2336 -0.9287  1.0458
 5001TIP3    H215010   1.372   1.114   3.370 -1.0913  0.2623  0.6802
 5002TIP3   OH215011   0.091   5.835   3.736 -0.0875  0.3841 -0.0321
 5002TIP3    H115012   0.029   5.907   3.742  0.7970  1.0564  2.2433
 5002TIP3    H215013   0.047   5.761   3.779  0.7358  0.9776  1.9633
 5003TIP3   OH215014   5.745   3.465   2.634  0.0856 -0.1526  0.1167
 5003TIP3    H115015   5.775   3.374   2.638  0.6308 -0.0377 -0.9145
 5003TIP3    H215016   5.810   3.509   2.580  0.2309  1.0300  1.2037
 5004TIP3   OH215017   3.087   1.767   1.349 -0.3365 -0.0645 -0.5011
 5004TIP3    H115018   3.178   1.783   1.375 -0.7179 -0.9167  1.5027
 5004TIP3    H215019   3.042   1.848   1.371 -0.6751 -0.8072  1.7938
 5005TIP3   OH215020   1.301   0.758   0.527 -0.2485  0.2527 -0.2442
 5005TIP3    H115021   1.392   0.778   0.551 -0.0286 -0.0815 -0.7775
 5005TIP3    H215022   1.262   0.725   0.608  0.5415 -1.0537 -0.3711
 5006TIP3   OH215023   1.316   2.120   1.134  0.2439 -0.1861  0.3513
 5006TIP3    H115024   1.352   2.094   1.219 -1.6285  1.9349  1.9184
 5006TIP3    H215025   1.228   2.082   1.132 -0.4677  1.3581  0.2996
 5007TIP3   OH215026   3.567   0.830   3.296  0.8542 -0.1402 -0.4003
 5007TIP3    H115027   3.644   0.840   3.352  0.0327 -1.5502  1.0776
 5007TIP3    H215028   3.591   0.761   3.234  0.9303 -0.2821 -0.2141
 5008TIP3   OH215029   2.665   5.532   0.645  0.1732  0.3147  0.3428
 5008TIP3    H115030   2.697   5.489   0.565 -1.9856  1.0696 -1.0146
 5008TIP3    H215031   2.715   5.490   0.716  1.5971 -0.9566 -1.3050
 5009TIP3   OH215032   1.987   4.892   5.060 -0.1273  0.1593  0.0137
 5009TIP3    H115033   2.074   4.916   5.029 -0.5313  0.5582 -0.8661
 5009TIP3    H215034   1.977   4.938   5.143  0.5912 -0.1017  0.2520
 5010TIP3   OH215035   3.964   1.758   0.384  0.0076  0.0258  0.1050
 5010TIP3    H115036   4.057   1.776   0.398 -0.2395  1.4654  0.0436
 5010TIP3    H215037   3.962   1.683   0.324  1.1305  0.3673 -0.3689
 5011TIP3   OH215038   2.392   4.543   5.042  0.1192 -0.0528 -0.3656
 5011TIP3    H115039   2.479   4.531   5.079  0.8234  0.0158 -1.9483
 5011TIP3    H215040   2.345   4.463   5.065  1.2191 -0.9562 -1.1635
 5012TIP3   OH215041   5.486   4.300   4.161 -0.1610 -0.1876  0.0873
 5012TIP3    H115042   5.520   4.217   4.127 -0.9295 -0.7924  0.7692
 5012TIP3    H215043   5.547   4.323   4.232 -1.3722 -1.5298  1.6510
 5013TIP3   OH215044   5.207   4.221   3.376 -0.8103  0.0779  0.2386
 5013TIP3    H115045   5.190   4.128   3.384  0.4613 -0.1920  0.0579
 5013TIP3    H215046   5.269   4.228   3.304  0.3350  0.8980  1.2611
 5014TIP3   OH215047   6.063   2.400   3.122  0.0193  0.0509 -0.1435
 5014TIP3    H115048   6.104   2.422   3.038  2.3689  1.7185  1.3157
 5014TIP3    H215049   6.124   2.338   3.162 -1.1586 -0.8475  0.3181
 5015TIP3   OH215050   2.006   3.041   2.131 -0.4193 -0.2439  0.2767
 5015TIP3    H115051   1.920   3.015   2.165 -0.7805  0.0404 -0.3960
 5015TIP3    H215052   1.987   3.076   2.044  0.1192  1.7600  0.9307
 5016TIP3   OH215053   4.592   5.482   1.832  0.4299  0.0601  0.2044
 5016TIP3    H115054   4.555   5.528   1.907  0.5638  0.9463 -0.2574
 5016TIP3    H215055   4.607   5.393   1.863 -2.2220 -0.3979  0.3875
 5017TIP3   OH215056   0.677   4.195   2.975 -0.0681 -0.4995  0.2624
 5017TIP3    H115057   0.726   4.116   2.998  1.8790  1.3110  2.9917
 5017TIP3    H215058   0.731   4.238   2.909 -0.8972 -1.1586 -0.8815
 5018TIP3   OH215059   4.769   0.810   2.873 -0.5133  0.2693  0.3728
 5018TIP3    H115060   4.684   0.795   2.832  0.9371  0.3287 -3.0141
 5018TIP3    H215061   4.832   0.775   2.810  2.0074 -1.5304  3.5605
 5019TIP3   OH215062   0.757   4.642   1.191 -0.1202 -0.0695  0.0980
 5019TIP3    H115063   0.700   4.697   1.138 -1.0278  0.7930  1.8874
 5019TIP3    H215064   0.842   4.687   1.189 -0.0863 -0.1652 -0.7845
 5020TIP3   OH215065   1.683   0.967   3.266  0.5749 -0.1624 -0.7561
 5020TIP3    H115066   1.626   0.996   3.338  1.1959  0.4768 -0.5174
 5020TIP3    H215067   1.627   0.972   3.188 -0.0285 -0.6271 -0.3629
 5021TIP3   OH215068   5.219   2.011   3.420  0.1894 -0.0739  0.2848
 5021TIP3    H115069   5.269   2.022   3.339  0.9012  0.2655  0.7561
 5021TIP3    H215070   5.130   2.034   3.396  0.6642  1.5592 -0.0658
 5022TIP3   OH215071   4.113   4.688   0.246 -0.5693  0.3477 -0.4334
 5022TIP3    H115072   4.191   4.651   0.286  0.4908  2.2655 -0.6019
 5022TIP3    H215073   4.041   4.635   0.280  0.8392 -2.1536 -1.0891
 5023TIP3   OH215074   2.103   2.938   1.158  0.3117  0.1026  0.0119
 5023TIP3    H115075   2.131   2.887   1.082  0.3228  1.9627 -1.2906
 5023TIP3    H215076   2.124   3.028   1.136  0.4093  0.6968  2.2990
 5024TIP3   OH215077   2.943   1.410   5.034 -0.5126  0.3218 -0.5279
 5024TIP3    H115078   2.951   1.324   5.075  0.4495  1.0306  0.8291
 5024TIP3    H215079   2.849   1.418   5.013 -0.8446 -0.5052  0.5622
 5025TIP3   OH215080   1.030   3.718   4.358  0.4757 -0.2733 -0.4470
 5025TIP3    H115081   0.990   3.650   4.305  0.2261 -0.1073 -0.4747
 5025TIP3    H215082   1.001   3.800   4.317 -1.0819 -0.0959  0.8938
 5026TIP3   OH215083   0.990   0.156   0.494  0.0157 -0.0517 -0.0965
 5026TIP3    H115084   1.084   0.151   0.514  0.1033 -4.1327 -0.7075
 5026TIP3    H215085   0.987   0.185   0.403  0.6294  0.7447  0.1246
 5027TIP3   OH215086   3.552   2.471   4.513 -0.1879  0.2248  0.0604
 5027TIP3    H115087   3.463   2.504   4.523 -1.4683 -2.8150 -0.1416
 5027TIP3    H215088   3.545   2.406   4.443  1.4287 -2.3652  2.0968
 5028TIP3   OH215089   0.452   2.351   4.913 -0.4905 -0.1667 -0.0221
 5028TIP3    H115090   0.386   2.309   4.969 -0.4753 -1.1804 -0.7241
 5028TIP3    H215091   0.419   2.440   4.899 -1.3992 -0.4694  0.1391
 5029TIP3   OH215092   2.652   5.721   2.367 -0.1470 -0.0335  0.2614
 5029TIP3    H115093   2.743   5.697   2.386  0.7583  3.0664  0.3756
 5029TIP3    H215094   2.612   5.733   2.452 -0.7146 -1.3135  0.2083
 5030TIP3   OH215095   6.048   0.707   3.785  0.1870  0.7266 -0.0039
 5030TIP3    H115096   6.048   0.711   3.690  0.5588  0.9112  0.0037
 5030TIP3    H215097   5.979   0.644   3.806  1.0144 -0.3568 -0.4302
 5031TIP3   OH215098   4.912   2.863   1.406  0.0221  0.0855 -0.2501
 5031TIP3    H115099   4.916   2.956   1.426 -3.3644  0.0128  1.7145
 5031TIP3    H215100   4.846   2.829   1.467  1.6129 -3.7640 -0.3804
 5032TIP3   OH215101   3.632   1.639   4.423  0.2005 -0.8356 -0.1211
 5032TIP3    H115102   3.539   1.639   4.401 -0.1463  2.2065  0.8210
 5032TIP3    H215103   3.668   1.563   4.378 -2.0529 -0.0741 -3.5709
 5033TIP3   OH215104   1.579   4.634   3.116  0.6966  0.5053  0.0315
 5033TIP3    H115105   1.651   4.665   3.061  0.4224  0.7325 -0.2064
 5033TIP3    H215106   1.506   4.691   3.094  0.1881 -0.2754 -0.3879
 5034TIP3   OH215107   2.991   5.624   4.985  0.0180 -0.8480 -0.1649
 5034TIP3    H115108   2.957   5.645   4.898 -0.2966  0.8884  0.3429
 5034TIP3    H215109   2.959   5.535   5.002  1.1495 -1.7462 -2.3051
 5035TIP3   OH215110   1.992   0.480   0.401 -0.7888  0.6512 -0.0601
 5035TIP3    H115111   1.898   0.483   0.389 -0.9705  1.0750  1.2843
 5035TIP3    H215112   2.028   0.522   0.323 -1.7038  0.5101 -0.5667
 5036TIP3   OH215113   0.280   5.199   4.538  0.1558  0.0895  0.5316
 5036TIP3    H115114   0.286   5.243   4.454  0.2535 -1.5685 -0.3687
 5036TIP3    H215115   0.310   5.110   4.521 -0.7594 -0.5631  2.0988
 5037TIP3   OH215116   2.943   5.855   3.846 -0.4720 -0.2592 -0.0462
 5037TIP3    H115117   3.000   5.784   3.817 -1.3268 -0.8837 -0.2698
 5037TIP3    H215118   2.965   5.929   3.788  0.6126 -0.2483  0.3687
 5038TIP3   OH215119   5.988   1.939   1.983 -0.3170 -0.0711  0.7398
 5038TIP3    H115120   6.003   1.846   1.965  1.1804  0.4467 -1.0081
 5038TIP3    H215121   5.917   1.964   1.924 -0.9888 -0.1662  1.4889
 5039TIP3   OH215122   6.111   4.768   4.608 -0.1861 -0.7138 -0.0602
 5039TIP3    H115123   6.040   4.821   4.643 -0.1304  0.2194 -1.3049
 5039TIP3    H215124   6.133   4.808   4.524  2.7475 -0.1011  0.8630
 5040TIP3   OH215125   3.726   2.881   1.730  0.0226 -0.5570  0.1971
 5040TIP3    H115126   3.785   2.927   1.790 -0.9423  1.5477 -0.3818
 5040TIP3    H215127   3.764   2.897   1.643  0.1918 -1.7182  0.0370
 5041TIP3   OH215128   3.309   4.105   3.327  0.0858 -0.2406  0.1640
 5041TIP3    H115129   3.302   4.181   3.269 -0.7628  1.8160  2.8025
 5041TIP3    H215130   3.219   4.073   3.336  0.2275 -0.6161  0.2854
 5042TIP3   OH215131   2.897   4.263   3.298 -0.2334  0.5181 -0.4821
 5042TIP3    H115132   2.931   4.330   3.357  0.8507 -0.1618 -0.3111
 5042TIP3    H215133   2.945   4.184   3.322 -1.6025 -0.3746 -0.5586
 5043TIP3   OH215134   0.523   3.799   2.394 -0.1409 -0.5118  0.0283
 5043TIP3    H115135   0.501   3.878   2.344  2.5019  0.6730  0.5563
 5043TIP3    H215136   0.576   3.747   2.334 -0.4256 -1.0500  0.2420
 5044TIP3   OH215137   2.282   2.302   0.287  0.2025  0.0896 -0.1706
 5044TIP3    H115138   2.281   2.334   0.197 -1.5426  1.8221  0.3995
 5044TIP3    H215139   2.205   2.245   0.293  0.7306 -0.6113  0.0460
 5045TIP3   OH215140   3.832   3.334   2.734  0.0451  0.4010  0.4523
 5045TIP3    H115141   3.858   3.274   2.665 -1.2682  1.2514 -0.8546
 5045TIP3    H215142   3.884   3.413   2.717  1.7113 -0.2774  2.1145
 5046TIP3   OH215143   0.883   3.220   1.567  0.5019 -0.7931 -0.1970
 5046TIP3    H115144   0.836   3.137   1.564 -2.0283  0.5201  0.0993
 5046TIP3    H215145   0.876   3.254   1.478 -1.1099  0.3689  0.3140
 5047TIP3   OH215146   5.477   0.227   2.445  0.1694 -0.6675 -0.0183
 5047TIP3    H115147   5.549   0.271   2.489  1.2028 -1.5335 -0.7868
 5047TIP3    H215148   5.506   0.219   2.354 -1.1343 -0.5558 -0.4763
 5048TIP3   OH215149   5.967   5.448   1.549  0.4972  0.6092 -0.5120
 5048TIP3    H115150   5.947   5.538   1.523 -0.0753  0.7303  0.3094
 5048TIP3    H215151   5.910   5.394   1.495  0.0717  0.8002 -0.2579
 5049TIP3   OH215152   2.221   3.289   4.746 -1.3220 -0.5695 -0.7232
 5049TIP3    H115153   2.217   3.291   4.842 -1.6689 -2.2124 -0.6845
 5049TIP3    H215154   2.300   3.240   4.726 -0.9498  0.2415 -1.3056
 5050TIP3   OH215155   4.482   0.239   4.773 -0.9057  0.1799  0.0564
 5050TIP3    H115156   4.421   0.273   4.838 -1.2480  0.2415 -0.2950
 5050TIP3    H215157   4.436   0.249   4.689  0.1087  1.4988 -0.3779
 5051TIP3   OH215158   2.976   4.761   1.740 -0.2386  0.3229  0.3553
 5051TIP3    H115159   2.961   4.814   1.661  0.3162  0.2792  0.2208
 5051TIP3    H215160   2.926   4.806   1.808 -0.8968  0.2470 -0.0632
 5052TIP3   OH215161   5.024   2.667   1.728 -0.2450 -0.6373 -0.3654
 5052TIP3    H115162   4.939   2.675   1.685 -0.5521 -0.4220  0.2631
 5052TIP3    H215163   5.005   2.618   1.808  0.0018  0.4780  0.3881
 5053TIP3   OH215164   0.408   2.547   3.592  1.0644 -0.0353  0.1497
 5053TIP3    H115165   0.428   2.469   3.644  1.3463  0.9661  1.6055
 5053TIP3    H215166   0.332   2.586   3.636  0.7836  0.4066 -0.6978
 5054TIP3   OH215167   3.440   5.709   4.815  0.1813 -0.2112  0.1472
 5054TIP3    H115168   3.439   5.790   4.765 -0.1036 -0.7883 -0.7929
 5054TIP3    H215169   3.371   5.656   4.776 -0.0800 -0.6542  1.1854
 5055TIP3   OH215170   4.974   3.823   2.279 -0.6339  0.3188  0.4905
 5055TIP3    H115171   4.902   3.855   2.333 -0.7160 -0.4716  0.8679
 5055TIP3    H215172   5.049   3.821   2.338 -0.0967  1.9016 -0.1115
 5056TIP3   OH215173   0.729   5.751   0.389 -0.3558 -0.5033  0.1436
 5056TIP3    H115174   0.675   5.756   0.468 -0.8992  1.0447 -0.3050
 5056TIP3    H215175   0.672   5.778   0.318  0.5131 -0.5568 -0.6020
 5057TIP3   OH215176   2.313   0.115   1.164  0.3485 -0.3886  0.0108
 5057TIP3    H115177   2.296   0.173   1.238 -3.6789 -1.8917  0.5220
 5057TIP3    H215178   2.254   0.145   1.095  0.0194 -2.2873 -0.6039
 5058TIP3   OH215179   3.865  -0.021   3.905  0.1959 -0.5876 -0.3253
 5058TIP3    H115180   3.952   0.019   3.902  1.1960 -2.5972  0.1993
 5058TIP3    H215181   3.805   0.049   3.880  1.8629  1.1206  0.2754
 5059TIP3   OH215182   2.630   2.312   4.918 -0.5480  0.4022  1.3965
 5059TIP3    H115183   2.690   2.357   4.978  2.1376 -0.5283 -0.4118
 5059TIP3    H215184   2.580   2.382   4.876  1.2547  1.4777  0.9658
 5060TIP3   OH215185   3.095   5.576   1.129  0.0571  0.1522 -0.2585
 5060TIP3    H115186   3.024   5.635   1.104 -0.6273  0.0463  1.3614
 5060TIP3    H215187   3.061   5.489   1.110  0.6350  0.1780 -1.5645
 5061TIP3   OH215188   1.343   2.842   2.294  0.1129 -0.0801  0.3274
 5061TIP3    H115189   1.302   2.903   2.234  0.0103 -0.8549 -0.4013
 5061TIP3    H215190   1.270   2.794   2.333  0.2813 -1.9708 -1.5102
 5062TIP3   OH215191   1.983   0.639   1.661 -0.1022 -0.4243 -0.0352
 5062TIP3    H115192   2.033   0.559   1.651 -0.2275 -0.5350  0.2124
 5062TIP3    H215193   2.034   0.706   1.616  0.7860 -0.3239  1.0791
 5063TIP3   OH215194   0.091   3.972   4.139 -0.4230 -0.1007 -0.4692
 5063TIP3    H115195   0.150   3.909   4.099 -1.4443 -1.1607 -0.3393
 5063TIP3    H215196   0.010   3.924   4.153 -0.9619  1.0139  0.3885
 5064TIP3   OH215197   0.801   3.852   0.124 -0.1776 -0.1368  0.5071
 5064TIP3    H115198   0.791   3.923   0.061  0.2849  0.5722  1.2061
 5064TIP3    H215199   0.892   3.857   0.151 -0.4272 -0.2627  1.4079
 5065TIP3   OH215200   0.656   5.667   1.437  0.2652 -0.0375  0.3328
 5065TIP3    H115201   0.716   5.732   1.402  0.7140  0.3018  1.6536
 5065TIP3    H215202   0.592   5.652   1.367  2.0588 -0.6756 -1.2393
 5066TIP3   OH215203   0.922   5.094   2.029  0.4220  0.3849 -0.0391
 5066TIP3    H115204   0.844   5.041   2.043  0.2488  0.9081  1.0982
 5066TIP3    H215205   0.893   5.184   2.042  1.2240  0.5847  0.4623
 5067TIP3   OH215206   0.165   4.209   4.226  0.1964 -0.3525 -0.0188
 5067TIP3    H115207   0.081   4.241   4.260  1.0130  0.2880  1.5349
 5067TIP3    H215208   0.145   4.121   4.192 -1.3453  0.3083 -0.9362
 5068TIP3   OH215209   5.097   3.964   0.506  0.3619 -0.8588 -0.2351
 5068TIP3    H115210   5.184   3.925   0.509 -0.0293 -1.9237 -1.5936
 5068TIP3    H215211   5.111   4.051   0.470  0.8738 -1.0085 -0.4073
 5069TIP3   OH215212   5.163   2.608   0.244  0.5796 -0.1386  0.2724
 5069TIP3    H115213   5.243   2.576   0.202 -1.4606 -2.7742 -1.9954
 5069TIP3    H215214   5.107   2.634   0.171 -0.9113  1.0350  1.7523
 5070TIP3   OH215215   0.433   4.194   4.686  0.3153  0.1941 -0.2965
 5070TIP3    H115216   0.346   4.162   4.663 -0.2572  1.3782  0.1219
 5070TIP3    H215217   0.445   4.169   4.777  1.4674 -2.1183 -0.9992
 5071TIP3   OH215218   3.818   2.035   1.905 -0.0927 -0.3850  0.2543
 5071TIP3    H115219   3.736   1.992   1.928 -0.9024 -0.4635 -2.4848
 5071TIP3    H215220   3.806   2.126   1.931 -0.1548 -0.8129  1.8417
 5072TIP3   OH215221   3.161   5.882   2.103  0.6073 -0.8531  0.0876
 5072TIP3    H115222   3.076   5.858   2.065  0.3893 -0.0807  0.0717
 5072TIP3    H215223   3.224   5.862   2.034  0.2276  0.4287 -0.6605
 5073TIP3   OH215224   5.176   2.658   3.210 -0.5929 -0.1303  0.5071
 5073TIP3    H115225   5.220   2.740   3.189  0.1277 -0.3539  1.1029
 5073TIP3    H215226   5.094   2.662   3.160  0.2404  0.1304 -0.8941
 5074TIP3   OH215227   0.361   3.142   2.744 -0.1256 -0.0578 -0.1884
 5074TIP3    H115228   0.449   3.111   2.724 -0.4089 -0.2306 -1.2179
 5074TIP3    H215229   0.319   3.153   2.659 -1.6751 -1.6707  0.3078
 5075TIP3   OH215230   1.783   3.890   0.288 -0.1301  0.2607  0.5230
 5075TIP3    H115231   1.811   3.825   0.224  0.0200 -0.1690  1.0201
 5075TIP3    H215232   1.826   3.971   0.260  0.5746 -0.1049  0.5429
 5076TIP3   OH215233   0.977   3.325   2.090  0.5381 -0.3329 -0.2418
 5076TIP3    H115234   1.038   3.294   2.024  0.5205  1.5268 -1.2139
 5076TIP3    H215235   0.986   3.420   2.088  0.1536 -0.1861  2.0998
 5077TIP3   OH215236   1.047   0.572   3.311  0.9624 -0.0217 -0.7225
 5077TIP3    H115237   1.093   0.524   3.380  0.9231  2.3601  1.0792
 5077TIP3    H215238   0.958   0.537   3.314  1.4071 -1.2145 -0.8442
 5078TIP3   OH215239   0.181   4.898   4.195 -0.1759  0.4959  0.0145
 5078TIP3    H115240   0.258   4.841   4.190 -1.0634 -0.7858  0.3207
 5078TIP3    H215241   0.202   4.962   4.262 -0.0569 -0.9748  1.4454
 5079TIP3   OH215242   1.131   5.234   0.599  0.8629 -0.1901 -0.2841
 5079TIP3    H115243   1.200   5.288   0.639  1.1743 -1.4637  0.9575
 5079TIP3    H215244   1.104   5.174   0.668 -1.1042 -0.1115 -0.9372
 5080TIP3   OH215245   6.024   4.151   0.944 -0.1481 -0.4831 -0.0071
 5080TIP3    H115246   6.073   4.173   1.023 -0.3748 -0.8010  0.2200
 5080TIP3    H215247   5.956   4.090   0.973 -0.8619  0.1699 -0.2683
 5081TIP3   OH215248   5.582   2.778   2.926  0.4011  0.3792 -0.2280
 5081TIP3    H115249   5.589   2.817   3.013 -2.9288  0.2564  0.2052
 5081TIP3    H215250   5.528   2.839   2.876  0.9849 -0.3081 -1.7635
 5082TIP3   OH215251   4.215   0.492   0.743  0.6348 -0.0334  0.1523
 5082TIP3    H115252   4.301   0.519   0.776  1.7323 -2.9714  0.0568
 5082TIP3    H215253   4.183   0.430   0.809 -1.5155  1.0931  0.2448
 5083TIP3   OH215254   4.073   2.532   4.249 -0.0943  0.9850 -0.3820
 5083TIP3    H115255   4.144   2.547   4.186  0.5192  1.2525  0.3681
 5083TIP3    H215256   4.036   2.447   4.223 -0.5321  1.5588 -1.7406
 5084TIP3   OH215257   5.053   5.719   0.503 -0.9010  0.0860  0.3691
 5084TIP3    H115258   5.069   5.639   0.453 -1.3089 -0.0708  0.4850
 5084TIP3    H215259   5.060   5.790   0.438 -0.1318 -0.0027  0.3451
 5085TIP3   OH215260   4.294   1.397   0.932 -0.1219 -0.3676  0.5355
 5085TIP3    H115261   4.355   1.342   0.883  0.3922  0.9626 -0.4043
 5085TIP3    H215262   4.317   1.383   1.024  4.9796  3.3924  0.2926
 5086TIP3   OH215263   2.858   3.784   2.344  0.5216  0.2262  0.0304
 5086TIP3    H115264   2.805   3.817   2.417  0.0866  0.1728 -0.2558
 5086TIP3    H215265   2.806   3.713   2.307  0.9081  0.0096 -0.1044
 5087TIP3   OH215266   5.862   3.380   4.797 -0.3064 -0.2301 -0.0760
 5087TIP3    H115267   5.791   3.412   4.741  1.4036  2.3543 -0.9187
 5087TIP3    H215268   5.856   3.284   4.790 -2.4697 -0.0498 -1.6506
 5088TIP3   OH215269   2.825   4.635   0.160 -0.4666  0.9520  0.2577
 5088TIP3    H115270   2.793   4.669   0.244 -1.8571 -0.4179  0.3227
 5088TIP3    H215271   2.882   4.705   0.126 -0.9526  2.0979  1.6948
 5089TIP3   OH215272   0.152   4.975   3.544  0.2650  0.0050  0.0035
 5089TIP3    H115273   0.121   5.061   3.517  2.2096 -0.0541 -2.8958
 5089TIP3    H215274   0.155   4.924   3.463 -0.0379 -2.5698  1.5004
 5090TIP3   OH215275   5.161   1.982   3.944 -0.2949 -0.7411 -0.4271
 5090TIP3    H115276   5.240   2.018   3.904 -1.1282  0.8441 -0.7370
 5090TIP3    H215277   5.192   1.910   3.998  1.2898 -0.5014 -0.9687
 5091TIP3   OH215278   0.568   2.593   4.348  0.4595 -0.1789  0.3919
 5091TIP3    H115279   0.632   2.622   4.283 -0.4286  0.3672 -0.2540
 5091TIP3    H215280   0.594   2.504   4.369  0.8748 -0.2919 -0.5692
 5092TIP3   OH215281   2.400   5.468   4.187 -0.2862  0.9600 -0.2566
 5092TIP3    H115282   2.310   5.438   4.178 -0.4138  1.8541 -2.5146
 5092TIP3    H215283   2.395   5.540   4.251 -1.1735  1.0419 -0.4077
 5093TIP3   OH215284   0.964   4.796   3.635 -0.0303 -0.0927 -0.5605
 5093TIP3    H115285   0.900   4.866   3.628 -0.6692 -0.7892 -2.3761
 5093TIP3    H215286   1.023   4.809   3.561 -0.0821 -1.3543 -0.8586
 5094TIP3   OH215287   1.426   2.937   0.290 -0.4484  0.5139  0.1794
 5094TIP3    H115288   1.366   2.997   0.334  0.2452 -0.3052  2.3524
 5094TIP3    H215289   1.389   2.850   0.307  0.9909  0.0407  1.0270
 5095TIP3   OH215290   4.014   0.027   2.087  0.4352  0.2016 -0.1393
 5095TIP3    H115291   4.065   0.106   2.106  0.3535  0.6456 -1.6732
 5095TIP3    H215292   3.927   0.045   2.122  0.3536  0.9014 -0.6852
 5096TIP3   OH215293   4.387   5.398   5.191  0.0775 -0.1215 -0.2873
 5096TIP3    H115294   4.318   5.360   5.137 -2.0271  1.7137  0.8893
 5096TIP3    H215295   4.411   5.479   5.146  1.0815 -0.4750 -0.4014
 5097TIP3   OH215296   4.836   4.648   1.132  0.5849 -0.4298 -0.1130
 5097TIP3    H115297   4.760   4.611   1.086 -0.9793  2.0045  0.2918
 5097TIP3    H215298   4.832   4.742   1.111  1.6252  0.2586  2.4460
 5098TIP3   OH215299   3.294   2.779   3.797 -0.4055  0.1822 -0.3551
 5098TIP3    H115300   3.329   2.714   3.737 -1.6152 -1.6410  0.7928
 5098TIP3    H215301   3.246   2.728   3.862 -2.1890  2.2889  0.1170
 5099TIP3   OH215302   4.388   0.482   3.077  0.2185  0.6109  0.2108
 5099TIP3    H115303   4.351   0.528   3.152  0.4550 -0.3792  0.9550
 5099TIP3    H215304   4.462   0.536   3.050  0.9247  0.3343  1.5108
 5100TIP3   OH215305   2.691   1.090   4.300  0.1487 -0.5212  0.7352
 5100TIP3    H115306   2.701   0.996   4.284  1.0934 -0.6636  2.0630
 5100TIP3    H215307   2.694   1.100   4.395 -1.9490  0.6588  0.7537
 5101TIP3   OH215308   0.135   0.092   1.911  0.1430 -0.9044  0.0143
 5101TIP3    H115309   0.170   0.181   1.917  3.6699 -2.0859 -0.7908
 5101TIP3    H215310   0.148   0.055   1.998  0.5679 -1.2362 -0.1861
 5102TIP3   OH215311   1.062   3.248   4.361  0.8484  0.5694  0.2070
 5102TIP3    H115312   1.131   3.309   4.336 -0.6884  2.0455 -0.6805
 5102TIP3    H215313   1.012   3.295   4.428  0.9446 -0.6309  1.1377
 5103TIP3   OH215314   4.895   2.453   0.513 -0.3838 -0.7380 -0.2961
 5103TIP3    H115315   4.851   2.426   0.433 -0.6146  1.7279 -1.1017
 5103TIP3    H215316   4.824   2.477   0.573 -0.1983 -2.0313  0.4755
 5104TIP3   OH215317   4.269   5.269   4.773  0.0496  0.1278 -0.4998
 5104TIP3    H115318   4.234   5.264   4.684  0.3682  0.9531 -0.6781
 5104TIP3    H215319   4.278   5.363   4.790  1.8827 -0.0370 -0.3655
 5105TIP3   OH215320   4.664   3.627   4.689  0.1122  0.2921 -0.3250
 5105TIP3    H115321   4.575   3.643   4.656  0.4041  0.8558 -0.8472
 5105TIP3    H215322   4.682   3.701   4.747 -0.1384 -0.3468  0.5937
 5106TIP3   OH215323   0.618   0.982   2.866 -0.2069  0.3638  0.4154
 5106TIP3    H115324   0.608   1.073   2.895  0.6557  0.3940  0.6441
 5106TIP3    H215325   0.712   0.972   2.851 -0.3695 -0.3059 -0.2358
 5107TIP3   OH215326   2.914   3.533   2.706 -0.0889  0.7954  0.3070
 5107TIP3    H115327   2.839   3.588   2.728 -0.1961  0.7943 -0.0450
 5107TIP3    H215328   2.935   3.556   2.615 -0.5367 -0.1932 -0.0620
 5108TIP3   OH215329   5.278   2.312   4.167 -0.2226  0.2819  0.0232
 5108TIP3    H115330   5.238   2.299   4.082 -2.0429 -2.0806  1.1077
 5108TIP3    H215331   5.320   2.228   4.187  0.6720  0.9757  1.2058
 5109TIP3   OH215332   0.514   5.957   2.303 -0.2011 -0.0865  0.1143
 5109TIP3    H115333   0.603   5.982   2.327  0.2109 -1.2355 -0.1467
 5109TIP3    H215334   0.503   5.870   2.341 -1.4969  0.3479  0.8038
 5110TIP3   OH215335   0.241   4.992   1.178  0.2104  0.6706  0.5985
 5110TIP3    H115336   0.239   5.087   1.162 -0.4058  0.6562  0.5691
 5110TIP3    H215337   0.286   4.983   1.262 -0.6243  1.0704  1.1028
 5111TIP3   OH215338   4.792   0.127   2.646  0.3000  0.3194  0.4819
 5111TIP3    H115339   4.791   0.050   2.702  0.8992 -0.0990 -0.0631
 5111TIP3    H215340   4.859   0.108   2.580  0.2525  1.1832  0.1680
 5112TIP3   OH215341   0.830   2.134   4.034  0.6090 -0.2811  0.2760
 5112TIP3    H115342   0.768   2.170   4.097 -0.7671  0.8237 -1.5802
 5112TIP3    H215343   0.889   2.207   4.014  1.4455 -0.8161  0.7385
 5113TIP3   OH215344   3.402   3.438   0.826  1.0193  0.1825 -0.2429
 5113TIP3    H115345   3.363   3.457   0.741 -1.2977  0.9964  0.9191
 5113TIP3    H215346   3.496   3.438   0.810  0.6832  1.2857 -2.6056
 5114TIP3   OH215347   2.930   2.972   1.826 -0.2793  0.1501 -0.1474
 5114TIP3    H115348   2.972   2.915   1.890 -0.9709  0.5626  0.6965
 5114TIP3    H215349   2.864   2.917   1.783 -0.5387  0.1450  0.2500
 5115TIP3   OH215350   0.768   1.054   0.170  0.0240 -0.3804  0.3813
 5115TIP3    H115351   0.745   1.015   0.085 -0.7670  1.0548 -0.0963
 5115TIP3    H215352   0.811   1.137   0.148 -0.2809  0.0547  1.3752
 5116TIP3   OH215353   1.775   2.918   2.689  0.0357  0.0208  0.0257
 5116TIP3    H115354   1.826   2.865   2.750 -0.6007 -2.2194 -1.2590
 5116TIP3    H215355   1.799   3.008   2.709  0.3592 -0.6308  3.0817
 5117TIP3   OH215356   5.044   4.179   1.227  0.0288 -0.8352 -0.0892
 5117TIP3    H115357   5.047   4.267   1.190 -2.3495 -1.6071 -2.3883
 5117TIP3    H215358   5.131   4.167   1.267  1.5133  1.4186 -2.3475
 5118TIP3   OH215359   6.146   0.436   4.844  0.6114  0.4898  0.3287
 5118TIP3    H115360   6.055   0.451   4.872  0.4399  1.1864 -0.5270
 5118TIP3    H215361   6.174   0.521   4.809  0.3340 -0.5517 -2.7899
 5119TIP3   OH215362   2.166   2.688   2.897  0.1412  0.4066  0.3485
 5119TIP3    H115363   2.104   2.664   2.828 -0.3924  0.6204  0.7470
 5119TIP3    H215364   2.170   2.611   2.954  0.3692  0.3314  0.2307
 5120TIP3   OH215365   3.161   4.845   2.446  0.5781 -0.6562  0.2147
 5120TIP3    H115366   3.213   4.926   2.442 -0.2346 -0.1386 -0.1455
 5120TIP3    H215367   3.210   4.789   2.506  2.2196 -0.6829 -1.0740
 5121TIP3   OH215368   0.048   3.784   2.796  0.1919 -0.1799  0.0618
 5121TIP3    H115369   0.123   3.739   2.835  1.3232  1.1833 -0.4551
 5121TIP3    H215370   0.081   3.818   2.713 -1.6601 -1.4416 -1.2692
 5122TIP3   OH215371   0.868   2.139   1.235  0.0334 -0.1333 -0.5151
 5122TIP3    H115372   0.954   2.169   1.266 -0.0506 -0.5847  0.1989
 5122TIP3    H215373   0.806   2.177   1.298 -0.3895  0.9763 -1.5779
 5123TIP3   OH215374   0.578   3.161   4.617 -0.4664 -0.2833 -0.4655
 5123TIP3    H115375   0.484   3.149   4.610 -0.3148 -2.8210  0.8137
 5123TIP3    H215376   0.598   3.143   4.709  1.1389  1.6872 -0.3416
 5124TIP3   OH215377   2.081   1.544   0.346 -0.0231 -0.4169  0.0907
 5124TIP3    H115378   2.072   1.497   0.429 -3.0459 -0.3363 -0.1123
 5124TIP3    H215379   2.086   1.475   0.280  1.6508 -0.4618  0.2047
 5125TIP3   OH215380   0.616   4.699   1.628  0.7234 -0.4241  0.3933
 5125TIP3    H115381   0.687   4.744   1.584 -0.6261  0.4371 -1.0288
 5125TIP3    H215382   0.570   4.767   1.677  0.0711 -0.6892  0.1658
 5126TIP3   OH215383   4.707   0.913   1.415 -0.1913  0.3147  0.7605
 5126TIP3    H115384   4.622   0.956   1.422 -1.2675 -1.6632  0.7490
 5126TIP3    H215385   4.686   0.822   1.391  1.9931  0.0566 -0.4681
 5127TIP3   OH215386   4.464   2.743   0.254  0.0738 -0.0320 -0.2577
 5127TIP3    H115387   4.548   2.743   0.209  0.1636 -0.0630 -0.0881
 5127TIP3    H215388   4.448   2.835   0.276  0.6334 -0.1780  0.7832
 5128TIP3   OH215389   2.279   0.837   0.972 -0.0053 -0.0752 -0.5304
 5128TIP3    H115390   2.349   0.772   0.962 -0.1810 -0.1007 -1.7241
 5128TIP3    H215391   2.245   0.849   0.884 -1.8653 -0.4472  0.0936
 5129TIP3   OH215392   0.702   1.377   4.387  0.5641 -0.7671 -0.3750
 5129TIP3    H115393   0.689   1.408   4.297 -0.9064 -0.1245  0.0241
 5129TIP3    H215394   0.795   1.388   4.403  0.5226  1.0238 -1.1498
 5130TIP3   OH215395   1.027   5.427   3.784 -0.0009  0.4231  0.0288
 5130TIP3    H115396   1.101   5.464   3.832 -2.0219  0.8031  3.1943
 5130TIP3    H215397   0.986   5.503   3.741  0.2103  0.5774  0.0997
 5131TIP3   OH215398   0.860   5.818   1.327  0.0210 -0.0471 -0.2644
 5131TIP3    H115399   0.934   5.860   1.371 -0.8204  1.9721 -0.6934
 5131TIP3    H215400   0.901   5.756   1.266  1.2319 -2.0540  2.3807
 5132TIP3   OH215401   0.607   5.050   1.289 -0.2252  0.1943 -0.3178
 5132TIP3    H115402   0.663   5.030   1.364 -0.0617  2.2221  0.1570
 5132TIP3    H215403   0.518   5.051   1.325 -0.3243 -0.5359 -0.5326
 5133TIP3   OH215404   3.059   4.610   2.800 -0.0591  0.0876  0.1966
 5133TIP3    H115405   3.110   4.570   2.871  1.7992 -1.6377 -1.9587
 5133TIP3    H215406   2.978   4.639   2.842  0.0997 -2.5902  2.6639
 5134TIP3   OH215407   0.136   0.523   3.620 -0.0411 -0.1213 -0.2190
 5134TIP3    H115408   0.041   0.539   3.623  0.0677  0.4289  0.8346
 5134TIP3    H215409   0.169   0.564   3.700  1.1780  0.2510 -0.8972
 5135TIP3   OH215410   3.355   0.628   4.839 -0.2912  0.1986  0.1746
 5135TIP3    H115411   3.358   0.674   4.755 -0.9996  2.0744  1.1064
 5135TIP3    H215412   3.288   0.675   4.889 -0.2098 -1.1652  1.6253
 5136TIP3   OH215413   3.398   3.185   2.429 -0.2424  0.1495 -0.1874
 5136TIP3    H115414   3.396   3.262   2.486  0.7627 -0.3995  0.6151
 5136TIP3    H215415   3.482   3.190   2.385  0.2452 -0.9653  0.5744
 5137TIP3   OH215416   4.243   2.983   1.474  0.1361  0.3845  0.2140
 5137TIP3    H115417   4.203   3.002   1.559  0.9626  0.1698  0.6608
 5137TIP3    H215418   4.272   3.068   1.441 -0.3915  0.4989  0.0324
 5138TIP3   OH215419   3.692   0.903   4.743  0.1171 -0.1714 -0.1895
 5138TIP3    H115420   3.618   0.845   4.723 -1.7120  2.2687 -1.0728
 5138TIP3    H215421   3.717   0.940   4.659 -0.4014  2.0512  0.5583
 5139TIP3   OH215422   6.023   0.194   0.370  0.2984  0.0214  0.1590
 5139TIP3    H115423   5.993   0.218   0.458 -0.6134  0.7839 -0.3333
 5139TIP3    H215424   6.102   0.142   0.385 -0.3626 -0.6712  1.4624
 5140TIP3   OH215425   4.169   2.565   0.767 -0.2319  0.4269 -0.2986
 5140TIP3    H115426   4.093   2.572   0.710  0.0092 -1.5805 -0.9454
 5140TIP3    H215427   4.132   2.558   0.855 -0.6305  2.6130 -0.2295
 5141TIP3   OH215428   1.657   5.988   2.201 -0.2388  1.0840 -0.8657
 5141TIP3    H115429   1.612   6.040   2.267  0.8903 -2.0455  2.6893
 5141TIP3    H215430   1.604   5.910   2.191  2.7967 -1.5529  1.5612
 5142TIP3   OH215431   0.340   1.878   0.528  0.2871  0.2042 -0.3924
 5142TIP3    H115432   0.417   1.917   0.569  0.7709 -2.3679  1.3684
 5142TIP3    H215433   0.270   1.889   0.593  0.0617 -0.5138 -0.5054
 5143TIP3   OH215434   2.613   2.221   0.287  0.3656  0.1382  0.0782
 5143TIP3    H115435   2.604   2.316   0.296  1.1359  0.1964  0.3402
 5143TIP3    H215436   2.681   2.197   0.351  1.0941 -0.4018 -0.8651
 5144TIP3   OH215437   1.088   2.664   1.775  0.5939 -0.4248 -0.0729
 5144TIP3    H115438   1.141   2.695   1.849 -1.1899 -0.8381  1.4655
 5144TIP3    H215439   1.017   2.727   1.768  1.1135  0.0127 -1.9718
 5145TIP3   OH215440   1.236   0.088   1.142  0.1843 -0.1896 -0.3562
 5145TIP3    H115441   1.254   0.033   1.217  0.3348  3.1974  2.3617
 5145TIP3    H215442   1.144   0.114   1.152  0.6449  1.5819 -0.3403
 5146TIP3   OH215443   4.375   4.337   2.921  0.0265  0.1413 -0.3159
 5146TIP3    H115444   4.423   4.384   2.853 -0.7281  0.7029 -0.4714
 5146TIP3    H215445   4.438   4.325   2.992  0.6696  0.0150 -0.9009
 5147TIP3   OH215446   6.219   2.370   1.652 -0.4369  0.5725 -0.1348
 5147TIP3    H115447   6.193   2.386   1.561  0.5333  0.3512 -0.4659
 5147TIP3    H215448   6.175   2.288   1.675 -0.1796  0.2957 -0.6200
 5148TIP3   OH215449   0.069   2.455   1.219 -0.2799 -0.2138 -0.3650
 5148TIP3    H115450   0.001   2.397   1.184  1.1005 -1.0319 -1.7643
 5148TIP3    H215451   0.113   2.403   1.286 -1.9814  0.8683  1.7796
 5149TIP3   OH215452   1.017   4.134   2.907 -0.1669  0.0159 -0.1444
 5149TIP3    H115453   0.999   4.219   2.866 -0.8371  0.3752  0.8684
 5149TIP3    H215454   1.057   4.156   2.991  2.1782 -0.7289 -0.9708
 5150TIP3   OH215455   5.270   3.326   4.730  1.5279 -0.5949  0.1504
 5150TIP3    H115456   5.238   3.237   4.748  2.0170 -0.6434  0.8307
 5150TIP3    H215457   5.257   3.373   4.812  0.2946  0.2787 -0.5154
 5151TIP3   OH215458   5.804   2.079   0.032  0.0666 -0.1404 -0.1178
 5151TIP3    H115459   5.799   2.173   0.015 -1.9856 -0.6082 -2.8252
 5151TIP3    H215460   5.746   2.065   0.107 -0.0162  0.6959 -0.0194
 5152TIP3   OH215461   5.280   1.836   3.632 -0.2792  0.0850 -0.2936
 5152TIP3    H115462   5.327   1.810   3.552 -0.4604  1.6774 -0.9557
 5152TIP3    H215463   5.209   1.891   3.601 -0.3938  0.6845  0.9693
 5153TIP3   OH215464   1.867   2.071   4.123 -0.5113  0.1844 -0.2007
 5153TIP3    H115465   1.915   2.108   4.197 -0.2779  2.1195 -1.2660
 5153TIP3    H215466   1.934   2.037   4.064 -0.7341 -2.9057  1.1316
 5154TIP3   OH215467   3.900   3.503   3.102  0.1216  1.1805 -0.2014
 5154TIP3    H115468   3.915   3.569   3.170  1.0082  1.0681 -0.2665
 5154TIP3    H215469   3.811   3.472   3.117 -0.4908  2.7564 -0.5022
 5155TIP3   OH215470   3.987   2.411   5.188 -0.1069  0.1490 -0.0100
 5155TIP3    H115471   3.985   2.322   5.153  0.2031  0.8911 -2.0272
 5155TIP3    H215472   4.065   2.451   5.148 -0.9102  1.6883 -0.1032
 5156TIP3   OH215473   2.239   1.252   1.310 -0.2539  0.2211 -0.1868
 5156TIP3    H115474   2.265   1.191   1.379 -1.1895 -0.1150 -0.1133
 5156TIP3    H215475   2.214   1.196   1.237 -1.3806  0.4879 -0.0275
 5157TIP3   OH215476   3.870   2.510   0.849 -0.6843  0.3077 -0.2138
 5157TIP3    H115477   3.844   2.562   0.773 -1.1431 -2.0079 -1.7256
 5157TIP3    H215478   3.836   2.423   0.831  1.7995 -1.0593  1.2583
 5158TIP3   OH215479   6.227   0.454   3.786  0.0229 -0.3728 -0.0953
 5158TIP3    H115480   6.258   0.504   3.861 -2.9192 -1.0826  1.7296
 5158TIP3    H215481   6.183   0.520   3.731 -0.4924 -0.3128  0.3761
 5159TIP3   OH215482   0.494   5.620   1.182 -0.8479  0.4049 -0.0409
 5159TIP3    H115483   0.457   5.666   1.106 -1.0382 -0.2540 -0.3558
 5159TIP3    H215484   0.439   5.542   1.191  1.2890 -1.3493 -1.3700
 5160TIP3   OH215485   1.487   5.901   1.111 -0.5205  0.0540  0.0673
 5160TIP3    H115486   1.522   5.844   1.180  0.3136 -0.7243 -0.9593
 5160TIP3    H215487   1.396   5.917   1.137 -0.8817 -1.9973  0.2675
 5161TIP3   OH215488   2.750   4.364   3.033 -0.6627 -0.1711  0.2310
 5161TIP3    H115489   2.786   4.328   3.114 -0.1055  0.4595  0.2714
 5161TIP3    H215490   2.769   4.298   2.967 -0.1283 -0.1965  0.4076
 5162TIP3   OH215491   3.982   4.772   4.635  0.0906  0.0469  0.4080
 5162TIP3    H115492   4.064   4.728   4.614 -0.0031  0.4664 -0.9208
 5162TIP3    H215493   3.931   4.767   4.554 -0.8576  0.5426  0.9595
 5163TIP3   OH215494   3.141   4.504   3.925  0.3235  0.2408 -0.0483
 5163TIP3    H115495   3.114   4.566   3.857 -0.1970 -0.8439 -0.8741
 5163TIP3    H215496   3.193   4.439   3.878 -3.4338 -2.8836 -0.3736
 5164TIP3   OH215497   3.342   1.967   4.018  0.5173  0.2516 -0.5710
 5164TIP3    H115498   3.333   2.008   4.104  0.3460  0.0401 -0.4870
 5164TIP3    H215499   3.268   2.001   3.967 -0.5308 -1.0963 -0.0352
 5165TIP3   OH215500   4.179   5.540   3.839 -0.4664 -0.3122  0.5572
 5165TIP3    H115501   4.130   5.530   3.758 -0.6498 -0.8453  0.7239
 5165TIP3    H215502   4.255   5.483   3.829  0.9893  1.6751 -0.3244
 5166TIP3   OH215503   5.013   2.543   0.913 -0.6394 -0.2299 -0.1075
 5166TIP3    H115504   4.927   2.583   0.898 -0.4496  0.4128  0.4702
 5166TIP3    H215505   4.993   2.465   0.966 -1.0389 -1.1091 -1.4935
 5167TIP3   OH215506   5.280   5.973   4.379  0.3871  0.3940 -0.1360
 5167TIP3    H115507   5.366   6.001   4.412  1.4837  0.1293 -2.5971
 5167TIP3    H215508   5.257   5.898   4.435  1.7969  0.4003  0.5061
 5168TIP3   OH215509   0.714   0.887   3.938 -0.1071 -0.4131 -0.5480
 5168TIP3    H115510   0.716   0.967   3.885  1.7281 -0.6089 -0.8430
 5168TIP3    H215511   0.645   0.834   3.898 -0.0248  0.2247 -1.5804
 5169TIP3   OH215512   2.019   3.237   3.168  0.6365 -0.0117 -0.1090
 5169TIP3    H115513   1.976   3.164   3.211  1.2212  0.3909  1.2390
 5169TIP3    H215514   2.019   3.215   3.075 -0.0995 -1.2311  0.1656
 5170TIP3   OH215515   0.283   3.436   2.561 -0.5873 -0.2783 -0.0805
 5170TIP3    H115516   0.369   3.409   2.594 -0.1954  0.0205 -0.8521
 5170TIP3    H215517   0.301   3.506   2.498 -1.3652 -0.4457 -0.5071
 5171TIP3   OH215518   5.742   5.071   3.038 -0.1037  0.5148 -0.0677
 5171TIP3    H115519   5.794   5.127   3.096 -0.0632 -0.4949  0.9045
 5171TIP3    H215520   5.741   4.986   3.082 -3.5512  0.7632  0.5530
 5172TIP3   OH215521   4.709   4.425   0.958 -0.1603  0.2239  0.3712
 5172TIP3    H115522   4.748   4.344   0.991 -0.1202  0.0163 -0.1752
 5172TIP3    H215523   4.639   4.396   0.900  0.4918  0.5612 -0.6133
 5173TIP3   OH215524   3.059   0.672   2.085 -0.2000 -0.7994  1.1082
 5173TIP3    H115525   3.112   0.675   2.165  0.7172 -0.3077  0.4966
 5173TIP3    H215526   3.055   0.763   2.056  1.6013 -1.2297 -0.7611
 5174TIP3   OH215527   2.175   0.797   1.538 -0.1698 -0.0048  0.2093
 5174TIP3    H115528   2.212   0.802   1.450  0.7559 -0.3076  0.5707
 5174TIP3    H215529   2.247   0.824   1.596 -1.1535  1.5073  0.8009
 5175TIP3   OH215530   1.081   5.312   1.141 -0.0992 -0.2101  0.2336
 5175TIP3    H115531   1.128   5.283   1.219 -0.7141  3.2482  2.0856
 5175TIP3    H215532   1.010   5.248   1.130  0.5007 -1.2366  1.9673
 5176TIP3   OH215533   4.548   2.553   4.200 -0.1388 -0.4422  0.2369
 5176TIP3    H115534   4.543   2.559   4.105  0.9180 -1.7091  0.0746
 5176TIP3    H215535   4.537   2.644   4.231 -0.2727  0.0083 -1.0893
 5177TIP3   OH215536   0.202   0.628   2.368 -0.3102  0.1007 -0.5878
 5177TIP3    H115537   0.292   0.597   2.380  0.0430  1.3724  0.2887
 5177TIP3    H215538   0.156   0.601   2.447 -0.0223  1.6143  0.1455
 5178TIP3   OH215539   2.197   0.262   3.282 -0.0437  0.2343  0.2031
 5178TIP3    H115540   2.108   0.296   3.284 -0.4257 -0.7154  1.3779
 5178TIP3    H215541   2.206   0.221   3.196 -1.7305 -1.9821  0.9711
 5179TIP3   OH215542   5.792   3.721   1.293 -0.1513 -0.2838  0.4730
 5179TIP3    H115543   5.762   3.640   1.334 -1.3632 -0.2187 -0.2223
 5179TIP3    H215544   5.717   3.750   1.240 -0.2400  1.9700  1.6967
 5180TIP3   OH215545   1.585   3.590   2.458  0.1422  0.3866  0.0080
 5180TIP3    H115546   1.494   3.614   2.470 -0.0871 -0.6289  0.3649
 5180TIP3    H215547   1.634   3.651   2.513 -0.4455 -0.1191  1.1211
 5181TIP3   OH215548   6.081   2.450   3.996  0.5353  0.1379 -0.2261
 5181TIP3    H115549   6.042   2.417   4.077  0.7872  1.4543  0.4570
 5181TIP3    H215550   6.109   2.539   4.017 -2.5828  1.9285 -2.7321
 5182TIP3   OH215551   4.112   5.253   1.424 -0.0974  0.3304  0.1351
 5182TIP3    H115552   4.103   5.322   1.490  0.6013 -0.5541  1.1853
 5182TIP3    H215553   4.022   5.222   1.410 -0.0414 -1.0706  2.4633
 5183TIP3   OH215554   3.508   3.719   2.551  0.3144 -0.0517 -0.0597
 5183TIP3    H115555   3.434   3.775   2.575 -0.8637 -0.9220 -1.4808
 5183TIP3    H215556   3.570   3.729   2.623 -0.4137  2.0415  0.3540
 5184TIP3   OH215557   2.607   0.231   0.444  0.4999  0.3335 -0.0232
 5184TIP3    H115558   2.613   0.256   0.352  1.4128  0.1204 -0.0314
 5184TIP3    H215559   2.513   0.222   0.461  0.3722 -1.9887 -1.5837
 5185TIP3   OH215560   0.546   0.692   1.733  0.2100 -0.2667 -0.7450
 5185TIP3    H115561   0.493   0.764   1.766  0.9443 -0.3218  0.6172
 5185TIP3    H215562   0.491   0.649   1.667 -2.0240 -1.1789  1.5468
 5186TIP3   OH215563   0.896   3.852   2.315 -0.2282  0.6742  0.9240
 5186TIP3    H115564   0.848   3.833   2.396  0.7407 -1.6158  1.0215
 5186TIP3    H215565   0.829   3.844   2.246 -0.5733  0.3657  1.2892
 5187TIP3   OH215566   0.406   2.620   1.423 -0.8589  0.0225  0.1387
 5187TIP3    H115567   0.433   2.582   1.339 -0.7575 -1.5565  0.8595
 5187TIP3    H215568   0.314   2.597   1.431 -0.3228 -1.8527  1.4817
 5188TIP3   OH215569   1.368   1.794   2.836 -0.8254  0.4472  0.3640
 5188TIP3    H115570   1.363   1.706   2.874  0.0222  0.7878  1.3148
 5188TIP3    H215571   1.306   1.846   2.888 -1.5339  0.3551 -0.3789
 5189TIP3   OH215572   4.930   5.846   2.888  0.6077  0.2153  0.2188
 5189TIP3    H115573   5.021   5.856   2.918  0.8687  0.4814 -0.6405
 5189TIP3    H215574   4.936   5.785   2.815  0.3259  1.5266 -0.9261
 5190TIP3   OH215575   0.742   0.852   2.137 -0.1186  0.2370  0.3499
 5190TIP3    H115576   0.658   0.820   2.169  0.3516 -0.3908  0.9668
 5190TIP3    H215577   0.755   0.936   2.182 -1.2684  1.2838 -1.1411
 5191TIP3   OH215578   4.483   5.495   3.894  0.4271  0.6767  0.3595
 5191TIP3    H115579   4.537   5.573   3.905  0.2652  1.0960 -1.4866
 5191TIP3    H215580   4.532   5.439   3.834 -1.2913  1.2295 -1.6535
 5192TIP3   OH215581   0.605   1.264   2.596 -0.3183  0.1509 -0.1479
 5192TIP3    H115582   0.511   1.266   2.577 -0.3627 -0.3810 -0.0051
 5192TIP3    H215583   0.646   1.284   2.512 -0.5492 -0.4215 -0.4103
 5193TIP3   OH215584   4.743   0.480   1.501 -0.2581  0.3264 -0.1475
 5193TIP3    H115585   4.822   0.530   1.520  0.9990 -0.9152 -1.7761
 5193TIP3    H215586   4.704   0.523   1.425 -0.0904 -0.1739 -0.5207
 5194TIP3   OH215587   1.090   3.104   4.708 -0.0345  0.3851 -0.2314
 5194TIP3    H115588   1.032   3.162   4.757  0.3889 -0.3210  1.1673
 5194TIP3    H215589   1.031   3.055   4.650 -0.6486  0.7543  0.0651
 5195TIP3   OH215590   4.711   4.217   3.467  0.0892 -0.1162  0.4453
 5195TIP3    H115591   4.673   4.129   3.457 -2.8206  0.9220  1.4385
 5195TIP3    H215592   4.798   4.201   3.503  0.6562 -2.6642 -1.7301
 5196TIP3   OH215593   2.200   5.764   4.237 -0.3175  0.2263 -0.7546
 5196TIP3    H115594   2.123   5.726   4.196  1.9978 -2.7963 -2.7113
 5196TIP3    H215595   2.250   5.802   4.165  2.0181 -1.7790 -0.3180
 5197TIP3   OH215596   0.340   5.763   0.593 -0.6903 -0.0069 -0.4880
 5197TIP3    H115597   0.326   5.830   0.659  0.3209  0.1101 -0.3745
 5197TIP3    H215598   0.256   5.716   0.588 -0.5397 -0.5992  1.5263
 5198TIP3   OH215599   4.029   2.457   3.726 -0.3046 -0.3783 -0.5675
 5198TIP3    H115600   4.122   2.436   3.728  0.1112  1.2640  2.1557
 5198TIP3    H215601   4.018   2.512   3.649  1.3454  0.6944 -0.0831
 5199TIP3   OH215602   3.596   0.286   0.979  0.2973 -0.0383 -0.0071
 5199TIP3    H115603   3.661   0.218   0.995  1.6459  1.1285 -0.3544
 5199TIP3    H215604   3.585   0.329   1.064  3.3774  2.6117 -0.7413
 5200TIP3   OH215605   3.827   3.466   4.490  0.1104  0.5171 -0.0459
 5200TIP3    H115606   3.889   3.489   4.422 -1.2120  0.3495 -1.3495
 5200TIP3    H215607   3.747   3.442   4.443 -0.4762 -0.7446  1.5152
 5201TIP3   OH215608   1.319   1.368   4.149  1.0199 -0.1837  0.3080
 5201TIP3    H115609   1.400   1.416   4.132  0.3660  0.3092 -1.6494
 5201TIP3    H215610   1.256   1.436   4.171  0.4594 -0.2759 -0.9740
 5202TIP3   OH215611   0.832   3.385   3.928  0.1927 -0.6524  0.3681
 5202TIP3    H115612   0.885   3.323   3.979 -0.3220 -1.0397  0.4431
 5202TIP3    H215613   0.748   3.388   3.974  0.3582  0.4528  0.6204
 5203TIP3   OH215614   2.155   5.133   1.927 -0.0299  0.2972 -0.5732
 5203TIP3    H115615   2.133   5.074   1.998  0.0230  0.4418 -0.4345
 5203TIP3    H215616   2.231   5.182   1.959 -0.9477  1.4480 -0.1069
 5204TIP3   OH215617   2.922   3.490   4.883 -0.0742  0.8838 -0.4077
 5204TIP3    H115618   2.931   3.581   4.854  0.4951  1.1067  0.4365
 5204TIP3    H215619   2.981   3.483   4.957  1.3073 -0.7059 -1.5972
 5205TIP3   OH215620   2.152   5.351   5.104 -0.3250 -0.1823 -0.5119
 5205TIP3    H115621   2.210   5.420   5.137  0.7184 -0.0289 -2.4819
 5205TIP3    H215622   2.173   5.274   5.157  0.0538  0.4553  0.2890
 5206TIP3   OH215623   1.946   0.943   0.043  0.1426  0.5397  0.3138
 5206TIP3    H115624   1.915   0.886   0.114 -0.5411 -0.1561 -0.5189
 5206TIP3    H215625   1.871   0.952  -0.015  1.0083  0.1555 -0.9145
 5207TIP3   OH215626   1.875   5.870   4.787  0.1074 -0.4579 -0.1517
 5207TIP3    H115627   1.946   5.933   4.794 -0.6995  0.4181  0.3993
 5207TIP3    H215628   1.916   5.785   4.804  1.3854 -0.2139 -1.7817
 5208TIP3   OH215629   1.577   5.117   1.299 -0.1101 -0.3318  0.2991
 5208TIP3    H115630   1.638   5.122   1.372  1.1141 -0.8981 -0.6525
 5208TIP3    H215631   1.614   5.175   1.233 -1.3176  0.3487  0.1855
 5209TIP3   OH215632   1.651   0.776   4.088  0.1462 -0.4086 -0.0584
 5209TIP3    H115633   1.562   0.802   4.062  0.3509  0.0780 -0.2911
 5209TIP3    H215634   1.640   0.692   4.132 -0.2808 -1.0043 -1.2428
 5210TIP3   OH215635   4.700   2.772   4.473 -0.2494  0.4446  0.4729
 5210TIP3    H115636   4.708   2.724   4.391  0.1496  0.1003  0.7084
 5210TIP3    H215637   4.705   2.864   4.447 -2.8855  0.4892 -0.2070
 5211TIP3   OH215638   6.291   4.053   4.823  0.2991 -0.7306 -0.1239
 5211TIP3    H115639   6.206   4.095   4.815  0.6568  0.2378  0.8617
 5211TIP3    H215640   6.336   4.102   4.892  2.5576  0.3602 -2.2103
 5212TIP3   OH215641   2.214   0.101   1.580  0.1936  0.1098 -0.2116
 5212TIP3    H115642   2.302   0.072   1.556  0.2340  0.2199 -0.1962
 5212TIP3    H215643   2.229   0.176   1.638  0.0794  0.4224 -0.5861
 5213TIP3   OH215644   1.746   3.299   4.515 -0.1340 -0.4222  0.1517
 5213TIP3    H115645   1.732   3.290   4.420 -0.4535 -0.3025  0.1852
 5213TIP3    H215646   1.839   3.284   4.527  0.5467  2.5544 -0.5782
 5214TIP3   OH215647   3.492   0.983   3.082  0.1136 -0.2281  0.1054
 5214TIP3    H115648   3.491   0.940   3.167  0.4107  1.6094  1.0950
 5214TIP3    H215649   3.544   1.062   3.096 -0.3152  0.4045 -1.6419
 5215TIP3   OH215650   2.380   4.004   4.604  0.4073 -0.7655 -0.2741
 5215TIP3    H115651   2.329   4.056   4.665  2.6412 -0.6782  1.6578
 5215TIP3    H215652   2.317   3.942   4.565 -1.4646  0.5626  0.5282
 5216TIP3   OH215653   2.489   4.289   1.879  0.1870  0.3284 -0.3869
 5216TIP3    H115654   2.412   4.345   1.881  0.7595  1.1186  0.5684
 5216TIP3    H215655   2.535   4.307   1.962  0.7487 -1.0457 -0.3537
 5217TIP3   OH215656   2.012   5.362   0.344 -0.0540  0.0540 -0.0734
 5217TIP3    H115657   2.024   5.267   0.350  0.3510  0.0603 -0.6781
 5217TIP3    H215658   2.101   5.398   0.339 -0.1618  0.5612  1.2710
 5218TIP3   OH215659   0.909   0.385   4.056  0.1728  0.0547  0.2600
 5218TIP3    H115660   0.852   0.352   3.987  0.2787  1.4249 -0.5141
 5218TIP3    H215661   0.883   0.476   4.067 -0.3324 -0.3081  2.5573
 5219TIP3   OH215662   0.132   0.472   3.301  0.3337  0.0220  1.0726
 5219TIP3    H115663   0.174   0.484   3.386 -0.4065 -0.7792  1.5713
 5219TIP3    H215664   0.189   0.410   3.254  0.4806  0.0818  1.1730
 5220TIP3   OH215665   3.118   1.378   1.935 -0.0458 -0.4595 -0.5639
 5220TIP3    H115666   3.115   1.474   1.946  2.0996 -0.1559 -1.9980
 5220TIP3    H215667   3.164   1.365   1.852  0.8693 -2.7568  0.2259
 5221TIP3   OH215668   5.089   0.963   0.439  0.2344  0.0672  0.2291
 5221TIP3    H115669   5.151   1.009   0.495  1.6009 -1.0557 -0.3284
 5221TIP3    H215670   5.056   0.892   0.493  1.2466 -0.7703 -0.2314
 5222TIP3   OH215671   0.714   1.553   4.129  0.0457  0.1162  0.5093
 5222TIP3    H115672   0.636   1.593   4.167 -1.3876 -0.9027 -1.2041
 5222TIP3    H215673   0.730   1.603   4.049  0.4201 -0.4301  0.2340
 5223TIP3   OH215674   4.695   1.236   1.530  0.0059 -0.4728  0.6273
 5223TIP3    H115675   4.634   1.172   1.567  2.0428 -3.4483 -0.6959
 5223TIP3    H215676   4.721   1.290   1.605 -3.5857  0.5251  1.3541
 5224TIP3   OH215677   3.390   3.732   1.459 -0.6848 -0.0707 -0.0874
 5224TIP3    H115678   3.480   3.699   1.452  0.4616  2.5699  1.0196
 5224TIP3    H215679   3.363   3.710   1.548 -2.0757 -2.7688 -1.0459
 5225TIP3   OH215680   0.960   0.093   1.665  0.2379 -0.6416 -0.5375
 5225TIP3    H115681   0.868   0.108   1.646  0.3406 -0.2630 -0.7312
 5225TIP3    H215682   0.962   0.006   1.706 -0.3948  0.0053  0.9140
 5226TIP3   OH215683   2.760   0.766   4.129 -0.1842 -0.4215  0.1365
 5226TIP3    H115684   2.781   0.826   4.057 -1.3452  0.2310  0.3187
 5226TIP3    H215685   2.714   0.693   4.087 -2.3493  0.7315  0.3485
 5227TIP3   OH215686   3.656   0.294   5.023 -0.4243 -0.1915 -0.8538
 5227TIP3    H115687   3.714   0.243   4.966  0.4411  0.4072 -0.5310
 5227TIP3    H215688   3.615   0.357   4.965  0.2030  0.2003 -0.8793
 5228TIP3   OH215689   1.141  -0.028   4.102  0.1305  0.0531 -0.4657
 5228TIP3    H115690   1.143   0.065   4.124 -0.5022 -0.0116 -0.1149
 5228TIP3    H215691   1.153  -0.030   4.007  0.6751  0.4561 -0.4130
 5229TIP3   OH215692   4.137   0.530   4.535  0.1334 -0.3714 -0.0156
 5229TIP3    H115693   4.229   0.544   4.558  0.3643 -1.1064 -0.4522
 5229TIP3    H215694   4.094   0.510   4.619  0.6915 -1.6139 -0.0099
 5230TIP3   OH215695   1.992   2.922   1.826 -0.2478  0.9052  0.3663
 5230TIP3    H115696   1.944   2.856   1.776 -0.2988  0.7796  0.5769
 5230TIP3    H215697   1.929   2.993   1.838 -1.5178 -0.5368  3.3457
 5231TIP3   OH215698   5.608   3.435   2.079  0.5618  0.1387  0.2558
 5231TIP3    H115699   5.649   3.349   2.075  1.0201  0.3393  0.5554
 5231TIP3    H215700   5.516   3.417   2.097  0.8960 -0.2505  1.6988
 5232TIP3   OH215701   3.241   0.277   1.141  0.4701  0.1203  0.3143
 5232TIP3    H115702   3.161   0.330   1.139  1.5714  1.8223 -0.3579
 5232TIP3    H215703   3.262   0.260   1.049  0.8346 -0.3946  0.4868
 5233TIP3   OH215704   5.996   1.764   1.192  0.3023  0.2011 -0.4582
 5233TIP3    H115705   6.087   1.757   1.221  0.6934  2.6086 -0.9387
 5233TIP3    H215706   5.976   1.677   1.156  2.4744 -0.3123 -0.5612
 5234TIP3   OH215707   5.792   3.576   2.908 -0.0458 -0.1725  0.4778
 5234TIP3    H115708   5.811   3.510   2.841 -0.6375  0.2649 -0.1502
 5234TIP3    H215709   5.715   3.622   2.873 -1.4207 -1.0055  2.2451
 5235TIP3   OH215710   1.274   2.726   0.333 -0.5144 -0.0972 -0.2413
 5235TIP3    H115711   1.194   2.718   0.385 -0.4713 -0.2049 -0.1912
 5235TIP3    H215712   1.277   2.645   0.282  0.3347 -0.7886  0.8416
 5236TIP3   OH215713   2.973   1.079   0.093  0.3568  0.2562  0.9046
 5236TIP3    H115714   2.948   1.037   0.175 -1.1886  1.1160  0.9205
 5236TIP3    H215715   3.057   1.120   0.111  0.1030  0.3061  2.0163
 5237TIP3   OH215716   0.618   5.044   0.908  0.4818 -0.6587  0.4489
 5237TIP3    H115717   0.711   5.038   0.889 -0.1593 -2.5630 -2.8904
 5237TIP3    H215718   0.603   4.975   0.973  1.0997 -2.0253 -0.7907
 5238TIP3   OH215719   2.401   3.756   0.532 -0.0836 -0.4483  0.0432
 5238TIP3    H115720   2.457   3.680   0.514 -0.7661 -0.9195 -0.1462
 5238TIP3    H215721   2.314   3.718   0.546 -0.2657  0.2379  0.7718
 5239TIP3   OH215722   3.515   5.430   4.436  0.1032 -0.1903 -0.4205
 5239TIP3    H115723   3.534   5.512   4.480 -0.2641 -0.2847 -0.0816
 5239TIP3    H215724   3.562   5.436   4.353 -0.7441  0.8076 -0.8613
 5240TIP3   OH215725   4.207   0.646   0.503 -0.0429 -0.4945  0.5865
 5240TIP3    H115726   4.206   0.724   0.558  0.3234  0.1338 -0.2689
 5240TIP3    H215727   4.182   0.575   0.561 -1.8082  0.4608  1.0801
 5241TIP3   OH215728   2.014   5.595   2.884  0.2322 -0.5433 -0.2320
 5241TIP3    H115729   2.012   5.566   2.975 -0.6001  0.1668 -0.0130
 5241TIP3    H215730   2.059   5.680   2.887 -0.7328 -0.0212 -0.3297
 5242TIP3   OH215731   5.549   2.262   0.564  0.2716  0.4560  0.4519
 5242TIP3    H115732   5.494   2.191   0.596  0.5738  0.0554  0.0949
 5242TIP3    H215733   5.529   2.336   0.622 -1.5019  0.6747 -0.3924
 5243TIP3   OH215734   3.487   2.992   0.844 -0.0036  0.6138 -0.0385
 5243TIP3    H115735   3.421   2.981   0.912 -0.3122  0.6044 -0.3393
 5243TIP3    H215736   3.446   3.049   0.779  0.8656  1.9346  0.5484
 5244TIP3   OH215737   6.051   4.142   4.653 -0.5598 -0.0124  0.0269
 5244TIP3    H115738   5.990   4.068   4.645 -0.4486 -0.1946  0.8125
 5244TIP3    H215739   5.995   4.216   4.674 -1.0126  0.7333 -3.2211
 5245TIP3   OH215740   0.347   2.192   3.736  0.1628  0.3418  0.0439
 5245TIP3    H115741   0.344   2.138   3.815 -0.3368 -0.1987 -0.3419
 5245TIP3    H215742   0.300   2.272   3.759 -0.5359 -0.0823  0.0895
 5246TIP3   OH215743   2.367   5.267   2.711  0.0984 -0.4801  0.0307
 5246TIP3    H115744   2.452   5.223   2.715 -0.2173 -1.0747  0.4014
 5246TIP3    H215745   2.308   5.201   2.676 -0.1811 -0.0130 -0.3850
 5247TIP3   OH215746   0.761   2.630   4.126  0.5406 -0.4426 -0.0475
 5247TIP3    H115747   0.794   2.549   4.088  0.8739 -0.6833  0.7272
 5247TIP3    H215748   0.837   2.688   4.130  0.1413  0.2066 -1.3209
 5248TIP3   OH215749   1.374   1.620   0.161  0.0508 -0.0504  0.0811
 5248TIP3    H115750   1.456   1.649   0.202  1.3654  0.2981 -2.5008
 5248TIP3    H215751   1.386   1.525   0.149 -0.6182 -0.2668  1.0963
 5249TIP3   OH215752   2.073   5.121   2.709  0.6563 -0.0502  0.0066
 5249TIP3    H115753   1.993   5.170   2.688  0.7299  0.0967  0.0668
 5249TIP3    H215754   2.045   5.030   2.713  0.2677  0.0987  1.0787
 5250TIP3   OH215755   3.478   0.019   3.170  0.0479  0.2661  0.1303
 5250TIP3    H115756   3.489  -0.053   3.107  1.7171  1.8471 -1.5365
 5250TIP3    H215757   3.438   0.089   3.119  1.0313  1.4495  0.9066
 5251TIP3   OH215758   0.002   1.792   1.225  0.0704  0.5181  0.0241
 5251TIP3    H115759  -0.056   1.722   1.257  0.5017  0.1637  0.0491
 5251TIP3    H215760   0.089   1.766   1.256  0.3778  0.5782 -0.7717
 5252TIP3   OH215761   4.142   3.570   2.453 -0.7481 -0.2729  0.2895
 5252TIP3    H115762   4.052   3.557   2.422 -1.4328  0.1193  1.9712
 5252TIP3    H215763   4.142   3.533   2.542  0.1460  1.6124  1.1353
 5253TIP3   OH215764   0.148   0.877   1.483 -0.4498  0.1145  0.0122
 5253TIP3    H115765   0.114   0.917   1.563  0.6552  1.0332  0.0558
 5253TIP3    H215766   0.244   0.883   1.492 -0.3115  0.1638 -1.3331
 5254TIP3   OH215767   0.214   5.723   0.059  0.5247  0.0012  0.4793
 5254TIP3    H115768   0.273   5.670   0.005 -0.6064  1.1513 -2.0239
 5254TIP3    H215769   0.146   5.662   0.087  1.5060 -0.7648  1.2833
 5255TIP3   OH215770   6.020   1.037   0.420  0.4488 -0.0145 -0.7197
 5255TIP3    H115771   6.036   1.072   0.507  1.8004 -0.7405 -0.6343
 5255TIP3    H215772   6.064   1.098   0.361 -2.0956  1.5534 -1.1246
 5256TIP3   OH215773   2.242   5.451   0.649 -0.4998 -0.6099  0.2998
 5256TIP3    H115774   2.268   5.543   0.642  0.7142 -1.0238 -1.3016
 5256TIP3    H215775   2.266   5.426   0.739 -0.8403  0.6215  0.7428
 5257TIP3   OH215776   4.059   4.015   3.021  0.1228 -0.0188 -0.3035
 5257TIP3    H115777   3.971   4.044   2.998 -2.5450 -3.4456  3.9161
 5257TIP3    H215778   4.100   4.091   3.062 -3.0727  0.4656  2.4376
 5258TIP3   OH215779   0.811   0.574   0.099  0.1434  0.0746 -0.4949
 5258TIP3    H115780   0.816   0.550   0.191  0.8572  3.0131  0.3426
 5258TIP3    H215781   0.717   0.568   0.077 -0.2028  0.4909  0.7913
 5259TIP3   OH215782   5.143   2.314   2.954 -0.4171 -0.2301  0.6996
 5259TIP3    H115783   5.116   2.370   2.882 -1.1286 -0.5183  0.7274
 5259TIP3    H215784   5.198   2.247   2.913 -1.0459 -0.5568  0.3631
 5260TIP3   OH215785   5.922   3.869   1.903 -0.1008  0.3648  0.0722
 5260TIP3    H115786   5.902   3.811   1.976  1.1351  0.4146  0.4742
 5260TIP3    H215787   5.839   3.881   1.858 -0.5962 -0.7915  0.6511
 5261TIP3   OH215788   3.752   5.889   1.986 -0.1727  0.0139  0.3366
 5261TIP3    H115789   3.756   5.803   2.027  0.2046 -0.4178 -0.5848
 5261TIP3    H215790   3.842   5.908   1.960  0.0453  1.4010  1.9187
 5262TIP3   OH215791   0.455   1.793   3.668  0.0573 -0.0605  0.6037
 5262TIP3    H115792   0.475   1.833   3.584 -0.8117  0.0123  0.4202
 5262TIP3    H215793   0.512   1.837   3.731 -0.6108  1.2025  0.3449
 5263TIP3   OH215794   0.129   0.105   2.261  0.2300  0.0063 -0.2249
 5263TIP3    H115795   0.158   0.016   2.280  1.2535  0.2876 -0.3995
 5263TIP3    H215796   0.208   0.151   2.234 -0.4261  0.7625 -0.9319
 5264TIP3   OH215797   0.407   4.060   2.296  0.8137  0.0243  0.3120
 5264TIP3    H115798   0.340   4.009   2.340  1.4955  0.2278  1.6482
 5264TIP3    H215799   0.363   4.141   2.270  0.5149  0.1016  1.0509
 5265TIP3   OH215800   4.794   2.658   1.239  0.5563 -0.7071 -0.0415
 5265TIP3    H115801   4.704   2.680   1.218  0.7926 -0.0238 -0.3982
 5265TIP3    H215802   4.789   2.579   1.292 -0.2056 -1.0554 -0.6231
 5266TIP3   OH215803   1.561   4.877   4.399 -0.6276  0.3200 -0.4131
 5266TIP3    H115804   1.482   4.927   4.415 -0.0651  0.8292  0.9683
 5266TIP3    H215805   1.582   4.838   4.484 -0.0987 -0.8524 -1.0579
 5267TIP3   OH215806   5.656   2.016   0.269  0.1874 -0.7046  0.2383
 5267TIP3    H115807   5.597   2.005   0.344  0.2469  0.2255  0.4449
 5267TIP3    H215808   5.712   1.939   0.271  0.7683 -0.2783  1.6981
 5268TIP3   OH215809   2.342   0.614   1.867  0.2649 -0.5536 -0.1002
 5268TIP3    H115810   2.397   0.599   1.943  3.1351  1.8891 -1.5002
 5268TIP3    H215811   2.365   0.544   1.806  1.0502 -0.1489 -0.2730
 5269TIP3   OH215812   5.145   0.182   1.346 -0.0466  0.2620 -0.3301
 5269TIP3    H115813   5.190   0.134   1.415  0.8006 -0.3747 -1.3024
 5269TIP3    H215814   5.135   0.271   1.381  0.2341 -0.0781  0.6529
 5270TIP3   OH215815   2.288   2.603   0.930 -0.3915  0.3812 -0.1460
 5270TIP3    H115816   2.248   2.529   0.885 -1.4728  0.4098  0.7323
 5270TIP3    H215817   2.362   2.564   0.977 -0.5844 -0.0300 -0.1755
 5271TIP3   OH215818   6.041   2.097   2.833 -0.8664 -0.2503 -0.1816
 5271TIP3    H115819   5.969   2.099   2.896 -0.6316  0.1948  0.0760
 5271TIP3    H215820   6.006   2.048   2.759 -1.3986 -0.1379 -0.0096
 5272TIP3   OH215821   6.149   2.855   3.771 -0.0499  0.1853  0.0403
 5272TIP3    H115822   6.103   2.795   3.713 -1.4433  1.6301 -0.4553
 5272TIP3    H215823   6.105   2.939   3.758  2.8531  1.7455 -0.5502
 5273TIP3   OH215824   3.966   5.393   3.969  0.0265 -0.6478  0.5529
 5273TIP3    H115825   4.047   5.431   3.935  0.4240 -1.6751  0.3229
 5273TIP3    H215826   3.920   5.467   4.008 -0.3476  0.5488 -1.9680
 5274TIP3   OH215827   2.524   2.285   4.481 -0.3528  0.2363  0.0490
 5274TIP3    H115828   2.545   2.375   4.506 -0.6744  0.6057 -0.9781
 5274TIP3    H215829   2.595   2.258   4.423 -1.0179  0.3709 -0.8561
 5275TIP3   OH215830   5.038   5.138   0.080 -0.2211 -0.5190  0.0018
 5275TIP3    H115831   4.960   5.091   0.049 -0.5063 -0.9576  1.3316
 5275TIP3    H215832   5.024   5.149   0.174  1.7511 -1.4773  0.4696
 5276TIP3   OH215833   3.224   4.018   1.650 -0.0958  0.1844 -0.4738
 5276TIP3    H115834   3.176   3.960   1.592  0.6838 -0.9097 -0.0587
 5276TIP3    H215835   3.177   4.014   1.733 -1.8561  2.5959 -1.2462
 5277TIP3   OH215836   4.628   3.044   2.918 -0.2649  0.1701  0.0819
 5277TIP3    H115837   4.567   3.034   2.845  1.4335 -1.6987 -1.1818
 5277TIP3    H215838   4.574   3.032   2.996 -1.5553 -1.3884 -0.9828
 5278TIP3   OH215839   4.305   3.202   1.264  0.1476 -0.3410  0.7045
 5278TIP3    H115840   4.216   3.232   1.244  0.7642 -0.6062 -3.1177
 5278TIP3    H215841   4.357   3.282   1.268  0.1056 -0.3194  0.8494
 5279TIP3   OH215842   2.831   0.089   1.309  0.6172 -0.8545 -0.0847
 5279TIP3    H115843   2.895   0.020   1.291  0.4728 -0.8636 -0.5588
 5279TIP3    H215844   2.746   0.046   1.306  0.6034 -0.9523  1.0750
 5280TIP3   OH215845   4.244   2.487   3.377  0.2892 -0.1198  0.2062
 5280TIP3    H115846   4.279   2.526   3.297 -0.6662  3.2402  1.2607
 5280TIP3    H215847   4.322   2.466   3.429  0.8677 -1.0897 -0.9799
 5281TIP3   OH215848   0.343   4.640   4.034 -0.4120  0.1229 -0.4600
 5281TIP3    H115849   0.403   4.580   4.078 -0.3368  1.5189  1.4955
 5281TIP3    H215850   0.258   4.597   4.040 -0.1127 -0.4743 -0.4647
 5282TIP3   OH215851   1.498   5.575   3.772  0.0127 -0.0484  0.1261
 5282TIP3    H115852   1.561   5.617   3.831  0.2166 -0.7327  0.4161
 5282TIP3    H215853   1.473   5.495   3.818 -2.0563  0.8039  0.6113
 5283TIP3   OH215854   3.786   0.570   1.523  0.2092  0.2705  0.2962
 5283TIP3    H115855   3.794   0.666   1.520 -1.4656  0.4290 -0.6159
 5283TIP3    H215856   3.800   0.543   1.432 -3.5058  0.1484 -0.4063
 5284TIP3   OH215857   2.173   3.933   4.433  0.2079  0.5750 -0.0041
 5284TIP3    H115858   2.105   3.998   4.418 -1.9634 -1.5871 -0.1806
 5284TIP3    H215859   2.155   3.899   4.521 -0.1817 -1.3486 -0.7816
 5285TIP3   OH215860   3.597   3.357   0.189 -0.0195 -0.2652  0.6022
 5285TIP3    H115861   3.622   3.297   0.119 -0.3681 -1.4081  1.4304
 5285TIP3    H215862   3.564   3.435   0.144  0.3415 -0.7346 -0.4878
 5286TIP3   OH215863   2.448   3.514   1.639 -0.4950 -0.0067 -0.0464
 5286TIP3    H115864   2.498   3.594   1.655 -1.1400  0.2898  0.5268
 5286TIP3    H215865   2.510   3.443   1.657 -0.4765  0.3422  1.4250
 5287TIP3   OH215866   5.489   1.094   3.289  0.2353  0.1137  0.2445
 5287TIP3    H115867   5.559   1.159   3.292  0.2088  0.3235 -1.9525
 5287TIP3    H215868   5.416   1.140   3.248  0.6325 -1.5605 -2.6144
 5288TIP3   OH215869   1.302   0.401   1.417  0.0382  0.0498 -0.3690
 5288TIP3    H115870   1.360   0.392   1.493  0.4323  1.9745 -0.4052
 5288TIP3    H215871   1.241   0.327   1.425  1.3484 -0.9593  0.6688
 5289TIP3   OH215872   0.505   0.287   3.944 -0.0802  0.0513 -0.3090
 5289TIP3    H115873   0.458   0.209   3.915  0.2612  0.0398 -0.8560
 5289TIP3    H215874   0.572   0.254   4.004 -0.9277  0.0975  0.6868
 5290TIP3   OH215875   2.005   3.074   4.156 -0.1929 -0.6245  0.0138
 5290TIP3    H115876   2.065   3.016   4.108  0.8307  0.7990 -0.5027
 5290TIP3    H215877   2.062   3.121   4.218 -0.5126  1.5501 -1.2317
 5291TIP3   OH215878   2.503   0.663   0.977 -0.6561  0.2099  0.2030
 5291TIP3    H115879   2.439   0.592   0.974 -0.5188  0.1130 -1.1678
 5291TIP3    H215880   2.583   0.625   0.942 -0.3553  0.8168  0.2174
 5292TIP3   OH215881   0.094   4.564   5.040 -0.9787  0.6064  0.2303
 5292TIP3    H115882   0.064   4.609   4.961  1.3276 -0.1268 -1.1544
 5292TIP3    H215883   0.153   4.625   5.083  1.2208 -0.4892 -1.0285
 5293TIP3   OH215884   4.109   0.655   1.423 -0.0829  0.2827  0.0829
 5293TIP3    H115885   4.095   0.727   1.483 -2.5408  0.5289 -0.6548
 5293TIP3    H215886   4.088   0.691   1.337 -1.4746 -1.2559 -0.2936
 5294TIP3   OH215887   5.888   2.004   2.483 -0.3039  0.9510  0.0757
 5294TIP3    H115888   5.867   1.927   2.536 -0.2540 -0.3504 -1.7094
 5294TIP3    H215889   5.816   2.064   2.498 -1.4413 -0.3225 -0.1288
 5295TIP3   OH215890   4.683   3.880   1.189 -0.0278  0.4984 -0.1672
 5295TIP3    H115891   4.710   3.956   1.241  1.0461  0.1364 -0.1678
 5295TIP3    H215892   4.755   3.867   1.127 -0.9548  0.4926 -1.2901
 5296TIP3   OH215893   0.144   1.338   0.712 -0.3128  0.0181 -0.1209
 5296TIP3    H115894   0.092   1.267   0.674 -2.4350  1.9214 -0.9952
 5296TIP3    H215895   0.106   1.350   0.799  1.2260 -1.0340  0.7309
 5297TIP3   OH215896   4.362   4.157   2.503 -0.1370 -0.0254 -0.1033
 5297TIP3    H115897   4.272   4.175   2.532  0.1618  0.3529  0.5933
 5297TIP3    H215898   4.351   4.110   2.420 -0.9761  0.9254 -0.5489
 5298TIP3   OH215899   5.361   5.733   3.853  0.5588  0.0410  0.6812
 5298TIP3    H115900   5.381   5.826   3.851 -0.6703  0.3926  2.3365
 5298TIP3    H215901   5.266   5.728   3.847  0.6333 -1.1369  0.2073
 5299TIP3   OH215902   0.273   2.664   2.561 -0.2767  0.7062  0.2314
 5299TIP3    H115903   0.241   2.746   2.598 -0.0005  0.2193  1.6106
 5299TIP3    H215904   0.325   2.625   2.632 -0.1471 -0.5044 -0.5124
 5300TIP3   OH215905   4.937   4.674   3.974  0.1163 -0.7161 -0.0592
 5300TIP3    H115906   4.915   4.736   4.043 -0.1162 -0.2746 -0.5273
 5300TIP3    H215907   4.956   4.728   3.898 -0.2057 -1.2181 -0.5051
 5301TIP3   OH215908   4.742   5.744   3.251 -0.3608 -0.3554  0.3127
 5301TIP3    H115909   4.736   5.721   3.343 -0.4866 -0.0128  0.3896
 5301TIP3    H215910   4.689   5.823   3.242  1.7592  1.1690  0.4669
 5302TIP3   OH215911   3.370   4.743   5.115  1.0664 -0.7740 -0.1736
 5302TIP3    H115912   3.419   4.705   5.188 -0.9017 -0.9481  1.1250
 5302TIP3    H215913   3.354   4.834   5.141 -0.3090 -1.0468 -0.0026
 5303TIP3   OH215914   1.107   5.503   0.692  0.4220 -0.1386  0.2087
 5303TIP3    H115915   1.045   5.452   0.744  0.1479  0.0748  0.0916
 5303TIP3    H215916   1.053   5.563   0.641  0.6062 -1.0842 -1.1621
 5304TIP3   OH215917   2.715   0.281   4.506  0.1893 -0.1579 -0.1672
 5304TIP3    H115918   2.666   0.251   4.583  1.2971 -1.5897  0.0463
 5304TIP3    H215919   2.704   0.211   4.442  0.0547  0.5827 -0.9708
 5305TIP3   OH215920   5.894   0.777   4.979 -0.2141  0.9668  0.1791
 5305TIP3    H115921   5.980   0.792   4.941  1.6908 -1.1734  3.1765
 5305TIP3    H215922   5.878   0.854   5.034  0.7209  0.5800  1.0304
 5306TIP3   OH215923   5.664   0.244   1.409 -0.5031 -0.2273  0.1913
 5306TIP3    H115924   5.594   0.309   1.401  0.7849  1.0676 -1.5882
 5306TIP3    H215925   5.728   0.284   1.468  1.3462  1.3267 -2.5941
 5307TIP3   OH215926   3.146   0.664   2.757 -0.1352 -0.2967 -0.7257
 5307TIP3    H115927   3.204   0.663   2.834 -1.7528 -0.7768  0.5347
 5307TIP3    H215928   3.167   0.746   2.713  2.5290 -1.1224 -1.1633
 5308TIP3   OH215929   0.014   1.398   5.125 -0.4585  0.3681 -0.0573
 5308TIP3    H115930   0.035   1.306   5.141 -1.3070  0.2992  0.7153
 5308TIP3    H215931   0.096   1.435   5.093 -0.2415 -0.7636 -0.8839
 5309TIP3   OH215932   2.591   3.570   1.376 -1.0946 -0.0589 -0.1835
 5309TIP3    H115933   2.565   3.497   1.432  0.7640  0.1638  1.0363
 5309TIP3    H215934   2.681   3.590   1.401 -0.1725  0.1180 -3.2114
 5310TIP3   OH215935   0.766   1.967   4.471 -0.0985  0.4402  0.0339
 5310TIP3    H115936   0.749   1.930   4.557 -0.6170 -0.5306 -0.4648
 5310TIP3    H215937   0.806   1.896   4.421  0.7564  1.1734 -0.3522
 5311TIP3   OH215938   4.420   3.688   0.363 -0.0617 -0.4827 -0.0076
 5311TIP3    H115939   4.418   3.630   0.287  0.7595  0.8675 -1.1121
 5311TIP3    H215940   4.353   3.754   0.346  0.3156 -0.0108  0.3018
 5312TIP3   OH215941   2.687   4.024   2.576  0.3677  0.5233  0.3331
 5312TIP3    H115942   2.618   4.004   2.513  0.9750 -1.6669  0.2707
 5312TIP3    H215943   2.759   4.057   2.522  0.1776  0.5815  0.1147
 5313TIP3   OH215944   5.285   5.373   3.289 -0.2192 -0.0768 -0.0656
 5313TIP3    H115945   5.317   5.450   3.336 -1.0940 -0.4330  1.1568
 5313TIP3    H215946   5.364   5.337   3.248  0.1645  1.6073 -0.9212
 5314TIP3   OH215947   1.910   2.361   4.955  0.5474  0.0489 -0.1981
 5314TIP3    H115948   1.849   2.388   5.024 -0.4835  1.6379 -1.6470
 5314TIP3    H215949   1.875   2.278   4.924  0.6565 -0.3622  0.7364
 5315TIP3   OH215950   1.845   4.104   2.160  0.3696  0.0726 -0.2859
 5315TIP3    H115951   1.887   4.018   2.150 -0.1105  0.0196 -2.2757
 5315TIP3    H215952   1.829   4.112   2.254  1.3312 -1.5707  0.0632
 5316TIP3   OH215953   4.880   5.272   1.670  0.1970 -0.1424  0.0165
 5316TIP3    H115954   4.949   5.237   1.614 -0.9930 -1.6573 -0.5681
 5316TIP3    H215955   4.809   5.208   1.665 -2.1124  2.3021 -1.0628
 5317TIP3   OH215956   2.729   1.069   0.783  0.1991  0.0122  0.2746
 5317TIP3    H115957   2.683   1.146   0.751 -0.9178 -1.1037 -0.9411
 5317TIP3    H215958   2.689   1.049   0.867  0.5749  0.8011  0.6499
 5318TIP3   OH215959   2.697   1.299   1.082 -0.4474  0.0836  0.0706
 5318TIP3    H115960   2.744   1.268   1.159 -0.8546  0.7066  0.5813
 5318TIP3    H215961   2.753   1.367   1.045 -0.2121 -0.2731 -0.2455
 5319TIP3   OH215962   5.005   0.641   1.575 -0.3013  0.2034 -0.0256
 5319TIP3    H115963   5.059   0.719   1.588 -1.2039  0.8788 -0.2218
 5319TIP3    H215964   4.972   0.620   1.662 -0.3052  0.2231 -0.0223
 5320TIP3   OH215965   1.918   4.730   3.240 -0.3301  1.0042 -0.6299
 5320TIP3    H115966   1.968   4.709   3.318 -0.2401  3.1533 -0.0431
 5320TIP3    H215967   1.917   4.649   3.189  0.0107 -0.3150  1.3505
 5321TIP3   OH215968   2.814   2.223   1.330  0.1728  0.0849  0.6104
 5321TIP3    H115969   2.841   2.311   1.357  1.9574 -0.2099 -0.0231
 5321TIP3    H215970   2.790   2.233   1.237  2.8329 -0.4719 -0.2281
 5322TIP3   OH215971   3.513   2.038   3.520  0.1923  0.0875  0.1956
 5322TIP3    H115972   3.430   1.996   3.495  1.5351 -1.4940 -2.0026
 5322TIP3    H215973   3.504   2.128   3.489 -0.8995  0.0938  0.4741
 5323TIP3   OH215974   3.304   4.876   4.515 -0.3904 -0.4830  0.0260
 5323TIP3    H115975   3.233   4.890   4.453  0.6294 -0.1784 -1.1072
 5323TIP3    H215976   3.292   4.785   4.545 -1.2720 -0.4176 -0.0993
 5324TIP3   OH215977   0.713   1.698   2.965 -0.8346 -0.6648  0.5517
 5324TIP3    H115978   0.718   1.602   2.960  1.6915 -0.6541  1.4312
 5324TIP3    H215979   0.730   1.727   2.876 -3.8947 -0.9563 -0.2630
 5325TIP3   OH215980   4.492   1.032   1.229  0.5393 -0.2587  0.0551
 5325TIP3    H115981   4.446   0.994   1.303  0.7843  1.2115  0.9925
 5325TIP3    H215982   4.570   0.978   1.219  0.5237 -0.4489  0.8976
 5326TIP3   OH215983   0.295   2.190   5.078  0.1045  0.1458  0.3258
 5326TIP3    H115984   0.341   2.142   5.147  0.9270 -0.3914 -0.5606
 5326TIP3    H215985   0.255   2.264   5.123  1.3620  0.3158  1.2479
 5327TIP3   OH215986   4.562   5.945   3.330  0.0915  0.0519 -0.0000
 5327TIP3    H115987   4.518   5.998   3.264 -1.9521 -0.6425  0.7531
 5327TIP3    H215988   4.648   5.988   3.340 -1.2383  2.9148  0.2138
 5328TIP3   OH215989   3.445   3.398   4.162  0.4909  0.5727 -0.0008
 5328TIP3    H115990   3.389   3.327   4.131  1.6855 -0.1959 -0.4104
 5328TIP3    H215991   3.454   3.456   4.087 -2.5776  2.6113  0.9982
 5329TIP3   OH215992   0.636   0.400   4.690 -0.0195  0.0899 -1.0489
 5329TIP3    H115993   0.653   0.490   4.719  0.8013 -0.1803 -0.6658
 5329TIP3    H215994   0.553   0.377   4.732  1.1030 -0.2660  1.1011
 5330TIP3   OH215995   4.572   4.168   1.080 -0.6637  0.5582 -0.0521
 5330TIP3    H115996   4.555   4.084   1.122  1.2729  0.2445  0.2369
 5330TIP3    H215997   4.568   4.232   1.151  1.6655  0.1484  0.5632
 5331TIP3   OH215998   2.965   3.197   4.877  0.2470  0.6843 -0.0809
 5331TIP3    H115999   3.048   3.228   4.841  1.7888  1.4324  3.6579
 5331TIP3    H216000   2.988   3.118   4.927 -1.7567 -0.4052 -0.7539
 5332TIP3   OH216001   6.238   5.433   2.640 -0.6308 -0.0573 -0.3672
 5332TIP3    H116002   6.255   5.418   2.733 -0.2759 -0.9225 -0.5668
 5332TIP3    H216003   6.145   5.414   2.629 -0.5311 -0.5909 -0.3101
 5333TIP3   OH216004   5.998   3.568   1.828 -0.2109 -0.1456  0.7624
 5333TIP3    H116005   5.964   3.603   1.910 -1.1218  0.6448  0.0621
 5333TIP3    H216006   6.044   3.641   1.787  0.2826 -0.5491  0.5758
 5334TIP3   OH216007   2.465   5.646   4.428 -0.9696 -0.4701 -0.7385
 5334TIP3    H116008   2.550   5.655   4.385 -1.4443  0.8824 -1.4609
 5334TIP3    H216009   2.448   5.732   4.466 -1.4277 -1.1052  0.5499
 5335TIP3   OH216010   2.362   4.517   1.949 -0.1574 -0.3513 -0.2069
 5335TIP3    H116011   2.344   4.594   2.003 -1.1702  0.6328 -1.8695
 5335TIP3    H216012   2.442   4.539   1.901  0.9987 -1.4059  1.1313
 5336TIP3   OH216013   1.829   0.908   0.563  0.5124 -0.5838  0.0097
 5336TIP3    H116014   1.849   1.001   0.578 -2.2581  0.3330 -1.1593
 5336TIP3    H216015   1.852   0.893   0.471  1.2870 -1.1757  0.2951
 5337TIP3   OH216016   4.683   2.767   3.102  0.0333 -0.2512 -0.4591
 5337TIP3    H116017   4.656   2.821   3.027 -1.8713  0.7841  0.8895
 5337TIP3    H216018   4.603   2.722   3.129  0.9613 -1.5399  0.2461
 5338TIP3   OH216019   3.537   0.590   4.287  0.0335 -0.2105 -0.2084
 5338TIP3    H116020   3.576   0.592   4.200  0.8862  1.6413  0.1740
 5338TIP3    H216021   3.458   0.643   4.279  2.1722  3.4722  0.9761
 5339TIP3   OH216022   4.622   5.196   3.430 -0.2259 -0.0225  0.3497
 5339TIP3    H116023   4.569   5.117   3.430  0.7216 -0.6822  0.8694
 5339TIP3    H216024   4.605   5.236   3.344 -1.1944 -0.4462  0.3278
 5340TIP3   OH216025   5.772   4.406   5.013 -0.2290 -0.0908 -0.8120
 5340TIP3    H116026   5.743   4.494   4.990 -3.2003 -0.7100  0.1963
 5340TIP3    H216027   5.814   4.416   5.099  0.2488  0.4383 -1.1003
 5341TIP3   OH216028   2.962   2.431   4.105  0.5530  0.3756 -0.0890
 5341TIP3    H116029   2.927   2.449   4.018 -2.3568 -0.4793  0.7851
 5341TIP3    H216030   3.035   2.371   4.090 -1.6583 -2.0798 -1.8522
 5342TIP3   OH216031   1.763   2.996   3.652 -0.0225 -0.2831 -0.5429
 5342TIP3    H116032   1.690   3.019   3.710 -0.9435 -0.7350 -1.4813
 5342TIP3    H216033   1.831   2.962   3.711 -0.2144  0.9571  0.4396
 5343TIP3   OH216034   1.894   5.914   0.888 -0.3410 -0.1265  0.0503
 5343TIP3    H116035   1.914   5.842   0.947 -0.0496  0.8882  1.2418
 5343TIP3    H216036   1.969   5.919   0.829 -0.4511 -0.8989 -0.1645
 5344TIP3   OH216037   0.318   4.635   0.686  0.1021 -0.2592  0.0968
 5344TIP3    H116038   0.337   4.580   0.762  2.8621  1.8556  1.0963
 5344TIP3    H216039   0.404   4.656   0.649 -0.8093  2.8523 -0.5582
 5345TIP3   OH216040   2.501   4.627   2.619  0.3408  0.3386 -0.1011
 5345TIP3    H116041   2.427   4.625   2.680  1.1246  0.9446  0.8865
 5345TIP3    H216042   2.566   4.568   2.656 -0.2465 -1.4828 -1.8196
 5346TIP3   OH216043   0.531   4.703   4.920  0.6451 -0.1465  0.2260
 5346TIP3    H116044   0.586   4.776   4.892 -0.3974  0.6503  0.1899
 5346TIP3    H216045   0.567   4.677   5.005  2.1374 -0.7921 -0.5724
 5347TIP3   OH216046   0.473   5.241   2.366  0.0014  0.4064 -0.3504
 5347TIP3    H116047   0.479   5.153   2.402 -0.3688 -0.0633 -1.4144
 5347TIP3    H216048   0.515   5.235   2.281  1.4193  1.6501  0.2227
 5348TIP3   OH216049   3.857   4.712   2.461 -0.4229 -0.2470 -0.3650
 5348TIP3    H116050   3.831   4.746   2.376 -2.3536  0.9058  0.6098
 5348TIP3    H216051   3.881   4.790   2.511  0.5995 -0.8985  0.1957
 5349TIP3   OH216052   5.452   4.722   4.201 -0.2280 -0.1675 -0.0817
 5349TIP3    H116053   5.392   4.749   4.269 -0.2559 -0.5406  0.0465
 5349TIP3    H216054   5.413   4.755   4.120 -1.0845 -1.1494 -0.1076
 5350TIP3   OH216055   0.112   2.300   1.877 -0.7244 -0.3273 -0.5852
 5350TIP3    H116056   0.029   2.289   1.923 -0.8463 -0.3186 -0.7996
 5350TIP3    H216057   0.096   2.374   1.818 -0.2499  0.3275  0.0915
 5351TIP3   OH216058   4.009   4.479   2.504 -0.3329 -0.0845 -0.2304
 5351TIP3    H116059   3.997   4.466   2.599  1.4373 -0.3423 -0.0122
 5351TIP3    H216060   3.927   4.518   2.475 -1.2072 -0.7006  1.2785
 5352TIP3   OH216061   5.345   4.788   1.630  0.2607  0.2460 -0.4177
 5352TIP3    H116062   5.330   4.833   1.713 -0.1666  0.2613 -0.5020
 5352TIP3    H216063   5.336   4.695   1.651  0.4712  0.2317 -0.3842
 5353TIP3   OH216064   5.175   3.511   4.537 -0.0255 -0.6226 -0.3069
 5353TIP3    H116065   5.197   3.428   4.580 -1.3667 -1.0245 -0.3461
 5353TIP3    H216066   5.080   3.516   4.542  0.0013  0.6983 -0.7345
 5354TIP3   OH216067   6.096   1.080   4.505 -0.3514  0.4557  0.2782
 5354TIP3    H116068   6.025   1.131   4.545 -0.3302  0.6121  0.1215
 5354TIP3    H216069   6.052   1.026   4.439 -0.8735 -2.1906  2.6030
 5355TIP3   OH216070   4.498   2.759   1.011  0.3229  0.4399 -0.1414
 5355TIP3    H116071   4.465   2.705   1.084 -0.7454  2.4858  0.9771
 5355TIP3    H216072   4.422   2.810   0.984  0.8552  0.1346 -2.3740
 5356TIP3   OH216073   6.072   3.489   0.983  0.3810 -0.5022  0.8156
 5356TIP3    H116074   6.003   3.423   0.984 -0.3093  0.2083  1.4105
 5356TIP3    H216075   6.144   3.448   0.935 -0.6468 -1.0500 -0.2999
 5357TIP3   OH216076   1.623   3.745   4.899 -0.0894 -0.5009 -0.0894
 5357TIP3    H116077   1.693   3.733   4.963  1.0245  1.2617 -0.9002
 5357TIP3    H216078   1.635   3.674   4.836 -0.7632 -1.8274  1.2195
 5358TIP3   OH216079   4.239   3.794   1.915  0.2523 -0.4028  0.0755
 5358TIP3    H116080   4.315   3.776   1.970  0.5461  1.1609  0.2158
 5358TIP3    H216081   4.268   3.863   1.856 -1.2402  0.6901  0.5706
 5359TIP3   OH216082   0.071   0.090   4.288 -0.7701  0.3567 -0.1959
 5359TIP3    H116083   0.113   0.063   4.206  0.3291  0.2986  0.3620
 5359TIP3    H216084   0.114   0.173   4.310 -1.2150  0.4801  0.2153
 5360TIP3   OH216085   3.748   1.948   3.075  0.3333 -0.1254  0.1226
 5360TIP3    H116086   3.840   1.973   3.088  0.7049 -0.8912 -0.9198
 5360TIP3    H216087   3.729   1.971   2.984 -0.9758  1.3972  0.7476
 5361TIP3   OH216088   5.982   3.912   3.026  0.1161  0.4024  0.4861
 5361TIP3    H116089   6.037   3.883   3.098  0.1358  0.9587  0.7023
 5361TIP3    H216090   5.918   3.842   3.015 -0.9339  1.0228  2.1669
 5362TIP3   OH216091   1.619   1.033   1.166  0.0320 -0.1191 -0.8812
 5362TIP3    H116092   1.622   1.016   1.071  0.4166 -0.3415 -0.8299
 5362TIP3    H216093   1.573   1.117   1.173 -1.7781 -1.0414 -1.1491
 5363TIP3   OH216094   0.161   5.482   3.682 -0.5408  0.4822 -0.2955
 5363TIP3    H116095   0.202   5.442   3.605 -0.1623  0.7472 -0.2361
 5363TIP3    H216096   0.224   5.466   3.753 -0.0107  1.8544 -0.4262
 5364TIP3   OH216097   5.814   0.382   0.918 -0.2592  0.2507 -0.1943
 5364TIP3    H116098   5.780   0.457   0.966 -0.8539  0.7124 -1.3077
 5364TIP3    H216099   5.750   0.313   0.934 -1.2511  0.8411 -1.5145
 5365TIP3   OH216100   1.125   0.087   2.726  0.1868 -0.0118 -0.1652
 5365TIP3    H116101   1.184   0.036   2.670 -0.4114  0.1695 -0.9905
 5365TIP3    H216102   1.151   0.178   2.711  0.4230  0.0065  0.3319
 5366TIP3   OH216103   2.070   1.137   1.865 -0.2622  0.1667  0.7758
 5366TIP3    H116104   2.080   1.048   1.831  1.9445  0.4543  0.5263
 5366TIP3    H216105   2.074   1.193   1.788  2.7427  0.6932  1.1951
 5367TIP3   OH216106   3.888   5.598   0.623  0.3554 -0.1253  0.2793
 5367TIP3    H116107   3.919   5.606   0.714 -1.0452  0.7108  0.7237
 5367TIP3    H216108   3.942   5.530   0.585  0.3541 -1.1740  2.0447
 5368TIP3   OH216109   3.009   1.505   2.461 -0.0587 -0.2442  0.5679
 5368TIP3    H116110   3.055   1.586   2.441 -0.8411  0.2340  0.6818
 5368TIP3    H216111   3.078   1.442   2.482  0.4987  0.8504  2.2151
 5369TIP3   OH216112   5.891   2.538   1.558  0.4736 -0.2422 -0.1259
 5369TIP3    H116113   5.889   2.503   1.647  1.6678 -0.3729 -0.1334
 5369TIP3    H216114   5.967   2.496   1.517  0.7633  0.8483 -0.7613
 5370TIP3   OH216115   1.877   5.770   0.527  0.3075  0.1253  0.3133
 5370TIP3    H116116   1.863   5.782   0.433 -2.2954 -0.2904  0.5705
 5370TIP3    H216117   1.836   5.686   0.546  0.9029  0.1552  1.8200
 5371TIP3   OH216118   0.946   4.483   3.553  0.3539  0.3059 -0.3530
 5371TIP3    H116119   1.005   4.430   3.607  0.4446  0.3515 -0.4071
 5371TIP3    H216120   0.960   4.573   3.584  0.5910  0.3623 -0.6270
 5372TIP3   OH216121   3.352   0.854   0.978 -0.0198 -0.6590  0.0398
 5372TIP3    H116122   3.273   0.908   0.981 -1.1372 -2.1381 -1.0499
 5372TIP3    H216123   3.390   0.871   0.891  2.0531  1.5234  1.2399
 5373TIP3   OH216124   0.657   0.373   1.707  0.3311  0.2759 -0.3992
 5373TIP3    H116125   0.677   0.428   1.783 -1.1757  0.6202 -0.2167
 5373TIP3    H216126   0.708   0.411   1.635  1.2526  0.3508  0.2828
 5374TIP3   OH216127   0.560   3.215   3.892 -0.1281  0.3257  0.2555
 5374TIP3    H116128   0.593   3.149   3.953 -1.6513 -1.7188 -1.0031
 5374TIP3    H216129   0.626   3.219   3.823  1.1524  1.9836  1.4856
 5375TIP3   OH216130   1.641   5.694   3.964 -0.3699  0.4287 -0.2766
 5375TIP3    H116131   1.577   5.699   4.034  0.4976 -0.7280  0.6405
 5375TIP3    H216132   1.663   5.786   3.946 -0.7299  0.7586  0.8469
 5376TIP3   OH216133   2.652   2.603   0.789 -0.4382 -0.4395 -0.3853
 5376TIP3    H116134   2.633   2.619   0.697 -1.9391 -0.9819 -0.1926
 5376TIP3    H216135   2.633   2.686   0.833  1.7865  0.3085 -0.7353
 5377TIP3   OH216136   5.250   5.264   0.293 -0.1544 -0.0633 -0.6726
 5377TIP3    H116137   5.251   5.305   0.207 -0.0394 -0.1425 -0.7085
 5377TIP3    H216138   5.336   5.283   0.330  0.0423 -0.6024 -0.8449
 5378TIP3   OH216139   4.356   3.574   2.256 -0.2404 -0.3525 -0.1752
 5378TIP3    H116140   4.299   3.612   2.323  1.1745  0.0675  0.8532
 5378TIP3    H216141   4.375   3.486   2.287  0.4590 -0.1396  0.0223
 5379TIP3   OH216142   5.424   3.819   3.499 -0.1120  0.0575 -0.9411
 5379TIP3    H116143   5.338   3.838   3.536 -1.0585 -3.5637 -0.8714
 5379TIP3    H216144   5.462   3.755   3.559  2.0098  0.4327 -1.8002
 5380TIP3   OH216145   3.398   0.319   3.271  0.2704 -0.0035 -0.2792
 5380TIP3    H116146   3.490   0.332   3.249  0.0033  1.1415 -0.7787
 5380TIP3    H216147   3.381   0.381   3.342  0.0032 -0.5579  0.1494
 5381TIP3   OH216148   4.886   4.557   3.374  0.4407 -0.1738  0.6229
 5381TIP3    H116149   4.845   4.640   3.349  0.0246 -0.5887 -0.1283
 5381TIP3    H216150   4.893   4.560   3.469  0.4455  0.7290  0.5981
 5382TIP3   OH216151   4.745   5.368   0.246 -0.3972  0.0584 -0.3578
 5382TIP3    H116152   4.743   5.406   0.158  1.9708 -0.1527 -0.5589
 5382TIP3    H216153   4.709   5.280   0.234  2.0332 -0.8457 -1.6708
 5383TIP3   OH216154   0.189   4.029   3.026 -0.4254  0.0669 -0.2666
 5383TIP3    H116155   0.176   4.017   3.120 -1.5549  0.3409 -0.3722
 5383TIP3    H216156   0.281   4.054   3.018 -0.0347 -0.9538  0.6578
 5384TIP3   OH216157   2.551   1.256   4.093  0.2846 -0.4006  0.3421
 5384TIP3    H116158   2.624   1.227   4.148  0.7768  0.2730  0.0656
 5384TIP3    H216159   2.583   1.336   4.052 -0.1727 -0.7500 -0.7214
 5385TIP3   OH216160   4.104   4.965   0.258 -0.1837  0.1397  0.6667
 5385TIP3    H116161   4.185   5.007   0.229 -0.8400  0.4529 -0.8454
 5385TIP3    H216162   4.107   4.878   0.217 -1.1752  0.6220 -0.4902
 5386TIP3   OH216163   1.159   2.255   3.883 -0.0452 -0.3787  0.2074
 5386TIP3    H116164   1.161   2.261   3.787 -0.9640 -1.3666  0.0979
 5386TIP3    H216165   1.066   2.253   3.905  0.1552 -0.0939  1.1357
 5387TIP3   OH216166   5.739   2.988   3.748 -0.4445 -0.6277  0.6421
 5387TIP3    H116167   5.725   2.923   3.817 -0.5757 -0.5456  0.6935
 5387TIP3    H216168   5.753   3.070   3.795  1.9955 -0.9813  0.6806
 5388TIP3   OH216169   0.532   3.464   0.349  0.2400  0.3154 -0.1876
 5388TIP3    H116170   0.582   3.505   0.420  0.3733 -0.9426  0.4726
 5388TIP3    H216171   0.445   3.503   0.354  0.4441  0.7126  0.2542
 5389TIP3   OH216172   5.171   0.035   3.638  0.7575 -0.9158  0.3076
 5389TIP3    H116173   5.262   0.046   3.666  1.1316 -1.1494 -0.7598
 5389TIP3    H216174   5.170  -0.051   3.595  0.3401 -0.3668 -0.8144
 5390TIP3   OH216175   2.842   2.971   2.858 -0.7020 -0.2416  0.6384
 5390TIP3    H116176   2.933   2.990   2.834 -0.0543 -1.5153  1.9648
 5390TIP3    H216177   2.818   3.044   2.915 -1.0886  0.9362 -0.9385
 5391TIP3   OH216178   4.117   2.984   0.465 -0.3302  0.7263 -0.3492
 5391TIP3    H116179   4.144   2.901   0.504  0.0122  1.2202  0.5045
 5391TIP3    H216180   4.077   3.033   0.538 -1.5616  0.8692 -1.0956
 5392TIP3   OH216181   6.189   5.880   2.974 -0.0780  0.1674 -0.8156
 5392TIP3    H116182   6.208   5.798   2.928  0.4287 -0.0044 -0.3089
 5392TIP3    H216183   6.151   5.853   3.057  0.0322  0.4463 -0.6736
 5393TIP3   OH216184   0.823   2.508   1.823 -0.6229  0.0676  0.4828
 5393TIP3    H116185   0.903   2.501   1.772 -0.6721 -1.3833  0.5475
 5393TIP3    H216186   0.773   2.430   1.799 -1.0454 -0.1851  2.0693
 5394TIP3   OH216187   0.114   0.998   4.104 -0.3314 -1.4154  0.5872
 5394TIP3    H116188   0.144   1.088   4.113 -0.9848 -0.8308 -2.2266
 5394TIP3    H216189   0.029   0.997   4.148  0.5592 -1.2679  2.4208
 5395TIP3   OH216190   0.404   3.311   0.703 -0.1127  0.1879 -0.3435
 5395TIP3    H116191   0.451   3.288   0.783 -3.5626  0.0046  1.8647
 5395TIP3    H216192   0.365   3.397   0.721 -0.5696  0.3713 -2.0165
 5396TIP3   OH216193   0.703   3.049   1.412  0.1195  0.6183 -0.2315
 5396TIP3    H116194   0.640   2.984   1.381  1.9244 -0.8117 -1.0493
 5396TIP3    H216195   0.657   3.094   1.483 -2.0837  0.1759 -1.2934
 5397TIP3   OH216196   3.757   1.439   0.515  0.4679 -0.3163 -0.2161
 5397TIP3    H116197   3.709   1.375   0.567 -0.6596  0.9306  0.3298
 5397TIP3    H216198   3.722   1.428   0.426  1.2384 -1.3381 -0.4146
 5398TIP3   OH216199   0.793   1.924   2.354  0.8119 -0.0807 -0.3999
 5398TIP3    H116200   0.851   1.900   2.426  0.9547  1.3027 -0.0128
 5398TIP3    H216201   0.710   1.945   2.396  0.3717 -0.8955 -0.8313
 5399TIP3   OH216202   1.415   2.298   0.108  0.3564 -0.3170 -0.0270
 5399TIP3    H116203   1.422   2.211   0.147 -0.6266 -0.0274  0.8564
 5399TIP3    H216204   1.440   2.286   0.017 -0.1160 -1.5920 -0.0040
 5400TIP3   OH216205   3.082   2.211   2.652 -0.5194  0.3445  0.2502
 5400TIP3    H116206   3.166   2.255   2.669  0.7746 -1.7288 -0.4953
 5400TIP3    H216207   3.016   2.279   2.668  1.2907  2.0759  0.7249
 5401TIP3   OH216208   3.821   1.857   4.715  0.0826 -0.1130  0.0236
 5401TIP3    H116209   3.867   1.941   4.711 -0.5976  0.3752  1.6481
 5401TIP3    H216210   3.877   1.796   4.665  0.8480  1.1613 -0.7210
 5402TIP3   OH216211   3.508   3.832   0.673  0.6215  0.0453  0.4984
 5402TIP3    H116212   3.422   3.827   0.631  0.9243  0.8553 -0.2479
 5402TIP3    H216213   3.489   3.839   0.767 -0.0858 -0.8291  0.4335
 5403TIP3   OH216214   0.061   1.877   1.899 -0.5636  0.1409 -0.3870
 5403TIP3    H116215   0.040   1.937   1.827  0.6038 -0.0890 -0.9397
 5403TIP3    H216216   0.039   1.790   1.865 -0.7213  0.1035 -0.1888
 5404TIP3   OH216217   3.902   4.320   0.640 -0.2440 -0.1125  0.3720
 5404TIP3    H116218   3.863   4.271   0.567  0.0764 -2.7364  1.8676
 5404TIP3    H216219   3.994   4.293   0.642 -0.1022  0.3813  1.3909
 5405TIP3   OH216220   3.153   3.053   2.495 -0.5306 -0.5313 -0.1586
 5405TIP3    H116221   3.235   3.086   2.458 -0.3609 -2.4733 -1.6578
 5405TIP3    H216222   3.173   2.964   2.524 -2.3597 -1.5773 -1.7866
 5406TIP3   OH216223   4.448   3.844   1.294 -0.1076 -0.7991 -0.4614
 5406TIP3    H116224   4.537   3.837   1.261 -0.2061  1.6427 -1.4830
 5406TIP3    H216225   4.443   3.779   1.364  3.5176  1.0394  1.8370
 5407TIP3   OH216226   2.023   4.267   1.158  0.2193 -0.2529  0.0712
 5407TIP3    H116227   2.055   4.249   1.246  1.8991 -1.3849 -0.7074
 5407TIP3    H216228   2.048   4.189   1.108 -4.0751 -1.4609 -0.6381
 5408TIP3   OH216229   3.361   4.464   0.574 -0.1113  0.0768  0.8949
 5408TIP3    H116230   3.316   4.475   0.490  0.2025  0.0152  0.7149
 5408TIP3    H216231   3.336   4.541   0.624  1.6280  1.4218 -0.1606
 5409TIP3   OH216232   2.296   4.090   2.350 -0.0053 -0.4501 -0.0596
 5409TIP3    H116233   2.276   4.158   2.285  0.9584  0.0840  0.1927
 5409TIP3    H216234   2.346   4.024   2.302  0.1324 -0.3794 -0.0125
 5410TIP3   OH216235   3.435   5.652   2.331  0.2623  0.2436  0.1422
 5410TIP3    H116236   3.466   5.646   2.240  1.1281  0.1779  0.4369
 5410TIP3    H216237   3.505   5.612   2.383  1.0246  2.6409  1.1006
 5411TIP3   OH216238   0.703   5.696   5.198  0.2276  0.1705 -0.5407
 5411TIP3    H116239   0.670   5.759   5.134 -0.5802  0.0888 -0.2184
 5411TIP3    H216240   0.790   5.673   5.167 -0.3608 -0.2872 -1.9162
 5412TIP3   OH216241   0.183   0.864   3.222 -0.5442  0.4285  0.2503
 5412TIP3    H116242   0.209   0.829   3.307  1.5396 -1.4894 -1.0336
 5412TIP3    H216243   0.259   0.914   3.192 -0.0566 -1.2525 -1.5808
 5413TIP3   OH216244   1.305   3.883   0.978  0.1921 -0.4523  0.1049
 5413TIP3    H116245   1.264   3.796   0.986 -1.2344 -0.3083 -3.6005
 5413TIP3    H216246   1.237   3.943   1.008 -0.5565 -0.4771 -1.4236
 5414TIP3   OH216247   5.651   1.649   4.228 -0.1577  0.0941 -0.2237
 5414TIP3    H116248   5.573   1.595   4.242 -0.9343  0.9406 -1.1459
 5414TIP3    H216249   5.676   1.632   4.137  0.0904  0.6268 -0.2606
 5415TIP3   OH216250   4.680   2.355   4.348  0.6021 -0.2998 -0.3104
 5415TIP3    H116251   4.773   2.376   4.344  0.2630  1.4190 -0.0891
 5415TIP3    H216252   4.640   2.405   4.277 -0.4683  1.0712  1.1828
 5416TIP3   OH216253   3.806   5.323   1.985  0.1060  0.4194  0.8838
 5416TIP3    H116254   3.845   5.335   1.898 -1.0183 -0.4684  0.2296
 5416TIP3    H216255   3.733   5.263   1.970  1.4062 -1.7867  2.8539
 5417TIP3   OH216256   2.795   3.797   0.774 -0.4564 -0.0668 -0.1248
 5417TIP3    H116257   2.704   3.784   0.803 -0.3360  0.6441  0.5991
 5417TIP3    H216258   2.832   3.709   0.771  0.1523 -0.1287  3.9839
 5418TIP3   OH216259   2.206   3.176   3.530 -0.2325 -0.5150  0.3249
 5418TIP3    H116260   2.298   3.178   3.555 -0.5057  1.6609  1.3617
 5418TIP3    H216261   2.181   3.083   3.536  1.5287 -0.9536  1.3575
 5419TIP3   OH216262   0.247   4.993   3.109 -0.3555  0.0360 -0.4063
 5419TIP3    H116263   0.232   4.903   3.135 -0.0682  0.1637  0.2201
 5419TIP3    H216264   0.221   4.997   3.017  0.9503 -1.0348 -0.8502
 5420TIP3   OH216265   3.968   4.233   3.243 -0.9155  0.1293  0.0018
 5420TIP3    H116266   4.002   4.296   3.180 -1.0683 -0.2467 -0.4569
 5420TIP3    H216267   3.875   4.252   3.249 -0.5749  1.5026  1.6495
 5421TIP3   OH216268   0.795   1.741   3.546 -0.0148 -0.1091 -0.2213
 5421TIP3    H116269   0.818   1.749   3.453 -0.8384  1.6636 -0.3036
 5421TIP3    H216270   0.758   1.826   3.569  0.8337 -0.2878  1.9375
 5422TIP3   OH216271   6.173   5.455   2.206 -0.9765  0.1237 -0.2007
 5422TIP3    H116272   6.218   5.453   2.122 -0.4053 -0.8797  0.1034
 5422TIP3    H216273   6.223   5.394   2.261 -1.5117  0.5417  0.7697
 5423TIP3   OH216274   4.023   4.437   1.322  0.2094  0.3366  0.1702
 5423TIP3    H116275   4.114   4.441   1.353  0.7203 -1.7230 -0.9171
 5423TIP3    H216276   4.025   4.374   1.250 -1.8648  1.2466 -0.7521
 5424TIP3   OH216277   4.509   1.190   4.799  0.0993  0.4762 -0.6443
 5424TIP3    H116278   4.498   1.231   4.885  2.0048  0.6974 -0.4551
 5424TIP3    H216279   4.544   1.260   4.744 -0.8029  0.2495 -1.5333
 5425TIP3   OH216280   5.647   5.936   0.545 -0.3811  0.0547  0.2896
 5425TIP3    H116281   5.632   6.008   0.483  0.8248  0.9753  1.0074
 5425TIP3    H216282   5.623   5.973   0.630  0.6969 -0.2160  0.7288
 5426TIP3   OH216283   3.761   1.706   0.599 -0.3806  0.3931 -0.3466
 5426TIP3    H116284   3.833   1.735   0.542 -0.5441  1.5479  0.0031
 5426TIP3    H216285   3.763   1.611   0.594  2.1452  0.3059  0.8362
 5427TIP3   OH216286   0.077   1.875   4.526 -0.6537 -0.0852  0.0040
 5427TIP3    H116287   0.114   1.963   4.514 -0.7791 -0.2429 -1.8470
 5427TIP3    H216288  -0.002   1.889   4.578 -0.4171  0.8504  0.1233
 5428TIP3   OH216289   1.310   2.707   1.357  0.8001  0.6747 -0.2386
 5428TIP3    H116290   1.384   2.759   1.329 -1.1043  3.5661 -0.3256
 5428TIP3    H216291   1.254   2.699   1.280  1.0332 -1.6967 -0.2615
 5429TIP3   OH216292   5.248   0.877   4.281 -0.5534  0.3635  0.4886
 5429TIP3    H116293   5.215   0.799   4.237  1.8855  1.0508 -2.9741
 5429TIP3    H216294   5.216   0.869   4.371 -0.8863 -4.3142  0.2066
 5430TIP3   OH216295   4.625   4.787   4.353  0.3671 -0.2016  0.2217
 5430TIP3    H116296   4.573   4.867   4.362 -0.0669 -0.2640 -1.4082
 5430TIP3    H216297   4.684   4.789   4.428  0.2869  1.5821  0.2937
 5431TIP3   OH216298   5.608   2.806   3.915  0.2978  0.2376  0.0785
 5431TIP3    H116299   5.578   2.853   3.993 -0.5519  1.7853 -1.1105
 5431TIP3    H216300   5.559   2.724   3.916 -2.7861  1.8887 -0.7955
 5432TIP3   OH216301   0.327   1.267   4.131  0.0864 -0.1701 -0.3445
 5432TIP3    H116302   0.284   1.269   4.217 -1.2260  0.0772 -0.9806
 5432TIP3    H216303   0.411   1.225   4.147 -0.4155 -0.7240  0.9424
 5433TIP3   OH216304   1.033   3.405   2.938 -0.3288 -0.3192  0.1213
 5433TIP3    H116305   1.072   3.488   2.911  0.6891 -0.4427  1.1433
 5433TIP3    H216306   0.998   3.368   2.857 -1.4074  1.3879 -0.2458
 5434TIP3   OH216307   5.607   1.339   1.101  0.3422 -0.1418  0.0712
 5434TIP3    H116308   5.656   1.289   1.166  0.8103 -1.9800 -1.5834
 5434TIP3    H216309   5.673   1.374   1.042 -0.1477  0.3650 -0.1952
 5435TIP3   OH216310   5.900   5.281   3.612 -0.4760  0.4013 -0.1204
 5435TIP3    H116311   5.820   5.240   3.646 -0.5462  2.0730  1.9789
 5435TIP3    H216312   5.872   5.368   3.583  0.5563  1.0440  0.7253
 5436TIP3   OH216313   3.870   1.064   2.512  0.4567 -0.3664  0.0169
 5436TIP3    H116314   3.881   1.051   2.418  0.1028 -1.4571  0.1177
 5436TIP3    H216315   3.958   1.063   2.548  0.4840 -2.0862 -0.0454
 5437TIP3   OH216316   4.327   0.547   0.224  0.0368 -0.2667  0.5759
 5437TIP3    H116317   4.403   0.506   0.265  0.2253  0.5144  1.0338
 5437TIP3    H216318   4.266   0.563   0.296 -0.6215 -0.9927  0.1969
 5438TIP3   OH216319   2.672   0.346   0.212  0.2929 -0.1966  0.2640
 5438TIP3    H116320   2.742   0.282   0.202  0.3433 -0.3242  1.2737
 5438TIP3    H216321   2.646   0.369   0.123  2.2860  0.5932 -0.1536
 5439TIP3   OH216322   3.524   2.808   4.538 -0.6757 -0.1328 -0.1535
 5439TIP3    H116323   3.493   2.724   4.503 -0.1159 -0.0123 -0.9429
 5439TIP3    H216324   3.476   2.874   4.488 -3.1791  0.0753  2.2672
 5440TIP3   OH216325   1.495   0.743   1.085 -0.7202 -0.6781 -0.1699
 5440TIP3    H116326   1.582   0.754   1.123 -0.8619 -0.4600  0.0938
 5440TIP3    H216327   1.436   0.790   1.145 -0.6113  2.3176 -2.2044
 5441TIP3   OH216328   0.167   3.405   4.515  0.0615  0.3612 -0.1337
 5441TIP3    H116329   0.192   3.497   4.524  1.0392  0.3437 -2.0923
 5441TIP3    H216330   0.239   3.357   4.556  0.2097  0.4449 -0.2941
 5442TIP3   OH216331   0.068   3.610   4.796  0.6658  0.1113  0.4094
 5442TIP3    H116332   0.075   3.694   4.751  1.9184  0.4741  1.2432
 5442TIP3    H216333   0.157   3.588   4.822  0.1826 -0.8317  1.3813
 5443TIP3   OH216334   4.875   5.888   2.470  0.5038  0.4139  0.4304
 5443TIP3    H116335   4.950   5.927   2.516  0.9442 -1.0638  1.0215
 5443TIP3    H216336   4.798   5.921   2.517  0.7349  2.1136 -0.3112
 5444TIP3   OH216337   3.660   5.919   2.404 -0.1288 -0.2148  0.0472
 5444TIP3    H116338   3.630   5.970   2.330  1.4224 -0.4252 -0.7635
 5444TIP3    H216339   3.720   5.855   2.367 -0.1757 -1.0580  1.3443
 5445TIP3   OH216340   0.902   2.056   2.829  0.2751 -0.4422 -0.0850
 5445TIP3    H116341   0.982   2.089   2.787  0.2194 -0.2323 -0.0268
 5445TIP3    H216342   0.850   2.134   2.848  0.7635 -0.4148  1.3233
 5446TIP3   OH216343   0.481   0.566   3.994 -0.1951 -0.4173 -0.0257
 5446TIP3    H116344   0.473   0.478   3.958  0.8268 -0.2951 -0.6117
 5446TIP3    H216345   0.537   0.556   4.071  1.1806 -0.1124 -0.9354
 5447TIP3   OH216346   5.608   1.177   4.897  0.6710 -0.4349  0.1171
 5447TIP3    H116347   5.555   1.186   4.817 -1.7614  0.3438  1.7188
 5447TIP3    H216348   5.647   1.090   4.890 -0.6929 -0.9857 -1.2354
 5448TIP3   OH216349   6.093   1.560   2.369  0.4663 -0.4819 -0.2636
 5448TIP3    H116350   6.150   1.512   2.309 -0.1900 -3.4075  1.2569
 5448TIP3    H216351   6.152   1.592   2.437  0.8250  0.3436 -0.9444
 5449TIP3   OH216352   2.989   0.267   0.816  0.1324  0.3505 -0.1005
 5449TIP3    H116353   2.938   0.211   0.758  0.3842 -1.0363  0.9638
 5449TIP3    H216354   2.976   0.356   0.781 -1.7256 -0.1395 -0.7746
 5450TIP3   OH216355   1.014   0.509   0.430 -0.0951 -0.6405 -0.8238
 5450TIP3    H116356   1.054   0.519   0.344  0.6628  3.2539 -0.2372
 5450TIP3    H216357   1.083   0.469   0.484  1.3831  1.4746 -0.9917
 5451TIP3   OH216358   2.601   4.275   3.841 -0.5154 -0.0455 -0.7000
 5451TIP3    H116359   2.556   4.353   3.807  0.4102  0.8594  0.0992
 5451TIP3    H216360   2.672   4.309   3.895  2.2669 -1.3572 -3.2033
 5452TIP3   OH216361   1.779   3.745   5.132 -0.0247 -0.0441 -0.4328
 5452TIP3    H116362   1.760   3.814   5.195 -0.1581 -0.9017  0.5047
 5452TIP3    H216363   1.858   3.703   5.166 -0.1652 -0.5966 -0.7717
 5453TIP3   OH216364   0.488   3.569   3.469  0.0441 -0.3809 -0.4088
 5453TIP3    H116365   0.491   3.573   3.564  2.3540 -0.5859 -0.4124
 5453TIP3    H216366   0.476   3.660   3.441  0.1590 -0.2146  0.0792
 5454TIP3   OH216367   3.856   4.032   5.059 -0.0169  0.0392  0.4298
 5454TIP3    H116368   3.840   4.114   5.106 -0.2215  0.5100 -0.4345
 5454TIP3    H216369   3.768   4.001   5.036  0.0579 -0.4503  0.7918
 5455TIP3   OH216370   4.233   1.636   3.702  0.2872 -0.7246  0.5914
 5455TIP3    H116371   4.290   1.705   3.735  1.0079 -1.4212  0.8331
 5455TIP3    H216372   4.292   1.565   3.677 -0.3397 -0.7410 -0.9410
 5456TIP3   OH216373   3.303   3.075   2.190  0.2937  0.2542  0.0676
 5456TIP3    H116374   3.371   3.013   2.217 -1.3755 -1.4290  0.5658
 5456TIP3    H216375   3.320   3.153   2.243  2.0106  0.0072 -0.0581
 5457TIP3   OH216376   0.579   0.242   1.348 -0.2712  0.3915 -0.5798
 5457TIP3    H116377   0.521   0.288   1.287  1.0048  1.8300 -0.7748
 5457TIP3    H216378   0.632   0.312   1.388  2.7748 -0.9102 -1.9731
 5458TIP3   OH216379   1.211   2.354   1.880 -0.3858  0.4258  0.0416
 5458TIP3    H116380   1.143   2.319   1.823  0.2690  0.7507 -0.9454
 5458TIP3    H216381   1.277   2.390   1.821  0.8554 -0.2513  0.9666
 5459TIP3   OH216382   5.920   3.129   4.517  0.2957  0.0301  0.2584
 5459TIP3    H116383   5.845   3.117   4.459 -0.3845  0.6495  0.9943
 5459TIP3    H216384   5.958   3.213   4.490  0.7453 -0.2836 -0.1156
 5460TIP3   OH216385   4.474   1.824   4.380  0.3940 -0.0889 -0.3414
 5460TIP3    H116386   4.563   1.836   4.411 -0.2529 -0.7225  1.9834
 5460TIP3    H216387   4.471   1.734   4.348  0.2582 -0.5554  0.9350
 5461TIP3   OH216388   5.300   2.282   1.596 -0.6721 -0.3332 -0.0913
 5461TIP3    H116389   5.327   2.241   1.514  2.9667  1.0530  0.2301
 5461TIP3    H216390   5.296   2.209   1.659  1.1783 -0.8603 -0.5157
 5462TIP3   OH216391   2.836   2.399   5.069  0.2107  0.2260 -0.2565
 5462TIP3    H116392   2.854   2.333   5.136  0.0931  0.2946 -0.1553
 5462TIP3    H216393   2.919   2.444   5.056  0.0135  0.8679  0.5642
 5463TIP3   OH216394   4.733   5.014   3.735  0.1084  0.0124  0.0303
 5463TIP3    H116395   4.758   5.020   3.643 -0.8834  1.4149 -0.1730
 5463TIP3    H216396   4.749   5.101   3.770 -0.1918 -0.3187  1.0201
 5464TIP3   OH216397   1.671   2.984   4.498  0.3754 -0.3153 -0.2535
 5464TIP3    H116398   1.602   3.008   4.436  1.1862  0.4666 -0.8739
 5464TIP3    H216399   1.744   2.958   4.443  0.2707 -2.1707  0.3939
 5465TIP3   OH216400   3.987   0.517   3.271  0.4684 -0.5600 -0.0253
 5465TIP3    H116401   3.993   0.612   3.261  2.1892 -0.5400  0.8831
 5465TIP3    H216402   3.897   0.502   3.302  1.1547  1.1472  3.1669
 5466TIP3   OH216403   5.094   4.349   1.554 -0.2803  0.3902 -0.5850
 5466TIP3    H116404   5.129   4.264   1.581 -2.5818 -0.4315  0.0349
 5466TIP3    H216405   5.001   4.333   1.536 -0.5831  2.5886 -1.3610
 5467TIP3   OH216406   5.205   1.800   0.515 -0.1625 -0.6725  0.2029
 5467TIP3    H116407   5.193   1.885   0.558 -0.6454 -0.4234 -0.4162
 5467TIP3    H216408   5.117   1.763   0.511  0.1902 -1.7595  1.5670
 5468TIP3   OH216409   3.062   0.410   2.136  0.0711  0.2285 -0.4716
 5468TIP3    H116410   3.073   0.381   2.045 -3.3129  0.0557 -0.9704
 5468TIP3    H216411   3.047   0.504   2.128  1.0181  0.4389  0.0869
 5469TIP3   OH216412   3.248   0.138   4.655  0.4279  0.0290 -0.3732
 5469TIP3    H116413   3.235   0.230   4.678  2.0293  0.4443 -1.0041
 5469TIP3    H216414   3.339   0.133   4.627  0.1507 -1.6032 -1.0862
 5470TIP3   OH216415   4.841   3.610   1.063 -0.1472  0.2266 -0.1481
 5470TIP3    H116416   4.884   3.552   1.001 -1.2921 -1.3152  0.4550
 5470TIP3    H216417   4.838   3.560   1.145 -0.0931  1.6008  0.7415
 5471TIP3   OH216418   3.580   4.044   3.327  0.0996 -0.3318  0.3723
 5471TIP3    H116419   3.495   4.068   3.363  0.6678  0.8726  0.9556
 5471TIP3    H216420   3.574   4.065   3.234 -0.7945 -1.8416  0.0649
 5472TIP3   OH216421   2.796   2.566   0.501 -0.4112  0.0916  0.1692
 5472TIP3    H116422   2.703   2.586   0.511 -0.9132 -0.3218 -2.9153
 5472TIP3    H216423   2.802   2.472   0.519 -0.4097  0.2558  1.1048
 5473TIP3   OH216424   0.824   1.326   0.848  0.4492 -0.6279 -0.3573
 5473TIP3    H116425   0.858   1.396   0.903 -1.5945  0.5246 -0.4401
 5473TIP3    H216426   0.850   1.245   0.891  1.9581  0.1901  0.3192
 5474TIP3   OH216427   1.524   4.129   0.689  0.6226 -0.5509 -0.1399
 5474TIP3    H116428   1.490   4.111   0.601 -0.2202  0.4178 -0.0370
 5474TIP3    H216429   1.597   4.189   0.674  0.5112 -0.4262 -0.1935
 5475TIP3   OH216430   5.585   3.666   0.285  0.2506 -0.3012 -0.2457
 5475TIP3    H116431   5.528   3.671   0.208 -0.8757  0.8466  0.6169
 5475TIP3    H216432   5.529   3.692   0.358  1.3162 -1.2787  0.9660
 5476TIP3   OH216433   3.699   0.684   0.134  0.6874  0.3433  0.4769
 5476TIP3    H116434   3.631   0.635   0.181  0.4925 -0.2707 -0.4103
 5476TIP3    H216435   3.760   0.616   0.105  1.7978  0.9062  1.4197
 5477TIP3   OH216436   3.996   4.534   2.084 -0.1504 -0.1174 -0.2275
 5477TIP3    H116437   3.906   4.499   2.085 -0.5931  1.0012  1.0935
 5477TIP3    H216438   4.000   4.587   2.004 -0.5410 -0.4710 -0.4864
 5478TIP3   OH216439   3.748   0.529   3.404 -0.3234 -0.1946 -0.3365
 5478TIP3    H116440   3.688   0.604   3.413  0.5600  0.5836 -0.7604
 5478TIP3    H216441   3.690   0.454   3.391 -1.2171  0.5687 -0.9275
 5479TIP3   OH216442   2.677   5.117   1.290 -0.2786  0.2983 -0.0390
 5479TIP3    H116443   2.758   5.067   1.286 -0.6246 -0.4814  1.6525
 5479TIP3    H216444   2.629   5.092   1.211  0.0731 -1.1703  0.1799
 5480TIP3   OH216445   5.740   3.999   3.135 -0.4197 -0.1367  0.4780
 5480TIP3    H116446   5.742   4.013   3.230  1.9266  1.7763  0.2443
 5480TIP3    H216447   5.827   4.024   3.105 -1.6509  1.1987 -2.4179
 5481TIP3   OH216448   5.325   4.799   2.858  0.2247 -0.1053 -0.4910
 5481TIP3    H116449   5.330   4.704   2.855 -0.8260 -0.2509  0.9713
 5481TIP3    H216450   5.406   4.829   2.818  0.1316 -1.5848 -1.8768
 5482TIP3   OH216451   1.769   3.506   1.493  0.2619  0.0601  0.2253
 5482TIP3    H116452   1.854   3.527   1.453  0.7572 -1.6982  0.2803
 5482TIP3    H216453   1.705   3.546   1.434  1.1012  0.7086 -0.2740
 5483TIP3   OH216454   5.329   4.817   4.412 -0.7128 -0.6916  0.2322
 5483TIP3    H116455   5.341   4.912   4.410  1.7287 -0.9304  0.4000
 5483TIP3    H216456   5.278   4.801   4.491 -2.5719  0.5520 -0.6396
 5484TIP3   OH216457   3.815   4.599   0.697  0.4134  0.1082 -0.1247
 5484TIP3    H116458   3.869   4.671   0.665  0.4948 -0.5163 -1.4384
 5484TIP3    H216459   3.725   4.626   0.678  0.3615  0.3701  0.4620
 5485TIP3   OH216460   0.459   1.499   0.066 -0.0463  0.4993  0.0046
 5485TIP3    H116461   0.400   1.571   0.089  0.5542  1.7315 -2.0730
 5485TIP3    H216462   0.443   1.432   0.133 -2.8576  1.2883  0.2166
 5486TIP3   OH216463   0.717   3.943   4.850  0.3202  0.2960 -0.4328
 5486TIP3    H116464   0.717   3.950   4.755 -0.6809  1.7599 -0.3436
 5486TIP3    H216465   0.752   4.027   4.881 -0.0712  0.1306  0.5007
 5487TIP3   OH216466   4.506   3.652   3.011 -0.0735  0.0248 -0.4055
 5487TIP3    H116467   4.575   3.688   2.955 -0.5828  0.7697 -0.5673
 5487TIP3    H216468   4.546   3.575   3.052  1.8787  1.9766  1.7124
 5488TIP3   OH216469   1.092   3.012   1.384  0.3830 -0.5537 -0.3738
 5488TIP3    H116470   1.001   3.016   1.355 -0.2797 -0.8226  1.5686
 5488TIP3    H216471   1.143   3.027   1.304 -1.3563  0.4703 -1.3401
 5489TIP3   OH216472   3.468   0.290   1.974  0.5447 -0.4123  0.1048
 5489TIP3    H116473   3.487   0.383   1.989 -0.6025 -0.0713 -0.4598
 5489TIP3    H216474   3.554   0.249   1.963  1.1409  0.3251  1.7509
 5490TIP3   OH216475   2.643   4.236   2.165 -0.2731 -0.1975  0.6994
 5490TIP3    H116476   2.731   4.271   2.154 -0.2992 -0.3337 -0.0358
 5490TIP3    H216477   2.591   4.310   2.198  0.1397 -0.1483  1.2333
 5491TIP3   OH216478   4.565   5.223   4.195 -0.2585  0.2909  0.2892
 5491TIP3    H116479   4.622   5.261   4.262 -0.0871  1.9329 -0.7390
 5491TIP3    H216480   4.610   5.143   4.167  1.2914  1.2692 -0.1218
 5492TIP3   OH216481   3.245   3.736   3.096  0.0451 -0.0341  0.1015
 5492TIP3    H116482   3.327   3.686   3.092  0.1740 -0.1500  2.5598
 5492TIP3    H216483   3.176   3.670   3.090  0.1430 -0.1129 -0.2031
 5493TIP3   OH216484   4.328   0.268   4.555 -0.0264  0.0766 -0.2698
 5493TIP3    H116485   4.372   0.241   4.474 -0.8309 -1.1292 -0.3376
 5493TIP3    H216486   4.366   0.353   4.576  1.4136 -0.3433 -1.0046
 5494TIP3   OH216487   3.983   3.171   2.906 -0.4822  0.3001 -0.5705
 5494TIP3    H116488   4.021   3.254   2.936  0.0956 -0.0150 -0.4209
 5494TIP3    H216489   3.901   3.197   2.862 -0.8003  0.8623  0.3299
 5495TIP3   OH216490   4.587   1.978   1.197  0.2974 -0.4082 -0.2338
 5495TIP3    H116491   4.643   1.966   1.120  1.0050 -1.8947  0.4610
 5495TIP3    H216492   4.509   1.927   1.178  0.3123 -0.4726 -0.1211
 5496TIP3   OH216493   0.641   2.234   0.636 -0.7574 -0.2825  0.1582
 5496TIP3    H116494   0.696   2.310   0.615 -0.6266 -0.1649  0.9094
 5496TIP3    H216495   0.554   2.270   0.647 -0.6545 -0.2063  0.7352
 5497TIP3   OH216496   3.088   5.394   4.304  0.4867  0.2779  0.1263
 5497TIP3    H116497   3.055   5.416   4.217 -3.5077 -0.1521  1.3393
 5497TIP3    H216498   3.092   5.478   4.350 -0.8987  0.1559  0.5198
 5498TIP3   OH216499   3.708   3.055   0.185  0.6020  0.4943 -1.0545
 5498TIP3    H116500   3.711   3.123   0.118  0.1001  0.7304 -0.8400
 5498TIP3    H216501   3.794   3.060   0.227  0.7837  0.5927 -1.4295
 5499TIP3   OH216502   5.548   5.810   2.084  0.4284 -0.4340 -0.1788
 5499TIP3    H116503   5.614   5.854   2.138  0.8426 -0.6032 -0.5320
 5499TIP3    H216504   5.595   5.736   2.045 -0.0949 -0.8197 -0.0852
 5500TIP3   OH216505   4.282   3.258   3.500 -0.4297 -0.4225 -0.2468
 5500TIP3    H116506   4.231   3.202   3.440  1.1553 -1.6250 -0.5294
 5500TIP3    H216507   4.363   3.277   3.452 -0.2185  0.7387  0.5326
 5501TIP3   OH216508   3.555   0.706   3.545 -0.7435 -0.0655  0.4596
 5501TIP3    H116509   3.552   0.800   3.527  0.2007 -0.2459 -0.8580
 5501TIP3    H216510   3.489   0.668   3.487  1.2099 -0.5030 -1.6057
 5502TIP3   OH216511   5.426   3.144   3.117  0.7458 -0.4768 -0.6128
 5502TIP3    H116512   5.469   3.197   3.050  0.5734 -1.3057 -1.3985
 5502TIP3    H216513   5.455   3.183   3.200 -0.4806  1.7395 -1.1358
 5503TIP3   OH216514   1.200   0.676   3.084  0.2972 -0.1330  0.2660
 5503TIP3    H116515   1.150   0.661   3.164  1.4540  0.2407  1.0845
 5503TIP3    H216516   1.163   0.615   3.021 -0.8527 -0.2066  0.9852
 5504TIP3   OH216517   3.384   4.376   1.922  0.1844  0.2426  0.4312
 5504TIP3    H116518   3.322   4.444   1.897  0.2062  0.1855  0.2205
 5504TIP3    H216519   3.384   4.315   1.848 -0.2667 -0.2945  0.8646
 5505TIP3   OH216520   3.723   3.590   2.133  0.0890  0.1252  0.2056
 5505TIP3    H116521   3.658   3.661   2.130 -0.7152 -0.6385 -1.9691
 5505TIP3    H216522   3.777   3.604   2.056  0.7632 -0.8735  0.4861
 5506TIP3   OH216523   4.751   1.802   4.373  0.0877 -0.0854  0.2721
 5506TIP3    H116524   4.787   1.721   4.409 -0.9755 -1.0980 -0.8323
 5506TIP3    H216525   4.827   1.856   4.355  0.7770 -0.4800  1.7989
 5507TIP3   OH216526   3.264   1.449   3.633 -0.3470  0.2168  0.5693
 5507TIP3    H116527   3.257   1.407   3.718  0.5329 -0.3491  0.3737
 5507TIP3    H216528   3.213   1.393   3.574  0.3321 -0.2601  0.4260
 5508TIP3   OH216529   1.384   0.475   0.390  0.7653 -0.1861 -0.0269
 5508TIP3    H116530   1.448   0.488   0.460 -0.3804  0.7106  0.8973
 5508TIP3    H216531   1.345   0.562   0.376  1.0402 -0.3112 -1.8729
 5509TIP3   OH216532   0.758   5.655   0.778 -0.2211 -0.5198 -0.4805
 5509TIP3    H116533   0.749   5.722   0.710  0.1329  0.4783  0.4166
 5509TIP3    H216534   0.669   5.620   0.789 -0.4840  0.0628 -0.7197
 5510TIP3   OH216535   6.205   0.076   4.063 -0.0288 -0.1058 -0.2278
 5510TIP3    H116536   6.154   0.021   4.124  0.8171  0.7852  1.3293
 5510TIP3    H216537   6.286   0.027   4.049 -1.2166 -1.5356 -2.7264
 5511TIP3   OH216538   4.016   0.772   3.928  0.2799  0.2690 -0.3424
 5511TIP3    H116539   4.104   0.794   3.896  1.6598 -1.6354  1.8207
 5511TIP3    H216540   4.006   0.826   4.007 -0.3481  0.1952 -0.3734
 5512TIP3   OH216541  -0.027   1.851   4.253  0.4244 -0.4178 -0.3860
 5512TIP3    H116542   0.039   1.875   4.188  0.0333  1.4509 -0.1545
 5512TIP3    H216543   0.020   1.855   4.337  0.4891 -1.0284 -0.3928
 5513TIP3   OH216544   0.694   5.426   1.552 -0.3377  0.3177  0.0757
 5513TIP3    H116545   0.695   5.510   1.507 -0.4157  0.2415 -0.0692
 5513TIP3    H216546   0.605   5.418   1.587 -0.2947  0.3502  0.1920
 5514TIP3   OH216547   4.333   3.804   3.823 -0.3227  0.5505  0.1844
 5514TIP3    H116548   4.355   3.711   3.827  0.3523  0.3084 -3.9454
 5514TIP3    H216549   4.408   3.848   3.863 -0.3302 -0.6385  1.5671
 5515TIP3   OH216550   1.354   2.764   4.968 -0.0599  0.2324 -0.5298
 5515TIP3    H116551   1.394   2.678   4.951  0.2796  0.3168 -0.1821
 5515TIP3    H216552   1.379   2.818   4.893  1.0760  0.4853  0.0056
 5516TIP3   OH216553   6.088   2.855   0.830  0.2024  1.0202 -0.1882
 5516TIP3    H116554   6.047   2.819   0.752 -0.0995  1.1070 -0.0707
 5516TIP3    H216555   6.168   2.897   0.799  1.2976 -0.9112 -0.1828
 5517TIP3   OH216556   1.638   2.516   2.795  0.3014  0.1527  0.1844
 5517TIP3    H116557   1.609   2.603   2.821 -0.9619 -0.5401  1.1547
 5517TIP3    H216558   1.643   2.466   2.876 -0.0272 -0.9922 -0.4729
 5518TIP3   OH216559   5.803   4.002   1.687 -0.3784 -0.4944  0.2585
 5518TIP3    H116560   5.746   4.055   1.743  0.5550 -0.3700  1.0962
 5518TIP3    H216561   5.783   4.033   1.598 -0.6594  0.4744  0.6421
 5519TIP3   OH216562   4.342   5.419   0.035 -0.0846  0.6658  0.2887
 5519TIP3    H116563   4.366   5.336   0.077 -1.7142 -1.1078 -2.0064
 5519TIP3    H216564   4.246   5.420   0.037 -0.1505  1.5305 -1.4042
 5520TIP3   OH216565   0.517   0.547   2.952 -0.2081  0.3499 -0.0625
 5520TIP3    H116566   0.561   0.468   2.985 -0.1164  1.1872  1.8995
 5520TIP3    H216567   0.425   0.523   2.949  0.0275 -0.5453 -1.6879
 5521TIP3   OH216568   4.521   0.338   0.656  0.0075 -0.2453  0.0466
 5521TIP3    H116569   4.438   0.327   0.608 -0.0294  1.5849 -0.3890
 5521TIP3    H216570   4.518   0.428   0.688  1.6432 -0.2933  0.4116
 5522TIP3   OH216571   0.255   3.855   0.485  0.8502 -0.3960 -0.1136
 5522TIP3    H116572   0.276   3.764   0.509 -1.0288 -1.6769 -2.8840
 5522TIP3    H216573   0.192   3.883   0.552 -0.7683 -2.2232 -0.7762
 5523TIP3   OH216574   0.667   0.478   0.903  0.1167 -0.1159  0.4051
 5523TIP3    H116575   0.590   0.422   0.890 -0.8633  1.1867  0.4156
 5523TIP3    H216576   0.632   0.567   0.902  1.8621  0.6232 -1.4261
 5524TIP3   OH216577   6.104   5.163   1.605 -0.5910 -0.6703  0.1684
 5524TIP3    H116578   6.072   5.074   1.585 -1.1521 -0.0332 -2.1715
 5524TIP3    H216579   6.160   5.185   1.530 -0.7824  1.1014  0.5037
 5525TIP3   OH216580   0.084   3.184   3.757 -0.1216  0.2659 -0.5368
 5525TIP3    H116581   0.174   3.158   3.740 -0.2829 -0.1621 -0.7334
 5525TIP3    H216582   0.046   3.200   3.671 -0.4422 -0.2538 -0.4984
 5526TIP3   OH216583   5.786   3.209   2.070  0.5872  0.1493  0.4736
 5526TIP3    H116584   5.840   3.239   1.997 -0.2624  0.8637  0.1194
 5526TIP3    H216585   5.813   3.118   2.084  1.5426  0.3449  0.0074
 5527TIP3   OH216586   1.504   5.541   1.662 -0.0823 -0.7765 -0.3523
 5527TIP3    H116587   1.466   5.542   1.750  1.0942 -1.2758  0.1932
 5527TIP3    H216588   1.531   5.450   1.649  0.5468 -0.5255 -0.8668
 5528TIP3   OH216589   2.477   5.038   1.774 -0.1448  0.1520 -0.1150
 5528TIP3    H116590   2.395   5.074   1.807  0.0474  2.5531 -1.9624
 5528TIP3    H216591   2.456   5.007   1.685  0.9989  1.3041 -0.8278
 5529TIP3   OH216592   3.467   2.170   3.805  0.5716 -0.5595 -0.2316
 5529TIP3    H116593   3.430   2.195   3.720 -1.0124 -1.0986  0.2801
 5529TIP3    H216594   3.398   2.120   3.848  1.6656 -1.0244  1.0400
 5530TIP3   OH216595   3.650   1.703   0.090 -0.2783  0.0981  0.3572
 5530TIP3    H116596   3.589   1.712   0.017 -0.2940  0.6508  0.4320
 5530TIP3    H216597   3.670   1.793   0.115  0.8300 -0.0740  0.1197
 5531TIP3   OH216598   4.786   2.390   2.604  0.3644 -0.0449  0.0556
 5531TIP3    H116599   4.849   2.318   2.604 -0.2948 -0.6539 -0.5591
 5531TIP3    H216600   4.812   2.445   2.530 -0.2588 -0.7186 -0.6876
 5532TIP3   OH216601   4.573   3.485   2.518 -0.0797  0.0181 -0.0493
 5532TIP3    H116602   4.666   3.505   2.526  0.0320  1.6950 -3.5023
 5532TIP3    H216603   4.537   3.503   2.605  2.6424  0.2236  1.1413
 5533TIP3   OH216604   5.421   1.203   2.752 -0.2838  0.4003 -0.2936
 5533TIP3    H116605   5.476   1.145   2.805 -0.9680 -1.5349 -1.5856
 5533TIP3    H216606   5.460   1.290   2.762  1.1668 -0.3764  1.2160
 5534TIP3   OH216607   3.917   3.114   1.485  0.2853 -0.6619 -0.1572
 5534TIP3    H116608   3.957   3.153   1.563 -1.1315 -0.9198  0.7524
 5534TIP3    H216609   3.901   3.188   1.427 -0.0234 -0.2246  0.4653
 5535TIP3   OH216610   4.120   4.057   4.932  0.3612  1.3491 -0.8484
 5535TIP3    H116611   4.191   4.118   4.954  1.9441 -1.1709  1.7476
 5535TIP3    H216612   4.060   4.062   5.007  1.3404 -1.2371  0.2186
 5536TIP3   OH216613   3.870   0.815   2.984  0.2140  0.3183  0.1024
 5536TIP3    H116614   3.895   0.837   2.894  2.3036 -0.9857  0.3204
 5536TIP3    H216615   3.908   0.886   3.036 -1.9333  1.6828 -0.0644
 5537TIP3   OH216616   0.216   3.131   0.570  0.1747  0.6030  0.4597
 5537TIP3    H116617   0.228   3.198   0.636  0.1441 -0.4621  1.5787
 5537TIP3    H216618   0.303   3.090   0.560  0.1728  0.7240 -0.1345
 5538TIP3   OH216619   3.754   5.438   4.671 -0.1369  0.2808 -0.0544
 5538TIP3    H116620   3.669   5.395   4.664  0.0148 -0.0513  0.1206
 5538TIP3    H216621   3.753   5.503   4.601 -1.0018  1.1061  0.7139
 5539TIP3   OH216622   0.878   0.706   0.971 -0.1058 -0.1095  0.0968
 5539TIP3    H116623   0.845   0.618   0.983 -0.4036 -0.2837 -1.6758
 5539TIP3    H216624   0.968   0.694   0.940  0.0082  0.2259  0.2916
 5540TIP3   OH216625   2.445   0.536   4.911 -0.2035 -0.3821 -0.4373
 5540TIP3    H116626   2.372   0.566   4.966 -1.3043 -0.7071 -1.6655
 5540TIP3    H216627   2.434   0.584   4.829  0.4741 -1.0447 -0.9300
 5541TIP3   OH216628   5.119   3.075   1.042 -0.1595 -0.7314  0.3033
 5541TIP3    H116629   5.143   3.003   0.983 -3.0110 -1.1173 -0.5105
 5541TIP3    H216630   5.155   3.048   1.127  2.7613 -0.8682 -0.8339
 5542TIP3   OH216631   2.410   0.390   2.233 -0.5653 -0.4606 -0.3610
 5542TIP3    H116632   2.468   0.337   2.179  0.2661 -1.9336  1.8083
 5542TIP3    H216633   2.349   0.327   2.271 -1.2686  0.5405  0.2259
 5543TIP3   OH216634   3.137   1.662   4.603 -0.8548  0.0202 -0.2450
 5543TIP3    H116635   3.085   1.690   4.679 -1.4497 -0.8416 -0.3135
 5543TIP3    H216636   3.216   1.623   4.640 -1.4196 -0.9544 -0.0173
 5544TIP3   OH216637   0.863   2.435   4.783  0.2274 -0.1835  0.4548
 5544TIP3    H116638   0.837   2.453   4.873 -1.4106 -0.5194  0.0850
 5544TIP3    H216639   0.780   2.425   4.735  0.9721 -2.8491 -0.5100
 5545TIP3   OH216640   3.401   4.177   3.634 -0.2820  0.1064  0.3657
 5545TIP3    H116641   3.406   4.162   3.728  0.0246  0.4640  0.4106
 5545TIP3    H216642   3.336   4.246   3.624 -2.4236 -1.8449  0.0822
 5546TIP3   OH216643   1.121   2.327   0.161 -0.8614 -0.6085 -0.3768
 5546TIP3    H116644   1.054   2.270   0.197 -1.7599  0.3131 -0.5312
 5546TIP3    H216645   1.200   2.307   0.211 -1.2617 -1.6711 -0.1553
 5547TIP3   OH216646   1.346   3.362   2.050 -0.4758 -0.8663  0.5138
 5547TIP3    H116647   1.359   3.452   2.080 -0.7213 -0.6349 -0.0709
 5547TIP3    H216648   1.300   3.319   2.123 -1.1668 -0.2825  0.4336
 5548TIP3   OH216649   5.512   0.599   2.406 -0.2271 -0.0378 -0.0347
 5548TIP3    H116650   5.577   0.666   2.425 -1.3249  0.8687  0.6012
 5548TIP3    H216651   5.557   0.539   2.345 -0.0692  2.7150 -2.8768
 5549TIP3   OH216652   4.006   0.974   0.107 -1.1136  0.4821  0.0458
 5549TIP3    H116653   3.988   0.892   0.154 -1.3337  0.4806 -0.0433
 5549TIP3    H216654   3.983   0.954   0.016  1.1576 -0.1724 -0.4720
 5550TIP3   OH216655   2.196   0.994   3.201  0.2050 -0.3976 -0.2409
 5550TIP3    H116656   2.123   0.936   3.177 -1.6129  1.1845  1.1447
 5550TIP3    H216657   2.273   0.938   3.197 -1.1452 -2.3049 -1.2076
 5551TIP3   OH216658   1.922   2.164   2.340  0.8329  0.5512 -0.0183
 5551TIP3    H116659   1.843   2.159   2.393 -0.1732  1.4317 -1.3698
 5551TIP3    H216660   1.969   2.240   2.374  0.5140  0.7239  0.0432
 5552TIP3   OH216661   2.823   4.683   2.087 -0.4035 -0.4625  0.4551
 5552TIP3    H116662   2.855   4.773   2.094 -1.6201 -0.0923  1.8848
 5552TIP3    H216663   2.852   4.641   2.168 -1.1047 -0.9211  0.4749
 5553TIP3   OH216664   3.896   0.889   1.780 -0.6834  0.9579  0.1536
 5553TIP3    H116665   3.925   0.894   1.689  1.1739 -1.8656  0.4789
 5553TIP3    H216666   3.843   0.809   1.784 -0.3932  0.8109  1.6374
 5554TIP3   OH216667   5.356   2.495   0.614  0.4361  0.3729  0.4036
 5554TIP3    H116668   5.326   2.521   0.701 -1.9246  1.3626 -0.6303
 5554TIP3    H216669   5.280   2.453   0.573  1.1590  0.8511 -1.5563
 5555TIP3   OH216670   2.169   1.241   2.768  0.6212 -0.4829  0.2450
 5555TIP3    H116671   2.158   1.145   2.765  2.6164 -0.7470  0.3050
 5555TIP3    H216672   2.207   1.258   2.854 -1.6042  0.6552  1.0934
 5556TIP3   OH216673   3.783   0.972   2.035 -0.0665 -0.1638  0.2054
 5556TIP3    H116674   3.815   0.956   1.946  0.5776 -0.7325  0.5311
 5556TIP3    H216675   3.721   1.044   2.025  1.1652  0.8445 -0.4781
 5557TIP3   OH216676   1.827   5.252   5.137 -0.0630  0.2724  0.2698
 5557TIP3    H116677   1.833   5.330   5.081 -0.3408  0.4014  0.4168
 5557TIP3    H216678   1.813   5.180   5.075 -0.6433  0.4506  0.1851
 5558TIP3   OH216679   5.280   4.125   1.353  0.0750 -0.1769  0.9489
 5558TIP3    H116680   5.315   4.182   1.422  1.0971  0.6969 -0.2285
 5558TIP3    H216681   5.358   4.095   1.306 -0.6242 -0.1518 -0.2691
 5559TIP3   OH216682   1.799   5.017   2.979  0.3005 -0.0148  0.3966
 5559TIP3    H116683   1.766   5.051   3.063 -0.1517 -1.0651  0.6589
 5559TIP3    H216684   1.785   4.923   2.984  1.3728 -0.2320 -0.3900
 5560TIP3   OH216685   1.944   0.999   2.100  0.0674  0.3880 -0.3372
 5560TIP3    H116686   1.956   1.047   2.018 -1.6087 -0.8456 -1.3793
 5560TIP3    H216687   1.991   1.051   2.165  1.2553  1.5498 -2.0082
 5561TIP3   OH216688   5.352   3.198   1.941  0.1709 -0.5601  0.5597
 5561TIP3    H116689   5.388   3.149   2.015  2.0841 -1.3104 -0.7706
 5561TIP3    H216690   5.397   3.161   1.864  1.5953  3.0713 -0.5682
 5562TIP3   OH216691   3.553   3.963   1.216 -0.0223 -0.1231 -0.3559
 5562TIP3    H116692   3.633   3.945   1.266  1.3054  0.7546 -2.0649
 5562TIP3    H216693   3.515   4.040   1.258  3.1284  3.0758 -2.7468
 5563TIP3   OH216694   1.159   1.391   3.574  0.3331  0.8436  0.2516
 5563TIP3    H116695   1.116   1.443   3.642 -0.9204  0.4168 -0.1842
 5563TIP3    H216696   1.170   1.452   3.501  0.0229  0.8322  0.1943
 5564TIP3   OH216697   2.076   5.674   3.601 -0.3839  0.0010 -0.0393
 5564TIP3    H116698   2.093   5.579   3.604  2.2584  0.3831 -0.0711
 5564TIP3    H216699   2.041   5.695   3.687 -2.7348 -1.2287 -0.6280
 5565TIP3   OH216700   1.834   0.220   3.576 -0.8165  0.3917 -0.9633
 5565TIP3    H116701   1.757   0.272   3.554 -0.7451 -0.1593 -2.6063
 5565TIP3    H216702   1.903   0.284   3.594 -2.0436  0.9866  2.4930
 5566TIP3   OH216703   2.173   3.253   1.086 -1.0347 -0.0533 -0.2966
 5566TIP3    H116704   2.264   3.275   1.065 -0.4453 -1.0964  1.0371
 5566TIP3    H216705   2.123   3.282   1.010  0.1984  1.9886 -0.4153
 5567TIP3   OH216706   3.144   3.816   2.345 -0.3031 -0.2146 -0.0975
 5567TIP3    H116707   3.190   3.888   2.302 -0.1277  0.3891  1.0652
 5567TIP3    H216708   3.054   3.846   2.353 -0.5839 -0.7695 -0.9831
 5568TIP3   OH216709   1.117   1.434   1.529 -0.2057 -0.4355 -0.2871
 5568TIP3    H116710   1.194   1.475   1.488 -1.2517  0.2531 -1.6280
 5568TIP3    H216711   1.143   1.420   1.620  0.7273  1.8340 -0.1362
 5569TIP3   OH216712   3.207   4.217   2.356 -0.0525  0.6060 -0.3325
 5569TIP3    H116713   3.229   4.249   2.444 -0.4744 -1.1494  0.4485
 5569TIP3    H216714   3.220   4.293   2.299  1.9938  1.3144  0.9721
 5570TIP3   OH216715   0.472   0.756   4.317 -0.3193  0.0564  0.1272
 5570TIP3    H116716   0.407   0.726   4.253  0.1794  1.7040 -1.2139
 5570TIP3    H216717   0.461   0.851   4.321  2.0358  0.4160 -0.2312
 5571TIP3   OH216718   1.496   0.625   4.298  0.2448 -0.3307 -0.2019
 5571TIP3    H116719   1.419   0.679   4.280  0.1250 -0.6231 -0.5956
 5571TIP3    H216720   1.519   0.644   4.388 -1.9273 -2.2481  0.8693
 5572TIP3   OH216721   5.241   0.439   2.926 -0.2022  0.3720 -0.6786
 5572TIP3    H116722   5.307   0.397   2.982  0.0239  0.0825 -1.1514
 5572TIP3    H216723   5.180   0.368   2.904  0.5426  0.1107 -2.0206
 5573TIP3   OH216724   0.695   0.932   4.425 -0.0790  0.2719  0.2113
 5573TIP3    H116725   0.656   1.012   4.462 -1.0508 -0.0290 -0.1152
 5573TIP3    H216726   0.704   0.873   4.500 -0.9933  0.0719  0.1784
 5574TIP3   OH216727   6.235   2.801   2.141  0.9514  0.1009  0.4744
 5574TIP3    H116728   6.299   2.869   2.118  0.3166  0.6541  0.2815
 5574TIP3    H216729   6.228   2.806   2.237  0.2776  0.9167  0.3972
 5575TIP3   OH216730   3.106   3.019   3.385 -0.3576 -0.2993 -0.3696
 5575TIP3    H116731   3.181   3.025   3.444  0.1521 -0.6325 -0.9679
 5575TIP3    H216732   3.083   3.110   3.366  0.0569 -0.1974 -0.3811
 5576TIP3   OH216733   4.898   1.076   3.557 -0.1568  0.2045  0.0373
 5576TIP3    H116734   4.808   1.101   3.535 -0.1934 -0.1300 -0.1968
 5576TIP3    H216735   4.930   1.030   3.480  0.1013  0.0246  0.2485
 5577TIP3   OH216736   2.348   0.523   3.877  0.2539  0.7294 -0.3459
 5577TIP3    H116737   2.281   0.455   3.881 -0.5637  1.2961 -2.7559
 5577TIP3    H216738   2.323   0.586   3.944 -1.0261  0.4044 -0.4986
 5578TIP3   OH216739   2.457   3.378   0.093  0.2331  0.0359 -0.1174
 5578TIP3    H116740   2.438   3.291   0.058 -0.7958  0.8363 -1.6545
 5578TIP3    H216741   2.394   3.390   0.164  2.2033 -1.5223  2.0464
 5579TIP3   OH216742   1.499   2.636   2.141 -0.0041  0.3978  0.1201
 5579TIP3    H116743   1.579   2.657   2.094 -1.5374  0.9669 -2.4543
 5579TIP3    H216744   1.465   2.720   2.170  0.0422  0.2082  0.7465
 5580TIP3   OH216745   4.743   0.619   2.527 -0.0005 -0.0151  0.1261
 5580TIP3    H116746   4.755   0.584   2.439  1.2541 -2.0385  1.0431
 5580TIP3    H216747   4.824   0.668   2.544 -0.0665  0.0289  0.3138
 5581TIP3   OH216748   1.760   3.779   2.589  0.0888  0.4251 -0.2472
 5581TIP3    H116749   1.744   3.846   2.656 -0.2093  0.7934 -0.6842
 5581TIP3    H216750   1.827   3.723   2.628 -1.6799 -0.7458  1.3499
 5582TIP3   OH216751   3.924   2.145   2.416 -0.4343 -0.1645 -0.6901
 5582TIP3    H116752   3.926   2.097   2.499 -0.2170  0.3702 -0.3813
 5582TIP3    H216753   3.867   2.220   2.433 -0.1348  0.1175 -0.9297
 5583TIP3   OH216754   1.408   1.988   1.365 -0.7031  0.0871 -0.0494
 5583TIP3    H116755   1.500   1.963   1.374 -0.7364 -0.1386 -0.3403
 5583TIP3    H216756   1.360   1.922   1.415 -1.1058 -2.6701 -3.6996
 5584TIP3   OH216757   3.596   1.709   1.100 -0.4428  0.1011 -0.3054
 5584TIP3    H116758   3.613   1.726   1.008  0.9819 -0.0270 -0.0829
 5584TIP3    H216759   3.505   1.677   1.102 -0.8603  1.1412 -1.5159
 5585TIP3   OH216760   4.940   1.164   1.272 -0.4234 -0.0925 -0.3418
 5585TIP3    H116761   4.870   1.190   1.211 -0.9354 -0.0984  0.2323
 5585TIP3    H216762   4.984   1.246   1.294 -0.6208 -0.0085 -0.2567
 5586TIP3   OH216763   5.892   2.187   4.509  0.1220  0.3167 -0.1984
 5586TIP3    H116764   5.838   2.265   4.520 -0.4509  0.4555 -3.1782
 5586TIP3    H216765   5.920   2.165   4.598 -2.2606  2.0599  1.1214
 5587TIP3   OH216766   4.040   5.379   0.570 -0.4097 -0.3781 -0.0765
 5587TIP3    H116767   4.134   5.393   0.565 -0.6156  0.8937 -0.5390
 5587TIP3    H216768   4.018   5.327   0.492 -0.3786  1.0240 -1.0416
 5588TIP3   OH216769   6.097   2.906   2.446 -0.5228  0.2644  0.4287
 5588TIP3    H116770   6.103   2.862   2.530 -0.6007 -0.6722 -0.0355
 5588TIP3    H216771   6.177   2.958   2.439  0.6278 -1.4503  0.1148
 5589TIP3   OH216772   4.758   3.734   3.320 -0.0557  0.6209 -0.2707
 5589TIP3    H116773   4.838   3.683   3.312 -0.6757 -0.4595  0.1146
 5589TIP3    H216774   4.756   3.789   3.242  1.1596  0.8168 -0.1725
 5590TIP3   OH216775   5.619   2.446   2.488  0.0666 -0.3128 -0.4365
 5590TIP3    H116776   5.566   2.517   2.524  1.6129  1.0097 -0.6463
 5590TIP3    H216777   5.665   2.486   2.414  1.5408 -1.3104 -0.1037
 5591TIP3   OH216778   6.329   3.160   3.091  0.8097 -0.5430 -0.4534
 5591TIP3    H116779   6.261   3.106   3.132  1.3856 -1.3031 -0.4730
 5591TIP3    H216780   6.407   3.143   3.143  1.2198 -0.4485 -1.0302
 5592TIP3   OH216781   6.280   4.745   3.636  0.5537 -0.1214  0.6718
 5592TIP3    H116782   6.321   4.704   3.560  0.8013 -1.8512  1.6900
 5592TIP3    H216783   6.354   4.769   3.692  0.4038  1.6324  0.1705
 5593TIP3   OH216784   4.736   3.077   0.392 -0.4768 -0.6016 -1.0543
 5593TIP3    H116785   4.677   3.132   0.341 -0.9412  0.3373  0.4082
 5593TIP3    H216786   4.795   3.139   0.435 -1.9940 -0.9864  1.8979
 5594TIP3   OH216787   0.788   0.713   0.693  0.5367  0.2015  0.2236
 5594TIP3    H116788   0.842   0.769   0.638  1.4876 -0.6522  0.2552
 5594TIP3    H216789   0.834   0.710   0.777 -0.1272  0.3116  0.6022
 5595TIP3   OH216790   0.165   0.781   0.884 -0.0350  0.6484  0.2234
 5595TIP3    H116791   0.246   0.824   0.857  0.1878  0.2971  0.3291
 5595TIP3    H216792   0.143   0.723   0.810  1.3706 -1.4363  1.3449
 5596TIP3   OH216793   5.811   4.662   0.840 -0.3734 -0.5174 -0.4654
 5596TIP3    H116794   5.876   4.640   0.773  0.2412  2.2774 -0.8801
 5596TIP3    H216795   5.850   4.733   0.890 -2.7544  0.7055 -0.1995
 5597TIP3   OH216796   3.473   5.376   4.729 -0.3861  0.1775  0.1153
 5597TIP3    H116797   3.397   5.425   4.697 -0.2101  0.5561  0.2584
 5597TIP3    H216798   3.449   5.284   4.719 -0.9361  0.2917  0.3181
 5598TIP3   OH216799   6.042   2.469   4.508  0.4197 -0.0826 -0.4197
 5598TIP3    H116800   5.950   2.452   4.531  0.7587 -0.2820  0.8691
 5598TIP3    H216801   6.066   2.546   4.559  1.4854 -1.1110  0.6990
 5599TIP3   OH216802   1.141   2.645   4.670  0.1469 -0.4104  0.4373
 5599TIP3    H116803   1.106   2.556   4.678 -0.8455 -0.0303  0.5156
 5599TIP3    H216804   1.148   2.660   4.576  2.2387 -1.2703  0.4016
 5600TIP3   OH216805   2.887   1.349   1.634  0.3411 -0.8245 -0.8891
 5600TIP3    H116806   2.871   1.328   1.726  0.8066 -1.3459 -0.9241
 5600TIP3    H216807   2.802   1.376   1.601 -0.1828 -2.1904 -0.7141
 5601TIP3   OH216808   0.684   5.265   3.885 -0.8857  0.3139  0.0122
 5601TIP3    H116809   0.768   5.287   3.925 -0.1304 -1.5309 -0.4253
 5601TIP3    H216810   0.676   5.325   3.811  0.0647  0.5354  0.0754
 5602TIP3   OH216811   5.687   3.519   5.090  0.0811  0.4904  0.0156
 5602TIP3    H116812   5.659   3.562   5.171  1.3551 -0.2726  0.9008
 5602TIP3    H216813   5.766   3.470   5.115  0.4492  0.1618 -1.6692
 5603TIP3   OH216814   4.618   3.499   1.694 -0.4603 -0.4098  0.6625
 5603TIP3    H116815   4.704   3.457   1.689 -0.4090 -0.1988 -0.3786
 5603TIP3    H216816   4.632   3.577   1.748 -0.1392 -0.6989  1.0041
 5604TIP3   OH216817   4.619   2.164   2.903 -0.3062  0.0885 -0.2091
 5604TIP3    H116818   4.577   2.187   2.820  1.2373  1.3771 -0.6943
 5604TIP3    H216819   4.603   2.240   2.959  0.4953  0.1651 -0.0761
 5605TIP3   OH216820   2.007   0.145   1.368 -0.3595  0.2906 -0.5684
 5605TIP3    H116821   1.940   0.080   1.388  0.8485 -1.0094 -0.6518
 5605TIP3    H216822   2.083   0.119   1.420  0.4400  1.1116 -1.2916
 5606TIP3   OH216823   0.988   5.585   1.620 -0.1066  0.5160  0.5228
 5606TIP3    H116824   0.995   5.554   1.529  2.5983  0.8757  0.5387
 5606TIP3    H216825   0.963   5.678   1.611  1.9817  1.0737  0.0096
 5607TIP3   OH216826   2.753   3.171   0.040 -0.0595  0.1589  0.1853
 5607TIP3    H116827   2.820   3.225   0.082  1.3091 -1.1817 -0.1618
 5607TIP3    H216828   2.756   3.088   0.087 -0.9041 -0.1956 -0.3614
 5608TIP3   OH216829   2.716   0.093   4.307  0.0597 -0.2564  0.5700
 5608TIP3    H116830   2.626   0.105   4.277  0.7294 -1.3118 -2.1965
 5608TIP3    H216831   2.769   0.144   4.245  1.5858 -2.9405 -0.4971
 5609TIP3   OH216832   0.760   4.686   2.588 -0.4804  0.4262 -0.2597
 5609TIP3    H116833   0.837   4.669   2.642 -1.0775  0.1552  0.5241
 5609TIP3    H216834   0.727   4.599   2.566 -0.0655  0.5245 -1.3447
 5610TIP3   OH216835   3.305   5.208   4.230  0.3162 -0.1921  0.0035
 5610TIP3    H116836   3.244   5.270   4.270 -1.6771 -1.6393 -0.6182
 5610TIP3    H216837   3.269   5.191   4.143  1.4303 -1.3735 -0.2678
 5611TIP3   OH216838   1.917   4.447   3.146 -0.1319 -0.5469 -0.1697
 5611TIP3    H116839   1.981   4.403   3.201 -0.1439  1.1530  1.2763
 5611TIP3    H216840   1.845   4.384   3.138  0.6625 -1.5268  0.2093
 5612TIP3   OH216841   5.093   5.687   3.783  0.0646  0.1824 -0.5310
 5612TIP3    H116842   5.143   5.683   3.701  0.6277 -0.3895 -0.1577
 5612TIP3    H216843   5.080   5.596   3.808  0.4005  0.3668  0.3317
 5613TIP3   OH216844   1.324   0.875  -0.001  0.1735  0.5062 -0.1229
 5613TIP3    H116845   1.270   0.947  -0.036  1.3540  1.4627 -0.0597
 5613TIP3    H216846   1.301   0.870   0.091 -0.5377  0.2339 -0.3166
 5614TIP3   OH216847   4.234   3.888   4.351  0.0150  0.0218 -0.3310
 5614TIP3    H116848   4.301   3.953   4.367 -1.2913  1.0621  1.2148
 5614TIP3    H216849   4.226   3.885   4.255  2.5227 -0.4952 -0.5951
 5615TIP3   OH216850   2.486   0.970   2.856  0.2627  0.4166 -0.0436
 5615TIP3    H116851   2.564   1.013   2.822 -0.1307  1.0561 -0.1656
 5615TIP3    H216852   2.414   1.028   2.830 -0.6232 -1.6486 -2.5870
 5616TIP3   OH216853   1.120   0.377   0.951 -0.3562 -0.1637 -0.0495
 5616TIP3    H116854   1.050   0.374   0.885  1.1523 -0.2406 -1.7191
 5616TIP3    H216855   1.152   0.287   0.956  0.0324 -0.0134  0.2345
 5617TIP3   OH216856   4.896   0.925   2.259  0.0023 -0.1665 -0.0258
 5617TIP3    H116857   4.965   0.907   2.323  1.0871  1.1050 -0.7893
 5617TIP3    H216858   4.878   0.840   2.219  0.0683 -0.7834  1.2045
 5618TIP3   OH216859   6.049   1.188   4.165 -0.0105 -0.0232  0.0011
 5618TIP3    H116860   6.082   1.098   4.159  1.6770  0.5343  0.5722
 5618TIP3    H216861   6.126   1.243   4.152 -0.7720  1.3442  1.0697
 5619TIP3   OH216862   0.922   2.602   2.495 -0.8063  0.6492  0.1084
 5619TIP3    H116863   0.918   2.509   2.514 -0.8455  0.9604  1.7941
 5619TIP3    H216864   0.831   2.630   2.491 -0.8328  1.0086  1.9938
 5620TIP3   OH216865   6.195   4.432   4.584  0.4313 -0.1478  0.0479
 5620TIP3    H116866   6.197   4.390   4.498  0.0143  0.6849 -0.3819
 5620TIP3    H216867   6.155   4.517   4.568  2.4299  0.9765  0.6458
 5621TIP3   OH216868   0.455   4.046   2.910  0.0181 -0.1738 -0.3840
 5621TIP3    H116869   0.469   3.952   2.921  1.9892  0.1364  0.2016
 5621TIP3    H216870   0.539   4.086   2.934 -0.9208  1.7750 -0.1174
 5622TIP3   OH216871   4.771   3.997   4.289  0.1376 -0.3137 -0.1833
 5622TIP3    H116872   4.753   4.060   4.220  0.7459  1.2281  1.0033
 5622TIP3    H216873   4.716   3.921   4.269 -0.7002  0.6440 -1.5805
 5623TIP3   OH216874   0.344   3.951   0.249  0.3699 -0.1078 -0.4778
 5623TIP3    H116875   0.316   3.916   0.333  1.8298 -0.1563  0.0001
 5623TIP3    H216876   0.386   4.034   0.269  1.1726 -0.3461 -1.0850
 5624TIP3   OH216877   2.945   4.830   0.025 -0.1155 -0.2540  0.8647
 5624TIP3    H116878   2.927   4.923   0.041 -0.5782 -0.6174  2.5936
 5624TIP3    H216879   3.022   4.831  -0.032  0.0224  1.1726  1.0230
 5625TIP3   OH216880   2.086   1.017   0.416 -0.7209  0.2830 -0.2445
 5625TIP3    H116881   2.098   0.930   0.454 -0.9453  0.4908  0.3197
 5625TIP3    H216882   2.165   1.031   0.364 -0.2339  0.1310  0.4343
 5626TIP3   OH216883   0.494   1.557   4.627  0.0894  0.0028 -0.7156
 5626TIP3    H116884   0.537   1.564   4.712  0.5755 -1.6957 -0.7797
 5626TIP3    H216885   0.564   1.532   4.567 -0.0547  2.0734 -1.8411
 5627TIP3   OH216886   5.685   4.534   4.324  0.2910 -0.3673  0.4444
 5627TIP3    H116887   5.656   4.478   4.396  0.7307 -0.3872  0.6117
 5627TIP3    H216888   5.609   4.588   4.303 -0.9961 -2.7519 -1.4484
 5628TIP3   OH216889   2.409   3.274   0.568  0.1020 -0.0678  0.7854
 5628TIP3    H116890   2.482   3.213   0.566  0.4104  0.3191  0.0803
 5628TIP3    H216891   2.449   3.361   0.561 -0.5051  0.0740 -2.2442
 5629TIP3   OH216892   0.177   3.288   4.892 -0.2206  0.2336  0.2823
 5629TIP3    H116893   0.227   3.310   4.813 -0.6872  2.4102  0.5181
 5629TIP3    H216894   0.189   3.194   4.903  1.1980  0.1598 -1.4488
 5630TIP3   OH216895   3.782   2.358   3.512 -0.1504 -0.3524 -0.0234
 5630TIP3    H116896   3.815   2.270   3.495 -0.7585 -0.3420 -1.3762
 5630TIP3    H216897   3.798   2.372   3.606 -1.8846 -2.6874  0.7008
 5631TIP3   OH216898   5.629   1.421   4.471 -0.1636 -0.3310 -0.1111
 5631TIP3    H116899   5.544   1.454   4.443  0.3981 -0.4162 -2.0081
 5631TIP3    H216900   5.682   1.418   4.391  1.6950 -0.0871  1.0489
 5632TIP3   OH216901   3.852   3.322   1.110  0.1078 -0.3146  0.4643
 5632TIP3    H116902   3.783   3.306   1.174 -0.4904 -0.9178 -0.3148
 5632TIP3    H216903   3.824   3.402   1.065 -0.6468 -1.1092 -0.5457
 5633TIP3   OH216904   6.000   2.609   3.312 -0.1785 -0.0050  0.3123
 5633TIP3    H116905   6.037   2.566   3.389  1.7523  1.0832  0.0614
 5633TIP3    H216906   6.027   2.555   3.238  0.9485  0.7712  0.1311
 5634TIP3   OH216907   5.192   2.607   3.953  0.2098  0.0924  0.3862
 5634TIP3    H116908   5.156   2.656   3.879  0.3482  1.2902  1.0791
 5634TIP3    H216909   5.118   2.558   3.988 -0.1290  0.4453  0.1655
 5635TIP3   OH216910   2.422   2.921   4.761  0.4019 -0.2694 -0.1543
 5635TIP3    H116911   2.457   2.889   4.845 -0.2974  0.9483  0.6356
 5635TIP3    H216912   2.334   2.885   4.756  0.3163 -0.0532 -0.1985
 5636TIP3   OH216913   0.650   4.506   2.010 -0.2389  0.6393 -0.1276
 5636TIP3    H116914   0.714   4.441   1.983 -0.2288 -0.4247  2.2030
 5636TIP3    H216915   0.567   4.458   2.011 -0.2621  0.6525  1.4209
 5637TIP3   OH216916   2.109   4.354   4.212 -0.1077 -0.8753  0.0811
 5637TIP3    H116917   2.168   4.421   4.177  0.3188 -0.8479  0.8227
 5637TIP3    H216918   2.099   4.377   4.305 -0.6822 -1.3153  0.1332
 5638TIP3   OH216919   5.029   1.773   4.555  0.0380 -0.2153 -0.5000
 5638TIP3    H116920   5.120   1.744   4.549  0.0507 -0.1898 -0.4301
 5638TIP3    H216921   4.990   1.717   4.623  0.0634 -0.0676 -0.3637
 5639TIP3   OH216922   4.610   3.363   4.605 -0.1005  0.2029 -0.0030
 5639TIP3    H116923   4.579   3.451   4.625  1.4902  0.9271 -0.6115
 5639TIP3    H216924   4.659   3.336   4.682  0.0397  0.1591 -0.1060
 5640TIP3   OH216925   3.956   4.721   3.945  0.3968 -0.0351  0.0965
 5640TIP3    H116926   3.977   4.802   3.897  0.5686  0.4338  0.9366
 5640TIP3    H216927   3.863   4.729   3.964  0.7692  0.8106  1.6894
 5641TIP3   OH216928   0.258   4.504   1.354  0.4530 -0.2555 -0.2584
 5641TIP3    H116929   0.213   4.588   1.361  0.2602 -0.1652 -2.1873
 5641TIP3    H216930   0.348   4.523   1.382  0.7303  0.9088 -1.8206
 5642TIP3   OH216931   3.204   5.789   2.374  0.0672  0.9368 -0.2393
 5642TIP3    H116932   3.293   5.754   2.373 -1.8727 -5.1243 -0.7983
 5642TIP3    H216933   3.189   5.816   2.283  0.3689 -1.3825 -1.0430
 5643TIP3   OH216934   3.003   1.894   3.899  0.4223 -0.0622 -0.7412
 5643TIP3    H116935   2.976   1.843   3.976  0.5382  0.3410 -0.4264
 5643TIP3    H216936   2.925   1.897   3.844  0.3206 -0.3092 -0.6147
 5644TIP3   OH216937   2.629   5.882   4.140  0.2976  0.9906 -0.4216
 5644TIP3    H116938   2.657   5.820   4.209 -2.6904  1.5557  1.4943
 5644TIP3    H216939   2.637   5.968   4.181  0.0789  1.4878 -1.4095
 5645TIP3   OH216940   2.921   1.360   0.253  0.1416  0.2584 -0.6322
 5645TIP3    H116941   2.835   1.336   0.220  0.6194 -2.6458 -0.0846
 5645TIP3    H216942   2.977   1.367   0.175 -0.3226  1.0042 -0.9044
 5646TIP3   OH216943   0.835   5.374   2.003  0.9196 -0.2500 -0.0971
 5646TIP3    H116944   0.752   5.386   2.049  1.2404  0.2449  0.3656
 5646TIP3    H216945   0.899   5.424   2.054  1.1399  0.9812 -1.5152
 5647TIP3   OH216946   5.008   3.105   0.357 -0.3082 -0.1250 -0.2364
 5647TIP3    H116947   5.012   3.197   0.383 -1.9879  0.1123 -0.7071
 5647TIP3    H216948   4.921   3.094   0.319 -0.0687 -1.8701 -0.3809
 5648TIP3   OH216949   4.638   0.655   4.137 -0.6411 -0.0032 -0.6512
 5648TIP3    H116950   4.583   0.586   4.100 -1.2162  0.7116 -1.1654
 5648TIP3    H216951   4.632   0.727   4.074  0.7841  0.1516 -0.6522
 5649TIP3   OH216952   5.233   5.345   3.893 -0.4751  0.1289 -0.2327
 5649TIP3    H116953   5.179   5.400   3.835  0.0575  0.9347  0.0125
 5649TIP3    H216954   5.322   5.356   3.859 -0.5849 -2.2443 -1.4704
 5650TIP3   OH216955   4.562   4.675   3.466  0.4475  0.1443 -0.0742
 5650TIP3    H116956   4.533   4.675   3.375 -3.1666  1.8441  0.9018
 5650TIP3    H216957   4.609   4.757   3.477  1.6895 -0.4818 -0.5780
 5651TIP3   OH216958   0.733   3.883   1.720  0.3855  0.7991 -0.2322
 5651TIP3    H116959   0.696   3.800   1.750  0.2709  0.3606 -1.5229
 5651TIP3    H216960   0.661   3.946   1.730  0.0006  0.4252 -0.5891
 5652TIP3   OH216961   3.710   1.454   0.233 -0.1168 -0.2029  0.2582
 5652TIP3    H116962   3.804   1.445   0.252  0.3168 -1.6967 -2.1664
 5652TIP3    H216963   3.703   1.535   0.182  0.0949 -0.7499 -0.6677
 5653TIP3   OH216964   2.630   4.404   0.880 -0.2202 -0.3482  1.1812
 5653TIP3    H116965   2.589   4.490   0.876 -2.2131 -1.1934  1.9959
 5653TIP3    H216966   2.696   4.412   0.949  1.0826  1.0511 -0.1620
 5654TIP3   OH216967   3.610   2.228   2.179  0.2143  0.2303  0.3820
 5654TIP3    H116968   3.628   2.256   2.089 -0.2249  0.0518  0.2388
 5654TIP3    H216969   3.651   2.142   2.186  0.7133  0.4740  0.5207
 5655TIP3   OH216970   5.463   2.364   1.891  0.1219  0.5435 -0.3879
 5655TIP3    H116971   5.533   2.305   1.921  0.8493  1.3022 -0.5744
 5655TIP3    H216972   5.480   2.377   1.798 -0.1654  0.8788 -0.3969
 5656TIP3   OH216973   2.738   2.065   2.836  0.1676 -0.1646  0.4465
 5656TIP3    H116974   2.772   2.142   2.790 -1.6794 -0.1636 -1.0239
 5656TIP3    H216975   2.716   2.003   2.766  0.3947 -1.5194  1.5352
 5657TIP3   OH216976   3.341   2.290   2.692  0.0637 -0.0559  0.2177
 5657TIP3    H116977   3.426   2.255   2.720  0.7852  1.0533 -0.4834
 5657TIP3    H216978   3.341   2.380   2.723 -0.3847  0.2900 -0.7423
 5658TIP3   OH216979   1.749   5.010   3.772 -0.0559 -0.0988 -1.0951
 5658TIP3    H116980   1.801   5.067   3.715 -0.3031 -0.0122 -1.2356
 5658TIP3    H216981   1.814   4.953   3.813  0.5496  1.9081  0.9714
 5659TIP3   OH216982   3.001   5.788   3.494  0.3451 -0.0658  0.5989
 5659TIP3    H116983   2.941   5.758   3.563  0.8889 -0.4700  0.9017
 5659TIP3    H216984   3.060   5.714   3.480 -1.1631 -0.9400 -1.9668
 5660TIP3   OH216985   1.690   2.229   0.232  0.2591  0.3659 -0.7540
 5660TIP3    H116986   1.657   2.205   0.145 -2.2019 -0.6938  0.3704
 5660TIP3    H216987   1.709   2.145   0.274  1.1383  0.8505 -0.1607
 5661TIP3   OH216988   0.276   0.302   0.477  0.3983 -0.4844 -0.8323
 5661TIP3    H116989   0.216   0.266   0.412 -1.4260 -0.1727  0.6245
 5661TIP3    H216990   0.342   0.233   0.488 -0.6868 -1.6200 -1.1487
 5662TIP3   OH216991   1.422   3.887   1.691 -0.4334  0.0707  0.0100
 5662TIP3    H116992   1.408   3.939   1.612 -1.3086  2.4310  1.6237
 5662TIP3    H216993   1.374   3.933   1.760  0.0780 -2.0260  1.9093
 5663TIP3   OH216994   3.357   3.462   1.331 -0.0095  0.2700 -0.1155
 5663TIP3    H116995   3.419   3.452   1.258 -0.0473  2.5383 -0.5268
 5663TIP3    H216996   3.347   3.557   1.341 -2.7335 -0.0107  0.5470
 5664TIP3   OH216997   2.100   3.746   5.003 -0.2123  0.6383  0.1049
 5664TIP3    H116998   2.057   3.718   5.084 -1.7279  0.4552 -0.7206
 5664TIP3    H216999   2.129   3.835   5.020 -1.0733  0.8233  0.6566
 5665TIP3   OH217000   2.879   0.472   1.627  0.2700 -0.3118  0.0447
 5665TIP3    H117001   2.916   0.435   1.547 -0.0885  0.4484 -0.4748
 5665TIP3    H217002   2.903   0.564   1.625 -1.8377  0.2726 -0.4388
 5666TIP3   OH217003   4.367   1.553   1.942 -0.3669  0.4971  0.0962
 5666TIP3    H117004   4.412   1.527   1.861  1.8073  1.4009  0.9346
 5666TIP3    H217005   4.368   1.648   1.940 -1.8521  0.5479  0.4265
 5667TIP3   OH217006   2.021   4.461   2.026 -0.6156  0.2658 -0.1307
 5667TIP3    H117007   2.053   4.371   2.015  1.0675  0.9586 -1.3848
 5667TIP3    H217008   1.926   4.454   2.018 -0.4100 -1.1802 -2.1874
 5668TIP3   OH217009   6.197   4.260   0.193  0.5322  0.3229  0.1500
 5668TIP3    H117010   6.255   4.218   0.256 -0.5045  0.4752  1.2180
 5668TIP3    H217011   6.217   4.217   0.110  0.0321 -1.7547  1.0653
 5669TIP3   OH217012   0.650   4.683   3.722  0.1741 -1.0990  0.2879
 5669TIP3    H117013   0.563   4.647   3.743 -0.7227 -0.3443 -1.8519
 5669TIP3    H217014   0.664   4.658   3.631  0.9860  1.0930 -0.2382
 5670TIP3   OH217015   0.017   3.692   2.337  0.6175  0.0284  0.5822
 5670TIP3    H117016  -0.010   3.643   2.260 -1.1733  0.6671  0.7418
 5670TIP3    H217017   0.112   3.690   2.335  0.6124 -2.1318 -0.2285
 5671TIP3   OH217018   2.016   2.048   3.032  0.2604 -0.2241  0.6916
 5671TIP3    H117019   2.079   2.089   2.973  1.0038 -0.1061  1.5462
 5671TIP3    H217020   2.053   2.061   3.119 -0.4969 -0.9572  1.1339
 5672TIP3   OH217021   3.561   1.011   1.153 -0.6232 -0.3491  1.1991
 5672TIP3    H117022   3.508   1.019   1.233 -2.3097  0.1541  0.0902
 5672TIP3    H217023   3.513   0.948   1.099 -0.9237  1.1909 -0.4317
 5673TIP3   OH217024   5.891   1.372   4.321 -0.0124 -0.6721 -0.3226
 5673TIP3    H117025   5.900   1.444   4.258  3.5419  1.2440  2.0364
 5673TIP3    H217026   5.947   1.303   4.287  0.8136 -0.1699 -0.0230
 5674TIP3   OH217027   5.377   5.553   4.291  0.2663 -0.0725 -0.6242
 5674TIP3    H117028   5.376   5.514   4.378  0.6978  0.6169 -0.3024
 5674TIP3    H217029   5.445   5.620   4.295 -1.6729  2.0036 -0.5837
 5675TIP3   OH217030   1.395   2.394   1.669  0.2911  0.1714  0.0414
 5675TIP3    H117031   1.440   2.478   1.660  0.0009  0.2999 -0.2180
 5675TIP3    H217032   1.340   2.387   1.591  0.5639 -0.4161 -0.1057
 5676TIP3   OH217033   5.633   1.825   4.557  0.5848  0.7345 -0.5061
 5676TIP3    H117034   5.631   1.745   4.611 -0.2152 -0.3240 -2.0254
 5676TIP3    H217035   5.563   1.812   4.493  2.3032  1.3146 -2.6281
 5677TIP3   OH217036   0.069   2.657   0.108 -0.4350 -0.0124  0.1155
 5677TIP3    H117037   0.051   2.616   0.193  0.9894  0.4998  0.6988
 5677TIP3    H217038   0.098   2.745   0.130 -0.4977  0.2854 -0.9445
 5678TIP3   OH217039   0.560   5.797   1.965 -0.2473 -0.8422  0.7449
 5678TIP3    H117040   0.574   5.707   1.936 -1.0582 -0.1932 -1.9855
 5678TIP3    H217041   0.645   5.827   1.996  0.2901 -2.1837  0.6021
 5679TIP3   OH217042   3.790   1.405   4.566  0.6070  0.2084 -0.2549
 5679TIP3    H117043   3.746   1.412   4.481  0.0648 -3.0141 -0.3724
 5679TIP3    H217044   3.883   1.397   4.544  0.8273  2.3232 -0.2899
 5680TIP3   OH217045   2.651   0.252   3.634 -0.1787  0.3944 -0.2943
 5680TIP3    H117046   2.632   0.345   3.634 -0.6141  0.3063  0.0022
 5680TIP3    H217047   2.587   0.214   3.694  1.1012  0.1171  0.9271
 5681TIP3   OH217048   1.535   5.331   5.085  0.1977  0.4073  0.0006
 5681TIP3    H117049   1.461   5.386   5.057 -0.0991 -0.4849 -1.0383
 5681TIP3    H217050   1.554   5.276   5.009  1.2118 -0.1559  0.6419
 5682TIP3   OH217051   1.533   2.989   1.485 -0.5146 -0.1779 -0.0385
 5682TIP3    H117052   1.627   2.996   1.504  0.2466 -3.7961 -1.5811
 5682TIP3    H217053   1.516   3.058   1.421  1.2720  0.2047 -0.1429
 5683TIP3   OH217054   1.789   3.721   0.076  0.4269  0.0109 -0.2165
 5683TIP3    H117055   1.716   3.772   0.040 -0.8575 -1.6994 -0.1915
 5683TIP3    H217056   1.853   3.718   0.006  0.9105  2.2908  0.0636
 5684TIP3   OH217057   0.949   0.120   1.217  0.2813  0.2049 -0.1736
 5684TIP3    H117058   0.992   0.203   1.234  0.9278  0.1081 -1.2259
 5684TIP3    H217059   0.896   0.103   1.295  0.0420  1.6554  0.0028
 5685TIP3   OH217060   5.831   3.626   0.926 -0.8277  0.2029  0.4592
 5685TIP3    H117061   5.827   3.676   0.845 -0.5411 -1.6848 -0.7861
 5685TIP3    H217062   5.925   3.608   0.938 -1.0909 -2.2222 -0.5967
 5686TIP3   OH217063   4.083   3.372   1.224  0.0253 -0.2982  0.3752
 5686TIP3    H117064   4.096   3.443   1.161 -1.0816  0.7822  1.2936
 5686TIP3    H217065   4.005   3.326   1.192  0.8645 -1.2632 -0.3347
 5687TIP3   OH217066   1.141   3.136   0.717 -0.6432  0.3989  0.5085
 5687TIP3    H117067   1.097   3.131   0.632  0.4262 -0.4796 -0.0243
 5687TIP3    H217068   1.187   3.219   0.715  0.1139 -0.0226 -0.1657
 5688TIP3   OH217069   2.075   2.585   3.426 -0.5289 -0.0934 -0.1016
 5688TIP3    H117070   1.980   2.593   3.433 -0.6761  0.2515 -1.9286
 5688TIP3    H217071   2.089   2.499   3.387 -0.0392 -0.4655  0.8796
 5689TIP3   OH217072   3.234   2.259   4.115 -0.0363 -0.1763  0.2560
 5689TIP3    H117073   3.207   2.196   4.049 -1.1875 -0.5825  1.0828
 5689TIP3    H217074   3.297   2.212   4.170 -1.3874 -0.8632  1.2693
 5690TIP3   OH217075   6.268   1.588   2.776  0.9563 -0.5366  0.4356
 5690TIP3    H117076   6.314   1.517   2.733  0.9346 -0.6935  0.6690
 5690TIP3    H217077   6.302   1.668   2.735 -0.2013 -0.7261 -0.9780
 5691TIP3   OH217078   4.029   1.378   0.497  0.2317  0.4932 -0.4768
 5691TIP3    H117079   4.066   1.405   0.581  1.2669  1.1374 -1.1112
 5691TIP3    H217080   3.936   1.400   0.503  0.3649  0.8556  0.3609
 5692TIP3   OH217081   2.943   2.764   3.801 -0.3749  0.1147  0.7942
 5692TIP3    H117082   2.933   2.789   3.709  0.8305 -0.6265  0.4350
 5692TIP3    H217083   2.962   2.845   3.847  0.0136  0.3523  0.2174
 5693TIP3   OH217084   5.863   1.439   1.848  0.2349  0.5472  0.1442
 5693TIP3    H117085   5.955   1.413   1.844  0.2941  0.9118 -1.6704
 5693TIP3    H217086   5.856   1.513   1.788 -0.9854  1.4100  1.3015
 5694TIP3   OH217087   5.539   0.909   1.211  0.4794  0.1287  0.3131
 5694TIP3    H117088   5.445   0.917   1.194  0.6226 -1.0741 -1.3306
 5694TIP3    H217089   5.546   0.835   1.272  0.4133 -0.4795 -0.4079
 5695TIP3   OH217090   2.925   5.062   2.738 -0.1848 -0.3823 -0.5929
 5695TIP3    H117091   2.837   5.030   2.720  0.1637 -1.0929 -1.0813
 5695TIP3    H217092   2.968   5.066   2.652  0.1057  0.4382 -0.4227
 5696TIP3   OH217093   3.441   4.985   3.265 -0.6024 -0.3863  0.2053
 5696TIP3    H117094   3.394   5.045   3.323  0.8591  0.0824  0.9501
 5696TIP3    H217095   3.396   4.993   3.181 -1.2050  0.8180  0.6207
 5697TIP3   OH217096   3.305   2.061   4.705  0.4457 -0.2445  0.0216
 5697TIP3    H117097   3.360   2.028   4.776  1.5692 -0.8913 -1.0981
 5697TIP3    H217098   3.215   2.050   4.736  0.8598 -2.1073  0.6745
 5698TIP3   OH217099   0.447   4.847   3.887 -0.1462 -0.5553  0.0343
 5698TIP3    H117100   0.414   4.787   3.953  3.0982 -1.5414  0.9121
 5698TIP3    H217101   0.497   4.792   3.827 -0.1832  0.8082 -1.3202
 5699TIP3   OH217102   3.940   4.112   1.205  0.1166  0.4576  0.1435
 5699TIP3    H117103   3.938   4.098   1.299  0.7767  1.3987  0.3081
 5699TIP3    H217104   3.994   4.190   1.193  0.4123  0.0946 -1.0416
 5700TIP3   OH217105   2.460   4.645   0.860 -0.1838 -0.4765 -0.2214
 5700TIP3    H117106   2.464   4.659   0.955  2.1461  1.2867 -0.4814
 5700TIP3    H217107   2.400   4.713   0.829 -0.6564 -0.8180 -0.0767
 5701TIP3   OH217108   0.794   4.183   4.144 -0.2333  0.4244 -0.5435
 5701TIP3    H117109   0.798   4.245   4.217  0.0618 -0.7886  0.5296
 5701TIP3    H217110   0.703   4.182   4.117 -0.9068 -0.9479  1.5415
 5702TIP3   OH217111   2.712   1.965   5.190  0.1700  0.1492  0.4381
 5702TIP3    H117112   2.634   2.013   5.163 -1.1647 -2.3647 -0.4432
 5702TIP3    H217113   2.693   1.873   5.171  3.8116 -0.5037 -0.9840
 5703TIP3   OH217114   0.990   0.258   1.969 -0.4965  0.7280  0.0334
 5703TIP3    H117115   1.032   0.174   1.982  0.2084  1.2335  1.1160
 5703TIP3    H217116   1.040   0.300   1.898  0.0391  0.8098  0.4577
 5704TIP3   OH217117   5.181   5.125   2.935  0.4142  0.4925  1.1927
 5704TIP3    H117118   5.264   5.076   2.943 -0.2748 -0.7339  1.0695
 5704TIP3    H217119   5.195   5.184   2.861  0.5737 -0.9961 -0.0047
 5705TIP3   OH217120   6.253   3.059   2.616  0.7184 -0.6603  0.2503
 5705TIP3    H117121   6.213   3.139   2.581  1.4247 -0.4764 -0.1459
 5705TIP3    H217122   6.284   3.083   2.703 -1.7491 -1.3291  1.3989
 5706TIP3   OH217123   3.803   5.571   1.098  0.0728  0.6032 -0.4738
 5706TIP3    H117124   3.745   5.618   1.038  0.4431  1.4377 -0.1981
 5706TIP3    H217125   3.802   5.624   1.178 -0.1046 -0.2787  0.1262
 5707TIP3   OH217126   3.937   2.551   1.142  0.2723 -0.0291 -0.2744
 5707TIP3    H117127   3.892   2.517   1.064  0.0115 -1.5641  0.5063
 5707TIP3    H217128   3.992   2.622   1.108 -0.0774 -0.4383 -1.8069
 5708TIP3   OH217129   4.535   2.061   3.413 -0.1452  0.5716  0.2083
 5708TIP3    H117130   4.567   2.048   3.324 -0.8589  0.5790 -0.0581
 5708TIP3    H217131   4.611   2.093   3.461 -0.0854  1.9068 -0.7268
 5709TIP3   OH217132   5.079   1.585   0.097  0.4486  0.1324 -0.1012
 5709TIP3    H117133   5.153   1.645   0.093  0.8850 -0.3710 -4.3833
 5709TIP3    H217134   5.117   1.501   0.124  0.8027  0.5328  0.6909
 5710TIP3   OH217135   6.210   0.868   3.411  0.2575 -0.9960 -0.1154
 5710TIP3    H117136   6.238   0.821   3.333  2.3530  0.7418 -0.5241
 5710TIP3    H217137   6.161   0.943   3.377 -1.4446 -1.8125  0.4340
 5711TIP3   OH217138   1.312   3.607   2.204 -0.4437 -0.2686 -0.0292
 5711TIP3    H117139   1.358   3.690   2.197 -1.8333  0.5541  0.2375
 5711TIP3    H217140   1.327   3.579   2.294  1.9799 -1.5453 -0.7324
 5712TIP3   OH217141   0.054   1.463   2.556 -0.5434 -0.6304 -0.4413
 5712TIP3    H117142   0.103   1.545   2.565 -0.3125 -0.7451 -0.6177
 5712TIP3    H217143   0.056   1.444   2.462  2.4472 -2.6334 -0.1186
 5713TIP3   OH217144   0.396   5.211   0.928 -0.4259 -0.0747  0.0384
 5713TIP3    H117145   0.436   5.280   0.981  1.0948  0.5041 -1.7512
 5713TIP3    H217146   0.468   5.151   0.909 -0.6761  0.2061 -2.0482
 5714TIP3   OH217147   4.250   1.913   2.701  0.1551  0.1087  0.3246
 5714TIP3    H117148   4.340   1.900   2.670  1.4475  2.8768  2.4365
 5714TIP3    H217149   4.254   1.892   2.795 -1.5510 -0.1493  0.3698
 5715TIP3   OH217150   1.856   2.939   3.941  0.0732 -0.2422 -0.0621
 5715TIP3    H117151   1.868   3.004   4.011 -1.7686 -0.0954  0.1855
 5715TIP3    H217152   1.792   2.877   3.976  1.6122 -2.1094 -0.3923
 5716TIP3   OH217153   5.164   5.024   5.106 -0.0915  0.4365  0.2308
 5716TIP3    H117154   5.235   4.997   5.164 -0.1380 -0.1091  0.0372
 5716TIP3    H217155   5.152   5.117   5.125 -0.4460  0.1557  1.4715
 5717TIP3   OH217156   4.456   0.976   4.629  0.0461  0.2170  0.5097
 5717TIP3    H117157   4.363   0.993   4.616 -0.0266 -0.4178  0.1293
 5717TIP3    H217158   4.490   1.055   4.671 -0.6816  0.4130  0.7391
 5718TIP3   OH217159   2.378   5.272   1.976  0.4535 -0.2421 -0.0147
 5718TIP3    H117160   2.356   5.341   2.039  0.9879 -0.6609  0.6516
 5718TIP3    H217161   2.416   5.317   1.901  1.6202  0.1284  0.7801
 5719TIP3   OH217162   1.647   2.834   2.397 -0.1209 -0.2869 -0.4469
 5719TIP3    H117163   1.664   2.869   2.485  0.5989 -1.2082 -0.2084
 5719TIP3    H217164   1.589   2.759   2.412 -0.2569 -0.2562 -0.7992
 5720TIP3   OH217165   2.183   1.797   4.184  0.0728  0.1739 -0.0427
 5720TIP3    H117166   2.128   1.862   4.139 -1.2091 -0.4621  0.5324
 5720TIP3    H217167   2.170   1.717   4.133 -0.6135 -0.3097  0.8747
 5721TIP3   OH217168   6.286   3.886   2.505  0.2046 -0.1717  0.0138
 5721TIP3    H117169   6.283   3.800   2.461  0.0586 -0.6674  0.9705
 5721TIP3    H217170   6.211   3.884   2.565  0.5196  0.4196  0.4213
 5722TIP3   OH217171   2.384   0.433   3.378  0.1741  0.2469  0.0385
 5722TIP3    H117172   2.316   0.379   3.339  0.1199  0.4991 -0.2266
 5722TIP3    H217173   2.337   0.496   3.432  0.2037  0.3489 -0.0542
 5723TIP3   OH217174   0.604   1.167   4.124  0.4180 -0.0519  0.6622
 5723TIP3    H117175   0.656   1.135   4.198  0.2607  0.3732  0.9626
 5723TIP3    H217176   0.668   1.198   4.061  0.6895 -2.6611 -0.4927
 5724TIP3   OH217177   5.106   4.691   5.129 -0.0823 -0.3262  0.1287
 5724TIP3    H117178   5.032   4.706   5.070  0.2149 -0.2138 -0.2220
 5724TIP3    H217179   5.172   4.648   5.074 -0.0905 -0.9231  0.5755
 5725TIP3   OH217180   4.115   1.825   3.181  0.3779  0.0025  0.0602
 5725TIP3    H117181   4.171   1.830   3.258  0.8332 -0.4426 -0.2410
 5725TIP3    H217182   4.032   1.790   3.214  0.0633  1.2263  0.6128
 5726TIP3   OH217183   4.241   1.970   0.862  0.0428 -0.1817 -0.0078
 5726TIP3    H117184   4.184   2.008   0.929  0.8011  0.8595  0.0602
 5726TIP3    H217185   4.317   2.028   0.859  1.0036 -1.4051 -0.2676
 5727TIP3   OH217186   2.043   4.257   0.841  0.7232 -0.4734  0.1891
 5727TIP3    H117187   2.113   4.201   0.873  0.7240 -0.6153 -0.0522
 5727TIP3    H217188   1.963   4.210   0.864  0.7201 -0.5014  0.1233
 5728TIP3   OH217189   3.726   4.445   2.025  0.0555  0.0864  0.6044
 5728TIP3    H117190   3.665   4.403   1.965  0.2453  2.0819 -1.0932
 5728TIP3    H217191   3.679   4.452   2.108 -0.9869 -0.8692  0.1063
 5729TIP3   OH217192   5.731   2.612   3.627  0.2320  0.4073  0.1493
 5729TIP3    H117193   5.651   2.662   3.614 -0.0705 -0.4661 -1.5828
 5729TIP3    H217194   5.723   2.577   3.716 -2.1392 -1.0390 -0.5566
 5730TIP3   OH217195   1.508   5.832   4.800 -0.7994 -0.5282  0.5100
 5730TIP3    H117196   1.452   5.802   4.872 -1.4434  0.1917  0.3228
 5730TIP3    H217197   1.532   5.921   4.824  0.2470 -0.8069  0.5580
 5731TIP3   OH217198   2.436   4.509   1.375 -0.0462 -0.1207  0.4750
 5731TIP3    H117199   2.411   4.589   1.420  0.1314 -0.7980  1.8542
 5731TIP3    H217200   2.495   4.465   1.436  1.2432 -0.4893 -0.9785
 5732TIP3   OH217201   4.254   5.040   1.556 -0.0316 -0.5193  0.0909
 5732TIP3    H117202   4.213   4.956   1.537 -1.1874 -0.0852  0.5873
 5732TIP3    H217203   4.206   5.103   1.503 -1.0856  0.2249  1.8567
 5733TIP3   OH217204   1.307   2.796   1.942  0.4456  0.1226  0.0938
 5733TIP3    H117205   1.320   2.866   1.878  2.2100 -0.1527  0.0938
 5733TIP3    H217206   1.278   2.841   2.022  1.8572  0.9320  0.1852
 5734TIP3   OH217207   5.071   4.891   4.201 -0.3601  0.7199 -0.5187
 5734TIP3    H117208   5.013   4.967   4.212 -1.0445  0.4797 -2.1831
 5734TIP3    H217209   5.047   4.833   4.273 -1.3962  1.1463 -0.4913
 5735TIP3   OH217210   3.110   3.389   5.048 -0.8258 -0.3987  0.0430
 5735TIP3    H117211   3.095   3.296   5.067 -0.0723 -0.3122  1.1475
 5735TIP3    H217212   3.162   3.389   4.967 -1.9227 -0.8720 -0.6919
 5736TIP3   OH217213   2.608   5.551   0.036  0.2603  0.1394 -0.1447
 5736TIP3    H117214   2.619   5.645   0.024  2.3067  0.0528  0.7283
 5736TIP3    H217215   2.566   5.522  -0.045  2.5019  1.3415 -1.8664
 5737TIP3   OH217216   3.574   2.203   3.031  0.4064 -0.2865 -0.2581
 5737TIP3    H117217   3.624   2.169   3.105  0.3042 -0.9404 -0.4845
 5737TIP3    H217218   3.502   2.252   3.072  0.1127 -0.9847  0.0909
 5738TIP3   OH217219   4.884   5.126   4.953  0.1426 -0.2547  0.5324
 5738TIP3    H117220   4.850   5.175   5.028 -0.6169  0.1786 -0.0792
 5738TIP3    H217221   4.975   5.108   4.976  0.0585  0.2821  1.3534
 5739TIP3   OH217222   4.710   1.572   3.775 -0.4010  0.2120  0.1358
 5739TIP3    H117223   4.707   1.496   3.833 -0.6103  0.4286  0.4096
 5739TIP3    H217224   4.784   1.624   3.807 -0.2096  0.0869 -0.0995
 5740TIP3   OH217225   0.712   3.924   2.112  0.5466 -0.1468  0.5856
 5740TIP3    H117226   0.741   3.844   2.069  0.9187  0.2301  0.1334
 5740TIP3    H217227   0.631   3.948   2.066  0.1625 -0.5279  1.0468
 5741TIP3   OH217228   4.151   4.207   0.609  0.3008 -0.2282  0.5105
 5741TIP3    H117229   4.207   4.201   0.531 -0.3308 -0.2465  0.0507
 5741TIP3    H217230   4.207   4.247   0.676  0.4613  1.0456 -0.3417
 5742TIP3   OH217231   0.301   2.235   2.452  0.0727  0.4193  0.3218
 5742TIP3    H117232   0.254   2.313   2.424  0.1352  0.6480  0.8374
 5742TIP3    H217233   0.284   2.230   2.547  0.6270  0.1945  0.4124
 5743TIP3   OH217234   4.307   0.187   2.097  0.0712  0.0687  0.5317
 5743TIP3    H117235   4.391   0.142   2.105 -0.8503 -2.5981 -2.6521
 5743TIP3    H217236   4.329   0.274   2.065  1.6811  0.0225  1.4112
 5744TIP3   OH217237   1.119   5.856   4.966  0.0395  0.9847  0.5954
 5744TIP3    H117238   1.122   5.841   5.060  1.0596  2.5165  0.8511
 5744TIP3    H217239   1.170   5.937   4.953 -0.2388  0.9111 -1.2404
 5745TIP3   OH217240   5.434   1.260   2.303  0.1388  0.2261  0.6583
 5745TIP3    H117241   5.434   1.187   2.242 -0.3729  0.5746  0.2321
 5745TIP3    H217242   5.390   1.331   2.257 -0.9048  0.2768  1.6687
 5746TIP3   OH217243   4.599   2.939   3.940  0.2780  0.4376  0.1992
 5746TIP3    H117244   4.518   2.932   3.890  0.3732 -1.5158  0.2397
 5746TIP3    H217245   4.598   3.029   3.974 -0.7096  1.2116 -1.6879
 5747TIP3   OH217246   5.847   0.316   3.465  0.0498 -0.3797 -0.1937
 5747TIP3    H117247   5.926   0.273   3.498  0.0397  0.3831  0.8757
 5747TIP3    H217248   5.874   0.356   3.382  0.9716  0.3914  0.4539
 5748TIP3   OH217249   2.930   0.558   2.920 -0.2963 -0.7049  0.4108
 5748TIP3    H117250   2.966   0.641   2.952  0.1187 -0.8419  0.3066
 5748TIP3    H217251   2.990   0.530   2.851 -1.8515  0.2169 -1.4124
 5749TIP3   OH217252   2.203   1.065   5.166  0.3959  0.4401  0.8684
 5749TIP3    H117253   2.192   0.990   5.223  0.6945  1.0752  1.7860
 5749TIP3    H217254   2.115   1.083   5.133  0.7947 -2.6316 -2.4884
 5750TIP3   OH217255   0.549   0.426   5.067 -0.0958 -0.2242  0.1629
 5750TIP3    H117256   0.528   0.369   5.140  0.4551 -0.7109 -0.0452
 5750TIP3    H217257   0.508   0.384   4.991  0.1887 -0.2723  0.0339
 5751TIP3   OH217258   2.158   5.909   4.917 -0.2509 -0.2947 -0.4429
 5751TIP3    H117259   2.172   5.944   4.830  0.1407 -0.8285 -0.6010
 5751TIP3    H217260   2.179   5.816   4.910 -0.5621 -0.4198  0.1346
 5752TIP3   OH217261   5.418   3.248   0.847 -0.5823  0.1817 -0.4855
 5752TIP3    H117262   5.373   3.171   0.814  0.8370  0.4132 -3.2113
 5752TIP3    H217263   5.504   3.215   0.874 -0.9644  0.3813  1.0812
 5753TIP3   OH217264   2.097   1.702   4.435 -0.1840 -0.3855 -0.5698
 5753TIP3    H117265   2.140   1.749   4.363 -0.2260  0.7955  0.1492
 5753TIP3    H217266   2.167   1.680   4.495  0.1298 -2.9832 -1.7710
 5754TIP3   OH217267   5.703   1.674   0.179  0.0721 -0.3826  0.0873
 5754TIP3    H117268   5.760   1.739   0.138  0.1403 -0.7404 -0.3879
 5754TIP3    H217269   5.763   1.613   0.222 -0.0046  0.1652  1.0113
 5755TIP3   OH217270   0.947   5.620   0.474  0.0137 -0.0494  0.5088
 5755TIP3    H117271   1.014   5.624   0.405  0.6269 -1.4128  1.0097
 5755TIP3    H217272   0.874   5.671   0.438  0.3427 -0.6841 -1.1312
 5756TIP3   OH217273   4.175   3.099   1.797 -0.0245  0.0599 -0.6349
 5756TIP3    H117274   4.117   3.115   1.871  1.5973  4.6235 -0.0100
 5756TIP3    H217275   4.144   3.159   1.729  0.8490 -1.2289 -2.2336
 5757TIP3   OH217276   0.698   1.489   0.471  0.2918  0.2507  0.1447
 5757TIP3    H117277   0.712   1.583   0.480  1.6192 -0.0482  1.4320
 5757TIP3    H217278   0.689   1.476   0.376 -0.8382  1.7716 -0.0009
 5758TIP3   OH217279   5.211   0.048   3.008  0.6272 -0.1586 -0.1324
 5758TIP3    H117280   5.267   0.125   3.015  0.3753  0.0205 -0.0781
 5758TIP3    H217281   5.240  -0.009   3.080 -0.8978  0.9973  1.4950
 5759TIP3   OH217282   5.673   0.476   4.301  0.5748  0.6833 -0.0018
 5759TIP3    H117283   5.667   0.539   4.230  1.7992  0.9650  0.1202
 5759TIP3    H217284   5.665   0.528   4.381  1.6866  0.7215  0.1007
 5760TIP3   OH217285   2.255   0.800   0.709 -0.4386 -0.1853 -0.5604
 5760TIP3    H117286   2.189   0.777   0.644  0.0786 -0.9638 -0.8229
 5760TIP3    H217287   2.330   0.829   0.658 -0.5339  0.6075 -0.2640
 5761TIP3   OH217288   3.771   0.699   4.055  0.2220 -0.1638  0.1401
 5761TIP3    H117289   3.686   0.715   4.014  0.0135  0.4638  0.7911
 5761TIP3    H217290   3.833   0.746   4.000 -0.1053  1.0087  0.7332
 5762TIP3   OH217291   1.643   1.953   0.311  0.4571 -0.1353 -0.0322
 5762TIP3    H117292   1.708   1.921   0.374  0.1153  2.1466  1.6152
 5762TIP3    H217293   1.560   1.948   0.357 -0.0923 -0.2108 -1.0151
 5763TIP3   OH217294   3.829   2.417   4.084 -0.1794 -0.1852  0.1528
 5763TIP3    H117295   3.749   2.386   4.041  0.2822 -1.4208  0.1536
 5763TIP3    H217296   3.835   2.509   4.059 -0.7405 -0.4840 -1.1737
 5764TIP3   OH217297   4.564   0.098   2.177 -0.5424 -0.4991 -0.0633
 5764TIP3    H117298   4.646   0.050   2.182 -0.5617 -0.5146  0.1185
 5764TIP3    H217299   4.562   0.150   2.258  0.7296  1.8063 -1.3888
 5765TIP3   OH217300   4.199   0.433   3.510 -0.1629 -0.0273 -0.5065
 5765TIP3    H117301   4.214   0.498   3.579  0.0566 -1.1151  0.4948
 5765TIP3    H217302   4.224   0.478   3.429  2.5031  0.3468  0.4121
 5766TIP3   OH217303   0.149   1.281   3.622  0.4491 -0.1835 -1.0684
 5766TIP3    H117304   0.220   1.242   3.673 -1.2014 -1.4739  0.3689
 5766TIP3    H217305   0.173   1.374   3.615  1.2203 -0.1209  1.3156
 5767TIP3   OH217306   2.190   3.658   0.059  0.3939  0.0473 -0.0483
 5767TIP3    H117307   2.170   3.726   0.123  1.9958 -1.9720  2.8823
 5767TIP3    H217308   2.280   3.675   0.032  0.0333  0.3611 -1.0787
 5768TIP3   OH217309   2.905   2.710   0.264 -0.1549 -0.3762  0.2172
 5768TIP3    H117310   2.850   2.675   0.335 -0.2401 -1.2367 -0.2613
 5768TIP3    H217311   2.988   2.731   0.307 -0.1214 -1.1170  0.5361
 5769TIP3   OH217312   4.965   2.365   4.525  0.4057 -0.1075  0.1543
 5769TIP3    H117313   5.041   2.322   4.564 -0.3513 -1.0550  0.6602
 5769TIP3    H217314   4.993   2.388   4.437  0.3077 -3.5130 -0.9313
 5770TIP3   OH217315   4.403   1.052   4.186 -0.5163 -0.0713  0.1766
 5770TIP3    H117316   4.403   1.147   4.175 -2.3300 -0.1948 -1.2505
 5770TIP3    H217317   4.485   1.023   4.147 -0.4181  0.8247 -0.3065
 5771TIP3   OH217318   1.715   3.417   3.669 -0.3843  0.1737 -0.0746
 5771TIP3    H117319   1.794   3.456   3.633  0.0399  0.4349  1.0839
 5771TIP3    H217320   1.715   3.327   3.638 -0.0975  0.4189 -0.7975
 5772TIP3   OH217321   2.190   5.939   2.331 -0.6601  0.0051  1.0498
 5772TIP3    H117322   2.114   5.884   2.352 -0.8786  0.0016  0.2591
 5772TIP3    H217323   2.153   6.017   2.290 -0.3175  0.5647  1.7871
 5773TIP3   OH217324   4.030   2.800   2.756  0.2955  0.0272  0.1504
 5773TIP3    H117325   4.036   2.836   2.844  1.6704 -0.1235  0.1403
 5773TIP3    H217326   3.996   2.711   2.769 -0.2804  0.2890  0.4489
 5774TIP3   OH217327   0.180   0.228   1.043 -0.8136 -0.1990 -0.0598
 5774TIP3    H117328   0.183   0.209   0.950 -0.6392  0.1297 -0.1227
 5774TIP3    H217329   0.086   0.225   1.065 -1.0792  1.8782 -0.7127
 5775TIP3   OH217330   2.101   3.752   0.859  0.3387 -0.1584 -0.2222
 5775TIP3    H117331   2.074   3.728   0.948 -0.0614 -0.2851 -0.3749
 5775TIP3    H217332   2.068   3.841   0.847  0.9702  0.1117 -0.0090
 5776TIP3   OH217333   0.168   4.218   2.058  0.3145 -0.8496 -0.7859
 5776TIP3    H117334   0.185   4.207   1.964 -1.4821  0.3470 -1.3116
 5776TIP3    H217335   0.088   4.167   2.073  0.0376 -0.2254 -0.1285
 5777TIP3   OH217336   1.579   1.748   3.507 -0.4796  0.2604  0.1583
 5777TIP3    H117337   1.599   1.672   3.452 -0.6317 -0.7425  1.4414
 5777TIP3    H217338   1.505   1.719   3.560  0.4832  0.7398  1.8001
 5778TIP3   OH217339   1.480   2.098   3.107  1.0350 -0.0994 -0.1401
 5778TIP3    H117340   1.442   2.124   3.023  0.4232  1.7255  0.6506
 5778TIP3    H217341   1.574   2.110   3.096  0.8781  1.0930 -0.2660
 5779TIP3   OH217342   4.847   0.459   4.298  0.3653 -0.6969  0.3097
 5779TIP3    H117343   4.836   0.553   4.281 -1.0119 -0.8219  0.4297
 5779TIP3    H217344   4.839   0.418   4.212  1.5287 -0.6748  0.1762
 5780TIP3   OH217345   1.720   3.327   0.632 -0.3581 -0.0005  0.3725
 5780TIP3    H117346   1.724   3.327   0.537 -0.3403 -0.6817  0.3680
 5780TIP3    H217347   1.626   3.328   0.653 -0.3563  0.5335  0.3498
 5781TIP3   OH217348   4.421   2.254   3.153  0.2115 -0.1785 -0.3001
 5781TIP3    H117349   4.410   2.188   3.222 -0.3975  0.2724  0.0481
 5781TIP3    H217350   4.393   2.210   3.073 -0.7749 -0.1609  0.0272
 5782TIP3   OH217351   6.078   5.627   4.381  0.2698 -0.4300  0.1940
 5782TIP3    H117352   6.078   5.569   4.304 -0.6694  1.1895 -1.0856
 5782TIP3    H217353   6.095   5.714   4.346 -1.4615  0.5547  1.6590
 5783TIP3   OH217354   0.426   0.039   3.852  0.8126  0.1329  0.0215
 5783TIP3    H117355   0.480  -0.024   3.900  0.7160 -1.0943 -1.3915
 5783TIP3    H217356   0.417   0.000   3.765  0.9460  2.2274 -0.9836
 5784TIP3   OH217357   4.605   2.735   3.521 -0.3746 -0.8535  0.0622
 5784TIP3    H117358   4.618   2.648   3.483 -0.1910 -0.2979 -1.2086
 5784TIP3    H217359   4.519   2.762   3.489 -0.3492 -0.4932  0.2906
 5785TIP3   OH217360   0.647   2.954   3.947  0.3380 -0.5734 -0.2251
 5785TIP3    H117361   0.689   2.923   3.867  0.0611  0.5280 -0.8083
 5785TIP3    H217362   0.597   2.878   3.978  1.6844 -1.5003 -0.2156
 5786TIP3   OH217363   1.244   4.401   4.183  0.5432  1.0812  0.4431
 5786TIP3    H117364   1.272   4.351   4.107  1.1928  1.6556  0.2870
 5786TIP3    H217365   1.185   4.468   4.149 -0.8014  0.0678  0.7316
 5787TIP3   OH217366   1.496   3.031   2.955  0.0757 -0.0787 -0.0233
 5787TIP3    H117367   1.556   3.100   2.986 -0.0587  0.2104 -0.4036
 5787TIP3    H217368   1.427   3.028   3.021  0.9033 -0.9604  0.8460
 5788TIP3   OH217369   3.749   3.955   1.907 -0.3078 -0.3154 -0.4941
 5788TIP3    H117370   3.807   4.031   1.916  0.3346 -1.0526  2.3120
 5788TIP3    H217371   3.661   3.990   1.923 -0.2111  0.0726 -0.7708
 5789TIP3   OH217372   0.696   0.173   4.526  0.2914 -0.5047  0.4284
 5789TIP3    H117373   0.605   0.146   4.541 -0.2179  0.5339 -0.6289
 5789TIP3    H217374   0.712   0.240   4.593 -0.4404  0.8199 -0.6880
 5790TIP3   OH217375   1.817   1.539   3.601 -0.0501 -0.4075  0.2197
 5790TIP3    H117376   1.904   1.541   3.642 -0.5814 -1.0158  1.4233
 5790TIP3    H217377   1.826   1.477   3.528  0.4148 -0.8122  0.6169
 5791TIP3   OH217378   2.873   4.932   3.165 -0.2673 -0.1582  0.9227
 5791TIP3    H117379   2.783   4.922   3.134  0.2193 -1.7286 -0.0934
 5791TIP3    H217380   2.891   4.851   3.212  1.0963 -0.5273 -0.1835
 5792TIP3   OH217381   4.867   2.800   3.620 -0.4343 -0.1245  0.1178
 5792TIP3    H117382   4.901   2.739   3.555 -1.9566 -1.2822  0.3592
 5792TIP3    H217383   4.774   2.807   3.601 -1.0847 -1.0467  2.5438
 5793TIP3   OH217384   5.569   5.717   1.535  0.6651  0.0121 -0.1683
 5793TIP3    H117385   5.485   5.729   1.579  1.2618 -1.3277  1.4561
 5793TIP3    H217386   5.551   5.653   1.465  0.2951 -0.1218  0.0507
 5794TIP3   OH217387   2.099   3.892   4.705 -0.3805 -0.0436  0.2306
 5794TIP3    H117388   2.150   3.884   4.786 -1.2019 -0.0421  0.7547
 5794TIP3    H217389   2.021   3.839   4.720 -1.4713  1.4716  0.1957
 5795TIP3   OH217390   4.684   1.340   0.207  0.2266  0.2160 -0.1126
 5795TIP3    H117391   4.758   1.330   0.147 -1.4800 -0.9548 -2.1656
 5795TIP3    H217392   4.648   1.251   0.214 -0.7332  0.6913  1.1967
 5796TIP3   OH217393   3.000   4.330   1.167 -0.3722 -0.0724  0.8230
 5796TIP3    H117394   2.978   4.237   1.163  0.2466 -0.3083  2.2863
 5796TIP3    H217395   3.008   4.349   1.261 -0.3588  1.4240  0.5426
 5797TIP3   OH217396   3.467   2.537   2.772 -0.2305 -0.3720  0.0955
 5797TIP3    H117397   3.520   2.502   2.843 -0.3397 -0.9014 -0.0858
 5797TIP3    H217398   3.465   2.632   2.789  0.9753 -0.3084 -0.0328
 5798TIP3   OH217399   5.579   5.361   3.231 -0.0330 -0.3277 -0.2411
 5798TIP3    H117400   5.618   5.447   3.244  1.4718 -0.9258 -0.6656
 5798TIP3    H217401   5.640   5.299   3.271 -1.4684 -1.1708  0.7537
 5799TIP3   OH217402   5.090   0.559   4.442  0.3783 -0.2099  0.0034
 5799TIP3    H117403   5.167   0.535   4.390 -0.3460 -2.0806 -0.2707
 5799TIP3    H217404   5.016   0.540   4.385 -0.3396  1.8361  0.1634
 5800TIP3   OH217405   4.918   2.496   3.988 -0.4494 -0.2187  0.2866
 5800TIP3    H117406   4.916   2.432   3.917  3.0018 -0.2563  0.0517
 5800TIP3    H217407   4.860   2.567   3.958 -0.9185 -1.2798 -1.4536
 5801TIP3   OH217408   0.671   1.755   0.451 -0.2145 -0.2551 -0.1968
 5801TIP3    H117409   0.668   1.803   0.369  0.9210 -0.4424 -0.3623
 5801TIP3    H217410   0.641   1.818   0.517  0.6210  0.4747 -0.5035
 5802TIP3   OH217411   0.495   4.184   3.445 -0.3335  0.5399 -0.5789
 5802TIP3    H117412   0.533   4.262   3.484  0.9314  0.0945 -0.8749
 5802TIP3    H217413   0.521   4.187   3.353 -0.8907  0.1359 -0.7592
 5803TIP3   OH217414   1.454   1.010   4.265 -0.2948  0.0213 -0.0193
 5803TIP3    H117415   1.486   1.086   4.315 -0.2907 -0.0874  0.1432
 5803TIP3    H217416   1.398   0.963   4.327  0.0065 -0.3158 -0.0042
 5804TIP3   OH217417   2.400   1.832   4.331  0.5362  0.3953 -0.1637
 5804TIP3    H117418   2.420   1.926   4.330 -0.6968  0.7198  1.2640
 5804TIP3    H217419   2.336   1.821   4.261  0.3732  0.7173 -0.0703
 5805TIP3   OH217420   5.644   2.920   1.086 -0.0119  0.4716  0.3421
 5805TIP3    H117421   5.653   2.990   1.021  1.7830 -0.7052 -0.7659
 5805TIP3    H217422   5.568   2.870   1.057 -1.0528  1.6720  0.9045
 5806TIP3   OH217423   0.474   2.773   4.102 -0.2372  0.3324 -0.3745
 5806TIP3    H117424   0.498   2.681   4.115  1.3173  0.9008  1.0017
 5806TIP3    H217425   0.465   2.809   4.190  1.1585  1.9816 -0.8467
 5807TIP3   OH217426   3.489   3.945   4.352  0.0588  0.4564 -0.4306
 5807TIP3    H117427   3.407   3.995   4.352  0.4267  1.0823 -0.1339
 5807TIP3    H217428   3.549   3.997   4.298 -0.1348 -0.7036 -1.8165
 5808TIP3   OH217429   2.186   3.396   3.351  0.1531 -0.0407 -0.0953
 5808TIP3    H117430   2.208   3.330   3.416 -1.6807 -0.4831  0.1109
 5808TIP3    H217431   2.099   3.373   3.321  0.2911  1.1165 -1.5222
 5809TIP3   OH217432   3.747   1.983   0.087  0.0135 -0.1036 -0.3938
 5809TIP3    H117433   3.826   2.026   0.053 -0.1833  0.4295 -0.1993
 5809TIP3    H217434   3.678   2.012   0.028 -0.1497 -0.0170 -0.1610
 5810TIP3   OH217435   4.651   4.929   1.219  0.5622  0.2937  0.4980
 5810TIP3    H117436   4.585   4.871   1.255  0.5492  0.3255  0.5256
 5810TIP3    H217437   4.607   4.974   1.147  0.7690 -0.2391  0.0258
 5811TIP3   OH217438   1.016   4.736   1.211 -0.1599  0.0145  0.4811
 5811TIP3    H117439   1.052   4.663   1.261 -0.1501 -0.1238  0.2750
 5811TIP3    H217440   1.088   4.764   1.154  0.0250  0.5627  0.9642
 5812TIP3   OH217441   5.129   0.847   4.529  0.1541  0.5857 -0.1141
 5812TIP3    H117442   5.098   0.762   4.496  1.8761 -0.5504  1.0720
 5812TIP3    H217443   5.097   0.851   4.619  1.4499  0.4212  0.3733
 5813TIP3   OH217444   1.458   5.604   4.936 -0.3136  0.4259  0.2975
 5813TIP3    H117445   1.381   5.554   4.964  0.6585 -1.0119  0.4702
 5813TIP3    H217446   1.515   5.539   4.895  1.1401  1.3244  0.8318
 5814TIP3   OH217447   5.110   2.493   4.946 -0.2389  0.2224 -0.0376
 5814TIP3    H117448   5.189   2.439   4.945 -0.0533  0.4380 -2.6764
 5814TIP3    H217449   5.039   2.433   4.923 -0.1663  0.8553 -2.0553
 5815TIP3   OH217450   4.621   1.014   0.599  0.3745 -0.2933 -0.0552
 5815TIP3    H117451   4.643   1.021   0.506  0.3353 -2.0162 -0.2334
 5815TIP3    H217452   4.703   0.987   0.641  0.7419  1.7368  0.6594
 5816TIP3   OH217453   2.264   1.770   4.679  0.2556  0.5596  0.3293
 5816TIP3    H117454   2.275   1.847   4.734  2.7955  0.8596 -0.4512
 5816TIP3    H217455   2.337   1.713   4.703 -0.6211 -0.8724 -0.2680
 5817TIP3   OH217456   2.214   2.880   5.173 -0.1853 -0.3593 -0.2655
 5817TIP3    H117457   2.258   2.925   5.101  0.5158 -0.1452  0.2911
 5817TIP3    H217458   2.276   2.813   5.201 -0.5530 -0.5980 -0.0067
 5818TIP3   OH217459   6.326   0.945   2.651 -0.4053  0.2257 -0.3910
 5818TIP3    H117460   6.401   0.959   2.708 -1.5795 -1.5930  1.7218
 5818TIP3    H217461   6.293   1.034   2.633 -1.2126  0.8763  3.5135
 5819TIP3   OH217462   6.186   3.208   5.039  0.7653  0.1023  0.0056
 5819TIP3    H117463   6.188   3.280   4.976 -0.6303  1.4944  1.4693
 5819TIP3    H217464   6.213   3.247   5.121 -0.2420 -0.9663  0.8880
 5820TIP3   OH217465   4.752   2.783   0.357  0.1704  0.0936 -0.2824
 5820TIP3    H117466   4.723   2.872   0.378  0.2777  0.3458 -1.1611
 5820TIP3    H217467   4.810   2.759   0.429 -0.0188  0.6619  0.0644
 5821TIP3   OH217468   5.882   3.489   4.223  0.5506 -0.1072  0.1877
 5821TIP3    H117469   5.913   3.574   4.254 -0.3655 -0.0988  1.1363
 5821TIP3    H217470   5.938   3.469   4.148  1.3346  0.9350  0.4702
 5822TIP3   OH217471   4.589   0.375   5.054  0.1499  0.3718  0.2574
 5822TIP3    H117472   4.572   0.287   5.020  1.1644 -0.5972  2.1338
 5822TIP3    H217473   4.622   0.424   4.978 -0.6864 -0.7521 -0.8771
 5823TIP3   OH217474   0.195   4.858   4.641 -0.1866 -0.5163  0.1408
 5823TIP3    H117475   0.115   4.904   4.619 -0.3350 -0.3032  1.0782
 5823TIP3    H217476   0.241   4.916   4.702 -0.2167 -1.4381  1.0802
 5824TIP3   OH217477   1.541   3.064   5.098  0.1364  0.0371 -0.7787
 5824TIP3    H117478   1.499   3.021   5.173  0.5657 -0.7237 -0.9627
 5824TIP3    H217479   1.614   3.113   5.137 -2.4912  3.7899 -0.0377
 5825TIP3   OH217480   2.985   1.746   4.807 -0.1802  0.2228 -1.1443
 5825TIP3    H117481   2.968   1.799   4.885  0.0453  0.7357 -1.4332
 5825TIP3    H217482   2.901   1.739   4.763 -0.2964 -0.0192 -0.8865
 5826TIP3   OH217483   4.493   2.645   3.921 -0.2327 -0.1321 -0.1468
 5826TIP3    H117484   4.457   2.685   3.842 -0.3864  1.8163  0.8367
 5826TIP3    H217485   4.587   2.644   3.906 -0.2217  0.6659 -0.1958
 5827TIP3   OH217486   2.606   0.659   2.427  0.2738  0.3327  0.6332
 5827TIP3    H117487   2.568   0.642   2.341  0.9158 -3.5518  0.9203
 5827TIP3    H217488   2.543   0.715   2.472 -1.4919  0.0205 -1.3528
 5828TIP3   OH217489   5.108   0.635   3.075 -0.1936 -0.0643  0.2058
 5828TIP3    H117490   5.136   0.583   3.000  0.7817 -0.3421  0.7417
 5828TIP3    H217491   5.185   0.638   3.132 -0.4153  1.4957  0.4559
 5829TIP3   OH217492   1.253   0.446   1.831 -0.1049  0.4008  0.7295
 5829TIP3    H117493   1.245   0.357   1.796  0.4881  0.6821 -0.1737
 5829TIP3    H217494   1.335   0.445   1.881 -0.9811 -0.0170  2.2282
 5830TIP3   OH217495   2.026   3.924   3.043  0.0791  0.2976  0.1931
 5830TIP3    H117496   2.073   4.004   3.068 -0.4914  0.4050  0.9462
 5830TIP3    H217497   2.058   3.905   2.955 -0.9857  2.2969 -0.6987
 5831TIP3   OH217498   4.218   3.858   0.363  0.2463 -0.3616 -0.2730
 5831TIP3    H117499   4.170   3.865   0.446  0.6622 -0.3714 -0.0279
 5831TIP3    H217500   4.191   3.935   0.314  1.8892  1.0322  0.8831
 5832TIP3   OH217501   6.001   2.746   4.584  0.3489  0.5053 -1.0213
 5832TIP3    H117502   5.916   2.713   4.557 -0.1082  1.6682 -1.0397
 5832TIP3    H217503   5.995   2.756   4.679  1.1521 -1.3003 -0.7477
 5833TIP3   OH217504   5.042   3.561   3.820  0.0818  0.4529 -0.8130
 5833TIP3    H117505   5.091   3.537   3.741 -0.7563 -1.3425 -0.8335
 5833TIP3    H217506   5.086   3.515   3.891  0.6301  1.8009 -0.2399
 5834TIP3   OH217507   2.182   5.122   0.225 -0.7081  0.5762 -0.2450
 5834TIP3    H117508   2.098   5.125   0.269 -0.2552  0.6116  0.6251
 5834TIP3    H217509   2.195   5.211   0.191 -1.1487  0.4953 -0.6270
 5835TIP3   OH217510   0.847   0.185   2.320 -0.0177  0.3723 -0.0143
 5835TIP3    H117511   0.826   0.168   2.412  2.1042  0.0434  0.4681
 5835TIP3    H217512   0.864   0.279   2.316 -0.8955  0.5250 -0.2566
 5836TIP3   OH217513   5.497   3.290   2.397 -0.6243  0.2347 -0.8063
 5836TIP3    H117514   5.497   3.370   2.449 -0.5495  0.6269 -1.3942
 5836TIP3    H217515   5.590   3.273   2.379 -0.4909 -1.0137  0.8395
 5837TIP3   OH217516   0.491   3.812   2.672 -0.1142  0.3803  0.3604
 5837TIP3    H117517   0.505   3.796   2.578 -1.3907 -2.2216  0.5102
 5837TIP3    H217518   0.437   3.891   2.674  1.2082  1.3847 -0.9671
 5838TIP3   OH217519   5.684   1.339   2.730 -0.3488  0.0118  0.3929
 5838TIP3    H117520   5.640   1.283   2.667 -0.2488 -0.2670  0.5684
 5838TIP3    H217521   5.619   1.404   2.755  0.6666  2.6625 -2.9679
 5839TIP3   OH217522   1.840   0.715   2.817 -0.1184 -0.6544  0.1706
 5839TIP3    H117523   1.911   0.728   2.880  0.0043 -0.0565 -0.0876
 5839TIP3    H217524   1.761   0.711   2.871  0.0090 -0.3621  0.3783
 5840TIP3   OH217525   5.314   2.286   1.150 -0.4399  0.2933 -0.1223
 5840TIP3    H117526   5.345   2.271   1.061 -2.1046  0.3598 -0.7595
 5840TIP3    H217527   5.359   2.366   1.179 -2.2432  2.1729 -2.1517
 5841TIP3   OH217528   3.758   4.891   0.857 -0.5815 -0.1225 -0.4097
 5841TIP3    H117529   3.770   4.986   0.862 -0.7030 -0.1699  1.5178
 5841TIP3    H217530   3.720   4.877   0.770 -1.8368  1.7387 -0.2260
 5842TIP3   OH217531   3.112   3.345   0.792 -0.4007  0.4814  0.5569
 5842TIP3    H117532   3.128   3.391   0.874 -0.5886  0.0589  0.8293
 5842TIP3    H217533   3.171   3.387   0.729 -2.2304  2.7742  0.1981
 5843TIP3   OH217534   3.196   1.810   4.357  0.2420 -0.0708  0.1256
 5843TIP3    H117535   3.269   1.851   4.402  1.0210  0.9767 -1.9499
 5843TIP3    H217536   3.154   1.755   4.423  2.0455  0.3966  1.7329
 5844TIP3   OH217537   2.647   4.193   0.422 -0.6106  0.7299  0.5482
 5844TIP3    H117538   2.608   4.110   0.395 -0.6498  0.9367 -0.0480
 5844TIP3    H217539   2.730   4.198   0.375 -1.4571  1.8842 -0.9388
 5845TIP3   OH217540   5.785   5.510   0.217 -0.2853  0.2098  0.0160
 5845TIP3    H117541   5.834   5.499   0.299 -0.6301  1.4377  0.4081
 5845TIP3    H217542   5.751   5.600   0.221 -2.0806 -0.4056 -0.5192
 5846TIP3   OH217543   5.039   5.424   3.725  0.5839  0.0689 -0.5085
 5846TIP3    H117544   5.029   5.456   3.636 -1.2438 -0.1046 -0.4226
 5846TIP3    H217545   4.973   5.354   3.732  0.3359  0.4223  1.1159
 5847TIP3   OH217546   5.253   5.411   0.080  0.8711 -0.1877  0.1984
 5847TIP3    H117547   5.216   5.430  -0.006  0.0882 -2.4739 -0.0572
 5847TIP3    H217548   5.346   5.397   0.064  0.5722 -1.5358 -0.4895
 5848TIP3   OH217549   6.021   0.950   3.947 -0.0370 -0.4276 -0.0287
 5848TIP3    H117550   6.023   1.023   3.886 -0.1886 -0.3801  0.0225
 5848TIP3    H217551   6.010   0.873   3.892  0.2287 -0.4208 -0.0906
 5849TIP3   OH217552   1.228   5.476   2.943  0.2910  0.4287 -0.3202
 5849TIP3    H117553   1.205   5.386   2.923  0.2758  0.2195  0.5785
 5849TIP3    H217554   1.292   5.500   2.876  0.7339 -0.4434 -0.2289
 5850TIP3   OH217555   1.156   4.789   0.408  0.1975  0.6763  0.3618
 5850TIP3    H117556   1.073   4.837   0.403 -0.0948  0.4028  1.8640
 5850TIP3    H217557   1.165   4.768   0.501  3.1148  2.7219  0.6671
 5851TIP3   OH217558   5.829   1.516   2.391  0.1265 -0.1575 -0.3389
 5851TIP3    H117559   5.924   1.526   2.396  0.3871 -2.0596 -0.4906
 5851TIP3    H217560   5.812   1.489   2.301 -0.7425  1.5033 -0.7097
 5852TIP3   OH217561   0.400   4.083   0.654  0.2750 -0.1463  0.1132
 5852TIP3    H117562   0.361   4.067   0.740  1.3376 -0.5105  0.5515
 5852TIP3    H217563   0.432   3.997   0.626 -0.0491 -0.0232 -0.6379
 5853TIP3   OH217564   0.551   0.463   3.686  0.3246 -0.0274  0.4888
 5853TIP3    H117565   0.564   0.557   3.694  1.0442  0.1604 -1.8979
 5853TIP3    H217566   0.627   0.424   3.728 -0.8987  0.2985  3.2107
 5854TIP3   OH217567   1.013   3.617   4.885  0.0510 -0.7839 -0.6204
 5854TIP3    H117568   0.940   3.661   4.929 -0.0982 -0.0226 -1.6151
 5854TIP3    H217569   1.003   3.640   4.793  1.0343 -1.4146 -0.8941
 5855TIP3   OH217570   3.115   1.583   4.124  0.2216  0.6145  0.5140
 5855TIP3    H117571   3.053   1.609   4.056 -0.9196 -0.3341  1.1570
 5855TIP3    H217572   3.071   1.604   4.206  0.7074 -0.1700  0.9871
 5856TIP3   OH217573   3.068   2.436   0.647  0.1148  0.2337  0.8017
 5856TIP3    H117574   3.099   2.352   0.682 -0.2858  0.9013  2.8469
 5856TIP3    H217575   3.117   2.447   0.565 -0.6191 -2.4964 -0.1136
 5857TIP3   OH217576   1.507   1.757   0.660 -0.2514  0.5860 -0.5065
 5857TIP3    H117577   1.572   1.692   0.686 -0.0913  1.5698  1.7442
 5857TIP3    H217578   1.423   1.720   0.688 -0.2644  0.9054 -0.1162
 5858TIP3   OH217579   0.526   2.021   1.335 -0.2310 -0.3788 -0.4999
 5858TIP3    H117580   0.583   2.086   1.377 -0.2778  0.1097 -1.1936
 5858TIP3    H217581   0.586   1.967   1.283 -0.0267 -1.6191  0.9344
 5859TIP3   OH217582   2.905   0.296   3.918  0.3361 -0.7449  0.0438
 5859TIP3    H117583   2.827   0.351   3.918  0.5179 -0.4723  0.7596
 5859TIP3    H217584   2.948   0.314   3.834  0.3079  0.0890  0.1963
 5860TIP3   OH217585   0.450   4.315   2.001  0.0097  0.2861  0.0370
 5860TIP3    H117586   0.388   4.307   2.074 -0.6803 -1.0899 -0.6467
 5860TIP3    H217587   0.404   4.276   1.927  0.5527  1.9565 -1.2525
 5861TIP3   OH217588   4.717   4.070   0.564  0.1558  0.8264  0.5156
 5861TIP3    H117589   4.673   4.100   0.643  0.7858 -1.0303  1.6593
 5861TIP3    H217590   4.666   3.994   0.535  1.7055 -0.4767  1.0394
 5862TIP3   OH217591   4.037   5.221   3.169 -0.3866 -0.2665  0.1191
 5862TIP3    H117592   3.951   5.210   3.210 -0.6503 -0.5057 -0.4837
 5862TIP3    H217593   4.032   5.305   3.124 -0.3219 -0.2999  0.0490
 5863TIP3   OH217594   1.360   3.368   1.067  0.0385  0.5038 -0.4311
 5863TIP3    H117595   1.349   3.458   1.097  2.5512  1.1946 -1.2848
 5863TIP3    H217596   1.278   3.346   1.024 -0.0352  3.0585 -1.7695
 5864TIP3   OH217597   1.259   1.249   2.734  0.2991 -0.3310 -0.8199
 5864TIP3    H117598   1.303   1.178   2.688 -1.5159 -2.1095  0.0387
 5864TIP3    H217599   1.171   1.253   2.696 -0.2176  0.2498  0.3431
 5865TIP3   OH217600   1.555   1.122   3.857 -0.7362 -0.8472 -0.2374
 5865TIP3    H117601   1.625   1.182   3.832 -2.6382  0.5620 -2.7229
 5865TIP3    H217602   1.600   1.043   3.885  1.8640  1.0344  1.4028
 5866TIP3   OH217603   4.672   5.935   4.730  0.2869 -0.2485  0.6730
 5866TIP3    H117604   4.656   5.991   4.654  0.1607 -1.5570 -0.2834
 5866TIP3    H217605   4.613   5.969   4.797 -1.1615 -0.3806 -0.4869
 5867TIP3   OH217606   0.246   0.101   1.286 -0.1972 -0.2201  0.1381
 5867TIP3    H117607   0.250   0.030   1.222  0.8167 -0.7768  0.7908
 5867TIP3    H217608   0.241   0.180   1.233  2.5660 -0.5246 -0.7257
 5868TIP3   OH217609   2.723   1.737   4.754  0.1414 -0.5257 -0.4676
 5868TIP3    H117610   2.636   1.768   4.780 -0.1416  1.6390 -3.4459
 5868TIP3    H217611   2.709   1.647   4.726 -0.8091 -0.7081  0.5085
 5869TIP3   OH217612   5.565   2.990   5.007  0.1345 -0.4242 -0.3122
 5869TIP3    H117613   5.600   2.984   5.096  0.0818 -0.1295 -0.2718
 5869TIP3    H217614   5.470   2.998   5.019  0.0108 -1.5337 -0.4308
 5870TIP3   OH217615   1.087   3.327   0.299 -0.1550 -0.3263 -0.0815
 5870TIP3    H117616   1.104   3.407   0.249  0.7337 -0.3524  0.1576
 5870TIP3    H217617   0.993   3.313   0.290 -0.0046 -0.4371 -1.9145
 5871TIP3   OH217618   1.221   0.174   0.814 -0.5992 -0.3923 -0.6563
 5871TIP3    H117619   1.150   0.113   0.835  0.6540 -1.8941 -0.5845
 5871TIP3    H217620   1.301   0.124   0.828  0.4796  0.9699 -1.5958
 5872TIP3   OH217621   5.709   3.066   4.347 -0.3496 -0.3192 -0.4920
 5872TIP3    H117622   5.637   3.109   4.302 -1.5824 -2.4372 -0.6900
 5872TIP3    H217623   5.771   3.044   4.278 -0.4824 -0.2626 -0.6293
 5873TIP3   OH217624   0.457   0.193   2.926  0.1011  0.0254 -0.5922
 5873TIP3    H117625   0.382   0.204   2.985  1.1691  1.1032  0.5867
 5873TIP3    H217626   0.518   0.138   2.975 -0.2329 -1.6123 -1.8973
 5874TIP3   OH217627   2.302   1.024   3.463 -0.1834 -0.6667  0.0507
 5874TIP3    H117628   2.259   1.017   3.378 -1.9880 -1.2013  0.9583
 5874TIP3    H217629   2.286   0.939   3.505 -2.0930  0.6027  2.1322
 5875TIP3   OH217630   1.427   4.617   3.886 -0.0191  0.3023 -0.2195
 5875TIP3    H117631   1.457   4.696   3.841  1.4442 -0.6912 -1.0360
 5875TIP3    H217632   1.506   4.579   3.924 -0.6286 -1.0325 -0.2526
 5876TIP3   OH217633   5.402   1.428   0.434 -0.4531 -0.1432 -0.4550
 5876TIP3    H117634   5.481   1.408   0.484 -0.3774 -0.1001 -0.5577
 5876TIP3    H217635   5.333   1.435   0.500 -0.0390  1.6008 -0.1644
 5877TIP3   OH217636   4.959   0.159   4.872  0.7013  0.2120 -0.6818
 5877TIP3    H117637   4.874   0.133   4.838 -0.4050  1.0146  1.3059
 5877TIP3    H217638   4.978   0.241   4.826  0.0704  0.3802 -0.6579
 5878TIP3   OH217639   5.184   4.484   1.299  0.2676 -0.2975  0.6294
 5878TIP3    H117640   5.147   4.441   1.376 -2.5584  1.1349  0.2122
 5878TIP3    H217641   5.115   4.477   1.233 -0.0026  3.8718  0.2282
 5879TIP3   OH217642   5.495   1.887   1.351  0.0834  0.2992 -0.5001
 5879TIP3    H117643   5.566   1.885   1.287 -0.4023 -0.3421 -1.0393
 5879TIP3    H217644   5.427   1.831   1.313 -0.5837  0.6485  0.1495
 5880TIP3   OH217645   0.000   1.362   1.245 -0.3704 -0.2630 -0.0664
 5880TIP3    H117646   0.068   1.424   1.218  0.0966  0.7499  3.0022
 5880TIP3    H217647   0.047   1.282   1.267 -0.5879 -0.6315 -0.8961
 5881TIP3   OH217648   3.711   2.311   1.921 -0.0336  0.7026  0.4668
 5881TIP3    H117649   3.652   2.318   1.847 -1.3207  1.5659  1.5257
 5881TIP3    H217650   3.757   2.396   1.924  2.4540 -0.4627 -1.2381
 5882TIP3   OH217651   3.570   4.500   1.055 -0.9147  0.3490  0.2836
 5882TIP3    H117652   3.580   4.546   0.972 -1.2798 -0.4523 -0.2080
 5882TIP3    H217653   3.484   4.458   1.049  0.3450 -2.3011 -0.2331
 5883TIP3   OH217654   1.809   3.478   3.053 -0.0587 -0.2652  0.1281
 5883TIP3    H117655   1.812   3.456   3.146 -0.1114  1.1945  0.5011
 5883TIP3    H217656   1.801   3.573   3.051 -2.9741 -0.4346 -1.3173
 5884TIP3   OH217657   1.998   3.209   5.059  0.5824 -0.2672 -0.4633
 5884TIP3    H117658   2.081   3.256   5.069 -0.2183  1.3146 -0.9924
 5884TIP3    H217659   2.015   3.144   4.991  1.1332  0.6788 -1.2518
 5885TIP3   OH217660   0.037   5.937   3.171 -0.1405 -0.1404  0.5444
 5885TIP3    H117661   0.097   6.004   3.139 -2.7862  2.7546  1.1853
 5885TIP3    H217662  -0.019   5.917   3.096 -0.9237  0.2609  1.0080
 5886TIP3   OH217663   3.111   5.657   1.532  0.2428  0.0290  0.1140
 5886TIP3    H117664   3.105   5.748   1.502  1.8681  0.4813  1.0753
 5886TIP3    H217665   3.124   5.663   1.626  1.9922 -1.1152 -0.0079
 5887TIP3   OH217666   4.240   1.426   0.095 -0.0024 -0.6107 -0.1158
 5887TIP3    H117667   4.248   1.471   0.010  0.0647 -1.0357 -0.3393
 5887TIP3    H217668   4.313   1.460   0.146 -1.1287  1.0662  0.4500
 5888TIP3   OH217669   4.896   1.620   0.301 -0.0318 -0.8890  0.2120
 5888TIP3    H117670   4.884   1.549   0.364 -0.3497 -2.5101 -1.5753
 5888TIP3    H217671   4.939   1.580   0.226  0.7415  1.0596 -0.4675
 5889TIP3   OH217672   4.938   3.973   1.091  0.0728  0.1355 -0.4464
 5889TIP3    H117673   4.999   4.037   1.128  0.9741 -0.1696 -1.3615
 5889TIP3    H217674   4.968   3.960   1.002 -1.0056 -0.4569 -0.7453
 5890TIP3   OH217675   4.443   1.283   3.004  0.0277  0.4433  0.1910
 5890TIP3    H117676   4.497   1.253   2.931  0.3392  0.7619  0.2876
 5890TIP3    H217677   4.503   1.288   3.078 -0.5713 -1.2959  0.8481
 5891TIP3   OH217678   2.018   2.513   1.861 -0.1061 -0.2516  0.3809
 5891TIP3    H117679   2.030   2.473   1.947  0.6215  0.4553  0.6202
 5891TIP3    H217680   1.924   2.502   1.842  0.0652 -2.0644  0.4176
 5892TIP3   OH217681   2.015   5.183   2.235  0.7936 -0.4083  0.7083
 5892TIP3    H117682   2.078   5.251   2.262  0.9101 -0.2652  0.0880
 5892TIP3    H217683   2.070   5.108   2.214  1.0488  0.5408 -2.4695
 5893TIP3   OH217684   5.642   5.709   0.972  0.5889 -0.1104  0.1081
 5893TIP3    H117685   5.550   5.737   0.973  0.9639  1.2315  2.2410
 5893TIP3    H217686   5.640   5.621   0.934 -1.5882 -0.1399  0.1895
 5894TIP3   OH217687   3.450   0.616   1.074  0.3241 -0.0875  1.0944
 5894TIP3    H117688   3.412   0.702   1.055  2.7304  0.9563  0.6883
 5894TIP3    H217689   3.479   0.583   0.988  1.2262 -0.3796  1.5019
 5895TIP3   OH217690   0.397   0.077   0.144  0.0599 -0.1521  0.1294
 5895TIP3    H117691   0.442   0.152   0.183 -1.6750  0.0238  1.9663
 5895TIP3    H217692   0.411   0.005   0.206 -0.9589 -0.4539  0.0435
 5896TIP3   OH217693   6.300   2.956   3.476 -0.2192  0.1979  0.3361
 5896TIP3    H117694   6.235   2.994   3.417  1.0896  2.1903  0.0831
 5896TIP3    H217695   6.263   2.968   3.564 -1.1280 -0.6686  0.0910
 5897TIP3   OH217696   2.315   2.978   2.347 -0.2466 -0.4390  0.0077
 5897TIP3    H117697   2.368   2.998   2.425  0.6931  0.3497 -0.8100
 5897TIP3    H217698   2.226   2.969   2.381  0.4059 -2.1310  1.4880
 5898TIP3   OH217699   0.417   3.436   1.366 -0.0083 -0.1744 -0.8097
 5898TIP3    H117700   0.453   3.499   1.303  1.1965 -0.2114 -0.1834
 5898TIP3    H217701   0.391   3.361   1.312 -1.7099  0.9141 -1.5976
 5899TIP3   OH217702   2.093   0.446   2.657  0.3628  0.1343 -0.3977
 5899TIP3    H117703   2.103   0.463   2.563  3.1689 -0.9365 -0.3866
 5899TIP3    H217704   2.175   0.476   2.696 -0.5888  0.1904  1.6736
 5900TIP3   OH217705   5.189   3.781   3.909  0.2894  0.0031 -0.2071
 5900TIP3    H117706   5.164   3.689   3.919  0.7351 -0.1230 -0.2292
 5900TIP3    H217707   5.275   3.787   3.951 -0.5338  0.8131  1.4241
 5901TIP3   OH217708   6.307   0.648   0.717  0.3441 -0.0065  0.3284
 5901TIP3    H117709   6.352   0.597   0.650  1.0139  1.5678 -0.4509
 5901TIP3    H217710   6.222   0.605   0.726 -0.0722  0.1750 -2.1060
 5902TIP3   OH217711   0.193   4.722   2.054  0.5937  0.2959 -0.2310
 5902TIP3    H117712   0.266   4.706   2.114  1.4479  2.3278 -0.6685
 5902TIP3    H217713   0.122   4.752   2.111 -0.0093 -1.8134  0.2108
 5903TIP3   OH217714   0.815   3.521   3.139 -0.0107  0.0813  0.4560
 5903TIP3    H117715   0.813   3.447   3.078 -1.7172 -0.0047  0.5526
 5903TIP3    H217716   0.775   3.486   3.219 -0.4408  0.9800  0.6421
 5904TIP3   OH217717   5.346   5.123   3.468  0.0580  0.0345  0.2457
 5904TIP3    H117718   5.358   5.130   3.374 -2.8390  2.6949 -0.0670
 5904TIP3    H217719   5.259   5.085   3.479  0.6527 -0.9801  1.9155
 5905TIP3   OH217720   3.431   5.221   2.152  0.4065  0.3089 -0.0956
 5905TIP3    H117721   3.462   5.260   2.234 -0.5169 -0.3116  0.5576
 5905TIP3    H217722   3.442   5.290   2.087  1.5303  0.6773  0.4515
 5906TIP3   OH217723   3.684   1.393   2.502  0.8828 -0.2749 -0.0016
 5906TIP3    H117724   3.730   1.414   2.421  0.5343  0.8236  0.0789
 5906TIP3    H217725   3.631   1.316   2.480  0.4082  0.3120 -0.9565
 5907TIP3   OH217726   2.790   5.861   3.186  0.2977 -0.5980  0.2018
 5907TIP3    H117727   2.704   5.892   3.156  0.9306  0.5736 -0.4612
 5907TIP3    H217728   2.772   5.821   3.271 -1.0775 -1.3685 -0.4193
 5908TIP3   OH217729   0.881   3.033   1.209 -0.0335  0.3011 -0.3126
 5908TIP3    H117730   0.815   3.061   1.273  0.2081  1.7667 -0.6667
 5908TIP3    H217731   0.834   2.971   1.153 -0.4911 -0.3294  0.7321
 5909TIP3   OH217732   3.588   2.478   0.562  0.2159  0.6419  0.6200
 5909TIP3    H117733   3.571   2.503   0.653 -1.6638  0.0928  0.4552
 5909TIP3    H217734   3.634   2.554   0.525 -1.8579  2.2728  1.1824
 5910TIP3   OH217735   4.423   4.725   2.896 -0.4177  0.3724 -0.7673
 5910TIP3    H117736   4.342   4.677   2.913  0.5756 -0.9588  0.5139
 5910TIP3    H217737   4.480   4.662   2.852  0.2254  1.0194 -0.8844
 5911TIP3   OH217738   4.638   3.909   0.272  0.2819  0.0040 -0.2529
 5911TIP3    H117739   4.587   3.829   0.289  0.7277 -0.0605  0.8634
 5911TIP3    H217740   4.726   3.887   0.301  0.5818  0.6603 -0.6570
 5912TIP3   OH217741   4.989   0.229   3.046  0.2217 -0.0649  0.2635
 5912TIP3    H117742   5.071   0.179   3.044  1.8204  2.0622  3.6331
 5912TIP3    H217743   4.922   0.163   3.066  1.6053 -1.4415  0.6039
 5913TIP3   OH217744   1.357   5.003   0.296 -0.1480 -0.1295 -0.1257
 5913TIP3    H117745   1.337   4.963   0.381  0.8783  0.2387  0.3040
 5913TIP3    H217746   1.453   5.000   0.290 -0.2719 -1.6927 -2.0363
 5914TIP3   OH217747   4.167   4.247   4.565  0.2558 -0.3576  0.1777
 5914TIP3    H117748   4.175   4.258   4.471 -0.6594  2.4032  0.3350
 5914TIP3    H217749   4.093   4.188   4.576 -1.0859  1.0572 -0.8577
 5915TIP3   OH217750   3.628   2.385   3.882  0.3296 -0.0620  0.0435
 5915TIP3    H117751   3.565   2.314   3.870  0.7897 -0.8163  1.8437
 5915TIP3    H217752   3.574   2.461   3.907  0.1417 -1.1920  3.6301
 5916TIP3   OH217753   2.862   5.729   4.777  0.5685 -0.3769 -0.1384
 5916TIP3    H117754   2.777   5.721   4.819  0.7161  1.9333  0.7466
 5916TIP3    H217755   2.848   5.698   4.688 -0.7216 -1.6950  0.4793
 5917TIP3   OH217756   2.108   1.777   0.540  0.0416 -0.4250 -0.1149
 5917TIP3    H117757   2.047   1.781   0.614  0.2031  1.9006 -0.0575
 5917TIP3    H217758   2.152   1.692   0.551 -0.7849 -0.6670  1.7598
 5918TIP3   OH217759   2.006   1.944   0.315 -0.0498 -0.1945  0.5816
 5918TIP3    H117760   2.050   1.907   0.391  0.4863  1.6501  1.2298
 5918TIP3    H217761   2.013   1.876   0.248  0.5842 -1.3633  1.7768
 5919TIP3   OH217762   1.811   2.071   1.131 -0.0942  0.4062 -0.5496
 5919TIP3    H117763   1.802   2.026   1.047  1.0150 -0.3031 -0.3083
 5919TIP3    H217764   1.882   2.134   1.117 -0.7360  1.1614 -0.4914
 5920TIP3   OH217765   0.474   4.008   1.991 -0.4124  0.0622  0.3236
 5920TIP3    H117766   0.391   3.964   2.007  0.0293  0.1370  3.3289
 5920TIP3    H217767   0.460   4.098   2.020  0.6834  0.0966  0.8045
 5921TIP3   OH217768   3.770   4.299   4.638 -0.3758 -0.1807 -0.8856
 5921TIP3    H117769   3.830   4.326   4.569 -2.0043  1.0153 -1.9220
 5921TIP3    H217770   3.740   4.381   4.677  1.0631 -0.8294  1.8345
 5922TIP3   OH217771   4.841   3.449   2.298 -0.9701  0.5576  0.3721
 5922TIP3    H117772   4.815   3.510   2.228  0.6650 -0.0110 -0.7893
 5922TIP3    H217773   4.827   3.499   2.378  0.5377  2.6062 -0.5489
 5923TIP3   OH217774   5.348   1.840   2.643 -0.1322 -0.5894 -0.0347
 5923TIP3    H117775   5.410   1.800   2.581 -2.2030 -1.8142 -1.4124
 5923TIP3    H217776   5.308   1.912   2.595 -2.3825 -2.0793 -0.5391
 5924TIP3   OH217777   5.669   5.464   2.690  0.9640  0.8326 -0.4240
 5924TIP3    H117778   5.576   5.444   2.701  1.5595 -1.5804  1.2406
 5924TIP3    H217779   5.694   5.509   2.771  1.5609 -0.0991 -0.0670
 5925TIP3   OH217780   1.979   1.966   4.972  0.8895 -0.0543  0.0777
 5925TIP3    H117781   2.056   1.909   4.977  0.4798 -0.4789  2.0705
 5925TIP3    H217782   1.957   1.968   4.878  2.6080 -0.8554 -0.3783
 5926TIP3   OH217783   4.017   5.633   4.696  0.7552 -0.5434  0.0136
 5926TIP3    H117784   3.996   5.721   4.667  1.7654  0.2290  1.4636
 5926TIP3    H217785   4.034   5.584   4.616 -1.6078  0.0541 -0.9326
 5927TIP3   OH217786   0.434   2.042   3.279 -0.0845  0.0606 -0.2167
 5927TIP3    H117787   0.463   2.065   3.191  1.6481 -0.3998  0.1971
 5927TIP3    H217788   0.410   2.125   3.319 -0.0910  0.3713 -0.8607
 5928TIP3   OH217789   0.678   3.359   2.966  0.0241  0.4775 -0.1895
 5928TIP3    H117790   0.687   3.382   2.873  0.1717  1.7058  0.1110
 5928TIP3    H217791   0.587   3.328   2.974  0.5592 -1.4498 -1.0874
 5929TIP3   OH217792   0.246   4.281   2.725  0.3193  0.0729 -0.5443
 5929TIP3    H117793   0.305   4.351   2.698 -0.0822  0.1987 -1.0993
 5929TIP3    H217794   0.248   4.283   2.821 -0.8471  1.8288 -0.5265
 5930TIP3   OH217795   1.868   0.647   5.029  0.1052  0.8836 -0.8297
 5930TIP3    H117796   1.822   0.730   5.043  0.6925  1.2247 -0.8747
 5930TIP3    H217797   1.914   0.658   4.946 -2.5445 -0.7672 -2.6465
 5931TIP3   OH217798   6.015   2.127   1.587 -0.8118 -0.3865 -0.4527
 5931TIP3    H117799   5.972   2.048   1.619 -0.4064 -0.7877 -0.9018
 5931TIP3    H217800   6.064   2.099   1.510  1.5362 -0.2780  0.9061
 5932TIP3   OH217801   2.982   4.109   2.718  0.1003  0.1444 -0.4577
 5932TIP3    H117802   2.984   4.014   2.716  1.3512  0.1052 -3.3002
 5932TIP3    H217803   2.890   4.132   2.723 -0.1597 -1.0948  2.4499
 5933TIP3   OH217804   3.205   1.046   1.719  0.1480 -0.6398  0.0817
 5933TIP3    H117805   3.266   0.978   1.693  0.7998  0.2387 -0.7634
 5933TIP3    H217806   3.183   1.092   1.638  0.3397  0.6424  0.7303
 5934TIP3   OH217807   6.196   3.288   1.468 -0.4985 -0.0807 -0.4001
 5934TIP3    H117808   6.290   3.294   1.480 -0.7176  1.4252  0.9464
 5934TIP3    H217809   6.185   3.259   1.377  1.2506  1.1094 -1.0378
 5935TIP3   OH217810   5.849   0.729   2.782  0.0018  0.1932 -0.2913
 5935TIP3    H117811   5.766   0.770   2.758 -0.5650 -1.1158 -0.6529
 5935TIP3    H217812   5.826   0.639   2.804  0.9989  0.4001  1.8866
 5936TIP3   OH217813   3.739   5.172   0.883  0.5229  0.3393  0.2041
 5936TIP3    H117814   3.826   5.213   0.885 -0.2594  2.0358  1.9357
 5936TIP3    H217815   3.705   5.193   0.795  0.6628  2.3825  0.5969
 5937TIP3   OH217816   5.113   3.503   2.202  0.0689 -0.3555 -0.7692
 5937TIP3    H117817   5.161   3.446   2.262 -0.1047 -0.0297 -0.3133
 5937TIP3    H217818   5.021   3.486   2.221 -0.0179  1.7241  1.0186
 5938TIP3   OH217819   5.991   0.141   4.908 -0.7206  0.2604  0.4272
 5938TIP3    H117820   5.986   0.176   4.819 -0.9897 -1.1435 -0.1263
 5938TIP3    H217821   5.912   0.088   4.917  0.6612 -1.8961  0.4841
 5939TIP3   OH217822   2.534   0.597   1.595  0.3392  0.1096 -0.0973
 5939TIP3    H117823   2.442   0.578   1.609  0.2959  1.6361  2.3601
 5939TIP3    H217824   2.578   0.513   1.606 -0.7842 -0.9014 -2.6424
 5940TIP3   OH217825   2.383   1.145   4.766  0.3879 -0.0144  0.2111
 5940TIP3    H117826   2.303   1.152   4.714 -0.2570 -0.2194  1.1543
 5940TIP3    H217827   2.395   1.232   4.803  0.8861  0.1501 -0.3245
 5941TIP3   OH217828   0.124   0.043   4.636  0.4288 -0.3421 -0.1945
 5941TIP3    H117829   0.137   0.136   4.619  1.4782 -0.6136 -0.9988
 5941TIP3    H217830   0.040   0.023   4.594  0.3046  0.1961 -0.2143
 5942TIP3   OH217831   2.459   4.730   1.784  0.1806 -0.0848 -0.0459
 5942TIP3    H117832   2.401   4.676   1.731  0.6209 -1.2845  0.6405
 5942TIP3    H217833   2.419   4.817   1.784 -1.1952 -0.7010 -0.2172
 5943TIP3   OH217834   1.226   3.608   0.259  0.0698  0.2929 -0.4011
 5943TIP3    H117835   1.262   3.633   0.344  0.7275 -0.3471 -0.4878
 5943TIP3    H217836   1.302   3.595   0.203 -0.3385  0.1061 -0.9202
 5944TIP3   OH217837   0.625   0.202   2.166  0.1512  0.1232  0.9927
 5944TIP3    H117838   0.702   0.183   2.220  1.2043 -0.6163 -0.6890
 5944TIP3    H217839   0.652   0.180   2.077 -2.1784 -0.6555  0.3980
 5945TIP3   OH217840   1.359   0.522   1.178  0.4055  0.3306  0.0463
 5945TIP3    H117841   1.336   0.503   1.269 -1.8855  1.0986 -0.3194
 5945TIP3    H217842   1.449   0.555   1.182  0.2993  0.4691  2.0250
 5946TIP3   OH217843   0.182   4.788   3.760 -0.1500  0.5779  0.1483
 5946TIP3    H117844   0.177   4.858   3.695 -1.2673 -0.3536 -0.8237
 5946TIP3    H217845   0.238   4.823   3.829 -2.7435  3.5005  0.9851
 5947TIP3   OH217846   2.549   5.017   0.066 -0.0558  0.6276  0.1056
 5947TIP3    H117847   2.499   4.938   0.048  2.1824 -0.5597 -1.4044
 5947TIP3    H217848   2.587   5.003   0.153 -1.1292  0.8973  0.6297
 5948TIP3   OH217849   5.229   5.675   2.907  0.1893 -0.8359  0.1886
 5948TIP3    H117850   5.301   5.630   2.951 -0.0019 -0.9355  0.4046
 5948TIP3    H217851   5.244   5.659   2.814 -0.0601 -1.6460  0.2717
 5949TIP3   OH217852   2.766   1.868   3.755 -0.7218  0.1358 -0.1089
 5949TIP3    H117853   2.715   1.949   3.764  0.3061  0.7743  0.0669
 5949TIP3    H217854   2.702   1.798   3.769 -1.3498  0.9264  1.1507
 5950TIP3   OH217855   1.201   3.260   3.461  0.6614 -0.1943 -0.2448
 5950TIP3    H117856   1.168   3.293   3.378  0.2330 -0.7338 -0.2960
 5950TIP3    H217857   1.122   3.246   3.514  0.9793  1.5009  0.7847
 5951TIP3   OH217858   4.150   4.651   2.277  0.0592 -0.1767 -0.4572
 5951TIP3    H117859   4.114   4.628   2.192  0.0704 -1.0642 -0.2364
 5951TIP3    H217860   4.087   4.616   2.340  0.1004  0.3845 -0.0950
 5952TIP3   OH217861   3.208   5.459   2.335 -0.0068  0.6112 -0.2187
 5952TIP3    H117862   3.282   5.519   2.323  0.2557  0.6207  1.2902
 5952TIP3    H217863   3.161   5.494   2.410 -0.4352 -0.5104  0.0446
 5953TIP3   OH217864   1.217   3.808   2.631  0.0409  0.1691 -0.4075
 5953TIP3    H117865   1.151   3.874   2.652 -0.9001 -1.1056  0.9194
 5953TIP3    H217866   1.294   3.833   2.682 -0.4469  0.0358  0.4088
 5954TIP3   OH217867   1.629   1.956   2.734 -0.5098  0.3657  0.2216
 5954TIP3    H117868   1.641   2.006   2.815 -1.0533 -1.6279  1.5867
 5954TIP3    H217869   1.563   1.891   2.755  1.8713 -2.5620 -0.6815
 5955TIP3   OH217870   3.573   3.326   2.814  0.2387  0.3873  0.1954
 5955TIP3    H117871   3.580   3.288   2.902  0.2326  0.2207  0.1255
 5955TIP3    H217872   3.663   3.324   2.780  0.1025 -0.4119 -0.1530
 5956TIP3   OH217873   3.165   1.695   3.783  0.1802  0.0383  0.2994
 5956TIP3    H117874   3.119   1.754   3.843 -0.5441 -0.4943  0.2800
 5956TIP3    H217875   3.257   1.700   3.810  0.3589  2.1257 -0.4835
 5957TIP3   OH217876   6.310   3.672   0.605  0.0751  0.0360 -0.3145
 5957TIP3    H117877   6.285   3.680   0.513  2.1850  0.2169 -0.9044
 5957TIP3    H217878   6.324   3.761   0.635 -0.5863 -0.0227  0.1993
 5958TIP3   OH217879   4.040   4.808   0.547  0.0280  0.3272  0.1858
 5958TIP3    H117880   4.044   4.825   0.453  1.7353  1.4430  0.4188
 5958TIP3    H217881   4.056   4.894   0.588  1.6530 -0.5221  1.4567
 5959TIP3   OH217882   5.573   4.779   4.746  0.6283 -0.4088 -0.2928
 5959TIP3    H117883   5.488   4.777   4.702  0.7834  0.4795 -0.6399
 5959TIP3    H217884   5.637   4.788   4.676  1.1905 -2.9944 -0.2141
 5960TIP3   OH217885   4.648   1.517   0.422  0.2900  0.1599  0.2469
 5960TIP3    H117886   4.627   1.456   0.351 -0.9244 -1.1170  1.6300
 5960TIP3    H217887   4.625   1.603   0.387 -1.4461 -0.5679 -0.5185
 5961TIP3   OH217888   2.887   2.476   3.439 -0.0394  0.1436  0.2606
 5961TIP3    H117889   2.945   2.520   3.377  1.8398 -1.1412  1.0050
 5961TIP3    H217890   2.808   2.530   3.442  0.9059  1.6737 -1.2049
 5962TIP3   OH217891   0.488   4.936   4.712 -0.0541  0.4120 -0.5590
 5962TIP3    H117892   0.440   4.954   4.793  3.2638  0.2203  1.6189
 5962TIP3    H217893   0.543   5.012   4.699  2.4759 -1.2559 -0.2365
 5963TIP3   OH217894   5.975   5.553   5.156 -0.1694  0.0560  0.2938
 5963TIP3    H117895   5.886   5.527   5.180 -0.1098 -0.7318 -0.3177
 5963TIP3    H217896   5.967   5.647   5.136 -1.1635 -0.2833 -1.0646
 5964TIP3   OH217897   0.404   3.781   4.221  0.2108 -0.4280 -0.6262
 5964TIP3    H117898   0.338   3.769   4.290  0.0659  0.8228 -0.5282
 5964TIP3    H217899   0.359   3.754   4.141  0.6441 -2.7268 -0.1933
 5965TIP3   OH217900   3.359   5.421   1.960  0.2027  0.1385  0.3846
 5965TIP3    H117901   3.282   5.459   1.918  0.0256 -0.2154  0.3802
 5965TIP3    H217902   3.419   5.403   1.887 -0.2550 -0.8201  0.2283
 5966TIP3   OH217903   2.198   0.179   0.912  0.0603 -0.1878  1.1625
 5966TIP3    H117904   2.131   0.186   0.844  1.6364  1.7442 -0.3038
 5966TIP3    H217905   2.231   0.089   0.904 -0.2678 -0.2017 -0.1589
 5967TIP3   OH217906   6.018   4.730   2.263 -0.1479 -0.3407 -0.1819
 5967TIP3    H117907   5.971   4.667   2.318 -2.0044  0.5998 -0.6169
 5967TIP3    H217908   5.949   4.783   2.223  1.3429  2.1446  0.3456
 5968TIP3   OH217909   3.265   4.072   1.296 -0.1473  0.6185  0.0599
 5968TIP3    H117910   3.316   4.153   1.306  0.3227  0.1456  1.7111
 5968TIP3    H217911   3.192   4.097   1.239 -0.9407  2.6838  1.8287
 5969TIP3   OH217912   3.231   1.929   0.190  0.1853 -0.1397 -0.5822
 5969TIP3    H117913   3.260   1.886   0.270 -0.6100  0.5138  0.0757
 5969TIP3    H217914   3.301   1.992   0.170 -0.3081  0.7740  0.4730
 5970TIP3   OH217915   5.061   5.480   0.342 -0.1126  0.0650 -0.1080
 5970TIP3    H117916   5.092   5.509   0.257 -0.0404 -0.4700 -0.2640
 5970TIP3    H217917   5.079   5.386   0.344  0.2506  0.1404  0.6492
 5971TIP3   OH217918   1.746   4.738   4.260 -0.1821  0.1100  0.4574
 5971TIP3    H117919   1.753   4.767   4.169 -0.2523 -0.1515  0.3655
 5971TIP3    H217920   1.658   4.763   4.286 -0.4072 -0.4230  0.2298
 5972TIP3   OH217921   4.892   4.835   0.779 -0.1277 -0.2520 -0.1368
 5972TIP3    H117922   4.933   4.877   0.703 -0.3311  1.0712  0.4609
 5972TIP3    H217923   4.943   4.865   0.853 -0.3193 -1.0398  0.3241
 5973TIP3   OH217924   0.252   3.979   2.711  0.8026 -0.3010 -0.5422
 5973TIP3    H117925   0.236   3.948   2.800  0.2871  0.2618 -0.4374
 5973TIP3    H217926   0.281   4.070   2.722  2.5853 -0.7836 -0.8261
 5974TIP3   OH217927   4.062   1.660   4.010  0.5680  0.5105 -0.5196
 5974TIP3    H117928   4.125   1.729   3.990  1.7541 -0.4616 -0.2807
 5974TIP3    H217929   3.999   1.663   3.938  0.3890  2.0525 -0.3264
 5975TIP3   OH217930   2.263   2.975   1.381  0.4192  0.0355 -0.0824
 5975TIP3    H117931   2.212   2.974   1.300  0.0969  1.1844  0.0772
 5975TIP3    H217932   2.207   2.931   1.445  0.0822  0.3195 -0.1748
 5976TIP3   OH217933   0.597   1.964   0.658  0.0966  0.1207  0.1981
 5976TIP3    H117934   0.637   2.051   0.664 -0.9196  0.5410  1.0900
 5976TIP3    H217935   0.565   1.946   0.746 -1.9224 -0.0656 -0.5340
 5977TIP3   OH217936   6.250   3.390   2.743 -0.3759  0.2515  0.0318
 5977TIP3    H117937   6.187   3.459   2.763 -0.5232 -0.2539  1.3807
 5977TIP3    H217938   6.303   3.426   2.672 -1.5313  1.0763 -0.4495
 5978TIP3   OH217939   4.475   2.975   3.148 -0.0475 -0.1987  0.0355
 5978TIP3    H117940   4.449   2.883   3.145 -3.0899  0.5791 -0.2631
 5978TIP3    H217941   4.427   3.012   3.222 -1.5416  1.8306 -1.8261
 5979TIP3   OH217942   2.807   0.174   1.555  0.9532 -0.3955 -0.3940
 5979TIP3    H117943   2.807   0.078   1.556 -0.2122 -0.4560 -2.0108
 5979TIP3    H217944   2.863   0.197   1.480  0.1649  0.1420 -0.8308
 5980TIP3   OH217945   5.415   5.437   2.765 -0.1639  0.2734 -0.0469
 5980TIP3    H117946   5.376   5.349   2.768  2.7386 -1.1274  0.5087
 5980TIP3    H217947   5.353   5.489   2.715 -2.4383 -1.8637  0.3681
 5981TIP3   OH217948   5.118   2.287   3.924  0.2486 -0.2815 -0.3440
 5981TIP3    H117949   5.072   2.203   3.922 -1.5192  0.6401 -0.4273
 5981TIP3    H217950   5.088   2.332   3.845  0.0898  0.9609  0.3930
 5982TIP3   OH217951   4.308   5.832   2.096  0.3503 -0.0962 -0.3356
 5982TIP3    H117952   4.221   5.839   2.136  1.3610  1.8404  1.7370
 5982TIP3    H217953   4.368   5.823   2.170  1.9557 -1.7056 -1.7230
 5983TIP3   OH217954   5.504   5.740   2.471  0.1788  0.1066  0.5227
 5983TIP3    H117955   5.466   5.728   2.384 -0.6515 -0.6234  0.9811
 5983TIP3    H217956   5.585   5.689   2.469 -1.2055 -2.2230  1.0561
 5984TIP3   OH217957   3.774   0.742   5.148 -0.0738 -1.1175 -0.7513
 5984TIP3    H117958   3.832   0.803   5.101 -1.0408 -1.4078 -2.4170
 5984TIP3    H217959   3.824   0.661   5.152  0.1152 -1.0261 -1.1022
 5985TIP3   OH217960   5.475   5.063   3.972 -0.3323  0.2079 -0.0505
 5985TIP3    H117961   5.401   5.005   3.990 -0.0333 -0.3522 -0.5801
 5985TIP3    H217962   5.542   5.035   4.035 -1.0277  1.6472  1.3956
 5986TIP3   OH217963   5.487   3.531   3.343  0.5135 -0.1179  0.3865
 5986TIP3    H117964   5.523   3.442   3.343  1.5435  0.2667  2.0988
 5986TIP3    H217965   5.491   3.559   3.434  0.9449  1.9758 -0.2196
 5987TIP3   OH217966   1.161   3.885   2.370  0.1943  0.3265  0.0213
 5987TIP3    H117967   1.069   3.860   2.363 -0.4445  2.1340  1.2573
 5987TIP3    H217968   1.190   3.847   2.453  0.1260  0.9823  0.3507
 5988TIP3   OH217969   5.187   1.165   3.528 -0.3247 -0.1201  0.2060
 5988TIP3    H117970   5.143   1.127   3.452  0.5472  1.1629 -0.9732
 5988TIP3    H217971   5.229   1.244   3.495 -0.1156  0.5999  2.0838
 5989TIP3   OH217972   5.120   5.313   5.135 -0.2108 -0.2104  0.5609
 5989TIP3    H117973   5.197   5.358   5.170  0.5438 -0.0936 -1.1540
 5989TIP3    H217974   5.046   5.368   5.161  0.4676  0.6517  0.7047
 5990TIP3   OH217975   0.468   1.043   0.062  0.8424  0.5373  0.2591
 5990TIP3    H117976   0.535   1.014   0.001  0.1787 -0.5474  0.0227
 5990TIP3    H217977   0.496   1.008   0.147  0.3249 -0.3422  0.0715
 5991TIP3   OH217978   4.373   2.338   0.398 -1.1625 -0.8421 -0.6386
 5991TIP3    H117979   4.451   2.283   0.393 -0.5426  0.0030 -0.4491
 5991TIP3    H217980   4.316   2.292   0.459 -0.1183 -0.6646  0.5173
 5992TIP3   OH217981   0.799   2.880   0.024  0.1421  0.6057  0.0071
 5992TIP3    H117982   0.811   2.895   0.118 -1.4924  1.1246  0.1661
 5992TIP3    H217983   0.782   2.968  -0.011  0.0010  0.3188 -0.6463
 5993TIP3   OH217984   2.956   4.836   0.646  0.2497 -0.5336 -0.2546
 5993TIP3    H117985   2.947   4.825   0.741 -1.1551 -0.6388 -0.3699
 5993TIP3    H217986   2.946   4.747   0.610  1.4667 -0.5980 -0.4796
 5994TIP3   OH217987   2.081   5.841   3.251 -0.1244 -0.5552 -0.6268
 5994TIP3    H117988   2.036   5.759   3.272 -1.3507  0.1752 -0.2740
 5994TIP3    H217989   2.036   5.872   3.173 -1.2855  0.9273  0.5697
 5995TIP3   OH217990   3.314   0.957   4.307  0.5268  0.2100 -0.1611
 5995TIP3    H117991   3.385   0.952   4.243  1.6461  1.8701  0.8717
 5995TIP3    H217992   3.306   0.868   4.340  2.4143  0.0334 -0.0460
 5996TIP3   OH217993   3.939   2.283   4.381  0.2009 -0.2042 -0.4100
 5996TIP3    H117994   4.021   2.234   4.387  1.2060  1.3841 -0.3783
 5996TIP3    H217995   3.887   2.252   4.455  1.1033 -0.6724  0.0498
 5997TIP3   OH217996   0.885   1.425   4.886  0.4786  0.1362  0.5313
 5997TIP3    H117997   0.808   1.372   4.867  0.8673 -0.6655  1.1290
 5997TIP3    H217998   0.876   1.502   4.829 -1.3073  0.5977  1.3750
 5998TIP3   OH217999   2.996   1.139   1.475  0.3126 -0.3548 -0.9914
 5998TIP3    H118000   2.902   1.126   1.458  0.0108 -1.0513  0.9578
 5998TIP3    H218001   2.999   1.214   1.534  0.7944 -1.4521  0.4427
 5999TIP3   OH218002   4.957   5.201   4.713  0.2500  0.8353  0.0716
 5999TIP3    H118003   4.905   5.150   4.774 -0.3489  1.7258  0.3309
 5999TIP3    H218004   5.024   5.244   4.767 -0.3577  1.7231  0.1475
 6000TIP3   OH218005   0.885   4.706   1.739 -0.5203  0.1665  0.2775
 6000TIP3    H118006   0.881   4.644   1.665 -1.6927  1.3700 -0.7283
 6000TIP3    H218007   0.918   4.787   1.700  1.2090  0.1581  1.6208
 6001TIP3   OH218008   5.269   2.542   1.651  0.2311  0.3047  0.5022
 6001TIP3    H118009   5.264   2.448   1.638  1.8001  0.1020  1.1498
 6001TIP3    H218010   5.184   2.566   1.687 -0.5820 -0.6681 -0.6863
 6002TIP3   OH218011   3.538   0.445   4.834  0.0816  0.3934 -0.6237
 6002TIP3    H118012   3.491   0.525   4.856 -0.1597 -0.2244  1.2716
 6002TIP3    H218013   3.513   0.427   4.744 -0.4479  2.0341 -0.8431
 6003TIP3   OH218014   6.109   2.161   1.838  0.6905 -0.9746  0.0188
 6003TIP3    H118015   6.069   2.157   1.751 -1.3114 -0.8155  0.8703
 6003TIP3    H218016   6.098   2.073   1.873 -0.7961 -0.4396  1.0112
 6004TIP3   OH218017   2.994   2.818   1.122 -0.4697 -0.2433  0.0183
 6004TIP3    H118018   3.026   2.889   1.179 -0.3334  0.1009 -0.4826
 6004TIP3    H218019   2.899   2.831   1.120 -0.8415 -1.9077  2.3743
 6005TIP3   OH218020   4.825   4.469   2.376 -0.7597  0.3777  0.0421
 6005TIP3    H118021   4.771   4.519   2.438 -1.1996  0.0267 -0.0532
 6005TIP3    H218022   4.830   4.381   2.413  0.3506  0.5807  0.4133
 6006TIP3   OH218023   3.229   1.744   0.469  0.2890 -0.2714 -0.6712
 6006TIP3    H118024   3.317   1.747   0.506 -0.5339 -0.5375  1.4491
 6006TIP3    H218025   3.226   1.661   0.422  1.4285  0.1590 -1.5724
 6007TIP3   OH218026   5.358   4.320   3.171 -0.1070  0.4304 -0.3762
 6007TIP3    H118027   5.429   4.384   3.163 -0.6197  1.2258  1.1243
 6007TIP3    H218028   5.280   4.367   3.140 -0.1991 -0.0558 -0.9008
 6008TIP3   OH218029   0.042   1.816   2.648 -0.4601  0.0229  0.0653
 6008TIP3    H118030   0.137   1.823   2.658 -0.1445 -3.9645  2.0934
 6008TIP3    H218031   0.029   1.805   2.554  1.1225  0.2206 -0.2147
 6009TIP3   OH218032   4.594   4.268   4.152 -0.0548 -0.1676  0.4546
 6009TIP3    H118033   4.584   4.305   4.239 -1.1990 -1.1804  0.7828
 6009TIP3    H218034   4.520   4.302   4.102 -0.1328 -0.6169  0.2563
 6010TIP3   OH218035   2.452   4.506   3.769  0.0795  0.1699 -0.0271
 6010TIP3    H118036   2.435   4.469   3.682 -0.5868  1.1440 -0.3283
 6010TIP3    H218037   2.382   4.570   3.782  0.1725  0.0418  1.2357
 6011TIP3   OH218038   0.903   1.776   0.663 -0.4225  0.0900 -0.0095
 6011TIP3    H118039   0.846   1.845   0.629 -0.7423 -0.5151 -0.7290
 6011TIP3    H218040   0.849   1.732   0.729 -0.0906  0.7486  0.7095
 6012TIP3   OH218041   0.399   5.747   4.020 -0.2896  0.2198 -1.0315
 6012TIP3    H118042   0.366   5.702   3.942 -1.4442 -2.6165  0.9255
 6012TIP3    H218043   0.478   5.699   4.044  0.1642  1.1815 -0.5365
 6013TIP3   OH218044   3.705   2.343   2.413 -0.5043  0.7557  0.2533
 6013TIP3    H118045   3.695   2.328   2.319  2.5545 -0.4866  0.0168
 6013TIP3    H218046   3.743   2.431   2.419 -0.1783  0.6109  0.2950
 6014TIP3   OH218047   4.302   0.757   2.066 -0.6567 -0.6423  0.3194
 6014TIP3    H118048   4.276   0.805   2.144  1.2757  1.0840 -0.0028
 6014TIP3    H218049   4.259   0.802   1.994  0.5258  0.1574  0.0878
 6015TIP3   OH218050   0.952   2.479   1.249  0.1586  0.1597  0.2750
 6015TIP3    H118051   0.877   2.505   1.302  0.6867  3.0968 -0.2864
 6015TIP3    H218052   1.010   2.434   1.311 -1.6966 -1.6044  0.8453
 6016TIP3   OH218053   5.759   3.276   2.337  0.0371 -0.3579  0.1306
 6016TIP3    H118054   5.795   3.200   2.383  0.6816  0.3940  0.9041
 6016TIP3    H218055   5.775   3.258   2.245  0.6579 -0.9221  0.3362
 6017TIP3   OH218056   3.480   3.947   4.651 -0.1535  0.1080 -0.0174
 6017TIP3    H118057   3.477   3.852   4.663 -0.0232  0.2308  1.0527
 6017TIP3    H218058   3.525   3.959   4.568  0.0877 -0.7616 -0.0230
 6018TIP3   OH218059   4.997   5.889   4.187 -0.2055  0.3671 -0.5228
 6018TIP3    H118060   4.994   5.890   4.283  0.2510  1.4414 -0.5112
 6018TIP3    H218061   5.078   5.842   4.166 -1.0933 -1.2769 -0.4250
 6019TIP3   OH218062   2.429   3.570   4.680 -0.4231 -0.3768  0.6220
 6019TIP3    H118063   2.378   3.589   4.759 -0.4886  1.0825  0.2593
 6019TIP3    H218064   2.520   3.581   4.707 -0.4260 -0.2886  0.5958
 6020TIP3   OH218065   1.394   5.964   0.107 -0.7962  0.2987 -0.6006
 6020TIP3    H118066   1.346   5.897   0.157  1.0964 -2.5990 -2.3549
 6020TIP3    H218067   1.469   5.985   0.162 -1.6573  1.4582  0.1793
 6021TIP3   OH218068   1.608   4.152   2.924  0.4626  0.4728  0.4517
 6021TIP3    H118069   1.519   4.183   2.944 -0.2446 -1.6076  0.8090
 6021TIP3    H218070   1.662   4.188   2.994 -0.4881  0.1510  1.3849
 6022TIP3   OH218071   2.860   4.828   1.466  0.8989 -0.0753  0.4171
 6022TIP3    H118072   2.836   4.919   1.482  0.1146  0.1320 -1.6668
 6022TIP3    H218073   2.956   4.829   1.460  0.9358  0.4954  1.0121
 6023TIP3   OH218074   2.404   1.975   0.021 -0.1035  0.1354  0.5934
 6023TIP3    H118075   2.391   1.945   0.111 -2.7277 -2.6444 -0.5694
 6023TIP3    H218076   2.326   1.947  -0.026  0.8949  2.0099 -2.4887
 6024TIP3   OH218077   5.617   0.790   3.620 -0.5621 -0.3463 -0.6974
 6024TIP3    H118078   5.686   0.842   3.580  0.2719 -1.0975 -0.2845
 6024TIP3    H218079   5.536   0.828   3.587  0.0558  0.2250 -1.6134
 6025TIP3   OH218080   3.633   5.152   3.883 -0.0306 -0.0148 -0.3892
 6025TIP3    H118081   3.718   5.135   3.925  0.7161 -2.8616 -2.6982
 6025TIP3    H218082   3.580   5.191   3.951  3.2169  2.3605  1.0697
 6026TIP3   OH218083   1.141   1.120   0.698 -0.0990 -0.0665  0.0883
 6026TIP3    H118084   1.145   1.029   0.728  3.4449 -0.4810 -1.0752
 6026TIP3    H218085   1.152   1.172   0.777  0.1827 -0.7826  0.5396
 6027TIP3   OH218086   3.256   5.118   2.486 -0.3060 -0.2133  0.3810
 6027TIP3    H118087   3.231   5.179   2.555  1.3259 -0.5882  1.3538
 6027TIP3    H218088   3.337   5.154   2.450  1.6574 -2.5268  2.1062
 6028TIP3   OH218089   2.137   3.154   0.083  0.1912 -0.3195  0.1386
 6028TIP3    H118090   2.119   3.186   0.171 -0.4369 -0.3213  0.0200
 6028TIP3    H218091   2.139   3.233   0.029 -0.8044 -0.4199 -0.0636
 6029TIP3   OH218092   5.007   4.397   2.088 -0.0374 -0.4405 -0.7569
 6029TIP3    H118093   4.930   4.383   2.034 -0.8595  0.8062  0.0487
 6029TIP3    H218094   5.065   4.324   2.067 -0.5982 -0.3538 -2.8161
 6030TIP3   OH218095   3.016   0.610   4.838 -0.2646 -0.3373  0.4364
 6030TIP3    H118096   3.057   0.696   4.848  1.1666 -0.7950 -1.0748
 6030TIP3    H218097   2.948   0.624   4.772 -1.6951  0.1153  1.9390
 6031TIP3   OH218098   4.218   3.549   1.454  0.2670  0.3876 -0.3793
 6031TIP3    H118099   4.189   3.488   1.387  1.4124 -1.4064  0.6600
 6031TIP3    H218100   4.294   3.592   1.416 -0.3461  0.9474 -0.9947
 6032TIP3   OH218101   0.410   2.590   4.706 -0.4705 -0.1846  0.0753
 6032TIP3    H118102   0.354   2.644   4.649 -0.2625 -0.9800 -0.9151
 6032TIP3    H218103   0.461   2.653   4.757 -1.0148  0.5465 -0.2725
 6033TIP3   OH218104   3.453   0.359   4.590 -0.4231 -0.0524 -0.2405
 6033TIP3    H118105   3.391   0.420   4.550 -0.3117  0.3834  0.2386
 6033TIP3    H218106   3.526   0.355   4.528 -0.1872  0.7290 -0.0276
 6034TIP3   OH218107   2.746   4.613   1.298 -0.3186  0.6501 -0.4116
 6034TIP3    H118108   2.698   4.626   1.380 -0.4636  1.7579 -0.6603
 6034TIP3    H218109   2.820   4.674   1.303 -0.5770  1.0528 -1.2830
 6035TIP3   OH218110   3.059   2.460   1.238  0.2948  0.2346  0.0471
 6035TIP3    H118111   2.990   2.499   1.292 -0.0513  0.4040 -0.5063
 6035TIP3    H218112   3.093   2.534   1.187 -2.0547 -0.5019 -2.8769
 6036TIP3   OH218113   2.261   2.924   0.479  0.0263 -0.7383  0.5490
 6036TIP3    H118114   2.223   2.890   0.398 -0.6389  1.4468 -0.1341
 6036TIP3    H218115   2.356   2.916   0.466 -0.0620 -0.1426 -0.5900
 6037TIP3   OH218116   5.258   1.026   2.460  0.1680 -0.9997  0.0201
 6037TIP3    H118117   5.353   1.027   2.476  0.4184  3.8384 -0.3263
 6037TIP3    H218118   5.221   1.062   2.541 -0.8467  1.0769 -1.2866
 6038TIP3   OH218119   0.921   0.475   0.795 -0.0050 -0.3415 -0.2571
 6038TIP3    H118120   0.839   0.453   0.839  1.4880 -0.0434  3.0180
 6038TIP3    H218121   0.894   0.520   0.715 -2.9881 -2.0064 -0.3286
 6039TIP3   OH218122   2.957   4.213   1.442 -0.3384  0.4396 -0.3609
 6039TIP3    H118123   3.022   4.225   1.512 -0.3775  2.2286 -0.5849
 6039TIP3    H218124   2.938   4.119   1.442  3.0744 -0.3963 -0.9974
 6040TIP3   OH218125   3.795   0.735   3.705 -0.4197 -0.5230 -0.5535
 6040TIP3    H118126   3.746   0.749   3.624 -1.6080  0.0786  0.2419
 6040TIP3    H218127   3.878   0.779   3.689 -0.5569 -0.5690 -1.5080
 6041TIP3   OH218128   2.953   0.807   1.319 -0.5697 -0.2159 -0.0249
 6041TIP3    H118129   2.986   0.816   1.229  0.1034  0.2735  0.2641
 6041TIP3    H218130   2.870   0.854   1.319 -1.2659 -1.4097 -0.7513
 6042TIP3   OH218131   1.753   1.590   3.326 -0.1058 -0.3635 -0.4927
 6042TIP3    H118132   1.843   1.568   3.304  0.4943  1.3332  0.0346
 6042TIP3    H218133   1.705   1.508   3.318  1.1693 -1.0001 -2.2954
 6043TIP3   OH218134   0.762   3.729   5.009  0.1021  0.6426 -0.6848
 6043TIP3    H118135   0.747   3.811   4.962 -1.8171  1.6695  1.4495
 6043TIP3    H218136   0.679   3.682   5.002  0.8453 -0.6723 -1.0131
 6044TIP3   OH218137   6.112   4.613   1.298  0.4172 -0.0901  0.3217
 6044TIP3    H118138   6.147   4.693   1.338  0.1399 -0.3021  1.0142
 6044TIP3    H218139   6.092   4.557   1.373 -0.7884 -0.2257 -0.0774
 6045TIP3   OH218140   3.102   5.282   1.768  0.3219  0.2380  0.1653
 6045TIP3    H118141   3.034   5.291   1.702  2.0577  0.1176 -1.7172
 6045TIP3    H218142   3.055   5.280   1.851 -1.7785  3.2812 -0.7859
 6046TIP3   OH218143   4.595   5.418   1.538 -0.0250  0.4480 -0.0235
 6046TIP3    H118144   4.595   5.443   1.631  1.3997  1.9226 -0.3720
 6046TIP3    H218145   4.503   5.399   1.518 -0.2813 -0.4983  1.8190
 6047TIP3   OH218146   5.248   3.456   1.129 -0.7018  0.2691 -0.1686
 6047TIP3    H118147   5.244   3.471   1.223  1.0251 -1.0820  0.1869
 6047TIP3    H218148   5.176   3.395   1.111 -1.0636  0.5659  0.2684
 6048TIP3   OH218149   3.482   4.134   1.811  0.0585 -0.1720 -0.5280
 6048TIP3    H118150   3.388   4.118   1.801 -0.3178  0.8277  1.0113
 6048TIP3    H218151   3.500   4.116   1.904  1.3224 -0.0180 -0.7178
 6049TIP3   OH218152   3.785   4.355  -0.004  0.2948  0.1334 -0.4799
 6049TIP3    H118153   3.803   4.261   0.008 -0.3882  0.2210  1.6186
 6049TIP3    H218154   3.691   4.363   0.011  0.5477  1.3224  0.6241
 6050TIP3   OH218155   2.202   3.270   1.915 -0.6520 -0.3267  0.3626
 6050TIP3    H118156   2.209   3.175   1.928 -0.0431 -0.3326  0.0212
 6050TIP3    H218157   2.129   3.281   1.854 -1.7163 -0.4730  1.5607
 6051TIP3   OH218158   6.102   5.743   0.459 -0.4191 -0.3422 -0.3434
 6051TIP3    H118159   6.040   5.815   0.461  0.0724  0.1183 -1.1361
 6051TIP3    H218160   6.131   5.739   0.368  0.2874 -0.9147 -0.1012
 6052TIP3   OH218161   5.270   4.012   2.297  0.2840  0.0228  0.5914
 6052TIP3    H118162   5.364   4.000   2.311  0.2389  0.7737  1.6505
 6052TIP3    H218163   5.229   3.979   2.376 -0.4313 -1.1216 -0.2256
 6053TIP3   OH218164   3.828   2.537   1.593 -0.1974  0.1241 -0.4723
 6053TIP3    H118165   3.849   2.624   1.558 -0.4987  0.8786  1.1096
 6053TIP3    H218166   3.844   2.477   1.520  1.8209  1.2934 -1.0692
 6054TIP3   OH218167   3.382   5.487   3.141 -0.1080 -0.2806 -0.0798
 6054TIP3    H118168   3.312   5.447   3.192 -0.2853  0.5319  0.3328
 6054TIP3    H218169   3.370   5.581   3.153  0.3471 -0.0948 -0.9568
 6055TIP3   OH218170   5.584   4.789   3.916  0.2695 -0.2375 -0.3910
 6055TIP3    H118171   5.550   4.873   3.888 -0.8417 -0.4710  0.1932
 6055TIP3    H218172   5.668   4.809   3.957 -1.4789  1.1326  2.9173
 6056TIP3   OH218173   6.099   0.432   0.869  0.5363 -0.0274 -0.0025
 6056TIP3    H118174   6.025   0.374   0.888 -0.7444  2.0947  1.9032
 6056TIP3    H218175   6.059   0.511   0.832  2.3137 -0.5916 -3.5435
 6057TIP3   OH218176   1.869   1.957   0.884  0.0856 -0.2350  0.9449
 6057TIP3    H118177   1.932   1.994   0.822  0.3691  0.2274  1.5003
 6057TIP3    H218178   1.899   1.867   0.897  0.1058 -0.2921  0.5210
 6058TIP3   OH218179   0.502   4.281   1.466 -0.6339  0.0087 -0.6506
 6058TIP3    H118180   0.536   4.364   1.432  1.4639 -0.5655 -0.0809
 6058TIP3    H218181   0.470   4.302   1.554 -2.3500  0.6668 -1.3949
 6059TIP3   OH218182   0.400   1.296   0.222 -0.1154 -0.4885  0.0931
 6059TIP3    H118183   0.365   1.221   0.173 -3.3845  0.1796  1.1940
 6059TIP3    H218184   0.450   1.256   0.294  1.8529 -1.4826 -1.7350
 6060TIP3   OH218185   2.956   3.782   4.819 -0.2800 -0.1028 -0.2622
 6060TIP3    H118186   2.957   3.820   4.732  0.3327 -0.2935 -0.3451
 6060TIP3    H218187   3.020   3.833   4.869 -1.6685  0.9583  0.5091
 6061TIP3   OH218188   0.117   4.852   1.439  0.1233  0.1318 -0.0528
 6061TIP3    H118189   0.108   4.763   1.473  1.2344 -0.2368 -0.6892
 6061TIP3    H218190   0.039   4.865   1.384  0.6256 -0.9678 -1.0631
 6062TIP3   OH218191   4.220   3.109   3.249 -0.0866  0.2765  0.3312
 6062TIP3    H118192   4.165   3.187   3.252  2.0152  1.8645 -0.1888
 6062TIP3    H218193   4.239   3.096   3.156  1.2195  0.4097  0.5533
 6063TIP3   OH218194   1.087   0.592   1.455 -0.4036  0.2149 -0.3458
 6063TIP3    H118195   1.034   0.618   1.379 -0.3376 -0.1326 -0.5100
 6063TIP3    H218196   1.107   0.500   1.441  1.0447  0.5583 -0.7676
 6064TIP3   OH218197   1.268   2.016   0.186  0.8340  0.2485 -0.8953
 6064TIP3    H118198   1.225   2.031   0.270  0.6473  2.8325 -1.3603
 6064TIP3    H218199   1.324   1.940   0.201  0.9991  0.7758  1.6577
 6065TIP3   OH218200   0.639   2.727   3.572 -0.3841 -0.1615  0.6361
 6065TIP3    H118201   0.707   2.672   3.531 -0.3580 -0.1378  0.6478
 6065TIP3    H218202   0.560   2.673   3.569 -1.5449  1.3483 -3.4549
 6066TIP3   OH218203   0.338   3.778   4.999  0.3873 -0.0301 -0.1795
 6066TIP3    H118204   0.295   3.759   5.082  1.2831  2.7556  1.0545
 6066TIP3    H218205   0.267   3.785   4.935 -0.4278 -0.9936  0.6013
 6067TIP3   OH218206   5.040   2.290   1.388 -0.2722 -0.4128  0.0794
 6067TIP3    H118207   5.038   2.323   1.298 -1.7433 -1.0034 -0.1414
 6067TIP3    H218208   5.126   2.249   1.396  0.0270 -0.0253 -0.9338
 6068TIP3   OH218209   4.072   1.244   2.168  0.0146 -0.1709 -0.3423
 6068TIP3    H118210   4.157   1.201   2.168  0.3197  0.4105  0.2332
 6068TIP3    H218211   4.079   1.311   2.236 -1.2083 -0.7096  0.3600
 6069TIP3   OH218212   2.575   2.911   2.326 -0.4124 -0.4327  0.0353
 6069TIP3    H118213   2.616   2.963   2.396  2.2735 -0.7512 -1.1691
 6069TIP3    H218214   2.484   2.941   2.324 -0.4279  0.1387  3.1077
 6070TIP3   OH218215   3.004   2.281   1.658  0.2684 -0.3311  0.2195
 6070TIP3    H118216   3.000   2.376   1.659  1.2317 -0.2776 -0.2119
 6070TIP3    H218217   3.061   2.260   1.584 -1.7560 -1.3202 -1.1672
 6071TIP3   OH218218   5.879   2.434   2.293 -0.1124  0.1324  0.4069
 6071TIP3    H118219   5.926   2.516   2.306  0.3993 -0.2545  1.1174
 6071TIP3    H218220   5.918   2.374   2.357 -1.2950 -0.3221  0.7223
 6072TIP3   OH218221   2.021   2.526   2.727 -0.4399 -0.1280  0.3908
 6072TIP3    H118222   1.959   2.535   2.655  0.0716 -1.6816 -0.2765
 6072TIP3    H218223   2.058   2.438   2.716  1.5161  0.5663  1.0471
 6073TIP3   OH218224   1.635   4.424   3.303 -0.1209 -0.0182 -0.2304
 6073TIP3    H118225   1.612   4.500   3.250 -0.1062 -0.4075 -0.8053
 6073TIP3    H218226   1.591   4.439   3.387 -1.6124 -0.2219 -0.9294
 6074TIP3   OH218227   3.074   2.975   5.003 -0.1084 -0.1516  0.5596
 6074TIP3    H118228   3.150   3.003   5.054  1.8435  1.5220 -2.8731
 6074TIP3    H218229   3.092   2.883   4.982  0.1093 -0.2435  1.1241
 6075TIP3   OH218230   3.838   1.651   3.251 -0.3740  0.5160 -0.5667
 6075TIP3    H118231   3.889   1.596   3.310 -0.8002 -0.6903 -1.2746
 6075TIP3    H218232   3.804   1.721   3.307  1.6281  1.1003  0.0100
 6076TIP3   OH218233   1.908   4.868   0.284  0.5327  0.4297  0.0374
 6076TIP3    H118234   1.916   4.808   0.358 -0.2659  0.7085  0.3655
 6076TIP3    H218235   1.976   4.840   0.222  2.6722  1.5024  1.7591
 6077TIP3   OH218236   1.108   2.233   1.344 -0.0255  0.1585  0.1190
 6077TIP3    H118237   1.179   2.296   1.333 -0.5024  0.7463  0.3346
 6077TIP3    H218238   1.125   2.193   1.429 -0.2305  0.6768  0.4142
 6078TIP3   OH218239   0.430   5.213   3.996  0.0473 -0.0462 -0.0925
 6078TIP3    H118240   0.525   5.209   3.984 -0.0390 -0.3918 -0.7354
 6078TIP3    H218241   0.395   5.176   3.915 -0.6637  1.2689 -0.4016
 6079TIP3   OH218242   0.901   0.204   4.332  0.3166 -0.2001  0.5737
 6079TIP3    H118243   0.840   0.207   4.405 -0.5255 -2.5948  0.0643
 6079TIP3    H218244   0.943   0.119   4.339  5.2813  2.0098  2.0694
 6080TIP3   OH218245   2.477   2.944   1.690 -0.6309  1.3177 -0.3198
 6080TIP3    H118246   2.476   2.870   1.751 -0.1727  1.4490 -0.1422
 6080TIP3    H218247   2.500   2.905   1.605  1.3486  1.4472  0.0918
 6081TIP3   OH218248   2.055   2.556   0.578  0.5843 -0.3638  0.2022
 6081TIP3    H118249   2.014   2.598   0.503 -0.1016 -0.5434  0.4733
 6081TIP3    H218250   2.065   2.626   0.643  2.5733  0.1645 -0.5749
 6082TIP3   OH218251   1.877   1.692   4.634  0.8094  0.3421 -0.3287
 6082TIP3    H118252   1.930   1.723   4.560  0.4205 -1.4374 -1.4200
 6082TIP3    H218253   1.826   1.620   4.598  0.0570 -0.0988  1.5214
 6083TIP3   OH218254   6.178   3.251   2.425 -0.6411  0.2884 -0.0465
 6083TIP3    H118255   6.251   3.311   2.434 -0.3205 -0.0438 -0.3825
 6083TIP3    H218256   6.199   3.199   2.347 -1.4346  0.4689 -0.3897
 6084TIP3   OH218257   2.406   0.379   1.330  0.0203  0.3972  0.0031
 6084TIP3    H118258   2.471   0.312   1.312  1.0494  1.3712 -0.0387
 6084TIP3    H218259   2.456   0.461   1.333 -1.2898  1.2612 -0.6583
 6085TIP3   OH218260   0.723   5.504   1.010  0.2110  0.4462  0.5231
 6085TIP3    H118261   0.652   5.565   1.030  0.1753  0.6607 -0.2316
 6085TIP3    H218262   0.762   5.538   0.930  1.1140  0.2781  0.8834
 6086TIP3   OH218263   5.013   3.856   4.676  0.4354 -1.0982 -0.0165
 6086TIP3    H118264   5.005   3.924   4.610 -0.7806  1.0901  2.1905
 6086TIP3    H218265   4.923   3.839   4.705  0.9440 -1.5621  1.4165
 6087TIP3   OH218266   2.101   0.751   0.484 -0.2869  0.2436 -0.0580
 6087TIP3    H118267   2.135   0.731   0.397 -2.3851  2.5216 -1.5095
 6087TIP3    H218268   2.055   0.671   0.510  0.1949 -0.4052 -1.1165
 6088TIP3   OH218269   6.287   3.635   3.505  0.2579  0.1396 -0.4589
 6088TIP3    H118270   6.220   3.703   3.510  1.2363  1.4925 -3.4713
 6088TIP3    H218271   6.365   3.675   3.544  0.8815  0.8872 -2.3879
 6089TIP3   OH218272   2.778   5.077   1.577  0.4976 -0.4648 -0.5837
 6089TIP3    H118273   2.828   5.158   1.589 -0.6364  0.2579 -0.6215
 6089TIP3    H218274   2.693   5.105   1.543  0.2942 -1.7241 -1.2018
 6090TIP3   OH218275   1.291   2.754   0.689  0.6605  0.5251 -0.5016
 6090TIP3    H118276   1.215   2.780   0.740 -0.1505  0.8146 -1.8147
 6090TIP3    H218277   1.349   2.830   0.692 -0.0315  1.0936 -1.2091
 6091TIP3   OH218278   4.311   1.130   2.474 -0.2962  0.1838 -0.0819
 6091TIP3    H118279   4.330   1.036   2.469 -1.3350 -0.1186  1.3662
 6091TIP3    H218280   4.272   1.151   2.389 -1.4654 -1.0389  0.1242
 6092TIP3   OH218281   5.844   3.633   2.078 -0.2859  0.1040  0.1528
 6092TIP3    H118282   5.761   3.587   2.068  0.8564 -1.7962 -1.6712
 6092TIP3    H218283   5.895   3.579   2.139 -0.1228  0.8688  0.7147
 6093TIP3   OH218284   3.139   0.906   3.436  0.3099 -0.6730  0.5993
 6093TIP3    H118285   3.175   0.843   3.373  0.2661 -0.7388  0.6390
 6093TIP3    H218286   3.195   0.983   3.429 -0.1175 -0.4142 -0.0281
 6094TIP3   OH218287   3.815   5.721   2.270 -0.2187  0.1728 -0.1653
 6094TIP3    H118288   3.762   5.668   2.331  0.1046 -0.2965 -0.2875
 6094TIP3    H218289   3.818   5.669   2.190  0.0837  0.3953 -0.2980
 6095TIP3   OH218290   1.846   0.996   2.806  0.1196 -0.0592  0.7349
 6095TIP3    H118291   1.859   1.043   2.724  0.4710 -0.7014  0.4179
 6095TIP3    H218292   1.849   0.904   2.782  2.0081 -0.2934  1.6974
 6096TIP3   OH218293   6.326   2.070   3.840  0.0635  0.1694  0.5417
 6096TIP3    H118294   6.391   2.020   3.889 -0.4458 -1.7688 -0.6675
 6096TIP3    H218295   6.245   2.021   3.852 -0.8249  1.5876  0.5694
 6097TIP3   OH218296   2.726   4.326   1.368  0.1339 -0.9165  0.1413
 6097TIP3    H118297   2.812   4.287   1.382  0.7179  0.2185 -0.2014
 6097TIP3    H218298   2.742   4.420   1.364 -1.4387 -0.4387  2.5368
 6098TIP3   OH218299   4.439   0.831   3.315 -0.4616 -0.0051 -0.1466
 6098TIP3    H118300   4.524   0.815   3.274 -1.6398 -3.0075 -1.7068
 6098TIP3    H218301   4.425   0.925   3.302  1.7454  0.2300 -1.6022
 6099TIP3   OH218302   5.131   3.335   1.982 -0.2473  0.3508 -0.0423
 6099TIP3    H118303   5.137   3.409   2.043 -1.9591 -1.0636  2.0114
 6099TIP3    H218304   5.210   3.284   1.998 -0.8846 -0.2472  1.4584
 6100TIP3   OH218305   4.937   3.424   3.480 -0.1885  0.2476  0.3368
 6100TIP3    H118306   4.997   3.436   3.554  0.9528  0.7372 -0.6474
 6100TIP3    H218307   4.933   3.330   3.468  1.5968  0.2535 -0.5345
 6101TIP3   OH218308   3.133   5.416   3.262  0.1017 -0.1393 -0.0964
 6101TIP3    H118309   3.114   5.448   3.349 -0.3323 -0.7959  0.0609
 6101TIP3    H218310   3.047   5.405   3.220  0.2926 -0.0236 -0.5307
 6102TIP3   OH218311   0.864   3.493   3.583 -0.9054  0.1568  0.1652
 6102TIP3    H118312   0.907   3.543   3.513 -0.9792 -0.7319 -0.5195
 6102TIP3    H218313   0.888   3.541   3.663  2.7442 -1.1206  0.0504
 6103TIP3   OH218314   6.091   1.937   3.966 -0.3191 -0.1273 -0.3645
 6103TIP3    H118315   6.142   1.857   3.953  0.4980  0.2558  0.3432
 6103TIP3    H218316   6.002   1.913   3.941  0.1758 -0.8562 -1.5190
 6104TIP3   OH218317   3.539   1.254   3.895  0.1440 -0.0421 -0.2018
 6104TIP3    H118318   3.497   1.291   3.973 -1.4612  0.9553 -1.4826
 6104TIP3    H218319   3.626   1.227   3.926 -0.6138 -0.1646  2.0402
 6105TIP3   OH218320   3.763   1.042   0.505  0.5541 -0.5845  0.4748
 6105TIP3    H118321   3.843   1.006   0.544  1.7388  1.2261 -0.1882
 6105TIP3    H218322   3.728   0.970   0.452  2.3228 -1.1046 -0.0660
 6106TIP3   OH218323   2.330   4.582   4.493 -0.2033  0.8968  0.6295
 6106TIP3    H118324   2.235   4.574   4.502 -0.3483  2.1386  0.3795
 6106TIP3    H218325   2.343   4.610   4.402  0.4450  0.1681  0.4930
 6107TIP3   OH218326   4.710   0.656   1.287 -0.3602 -0.1708 -0.2849
 6107TIP3    H118327   4.650   0.595   1.243 -1.3877  1.2648 -1.0179
 6107TIP3    H218328   4.786   0.660   1.230 -0.1611 -0.9776 -0.0785
 6108TIP3   OH218329   5.981   1.601   3.181  0.2048 -0.0684 -0.3467
 6108TIP3    H118330   5.952   1.678   3.133  2.2239  1.2424  0.4349
 6108TIP3    H218331   6.061   1.573   3.136 -0.0193 -1.2135 -0.0798
 6109TIP3   OH218332   5.795   1.238   1.647  0.4235  0.4659  0.4540
 6109TIP3    H118333   5.807   1.279   1.733 -0.2781 -1.0456  1.3169
 6109TIP3    H218334   5.866   1.273   1.594  0.5632  1.8389  1.4951
 6110TIP3   OH218335   4.557   4.598   0.085 -0.4178 -0.3866 -0.1031
 6110TIP3    H118336   4.498   4.529   0.057  1.5459 -1.5844 -1.5357
 6110TIP3    H218337   4.606   4.559   0.158  0.7506 -0.5843 -0.9669
 6111TIP3   OH218338   2.587   3.994   2.335 -0.2598  0.2961  0.0611
 6111TIP3    H118339   2.588   4.055   2.261  0.8892  1.3177  0.8714
 6111TIP3    H218340   2.587   3.907   2.295  1.0184  0.8120 -1.1520
 6112TIP3   OH218341   1.529   4.816   1.348  0.4486 -0.3444 -0.1823
 6112TIP3    H118342   1.492   4.904   1.355  1.9305  0.6019 -2.8485
 6112TIP3    H218343   1.555   4.793   1.437  0.1578  1.9700  0.5494
 6113TIP3   OH218344   5.614   2.134   3.421  0.5369 -0.3177 -0.1460
 6113TIP3    H118345   5.546   2.202   3.424  1.0090  0.1249  1.2555
 6113TIP3    H218346   5.695   2.182   3.405  0.7996 -0.5975  0.3113
 6114TIP3   OH218347   2.789   4.322   1.750 -0.3522  0.1448 -0.0258
 6114TIP3    H118348   2.729   4.364   1.812  0.1707  0.1977  0.4473
 6114TIP3    H218349   2.769   4.229   1.756 -0.8043  0.2194 -0.3191
 6115TIP3   OH218350   4.720   1.143   1.915  0.3104  0.7008  0.1539
 6115TIP3    H118351   4.655   1.110   1.977  0.0208  2.4437  0.8360
 6115TIP3    H218352   4.784   1.190   1.969  0.2817  1.9084 -0.8055
 6116TIP3   OH218353   3.438   0.980   4.057  0.0839  0.3510  0.3722
 6116TIP3    H118354   3.479   0.917   3.997 -0.1840 -0.0932  0.6481
 6116TIP3    H218355   3.419   1.056   4.003 -1.6893 -0.6702 -0.5145
 6117TIP3   OH218356   4.953   5.677   2.662  0.1202 -0.0532  0.1569
 6117TIP3    H118357   4.985   5.717   2.582 -0.0749 -0.4199 -0.1052
 6117TIP3    H218358   4.990   5.589   2.662 -0.9189 -0.5127 -0.1885
 6118TIP3   OH218359   6.056   5.190   3.401 -0.2845  0.3452  0.5326
 6118TIP3    H118360   6.125   5.124   3.404  1.6256  2.1477 -0.5881
 6118TIP3    H218361   6.036   5.208   3.493  0.0668 -0.8587  0.8611
 6119TIP3   OH218362   5.957   3.439   2.446 -0.1390  0.3453 -0.2639
 6119TIP3    H118363   6.027   3.378   2.468  1.0330  0.7825 -2.5358
 6119TIP3    H218364   5.888   3.385   2.408 -0.1048  0.1711 -0.0768
 6120TIP3   OH218365   6.325   4.949   0.203  0.3213 -0.2431 -0.1579
 6120TIP3    H118366   6.250   4.891   0.198 -1.4999  1.9857 -0.6537
 6120TIP3    H218367   6.345   4.956   0.296  0.0585 -1.0045 -0.0413
 6121TIP3   OH218368   0.904   3.760   1.032  0.1727  0.0519 -0.8071
 6121TIP3    H118369   0.813   3.792   1.032 -0.1905 -0.8260  1.1888
 6121TIP3    H218370   0.946   3.810   1.102 -0.1033 -2.8100  1.6042
 6122TIP3   OH218371   5.961   4.259   1.761  0.0082  0.1575 -0.6857
 6122TIP3    H118372   5.914   4.187   1.803 -2.2896  1.1108 -1.4519
 6122TIP3    H218373   5.927   4.338   1.804  2.8709  0.8700  0.5294
 6123TIP3   OH218374   1.247   3.563   3.849 -0.5303 -0.0535  0.4162
 6123TIP3    H118375   1.184   3.501   3.812 -1.1720  1.0179 -0.3422
 6123TIP3    H218376   1.328   3.547   3.801 -1.2351  1.0208 -1.1994
 6124TIP3   OH218377   2.729   0.474   1.161  0.3343  0.3165 -0.4033
 6124TIP3    H118378   2.689   0.534   1.225  2.0674  0.7286  0.3449
 6124TIP3    H218379   2.675   0.395   1.166 -0.5701  0.9502  0.3335
 6125TIP3   OH218380   0.816   2.994   4.153  0.2627 -0.2207  0.5639
 6125TIP3    H118381   0.759   2.978   4.077  0.7600  1.1156 -0.1242
 6125TIP3    H218382   0.759   2.981   4.228 -0.1709 -1.8735 -0.0052
 6126TIP3   OH218383   3.033   5.584   4.476  0.2303 -0.3103  0.1376
 6126TIP3    H118384   3.017   5.676   4.454  0.3900 -0.7685 -2.1034
 6126TIP3    H218385   2.966   5.563   4.541  0.2062  1.3789  0.7039
 6127TIP3   OH218386   1.373   4.448   1.377 -0.7273 -0.3378 -0.2060
 6127TIP3    H118387   1.447   4.387   1.371  0.7903  1.3831  0.1821
 6127TIP3    H218388   1.381   4.486   1.464 -0.4599  1.7916 -1.1067
 6128TIP3   OH218389   5.639   2.900   1.975  0.0807  0.5088  0.6159
 6128TIP3    H118390   5.726   2.908   2.015  0.2926  3.1421 -0.1929
 6128TIP3    H218391   5.651   2.930   1.885 -1.3369 -0.8430 -0.0838
 6129TIP3   OH218392   5.483   3.532   0.970  0.2935 -0.6764  0.6462
 6129TIP3    H118393   5.401   3.538   1.019 -0.0839  0.1460 -0.0371
 6129TIP3    H218394   5.512   3.442   0.982 -0.8636 -1.0708  0.6748
 6130TIP3   OH218395   6.102   1.415   2.095  0.8605 -0.4787 -0.3428
 6130TIP3    H118396   6.188   1.421   2.053  0.3373 -0.8468 -1.5228
 6130TIP3    H218397   6.101   1.328   2.134  0.2837 -1.3190 -2.1215
 6131TIP3   OH218398   4.064   2.820   1.065  0.3028 -0.7566  0.5790
 6131TIP3    H118399   3.982   2.868   1.056  0.0288 -1.1553  0.9667
 6131TIP3    H218400   4.132   2.887   1.056 -0.0819 -0.2494  1.3736
 6132TIP3   OH218401   4.908   0.413   3.777  0.0290  0.1074 -0.5516
 6132TIP3    H118402   4.993   0.450   3.804  1.0653 -3.0374  0.9978
 6132TIP3    H218403   4.931   0.348   3.710 -1.1754 -0.5883 -0.3132
 6133TIP3   OH218404   1.744   0.528   0.324  0.5121  0.2608 -0.6735
 6133TIP3    H118405   1.701   0.460   0.272  0.6361  0.3379 -0.8772
 6133TIP3    H218406   1.698   0.526   0.408 -0.0640  0.5247 -0.9828
 6134TIP3   OH218407   4.920   2.611   3.389 -0.6370 -0.3853  0.2852
 6134TIP3    H118408   4.884   2.524   3.378  0.0040 -0.5620 -0.5368
 6134TIP3    H218409   5.007   2.606   3.350 -0.5663  0.6000  0.2912
 6135TIP3   OH218410   5.823   4.551   2.403  1.0325 -0.4108 -0.1023
 6135TIP3    H118411   5.747   4.592   2.445 -0.7974 -1.2145 -2.4212
 6135TIP3    H218412   5.799   4.458   2.396  2.3497 -0.7319 -0.6492
 6136TIP3   OH218413   2.008   0.335   1.989 -0.0643 -0.2956 -0.4370
 6136TIP3    H118414   2.061   0.273   1.939  0.4676 -0.5621  0.4302
 6136TIP3    H218415   1.924   0.339   1.943  0.1713 -1.0694 -0.9359
 6137TIP3   OH218416   3.686   3.316   3.181  0.0116  0.0867 -0.1939
 6137TIP3    H118417   3.698   3.292   3.273 -0.2755 -1.8251 -0.6338
 6137TIP3    H218418   3.668   3.234   3.136  2.3871  0.6279 -2.3646
 6138TIP3   OH218419   4.312   3.216   3.768 -0.2748 -0.2307 -0.4189
 6138TIP3    H118420   4.284   3.240   3.680 -1.6435 -1.6133 -0.4064
 6138TIP3    H218421   4.365   3.137   3.756 -0.7407 -0.6182  0.0141
 6139TIP3   OH218422   5.994   0.936   3.101  0.2145  0.2675 -0.2030
 6139TIP3    H118423   6.087   0.956   3.109  0.3157 -0.1606 -0.2558
 6139TIP3    H218424   5.964   0.991   3.028  0.8819 -1.0565 -1.5418
 6140TIP3   OH218425   3.465   0.672   4.029 -0.6245 -0.5286  0.5502
 6140TIP3    H118426   3.504   0.656   3.943 -0.3918  1.9089  0.1140
 6140TIP3    H218427   3.375   0.639   4.021 -0.4006 -0.9431 -0.3969
 6141TIP3   OH218428   6.185   4.551   0.264  0.3199 -0.3183 -0.3161
 6141TIP3    H118429   6.164   4.473   0.213  1.7722 -0.4647 -0.7444
 6141TIP3    H218430   6.207   4.618   0.198 -2.4943  1.0210 -0.0415
 6142TIP3   OH218431   0.468   2.052   2.317  0.3642 -0.4691  0.5385
 6142TIP3    H118432   0.412   2.129   2.328  2.2388  1.0244  0.0354
 6142TIP3    H218433   0.501   2.059   2.227  0.9553 -1.6017  0.6543
 6143TIP3   OH218434   5.619   0.492   3.489  0.3532  0.4468  0.2538
 6143TIP3    H118435   5.697   0.438   3.504 -0.1911 -1.4439 -2.6809
 6143TIP3    H218436   5.650   0.566   3.437  0.3073 -0.0398 -0.4822
 6144TIP3   OH218437   0.422   0.081   1.547  0.2572 -0.1007 -0.4158
 6144TIP3    H118438   0.381   0.019   1.486 -0.6782  0.3805 -0.3014
 6144TIP3    H218439   0.450   0.153   1.491 -0.2193  0.1488 -0.3384
 6145TIP3   OH218440   6.243   1.795   2.124  0.8880 -0.4188 -0.7135
 6145TIP3    H118441   6.174   1.752   2.072  1.0343 -1.8608  0.2180
 6145TIP3    H218442   6.308   1.823   2.059 -0.5342  0.9575 -1.6136
 6146TIP3   OH218443   5.876   1.767   2.969  0.1582  0.2835  0.7286
 6146TIP3    H118444   5.782   1.750   2.964  0.6120 -2.3525 -0.4423
 6146TIP3    H218445   5.883   1.862   2.959 -2.3706  0.5618  0.9151
 6147TIP3   OH218446   4.204   2.820   4.853 -0.3256  0.2366  0.4508
 6147TIP3    H118447   4.166   2.852   4.771 -0.5258  1.1887  0.9032
 6147TIP3    H218448   4.259   2.746   4.827 -2.3822 -1.1416 -0.2486
 6148TIP3   OH218449   3.590   5.894   0.140  0.6408  0.0078 -0.5323
 6148TIP3    H118450   3.622   5.966   0.194  0.3575  0.9002 -1.5374
 6148TIP3    H218451   3.661   5.830   0.142  0.1896 -0.5383  1.8395
 6149TIP3   OH218452   3.026   5.973   3.281  0.6379  0.3010 -0.4600
 6149TIP3    H118453   3.040   5.914   3.355  0.9498  0.0926 -0.6874
 6149TIP3    H218454   2.953   5.935   3.233  1.1236 -0.1531 -0.8577
 6150TIP3   OH218455   0.150   1.991   4.918 -0.3047 -0.2929  0.1346
 6150TIP3    H118456   0.210   2.049   4.965 -0.9540  1.0442 -0.6283
 6150TIP3    H218457   0.207   1.939   4.861  0.2434 -0.1402  0.5250
 6151TIP3   OH218458   3.101   5.219   2.240 -0.0934  0.3358 -0.5530
 6151TIP3    H118459   3.174   5.274   2.267  0.5277 -0.1977 -1.1293
 6151TIP3    H218460   3.141   5.138   2.209 -0.7388  0.8791 -3.0311
 6152TIP3   OH218461   1.028   5.785   3.844  0.1964  0.4718 -0.6184
 6152TIP3    H118462   1.097   5.781   3.777  0.6914  0.2703 -0.1005
 6152TIP3    H218463   1.074   5.774   3.927 -0.5467 -0.4258 -0.3068
 6153TIP3   OH218464   5.445   4.273   1.551 -0.0141  0.7469  0.2669
 6153TIP3    H118465   5.497   4.347   1.584  0.9480  0.6556 -0.9900
 6153TIP3    H218466   5.440   4.213   1.626  2.3094  0.4455  0.2397
 6154TIP3   OH218467   2.164   2.228   1.662 -0.5241 -0.2616 -0.0164
 6154TIP3    H118468   2.235   2.165   1.647 -0.5333 -0.3623  0.3657
 6154TIP3    H218469   2.145   2.263   1.575 -0.7550 -1.0396 -0.2831
 6155TIP3   OH218470   2.519   2.067   4.273  0.0358  0.9433  0.6790
 6155TIP3    H118471   2.547   2.038   4.186 -0.0359 -1.2429  1.3310
 6155TIP3    H218472   2.590   2.123   4.303 -0.2798  2.3879 -1.0533
 6156TIP3   OH218473   5.411   0.554   4.103  0.5191  0.0307 -0.0257
 6156TIP3    H118474   5.395   0.619   4.034  0.9729 -0.0849 -0.2405
 6156TIP3    H218475   5.405   0.470   4.059 -0.8269 -0.1175  0.4035
 6157TIP3   OH218476   1.133   4.049   1.090 -0.0598 -0.1408 -0.2103
 6157TIP3    H118477   1.079   4.125   1.067 -0.3200 -0.5289 -0.8969
 6157TIP3    H218478   1.082   4.002   1.155  0.0082  0.1647  0.0635
 6158TIP3   OH218479   3.328   3.427   2.206 -0.5480  0.2480  0.3699
 6158TIP3    H118480   3.378   3.424   2.288  2.4805  0.6435 -1.3322
 6158TIP3    H218481   3.366   3.499   2.157 -2.7722  0.4858 -1.1616
 6159TIP3   OH218482   4.124   4.006   3.433 -0.2010 -0.2031 -0.4761
 6159TIP3    H118483   4.191   3.952   3.392  1.4894  0.8519  0.7368
 6159TIP3    H218484   4.134   3.990   3.527  1.4863  3.2507  0.1012
 6160TIP3   OH218485   3.884   3.932   4.774 -0.5307  0.1878 -0.0428
 6160TIP3    H118486   3.814   3.936   4.839 -0.3139  1.6416  0.1381
 6160TIP3    H218487   3.959   3.975   4.816 -0.3396  0.9982 -1.1677
 6161TIP3   OH218488   1.421   1.103   2.452 -0.0001 -0.5812 -0.1133
 6161TIP3    H118489   1.429   1.063   2.539 -1.9360  0.8990  0.8110
 6161TIP3    H218490   1.339   1.069   2.418  0.3605 -0.5238 -1.0563
 6162TIP3   OH218491   5.130   4.956   3.318 -0.4878 -0.3552  0.2196
 6162TIP3    H118492   5.211   4.905   3.321 -1.5095 -2.0433  0.2496
 6162TIP3    H218493   5.090   4.933   3.235 -1.0407  0.3396  0.2830
 6163TIP3   OH218494   2.949   2.885   3.545  0.5650  0.0461  0.1673
 6163TIP3    H118495   2.947   2.800   3.501  0.3057  0.0304  0.2056
 6163TIP3    H218496   2.993   2.943   3.484 -0.4065  0.1913 -0.4100
 6164TIP3   OH218497   0.572   1.573   3.436  0.3499 -0.3698  0.2199
 6164TIP3    H118498   0.583   1.664   3.464  0.9915 -0.3455 -0.0790
 6164TIP3    H218499   0.619   1.521   3.501  0.0865 -0.4814  0.3240
 6165TIP3   OH218500   3.137   4.606   4.993  0.4803  0.0698  0.4180
 6165TIP3    H118501   3.124   4.543   5.065  2.4407 -3.0054 -1.6791
 6165TIP3    H218502   3.200   4.669   5.028  0.4225 -0.6038  1.8260
 6166TIP3   OH218503  -0.008   0.033   4.989  0.3765 -0.2079 -0.3639
 6166TIP3    H118504   0.014  -0.040   4.932 -0.2578 -0.3364 -0.4460
 6166TIP3    H218505   0.054   0.025   5.062  0.6605 -0.5086 -0.6337
 6167TIP3   OH218506   0.724   4.223   4.766  0.0675  0.4485 -0.1664
 6167TIP3    H118507   0.739   4.287   4.696 -0.4101 -1.5124 -2.1734
 6167TIP3    H218508   0.631   4.203   4.760  0.4038 -1.1947 -0.3238
 6168TIP3   OH218509   0.656   4.835   3.430  0.2317  0.2349 -0.0816
 6168TIP3    H118510   0.690   4.747   3.449 -1.9734 -0.7602 -0.4441
 6168TIP3    H218511   0.720   4.873   3.370  0.9037 -1.3946 -0.4588
 6169TIP3   OH218512   1.833   1.295   3.405 -0.1112 -0.5720 -0.3195
 6169TIP3    H118513   1.745   1.266   3.429 -0.5727  1.6452  0.8747
 6169TIP3    H218514   1.891   1.236   3.453 -1.0107  0.3760  2.1182
 6170TIP3   OH218515   0.408   4.552   3.164  0.6254 -0.0043  0.4091
 6170TIP3    H118516   0.392   4.518   3.252 -1.9301  0.9141  0.3868
 6170TIP3    H218517   0.408   4.647   3.174  0.6574  0.1085 -0.5437
 6171TIP3   OH218518   1.029   2.298   3.151 -0.0629 -0.2448 -0.3036
 6171TIP3    H118519   1.019   2.390   3.176  1.0952  0.0604 -0.8635
 6171TIP3    H218520   0.971   2.288   3.075  1.3069  0.6098 -1.5218
 6172TIP3   OH218521   1.969   0.264   2.864  0.2477  0.1960 -0.0796
 6172TIP3    H118522   2.004   0.291   2.949 -0.4275 -2.6676  1.2495
 6172TIP3    H218523   2.023   0.310   2.800  2.2813  0.7379  1.8950
 6173TIP3   OH218524   1.681   5.253   2.893 -0.2650 -0.5457  0.3180
 6173TIP3    H118525   1.595   5.211   2.886 -0.5710  0.1980 -0.7018
 6173TIP3    H218526   1.742   5.180   2.899 -0.8909 -1.1132  0.0127
 6174TIP3   OH218527   3.056   2.776   4.110 -0.0722 -0.0362  0.4931
 6174TIP3    H118528   3.063   2.708   4.177 -0.3521 -1.4732 -0.8739
 6174TIP3    H218529   2.961   2.791   4.101  0.0192  2.0806  2.2090
 6175TIP3   OH218530   0.543   3.140   1.634  0.8010 -0.2537  0.1010
 6175TIP3    H118531   0.450   3.151   1.651  0.4053 -1.1655 -1.3025
 6175TIP3    H218532   0.569   3.069   1.692 -0.3979 -2.9168 -2.3538
 6176TIP3   OH218533   3.028   5.847   0.539  0.2079 -0.1302 -0.3334
 6176TIP3    H118534   3.085   5.919   0.565  0.1049 -0.5698  1.1967
 6176TIP3    H218535   3.067   5.814   0.458  1.7729 -0.0179  0.3286
 6177TIP3   OH218536   2.278   1.234   4.158 -0.0697 -0.2575 -0.2349
 6177TIP3    H118537   2.372   1.237   4.136  0.1722 -0.7457  0.6841
 6177TIP3    H218538   2.262   1.316   4.204 -0.1082 -0.1392 -0.4605
 6178TIP3   OH218539   1.364   4.353   2.347 -0.3123 -0.0736 -0.8484
 6178TIP3    H118540   1.457   4.331   2.357 -0.2629 -0.1856 -1.5193
 6178TIP3    H218541   1.320   4.268   2.341 -0.7464 -0.1059  1.6733
 6179TIP3   OH218542   2.725   4.909   1.019 -0.1770 -0.3826  0.0820
 6179TIP3    H118543   2.654   4.898   0.955  1.3116  0.5245 -1.8140
 6179TIP3    H218544   2.790   4.844   0.994  0.6083  0.2658  0.4248
 6180TIP3   OH218545   3.156   2.101   3.027  0.5375 -0.1260  0.1915
 6180TIP3    H118546   3.120   2.016   3.001  1.5993 -0.4896 -0.1513
 6180TIP3    H218547   3.236   2.080   3.075  1.8050  0.6930 -1.4598
 6181TIP3   OH218548   4.929   0.002   1.425  0.2687 -0.0219 -0.1314
 6181TIP3    H118549   5.005  -0.011   1.481  1.2204  1.3718 -1.0376
 6181TIP3    H218550   4.869   0.054   1.479  0.1783 -0.6594  0.3937
 6182TIP3   OH218551   3.598   2.786   3.355 -0.0756 -0.4434 -0.4469
 6182TIP3    H118552   3.504   2.771   3.366 -1.1146  3.0035 -2.9112
 6182TIP3    H218553   3.619   2.746   3.271  0.8848 -1.6067  0.2966
 6183TIP3   OH218554   2.281   4.795   5.010 -0.3102  0.0437 -0.2022
 6183TIP3    H118555   2.348   4.843   4.961 -0.9850 -0.3433 -1.5521
 6183TIP3    H218556   2.320   4.708   5.024  0.4002  0.5454  1.1292
 6184TIP3   OH218557   1.406   1.786   4.054  0.2754  0.1495  0.2210
 6184TIP3    H118558   1.436   1.858   4.110  0.4970  0.8308 -0.7465
 6184TIP3    H218559   1.486   1.737   4.034  0.0019 -0.9310  1.6126
 6185TIP3   OH218560   6.088   5.464   4.166  1.1494 -0.3780 -0.2199
 6185TIP3    H118561   6.006   5.495   4.128  1.6082  2.1701  0.6681
 6185TIP3    H218562   6.113   5.389   4.111 -0.6555  0.1133 -1.8302
 6186TIP3   OH218563   4.096   5.514   3.056  0.1850 -0.3373 -0.9928
 6186TIP3    H118564   4.174   5.522   3.001  0.1050 -0.6998 -1.1582
 6186TIP3    H218565   4.037   5.583   3.023  0.3434 -0.2111 -1.0149
 6187TIP3   OH218566   0.673   3.298   3.648 -0.3679  0.1746  0.2045
 6187TIP3    H118567   0.587   3.335   3.627 -0.8696 -0.4037  1.1647
 6187TIP3    H218568   0.733   3.372   3.643 -1.0207  0.7050  0.1043
 6188TIP3   OH218569   0.206   5.354   2.394 -0.2782 -0.6314  0.2379
 6188TIP3    H118570   0.292   5.315   2.376 -0.2712 -0.9311  0.8838
 6188TIP3    H218571   0.166   5.295   2.459  0.1300  0.9383  1.9847
 6189TIP3   OH218572   1.082   1.461   2.557 -0.0263 -0.6436  0.4686
 6189TIP3    H118573   1.049   1.372   2.545  1.7167 -1.3278  0.4727
 6189TIP3    H218574   1.153   1.469   2.494  1.9579 -0.4278  2.5809
 6190TIP3   OH218575   3.031   5.484   2.614 -1.0053  0.3290  0.5873
 6190TIP3    H118576   3.076   5.431   2.680 -0.9537 -0.9916 -0.4684
 6190TIP3    H218577   2.944   5.445   2.607 -1.3231  1.0362  0.5239
 6191TIP3   OH218578   2.054   0.700   2.258  0.3785 -0.2921  0.0252
 6191TIP3    H118579   1.968   0.739   2.271  0.7374  0.1973  1.0245
 6191TIP3    H218580   2.060   0.686   2.163 -0.0122  1.5364 -0.3094
 6192TIP3   OH218581   5.180   4.617   0.246 -0.3590 -0.5273  0.2284
 6192TIP3    H118582   5.186   4.681   0.317 -1.5665  0.2386 -0.3381
 6192TIP3    H218583   5.207   4.534   0.287  2.2769  0.4661  0.7025
 6193TIP3   OH218584   0.107   2.129   3.091  0.2909 -0.2299  0.3596
 6193TIP3    H118585   0.092   2.075   3.013  1.3753 -1.5037  0.9941
 6193TIP3    H218586   0.125   2.066   3.160 -0.8264  0.8734  1.7035
 6194TIP3   OH218587   2.073   0.122   4.678  0.2956  0.4389  0.1827
 6194TIP3    H118588   2.037   0.183   4.614  0.4124  0.0892 -0.2193
 6194TIP3    H218589   2.163   0.152   4.691  0.4571  0.1610 -0.2628
 6195TIP3   OH218590   5.850   3.212   2.704 -0.3066 -0.1111 -0.0802
 6195TIP3    H118591   5.852   3.138   2.643  1.2105 -1.2099  1.2277
 6195TIP3    H218592   5.933   3.206   2.752 -0.8977  1.4596  1.2262
 6196TIP3   OH218593   5.526   1.040   1.603  0.2739 -0.4653 -0.1049
 6196TIP3    H118594   5.622   1.046   1.607  0.2253 -0.2559  1.0501
 6196TIP3    H218595   5.509   0.951   1.573  0.8312 -0.2887 -0.9902
 6197TIP3   OH218596   6.123   1.792   4.486 -0.2013  0.9909  0.1623
 6197TIP3    H118597   6.035   1.780   4.449  0.0629 -1.2721  0.1303
 6197TIP3    H218598   6.179   1.805   4.410 -0.1568 -0.2024 -0.0269
 6198TIP3   OH218599   3.246   1.077   2.073 -0.3763  0.8290  0.2190
 6198TIP3    H118600   3.303   1.130   2.018  0.2218  1.9063  1.8012
 6198TIP3    H218601   3.280   0.988   2.066 -0.3920  0.9161 -1.2021
 6199TIP3   OH218602   1.736   2.939   4.954  0.4968 -0.0196 -0.5156
 6199TIP3    H118603   1.656   2.971   4.997  0.7109 -0.6295  0.3638
 6199TIP3    H218604   1.754   3.004   4.887  1.5413  2.3653  1.8892
 6200TIP3   OH218605   2.050   3.338   2.303 -0.0449 -0.1459  0.2395
 6200TIP3    H118606   2.093   3.254   2.290  1.7600  0.7642 -0.0566
 6200TIP3    H218607   1.958   3.317   2.318  0.4317 -2.1678  0.5118
 6201TIP3   OH218608   3.450   3.200   5.128 -0.1676  0.3030 -0.3150
 6201TIP3    H118609   3.440   3.246   5.211 -2.5697  0.9524 -0.8760
 6201TIP3    H218610   3.428   3.109   5.149 -2.2350  0.7180 -0.4314
 6202TIP3   OH218611   4.027   3.750   4.464  0.3777  0.3150  0.1959
 6202TIP3    H118612   4.009   3.673   4.411 -0.6451 -0.7731  2.0294
 6202TIP3    H218613   4.104   3.790   4.422  0.6906 -1.4493 -1.0416
 6203TIP3   OH218614   1.053   0.854   4.928 -0.2905  0.2563 -0.0110
 6203TIP3    H118615   0.993   0.857   5.003  0.3689  1.9950  0.4924
 6203TIP3    H218616   1.024   0.778   4.878  0.0318 -1.7778  2.6387
 6204TIP3   OH218617   4.939   3.940   0.778  0.1991 -0.1449  0.0682
 6204TIP3    H118618   4.952   3.970   0.688  0.0393 -1.3889 -0.3906
 6204TIP3    H218619   4.850   3.968   0.800  0.1145 -0.1270 -0.2858
 6205TIP3   OH218620   0.385   3.419   4.249 -0.3191  0.0448  0.2837
 6205TIP3    H118621   0.319   3.479   4.285  0.5719 -0.0361  2.1694
 6205TIP3    H218622   0.443   3.400   4.323  0.9390 -1.0936 -0.9382
 6206TIP3   OH218623   0.597   5.036   1.586 -0.4700  0.1594 -0.3965
 6206TIP3    H118624   0.543   5.087   1.647  0.3978 -1.1774  1.6023
 6206TIP3    H218625   0.687   5.056   1.612 -0.1093 -1.7980 -0.0071
 6207TIP3   OH218626   2.143   5.355   4.230  0.0544 -0.4589 -0.2159
 6207TIP3    H118627   2.128   5.297   4.156 -0.0881  0.8350 -1.2276
 6207TIP3    H218628   2.154   5.296   4.305 -1.2527 -1.7342 -0.9936
 6208TIP3   OH218629   2.903   0.584   4.582  0.1347 -0.0049  0.8812
 6208TIP3    H118630   2.945   0.498   4.577  0.8562  0.3053  1.5159
 6208TIP3    H218631   2.928   0.627   4.500  1.5944  0.4083  1.5190
 6209TIP3   OH218632   0.264   0.738   2.022  0.2545 -0.2765  0.1997
 6209TIP3    H118633   0.276   0.669   1.956 -2.0916 -2.2463  1.6605
 6209TIP3    H218634   0.263   0.819   1.971  1.7877 -1.3811 -1.7602
 6210TIP3   OH218635   0.936   1.092   0.964  0.4050 -0.0060  0.5282
 6210TIP3    H118636   0.917   1.061   1.053  0.7090  0.9430  0.9363
 6210TIP3    H218637   1.010   1.039   0.935  0.9766  0.3665  1.2524
 6211TIP3   OH218638   6.302   0.990   3.688  0.4097  0.1776  0.1968
 6211TIP3    H118639   6.236   0.947   3.742  2.4434 -1.4472  1.5614
 6211TIP3    H218640   6.283   0.961   3.598 -2.5809  2.3370 -0.0155
 6212TIP3   OH218641   1.424   3.349   4.619  0.2546 -0.2048  0.2082
 6212TIP3    H118642   1.386   3.381   4.701  1.6553  0.3749  0.6606
 6212TIP3    H218643   1.409   3.254   4.621 -2.7979  0.1656 -0.5466
 6213TIP3   OH218644   3.255   4.977   1.218 -0.6512  0.5602  0.4057
 6213TIP3    H118645   3.337   5.000   1.176 -1.1977  1.7506 -0.0705
 6213TIP3    H218646   3.230   4.893   1.179  1.3774 -0.9322  2.1440
 6214TIP3   OH218647   3.532   2.871   2.162  0.2830  0.1153  0.4058
 6214TIP3    H118648   3.574   2.795   2.123  0.8244  0.4250  0.3687
 6214TIP3    H218649   3.537   2.938   2.093 -4.5266 -1.0976 -1.5879
 6215TIP3   OH218650   2.649   1.987   4.037  0.0454 -0.3432  0.3173
 6215TIP3    H118651   2.729   1.942   4.064  0.5303 -0.1930 -0.8281
 6215TIP3    H218652   2.677   2.047   3.968 -1.3294 -1.4853 -1.3099
 6216TIP3   OH218653   3.814   2.687   3.998 -0.0746  0.2377 -0.4348
 6216TIP3    H118654   3.831   2.741   4.075  0.6346  0.6198 -0.8465
 6216TIP3    H218655   3.843   2.740   3.924  1.2203 -0.9190 -0.8112
 6217TIP3   OH218656   4.773   3.927   3.108  0.1001  0.9177 -0.4981
 6217TIP3    H118657   4.780   3.869   3.033  0.9119 -2.3355  1.8706
 6217TIP3    H218658   4.853   3.980   3.105 -0.5809  1.9479 -2.6233
 6218TIP3   OH218659   3.999   0.793   4.538  0.0118 -0.1363 -0.1863
 6218TIP3    H118660   3.917   0.752   4.567 -0.3064  0.8963  0.4369
 6218TIP3    H218661   4.052   0.721   4.505 -1.3749 -0.7590 -1.1476
 6219TIP3   OH218662   4.857   2.873   4.875 -0.0784  0.6502  0.3856
 6219TIP3    H118663   4.841   2.960   4.909  1.6034  0.7573  0.9536
 6219TIP3    H218664   4.874   2.886   4.781 -1.9166  0.6564  0.0084
 6220TIP3   OH218665   5.134   0.831   0.991  0.5689  0.1384  0.0198
 6220TIP3    H118666   5.114   0.777   0.915  0.4256  0.2768 -0.0420
 6220TIP3    H218667   5.212   0.880   0.966 -0.0289  0.8984 -0.4096
 6221TIP3   OH218668   6.079   0.105   1.643 -0.2083  0.5780  0.0232
 6221TIP3    H118669   6.080   0.054   1.724  0.1492 -1.6953 -1.3220
 6221TIP3    H218670   6.168   0.097   1.608 -0.7399  0.2993 -1.3055
 6222TIP3   OH218671   4.608   4.156   0.807  0.2939  0.6801  0.0093
 6222TIP3    H118672   4.576   4.155   0.897  1.1397  1.9483  0.3487
 6222TIP3    H218673   4.580   4.241   0.772 -0.2631  0.0885 -1.0149
 6223TIP3   OH218674   1.673   3.637   0.965  0.0844 -0.3970 -0.0315
 6223TIP3    H118675   1.741   3.570   0.967 -0.9580 -1.4770  0.1627
 6223TIP3    H218676   1.690   3.687   0.885  0.6045 -1.1874 -0.4177
 6224TIP3   OH218677   4.238   3.789   0.051 -0.1508 -0.6122  0.4170
 6224TIP3    H118678   4.173   3.855   0.074 -0.1133 -0.5142  0.2443
 6224TIP3    H218679   4.198   3.706   0.075  0.4445 -0.4286  2.1518
 6225TIP3   OH218680   4.267   0.013   4.662  0.5250  0.8064  0.2614
 6225TIP3    H118681   4.323  -0.032   4.599  0.1625  2.1896 -1.0958
 6225TIP3    H218682   4.272   0.105   4.638 -0.3462  1.2616  1.7009
 6226TIP3   OH218683   2.783   4.240   4.379 -0.5440  0.4212  0.4153
 6226TIP3    H118684   2.733   4.306   4.427 -0.1330  0.2114  1.1431
 6226TIP3    H218685   2.745   4.157   4.407 -0.8391  0.3280 -0.2474
 6227TIP3   OH218686   1.679   1.958   1.364  0.4168 -0.2336  0.3624
 6227TIP3    H118687   1.730   1.994   1.291  0.8643  2.4710  1.8501
 6227TIP3    H218688   1.709   2.009   1.440 -3.7089  0.7861  1.5339
 6228TIP3   OH218689   1.134   4.154   3.429 -0.0880  0.3683  0.2179
 6228TIP3    H118690   1.229   4.154   3.442  0.0360  1.7421 -0.5503
 6228TIP3    H218691   1.099   4.108   3.506  1.1730 -0.0049  0.5926
 6229TIP3   OH218692   2.938   1.047   3.536  0.2402 -0.0704  0.1990
 6229TIP3    H118693   3.008   0.994   3.499 -0.9379 -1.1243 -0.5649
 6229TIP3    H218694   2.878   0.985   3.577 -1.7105  0.4915 -1.6007
 6230TIP3   OH218695   0.868   4.718   3.902  0.3901 -0.0993 -0.1968
 6230TIP3    H118696   0.924   4.725   3.825 -0.1866 -1.2704 -0.7575
 6230TIP3    H218697   0.779   4.723   3.868  0.1264  0.7390  0.5649
 6231TIP3   OH218698   2.688   4.450   2.711  0.0628 -0.3352  0.4401
 6231TIP3    H118699   2.668   4.375   2.767  1.7101 -1.7916 -0.8250
 6231TIP3    H218700   2.701   4.412   2.624 -1.3957  1.7269 -0.7613
 6232TIP3   OH218701   4.633   2.260   0.778  0.0794  0.2861  0.2214
 6232TIP3    H118702   4.607   2.177   0.819 -0.9141  0.5538  0.1534
 6232TIP3    H218703   4.693   2.300   0.840  3.2281 -1.9534 -1.1253
 6233TIP3   OH218704   6.116   3.629   4.298  0.0542 -0.0173 -0.2737
 6233TIP3    H118705   6.201   3.594   4.274  0.3736  0.4977  0.0879
 6233TIP3    H218706   6.115   3.624   4.394 -0.7000 -0.8946 -0.3083
 6234TIP3   OH218707   5.804   2.296   3.081 -0.1516  0.2214 -0.3003
 6234TIP3    H118708   5.879   2.355   3.089  0.1950 -0.1649 -0.6374
 6234TIP3    H218709   5.733   2.341   3.125  0.3950  0.3937  0.4269
 6235TIP3   OH218710   5.534   5.400   2.224 -0.0013  0.3180  0.0227
 6235TIP3    H118711   5.480   5.474   2.194  0.7176  0.3102 -1.3654
 6235TIP3    H218712   5.596   5.439   2.285  0.3192  0.8656 -0.6324
 6236TIP3   OH218713   0.399   5.250   1.346  0.1060 -0.5411 -0.6013
 6236TIP3    H118714   0.359   5.335   1.323 -0.8735 -0.7649  0.2145
 6236TIP3    H218715   0.459   5.232   1.273  2.2200  2.0023  0.3263
 6237TIP3   OH218716   2.586   3.616   3.678  0.6963  0.3876 -0.1993
 6237TIP3    H118717   2.602   3.705   3.648  2.1118  0.1391 -0.2608
 6237TIP3    H218718   2.500   3.619   3.720 -0.2809  1.2797 -2.1161
 6238TIP3   OH218719   1.207   1.844   0.861 -0.1360  0.3262 -0.0456
 6238TIP3    H118720   1.229   1.775   0.798  0.9637  1.2457 -0.7117
 6238TIP3    H218721   1.201   1.798   0.945  1.4795 -0.4794 -0.3238
 6239TIP3   OH218722   0.348   5.910   3.652 -0.2809 -0.2089 -0.2699
 6239TIP3    H118723   0.338   5.950   3.566  1.6505  0.3178 -0.2775
 6239TIP3    H218724   0.258   5.891   3.679 -0.9782  0.2971 -2.0599
 6240TIP3   OH218725   5.419   5.978   0.016 -0.0144  0.1148 -0.1239
 6240TIP3    H118726   5.386   5.970   0.106  1.9175  0.0634  0.6105
 6240TIP3    H218727   5.453   5.891  -0.004 -0.2063  0.2004 -0.8360
 6241TIP3   OH218728   3.390   1.337   4.569 -0.0985  1.0764  0.1677
 6241TIP3    H118729   3.386   1.432   4.577  2.5764  1.2625  0.0950
 6241TIP3    H218730   3.398   1.306   4.659 -1.1686  0.8818  0.2059
 6242TIP3   OH218731   5.121   5.644   2.150 -0.4793 -0.4673  0.0662
 6242TIP3    H118732   5.042   5.694   2.174 -1.5212 -2.1090  0.2420
 6242TIP3    H218733   5.094   5.594   2.073  0.4334 -0.9871  0.0809
 6243TIP3   OH218734   3.586   4.111   3.078  0.0241  0.4303  0.7921
 6243TIP3    H118735   3.529   4.119   3.002  0.5323  0.0033  0.3545
 6243TIP3    H218736   3.636   4.031   3.062 -1.4101 -0.9058  2.6434
 6244TIP3   OH218737   4.669   4.967   0.659  0.1576 -0.0633 -0.4067
 6244TIP3    H118738   4.716   4.921   0.728 -2.4374 -2.8115 -0.2649
 6244TIP3    H218739   4.711   4.940   0.578 -0.4318 -1.6369 -0.2160
 6245TIP3   OH218740   2.180   0.125   1.871  0.8037 -0.5724  0.2695
 6245TIP3    H118741   2.260   0.178   1.860 -0.2012  0.6579 -1.8169
 6245TIP3    H218742   2.202   0.041   1.832  0.7526  0.1824 -1.4896
 6246TIP3   OH218743   2.006   4.268   1.429  0.4193 -0.6006  0.1556
 6246TIP3    H118744   2.093   4.271   1.469  0.4061  0.2903  0.1518
 6246TIP3    H218745   1.959   4.342   1.469 -0.4032 -1.1852  0.2997
 6247TIP3   OH218746   4.149   3.925   4.069  0.1298  0.0725  0.2925
 6247TIP3    H118747   4.071   3.924   4.013 -0.7724 -0.4529  1.5038
 6247TIP3    H218748   4.206   3.992   4.030 -1.3471  1.1821 -0.0635
 6248TIP3   OH218749   4.138   1.604   0.755  0.2346  0.4094  0.1369
 6248TIP3    H118750   4.100   1.517   0.759  1.9480 -0.3806  0.3814
 6248TIP3    H218751   4.188   1.613   0.836 -0.0941  1.7269  0.2260
 6249TIP3   OH218752   5.692   4.485   4.030  0.4587 -0.0680  0.4920
 6249TIP3    H118753   5.603   4.520   4.030 -0.2858 -1.8025 -0.5811
 6249TIP3    H218754   5.712   4.467   4.122 -0.1962  0.5728  0.7636
 6250TIP3   OH218755   3.175   4.559   1.801  0.2434 -0.1305  0.1839
 6250TIP3    H118756   3.099   4.504   1.785  0.7207 -0.4507 -1.1705
 6250TIP3    H218757   3.148   4.646   1.771  0.9269 -0.6006 -2.0257
 6251TIP3   OH218758   4.963   3.679   0.699 -0.5591 -0.4615 -0.2517
 6251TIP3    H118759   5.023   3.647   0.765 -1.2690  2.1056  1.8168
 6251TIP3    H218760   4.960   3.774   0.712 -3.6085 -0.2501 -1.4642
 6252TIP3   OH218761   3.425   3.228   3.495  0.2420 -0.0287  0.4851
 6252TIP3    H118762   3.449   3.135   3.490  0.2535  0.0259 -1.4023
 6252TIP3    H218763   3.499   3.274   3.455 -0.7370  0.5719 -0.7150
 6253TIP3   OH218764   6.029   4.811   0.196 -0.4173 -0.8392 -0.0679
 6253TIP3    H118765   5.988   4.728   0.223 -1.5780 -0.1922  0.2242
 6253TIP3    H218766   6.032   4.806   0.101 -0.6341 -1.1602 -0.0622
 6254TIP3   OH218767   0.747   5.862   0.064 -0.9534  0.3921 -0.3173
 6254TIP3    H118768   0.829   5.826   0.100  0.2208  1.5310 -1.7365
 6254TIP3    H218769   0.703   5.787   0.024  1.4620  0.3621 -3.2564
 6255TIP3   OH218770   3.817   2.765   4.674 -0.2360  0.3627 -0.1791
 6255TIP3    H118771   3.888   2.751   4.611 -1.2408  0.8553 -1.4862
 6255TIP3    H218772   3.742   2.792   4.620 -0.3782  3.7369  1.4036
 6256TIP3   OH218773   4.757   3.242   3.169  0.2736 -0.0098  0.4509
 6256TIP3    H118774   4.793   3.327   3.145 -0.0007  0.1173  0.4885
 6256TIP3    H218775   4.759   3.192   3.087  0.9519 -0.1567  0.5495
 6257TIP3   OH218776   5.438   0.104   2.747  0.0532  0.4550  0.4741
 6257TIP3    H118777   5.343   0.114   2.738  0.2646  2.9061  0.1161
 6257TIP3    H218778   5.473   0.125   2.660  1.0069  2.1795  1.2232
 6258TIP3   OH218779   5.757   0.327   1.877 -0.1398 -0.0382  0.1585
 6258TIP3    H118780   5.790   0.410   1.842 -0.3967  0.5475  1.2450
 6258TIP3    H218781   5.836   0.280   1.905 -0.0138 -0.0229 -0.1682
 6259TIP3   OH218782   6.204   0.995   5.180  0.1779 -0.3705  0.2140
 6259TIP3    H118783   6.115   1.030   5.178  0.6564  0.8968 -0.1660
 6259TIP3    H218784   6.199   0.913   5.132 -0.9881 -0.8505  1.1008
 6260TIP3   OH218785   4.137   3.489   3.609 -0.6970  0.1718  0.0813
 6260TIP3    H118786   4.046   3.458   3.615 -0.2307 -1.7657 -1.5914
 6260TIP3    H218787   4.184   3.416   3.568  1.2834  1.7899 -0.7004
 6261TIP3   OH218788   0.055   1.132   3.408  0.4861 -0.0223  0.3091
 6261TIP3    H118789   0.104   1.050   3.407  2.4515  1.0797  0.8431
 6261TIP3    H218790   0.087   1.178   3.486 -1.2108  0.9044  0.5162
 6262TIP3   OH218791   6.297   0.674   3.243 -1.1113  0.3477  0.1368
 6262TIP3    H118792   6.354   0.747   3.221 -1.3954  0.4518 -0.2705
 6262TIP3    H218793   6.356   0.601   3.261 -0.7423  1.0775  2.1580
 6263TIP3   OH218794   0.353   5.243   3.172  0.0181  0.7229  0.0000
 6263TIP3    H118795   0.448   5.234   3.180 -0.0550 -0.3649 -0.1822
 6263TIP3    H218796   0.322   5.153   3.157 -0.8773  1.2506 -1.5004
 6264TIP3   OH218797   3.567   0.366   1.484  0.5354  0.6062 -0.1830
 6264TIP3    H118798   3.528   0.371   1.396  1.1835  0.4629 -0.4859
 6264TIP3    H218799   3.662   0.368   1.468  0.6643  1.8747  0.5876
 6265TIP3   OH218800   4.925   3.058   3.657 -0.2753 -0.0459 -0.5641
 6265TIP3    H118801   4.898   2.973   3.691  0.2882  0.0549  0.1329
 6265TIP3    H218802   5.000   3.039   3.601  0.2746  0.0709  0.1291
 6266TIP3   OH218803   4.287   3.812   3.350  0.5460  0.5792  0.2397
 6266TIP3    H118804   4.334   3.741   3.393 -2.3781 -1.2712  0.7135
 6266TIP3    H218805   4.274   3.781   3.260 -0.3214  0.7288  0.3049
 6267TIP3   OH218806   3.219   1.529   0.687  0.1529 -0.4480 -0.0866
 6267TIP3    H118807   3.290   1.591   0.694 -2.0658  2.2058  0.4900
 6267TIP3    H218808   3.218   1.504   0.594 -0.2881  2.2474 -0.8805
 6268TIP3   OH218809   4.234   2.653   4.035  0.4126  0.3846 -0.6883
 6268TIP3    H118810   4.190   2.720   3.984  0.1732  0.8627  0.1294
 6268TIP3    H218811   4.321   2.645   3.995  0.7348  1.7680 -0.3067
 6269TIP3   OH218812   2.050   4.707   1.174  0.1195 -0.0282 -0.1813
 6269TIP3    H118813   1.962   4.744   1.170 -0.0491 -0.2414  1.2568
 6269TIP3    H218814   2.100   4.758   1.110  0.0309  3.1215  2.0206
 6270TIP3   OH218815   3.946   1.682   4.529  0.0095 -0.2007 -0.1769
 6270TIP3    H118816   3.965   1.677   4.436  2.0789 -2.0315  0.2575
 6270TIP3    H218817   3.884   1.611   4.545 -1.0593  0.6832 -0.2639
 6271TIP3   OH218818   5.721   1.868   1.170  0.4954 -0.1416 -0.5218
 6271TIP3    H118819   5.813   1.844   1.162  0.5535 -1.0397  2.0217
 6271TIP3    H218820   5.678   1.823   1.097  2.1089  0.9066 -2.2164
 6272TIP3   OH218821   1.971   3.430   1.223 -0.5640 -1.0022  0.1038
 6272TIP3    H118822   1.993   3.475   1.304 -1.2128 -0.3352 -0.0870
 6272TIP3    H218823   2.050   3.381   1.201 -0.2805 -0.9533  0.9750
 6273TIP3   OH218824   4.379   2.627   2.829  0.1288  0.4504  0.1915
 6273TIP3    H118825   4.353   2.620   2.921 -0.9183  0.7960 -0.0658
 6273TIP3    H218826   4.471   2.601   2.828  0.4680  1.5090  1.5064
 6274TIP3   OH218827   5.320   0.066   0.591 -0.3801 -0.3474  0.6980
 6274TIP3    H118828   5.372   0.063   0.510  0.2104  0.2232  1.0497
 6274TIP3    H218829   5.369   0.123   0.649 -2.3531  1.8392  0.3754
 6275TIP3   OH218830   0.114   0.463   4.122 -0.0746  0.0750 -0.4301
 6275TIP3    H118831   0.043   0.492   4.065  1.1558  1.6608 -1.2366
 6275TIP3    H218832   0.175   0.537   4.124  1.1823 -0.9378  0.8619
 6276TIP3   OH218833   1.025   0.474   2.975 -0.1555 -0.1830 -0.4015
 6276TIP3    H118834   1.034   0.387   3.014  0.7174 -0.1625 -0.5386
 6276TIP3    H218835   0.934   0.499   2.992  0.3655  0.1871  2.4102
 6277TIP3   OH218836   1.252   3.465   4.850 -0.2695 -0.3218  0.6549
 6277TIP3    H118837   1.178   3.522   4.873 -0.7416  0.4390 -2.3182
 6277TIP3    H218838   1.222   3.377   4.874 -1.7094  0.1014  0.5344
 6278TIP3   OH218839   6.287   2.047   0.693 -0.1956  0.0278  0.4129
 6278TIP3    H118840   6.340   2.122   0.667  0.2525 -0.1661  0.7720
 6278TIP3    H218841   6.217   2.085   0.746 -0.4984  0.2974 -0.1695
 6279TIP3   OH218842   0.795   5.236   1.746  0.5130  0.0987 -0.3339
 6279TIP3    H118843   0.803   5.291   1.824  1.7075  0.5377 -0.7355
 6279TIP3    H218844   0.757   5.292   1.680 -0.4807 -0.2681 -0.0856
 6280TIP3   OH218845   2.165   5.129   3.932 -0.4021 -0.3440  1.0548
 6280TIP3    H118846   2.203   5.111   4.018  0.9242 -0.8490  0.4046
 6280TIP3    H218847   2.196   5.056   3.878 -0.7268  0.2827  0.0105
 6281TIP3   OH218848   3.194   3.714   2.806 -0.1735  0.6181  0.5243
 6281TIP3    H118849   3.255   3.769   2.757  1.0740 -0.5420  0.6971
 6281TIP3    H218850   3.109   3.754   2.792  0.2954  1.0014 -1.6190
 6282TIP3   OH218851   1.220   0.189   1.772  0.1088  1.1427  0.2969
 6282TIP3    H118852   1.262   0.145   1.845  2.0287 -0.5323 -1.6862
 6282TIP3    H218853   1.139   0.141   1.758  0.1831  0.8897  0.7283
 6283TIP3   OH218854   4.193   3.353   1.891  0.5082  0.2953 -0.1648
 6283TIP3    H118855   4.222   3.339   1.981  1.8926  2.5678 -0.2088
 6283TIP3    H218856   4.270   3.335   1.838 -0.0447 -0.1027 -0.8539
 6284TIP3   OH218857   1.628   4.463   4.000  0.0129 -0.6225 -0.2894
 6284TIP3    H118858   1.586   4.378   4.015 -0.0426 -0.8262 -1.4948
 6284TIP3    H218859   1.695   4.469   4.067 -1.7470 -0.3921  1.5426
 6285TIP3   OH218860   2.162   0.525   5.031  0.4364 -0.0430  0.1855
 6285TIP3    H118861   2.087   0.581   5.010  0.7765  0.7776  1.1395
 6285TIP3    H218862   2.142   0.442   4.986 -1.1272  0.0897  0.5630
 6286TIP3   OH218863   0.648   1.059   3.709 -0.0276 -0.5102  0.2053
 6286TIP3    H118864   0.584   1.129   3.700 -1.0498 -1.4512 -0.0311
 6286TIP3    H218865   0.629   1.000   3.636  0.3876 -1.3657  0.7772
 6287TIP3   OH218866   2.445   1.397   1.098 -0.3980  0.5755 -0.3655
 6287TIP3    H118867   2.378   1.335   1.126 -0.3241  0.8758  0.5157
 6287TIP3    H218868   2.527   1.348   1.105 -0.5386  0.0876 -1.8072
 6288TIP3   OH218869   0.745   0.296   3.042 -0.2399 -0.3165  0.1420
 6288TIP3    H118870   0.693   0.224   3.079 -0.2800 -0.4045 -0.0787
 6288TIP3    H218871   0.731   0.369   3.101  1.4975 -1.0849  1.5841
 6289TIP3   OH218872   5.177   1.470   2.040 -0.2659  0.6674 -0.6588
 6289TIP3    H118873   5.151   1.501   1.954 -1.3964  1.4368 -0.0699
 6289TIP3    H218874   5.141   1.381   2.047  0.3591  0.3662 -1.1978
 6290TIP3   OH218875   4.468   5.894   0.661 -0.1524 -0.1727  0.5301
 6290TIP3    H118876   4.504   5.959   0.721  1.1413 -0.9520  0.6348
 6290TIP3    H218877   4.536   5.827   0.655 -1.2154 -1.2361 -0.0214
 6291TIP3   OH218878   3.983   3.229   4.025  0.1116  0.2310 -0.5818
 6291TIP3    H118879   3.916   3.297   4.015 -1.2210 -1.1072 -1.1231
 6291TIP3    H218880   3.957   3.182   4.105 -0.2174 -0.9222 -1.3423
 6292TIP3   OH218881   0.960   0.781   0.495 -0.0603  0.1796  0.3317
 6292TIP3    H118882   0.962   0.687   0.478 -0.5187  0.5624 -2.2043
 6292TIP3    H218883   0.958   0.821   0.408 -1.8047  2.4982  1.3436
 6293TIP3   OH218884   5.516   0.067   5.044 -0.1881 -0.2223  0.0844
 6293TIP3    H118885   5.473   0.127   4.983  0.5532  0.4117  0.1664
 6293TIP3    H218886   5.602   0.051   5.005  0.4685  0.5422  1.1535
 6294TIP3   OH218887   1.453   2.927   2.645 -0.1829  0.3525  0.4726
 6294TIP3    H118888   1.422   2.938   2.735  1.4403 -0.2305  1.1567
 6294TIP3    H218889   1.460   2.832   2.634  0.5667  0.4432  0.0877
 6295TIP3   OH218890   3.740   5.087   5.173 -0.3031  0.6294  0.1111
 6295TIP3    H118891   3.685   5.146   5.122 -0.0807 -0.0168 -0.8993
 6295TIP3    H218892   3.714   4.999   5.145 -0.0806  0.2636  1.0165
 6296TIP3   OH218893   1.102   1.745   2.736 -0.5866 -0.2176  0.2877
 6296TIP3    H118894   1.131   1.810   2.800  0.1503  1.0521 -1.2484
 6296TIP3    H218895   1.069   1.672   2.788 -0.4736  0.9608  2.0824
 6297TIP3   OH218896   5.913   2.239   2.077  0.4329  0.2402  0.4722
 6297TIP3    H118897   5.998   2.201   2.098 -0.9373 -1.8118  2.7859
 6297TIP3    H218898   5.898   2.305   2.145  1.3031  2.7505 -1.5799
 6298TIP3   OH218899   2.445   3.950   0.911  0.2271  0.0205 -0.7787
 6298TIP3    H118900   2.489   3.869   0.889  0.3873 -0.1120  0.0344
 6298TIP3    H218901   2.507   4.019   0.888  1.4381 -0.1977  1.5787
 6299TIP3   OH218902   1.485   5.441   1.925 -0.0669  0.5347  0.0939
 6299TIP3    H118903   1.419   5.394   1.976 -0.7375 -0.7040 -1.7920
 6299TIP3    H218904   1.569   5.405   1.955 -0.3660  0.6406  1.0782
 6300TIP3   OH218905   0.276   3.920  -0.019  0.2719  0.5777 -0.0654
 6300TIP3    H118906   0.287   3.921   0.076  0.3883 -0.6488 -0.0444
 6300TIP3    H218907   0.363   3.899  -0.053 -0.5164 -3.3548 -0.1810
 6301TIP3   OH218908   2.318   0.268   0.466  0.0206 -0.3880 -1.0271
 6301TIP3    H118909   2.282   0.319   0.539  0.3643 -1.1520 -0.3055
 6301TIP3    H218910   2.255   0.198   0.453  0.6546 -1.0610 -0.5300
 6302TIP3   OH218911   6.268   5.244   1.861  0.5834 -0.0271  0.0491
 6302TIP3    H118912   6.314   5.322   1.892  0.1231  0.0031  0.6860
 6302TIP3    H218913   6.275   5.182   1.933  0.8281 -0.5292 -0.4010
 6303TIP3   OH218914   3.305   4.415   3.661 -0.2466  0.1964  0.5569
 6303TIP3    H118915   3.366   4.485   3.685 -0.5285  0.2979  0.9879
 6303TIP3    H218916   3.301   4.420   3.565  2.4506 -1.5409  0.2580
 6304TIP3   OH218917   1.227   2.586   2.984  0.2700 -0.6420  0.6306
 6304TIP3    H118918   1.221   2.681   2.995  0.0570 -0.5134 -0.4710
 6304TIP3    H218919   1.213   2.572   2.890  1.1155 -1.6930  0.6427
 6305TIP3   OH218920   0.181   5.389   3.315  0.2725  0.0101 -0.1749
 6305TIP3    H118921   0.234   5.393   3.235 -0.8892  0.0210 -0.9745
 6305TIP3    H218922   0.236   5.342   3.377  0.5158 -1.6330 -1.5531
 6306TIP3   OH218923   0.746   1.671   0.874  0.2630 -0.0908 -0.2613
 6306TIP3    H118924   0.697   1.752   0.890  2.3440  1.0400  0.7914
 6306TIP3    H218925   0.682   1.602   0.892 -0.7342  1.2922  2.0995
 6307TIP3   OH218926   2.926   5.012   2.470 -0.1208  0.3225  0.1837
 6307TIP3    H118927   2.922   5.092   2.417 -1.8259 -0.9792 -1.8353
 6307TIP3    H218928   3.009   4.971   2.446 -0.2276  0.4571 -0.4394
 6308TIP3   OH218929   0.715   0.197   0.602 -0.2546  0.4857  0.0488
 6308TIP3    H118930   0.803   0.199   0.565 -0.6393  1.2471 -0.8750
 6308TIP3    H218931   0.715   0.121   0.660  1.2458  0.9566  0.7067
 6309TIP3   OH218932   1.938   5.799   2.324  0.2220  0.2959  0.1948
 6309TIP3    H118933   1.857   5.787   2.374 -0.7203 -3.8361 -1.8811
 6309TIP3    H218934   1.909   5.834   2.240  0.8555  0.5814  0.0885
 6310TIP3   OH218935   0.831   0.157   3.541  0.5856 -0.4167 -0.4872
 6310TIP3    H118936   0.917   0.129   3.510  1.9510  1.3448  1.4409
 6310TIP3    H218937   0.808   0.093   3.608  0.7600 -0.4212 -0.4322
 6311TIP3   OH218938   0.264   5.494   1.295  0.3173  0.2561 -0.2084
 6311TIP3    H118939   0.228   5.554   1.229  0.7049  1.2167  0.4262
 6311TIP3    H218940   0.221   5.520   1.377  1.1118  0.2329  0.2256
 6312TIP3   OH218941   3.546   3.765   3.270  0.6167  0.2126  0.3448
 6312TIP3    H118942   3.494   3.839   3.302  0.1633  0.0624 -0.0302
 6312TIP3    H218943   3.573   3.791   3.182 -1.0412 -0.7665 -0.5122
 6313TIP3   OH218944   1.014   3.372   5.085 -0.4444  0.1932  0.0585
 6313TIP3    H118945   1.016   3.457   5.129 -0.4673  0.8535 -1.1671
 6313TIP3    H218946   1.105   3.343   5.085 -0.2579  0.7434 -0.4610
 6314TIP3   OH218947   6.103   4.825   4.284  0.4691  0.4667  0.0065
 6314TIP3    H118948   6.150   4.829   4.200 -0.9150 -1.7364 -0.9548
 6314TIP3    H218949   6.018   4.788   4.262 -0.5822  1.4367  2.1815
 6315TIP3   OH218950   4.750   5.030   1.664 -0.0822  0.3374 -0.0822
 6315TIP3    H118951   4.671   4.977   1.654 -0.6380  1.1148  0.1128
 6315TIP3    H218952   4.805   4.980   1.723 -0.8781  0.2722  0.6234
 6316TIP3   OH218953   2.560   0.525   4.067 -0.4046 -0.1652 -0.6288
 6316TIP3    H118954   2.580   0.510   3.974  0.3992 -0.5752 -0.3970
 6316TIP3    H218955   2.523   0.613   4.069  3.0324  1.4658 -0.8979
 6317TIP3   OH218956   5.716   4.229   0.869 -0.3182 -0.6597 -0.4401
 6317TIP3    H118957   5.725   4.136   0.847  0.2452 -0.7185  0.0077
 6317TIP3    H218958   5.692   4.228   0.962 -2.1758 -0.4086 -0.8697
 6318TIP3   OH218959   3.863   2.399   1.353 -0.2909  0.4191  0.0576
 6318TIP3    H118960   3.876   2.472   1.293  1.0093  2.6518  2.8379
 6318TIP3    H218961   3.846   2.324   1.296  1.3300  2.2465 -3.0928
 6319TIP3   OH218962   1.510   1.322   1.419  0.0069  0.1967  0.5580
 6319TIP3    H118963   1.586   1.315   1.477 -0.7597  0.1795  1.5878
 6319TIP3    H218964   1.474   1.233   1.416 -0.3745  0.3483  0.6236
 6320TIP3   OH218965   0.382   4.929   1.403 -1.0128  0.0247 -0.0909
 6320TIP3    H118966   0.307   4.914   1.461 -1.6743  1.7346 -0.4647
 6320TIP3    H218967   0.453   4.952   1.463 -1.0051 -0.7109  0.1979
 6321TIP3   OH218968   2.816   2.943   1.429  0.5259  0.2152 -0.2761
 6321TIP3    H118969   2.744   2.917   1.372 -0.3867  1.1545  0.4213
 6321TIP3    H218970   2.775   2.993   1.499  1.7790  0.1746  0.5206
 6322TIP3   OH218971   3.888   1.205   4.304 -0.0057 -0.4262 -0.1540
 6322TIP3    H118972   3.982   1.197   4.319  0.1590  1.5073  0.1001
 6322TIP3    H218973   3.849   1.139   4.360  1.0311  1.2637  2.8048
 6323TIP3   OH218974   2.025   3.237   0.831  0.0561 -0.4282  0.6318
 6323TIP3    H118975   1.939   3.197   0.848  0.4648 -1.2523  0.7896
 6323TIP3    H218976   2.044   3.215   0.740 -0.0956  0.1376  0.4604
 6324TIP3   OH218977   3.303   2.506   1.519 -0.0934  0.3257  0.4936
 6324TIP3    H118978   3.325   2.590   1.560 -1.1546 -0.4466  2.8322
 6324TIP3    H218979   3.337   2.513   1.430  1.0367  2.7098  1.0299
 6325TIP3   OH218980   1.391   5.505   3.372  0.0228 -0.4748 -0.3716
 6325TIP3    H118981   1.335   5.427   3.372  0.1133 -0.5413 -0.4514
 6325TIP3    H218982   1.375   5.545   3.287 -0.0488 -0.3879 -0.3167
 6326TIP3   OH218983   5.586   5.331   4.832  0.1404 -0.3890  0.2237
 6326TIP3    H118984   5.564   5.326   4.739  0.3154  0.2778  0.1383
 6326TIP3    H218985   5.560   5.419   4.858 -1.4091 -1.0881  1.2133
 6327TIP3   OH218986   4.846   0.451   2.302  0.0646 -0.0786 -0.1943
 6327TIP3    H118987   4.910   0.398   2.349  0.9782 -0.1837 -1.5087
 6327TIP3    H218988   4.816   0.395   2.230  0.0229  0.6872 -0.7914
 6328TIP3   OH218989   0.022   0.901   0.633 -0.3015 -0.7189  0.2752
 6328TIP3    H118990   0.112   0.892   0.665 -1.3620 -2.5652  3.1174
 6328TIP3    H218991  -0.021   0.819   0.658 -2.8056  0.0766 -1.0094
 6329TIP3   OH218992   0.177   3.979   3.799  0.2834 -0.1724 -0.3696
 6329TIP3    H118993   0.103   4.031   3.831  0.0707 -0.5033 -0.3249
 6329TIP3    H218994   0.252   4.038   3.807  0.0383  0.1440 -0.3541
 6330TIP3   OH218995   5.640   2.110   2.412 -0.2118 -0.0600  0.5945
 6330TIP3    H118996   5.633   2.073   2.324  2.0059 -0.0288  0.3533
 6330TIP3    H218997   5.552   2.141   2.431 -1.6794 -3.3023 -0.1177
 6331TIP3   OH218998   4.547   3.815   0.559  0.7803  0.4195  0.0404
 6331TIP3    H118999   4.482   3.750   0.533  0.6947  1.1997 -1.8436
 6331TIP3    H219000   4.509   3.858   0.636 -0.0521 -0.4032  0.1037
 6332TIP3   OH219001   2.324   3.245   1.395  0.0943  0.0599  0.3797
 6332TIP3    H119002   2.315   3.151   1.379  1.3822 -0.1023  0.5342
 6332TIP3    H219003   2.344   3.252   1.488 -0.0733  0.4963  0.3850
 6333TIP3   OH219004   4.872   2.020   2.833 -0.0762  0.4787  0.1582
 6333TIP3    H119005   4.781   2.052   2.837 -0.8626 -1.7001  3.2871
 6333TIP3    H219006   4.864   1.925   2.844  2.4974 -0.1590 -2.3697
 6334TIP3   OH219007   0.764   5.066   0.550  0.6606 -0.5114  0.0456
 6334TIP3    H119008   0.688   5.033   0.597  0.9471 -0.9666  0.1962
 6334TIP3    H219009   0.748   5.160   0.541 -0.0964 -0.6592 -0.2560
 6335TIP3   OH219010   5.991   2.692   3.645 -0.0527  0.4575  0.0926
 6335TIP3    H119011   5.896   2.690   3.647 -0.1953 -0.6704 -2.8093
 6335TIP3    H219012   6.018   2.601   3.658  0.6243  0.7371  0.7040
 6336TIP3   OH219013   1.459   3.079   2.330  0.6327 -0.8316  0.1785
 6336TIP3    H119014   1.437   2.991   2.362  0.3681 -1.3106 -1.2146
 6336TIP3    H219015   1.471   3.067   2.235 -1.7299  1.0308 -0.4639
 6337TIP3   OH219016   4.161   1.278   2.908 -0.3015 -0.1431  0.4876
 6337TIP3    H119017   4.241   1.257   2.956 -0.9711 -2.2689  0.7858
 6337TIP3    H219018   4.188   1.280   2.816  0.1471 -0.6427  0.6011
 6338TIP3   OH219019   5.248   1.191   5.037  0.0684  0.2630 -0.1922
 6338TIP3    H119020   5.303   1.236   4.973  1.8982 -0.6066  0.6687
 6338TIP3    H219021   5.177   1.252   5.055  0.3660  1.1675 -1.8601
 6339TIP3   OH219022   5.244   1.361   0.176 -0.4776 -0.0387 -0.6081
 6339TIP3    H119023   5.323   1.366   0.231 -0.4381 -2.8324 -0.2826
 6339TIP3    H219024   5.273   1.315   0.097 -1.6807 -0.8186 -0.6207
 6340TIP3   OH219025   1.551   5.826   0.558  0.1500 -0.0108 -0.0662
 6340TIP3    H119026   1.515   5.862   0.639 -1.8578  0.4671 -1.0888
 6340TIP3    H219027   1.643   5.810   0.577 -0.0728  0.8815  2.0252
 6341TIP3   OH219028   3.811   5.629   1.758 -0.0023 -0.0193  0.5135
 6341TIP3    H119029   3.751   5.688   1.713  0.1832  0.5860  1.0298
 6341TIP3    H219030   3.898   5.655   1.727 -0.0115 -1.1324 -0.5072
 6342TIP3   OH219031   3.000   3.227   3.748  0.6840 -0.2985 -0.2920
 6342TIP3    H119032   2.968   3.149   3.793 -1.6705  0.5097 -0.4281
 6342TIP3    H219033   2.979   3.211   3.656  2.4957 -0.5348 -0.7084
 6343TIP3   OH219034   5.674   4.672   1.471 -0.4820  0.2239 -0.6222
 6343TIP3    H119035   5.741   4.676   1.539  0.8680 -1.2681 -1.7955
 6343TIP3    H219036   5.723   4.660   1.389 -2.1504 -0.3504 -1.5898
 6344TIP3   OH219037   1.267   5.555   3.605  0.8135 -0.3039  0.2709
 6344TIP3    H119038   1.314   5.538   3.523  0.9907  0.3854  0.2258
 6344TIP3    H219039   1.335   5.560   3.672  0.5833 -2.1520  0.7080
 6345TIP3   OH219040   1.973   2.425   4.050 -0.1703  0.5837  0.0450
 6345TIP3    H119041   1.887   2.421   4.092 -0.5512  0.4751 -0.7175
 6345TIP3    H219042   1.965   2.367   3.974  1.9786 -3.2585  2.3755
 6346TIP3   OH219043   1.601   2.152   5.036  0.3598 -0.0551 -0.2696
 6346TIP3    H119044   1.639   2.194   5.113 -1.2611  0.0297  0.5286
 6346TIP3    H219045   1.658   2.179   4.964  2.7783 -1.3251  1.0595
 6347TIP3   OH219046   0.876   1.997   0.934 -0.1991  0.0254 -0.0522
 6347TIP3    H119047   0.936   2.049   0.882  0.7041 -1.3551 -0.4435
 6347TIP3    H219048   0.799   1.986   0.878  0.2981 -0.4770 -0.6548
 6348TIP3   OH219049   4.723   3.224   1.665  0.0696 -0.6377  0.4931
 6348TIP3    H119050   4.789   3.171   1.621 -0.0130  1.7202 -2.8817
 6348TIP3    H219051   4.772   3.279   1.725  0.9680 -0.1667 -0.6474
 6349TIP3   OH219052   4.874   5.670   2.278  0.0274 -0.0723  0.3409
 6349TIP3    H119053   4.872   5.756   2.322  2.2965  0.6245 -0.7909
 6349TIP3    H219054   4.846   5.608   2.346  2.0001  1.1273  2.3872
 6350TIP3   OH219055   1.288   1.932   2.483 -0.0849 -0.3099  0.0710
 6350TIP3    H119056   1.344   1.961   2.412  1.3824 -0.8945  0.9468
 6350TIP3    H219057   1.333   1.855   2.519 -0.6910  0.0809  1.7406
 6351TIP3   OH219058   4.202   5.409   1.995 -0.4218  0.2934 -0.7854
 6351TIP3    H119059   4.147   5.412   2.074 -0.4242  1.4663 -0.8188
 6351TIP3    H219060   4.205   5.499   1.964 -0.6706 -0.2052 -2.3206
 6352TIP3   OH219061   5.250   3.858   1.149 -0.4614  0.1229  0.4087
 6352TIP3    H119062   5.305   3.809   1.210  0.1203 -0.1991 -0.3604
 6352TIP3    H219063   5.308   3.924   1.111  0.0029 -1.5123 -1.9262
 6353TIP3   OH219064   0.365   1.850   1.176  0.7223  0.3065  0.4300
 6353TIP3    H119065   0.374   1.855   1.081  1.1248 -0.3269  0.4269
 6353TIP3    H219066   0.406   1.930   1.208  3.0625 -0.7085  0.1961
 6354TIP3   OH219067   1.825   0.549   2.613 -0.4599 -0.7162  0.0932
 6354TIP3    H119068   1.816   0.618   2.679 -0.0471 -0.9511  0.4012
 6354TIP3    H219069   1.897   0.495   2.645 -0.1282 -0.7264 -0.6472
 6355TIP3   OH219070   1.229   5.503   2.427 -0.2094 -0.5674 -0.3081
 6355TIP3    H119071   1.135   5.482   2.431 -0.5060  0.5785 -0.8533
 6355TIP3    H219072   1.236   5.568   2.357  1.0720 -0.9818 -0.5909
 6356TIP3   OH219073  -0.033   4.217   2.987 -0.4199 -0.5155 -0.1654
 6356TIP3    H119074   0.015   4.282   2.936 -1.0428 -0.3949 -0.6031
 6356TIP3    H219075   0.034   4.154   3.014  0.0021 -0.2923 -0.6803
 6357TIP3   OH219076   1.587   5.353   3.235 -0.0748  0.0641  1.2647
 6357TIP3    H119077   1.666   5.401   3.211  0.2907 -1.8402 -1.9571
 6357TIP3    H219078   1.517   5.419   3.235  0.8009  1.0419 -0.3834
 6358TIP3   OH219079   2.675   0.584  -0.003 -1.0605  0.3291  0.0342
 6358TIP3    H119080   2.587   0.547   0.005 -0.6086 -0.6456  0.6882
 6358TIP3    H219081   2.687   0.636   0.076 -0.3485 -1.1275  0.9333
 6359TIP3   OH219082   4.719   2.179   1.459  0.2363  0.2608 -0.6387
 6359TIP3    H119083   4.806   2.166   1.498 -0.1092 -0.3544 -0.0687
 6359TIP3    H219084   4.704   2.100   1.407  0.0085  0.3631 -0.7299
 6360TIP3   OH219085   0.367   0.904   2.696  0.2781 -0.5297  0.1217
 6360TIP3    H119086   0.452   0.923   2.658 -0.7123  0.7387 -1.6115
 6360TIP3    H219087   0.377   0.923   2.789  2.2780 -1.8972  0.2404
 6361TIP3   OH219088   1.440   3.554   2.883  0.5623  0.0916 -0.1353
 6361TIP3    H119089   1.416   3.488   2.947 -1.0930 -1.1541 -1.9221
 6361TIP3    H219090   1.493   3.507   2.819  1.7818  1.1974  0.0192
 6362TIP3   OH219091   3.696   1.229   0.718  0.2324  0.3657 -0.7479
 6362TIP3    H119092   3.690   1.167   0.791 -0.0118 -0.3625 -1.3768
 6362TIP3    H219093   3.714   1.174   0.642  0.3652  1.1099 -1.2534
 6363TIP3   OH219094   2.162   3.444   3.703 -0.1650  0.2174 -0.6122
 6363TIP3    H119095   2.210   3.519   3.738 -0.9802  0.3136  0.3619
 6363TIP3    H219096   2.226   3.373   3.700  0.4198  0.7552 -0.8208
 6364TIP3   OH219097   2.665   1.621   0.523 -0.0360 -0.4546  0.7068
 6364TIP3    H119098   2.666   1.715   0.541 -3.2783 -0.3997  1.2427
 6364TIP3    H219099   2.709   1.611   0.439  0.5079  1.5098  0.7262
 6365TIP3   OH219100   4.921   0.819   3.114  0.3426  0.4997 -0.0298
 6365TIP3    H119101   4.985   0.748   3.109  1.0602  1.1544 -0.1667
 6365TIP3    H219102   4.885   0.825   3.025  1.3718  1.3041 -0.4037
 6366TIP3   OH219103   4.226   2.939   2.309  0.0522 -0.0072 -0.1686
 6366TIP3    H119104   4.180   2.894   2.380  1.8849  0.3082  1.2902
 6366TIP3    H219105   4.224   2.877   2.236 -2.0164 -0.2679  0.0454
 6367TIP3   OH219106   3.779   5.110   1.184  0.5131  0.0535 -0.1861
 6367TIP3    H119107   3.797   5.116   1.090  1.7744 -0.4063  0.0060
 6367TIP3    H219108   3.734   5.027   1.195 -1.1223  0.8495 -0.5735
 6368TIP3   OH219109   0.755   3.852   2.631 -0.2174 -0.4349 -0.6805
 6368TIP3    H119110   0.669   3.826   2.662 -0.2504 -1.6496 -1.6976
 6368TIP3    H219111   0.815   3.787   2.666  0.0989 -0.3424 -1.0326
 6369TIP3   OH219112   5.368   2.874   3.160 -0.4909  0.2826  0.6094
 6369TIP3    H119113   5.381   2.967   3.144  1.8255  0.0892  1.0455
 6369TIP3    H219114   5.438   2.850   3.220 -0.0120 -2.0875 -0.7688
 6370TIP3   OH219115   0.435   0.501   2.059  0.2534 -0.5283 -0.2692
 6370TIP3    H119116   0.384   0.569   2.103 -1.9397 -2.8070  0.9402
 6370TIP3    H219117   0.521   0.505   2.101 -0.9893 -0.9119  2.5491
 6371TIP3   OH219118   2.024   0.993   4.751 -0.1357  0.3800  0.2358
 6371TIP3    H119119   2.063   1.031   4.672 -1.2676  0.6100 -0.2346
 6371TIP3    H219120   2.033   1.061   4.817 -1.7735  1.3513 -0.4895
 6372TIP3   OH219121   0.788   3.698   1.950 -0.2643  0.0275 -0.5818
 6372TIP3    H119122   0.806   3.621   2.005  0.9951  0.3205 -0.5770
 6372TIP3    H219123   0.845   3.687   1.874 -0.7378  0.5153 -1.0157
 6373TIP3   OH219124   0.334   3.611   2.036 -0.0790 -0.2404  0.1939
 6373TIP3    H119125   0.306   3.546   2.100  1.2923  0.3803  1.4831
 6373TIP3    H219126   0.333   3.564   1.952  0.7519 -1.9013  1.0633
 6374TIP3   OH219127   4.188   0.049   0.308 -0.1933  0.4527 -0.2760
 6374TIP3    H119128   4.228   0.013   0.229  0.7996 -0.5418  0.6488
 6374TIP3    H219129   4.100   0.012   0.310  0.0326 -0.1006 -0.5410
 6375TIP3   OH219130   3.003   1.297   0.558 -0.4979 -0.0899 -0.1153
 6375TIP3    H119131   2.999   1.361   0.629 -2.9908 -0.4277  0.1419
 6375TIP3    H219132   2.959   1.339   0.485  1.7141  0.1048 -1.4299
 6376TIP3   OH219133   5.656   4.242   4.788 -0.6272 -0.5667  0.0388
 6376TIP3    H119134   5.667   4.215   4.879 -0.4680  0.8805  0.4699
 6376TIP3    H219135   5.738   4.287   4.766 -0.7289 -0.7605 -0.7735
 6377TIP3   OH219136   2.936   1.129   5.112 -0.2359 -0.1544 -0.4918
 6377TIP3    H119137   2.892   1.083   5.040 -1.5764 -0.3494  0.4087
 6377TIP3    H219138   2.881   1.111   5.189  1.4788 -0.4760  0.7221
 6378TIP3   OH219139   3.641   1.084   4.991  0.2280  0.5837 -0.1742
 6378TIP3    H119140   3.710   1.041   4.941  0.9183  1.2442  0.2035
 6378TIP3    H219141   3.672   1.085   5.081  0.4065  2.1909 -0.2192
 6379TIP3   OH219142   2.725   2.913   4.615 -0.7015 -0.3742  0.1958
 6379TIP3    H119143   2.641   2.909   4.660 -0.2699 -1.0491  0.9564
 6379TIP3    H219144   2.790   2.894   4.683  0.2040  1.7013 -0.0126
 6380TIP3   OH219145   0.142   3.872   4.813  0.0016  0.1754 -0.1468
 6380TIP3    H119146   0.067   3.929   4.797  0.8553  1.9502  1.6539
 6380TIP3    H219147   0.209   3.904   4.753 -0.0513 -0.0366 -0.3160
 6381TIP3   OH219148   2.537   2.899   0.406 -0.3818  0.0009  0.0153
 6381TIP3    H119149   2.609   2.958   0.431  0.3545 -0.4517 -0.9997
 6381TIP3    H219150   2.569   2.853   0.329 -1.6684 -0.4125 -0.2898
 6382TIP3   OH219151   4.638   1.519   2.245  0.2355 -0.5697 -0.4994
 6382TIP3    H119152   4.729   1.536   2.220 -0.1433 -0.0043 -1.5277
 6382TIP3    H219153   4.595   1.604   2.238 -0.2582 -0.7200  0.5264
 6383TIP3   OH219154   3.204   1.015   2.365  0.4064 -0.1260 -0.7853
 6383TIP3    H119155   3.231   1.019   2.273  0.0659  0.9365 -0.8513
 6383TIP3    H219156   3.110   1.031   2.364  0.2779 -0.8127 -0.3048
 6384TIP3   OH219157   3.932   5.913   4.224 -0.6818  0.0039 -0.1189
 6384TIP3    H119158   3.873   5.844   4.193 -1.5489  0.3781  0.6704
 6384TIP3    H219159   3.878   5.967   4.282  0.0096  1.2800 -0.6210
 6385TIP3   OH219160   0.543   2.746   2.847  0.3259 -0.0596 -0.1863
 6385TIP3    H119161   0.499   2.664   2.826  0.8007 -0.0011 -1.4884
 6385TIP3    H219162   0.613   2.721   2.908  0.7251 -0.6943 -0.8908
 6386TIP3   OH219163   3.834   0.248   1.481 -0.1068  0.3330 -0.6509
 6386TIP3    H119164   3.798   0.212   1.400 -0.0348 -0.1643 -0.4598
 6386TIP3    H219165   3.916   0.201   1.494  0.2049  0.8720 -0.6348
 6387TIP3   OH219166   0.086   3.907   0.715  0.5148  0.0705 -0.5066
 6387TIP3    H119167   0.032   3.982   0.739  2.7524  1.3568  0.8509
 6387TIP3    H219168   0.090   3.853   0.794  0.7093 -0.3420 -0.7910
 6388TIP3   OH219169   6.226   1.587   0.871  0.3824 -0.2806  0.5941
 6388TIP3    H119170   6.146   1.580   0.818 -0.5784  1.4903  1.7062
 6388TIP3    H219171   6.242   1.498   0.901  0.1757 -1.0941 -1.5021
 6389TIP3   OH219172   3.485   1.026   2.368 -0.4440 -0.1209  0.6299
 6389TIP3    H119173   3.556   0.964   2.384  0.3062  0.2347 -1.0546
 6389TIP3    H219174   3.436   0.988   2.295 -2.1330 -0.4299  1.8504
 6390TIP3   OH219175   2.632   4.310   5.035 -0.0790 -0.1326 -0.2043
 6390TIP3    H119176   2.607   4.220   5.058  1.1128 -0.2956  0.5462
 6390TIP3    H219177   2.589   4.364   5.100  0.1586 -0.2667  0.0671
 6391TIP3   OH219178   6.046   2.346   2.513  0.1438  0.0465  0.0319
 6391TIP3    H119179   6.078   2.256   2.522 -0.4404 -0.1418  0.2981
 6391TIP3    H219180   6.125   2.400   2.513  0.4707 -0.4236  0.4657
 6392TIP3   OH219181   4.840   4.188   2.506  0.5141 -0.0200  0.1755
 6392TIP3    H119182   4.777   4.170   2.575  0.3344  0.4445  0.1334
 6392TIP3    H219183   4.815   4.130   2.434  0.5800 -0.3578  0.4218
 6393TIP3   OH219184   1.271   1.664   4.643  0.9190 -0.1528 -0.2265
 6393TIP3    H119185   1.179   1.646   4.623  0.8033  0.2970 -0.1078
 6393TIP3    H219186   1.314   1.579   4.636  0.2010 -0.6774  1.3310
 6394TIP3   OH219187   2.891   5.650   2.811  0.4009 -0.1697  0.1271
 6394TIP3    H119188   2.926   5.722   2.758 -0.9353  0.7996  0.5160
 6394TIP3    H219189   2.928   5.664   2.898  0.9949 -0.6028 -0.0439
 6395TIP3   OH219190   2.078   2.932   3.718  0.3256 -0.8082  0.2337
 6395TIP3    H119191   2.161   2.950   3.760  0.6293 -0.2206 -0.5911
 6395TIP3    H219192   2.022   2.898   3.788  0.6933  0.4799  1.1881
 6396TIP3   OH219193   1.717   2.084   3.776 -0.6515  0.1633  0.4513
 6396TIP3    H119194   1.624   2.080   3.752 -0.0230 -0.6503 -2.1355
 6396TIP3    H219195   1.758   2.014   3.725  1.6821  1.7302  0.0085
 6397TIP3   OH219196   4.509   0.236   3.056  0.2574 -0.2596 -1.0028
 6397TIP3    H119197   4.453   0.314   3.058  1.3251  0.5307 -0.5722
 6397TIP3    H219198   4.529   0.223   2.964 -0.2141 -0.2378 -1.1097
 6398TIP3   OH219199   0.162   5.638   2.216  0.1902 -0.8862 -0.3733
 6398TIP3    H119200   0.138   5.621   2.307 -1.0994 -3.2574 -1.0668
 6398TIP3    H219201   0.080   5.663   2.174  1.0908  2.1913 -0.5991
 6399TIP3   OH219202   4.839   4.627   4.854 -0.2261  0.0572 -0.5656
 6399TIP3    H119203   4.769   4.681   4.890  1.9119  1.1538  2.2530
 6399TIP3    H219204   4.893   4.688   4.804  0.9232  0.1034  0.6938
 6400TIP3   OH219205   3.463   0.732   2.571 -0.1891  0.1912  0.5070
 6400TIP3    H119206   3.500   0.748   2.658  0.2661 -0.1399  0.3817
 6400TIP3    H219207   3.381   0.781   2.570 -0.8536 -0.8259  1.5938
 6401TIP3   OH219208   2.347   0.458   2.759  0.3448  0.2607  0.1974
 6401TIP3    H119209   2.327   0.375   2.715  0.3774 -0.3473  1.2790
 6401TIP3    H219210   2.442   0.465   2.756  0.3210  0.4310 -0.1902
 6402TIP3   OH219211   3.086   4.211   0.561 -0.4010 -0.0740 -0.6067
 6402TIP3    H119212   3.067   4.216   0.467  1.3694 -2.8333 -1.2231
 6402TIP3    H219213   3.013   4.161   0.597 -1.5348  1.7264 -0.2773
 6403TIP3   OH219214   0.711   1.052   0.818 -0.4144 -0.3158  0.2251
 6403TIP3    H119215   0.741   1.091   0.736 -1.8433 -0.9036 -0.6026
 6403TIP3    H219216   0.790   1.047   0.872  0.6555 -0.3577 -1.2799
 6404TIP3   OH219217   1.774   1.846   5.090  0.1502  0.2920 -0.1477
 6404TIP3    H119218   1.852   1.902   5.084 -0.3855  0.9009 -2.0856
 6404TIP3    H219219   1.719   1.873   5.017 -1.2315 -1.1507  0.2974
 6405TIP3   OH219220   3.659   3.637   2.771 -0.0168  0.4672  0.0990
 6405TIP3    H119221   3.693   3.552   2.797  1.0298  0.5946 -0.7961
 6405TIP3    H219222   3.737   3.691   2.758 -0.5595  0.8454 -1.7790
 6406TIP3   OH219223   0.741   0.507   1.918  0.3223  0.2298 -0.3697
 6406TIP3    H119224   0.832   0.534   1.921  0.5156 -0.3368 -1.0125
 6406TIP3    H219225   0.691   0.589   1.925  0.8807  0.6356 -1.0642
 6407TIP3   OH219226   4.809   4.721   3.095 -0.6482  0.1103 -0.0508
 6407TIP3    H119227   4.832   4.796   3.040  1.9758 -0.7439 -0.2416
 6407TIP3    H219228   4.781   4.760   3.178 -0.4575  1.3109 -0.5329
 6408TIP3   OH219229   5.324   5.038   0.567  0.0020 -0.2489  0.2399
 6408TIP3    H119230   5.287   4.950   0.573 -0.9047  0.2120  2.5195
 6408TIP3    H219231   5.376   5.037   0.487  0.1199 -2.8899  0.2688
 6409TIP3   OH219232   0.773   1.817   2.717 -0.1289 -0.8712 -0.7208
 6409TIP3    H119233   0.686   1.856   2.709  0.0586 -0.4384 -0.6815
 6409TIP3    H219234   0.830   1.889   2.744  0.4230 -0.9231 -1.6661
 6410TIP3   OH219235   1.766   2.578   3.786  0.0017 -0.6239  0.0317
 6410TIP3    H119236   1.746   2.628   3.708 -1.1020 -0.4574  0.4040
 6410TIP3    H219237   1.695   2.598   3.847  2.0382  1.1743  2.0180
 6411TIP3   OH219238   5.945   3.990   4.183  0.2052  0.4761  0.2948
 6411TIP3    H119239   5.960   4.052   4.255  0.7364  1.3138 -0.5232
 6411TIP3    H219240   5.960   4.041   4.104 -0.7921 -0.3222 -0.4350
 6412TIP3   OH219241   0.554   3.201   4.894  0.1490  0.6070 -0.1578
 6412TIP3    H119242   0.479   3.174   4.948  1.6487 -1.8646  0.8939
 6412TIP3    H219243   0.606   3.257   4.951  0.8461 -0.5995  0.4559
 6413TIP3   OH219244   0.583   3.234   2.290 -0.6339 -0.1080 -0.3445
 6413TIP3    H119245   0.653   3.196   2.344 -0.4440  1.2524  0.4107
 6413TIP3    H219246   0.616   3.226   2.201  0.4419  0.3466 -0.0177
 6414TIP3   OH219247   2.488   2.042   3.651 -0.1982 -0.2653  0.0855
 6414TIP3    H119248   2.476   1.952   3.679  2.1817 -0.1598  1.7236
 6414TIP3    H219249   2.568   2.041   3.598  0.4754  0.9999  1.0159
 6415TIP3   OH219250   2.434   2.498   4.830  0.2780  0.3321 -0.1319
 6415TIP3    H119251   2.452   2.581   4.875 -0.8897 -0.6280  2.3186
 6415TIP3    H219252   2.348   2.472   4.862  0.2856 -1.4867 -1.4237
 6416TIP3   OH219253   1.253   1.935   3.684  0.1779 -0.0704  0.2958
 6416TIP3    H119254   1.308   2.012   3.700 -2.9160  1.9637  2.0807
 6416TIP3    H219255   1.213   1.951   3.599 -1.0712  0.7480  1.0168
 6417TIP3   OH219256   1.237   5.411   0.937 -0.2978  0.7208 -0.2729
 6417TIP3    H119257   1.174   5.373   0.998 -1.2988 -0.5978 -2.0590
 6417TIP3    H219258   1.193   5.489   0.903  0.1314  1.2707  0.3830
 6418TIP3   OH219259   3.997   2.579   3.455  0.3064 -0.0802  0.0547
 6418TIP3    H119260   3.960   2.505   3.406  0.2310 -1.1202  1.5884
 6418TIP3    H219261   4.081   2.597   3.412 -0.5442  0.2793 -1.5574
 6419TIP3   OH219262   0.365   4.614   2.443 -0.2812  0.2674  0.0953
 6419TIP3    H119263   0.383   4.608   2.537  0.1637 -0.3018 -0.0158
 6419TIP3    H219264   0.271   4.599   2.435 -0.1807 -0.5667  0.3807
 6420TIP3   OH219265   5.922   0.951   4.295  0.1202 -0.0259  0.2453
 6420TIP3    H119266   5.874   0.908   4.224 -0.1127  0.1359  0.3010
 6420TIP3    H219267   6.014   0.938   4.274  0.1222  2.2132 -1.4684
 6421TIP3   OH219268   1.937   4.599   4.109 -0.2492  0.5737  0.1910
 6421TIP3    H119269   1.980   4.664   4.053  1.3244 -0.4353  0.1889
 6421TIP3    H219270   1.912   4.649   4.187  0.7511  1.2438  0.1063
 6422TIP3   OH219271   3.927   3.313   2.149 -0.1235 -0.2398  0.3462
 6422TIP3    H119272   4.020   3.291   2.148 -0.0440  0.0362  0.9690
 6422TIP3    H219273   3.908   3.343   2.060 -0.0286 -1.9431 -0.2886
 6423TIP3   OH219274   3.367   3.574   3.357  0.1420  0.3058  0.2480
 6423TIP3    H119275   3.361   3.513   3.283 -0.9668  0.3993  0.2387
 6423TIP3    H219276   3.429   3.642   3.328 -1.2767  1.0662 -1.1472
 6424TIP3   OH219277   0.736   1.414   3.618 -0.2828  0.6682 -0.1881
 6424TIP3    H119278   0.815   1.377   3.579  0.3019 -0.3842  1.8352
 6424TIP3    H219279   0.768   1.485   3.674 -0.7750  0.2740  0.5982
 6425TIP3   OH219280   1.898   5.256   1.471 -0.6006  0.5233  1.0138
 6425TIP3    H119281   1.833   5.317   1.437 -0.3233  1.1209  1.5355
 6425TIP3    H219282   1.965   5.312   1.511  0.4441 -0.0494  0.1474
 6426TIP3   OH219283   3.303   3.908   3.578  0.3131 -0.9100  0.3048
 6426TIP3    H119284   3.315   3.992   3.534  0.8322 -1.0078  0.2617
 6426TIP3    H219285   3.228   3.923   3.636  0.1512 -0.5377  0.0028
 6427TIP3   OH219286   0.082   5.072   1.724 -0.3793 -0.1653  0.5298
 6427TIP3    H119287   0.025   5.118   1.787 -0.5657  0.5083 -0.1206
 6427TIP3    H219288   0.097   5.136   1.655 -0.6008 -1.0702 -0.3703
 6428TIP3   OH219289   6.060   3.759   0.442 -0.3638  0.3284  0.2465
 6428TIP3    H119290   5.977   3.764   0.395  0.6317  3.6795 -1.4950
 6428TIP3    H219291   6.115   3.703   0.388 -0.5472  0.6760 -0.3042
 6429TIP3   OH219292   5.117   1.834   1.534  0.3222 -0.1985  0.7452
 6429TIP3    H119293   5.138   1.893   1.606 -1.5721  0.2802  0.9739
 6429TIP3    H219294   5.107   1.891   1.458 -0.1058 -0.3832  0.6558
 6430TIP3   OH219295   6.217   2.342   2.001 -0.8261 -0.3363  0.0071
 6430TIP3    H119296   6.175   2.281   1.941 -1.1788 -0.3130  0.2224
 6430TIP3    H219297   6.191   2.429   1.969 -0.3636 -0.2967 -0.2718
 6431TIP3   OH219298   1.525   0.028   3.838  0.2485 -0.2625  0.5044
 6431TIP3    H119299   1.453   0.023   3.775  1.3718 -0.5477 -0.8117
 6431TIP3    H219300   1.508   0.108   3.888  0.3020  1.0737 -1.4689
 6432TIP3   OH219301   3.655   1.486   0.846  0.4063  0.3861 -0.4261
 6432TIP3    H119302   3.612   1.434   0.913 -0.3192  1.1998 -0.2332
 6432TIP3    H219303   3.690   1.422   0.784  0.7669 -0.3575  0.5276
 6433TIP3   OH219304   5.904   3.919   0.710 -0.3875 -0.2962 -0.7775
 6433TIP3    H119305   5.868   3.955   0.791 -0.7846 -0.6432 -0.7949
 6433TIP3    H219306   5.987   3.879   0.735  0.5721  1.4680 -0.9206
 6434TIP3   OH219307   6.241   5.294   3.976 -0.0420  0.0707  0.0041
 6434TIP3    H119308   6.331   5.262   3.966 -0.8078 -2.7369  1.0328
 6434TIP3    H219309   6.187   5.226   3.935 -1.7854  0.5170  1.4288
 6435TIP3   OH219310   2.964   4.887   5.050 -0.2604 -0.5506 -0.0556
 6435TIP3    H119311   2.895   4.824   5.028 -0.3116 -0.7679  0.7187
 6435TIP3    H219312   3.018   4.842   5.115 -0.3960  0.2620  0.6343
 6436TIP3   OH219313   0.718   3.427   3.372  0.0814  0.4566 -0.2045
 6436TIP3    H119314   0.766   3.440   3.453  0.0654  0.8704 -0.2596
 6436TIP3    H219315   0.634   3.471   3.386  0.2791  0.9777 -0.6316
 6437TIP3   OH219316   5.838   0.206   3.089 -0.4961 -0.7144 -0.3902
 6437TIP3    H119317   5.904   0.237   3.151 -0.9249 -1.5837  0.5515
 6437TIP3    H219318   5.758   0.252   3.113 -0.3826 -0.1166 -1.1313
 6438TIP3   OH219319   5.429   4.375   1.190 -0.7455  0.3951 -0.3802
 6438TIP3    H119320   5.350   4.409   1.232  0.8238  2.9271  0.7619
 6438TIP3    H219321   5.437   4.426   1.110  0.8140  1.7752  0.5830
 6439TIP3   OH219322   5.649   2.480   3.415  0.3559 -0.3011  0.1406
 6439TIP3    H119323   5.711   2.419   3.378  1.1773 -0.2263  1.3397
 6439TIP3    H219324   5.688   2.508   3.498 -0.2281  1.4420 -0.1118
 6440TIP3   OH219325   0.780   1.619   3.824 -0.1973 -0.3142 -0.7372
 6440TIP3    H119326   0.811   1.688   3.765 -0.7129  1.4252  0.9116
 6440TIP3    H219327   0.705   1.658   3.869 -1.1404 -2.3294 -0.4373
 6441TIP3   OH219328   4.902   5.418   2.094  0.0969  0.4468 -0.3446
 6441TIP3    H119329   4.873   5.460   2.175  1.1034 -0.2251  0.3859
 6441TIP3    H219330   4.911   5.326   2.116  1.3638  0.4073 -0.9419
 6442TIP3   OH219331   0.538   5.272   0.082 -0.3271 -0.3605 -0.1945
 6442TIP3    H119332   0.627   5.240   0.095  0.1562  0.9647 -0.0489
 6442TIP3    H219333   0.518   5.321   0.162 -0.3568  1.1651 -1.0877
 6443TIP3   OH219334   1.237   0.309   3.734  0.0664  0.3113  0.5358
 6443TIP3    H119335   1.175   0.382   3.736 -0.9391 -0.5243  2.1336
 6443TIP3    H219336   1.308   0.335   3.792  0.1013  0.3546  0.4732
 6444TIP3   OH219337   5.027   2.067   3.054 -0.1516 -0.0705 -0.0467
 6444TIP3    H119338   4.968   2.044   2.982 -0.1136 -0.5742  0.0783
 6444TIP3    H219339   5.016   2.162   3.065 -0.9559 -0.1596 -0.0103
 6445TIP3   OH219340   3.782   0.455   4.146 -0.3953  0.9990  0.2163
 6445TIP3    H119341   3.761   0.537   4.102 -0.7372  0.4501 -0.6595
 6445TIP3    H219342   3.762   0.387   4.082 -0.1575  0.2230  0.9453
 6446TIP3   OH219343   6.055   0.176   3.559  0.1918  0.7030 -0.5196
 6446TIP3    H119344   6.147   0.162   3.583  0.3294  0.5727 -1.1068
 6446TIP3    H219345   6.008   0.106   3.605  0.0319  2.3024  1.9092
 6447TIP3   OH219346   6.274   0.213   4.795  0.0103  0.0544  0.3120
 6447TIP3    H119347   6.286   0.149   4.866  0.0974 -0.8050 -0.4588
 6447TIP3    H219348   6.217   0.280   4.832 -1.3408 -1.2440  0.6794
 6448TIP3   OH219349   3.001   0.038   4.584  0.1126  0.2414 -0.4325
 6448TIP3    H119350   3.087   0.073   4.609 -0.2878  0.6693  0.3847
 6448TIP3    H219351   3.016  -0.005   4.500  1.2090 -0.0014 -0.1292
 6449TIP3   OH219352   2.439   0.867   3.165  0.4504  0.0232  0.4778
 6449TIP3    H119353   2.505   0.807   3.200  1.3044 -0.1829 -1.3893
 6449TIP3    H219354   2.457   0.871   3.072 -0.1573  2.5231  0.4121
 6450TIP3   OH219355   1.822   4.783   2.059  0.3419 -0.2245 -0.5804
 6450TIP3    H119356   1.840   4.711   2.119 -0.1090 -0.7569 -1.0654
 6450TIP3    H219357   1.726   4.790   2.058 -0.0151 -2.7434 -4.0176
 6451TIP3   OH219358   1.270   1.112   1.945  0.2554 -0.1395  0.4220
 6451TIP3    H119359   1.292   1.069   2.028  2.9880  1.2665  0.5398
 6451TIP3    H219360   1.282   1.205   1.961 -0.8055  0.3061 -1.1164
 6452TIP3   OH219361   6.003   3.547   4.968 -0.2694 -0.5212  0.1339
 6452TIP3    H119362   5.996   3.508   5.055 -2.7573 -0.8985 -0.1744
 6452TIP3    H219363   5.965   3.482   4.909 -0.7716  0.6957 -0.9340
 6453TIP3   OH219364   1.136   1.674   3.204 -0.3027  0.2407 -0.7302
 6453TIP3    H119365   1.202   1.620   3.247 -1.0699  0.4346  0.7568
 6453TIP3    H219366   1.078   1.611   3.161  0.1539  0.0138 -1.0237
 6454TIP3   OH219367   6.180   3.557   1.530 -0.0118 -0.2284  0.1164
 6454TIP3    H119368   6.151   3.578   1.619 -0.2560 -0.1471  0.0163
 6454TIP3    H219369   6.171   3.462   1.524 -0.9482 -0.1299 -0.1581
 6455TIP3   OH219370   5.613   2.934   0.178  0.7054  0.4243  0.0827
 6455TIP3    H119371   5.556   3.010   0.167  0.9174  0.3302 -2.2971
 6455TIP3    H219372   5.677   2.942   0.107  0.2663 -2.3332 -0.7495
 6456TIP3   OH219373   1.277   3.433   1.404 -0.0083  0.4159 -0.0517
 6456TIP3    H119374   1.294   3.423   1.498 -0.1879  1.6479  0.1333
 6456TIP3    H219375   1.264   3.344   1.372  1.3031 -0.1305  0.8494
 6457TIP3   OH219376   1.228   2.502   0.567  0.1571  0.1853  0.0503
 6457TIP3    H119377   1.160   2.546   0.515 -1.1331 -0.4258  1.1540
 6457TIP3    H219378   1.270   2.572   0.616 -1.3094  0.3464  1.1500
 6458TIP3   OH219379   6.181   5.448   3.175  0.0590 -0.0736  0.4319
 6458TIP3    H119380   6.231   5.525   3.200 -1.3187  1.2974 -0.8467
 6458TIP3    H219381   6.126   5.428   3.251  0.3394  0.2641  0.7214
 6459TIP3   OH219382   5.988   2.328   3.763  1.2507  0.1636  0.1182
 6459TIP3    H119383   5.900   2.331   3.800  1.0038 -1.3537 -0.2536
 6459TIP3    H219384   6.045   2.363   3.831  0.4977 -0.0006  0.8427
 6460TIP3   OH219385   5.593   2.893   3.311 -0.3318  0.5959  0.1041
 6460TIP3    H119386   5.656   2.838   3.357 -0.2340  2.2300  2.0257
 6460TIP3    H219387   5.593   2.976   3.359 -2.1008  1.5184 -1.3611
 6461TIP3   OH219388   5.819   2.807   4.795 -0.3532  0.5464  0.2083
 6461TIP3    H119389   5.768   2.883   4.766 -1.7718  0.0976  1.3998
 6461TIP3    H219390   5.770   2.772   4.870  0.3348 -1.4572 -0.2041
 6462TIP3   OH219391   4.917   5.188   1.141 -0.0530 -0.4142 -0.3650
 6462TIP3    H119392   4.862   5.136   1.199  0.5052 -0.9742 -0.3212
 6462TIP3    H219393   4.999   5.201   1.190 -0.6019  1.5701  0.1372
 6463TIP3   OH219394   0.131   3.609   3.805 -0.4777  0.4280  0.0515
 6463TIP3    H119395   0.083   3.527   3.787 -0.7394  0.0872  2.0594
 6463TIP3    H219396   0.166   3.635   3.720 -3.3711  0.1509 -1.3448
 6464TIP3   OH219397   5.386   5.007   2.134  0.3673 -0.4179 -0.1965
 6464TIP3    H119398   5.402   5.060   2.212 -1.9658 -1.4292  1.0612
 6464TIP3    H219399   5.469   4.962   2.118  0.7294 -0.6662  2.1058
 6465TIP3   OH219400   0.823   4.635   2.185 -0.3234  0.5157  0.6186
 6465TIP3    H119401   0.767   4.571   2.140  0.1722  0.9334 -0.6159
 6465TIP3    H219402   0.763   4.705   2.210 -0.7384 -0.0665  1.3124
 6466TIP3   OH219403   4.223   2.033   3.841  0.3500  0.1176  0.2964
 6466TIP3    H119404   4.305   2.010   3.798 -0.5026  0.6397 -1.7091
 6466TIP3    H219405   4.221   1.979   3.920  2.6478  0.1730  0.4364
 6467TIP3   OH219406   6.295   3.132   1.783 -0.8810  0.0190  0.0131
 6467TIP3    H119407   6.367   3.168   1.835 -1.0574 -0.1065  0.3518
 6467TIP3    H219408   6.316   3.155   1.693  0.8553 -2.0801 -0.2094
 6468TIP3   OH219409   4.783   4.124   1.327  0.4259 -0.6824  0.4268
 6468TIP3    H119410   4.853   4.134   1.262 -0.7578  0.6047 -0.6930
 6468TIP3    H219411   4.830   4.109   1.409  1.9799 -1.3284 -0.5232
 6469TIP3   OH219412   6.166   1.903   5.050 -0.6539  0.2500 -0.5400
 6469TIP3    H119413   6.199   1.862   5.130 -1.9647 -0.8845 -0.5355
 6469TIP3    H219414   6.231   1.883   4.983 -0.7832 -1.0250 -0.3086
 6470TIP3   OH219415   1.512   5.655   2.098  0.2669  0.2079 -0.3723
 6470TIP3    H119416   1.423   5.691   2.092 -0.1482 -0.3112  1.6613
 6470TIP3    H219417   1.517   5.590   2.028 -1.4920 -0.7698  0.3523
 6471TIP3   OH219418   4.706   5.434   1.277  0.2474  0.4801 -0.1052
 6471TIP3    H119419   4.668   5.396   1.356 -1.0470  0.4127 -0.7338
 6471TIP3    H219420   4.668   5.384   1.205  0.9847  0.8992 -0.8112
 6472TIP3   OH219421   4.844   0.693   0.507 -0.2324 -0.5543  0.3032
 6472TIP3    H119422   4.815   0.686   0.416  2.4781  0.5890 -0.7397
 6472TIP3    H219423   4.895   0.613   0.522 -0.5313 -0.6597  0.8015
 6473TIP3   OH219424   1.594   2.902   1.832 -0.7038 -0.0372 -0.1900
 6473TIP3    H119425   1.584   2.952   1.751 -0.0859 -0.6127 -0.6305
 6473TIP3    H219426   1.517   2.846   1.835 -2.2602  2.0009  1.1165
 6474TIP3   OH219427   0.234   5.166   0.507 -0.2847 -0.3167  0.1745
 6474TIP3    H119428   0.317   5.131   0.476 -0.9742 -1.1682 -0.7847
 6474TIP3    H219429   0.174   5.091   0.507 -2.0344  0.8833 -2.7872
 6475TIP3   OH219430   0.310   3.727   2.878  0.4534  0.3449  0.0586
 6475TIP3    H119431   0.306   3.631   2.882 -0.7599  0.3950  0.4679
 6475TIP3    H219432   0.369   3.745   2.805 -1.3802 -0.7549 -1.8197
 6476TIP3   OH219433   2.451   1.550   2.047  0.6240 -0.4334 -0.1717
 6476TIP3    H119434   2.537   1.541   2.007  0.9699  0.6592  0.2725
 6476TIP3    H219435   2.458   1.506   2.132  0.0457 -2.2988 -1.0443
 6477TIP3   OH219436   5.842   3.528   3.938  0.1472  0.6354 -0.2504
 6477TIP3    H119437   5.806   3.453   3.891 -0.5833 -0.3790  1.8250
 6477TIP3    H219438   5.937   3.517   3.931  0.0507 -0.6062  0.1597
 6478TIP3   OH219439   4.344   1.627   2.867  0.4818 -0.1681  0.2834
 6478TIP3    H119440   4.372   1.585   2.949  2.3369  0.6569  0.1132
 6478TIP3    H219441   4.251   1.645   2.881  0.5535 -0.8137  1.8708
 6479TIP3   OH219442   6.240   0.881   1.110  0.3240  0.2681  0.7627
 6479TIP3    H119443   6.284   0.909   1.029  1.9477  2.2100  2.2066
 6479TIP3    H219444   6.177   0.950   1.128  0.0575 -0.0955  1.2404
 6480TIP3   OH219445   4.053   5.792   0.927  0.3495 -0.7021 -0.1392
 6480TIP3    H119446   3.974   5.821   0.973 -0.1716 -0.4099 -1.1847
 6480TIP3    H219447   4.092   5.874   0.896  1.8506 -0.7160  1.5678
 6481TIP3   OH219448   1.398   0.194   4.215 -0.3483  0.2096  0.0375
 6481TIP3    H119449   1.437   0.251   4.150 -0.5911  1.5796  1.0547
 6481TIP3    H219450   1.310   0.176   4.182 -0.5647  1.1148  0.1145
 6482TIP3   OH219451   5.482   5.698   0.019  0.0634 -0.6363  0.7778
 6482TIP3    H119452   5.516   5.635   0.082 -0.6718  0.1735  2.0330
 6482TIP3    H219453   5.414   5.650  -0.028 -0.5369 -0.7813  1.7652
 6483TIP3   OH219454   0.681   4.557   3.470 -0.0654 -0.3887 -0.4942
 6483TIP3    H119455   0.766   4.526   3.503 -0.5489 -0.4185  0.7674
 6483TIP3    H219456   0.619   4.491   3.500 -0.8477  0.8054  0.5875
 6484TIP3   OH219457   4.292   1.668   0.552 -0.1658 -0.7183 -0.2979
 6484TIP3    H119458   4.341   1.588   0.573 -1.5415 -1.6995 -0.6740
 6484TIP3    H219459   4.221   1.670   0.617 -0.1702  0.1897 -0.3191
 6485TIP3   OH219460   4.175   1.601   1.209 -0.2335 -0.1402  0.5754
 6485TIP3    H119461   4.230   1.550   1.268 -1.4919 -1.3568  0.7214
 6485TIP3    H219462   4.092   1.612   1.255 -0.5823  0.5574 -0.1803
 6486TIP3   OH219463   3.949   5.880   3.487  0.2869  0.3756  0.2792
 6486TIP3    H119464   3.978   5.828   3.562 -1.0055  1.1867  1.3885
 6486TIP3    H219465   4.030   5.916   3.450  1.3733 -3.1499 -1.1913
 6487TIP3   OH219466   2.307   2.202   4.183 -0.0528 -0.4162 -0.2471
 6487TIP3    H119467   2.325   2.176   4.093  1.4378 -1.0469  0.2040
 6487TIP3    H219468   2.384   2.173   4.232 -1.1497 -0.7644  1.3527
 6488TIP3   OH219469   5.802   0.994   1.785 -0.1975 -0.1791 -0.7584
 6488TIP3    H119470   5.786   1.059   1.717 -0.2819  0.5669 -0.0462
 6488TIP3    H219471   5.870   1.033   1.840 -0.3576 -0.6306 -0.2346
 6489TIP3   OH219472   3.739   0.585   0.664  0.2436 -0.1551  0.2471
 6489TIP3    H119473   3.776   0.572   0.577  1.5721 -1.6157  0.9864
 6489TIP3    H219474   3.797   0.648   0.706 -0.3620  0.5023  0.1146
 6490TIP3   OH219475   2.481   1.490   3.088  0.1070 -0.6702  0.1688
 6490TIP3    H119476   2.529   1.454   3.163  0.7594  0.0133  0.0851
 6490TIP3    H219477   2.547   1.498   3.019 -0.2058 -0.0586 -0.0622
 6491TIP3   OH219478   5.291   3.019   4.476  0.2487 -0.2844  0.3468
 6491TIP3    H119479   5.369   3.069   4.502  0.8349 -1.8339  1.7074
 6491TIP3    H219480   5.240   3.010   4.557 -1.7638  1.2842 -0.6289
 6492TIP3   OH219481   6.233   4.468   3.866  0.0133 -0.1896 -0.1609
 6492TIP3    H119482   6.145   4.485   3.834 -0.0867 -0.2113  0.0933
 6492TIP3    H219483   6.277   4.423   3.794 -0.2193 -0.2811 -0.2469
 6493TIP3   OH219484   1.061   3.326   2.478  0.0686  0.3943  0.1305
 6493TIP3    H119485   1.085   3.284   2.560  1.3213 -2.3598 -1.5152
 6493TIP3    H219486   1.006   3.262   2.433 -1.2864  2.1708 -0.9026
 6494TIP3   OH219487   5.203   2.709   5.091  0.3636  0.0284 -0.5588
 6494TIP3    H119488   5.144   2.644   5.053  1.9227 -1.7839 -0.0389
 6494TIP3    H219489   5.220   2.771   5.019 -0.1626 -0.8709 -1.4788
 6495TIP3   OH219490   5.520   3.684   4.613 -0.5944  0.1446 -0.1085
 6495TIP3    H119491   5.523   3.641   4.698 -0.3645 -1.5538 -0.9284
 6495TIP3    H219492   5.434   3.726   4.610  0.4061  2.5813  1.9903
 6496TIP3   OH219493   0.710   0.865   1.409 -0.2039  0.8389  0.6465
 6496TIP3    H119494   0.691   0.937   1.349  2.6282  0.7093 -0.5328
 6496TIP3    H219495   0.649   0.795   1.382  0.5373  1.0094 -1.7227
 6497TIP3   OH219496   6.182   2.627   0.956  0.1940  0.8761  0.5069
 6497TIP3    H119497   6.256   2.665   1.003  0.3285  0.6085  0.5165
 6497TIP3    H219498   6.137   2.701   0.917  0.4685  1.0413  0.5029
 6498TIP3   OH219499   0.500   5.897   0.340  0.8223  0.8744 -0.4073
 6498TIP3    H119500   0.418   5.849   0.353  1.7620 -1.1218 -1.5160
 6498TIP3    H219501   0.483   5.950   0.261  0.5400  0.6361 -0.5099
 6499TIP3   OH219502   6.173   3.168   4.155  0.1364  0.2373 -0.1690
 6499TIP3    H119503   6.235   3.188   4.226 -0.2651 -0.4664  0.3929
 6499TIP3    H219504   6.221   3.107   4.099 -0.2230 -0.7226  0.5519
 6500TIP3   OH219505   5.107   3.528   0.447 -0.3041 -0.5513 -0.1725
 6500TIP3    H119506   5.152   3.550   0.528  0.1190 -0.4761 -0.4257
 6500TIP3    H219507   5.108   3.609   0.396  0.7852 -0.9953 -0.8862
 6501TIP3   OH219508   2.881   5.441   3.143  0.8164  0.4283 -0.1031
 6501TIP3    H119509   2.833   5.390   3.078 -0.6826  0.2154  1.1124
 6501TIP3    H219510   2.888   5.528   3.104  0.4920  0.1550 -0.8026
 6502TIP3   OH219511   1.135   5.784   3.596  0.6759  0.0673  0.1271
 6502TIP3    H119512   1.164   5.695   3.577  2.5069  0.6020  0.2085
 6502TIP3    H219513   1.133   5.828   3.511  1.2767  0.3438  0.2471
 6503TIP3   OH219514   2.042   2.479   4.623 -0.1189  0.2938 -0.3582
 6503TIP3    H119515   2.125   2.449   4.587  0.7314 -1.1854  2.5530
 6503TIP3    H219516   2.031   2.567   4.588  2.1657  0.1539 -1.6124
 6504TIP3   OH219517   2.598   1.624   0.887 -0.3553  0.4717 -0.3491
 6504TIP3    H119518   2.528   1.565   0.918  0.5040 -0.0965  0.5739
 6504TIP3    H219519   2.677   1.571   0.890  0.2544  1.3433 -0.6302
 6505TIP3   OH219520   4.204   4.403   4.787  0.1440 -0.3057  0.5832
 6505TIP3    H119521   4.202   4.349   4.708 -2.0088 -0.3715  0.6378
 6505TIP3    H219522   4.259   4.354   4.848  1.0935 -0.6949 -0.5445
 6506TIP3   OH219523   5.629   1.348   3.913  0.2264 -0.0992 -0.1233
 6506TIP3    H119524   5.700   1.290   3.940 -0.4051 -1.3598 -1.0496
 6506TIP3    H219525   5.673   1.428   3.883  1.2567 -0.8071 -0.5408
 6507TIP3   OH219526   5.902   2.021   3.081 -0.2249  0.0732 -0.2535
 6507TIP3    H119527   5.849   2.097   3.107  0.0721 -0.1408  1.0462
 6507TIP3    H219528   5.958   2.004   3.157  0.8438 -0.4694 -1.1351
 6508TIP3   OH219529   1.885   5.451   3.234 -0.1445 -0.1803  0.3618
 6508TIP3    H119530   1.834   5.465   3.154  0.7185  0.5979 -0.0596
 6508TIP3    H219531   1.879   5.534   3.281  0.4960 -0.1840  0.4493
 6509TIP3   OH219532   1.677   2.379   3.053  0.1821  0.7091 -0.3640
 6509TIP3    H119533   1.596   2.367   3.103 -0.4321  1.2676 -1.1986
 6509TIP3    H219534   1.704   2.468   3.072  1.6644 -0.0526  1.3974
 6510TIP3   OH219535   4.021   1.503   1.848 -0.4638  0.0259 -0.4565
 6510TIP3    H119536   4.044   1.588   1.885  0.2981 -0.5189  0.3732
 6510TIP3    H219537   3.930   1.489   1.873 -0.1485 -0.0491  0.6982
 6511TIP3   OH219538   5.751   5.052   1.020 -0.3314  0.1304 -0.0319
 6511TIP3    H119539   5.706   4.975   1.055 -0.7975  0.2334 -0.3929
 6511TIP3    H219540   5.778   5.026   0.932  0.9825 -0.1831  0.4314
 6512TIP3   OH219541   0.950  -0.029   2.194 -0.3160  0.1208 -0.1967
 6512TIP3    H119542   0.915   0.038   2.253  2.6428 -0.8128  2.9490
 6512TIP3    H219543   1.023   0.014   2.150 -1.2505  0.2070 -1.7280
 6513TIP3   OH219544   6.052   1.665   1.954  0.1112  0.2068  0.4107
 6513TIP3    H119545   6.043   1.586   2.007 -3.7634 -0.2625 -0.6565
 6513TIP3    H219546   6.117   1.643   1.888 -0.2035 -1.7372  0.7061
 6514TIP3   OH219547   0.964   2.364   4.180  0.5055 -0.1879  0.1847
 6514TIP3    H119548   1.036   2.427   4.171  0.3164 -0.0008 -0.0382
 6514TIP3    H219549   1.001   2.292   4.231  1.3223 -0.8546 -1.3059
 6515TIP3   OH219550   0.662   2.995   5.059 -0.0418 -0.6180  0.1436
 6515TIP3    H119551   0.756   2.978   5.068  0.8682  3.0478 -0.5831
 6515TIP3    H219552   0.648   3.000   4.964 -0.9293 -0.9250  0.2545
 6516TIP3   OH219553   6.225   2.598   2.981  0.0163 -0.9029 -0.3722
 6516TIP3    H119554   6.183   2.661   3.040  2.1576 -1.5893  2.0454
 6516TIP3    H219555   6.240   2.648   2.901 -2.7168  0.1742 -0.3352
 6517TIP3   OH219556   5.611   2.690   0.023 -0.0191  0.3021 -0.0817
 6517TIP3    H119557   5.649   2.757   0.080 -0.0293  0.0526  0.2238
 6517TIP3    H219558   5.663   2.693  -0.057  0.6207 -0.0072  0.3183
 6518TIP3   OH219559   4.379   3.492   1.147 -0.7220 -0.8125 -0.0799
 6518TIP3    H119560   4.303   3.548   1.130  0.1191  1.1982  2.2147
 6518TIP3    H219561   4.452   3.538   1.107 -0.3272 -1.3743 -0.0124
 6519TIP3   OH219562   3.553   4.371   0.368 -0.2252  0.4646  0.3614
 6519TIP3    H119563   3.523   4.433   0.302 -0.5219  0.7929  0.7974
 6519TIP3    H219564   3.514   4.402   0.450  1.5001  1.0471  1.0030
 6520TIP3   OH219565   0.481   0.830   2.303  0.1661  0.4976 -0.5654
 6520TIP3    H119566   0.413   0.881   2.259  1.1459  1.2878 -1.1855
 6520TIP3    H219567   0.515   0.888   2.371  0.0156 -0.0147 -0.0393
 6521TIP3   OH219568   0.173   1.282   4.762 -0.3769 -0.0576  0.2517
 6521TIP3    H119569   0.136   1.201   4.728 -1.6107  0.3685  0.5443
 6521TIP3    H219570   0.219   1.256   4.842 -0.8408 -0.4562  0.3904
 6522TIP3   OH219571   4.900   1.740   1.004 -0.3157 -0.3114  0.4907
 6522TIP3    H119572   4.931   1.793   1.077 -1.8430  2.0541 -0.4773
 6522TIP3    H219573   4.841   1.676   1.043 -0.2841  0.2233  1.4292
 6523TIP3   OH219574   5.019   0.706   4.924 -0.4347  0.8205 -0.0413
 6523TIP3    H119575   4.956   0.741   4.861  0.8673 -0.6070 -2.2470
 6523TIP3    H219576   5.065   0.783   4.956 -2.7045  1.8193  1.0628
 6524TIP3   OH219577   4.751   4.842   3.352 -0.4412 -0.9812 -0.1929
 6524TIP3    H119578   4.670   4.891   3.337 -0.6499 -1.2180  0.1428
 6524TIP3    H219579   4.810   4.905   3.391 -1.0922 -1.2739  1.3167
 6525TIP3   OH219580   2.904   3.345   0.222 -0.6374 -0.0407 -0.0948
 6525TIP3    H119581   2.944   3.287   0.286  0.0099 -1.4107 -1.6615
 6525TIP3    H219582   2.962   3.421   0.218  0.2056 -0.6802 -0.2017
 6526TIP3   OH219583   5.865   2.293   3.403  0.3614 -0.0177  0.0632
 6526TIP3    H119584   5.916   2.350   3.460 -0.3400  2.0774 -1.2941
 6526TIP3    H219585   5.929   2.257   3.342  0.5308  1.1533 -0.4878
 6527TIP3   OH219586   3.177   2.171   0.737  0.5837  0.2883 -0.3368
 6527TIP3    H119587   3.208   2.218   0.814  0.5921  0.2864 -0.3390
 6527TIP3    H219588   3.246   2.183   0.672  0.4857  0.4570 -0.4103
 6528TIP3   OH219589   3.112   0.569   3.344  0.5553  0.8574 -0.2835
 6528TIP3    H119590   3.041   0.617   3.386  0.9549  1.9355 -0.8269
 6528TIP3    H219591   3.068   0.501   3.293 -0.1808  2.3659 -1.7218
 6529TIP3   OH219592   0.687   4.189   0.717 -0.4835 -0.0960 -0.3204
 6529TIP3    H119593   0.601   4.176   0.677 -1.4312  0.6062  1.3662
 6529TIP3    H219594   0.669   4.194   0.811  1.6438 -1.7614  0.2586
 6530TIP3   OH219595   5.047   1.022   4.793  0.2752  0.5155 -0.0230
 6530TIP3    H119596   5.074   1.010   4.884  2.2744  0.4433 -0.5614
 6530TIP3    H219597   5.062   1.115   4.775  0.4312  0.4165 -0.4282
 6531TIP3   OH219598   3.372   0.602   2.903  0.0204  0.5120  0.2046
 6531TIP3    H119599   3.416   0.680   2.870 -0.3018  0.9955  0.8972
 6531TIP3    H219600   3.415   0.584   2.987  1.5704 -1.3260 -0.8817
 6532TIP3   OH219601   1.646   0.201   1.198 -0.2861 -0.0262 -0.2721
 6532TIP3    H119602   1.650   0.111   1.166  0.2840  0.0208 -0.3476
 6532TIP3    H219603   1.571   0.239   1.153 -1.5407 -0.9214  0.9779
 6533TIP3   OH219604   1.668   2.001   2.007  0.3957 -0.2572  0.4151
 6533TIP3    H119605   1.597   1.957   1.960 -0.3165 -0.4599  1.6352
 6533TIP3    H219606   1.670   2.089   1.970 -0.3651 -0.3091  0.2375
 6534TIP3   OH219607   3.941   1.977   1.312  0.0493 -0.3326  0.2449
 6534TIP3    H119608   3.897   2.043   1.259  1.2321 -0.4006 -0.8847
 6534TIP3    H219609   3.964   2.021   1.393 -1.8918 -0.2461  0.7819
 6535TIP3   OH219610   2.989   3.125   0.351  0.3172  0.2814  0.0139
 6535TIP3    H119611   3.061   3.098   0.293 -0.0291  0.0917 -0.3302
 6535TIP3    H219612   3.031   3.140   0.435  0.3491 -2.7652  0.6590
 6536TIP3   OH219613   2.925   0.189   1.976  0.5634 -0.8385  0.0741
 6536TIP3    H119614   2.942   0.130   1.903 -0.0268 -0.1473 -0.6500
 6536TIP3    H219615   2.965   0.272   1.950 -0.8413 -0.1854 -0.1233
 6537TIP3   OH219616   0.180   1.981   3.310  0.2269 -0.4674 -0.0043
 6537TIP3    H119617   0.171   2.050   3.376  0.6190 -1.7419  1.4418
 6537TIP3    H219618   0.274   1.975   3.294  0.2685 -1.1339  0.4314
 6538TIP3   OH219619   3.767   0.649   1.790 -0.4344  0.3991 -0.7419
 6538TIP3    H119620   3.773   0.597   1.710 -0.7517  0.0993 -0.5727
 6538TIP3    H219621   3.674   0.648   1.813 -0.3175  0.3030 -0.2515
 6539TIP3   OH219622   5.123   2.395   0.039 -0.3697  0.0672 -0.0840
 6539TIP3    H119623   5.139   2.482   0.000 -1.5800  0.8265  1.0264
 6539TIP3    H219624   5.031   2.398   0.065 -0.7361 -1.9630 -0.9905
 6540TIP3   OH219625   2.231   4.589   4.810 -0.1805  0.0143 -0.3019
 6540TIP3    H119626   2.175   4.596   4.887 -0.0740 -0.2065 -0.2017
 6540TIP3    H219627   2.319   4.579   4.845  0.1349  1.9210 -0.4648
 6541TIP3   OH219628   2.290   5.686   5.041 -0.1902 -0.3717  0.0891
 6541TIP3    H119629   2.369   5.632   5.052 -1.2179 -1.7006  1.3348
 6541TIP3    H219630   2.246   5.681   5.125 -2.6150 -1.3155 -1.1464
 6542TIP3   OH219631   3.713   1.723   2.654  0.1533  0.2540  0.4012
 6542TIP3    H119632   3.725   1.750   2.563 -1.0413  1.7577  0.6430
 6542TIP3    H219633   3.618   1.710   2.662  0.0956  1.3575  1.7241
 6543TIP3   OH219634   0.531   5.548   3.507 -0.3197  0.1162 -0.6943
 6543TIP3    H119635   0.451   5.507   3.541 -0.3293  0.8486  0.2131
 6543TIP3    H219636   0.549   5.502   3.425 -1.4487 -0.3270 -0.7090
 6544TIP3   OH219637   1.448   2.465   3.170 -0.3040 -0.3393  0.7056
 6544TIP3    H119638   1.377   2.423   3.218 -0.0293 -2.2859 -0.4736
 6544TIP3    H219639   1.405   2.506   3.095 -0.5036  1.1067  1.5711
 6545TIP3   OH219640   4.116   3.604   1.083  0.0041  0.4003 -0.0709
 6545TIP3    H119641   4.030   3.621   1.121 -0.0394  0.6339 -0.2691
 6545TIP3    H219642   4.116   3.655   1.002 -0.6421 -1.5443 -1.3665
 6546TIP3   OH219643   0.599   3.612   2.188  0.1761 -0.4287 -0.1204
 6546TIP3    H119644   0.643   3.539   2.145  0.4213 -0.0594 -0.5077
 6546TIP3    H219645   0.516   3.621   2.143  0.3992 -0.0921 -0.4664
 6547TIP3   OH219646   4.238   5.275   3.570 -0.2616  0.5055 -0.0935
 6547TIP3    H119647   4.185   5.202   3.537 -0.3881  0.8276 -0.6179
 6547TIP3    H219648   4.246   5.259   3.664  1.1272 -1.0961 -0.4488
 6548TIP3   OH219649   1.611   1.738   3.003  0.3633 -0.4846 -0.1395
 6548TIP3    H119650   1.539   1.773   2.950  0.4644 -1.1411 -0.7238
 6548TIP3    H219651   1.641   1.661   2.955  1.6771 -0.0389 -0.0650
 6549TIP3   OH219652   0.254   5.674   3.158 -0.2289 -0.2418 -0.5016
 6549TIP3    H119653   0.306   5.738   3.207  1.6040 -1.2263 -1.0645
 6549TIP3    H219654   0.183   5.650   3.217 -0.8850  2.1570 -0.2101
 6550TIP3   OH219655   1.247   0.404   2.489  0.0539 -0.4281  0.2619
 6550TIP3    H119656   1.238   0.382   2.582 -2.5940 -0.6133  0.0315
 6550TIP3    H219657   1.168   0.452   2.467  1.1771  0.7026 -1.6588
 6551TIP3   OH219658   0.414   4.806   3.294  0.2807 -0.0303 -0.7578
 6551TIP3    H119659   0.473   4.879   3.274  1.3284 -0.4409  0.6505
 6551TIP3    H219660   0.465   4.750   3.352 -1.9895  0.3526  1.7847
 6552TIP3   OH219661   3.236   3.642   4.090 -0.4116 -0.0862  0.5964
 6552TIP3    H119662   3.266   3.628   4.179 -0.0798  1.0383  0.6809
 6552TIP3    H219663   3.310   3.615   4.035 -0.5476 -0.6022  0.6638
 6553TIP3   OH219664   3.337   0.916   0.253 -0.5080  0.2251 -0.8679
 6553TIP3    H119665   3.329   1.010   0.268  1.3230  0.0331  2.2446
 6553TIP3    H219666   3.261   0.878   0.296  0.0233  0.1923  0.0741
 6554TIP3   OH219667   2.114   2.369   3.269 -0.0561 -0.5845  0.3935
 6554TIP3    H119668   2.118   2.274   3.277  2.0018 -0.5487  0.2246
 6554TIP3    H219669   2.086   2.385   3.179  0.7217 -1.0527  0.0597
 6555TIP3   OH219670   2.964   1.822   2.996  0.3522 -0.2724  0.1611
 6555TIP3    H119671   2.954   1.817   3.091 -1.3462  0.6964  0.0742
 6555TIP3    H219672   2.890   1.876   2.967  0.5393 -0.9765 -1.7650
 6556TIP3   OH219673   6.262   1.893   1.580  0.0027 -0.2475  0.0932
 6556TIP3    H119674   6.301   1.902   1.493  0.7591 -0.8615  0.3552
 6556TIP3    H219675   6.293   1.970   1.628 -0.1032 -0.1043 -0.0690
 6557TIP3   OH219676   1.287   2.555   0.088 -0.2094 -0.0810 -0.2658
 6557TIP3    H119677   1.286   2.539  -0.007 -1.7316 -1.7857 -0.0130
 6557TIP3    H219678   1.311   2.471   0.126  0.6669  0.6575  0.8811
 6558TIP3   OH219679   1.728   2.514   1.825 -0.2763  0.0807 -0.2577
 6558TIP3    H119680   1.735   2.584   1.890  0.0569 -1.0890  1.0175
 6558TIP3    H219681   1.664   2.546   1.762 -0.7205  1.2039  0.7275
 6559TIP3   OH219682   6.183   5.555   1.278 -0.0862 -0.3007 -0.0885
 6559TIP3    H119683   6.138   5.624   1.229  0.2939  0.0805  0.0929
 6559TIP3    H219684   6.135   5.475   1.256 -0.0255 -0.1160 -0.9569
 6560TIP3   OH219685   4.814   2.587   4.708 -0.4430 -0.4118  0.1121
 6560TIP3    H119686   4.823   2.551   4.619 -4.3176  1.0066 -1.0564
 6560TIP3    H219687   4.856   2.672   4.703  1.2330 -1.1742  0.3688
 6561TIP3   OH219688   4.385   4.467   4.408  0.2013  0.2595  0.4007
 6561TIP3    H119689   4.476   4.440   4.423  0.6464  0.4798 -1.5759
 6561TIP3    H219690   4.342   4.386   4.380 -0.6719 -0.2141  2.8963
 6562TIP3   OH219691   2.290   3.391   0.311  0.2309  0.5994  0.3426
 6562TIP3    H119692   2.294   3.351   0.397 -0.3200 -1.5540 -0.5607
 6562TIP3    H219693   2.208   3.440   0.310  0.9290  1.8494  1.4790
 6563TIP3   OH219694   6.224   3.183   2.142  0.0978  0.3062 -0.3598
 6563TIP3    H119695   6.309   3.199   2.102  2.0372 -0.6637  3.0254
 6563TIP3    H219696   6.170   3.149   2.070  3.3279 -1.5403 -2.1490
 6564TIP3   OH219697   0.046   2.690   4.765 -0.5386 -0.0877 -0.3441
 6564TIP3    H119698   0.067   2.602   4.797  1.0159  0.2830 -0.2438
 6564TIP3    H219699  -0.040   2.709   4.801 -0.6054 -1.3093  0.1884
 6565TIP3   OH219700   0.568   5.465   0.508 -0.2025 -0.6987 -0.2421
 6565TIP3    H119701   0.533   5.486   0.421  0.4157  1.0902 -0.1017
 6565TIP3    H219702   0.655   5.428   0.490  1.2678  2.5256 -0.3752
 6566TIP3   OH219703   0.813   4.497   3.052 -0.1528 -0.7688 -0.2363
 6566TIP3    H119704   0.856   4.482   3.136 -1.2524 -0.3800  0.4276
 6566TIP3    H219705   0.881   4.482   2.987  0.9135 -0.3937  0.7496
 6567TIP3   OH219706   2.175   2.801   4.803  0.1927  0.1662  0.5154
 6567TIP3    H119707   2.153   2.716   4.841 -0.6450  0.0206 -0.2776
 6567TIP3    H219708   2.104   2.859   4.831  0.2431  0.3650  0.2364
 6568TIP3   OH219709   2.257   4.342   5.164 -0.0012  0.2463  0.1229
 6568TIP3    H119710   2.259   4.255   5.125  0.3572  0.5792 -0.6216
 6568TIP3    H219711   2.164   4.365   5.165 -0.0115  0.2703 -0.6419
 6569TIP3   OH219712   3.682   1.848   4.241 -0.4646 -0.6011  0.1610
 6569TIP3    H119713   3.706   1.791   4.168  0.8434 -1.1791  1.0063
 6569TIP3    H219714   3.665   1.788   4.314  0.4496  0.0418  0.9291
 6570TIP3   OH219715   0.211   1.471   1.088  0.3810 -0.0615 -0.5621
 6570TIP3    H119716   0.236   1.538   1.024 -1.3159  0.9262 -0.2347
 6570TIP3    H219717   0.290   1.418   1.098  1.4034  1.1554 -1.7301
 6571TIP3   OH219718   3.879   4.939   4.836 -0.0245 -0.6025 -0.2426
 6571TIP3    H119719   3.926   4.902   4.762  1.7186 -0.0808  0.5292
 6571TIP3    H219720   3.947   4.985   4.886 -1.1427 -0.8907  1.6372
 6572TIP3   OH219721   4.646   3.142   1.917 -0.4901 -0.0175 -0.1590
 6572TIP3    H119722   4.664   3.117   1.827 -1.5741 -0.4972 -0.2628
 6572TIP3    H219723   4.697   3.222   1.931  1.7834 -1.3781 -0.3320
 6573TIP3   OH219724   1.502   3.623   1.474 -0.0651 -0.2356 -0.3275
 6573TIP3    H119725   1.412   3.590   1.465 -0.0887  0.1252 -1.7449
 6573TIP3    H219726   1.529   3.643   1.384  1.4218 -0.2849  0.0749
 6574TIP3   OH219727   2.383   1.727   2.350 -0.1342  0.5465 -0.0240
 6574TIP3    H119728   2.294   1.706   2.322 -0.1009  0.1669  0.1491
 6574TIP3    H219729   2.431   1.645   2.343 -0.0879  0.4652  0.9924
 6575TIP3   OH219730   3.125   0.207   3.385  0.0713  0.2136 -0.3224
 6575TIP3    H119731   3.057   0.275   3.379 -1.1872 -1.1100 -2.3971
 6575TIP3    H219732   3.191   0.235   3.322  0.9530  0.9056  0.8672
 6576TIP3   OH219733   6.072   0.543   3.308  0.3072 -0.3845  0.4286
 6576TIP3    H119734   6.088   0.454   3.276 -1.2168 -0.4971 -0.0842
 6576TIP3    H219735   6.151   0.591   3.285  0.5432 -1.2453 -0.6376
 6577TIP3   OH219736   1.244   0.643   0.799 -0.5549 -0.0357  0.1499
 6577TIP3    H119737   1.209   0.559   0.829 -1.5990  0.4684  0.3855
 6577TIP3    H219738   1.302   0.671   0.870 -0.2866 -0.4984  0.1193
 6578TIP3   OH219739   3.588   2.634   1.999  0.0418  0.4420  0.3364
 6578TIP3    H119740   3.523   2.568   1.976 -1.0673  0.9578  1.8123
 6578TIP3    H219741   3.583   2.699   1.929  1.8387 -1.4049 -1.6744
 6579TIP3   OH219742   4.343   4.276   3.714 -0.1458  0.1459 -0.3070
 6579TIP3    H119743   4.345   4.246   3.623 -0.8907  1.5350 -0.8137
 6579TIP3    H219744   4.373   4.367   3.710  0.0635  0.1448  0.8764
 6580TIP3   OH219745   0.411   5.527   2.180 -0.5902  0.0387 -0.8573
 6580TIP3    H119746   0.403   5.491   2.091 -0.4072 -3.1773  0.3036
 6580TIP3    H219747   0.321   5.534   2.211 -0.7353  2.2715 -1.6067
 6581TIP3   OH219748   3.884   2.866   0.325 -0.1444 -0.1262  0.4616
 6581TIP3    H119749   3.966   2.915   0.329 -0.2820  0.1539 -0.0459
 6581TIP3    H219750   3.908   2.781   0.289 -0.2079  0.2777 -0.5759
 6582TIP3   OH219751   0.155   2.472   2.768  0.3040  0.0081 -0.0561
 6582TIP3    H119752   0.242   2.507   2.784  0.4808 -0.3028 -0.3098
 6582TIP3    H219753   0.104   2.547   2.738  0.4503  0.2183  0.2230
 6583TIP3   OH219754   3.060   4.459   3.088 -0.4822 -0.2491 -0.0764
 6583TIP3    H119755   3.015   4.375   3.098 -2.2311  0.6846  0.2622
 6583TIP3    H219756   3.003   4.523   3.131  1.3403  0.9703  0.6453
 6584TIP3   OH219757   4.789   3.090   5.033 -0.4685 -0.1086 -0.7154
 6584TIP3    H119758   4.854   3.104   5.101 -1.3564 -1.4625  0.4864
 6584TIP3    H219759   4.720   3.154   5.051  0.4127  1.2424 -1.9147
 6585TIP3   OH219760   1.689   5.722   2.427 -0.1665  0.0924 -0.0877
 6585TIP3    H119761   1.687   5.632   2.395 -0.3325 -0.7893  2.2041
 6585TIP3    H219762   1.598   5.752   2.421 -0.5357 -0.7053  1.1699
 6586TIP3   OH219763   5.406   2.035   3.812 -0.2262 -0.3131  0.0770
 6586TIP3    H119764   5.371   1.981   3.741  0.0439 -2.3344  1.3955
 6586TIP3    H219765   5.480   1.985   3.846  0.4131  1.2006  0.9714
 6587TIP3   OH219766   2.186   3.076   1.687 -0.7590 -0.2522  0.1943
 6587TIP3    H119767   2.271   3.034   1.675 -0.7344 -0.4496  1.0016
 6587TIP3    H219768   2.134   3.011   1.735 -0.7723  0.5716  1.3204
 6588TIP3   OH219769   0.732   2.900   1.025 -0.2182 -0.2825 -0.1981
 6588TIP3    H119770   0.650   2.851   1.036  0.7377 -1.8393  0.3887
 6588TIP3    H219771   0.714   2.962   0.955 -1.3820 -1.8018 -1.2986
 6589TIP3   OH219772   2.030   3.518   0.273  0.0308 -0.0777 -0.0903
 6589TIP3    H119773   1.937   3.496   0.262  0.2249 -0.0683 -2.0955
 6589TIP3    H219774   2.033   3.613   0.267  0.3938 -0.1695 -2.7827
 6590TIP3   OH219775   5.657   0.082   1.936 -0.1102  0.5098  0.2411
 6590TIP3    H119776   5.734   0.027   1.923 -0.9271 -0.5150 -0.4874
 6590TIP3    H219777   5.680   0.166   1.895  0.9835  0.5680  0.9526
 6591TIP3   OH219778   4.609   1.407   3.249 -0.4780  0.0085 -0.0190
 6591TIP3    H119779   4.691   1.366   3.219  0.7307  2.6220 -0.5459
 6591TIP3    H219780   4.608   1.392   3.344  1.8078  1.7653  0.3656
 6592TIP3   OH219781   0.020   1.165   0.536 -0.0184 -0.2435 -0.0307
 6592TIP3    H119782   0.022   1.069   0.535 -2.8269 -0.3861 -0.5250
 6592TIP3    H219783   0.097   1.191   0.487 -0.0655 -2.3120 -1.3448
 6593TIP3   OH219784   2.199   5.354   2.410  0.6946 -0.0602 -0.1122
 6593TIP3    H119785   2.286   5.388   2.389  0.7714 -0.1335  0.0940
 6593TIP3    H219786   2.151   5.431   2.442  0.2858  0.2642 -1.4291
 6594TIP3   OH219787   3.396   2.112   2.007 -0.0354 -0.1632 -0.3928
 6594TIP3    H119788   3.306   2.130   1.981  0.4018  1.2591 -1.0355
 6594TIP3    H219789   3.401   2.139   2.098 -0.5221 -1.3017 -0.0078
 6595TIP3   OH219790   3.987   0.795   0.309  0.5409  0.3804 -0.7629
 6595TIP3    H119791   4.067   0.808   0.359 -0.2619  0.3446  0.5868
 6595TIP3    H219792   3.947   0.716   0.346 -0.6459  0.9979 -0.6496
 6596TIP3   OH219793   3.703   3.370   0.784 -0.0869  0.2310 -0.4068
 6596TIP3    H119794   3.785   3.417   0.801  0.1605  0.0283 -1.0230
 6596TIP3    H219795   3.725   3.278   0.797  0.2516  0.0133 -2.2700
 6597TIP3   OH219796   5.477   2.498   4.169  0.5692  0.1087  0.0867
 6597TIP3    H119797   5.401   2.440   4.163 -0.9976  2.0314  0.4662
 6597TIP3    H219798   5.492   2.527   4.079  0.2998  0.3845  0.1281
 6598TIP3   OH219799   3.699   4.090   4.263  0.2936 -0.2434 -0.1796
 6598TIP3    H119800   3.711   4.183   4.244  0.3233 -0.4521 -1.2757
 6598TIP3    H219801   3.708   4.083   4.358 -0.5990  1.0064  0.0218
 6599TIP3   OH219802   0.536   4.402   4.900 -0.6474 -0.1993 -0.3509
 6599TIP3    H119803   0.549   4.483   4.851 -0.6998 -0.2833 -0.5062
 6599TIP3    H219804   0.441   4.392   4.906 -0.6681  0.8241  1.4685
 6600TIP3   OH219805   5.699   5.691   5.030 -0.1418 -0.1113  0.0463
 6600TIP3    H119806   5.724   5.753   5.097  0.5003 -1.0549  0.7077
 6600TIP3    H219807   5.759   5.708   4.957  0.4226 -0.3351  0.4521
 6601TIP3   OH219808   0.344   0.612   2.675 -0.0494  0.1186  0.1802
 6601TIP3    H119809   0.389   0.596   2.592 -0.5852  0.6792 -0.2261
 6601TIP3    H219810   0.341   0.708   2.683 -2.1359  0.1320 -0.3544
 6602TIP3   OH219811   5.650   0.350   2.608 -0.5816 -0.1909 -0.5245
 6602TIP3    H119812   5.728   0.295   2.604  0.2272  0.9501 -1.3836
 6602TIP3    H219813   5.676   0.425   2.662 -1.5319 -0.4513  0.3150
 6603TIP3   OH219814   3.855   4.031   3.989  0.7198 -0.2934 -0.3903
 6603TIP3    H119815   3.765   4.028   3.959  0.6750  1.4773 -0.5426
 6603TIP3    H219816   3.896   3.953   3.951 -0.5002 -0.6318 -1.0596
 6604TIP3   OH219817   1.567   4.097   4.557  0.5206 -0.3183  0.6570
 6604TIP3    H119818   1.601   4.173   4.606 -0.4624 -0.8467  2.2213
 6604TIP3    H219819   1.646   4.049   4.531  1.2956  2.0673 -1.9081
 6605TIP3   OH219820   0.114   2.135   4.472 -0.3279 -0.1535 -0.4282
 6605TIP3    H119821   0.024   2.156   4.496  0.0448 -0.8309  1.8221
 6605TIP3    H219822   0.167   2.201   4.518  0.3496  0.4890 -2.0462
 6606TIP3   OH219823   3.266   4.022   2.192 -0.1308  0.0404 -0.1660
 6606TIP3    H119824   3.256   4.063   2.106 -1.5404 -1.3906 -0.7234
 6606TIP3    H219825   3.225   4.084   2.253 -1.2165  0.0053 -0.8453
 6607TIP3   OH219826   1.317   3.041   3.182  0.3254 -0.0945  0.0511
 6607TIP3    H119827   1.225   3.042   3.210  0.4855  0.9079  0.6173
 6607TIP3    H219828   1.364   3.080   3.256  1.3306 -1.4152  0.1340
 6608TIP3   OH219829   6.197   0.067   0.757  0.6032  0.3595 -0.5173
 6608TIP3    H119830   6.122   0.082   0.700  1.1193 -2.1855 -2.0851
 6608TIP3    H219831   6.270   0.109   0.711  0.6061  0.3392 -0.5318
 6609TIP3   OH219832   4.217   4.919   2.333  0.4848 -0.0552  0.0181
 6609TIP3    H119833   4.186   4.946   2.246  1.2232  0.7203 -0.0081
 6609TIP3    H219834   4.199   4.825   2.336  0.3078 -0.0592 -0.9131
 6610TIP3   OH219835   3.307   4.041   0.155  0.1937 -0.4477 -0.3785
 6610TIP3    H119836   3.294   4.019   0.248 -0.3630 -1.6763 -0.7190
 6610TIP3    H219837   3.226   4.011   0.112 -0.4510  1.9988 -0.9866
 6611TIP3   OH219838   2.195   4.137   0.018 -0.1254 -0.5656 -0.0219
 6611TIP3    H119839   2.265   4.103   0.074  0.6275 -0.3977 -0.8601
 6611TIP3    H219840   2.144   4.060  -0.006  1.3525 -1.0988 -1.6031
 6612TIP3   OH219841   5.687   0.041   0.669  0.1036 -0.6958  0.1492
 6612TIP3    H119842   5.640  -0.038   0.641 -0.1293 -1.0767  1.5488
 6612TIP3    H219843   5.619   0.107   0.680  0.3812  0.0332 -1.8926
 6613TIP3   OH219844   0.367   3.144   5.077 -0.0600 -0.1866 -0.7611
 6613TIP3    H119845   0.299   3.082   5.104 -0.2242  0.6202  0.7342
 6613TIP3    H219846   0.426   3.150   5.152  0.4580  0.7795 -1.2265
 6614TIP3   OH219847   4.756   1.485   4.160  0.0311 -1.2305 -0.2741
 6614TIP3    H119848   4.738   1.515   4.249  0.0195 -2.0617  0.0174
 6614TIP3    H219849   4.821   1.546   4.127 -2.5182  1.2913 -1.0103
 6615TIP3   OH219850   5.514   3.190   4.585  0.0102 -0.0697  0.2906
 6615TIP3    H119851   5.464   3.261   4.625  0.6581 -0.3156  1.5715
 6615TIP3    H219852   5.583   3.234   4.536  0.0109  0.1891  0.5265
 6616TIP3   OH219853   0.744   4.535   0.151 -0.1309  0.5310  0.5179
 6616TIP3    H119854   0.725   4.614   0.202  1.4077  2.3247 -1.4837
 6616TIP3    H219855   0.820   4.496   0.194  0.7423  1.6549  0.0375
 6617TIP3   OH219856   6.111   1.180   0.205 -0.6369 -0.2590  0.3495
 6617TIP3    H119857   6.055   1.246   0.163 -0.3918 -2.0592 -3.1628
 6617TIP3    H219858   6.200   1.202   0.175 -0.2513 -0.9135  0.9796
 6618TIP3   OH219859   6.375   5.082   3.851 -0.0665  0.7152  0.6777
 6618TIP3    H119860   6.304   5.101   3.790 -0.0999  1.1943  0.8661
 6618TIP3    H219861   6.340   5.014   3.909 -0.2788  0.7718  0.6134
 6619TIP3   OH219862   3.033   4.142   4.402 -0.2887 -0.0641 -0.1675
 6619TIP3    H119863   3.122   4.171   4.386  0.1673 -1.1988  0.2300
 6619TIP3    H219864   2.980   4.221   4.391  0.8853  0.8927  0.7519
 6620TIP3   OH219865   3.071   3.917   3.782  0.1476  0.2255 -0.2481
 6620TIP3    H119866   3.118   3.834   3.789 -0.0078  0.1085 -0.6016
 6620TIP3    H219867   2.981   3.895   3.804  0.1427  0.3379 -0.1565
 6621TIP3   OH219868   0.489   4.586   0.933 -0.5858  0.1475 -0.2006
 6621TIP3    H119869   0.453   4.517   0.990  1.9198 -0.3193  0.9509
 6621TIP3    H219870   0.456   4.667   0.971 -3.7673 -0.2821 -1.7068
 6622TIP3   OH219871   4.542   2.143   0.493  0.0119  0.3712 -0.5980
 6622TIP3    H119872   4.490   2.069   0.526 -1.0690  0.2812 -2.3921
 6622TIP3    H219873   4.566   2.191   0.572 -0.0223 -1.3893  0.5492
 6623TIP3   OH219874   0.092   2.087   1.681 -0.1829 -0.5645  0.0300
 6623TIP3    H119875   0.096   2.164   1.737 -0.1984  0.3319 -1.1752
 6623TIP3    H219876   0.181   2.079   1.644  0.3687 -2.2366  1.5526
 6624TIP3   OH219877   5.077   1.910   2.288  0.1677 -0.0906 -0.1603
 6624TIP3    H119878   5.136   1.939   2.357 -1.9172  1.9361  0.8773
 6624TIP3    H219879   5.118   1.941   2.207  2.4677 -2.2137  0.0699
 6625TIP3   OH219880   0.299   0.802   0.601 -0.0668 -0.2117 -0.3024
 6625TIP3    H119881   0.317   0.709   0.614  0.8547  0.1263  0.9361
 6625TIP3    H219882   0.270   0.808   0.510 -0.7393 -1.7876 -0.2287
 6626TIP3   OH219883   4.417   4.003   2.849 -1.0291 -0.1490  0.5271
 6626TIP3    H119884   4.323   4.022   2.852 -0.9635  0.6252 -1.3370
 6626TIP3    H219885   4.423   3.922   2.799 -0.6825 -0.1489  0.5686
 6627TIP3   OH219886   2.956   2.327   3.668  0.1800 -0.7600 -0.2940
 6627TIP3    H119887   2.935   2.378   3.590  0.6495 -0.2975 -0.1296
 6627TIP3    H219888   2.989   2.392   3.730  0.3820 -1.2096  0.0734
 6628TIP3   OH219889   5.371   2.771   0.471  0.2522  0.2796  0.4393
 6628TIP3    H119890   5.317   2.812   0.404 -1.1564 -0.7379  0.9050
 6628TIP3    H219891   5.320   2.780   0.552  1.0485 -0.2103  1.0199
 6629TIP3   OH219892   4.328   4.717   4.316 -0.1981 -0.3167 -1.0912
 6629TIP3    H119893   4.336   4.625   4.343 -0.9568 -0.3985 -1.1245
 6629TIP3    H219894   4.418   4.750   4.318  0.0330 -0.9445 -0.6682
 6630TIP3   OH219895   3.441   2.483   1.285  0.0014 -0.1515  0.0244
 6630TIP3    H119896   3.457   2.519   1.198 -1.6074 -1.4538 -0.8426
 6630TIP3    H219897   3.454   2.389   1.275 -1.8336 -0.5163  0.7636
 6631TIP3   OH219898   2.018   1.312   2.326  0.0879 -0.1571  0.2323
 6631TIP3    H119899   2.090   1.252   2.348  1.6004  1.9009  1.2972
 6631TIP3    H219900   2.028   1.327   2.232  1.3779  0.4345  0.4390
 6632TIP3   OH219901   6.138   3.134   3.312  0.7263  0.2107 -0.5759
 6632TIP3    H119902   6.122   3.228   3.303  0.6858  0.4678  1.5967
 6632TIP3    H219903   6.068   3.093   3.260 -0.4438  1.3926  0.0015
 6633TIP3   OH219904   2.176   4.801   0.945  0.9179 -0.0310  0.0496
 6633TIP3    H119905   2.144   4.739   0.880  1.5291 -0.2299 -0.0710
 6633TIP3    H219906   2.176   4.886   0.900 -0.8182  0.2409  0.5079
 6634TIP3   OH219907   1.215   0.070   3.144 -0.0242 -0.0940 -0.0616
 6634TIP3    H119908   1.167   0.144   3.106 -0.3756 -0.3269 -0.0754
 6634TIP3    H219909   1.170  -0.007   3.110 -1.2699 -0.3184  1.9732
 6635TIP3   OH219910   0.976   2.580   2.059  0.0458 -0.3228  0.6726
 6635TIP3    H119911   0.913   2.548   1.995 -0.2342  1.8408 -0.2327
 6635TIP3    H219912   1.060   2.547   2.029 -0.3447 -1.1452  0.4579
 6636TIP3   OH219913   1.608   1.203   3.574  0.3606  0.4618  0.3865
 6636TIP3    H119914   1.563   1.227   3.655 -1.2598 -2.5029  0.5032
 6636TIP3    H219915   1.577   1.267   3.509 -2.6230 -0.2882  0.9226
 6637TIP3   OH219916   2.772   2.961   0.225 -0.3586 -0.8269  0.1152
 6637TIP3    H119917   2.825   3.026   0.271  0.6435 -0.3078 -1.6700
 6637TIP3    H219918   2.820   2.879   0.233  0.7653 -0.3667 -1.4581
 6638TIP3   OH219919   2.565   1.093   3.423 -0.2499  0.6771  0.3626
 6638TIP3    H119920   2.613   1.018   3.388 -0.5744 -0.2240  1.7956
 6638TIP3    H219921   2.475   1.062   3.433 -0.3843  1.2535  1.0186
 6639TIP3   OH219922   5.662   1.100   4.438  0.2346 -0.3247 -0.4891
 6639TIP3    H119923   5.748   1.098   4.396  1.5404  0.3179  2.0015
 6639TIP3    H219924   5.673   1.048   4.517 -1.0212  1.5358  0.9929
 6640TIP3   OH219925   4.309   5.779   3.682  0.0056 -0.0637 -0.1702
 6640TIP3    H119926   4.315   5.718   3.756 -0.7840 -0.0967 -0.1231
 6640TIP3    H219927   4.232   5.833   3.702  0.0907  0.2622 -0.7190
 6641TIP3   OH219928   3.788   1.138   3.973 -0.0345  0.5059  0.1842
 6641TIP3    H119929   3.756   1.056   3.934 -1.1474  0.8830  0.2692
 6641TIP3    H219930   3.867   1.112   4.021 -0.8815 -0.6904  0.9749
 6642TIP3   OH219931   5.399   1.563   4.368  0.1685 -0.0892  0.2800
 6642TIP3    H119932   5.313   1.523   4.358 -0.7756  1.6584  0.9059
 6642TIP3    H219933   5.388   1.628   4.437  2.4882 -1.0537  1.6775
 6643TIP3   OH219934   1.845   1.116   3.055  0.3397 -0.0524  0.5465
 6643TIP3    H119935   1.859   1.072   2.971 -0.2099 -0.4649  0.6637
 6643TIP3    H219936   1.863   1.049   3.121  0.1612  0.0882  0.7413
 6644TIP3   OH219937   1.995   4.616   4.991  0.7788  0.1411 -0.1439
 6644TIP3    H119938   1.905   4.591   5.011  0.1520  1.0020 -1.6988
 6644TIP3    H219939   1.996   4.711   5.000  1.4935  0.1600 -0.3527
 6645TIP3   OH219940   4.333   5.358   0.582  0.3380 -0.4516  0.4175
 6645TIP3    H119941   4.350   5.268   0.555  0.5570 -1.2026  2.7766
 6645TIP3    H219942   4.419   5.394   0.604  0.1575  0.0218  0.3799
   6.34339   5.98061   5.17936   0.00000   0.00000  -2.11447   0.00000  -2.11447  -2.99031
