Title
34384
    1SER      N    1   3.414   6.455   3.065 -1.0897 -0.0020 -0.3771
    1SER    HT1    2   3.429   6.357   3.095  1.3564  0.3049 -0.3410
    1SER    HT2    3   3.492   6.507   3.112 -0.1582 -0.7454 -1.0575
    1SER    HT3    4   3.420   6.466   2.962 -1.6141 -0.5535 -0.4635
    1SER     CA    5   3.284   6.518   3.101 -0.3972 -0.5896  0.1440
    1SER     HA    6   3.209   6.479   3.034 -0.9259  1.7284 -0.7122
    1SER     CB    7   3.249   6.471   3.252 -0.4067  0.2645  0.1094
    1SER    HB1    8   3.327   6.514   3.319 -0.8725 -0.2750  1.0186
    1SER    HB2    9   3.260   6.360   3.251  1.0935  0.3708  0.8365
    1SER     OG   10   3.120   6.513   3.287 -0.1804  0.3636  0.5268
    1SER    HG1   11   3.101   6.483   3.376 -0.5971 -1.2708 -0.0737
    1SER      C   12   3.301   6.672   3.097  0.8905 -0.2757 -0.4111
    1SER      O   13   3.379   6.716   3.014  0.4130  0.3998 -0.2039
    2GLY      N   14   3.226   6.752   3.183 -0.9124 -0.3537 -0.3474
    2GLY     HN   15   3.172   6.714   3.259  0.1072  0.8668  1.0492
    2GLY     CA   16   3.228   6.896   3.196 -0.5601  0.0331 -0.6487
    2GLY    HA1   17   3.145   6.925   3.259  0.0893 -1.1160  0.7921
    2GLY    HA2   18   3.228   6.943   3.098  1.6795 -0.7655 -1.0672
    2GLY      C   19   3.347   6.955   3.265  0.3773 -0.0350  0.1740
    2GLY      O   20   3.439   6.883   3.296 -0.9304  0.0425 -0.0994
    3ASP      N   21   3.345   7.086   3.295  0.2545  0.2990  0.0481
    3ASP     HN   22   3.269   7.143   3.265 -0.7380 -0.4120  1.1037
    3ASP     CA   23   3.456   7.156   3.365 -0.3014 -0.1673  0.2908
    3ASP     HA   24   3.547   7.105   3.338  0.0100  0.5768 -0.0844
    3ASP     CB   25   3.463   7.299   3.320 -0.0505  0.0827  0.6793
    3ASP    HB1   26   3.379   7.349   3.373 -1.3716 -1.6965  0.3531
    3ASP    HB2   27   3.448   7.305   3.210 -3.9874  0.9852  1.1334
    3ASP     CG   28   3.582   7.385   3.360 -0.0028 -0.1154  0.1756
    3ASP    OD1   29   3.579   7.505   3.329  0.2693  0.4097  0.2567
    3ASP    OD2   30   3.690   7.337   3.405  0.1251 -0.3035 -0.1382
    3ASP      C   31   3.437   7.138   3.518 -0.2571 -0.5624 -0.0727
    3ASP      O   32   3.329   7.139   3.573 -0.4427  0.3298 -0.0213
    4SER      N   33   3.550   7.140   3.591 -0.1150 -0.5505  0.1770
    4SER     HN   34   3.636   7.154   3.544 -0.8797  0.1916 -1.0529
    4SER     CA   35   3.539   7.120   3.741 -0.3324  0.0915  0.2712
    4SER     HA   36   3.447   7.168   3.774 -0.3772  0.8873 -0.9713
    4SER     CB   37   3.540   6.976   3.794  0.1219 -0.2136 -0.6332
    4SER    HB1   38   3.569   6.972   3.902  1.4799  1.0296 -0.9186
    4SER    HB2   39   3.602   6.904   3.737 -0.3642 -0.9264 -0.2848
    4SER     OG   40   3.404   6.922   3.781 -0.7714 -0.0654  0.6397
    4SER    HG1   41   3.397   6.884   3.693 -1.1549 -0.9008  1.0266
    4SER      C   42   3.650   7.201   3.800  0.3013 -0.6349 -0.1189
    4SER      O   43   3.671   7.186   3.922  0.1625  0.0839 -0.0304
    5GLY      N   44   3.726   7.285   3.724  0.1848 -0.6676 -0.6824
    5GLY     HN   45   3.730   7.286   3.624  2.7933  1.2156 -0.6678
    5GLY     CA   46   3.810   7.394   3.779 -0.2900  0.5159 -0.2032
    5GLY    HA1   47   3.868   7.437   3.698  0.5997 -0.5677 -0.1729
    5GLY    HA2   48   3.876   7.338   3.844  0.1881 -0.7625 -1.7249
    5GLY      C   49   3.736   7.507   3.846 -0.8472 -0.4087  0.2737
    5GLY      O   50   3.617   7.499   3.853  0.4071 -0.5208  0.1567
    6PRO      N   51   3.807   7.613   3.892 -0.2637  0.1902  0.0009
    6PRO     CD   52   3.950   7.608   3.914 -0.5545 -0.4450 -0.0613
    6PRO    HD1   53   4.013   7.598   3.823  0.0347  0.1402  0.2684
    6PRO    HD2   54   3.972   7.527   3.986  2.9284 -1.1223 -1.6447
    6PRO     CA   55   3.747   7.742   3.938 -0.3016  0.0134 -0.3299
    6PRO     HA   56   3.703   7.720   4.033 -1.6981 -2.0569 -1.3821
    6PRO     CB   57   3.871   7.835   3.945  0.0602  0.1168  0.2282
    6PRO    HB1   58   3.845   7.911   4.022  0.3020 -0.4926  0.9295
    6PRO    HB2   59   3.881   7.883   3.845  1.0608 -0.4048  0.0635
    6PRO     CG   60   3.986   7.738   3.986 -0.1366 -0.1998 -0.0130
    6PRO    HG1   61   4.087   7.782   3.975 -1.2090  2.3030 -0.4977
    6PRO    HG2   62   3.962   7.714   4.092  1.7114  0.6381  0.6216
    6PRO      C   63   3.627   7.785   3.854  0.2211  0.0342 -0.1602
    6PRO      O   64   3.641   7.800   3.736 -0.3868  0.7474  0.6624
    7GLY      N   65   3.518   7.834   3.911  0.3106 -0.2162  0.0858
    7GLY     HN   66   3.513   7.865   4.006  0.4731  1.8709 -0.5490
    7GLY     CA   67   3.398   7.857   3.837  0.0062  0.6978 -0.3458
    7GLY    HA1   68   3.421   7.880   3.734 -0.2180  1.1600 -0.2968
    7GLY    HA2   69   3.355   7.942   3.889 -1.3203 -1.5384  2.5294
    7GLY      C   70   3.295   7.757   3.841  0.1502  0.6335 -0.6151
    7GLY      O   71   3.223   7.745   3.744 -0.5481  0.5949  0.0912
    8ASP      N   72   3.273   7.689   3.955 -0.3070 -0.1362  0.0882
    8ASP     HN   73   3.337   7.712   4.027  1.1224 -1.2506 -0.7755
    8ASP     CA   74   3.173   7.590   3.994 -0.0790 -0.0951  0.7341
    8ASP     HA   75   3.192   7.497   3.942  2.1723  1.2380 -1.0594
    8ASP     CB   76   3.188   7.576   4.145 -0.1100  0.8268 -0.0910
    8ASP    HB1   77   3.113   7.503   4.182  0.4639  1.8020  3.4032
    8ASP    HB2   78   3.161   7.667   4.205  0.3017  0.3180  0.8935
    8ASP     CG   79   3.326   7.526   4.185  0.1297 -0.2025 -0.3732
    8ASP    OD1   80   3.364   7.411   4.155  0.6275 -0.2073 -0.0926
    8ASP    OD2   81   3.394   7.608   4.245 -0.2327 -0.2007 -0.1808
    8ASP      C   82   3.031   7.646   3.962  0.0686 -0.4307  0.0538
    8ASP      O   83   3.005   7.764   3.976  0.2173 -0.0292 -0.1661
    9PRO      N   84   2.935   7.576   3.916 -0.0426  0.1905 -0.0518
    9PRO     CD   85   2.967   7.451   3.856  0.5225  0.2251  0.1128
    9PRO    HD1   86   3.000   7.376   3.930 -1.8105 -0.6377  0.3868
    9PRO    HD2   87   3.037   7.461   3.770 -0.9385  0.4876 -1.1029
    9PRO     CA   88   2.798   7.617   3.889  0.2251  0.2399  0.0733
    9PRO     HA   89   2.783   7.718   3.854  1.4028  0.5021  0.2746
    9PRO     CB   90   2.750   7.527   3.775 -0.3636  0.6869  0.7378
    9PRO    HB1   91   2.768   7.575   3.677 -1.3649 -0.7939 -0.2342
    9PRO    HB2   92   2.641   7.503   3.772  0.0000 -1.0985 -1.3676
    9PRO     CG   93   2.831   7.399   3.800 -0.2042 -0.2496  0.5598
    9PRO    HG1   94   2.787   7.320   3.864  2.1325 -1.1376  1.1433
    9PRO    HG2   95   2.840   7.343   3.704 -0.7532 -0.3078  0.5393
    9PRO      C   96   2.713   7.597   4.013 -0.6149  0.5040 -0.4626
    9PRO      O   97   2.587   7.617   4.008 -0.5743 -0.1775  0.0433
   10GLY      N   98   2.766   7.572   4.136  0.3814  0.3038  0.0780
   10GLY     HN   99   2.863   7.550   4.138  0.2912 -0.1597  2.8326
   10GLY     CA  100   2.696   7.561   4.264  0.0226  0.9652  0.0993
   10GLY    HA1  101   2.702   7.455   4.285  0.0897  0.9618  0.0650
   10GLY    HA2  102   2.599   7.607   4.269 -0.6552 -0.4150  0.1606
   10GLY      C  103   2.783   7.623   4.375 -0.1530  0.3191  0.1488
   10GLY      O  104   2.879   7.693   4.342  0.3855 -0.1432  0.0750
   11ASP      N  105   2.738   7.609   4.500 -0.3090  0.1309 -0.5118
   11ASP     HN  106   2.658   7.553   4.520  1.5030 -2.1618  0.7412
   11ASP     CA  107   2.797   7.667   4.622 -0.3488  0.4668 -0.5424
   11ASP     HA  108   2.798   7.774   4.610 -0.3121  0.4705 -0.5070
   11ASP     CB  109   2.730   7.627   4.760 -0.0638 -0.1028 -0.5050
   11ASP    HB1  110   2.798   7.649   4.845 -0.3360 -1.8888  0.2245
   11ASP    HB2  111   2.715   7.518   4.775 -1.1049 -0.0200 -0.8231
   11ASP     CG  112   2.594   7.693   4.781 -0.0873 -0.3454 -0.9945
   11ASP    OD1  113   2.547   7.768   4.695  0.6012 -0.3691 -0.1557
   11ASP    OD2  114   2.532   7.675   4.891 -0.4861  0.0325  0.2035
   11ASP      C  115   2.948   7.636   4.621  0.2544  0.1469 -0.5122
   11ASP      O  116   2.991   7.523   4.603  0.5245  0.5371 -0.0102
   12SER      N  117   3.033   7.728   4.663  0.0715 -0.1454  0.2251
   12SER     HN  118   2.995   7.820   4.672 -2.4249 -1.0025 -0.8209
   12SER     CA  119   3.176   7.718   4.663 -0.6435  0.0252 -0.1151
   12SER     HA  120   3.224   7.638   4.717  2.6781  1.3083 -0.9136
   12SER     CB  121   3.227   7.706   4.522  0.6382 -0.0880  0.0585
   12SER    HB1  122   3.215   7.797   4.460  1.1065  0.8134  1.2444
   12SER    HB2  123   3.163   7.632   4.469  1.3199 -1.4454  1.0395
   12SER     OG  124   3.358   7.651   4.519 -0.7066 -0.3760  0.6464
   12SER    HG1  125   3.379   7.642   4.425  0.5444  2.8947  0.4654
   12SER      C  126   3.229   7.845   4.727 -0.1619 -0.3604 -0.1073
   12SER      O  127   3.222   7.950   4.668 -0.2299  0.3072  0.1115
   13GLY      N  128   3.277   7.838   4.850  0.3293  0.4713  0.3754
   13GLY     HN  129   3.270   7.748   4.893 -2.0054  0.6998  0.5821
   13GLY     CA  130   3.300   7.950   4.937  0.6578  0.3429  0.5064
   13GLY    HA1  131   3.337   8.038   4.885 -4.0706  3.7054  2.1972
   13GLY    HA2  132   3.366   7.912   5.014  1.1195 -0.2108 -0.1430
   13GLY      C  133   3.180   8.000   5.013  0.0178 -0.5488  0.5895
   13GLY    OT1  134   3.201   8.062   5.121 -0.2365  0.2981 -0.1967
   13GLY    OT2  135   3.065   7.998   4.960  0.0089 -0.0058 -0.4018
   14LIT    LIT  136   2.755   4.505   3.518 -1.0374  0.6476  0.8349
   15LIT    LIT  137   2.577   5.150   3.425 -0.3534  0.6840 -0.8035
   16LIT    LIT  138   0.742   0.390   4.960 -0.2886  0.7017 -0.6504
   17LIT    LIT  139   1.836   2.952   6.111 -0.0343  0.3591  0.5295
   18LIT    LIT  140   4.837   2.009   2.305  0.5420  0.1582 -0.1468
   19LIT    LIT  141   1.792   1.253   5.473  0.0511  0.2892 -0.1149
   20LIT    LIT  142   3.858   6.650   3.788 -0.6351  0.4369  0.0341
   21LIT    LIT  143   3.702   3.113   3.901 -1.1673 -0.4608  0.5898
   22LIT    LIT  144   7.559   3.811   0.262 -0.4622  0.2793  0.1252
   23LIT    LIT  145   3.339   0.349   0.863 -1.1166 -0.2817  0.0279
   24LIT    LIT  146   1.221   0.484   4.486 -0.0049  0.5126 -0.1326
   25LIT    LIT  147   6.057   0.282   4.254 -0.2432  0.1676 -0.0760
   26LIT    LIT  148   1.426   4.054   2.967  0.5346  0.5451 -0.2507
   27LIT    LIT  149   5.054   6.653   1.000  0.1404 -0.0794  1.3632
   28LIT    LIT  150   6.972   1.832   1.619  0.6474  0.0966 -0.4968
   29LIT    LIT  151   5.454   6.098   3.729  0.0986  0.9149  2.2203
   30LIT    LIT  152   4.132   0.224   4.544 -0.0023  1.3871 -0.3379
   31LIT    LIT  153   6.270   0.396   3.249 -1.1027 -0.4610  0.5164
   32LIT    LIT  154   4.514   5.780   3.311 -0.5053  0.2814 -0.0850
   33LIT    LIT  155   6.225   1.479   1.980 -0.0872  0.0606  0.0964
   34LIT    LIT  156   3.165   2.114   0.334  0.3460  0.0656 -0.3586
   35LIT    LIT  157   3.238   3.524   0.823  0.0620  0.1547 -0.6409
   36LIT    LIT  158   4.928   0.628   4.808  0.0464 -0.5581 -0.2908
   37LIT    LIT  159   2.313   6.419   1.794 -0.6262 -0.6396 -0.2122
   38LIT    LIT  160   7.464   6.867   5.344 -0.9143  0.5558 -0.4008
   39LIT    LIT  161   6.049   1.189   0.864 -1.0226  0.0798 -0.0626
   40LIT    LIT  162   0.978   2.128   1.037 -0.0169 -0.3818  0.6971
   41LIT    LIT  163   4.070   1.335   6.064  0.5780 -0.0158 -0.4062
   42LIT    LIT  164   4.418   4.211   1.995 -0.7034  0.7674 -0.1059
   43LIT    LIT  165   5.224   1.236   2.522 -0.7187 -0.5261  0.8017
   44LIT    LIT  166   5.785   3.953   4.640  0.8986  0.4447  0.3829
   45LIT    LIT  167   0.862   4.564   0.505 -0.0153  0.2607 -0.3560
   46LIT    LIT  168   6.379   5.675   3.529 -0.0884 -0.0884 -0.0200
   47LIT    LIT  169   1.315   6.089   2.998 -0.3654 -0.7443 -0.8066
   48LIT    LIT  170   0.460   0.367   0.106 -0.2905 -0.3997  0.2293
   49CLA    CLA  171   3.711   0.231   1.195 -0.4178  0.0962  0.0136
   50CLA    CLA  172   2.296   5.696   2.272 -0.3830 -0.1186 -0.1226
   51CLA    CLA  173   2.571   2.363   1.080  0.4012  0.1105 -0.4397
   52CLA    CLA  174   5.820   0.898   0.572 -0.0467 -0.1080  0.0971
   53CLA    CLA  175   7.559   4.092   2.632  0.1167  0.2361  0.3744
   54CLA    CLA  176   0.202   5.174   0.081  0.0608 -0.0312  0.2402
   55CLA    CLA  177   3.309   5.039   5.848 -0.2739  0.2026 -0.2719
   56CLA    CLA  178   0.606   6.465   4.886 -0.2494  0.4158 -0.2497
   57CLA    CLA  179   6.800   1.444   1.425  0.3305 -0.4397 -0.0676
   58CLA    CLA  180   4.717   5.047   5.827 -0.3617  0.5799 -0.5666
   59CLA    CLA  181   1.787   1.364   1.883 -0.2610  0.5970 -0.1632
   60CLA    CLA  182   5.761   2.072   0.431  0.2565 -0.1193  0.0822
   61CLA    CLA  183   2.630   4.682   3.475 -0.1112 -0.0160  0.3816
   62CLA    CLA  184   4.684   5.660   3.422 -0.3677 -0.6814 -0.3236
   63CLA    CLA  185   2.638   4.300   3.514 -0.3157  0.3065  0.2528
   64CLA    CLA  186   7.539   4.705   1.792 -0.0667 -0.3138 -0.5005
   65CLA    CLA  187   0.322   1.694   4.534  0.3804  0.3458  0.1294
   66CLA    CLA  188   4.602   1.551   2.114 -0.1831 -0.0430  0.3509
   67CLA    CLA  189   2.047   0.387   4.024 -0.4200  0.2087 -0.3085
   68CLA    CLA  190   5.597   2.138   1.167  0.1958 -0.4773  0.4452
   69CLA    CLA  191   1.377   1.723   1.451  0.0962 -0.2316  0.1258
   70CLA    CLA  192   0.756   3.516   0.159 -0.3222 -0.1718 -0.2200
   71CLA    CLA  193   7.056   5.721   2.476 -0.0059  0.0190 -0.0286
   72CLA    CLA  194   4.719   6.824   0.755 -0.3776 -0.2304 -0.2080
   73CLA    CLA  195   4.875   6.624   3.563 -0.0460  0.0171  0.1312
   74CLA    CLA  196   5.261   3.382   4.774 -0.1917 -0.2761  0.0523
   75CLA    CLA  197   0.265   3.002   6.145 -0.1615 -0.0020  0.0798
   76CLA    CLA  198   6.959   4.759   5.140  0.2484  0.2322  0.3273
   77CLA    CLA  199   1.825   2.916   0.721 -0.0704  0.2180  0.0852
   78CLA    CLA  200   7.330   2.934   1.608 -0.1497 -0.3227 -0.6699
   79CLA    CLA  201   1.570   7.150   4.595  0.3883  0.5138 -0.5400
   80CLA    CLA  202   4.531   6.005   0.826 -0.1186 -0.4360 -0.4905
   81TIP3   OH2  203   3.506   2.536   2.605 -0.3560 -0.6409 -0.1222
   81TIP3    H1  204   3.498   2.562   2.514  1.8339  1.2523  0.1177
   81TIP3    H2  205   3.597   2.510   2.614 -0.5244 -0.7702  1.5149
   82TIP3   OH2  206   3.761   2.945   3.983 -0.2416  0.5454 -0.0229
   82TIP3    H1  207   3.825   2.888   3.940 -0.8304 -0.7939  0.8019
   82TIP3    H2  208   3.729   2.893   4.057 -1.3470  1.6805  0.3305
   83TIP3   OH2  209   3.049   1.407   2.463 -0.7394  0.3672  0.0557
   83TIP3    H1  210   3.144   1.418   2.470 -0.8689  0.6746  1.9327
   83TIP3    H2  211   3.035   1.369   2.376  1.0219  1.0444 -0.5574
   84TIP3   OH2  212   2.595   3.587   4.281 -0.2968 -0.2617 -1.2744
   84TIP3    H1  213   2.566   3.657   4.339 -0.4164 -2.2284  1.2117
   84TIP3    H2  214   2.523   3.574   4.220 -1.7400 -0.4678  0.4123
   85TIP3   OH2  215   2.054   3.027   3.388 -0.3026  0.8575  0.6703
   85TIP3    H1  216   2.067   2.952   3.331 -1.8035  1.7294 -0.9063
   85TIP3    H2  217   2.141   3.061   3.405  0.1972  0.3559 -0.8086
   86TIP3   OH2  218   4.313   0.670   4.483  0.0153  0.1543 -0.3350
   86TIP3    H1  219   4.355   0.732   4.542 -0.5299  1.6510 -1.4652
   86TIP3    H2  220   4.220   0.677   4.501  0.0366 -1.5310  0.6153
   87TIP3   OH2  221   6.031   0.957   0.342 -0.0291  0.2803 -0.2778
   87TIP3    H1  222   6.052   0.869   0.312  0.7854  0.0120  1.0003
   87TIP3    H2  223   5.969   0.945   0.414 -3.2279  0.9893 -2.6771
   88TIP3   OH2  224   5.645   6.527   4.716  0.1434 -0.1648 -0.3946
   88TIP3    H1  225   5.623   6.563   4.630 -0.4020 -0.0831 -0.2238
   88TIP3    H2  226   5.729   6.568   4.739  0.3726 -0.3110 -0.9541
   89TIP3   OH2  227   2.653   0.679   5.442  0.1127 -0.0201  0.0430
   89TIP3    H1  228   2.650   0.645   5.353  0.9070  2.5367 -1.0479
   89TIP3    H2  229   2.582   0.743   5.446  0.0621 -0.1235  1.2690
   90TIP3   OH2  230   2.322   3.254   5.373 -0.2782 -0.1805 -0.1731
   90TIP3    H1  231   2.329   3.255   5.277 -2.9884  1.2867 -0.4406
   90TIP3    H2  232   2.391   3.194   5.401  0.2005 -1.1405 -3.0673
   91TIP3   OH2  233   0.733   5.582   4.762 -0.0467 -0.0277 -0.4194
   91TIP3    H1  234   0.747   5.582   4.857 -2.5015 -0.2571  0.0081
   91TIP3    H2  235   0.683   5.662   4.746  1.1868  0.5192 -1.7012
   92TIP3   OH2  236   3.577   6.097   5.237  0.4138 -0.0366 -0.3807
   92TIP3    H1  237   3.595   6.114   5.329 -1.9631  0.1179  0.1344
   92TIP3    H2  238   3.595   6.003   5.226  1.7501  0.1655 -0.0653
   93TIP3   OH2  239   3.749   1.098   5.220  0.1773  0.4281 -0.0324
   93TIP3    H1  240   3.825   1.143   5.184 -0.4172  0.0794 -1.8609
   93TIP3    H2  241   3.680   1.111   5.155 -1.0949  0.0271  1.1671
   94TIP3   OH2  242   3.215   6.261   2.708  0.1507  0.8885 -0.6037
   94TIP3    H1  243   3.269   6.195   2.664 -0.4827  0.9664 -1.5270
   94TIP3    H2  244   3.181   6.316   2.637 -0.5528  1.2849  0.0230
   95TIP3   OH2  245   2.602   3.096   2.962 -0.2381  0.6588  0.8371
   95TIP3    H1  246   2.618   3.189   2.951  1.2724  0.6997  2.7464
   95TIP3    H2  247   2.523   3.078   2.910 -0.3379  2.8937  0.1309
   96TIP3   OH2  248   6.472   3.684   4.789 -0.0890 -0.0350  0.1639
   96TIP3    H1  249   6.508   3.608   4.743  1.0419  0.0470  0.8725
   96TIP3    H2  250   6.384   3.694   4.753 -0.0531 -1.3320 -0.3468
   97TIP3   OH2  251   7.254   4.573   3.967  0.2056  0.3113 -0.0933
   97TIP3    H1  252   7.214   4.491   3.996  0.3164  0.5434  0.7227
   97TIP3    H2  253   7.201   4.599   3.891  1.0876 -1.2859 -1.3204
   98TIP3   OH2  254   6.838   3.145   2.042  0.0604  0.2390 -0.8168
   98TIP3    H1  255   6.827   3.227   1.993 -0.5346  0.8873  0.3622
   98TIP3    H2  256   6.924   3.153   2.082 -0.4244  0.7743  0.1487
   99TIP3   OH2  257   5.198   5.283   3.406  0.0414 -0.3105 -0.0369
   99TIP3    H1  258   5.227   5.250   3.491 -0.9830 -2.3040 -0.4007
   99TIP3    H2  259   5.112   5.321   3.423  1.7670  3.8906  0.6745
  100TIP3   OH2  260   6.153   3.595   2.565 -0.2603  0.5045 -0.1111
  100TIP3    H1  261   6.246   3.591   2.544 -0.4802  0.4798 -1.1279
  100TIP3    H2  262   6.131   3.688   2.559 -0.0976  0.6433  1.1255
  101TIP3   OH2  263   5.593   2.652   6.069  0.1832  0.2648 -0.3902
  101TIP3    H1  264   5.658   2.619   6.007  4.0501 -0.5728  3.5834
  101TIP3    H2  265   5.523   2.587   6.068  0.6968 -0.3465 -2.8351
  102TIP3   OH2  266   0.178   2.015   5.581  0.0543  0.2673  0.2829
  102TIP3    H1  267   0.184   1.988   5.489  1.9644  2.5702 -0.4022
  102TIP3    H2  268   0.142   1.940   5.627 -1.1216 -0.9058 -2.3822
  103TIP3   OH2  269   2.503   6.309   4.308  0.5223 -0.1388  0.5100
  103TIP3    H1  270   2.595   6.329   4.292  0.1957  1.8548  0.8506
  103TIP3    H2  271   2.464   6.392   4.336 -1.3429 -0.9680  0.5837
  104TIP3   OH2  272   7.182   2.920   4.678  0.5263  0.4283  0.3314
  104TIP3    H1  273   7.229   2.996   4.643  0.0047  1.3408  1.5386
  104TIP3    H2  274   7.144   2.878   4.601  1.2015  1.1254 -0.4088
  105TIP3   OH2  275   4.108   1.048   3.686 -0.1216  0.1829 -0.0488
  105TIP3    H1  276   4.044   1.012   3.625  0.7085 -0.5079 -0.5420
  105TIP3    H2  277   4.083   1.013   3.771 -0.8168  0.4946 -0.1253
  106TIP3   OH2  278   6.583   5.382   5.015 -0.6173  0.2510  0.0517
  106TIP3    H1  279   6.598   5.313   4.950 -1.0461 -0.7616  1.0018
  106TIP3    H2  280   6.668   5.394   5.058 -0.4819  0.5082 -0.2773
  107TIP3   OH2  281   4.306   6.369   4.623  0.0629 -0.2061 -0.1511
  107TIP3    H1  282   4.240   6.304   4.600  0.2776  0.3660 -2.6708
  107TIP3    H2  283   4.338   6.342   4.709 -1.8603 -1.7514  0.1372
  108TIP3   OH2  284   3.939   0.718   2.060  0.3175  0.2159  0.2554
  108TIP3    H1  285   3.914   0.771   1.984 -1.3831  0.2075  0.7687
  108TIP3    H2  286   3.960   0.632   2.023  0.9192  0.6178 -0.3512
  109TIP3   OH2  287   0.294   4.851   0.441  0.1039  0.1028 -0.2073
  109TIP3    H1  288   0.251   4.936   0.441 -1.9049 -0.8331  0.2174
  109TIP3    H2  289   0.306   4.831   0.534  1.8293  0.4900 -0.3277
  110TIP3   OH2  290   2.059   6.786   3.386 -0.0809 -0.0200 -0.1868
  110TIP3    H1  291   2.070   6.744   3.471  0.7305  0.7773  0.1275
  110TIP3    H2  292   1.983   6.844   3.397  0.1817  0.2730  0.0716
  111TIP3   OH2  293   2.653   5.688   3.112  0.3612 -0.4963 -0.2769
  111TIP3    H1  294   2.681   5.604   3.148 -0.4650 -0.7189 -0.1269
  111TIP3    H2  295   2.609   5.732   3.185  0.5871 -0.0249 -0.4191
  112TIP3   OH2  296   2.604   5.140   4.244 -0.7191 -0.3316 -0.5370
  112TIP3    H1  297   2.544   5.067   4.229 -0.1012 -0.5720 -2.0168
  112TIP3    H2  298   2.642   5.123   4.330 -2.0070 -0.7103 -0.0281
  113TIP3   OH2  299   6.810   2.638   1.322 -0.0193  0.2237 -0.8243
  113TIP3    H1  300   6.741   2.651   1.387  0.4234 -1.9801  0.1919
  113TIP3    H2  301   6.766   2.644   1.238 -1.4980 -1.1706 -0.1954
  114TIP3   OH2  302   0.289   0.393   0.908 -0.3441  0.3631  0.0480
  114TIP3    H1  303   0.226   0.354   0.968  1.3377 -0.4865  1.3448
  114TIP3    H2  304   0.322   0.470   0.955  1.4734 -0.6810  0.5609
  115TIP3   OH2  305   6.838   0.724   5.749 -0.1987  0.1096 -0.3899
  115TIP3    H1  306   6.747   0.716   5.719  0.0885 -1.1099 -1.0295
  115TIP3    H2  307   6.889   0.688   5.677  0.7259 -0.0947  0.3567
  116TIP3   OH2  308   5.654   2.901   3.772 -0.7116 -0.6884 -0.0941
  116TIP3    H1  309   5.610   2.986   3.773 -0.8071 -0.7084  1.7341
  116TIP3    H2  310   5.630   2.862   3.689 -1.2531  0.7748 -0.6531
  117TIP3   OH2  311   3.329   4.508   5.593  0.3652 -0.2809 -0.2683
  117TIP3    H1  312   3.378   4.583   5.559 -0.0208  0.2129  0.2263
  117TIP3    H2  313   3.395   4.439   5.605  0.5350 -0.4151 -1.8088
  118TIP3   OH2  314   3.140   4.512   2.549 -0.2366  0.5405  0.2744
  118TIP3    H1  315   3.094   4.565   2.614 -0.2334 -0.2721  0.9520
  118TIP3    H2  316   3.213   4.472   2.597  1.2111  1.7892 -0.7648
  119TIP3   OH2  317   4.296   1.459   2.932 -0.0155  0.4479 -0.2459
  119TIP3    H1  318   4.243   1.380   2.938  0.2238  0.3531  1.0630
  119TIP3    H2  319   4.245   1.518   2.876 -0.3392 -0.5036 -0.9908
  120TIP3   OH2  320   7.536   0.798   4.192  0.3751  0.2398  0.0818
  120TIP3    H1  321   7.623   0.806   4.231  0.9161 -0.0174 -1.0375
  120TIP3    H2  322   7.480   0.773   4.266  1.5245 -1.1554  0.5608
  121TIP3   OH2  323   7.126   3.907   1.556  0.3045  0.0892 -0.1983
  121TIP3    H1  324   7.085   3.921   1.471  1.6185  0.6680 -0.7597
  121TIP3    H2  325   7.153   3.816   1.556 -0.0693 -0.0221 -0.2272
  122TIP3   OH2  326   7.433   2.499   3.033 -1.0498  0.3276 -0.1806
  122TIP3    H1  327   7.491   2.554   3.086 -1.3695  1.2790 -0.7953
  122TIP3    H2  328   7.484   2.420   3.017 -0.5878  0.4242  0.7403
  123TIP3   OH2  329   0.927   0.354   4.966  0.9833 -0.3497 -0.4054
  123TIP3    H1  330   0.968   0.435   4.996 -0.9045  0.8894 -1.0054
  123TIP3    H2  331   0.997   0.289   4.969  2.4481  1.2023  0.4799
  124TIP3   OH2  332   0.497   5.125   5.134  0.4966 -0.1039 -0.0792
  124TIP3    H1  333   0.499   5.080   5.218 -0.1656 -0.3354 -0.1803
  124TIP3    H2  334   0.475   5.216   5.156  1.7883  0.1721  0.1204
  125TIP3   OH2  335   5.652   2.026   0.720  0.0811  0.2633 -0.2013
  125TIP3    H1  336   5.686   2.105   0.762  3.1920 -0.5976 -0.7952
  125TIP3    H2  337   5.689   2.028   0.632  0.3227 -1.8519 -0.2091
  126TIP3   OH2  338   2.874   0.230   3.493 -0.2469 -0.0596  0.4465
  126TIP3    H1  339   2.789   0.193   3.467 -0.4945 -0.4513  1.7196
  126TIP3    H2  340   2.866   0.243   3.588  0.8619  0.5923  0.4639
  127TIP3   OH2  341   5.318   1.198   2.682 -0.4259  0.2499 -0.1848
  127TIP3    H1  342   5.330   1.103   2.689 -2.2285  0.0310  0.2449
  127TIP3    H2  343   5.406   1.233   2.697  0.6528 -1.3885 -2.0738
  128TIP3   OH2  344   5.727   0.193   1.404 -0.0623  0.3213  0.9120
  128TIP3    H1  345   5.770   0.117   1.364 -0.5215  1.5245 -2.1859
  128TIP3    H2  346   5.634   0.175   1.395 -0.1710  1.0540  0.4979
  129TIP3   OH2  347   6.459   5.253   3.198  0.1781  0.3436 -0.2647
  129TIP3    H1  348   6.493   5.180   3.148 -0.1846 -0.7013  0.9692
  129TIP3    H2  349   6.390   5.290   3.142 -0.1491 -0.7184 -0.5833
  130TIP3   OH2  350   2.394   1.019   2.255  0.8655 -0.1618  0.0750
  130TIP3    H1  351   2.449   0.950   2.220 -1.2620 -1.8839 -0.1192
  130TIP3    H2  352   2.305   0.982   2.253  0.0858  1.1194  3.5453
  131TIP3   OH2  353   7.246   0.598   1.093  0.2079 -0.0820  0.3496
  131TIP3    H1  354   7.163   0.638   1.068  0.7482  0.9972  0.1974
  131TIP3    H2  355   7.229   0.504   1.093 -0.5123  0.0019 -1.6076
  132TIP3   OH2  356   2.400   3.458   2.933  0.3123  0.4452 -0.5853
  132TIP3    H1  357   2.307   3.433   2.931  0.5520 -0.5393  0.2154
  132TIP3    H2  358   2.400   3.548   2.899 -0.8577  0.2438 -1.1920
  133TIP3   OH2  359   7.429   1.997   3.442 -0.1353 -0.1714 -0.0051
  133TIP3    H1  360   7.416   2.067   3.377 -1.3690  0.1644  0.5637
  133TIP3    H2  361   7.375   1.925   3.411  1.0229 -0.8471 -0.5102
  134TIP3   OH2  362   7.282   2.727   4.862 -0.0860 -0.4589 -0.2077
  134TIP3    H1  363   7.255   2.801   4.807  3.2610  2.6238  1.8618
  134TIP3    H2  364   7.251   2.750   4.949  2.3997 -0.5445  0.7830
  135TIP3   OH2  365   6.854   4.108   2.183 -0.6304  0.3836 -0.6585
  135TIP3    H1  366   6.914   4.034   2.169  0.5800  1.2873 -0.4208
  135TIP3    H2  367   6.869   4.165   2.108 -2.1364  0.0585 -1.2544
  136TIP3   OH2  368   6.499   7.086   5.089  0.6294 -0.5021  0.0797
  136TIP3    H1  369   6.562   7.129   5.031 -0.2603  1.2025  0.3164
  136TIP3    H2  370   6.470   7.155   5.149 -0.1019 -1.6915  1.1523
  137TIP3   OH2  371   6.145   1.120   2.569  0.2520  0.1073  0.4359
  137TIP3    H1  372   6.144   1.173   2.648  0.6609  1.1007 -0.2119
  137TIP3    H2  373   6.226   1.070   2.574 -0.4145 -0.9328  1.3337
  138TIP3   OH2  374   0.387   0.842   2.199  0.3558  0.4684  0.3735
  138TIP3    H1  375   0.376   0.789   2.120  2.3679 -0.0752  0.4037
  138TIP3    H2  376   0.371   0.932   2.170  0.2434  0.1884 -0.4616
  139TIP3   OH2  377   1.419   1.224   5.859 -0.2359  0.2375 -0.2012
  139TIP3    H1  378   1.504   1.184   5.881  0.0392  1.2232  0.6471
  139TIP3    H2  379   1.366   1.211   5.938 -0.4903  0.6271 -0.3072
  140TIP3   OH2  380   4.274   4.708   4.330  0.2419  0.3791  0.4463
  140TIP3    H1  381   4.284   4.640   4.263  1.3946  0.0402  0.9489
  140TIP3    H2  382   4.339   4.687   4.396  0.0528  1.5100  1.0147
  141TIP3   OH2  383   1.836   6.808   1.480 -0.1074  0.2485 -0.1176
  141TIP3    H1  384   1.788   6.761   1.548 -2.8243  2.1849 -0.5271
  141TIP3    H2  385   1.879   6.881   1.526 -0.0620  0.2526 -0.1661
  142TIP3   OH2  386   6.468   2.985   2.445  0.1595  0.2621  0.4193
  142TIP3    H1  387   6.463   2.936   2.363  1.3530  0.5648  0.1410
  142TIP3    H2  388   6.445   3.075   2.421  2.2632  0.7430  0.0056
  143TIP3   OH2  389   7.075   4.649   5.698 -0.0775 -0.0687  0.0090
  143TIP3    H1  390   7.156   4.618   5.739  2.3085  2.6934 -2.1911
  143TIP3    H2  391   7.080   4.619   5.608 -1.0436  0.9493 -0.4091
  144TIP3   OH2  392   4.102   1.118   1.723 -0.2562  0.3176 -0.5073
  144TIP3    H1  393   4.057   1.117   1.638  0.4552  1.5088 -0.9267
  144TIP3    H2  394   4.145   1.203   1.725  1.2737 -0.4483  0.2505
  145TIP3   OH2  395   1.307   4.161   0.049  0.0415 -0.3378  0.4854
  145TIP3    H1  396   1.353   4.083   0.081  0.0859 -0.7421 -0.5337
  145TIP3    H2  397   1.333   4.230   0.110  1.1963 -0.7885  0.5378
  146TIP3   OH2  398   4.742   5.350   2.119  0.1328  0.1225  0.1104
  146TIP3    H1  399   4.759   5.383   2.207  0.9536 -0.2867  0.1159
  146TIP3    H2  400   4.746   5.255   2.127 -0.1683  0.0726 -0.2931
  147TIP3   OH2  401   7.467   1.160   2.566  0.0275 -0.7469  0.0638
  147TIP3    H1  402   7.523   1.234   2.591 -0.5925  0.3328 -1.6242
  147TIP3    H2  403   7.419   1.190   2.489  0.1408 -3.1042 -1.0214
  148TIP3   OH2  404   1.943   4.378   3.569  0.1842 -0.2923 -0.6086
  148TIP3    H1  405   2.036   4.364   3.587  1.1096  2.8270 -2.2638
  148TIP3    H2  406   1.915   4.440   3.636 -0.6386 -0.9494 -0.3312
  149TIP3   OH2  407   6.836   0.275   2.657 -0.7725 -0.9321  0.0379
  149TIP3    H1  408   6.874   0.190   2.634 -1.1200 -0.8278 -0.9813
  149TIP3    H2  409   6.902   0.317   2.712 -0.7604 -2.0145  0.9008
  150TIP3   OH2  410   0.078   1.705   5.917 -0.3247 -0.2301 -0.5476
  150TIP3    H1  411   0.132   1.704   5.839 -1.9012 -0.5905 -1.6812
  150TIP3    H2  412   0.044   1.794   5.922  0.1612 -0.0678  0.0310
  151TIP3   OH2  413   1.161   4.183   3.635  0.4714 -0.1927 -0.4278
  151TIP3    H1  414   1.163   4.138   3.720 -2.0698 -1.3165 -0.8970
  151TIP3    H2  415   1.152   4.276   3.658 -1.6609 -0.5914  0.5971
  152TIP3   OH2  416   1.715   4.863   0.795  0.4246 -0.1799 -0.3417
  152TIP3    H1  417   1.747   4.831   0.710 -0.3877 -1.0033 -0.3556
  152TIP3    H2  418   1.628   4.824   0.804  0.6015 -0.3149  0.9918
  153TIP3   OH2  419   1.301   3.592   0.382 -0.4556 -0.2446  0.9760
  153TIP3    H1  420   1.216   3.548   0.385 -1.4513  1.6226  1.2956
  153TIP3    H2  421   1.310   3.622   0.292  0.4073 -1.3941  0.6565
  154TIP3   OH2  422   1.462   0.771   5.071 -0.0807  0.0440 -0.2087
  154TIP3    H1  423   1.449   0.689   5.118 -1.8212  0.3753 -0.0440
  154TIP3    H2  424   1.546   0.804   5.103  1.1786 -2.1519 -1.0574
  155TIP3   OH2  425   1.459   6.736   0.219 -0.3355 -0.1922  0.0890
  155TIP3    H1  426   1.455   6.648   0.256 -0.8097 -0.3277 -0.2833
  155TIP3    H2  427   1.552   6.751   0.201 -0.0229  0.0428  1.7324
  156TIP3   OH2  428   4.487   3.122   2.539  0.2612 -1.2330  0.4705
  156TIP3    H1  429   4.501   3.138   2.445 -0.2298 -2.5860  0.1475
  156TIP3    H2  430   4.415   3.059   2.542 -0.3418 -0.5215  1.8020
  157TIP3   OH2  431   1.044   2.909   4.058 -0.0269  0.5660  0.2150
  157TIP3    H1  432   1.046   2.900   4.153 -1.3310 -0.0650  0.2028
  157TIP3    H2  433   0.952   2.898   4.034  0.2522  0.8769 -1.1100
  158TIP3   OH2  434   4.450   6.887   0.041 -0.2612 -0.2560 -0.7224
  158TIP3    H1  435   4.378   6.900   0.103 -0.2998  1.0169 -1.0171
  158TIP3    H2  436   4.507   6.823   0.085 -0.7921 -0.1289  0.1866
  159TIP3   OH2  437   0.128   1.190   1.764 -0.0730 -0.3038 -0.0636
  159TIP3    H1  438   0.201   1.226   1.714  0.7392 -0.7023  0.7814
  159TIP3    H2  439   0.129   1.239   1.846 -1.0676  0.0133 -0.2387
  160TIP3   OH2  440   1.922   0.059   0.287 -0.1572  0.2919  0.0795
  160TIP3    H1  441   1.898   0.152   0.286  0.7540  0.6285  2.5267
  160TIP3    H2  442   1.838   0.013   0.282 -0.6446  1.2320 -0.8098
  161TIP3   OH2  443   0.017   1.560   3.380  0.4123 -0.0139  0.0328
  161TIP3    H1  444   0.065   1.478   3.368  1.2601  0.5319 -0.4279
  161TIP3    H2  445   0.060   1.622   3.321 -1.0070  0.4442 -0.5638
  162TIP3   OH2  446   1.817   6.900   3.122  0.2028 -0.4076 -0.0383
  162TIP3    H1  447   1.839   6.907   3.215  1.0886 -0.4063 -0.2369
  162TIP3    H2  448   1.808   6.991   3.093  0.3349 -0.3967 -0.0452
  163TIP3   OH2  449   2.231   0.208   1.420 -0.3081 -0.5001  0.0172
  163TIP3    H1  450   2.244   0.126   1.372 -1.3261 -0.9171  0.4337
  163TIP3    H2  451   2.233   0.182   1.512  3.0100  0.4739  0.3592
  164TIP3   OH2  452   2.660   2.562   5.773  0.4266 -0.2773  0.0231
  164TIP3    H1  453   2.577   2.540   5.814  0.6692  1.2315  1.4116
  164TIP3    H2  454   2.725   2.552   5.842  1.4084 -1.2178 -0.9836
  165TIP3   OH2  455   6.158   2.388   5.848 -0.1188  0.6853 -0.7813
  165TIP3    H1  456   6.241   2.374   5.893 -0.9819 -1.9007  0.1753
  165TIP3    H2  457   6.161   2.330   5.772  0.3122  3.1913 -2.7995
  166TIP3   OH2  458   2.151   1.786   2.349 -0.1692 -0.6562 -0.1356
  166TIP3    H1  459   2.179   1.767   2.260  1.3555  2.9566 -0.6094
  166TIP3    H2  460   2.232   1.807   2.396 -1.2356  1.1595  1.0308
  167TIP3   OH2  461   1.609   1.906   3.198  0.1874  0.1118 -0.3011
  167TIP3    H1  462   1.551   1.913   3.122  0.6293  1.0627 -0.5640
  167TIP3    H2  463   1.667   1.833   3.177  0.0213  0.0829 -0.6788
  168TIP3   OH2  464   5.949   6.077   1.266  0.5764 -0.4077  0.1169
  168TIP3    H1  465   5.953   6.135   1.191  1.2930  0.6438  0.9358
  168TIP3    H2  466   5.874   6.108   1.316  1.4341  0.3612  0.9653
  169TIP3   OH2  467   6.430   6.481   1.155 -0.0508 -0.2006 -0.1659
  169TIP3    H1  468   6.356   6.524   1.111 -1.3922 -0.0393  2.0825
  169TIP3    H2  469   6.490   6.552   1.178  0.2048 -0.1755 -0.9015
  170TIP3   OH2  470   0.080   2.159   6.166  0.1567 -0.2426  0.5436
  170TIP3    H1  471   0.001   2.197   6.203  0.6231  0.8754  0.4303
  170TIP3    H2  472   0.102   2.215   6.092  1.2627 -0.2982  0.8055
  171TIP3   OH2  473   7.324   0.760   0.117 -0.2378  0.0988  0.8936
  171TIP3    H1  474   7.389   0.753   0.188 -0.3900 -0.9854  0.9366
  171TIP3    H2  475   7.373   0.800   0.045  0.7850 -1.5921  0.5925
  172TIP3   OH2  476   4.871   2.061   0.247 -0.3439  0.6462  0.2059
  172TIP3    H1  477   4.960   2.095   0.253 -0.5728  1.0358  1.8320
  172TIP3    H2  478   4.862   2.035   0.155  1.3825  0.7319 -0.0309
  173TIP3   OH2  479   2.930   0.908   2.532 -0.3095 -0.2450 -0.3988
  173TIP3    H1  480   2.858   0.865   2.486 -0.0297 -0.8230 -0.2951
  173TIP3    H2  481   2.994   0.839   2.546 -0.1874  0.0367  0.4521
  174TIP3   OH2  482   6.513   1.437   1.566  0.2484  0.0462  0.9321
  174TIP3    H1  483   6.600   1.407   1.541  0.9529  2.1246  0.7187
  174TIP3    H2  484   6.495   1.392   1.649  0.8958 -1.4954  0.2644
  175TIP3   OH2  485   4.638   0.831   5.513  0.5578  0.2991  0.7925
  175TIP3    H1  486   4.614   0.892   5.583  2.7064  0.3752  1.5355
  175TIP3    H2  487   4.712   0.872   5.469 -0.0791 -0.2566 -0.8698
  176TIP3   OH2  488   5.016   0.242   2.392 -0.0968  0.3532 -0.5895
  176TIP3    H1  489   4.924   0.266   2.404 -0.4307 -0.1694 -1.8916
  176TIP3    H2  490   5.014   0.147   2.382  0.4370  0.4539 -1.7730
  177TIP3   OH2  491   0.504   6.793   2.562  0.4349 -0.0265 -0.1702
  177TIP3    H1  492   0.422   6.839   2.579  1.1971  1.1880  0.3008
  177TIP3    H2  493   0.532   6.762   2.648 -0.2180 -1.6872 -0.5149
  178TIP3   OH2  494   0.420   3.729   1.446  0.3210  0.1449 -0.6306
  178TIP3    H1  495   0.461   3.663   1.503 -0.8255 -1.0184 -1.1189
  178TIP3    H2  496   0.397   3.801   1.505 -1.6485 -1.3973  0.5966
  179TIP3   OH2  497   5.904   2.749   4.362  0.2979  0.1002  0.0990
  179TIP3    H1  498   5.932   2.836   4.388  0.4722  0.4001 -1.0299
  179TIP3    H2  499   5.810   2.747   4.379 -0.2918  1.5574 -2.5109
  180TIP3   OH2  500   4.956   7.027   5.607 -0.0038  0.8884 -0.3134
  180TIP3    H1  501   4.914   7.105   5.645  1.0013  1.2356  0.1157
  180TIP3    H2  502   4.920   6.954   5.658  0.7425  1.2793  0.8166
  181TIP3   OH2  503   7.221   2.098   5.789  0.2199  0.6311  0.1866
  181TIP3    H1  504   7.154   2.098   5.858 -0.3966 -1.1764 -0.3452
  181TIP3    H2  505   7.243   2.190   5.777 -2.0098  1.2820  0.5650
  182TIP3   OH2  506   2.121   4.685   3.182 -0.2647  0.7846 -0.5753
  182TIP3    H1  507   2.052   4.707   3.118 -0.7043 -0.6686 -0.6263
  182TIP3    H2  508   2.200   4.675   3.129 -0.8133 -1.3656 -1.0896
  183TIP3   OH2  509   1.590   2.053   4.132  0.0667 -0.7133 -0.1821
  183TIP3    H1  510   1.661   2.075   4.193 -1.0340  2.4409  0.1518
  183TIP3    H2  511   1.600   2.116   4.060 -1.7728 -0.8692 -0.6180
  184TIP3   OH2  512   3.129   3.544   1.887 -0.1267  0.3335  0.7994
  184TIP3    H1  513   3.188   3.488   1.836  0.7582  2.4623 -0.6834
  184TIP3    H2  514   3.187   3.589   1.948 -0.5648  0.8582  0.8321
  185TIP3   OH2  515   1.099   2.458   2.103  0.2035 -0.2054  0.1532
  185TIP3    H1  516   1.186   2.449   2.141 -0.2708 -1.8441  0.9552
  185TIP3    H2  517   1.091   2.551   2.083  2.2743 -0.0818 -0.3245
  186TIP3   OH2  518   0.695   2.854   1.786  0.1649  0.6830  0.8806
  186TIP3    H1  519   0.782   2.881   1.816 -0.5295  0.5379  3.2452
  186TIP3    H2  520   0.699   2.758   1.785  0.7302  0.6779 -1.4309
  187TIP3   OH2  521   5.473   4.687   3.604  0.3000  0.3701 -0.9773
  187TIP3    H1  522   5.410   4.713   3.671 -0.3964  0.7780 -1.7742
  187TIP3    H2  523   5.434   4.715   3.521  1.3933  0.3609 -1.5209
  188TIP3   OH2  524   2.301   4.288   1.456 -0.1097  0.2717  0.0851
  188TIP3    H1  525   2.369   4.248   1.510  0.4293 -0.0155 -0.7918
  188TIP3    H2  526   2.291   4.376   1.491  1.1906  0.5449 -0.2032
  189TIP3   OH2  527   1.417   0.838   2.632  0.6884 -1.0153  0.8158
  189TIP3    H1  528   1.500   0.847   2.677  0.3974  0.0193  1.1600
  189TIP3    H2  529   1.358   0.801   2.698  0.2760  0.4505  1.2944
  190TIP3   OH2  530   0.721   7.170   1.828 -0.2713 -0.2068  0.6133
  190TIP3    H1  531   0.786   7.139   1.892  0.1780  0.0966  0.3115
  190TIP3    H2  532   0.674   7.091   1.803  0.7144 -0.6361  0.0237
  191TIP3   OH2  533   0.462   1.936   6.091  0.5000  0.0624 -0.4951
  191TIP3    H1  534   0.500   1.863   6.043  0.8790  0.0883 -0.2371
  191TIP3    H2  535   0.392   1.897   6.143 -0.8629  0.2358 -2.1007
  192TIP3   OH2  536   7.195   5.517   5.284 -0.6544  0.2117  0.2016
  192TIP3    H1  537   7.183   5.423   5.298  0.0457 -0.1232 -1.2316
  192TIP3    H2  538   7.288   5.527   5.263 -0.4674  1.3971  1.4234
  193TIP3   OH2  539   4.721   2.323   0.545 -0.1241  0.3935 -0.3997
  193TIP3    H1  540   4.788   2.378   0.586  0.6964  0.0521 -1.2351
  193TIP3    H2  541   4.638   2.361   0.574  0.4022  0.3290  1.3281
  194TIP3   OH2  542   5.984   1.824   1.950 -0.2809  0.4495 -0.2409
  194TIP3    H1  543   6.054   1.858   2.005 -0.4403  1.4429 -0.6370
  194TIP3    H2  544   5.959   1.741   1.991  1.8477 -0.4745 -0.6945
  195TIP3   OH2  545   3.094   4.350  -0.012 -0.3744 -0.4145  0.0964
  195TIP3    H1  546   3.002   4.377  -0.004 -0.8453 -2.0817  0.6756
  195TIP3    H2  547   3.136   4.385   0.066 -0.8435 -0.8837  0.5600
  196TIP3   OH2  548   6.108   5.130   3.701  0.4349 -0.0073 -0.0070
  196TIP3    H1  549   6.038   5.193   3.685  1.1270  0.7735 -0.0731
  196TIP3    H2  550   6.120   5.130   3.796  1.4103  1.0940 -0.0995
  197TIP3   OH2  551   0.173   5.526   4.651  0.9797 -0.1383 -0.3718
  197TIP3    H1  552   0.121   5.606   4.642  1.9855  0.5242 -0.4749
  197TIP3    H2  553   0.197   5.503   4.561 -0.8300 -1.6341 -0.5357
  198TIP3   OH2  554   5.294   2.705   1.989 -0.2508  0.0448  0.1238
  198TIP3    H1  555   5.312   2.760   2.064  1.0540  0.9127 -0.7836
  198TIP3    H2  556   5.198   2.707   1.980 -0.6217 -1.4040  2.6847
  199TIP3   OH2  557   6.820   4.662   0.438  0.4084  0.0386  0.1640
  199TIP3    H1  558   6.871   4.581   0.438 -0.7479 -0.7147  0.7212
  199TIP3    H2  559   6.851   4.710   0.515  0.9829  0.0653 -0.0775
  200TIP3   OH2  560   4.109   3.627   3.183  0.0901 -0.6598 -0.0584
  200TIP3    H1  561   4.032   3.653   3.134  1.9545 -0.2155 -2.9819
  200TIP3    H2  562   4.091   3.537   3.211 -0.6888 -1.3733 -2.5845
  201TIP3   OH2  563   0.983   4.399   2.850 -0.7856 -0.1826  0.0319
  201TIP3    H1  564   1.032   4.348   2.915  0.3059  1.0023  0.1871
  201TIP3    H2  565   1.046   4.415   2.780 -1.3763  0.2074 -0.4206
  202TIP3   OH2  566   4.205   1.777   4.542  0.3369  0.5363  0.2432
  202TIP3    H1  567   4.207   1.873   4.545  1.1477  0.5113  0.7208
  202TIP3    H2  568   4.287   1.752   4.501 -1.0827  0.0952 -2.5788
  203TIP3   OH2  569   6.181   0.939   3.578  0.5745 -0.2057 -0.6137
  203TIP3    H1  570   6.240   0.966   3.648 -0.4833 -0.9216  0.5904
  203TIP3    H2  571   6.198   0.846   3.566  0.1270 -0.2801 -0.7006
  204TIP3   OH2  572   5.884   7.094   3.360  0.5835 -0.8196  0.6694
  204TIP3    H1  573   5.842   7.098   3.446 -1.0899  0.8921 -0.1489
  204TIP3    H2  574   5.855   7.174   3.316  1.4700 -1.6064 -1.4557
  205TIP3   OH2  575   0.667   4.947   2.697 -0.0027  0.1866 -0.4872
  205TIP3    H1  576   0.726   4.874   2.715  1.2024  1.2242 -0.0532
  205TIP3    H2  577   0.589   4.928   2.748  0.4902 -0.5662  0.0026
  206TIP3   OH2  578   0.690   5.131   4.241 -0.2650  0.2150 -0.0619
  206TIP3    H1  579   0.714   5.083   4.321 -0.5195 -1.0569 -0.7156
  206TIP3    H2  580   0.761   5.111   4.179  0.3857  1.9002  0.0891
  207TIP3   OH2  581   5.120   3.407   1.801 -0.3104 -0.1606 -0.1468
  207TIP3    H1  582   5.170   3.481   1.836  1.1911 -0.6184 -1.2313
  207TIP3    H2  583   5.029   3.438   1.800  0.3930  2.1236 -1.6048
  208TIP3   OH2  584   6.093   5.629   1.459 -0.5662 -0.5301 -0.1761
  208TIP3    H1  585   6.119   5.617   1.550  0.4483 -0.8484 -0.4849
  208TIP3    H2  586   6.024   5.695   1.462 -0.1252 -0.0836  0.7712
  209TIP3   OH2  587   2.342   1.233   1.144 -0.8644 -0.6059  0.4971
  209TIP3    H1  588   2.307   1.318   1.116  0.0307 -0.2519  0.4166
  209TIP3    H2  589   2.408   1.211   1.078  1.1870  0.1726  2.1734
  210TIP3   OH2  590   6.658   2.367   5.497 -0.2918 -0.0539  0.1227
  210TIP3    H1  591   6.624   2.333   5.414 -1.0206  0.6236  0.1225
  210TIP3    H2  592   6.633   2.459   5.496  0.9836  0.3016  0.4484
  211TIP3   OH2  593   7.195   3.831   1.902 -0.1456  0.5042 -1.0356
  211TIP3    H1  594   7.201   3.737   1.883  0.5618  0.2618  0.3037
  211TIP3    H2  595   7.108   3.843   1.938  0.1310  0.1612 -0.2306
  212TIP3   OH2  596   5.665   2.055   5.207 -0.0967  0.3157 -0.3470
  212TIP3    H1  597   5.646   1.968   5.172 -0.7148 -0.3950  1.6369
  212TIP3    H2  598   5.753   2.047   5.243 -0.1924  0.4821 -0.0779
  213TIP3   OH2  599   0.664   6.180   5.743  0.0688  0.2453 -0.3900
  213TIP3    H1  600   0.675   6.207   5.652  1.1985 -1.5542 -0.8274
  213TIP3    H2  601   0.660   6.085   5.740 -1.3271  0.1963  1.3285
  214TIP3   OH2  602   1.067   0.681   1.337 -0.4062 -0.2438  0.1662
  214TIP3    H1  603   1.123   0.687   1.259 -0.6799 -1.1183 -0.1195
  214TIP3    H2  604   1.070   0.768   1.376 -0.5458  0.3173 -1.0239
  215TIP3   OH2  605   7.496   0.581   6.129  0.1721 -0.2619 -0.0471
  215TIP3    H1  606   7.502   0.626   6.213 -0.9449  2.7317 -1.4116
  215TIP3    H2  607   7.403   0.586   6.106  0.4835 -0.8673 -1.5351
  216TIP3   OH2  608   6.135   2.044   1.136  0.1868  0.2439  0.3228
  216TIP3    H1  609   6.205   1.981   1.151  0.1317  0.0116 -0.3502
  216TIP3    H2  610   6.058   2.005   1.178  0.0317 -0.3920 -0.5193
  217TIP3   OH2  611   3.821   0.450   1.400  0.0905 -0.2983 -0.0864
  217TIP3    H1  612   3.911   0.421   1.410  0.1380  0.3540  1.8893
  217TIP3    H2  613   3.777   0.377   1.357  1.4935 -0.7066 -0.8967
  218TIP3   OH2  614   3.653   2.797   4.964 -0.3890  0.3326  0.0704
  218TIP3    H1  615   3.606   2.771   4.884 -0.4423  1.8615 -0.4250
  218TIP3    H2  616   3.615   2.742   5.033 -0.0425 -1.3314 -0.9997
  219TIP3   OH2  617   6.477   0.208   1.240  0.3288  0.1437  0.0250
  219TIP3    H1  618   6.490   0.144   1.169 -1.8376 -1.4641  0.9582
  219TIP3    H2  619   6.385   0.235   1.230  0.8056  2.0421  0.5560
  220TIP3   OH2  620   5.514   6.195   0.084 -0.2500  0.4543 -0.3663
  220TIP3    H1  621   5.554   6.231   0.005 -1.6149  1.6592 -0.5533
  220TIP3    H2  622   5.585   6.149   0.128  0.3083 -1.2436 -2.8306
  221TIP3   OH2  623   5.633   3.542   5.253  0.0602  0.0519 -0.0957
  221TIP3    H1  624   5.542   3.543   5.222 -0.1918  0.2672  0.6167
  221TIP3    H2  625   5.645   3.452   5.285 -0.3274  0.3552  0.9677
  222TIP3   OH2  626   5.359   3.108   2.489  0.2916 -0.3108 -0.2924
  222TIP3    H1  627   5.279   3.086   2.442 -1.2071  0.0341  1.9742
  222TIP3    H2  628   5.358   3.204   2.494  0.2238 -0.3589  0.7427
  223TIP3   OH2  629   4.534   2.301   2.436 -0.6665 -0.3809  0.3527
  223TIP3    H1  630   4.560   2.311   2.527 -0.0895  1.0300  0.0523
  223TIP3    H2  631   4.456   2.244   2.440  0.3815 -1.8221  1.5381
  224TIP3   OH2  632   4.986   2.455   1.183 -0.1881  0.2883 -0.3771
  224TIP3    H1  633   4.902   2.478   1.222  0.1038 -0.2846  0.6429
  224TIP3    H2  634   4.964   2.423   1.095 -0.8836  1.3990 -0.6297
  225TIP3   OH2  635   6.507   7.132   2.395  0.5401 -0.4853  0.3148
  225TIP3    H1  636   6.477   7.200   2.456 -0.2013 -0.4210 -0.1091
  225TIP3    H2  637   6.440   7.064   2.399  0.6024 -0.5870 -0.2474
  226TIP3   OH2  638   5.493   4.298   5.544 -0.1370 -0.2162 -0.0446
  226TIP3    H1  639   5.442   4.218   5.554 -2.6624  1.2257 -0.5610
  226TIP3    H2  640   5.484   4.321   5.451 -2.3949  2.3710  0.6686
  227TIP3   OH2  641   0.570   4.415   4.079 -0.2783 -0.1881 -0.0134
  227TIP3    H1  642   0.659   4.444   4.096 -0.5283  0.7022 -0.1989
  227TIP3    H2  643   0.515   4.486   4.111 -0.8845 -0.2266 -0.9431
  228TIP3   OH2  644   5.780   2.442   3.369  0.3572 -0.3317 -0.1154
  228TIP3    H1  645   5.727   2.375   3.412  0.2139  0.1886  0.5231
  228TIP3    H2  646   5.870   2.419   3.391  0.2622  0.1709  0.8163
  229TIP3   OH2  647   1.635   5.985   5.904 -0.1729 -0.1321 -0.1178
  229TIP3    H1  648   1.613   5.993   5.997 -1.9053  0.6679 -0.5448
  229TIP3    H2  649   1.722   5.945   5.903  0.6316  1.3466  1.8923
  230TIP3   OH2  650   0.249   5.149   4.993  0.3376 -0.3712 -0.7772
  230TIP3    H1  651   0.344   5.157   4.991  0.3054 -0.0137 -3.1650
  230TIP3    H2  652   0.219   5.183   4.909 -1.8497 -1.2934 -0.4613
  231TIP3   OH2  653   6.121   4.168   2.483 -0.0248  0.6218 -0.3576
  231TIP3    H1  654   6.056   4.237   2.469 -0.7634 -0.1349 -0.7493
  231TIP3    H2  655   6.164   4.191   2.565  0.0247  1.7623 -0.6856
  232TIP3   OH2  656   5.376   0.160   2.190 -0.2722 -0.0734  0.2974
  232TIP3    H1  657   5.282   0.149   2.176  0.0481 -0.7503 -1.6558
  232TIP3    H2  658   5.398   0.097   2.258 -1.3476  0.6602  1.3544
  233TIP3   OH2  659   2.631   6.659   0.803 -0.3867  0.0401  0.0746
  233TIP3    H1  660   2.685   6.623   0.874 -0.5566 -0.2450  0.0583
  233TIP3    H2  661   2.688   6.659   0.727 -0.3666 -0.1346  0.0893
  234TIP3   OH2  662   2.959   5.282   4.444  0.9492  0.1918  0.2204
  234TIP3    H1  663   2.974   5.300   4.351  1.2451 -2.6080 -0.3468
  234TIP3    H2  664   2.869   5.250   4.447  1.5482 -1.5658  0.5403
  235TIP3   OH2  665   6.471   4.875   0.393  0.2384 -0.4380  0.0753
  235TIP3    H1  666   6.443   4.801   0.339  1.4206 -0.1247 -1.0108
  235TIP3    H2  667   6.393   4.931   0.398 -1.0725 -2.2585  1.9223
  236TIP3   OH2  668   1.988   6.077   4.486  0.3140 -0.2977 -0.4453
  236TIP3    H1  669   2.047   6.097   4.558 -0.0572  0.7406 -0.4196
  236TIP3    H2  670   2.045   6.053   4.413  0.8312  1.4946 -0.6702
  237TIP3   OH2  671   1.208   4.430   2.685 -0.5751  0.1176 -0.0161
  237TIP3    H1  672   1.221   4.344   2.644 -0.2239  0.4666 -0.6359
  237TIP3    H2  673   1.258   4.424   2.767  0.5926  0.2053 -0.7072
  238TIP3   OH2  674   2.915   6.146   1.202  0.1873  0.3566 -0.2574
  238TIP3    H1  675   2.900   6.052   1.206 -0.1645  0.4121 -0.1959
  238TIP3    H2  676   2.827   6.184   1.189  0.1793  0.7389  0.8023
  239TIP3   OH2  677   4.288   4.723   4.935 -0.3480  0.1931  0.6152
  239TIP3    H1  678   4.382   4.716   4.954 -0.2771  0.9506  0.5628
  239TIP3    H2  679   4.277   4.812   4.903 -0.8108 -0.4102 -0.9659
  240TIP3   OH2  680   2.318   1.031   1.677 -0.3104  0.7097  0.5891
  240TIP3    H1  681   2.232   1.060   1.707 -1.1985 -0.5782 -0.6200
  240TIP3    H2  682   2.345   1.098   1.614 -0.8342  0.6568  0.3037
  241TIP3   OH2  683   3.812   6.322   0.535 -0.0791  0.7719  0.5132
  241TIP3    H1  684   3.774   6.354   0.453 -0.8391  1.2220  1.0323
  241TIP3    H2  685   3.881   6.385   0.556  0.6361  0.2334 -0.1670
  242TIP3   OH2  686   6.294   4.657   1.805 -0.2165 -0.4394 -0.8264
  242TIP3    H1  687   6.273   4.596   1.734 -1.2368  0.2627 -1.1511
  242TIP3    H2  688   6.292   4.603   1.884 -0.5130 -0.9524 -1.1756
  243TIP3   OH2  689   4.317   1.355   4.165  0.0466 -0.2817 -0.0876
  243TIP3    H1  690   4.338   1.314   4.250 -0.3232  1.6548  1.0010
  243TIP3    H2  691   4.398   1.346   4.114  2.0196  2.5388  2.1858
  244TIP3   OH2  692   5.517   3.755   4.875  0.0696 -0.3187 -0.4119
  244TIP3    H1  693   5.542   3.713   4.957 -0.0491 -1.7959 -1.1054
  244TIP3    H2  694   5.465   3.830   4.902  0.2984 -0.5907  0.8724
  245TIP3   OH2  695   3.444   1.982   6.159 -0.2507  0.7703  1.0938
  245TIP3    H1  696   3.415   2.027   6.238 -2.0693 -0.7218  1.3513
  245TIP3    H2  697   3.393   1.901   6.157  2.2078 -0.8871  0.1904
  246TIP3   OH2  698   2.925   4.382   2.771 -0.0879 -0.0393 -0.0771
  246TIP3    H1  699   3.012   4.414   2.793  0.1067  0.4541 -1.4491
  246TIP3    H2  700   2.867   4.426   2.832  0.5800 -0.1061  0.6253
  247TIP3   OH2  701   0.561   2.106   5.739 -0.0098  0.2675  0.1766
  247TIP3    H1  702   0.637   2.135   5.790  0.3829 -0.7078  0.1743
  247TIP3    H2  703   0.589   2.024   5.700 -0.0150  1.3573 -2.2843
  248TIP3   OH2  704   6.442   3.576   2.654  0.2028 -0.0482  0.2426
  248TIP3    H1  705   6.410   3.619   2.733 -1.2947  0.7224 -0.7420
  248TIP3    H2  706   6.510   3.634   2.621 -0.3930  0.5513  0.0332
  249TIP3   OH2  707   6.621   0.679   3.313  0.7096  0.3316 -0.3278
  249TIP3    H1  708   6.688   0.746   3.299  0.4240  1.5515  3.2183
  249TIP3    H2  709   6.670   0.601   3.340  0.8096  0.5571  0.1451
  250TIP3   OH2  710   0.525   4.821   2.062  0.4083 -0.3931  0.1407
  250TIP3    H1  711   0.591   4.888   2.048 -0.1840  0.6731  2.1271
  250TIP3    H2  712   0.473   4.821   1.981  1.2138  0.5923 -0.3977
  251TIP3   OH2  713   2.921   5.310   3.567 -0.8153 -0.7565 -0.1649
  251TIP3    H1  714   2.948   5.396   3.535 -1.7794  0.1376  1.2958
  251TIP3    H2  715   2.984   5.289   3.636 -0.4612 -1.3418 -0.6514
  252TIP3   OH2  716   6.763   6.238   5.742 -0.6833 -0.1677  0.1171
  252TIP3    H1  717   6.680   6.285   5.737 -1.6357 -1.7481  0.7693
  252TIP3    H2  718   6.754   6.167   5.678  0.2462 -0.2597  0.0749
  253TIP3   OH2  719   6.100   6.685   0.444  0.1707  0.1972 -0.4037
  253TIP3    H1  720   6.188   6.658   0.416  0.4495  1.1324 -0.4755
  253TIP3    H2  721   6.102   6.780   0.439 -0.7332  0.2437 -0.0317
  254TIP3   OH2  722   3.495   0.920   0.736 -0.3386 -0.2003  0.0091
  254TIP3    H1  723   3.554   0.965   0.675 -1.5665  0.1072 -0.9722
  254TIP3    H2  724   3.464   0.843   0.688 -1.4707  0.1518  0.1441
  255TIP3   OH2  725   3.546   5.100   3.280 -0.4980 -0.3336 -0.2297
  255TIP3    H1  726   3.626   5.152   3.278 -1.1826  0.8537  1.2173
  255TIP3    H2  727   3.497   5.129   3.203 -1.0066  1.4651  0.7130
  256TIP3   OH2  728   3.192   4.766   0.590  1.3639  0.2981 -0.6215
  256TIP3    H1  729   3.150   4.702   0.648 -1.8564  2.4527 -0.3429
  256TIP3    H2  730   3.281   4.775   0.625  0.6401 -1.0514  1.8072
  257TIP3   OH2  731   0.078   6.093   4.206 -0.2291  0.5755  0.1440
  257TIP3    H1  732   0.129   6.013   4.220 -0.6096  0.0873 -1.1062
  257TIP3    H2  733   0.139   6.164   4.224  0.3939 -0.0028  0.3498
  258TIP3   OH2  734   6.894   5.551   4.139 -0.5721 -0.4499 -0.0131
  258TIP3    H1  735   6.814   5.501   4.151 -1.9350  0.8343 -2.7757
  258TIP3    H2  736   6.940   5.505   4.068 -0.1727  0.2882 -0.2369
  259TIP3   OH2  737   6.316   5.800   1.470  0.0788  0.1975  0.0844
  259TIP3    H1  738   6.289   5.709   1.479  0.7765  0.1266  1.8767
  259TIP3    H2  739   6.411   5.796   1.461  0.0337  0.7176 -0.7199
  260TIP3   OH2  740   2.044   6.521   2.087  0.0570  0.5950  0.4321
  260TIP3    H1  741   2.053   6.538   2.181  3.2338  1.0916  0.1499
  260TIP3    H2  742   2.086   6.437   2.074 -1.4592 -0.0668 -0.4263
  261TIP3   OH2  743   4.068   5.165   3.474  0.3222 -0.2043 -0.2023
  261TIP3    H1  744   4.062   5.099   3.406 -1.7233  0.8729 -1.1555
  261TIP3    H2  745   4.127   5.128   3.539  0.3508 -2.3284 -1.3767
  262TIP3   OH2  746   4.634   5.177   2.920 -0.0835  0.4265 -0.2227
  262TIP3    H1  747   4.575   5.251   2.905 -1.2169 -0.4959 -0.3876
  262TIP3    H2  748   4.667   5.190   3.009 -0.2450  1.1398 -0.2594
  263TIP3   OH2  749   3.234   6.193   3.020  0.7052  0.1344  0.7929
  263TIP3    H1  750   3.173   6.210   2.948  0.2685  1.9136  1.5287
  263TIP3    H2  751   3.266   6.105   3.004 -1.2107 -0.4321 -0.2588
  264TIP3   OH2  752   5.481   5.915   5.786 -0.1180 -0.1338  0.1036
  264TIP3    H1  753   5.478   5.840   5.727  0.6478  0.5172 -0.8000
  264TIP3    H2  754   5.392   5.921   5.823 -0.9509  0.1032 -1.8390
  265TIP3   OH2  755   2.479   6.916   3.326  0.4431  0.2445 -0.2793
  265TIP3    H1  756   2.441   6.927   3.239  1.8154  1.8660 -0.7373
  265TIP3    H2  757   2.569   6.949   3.316  0.7225  0.1396  1.6646
  266TIP3   OH2  758   2.823   0.477   0.883 -0.0365 -0.3890 -0.0016
  266TIP3    H1  759   2.738   0.520   0.877  0.5103  0.7032 -0.2903
  266TIP3    H2  760   2.865   0.496   0.799 -0.0509 -2.1379 -0.4302
  267TIP3   OH2  761   5.509   5.090   2.404  0.4028  0.5047  0.1661
  267TIP3    H1  762   5.463   5.021   2.355  0.5255  1.0111 -0.6859
  267TIP3    H2  763   5.460   5.098   2.486 -0.4317  0.3429 -0.3024
  268TIP3   OH2  764   0.245   3.173   1.156 -0.5564 -0.2453 -0.0113
  268TIP3    H1  765   0.263   3.255   1.111  0.8211 -1.1724 -1.2643
  268TIP3    H2  766   0.182   3.196   1.224 -0.3524  1.7946 -0.4463
  269TIP3   OH2  767   2.207   0.539   6.070  0.2094 -0.6779 -0.3899
  269TIP3    H1  768   2.205   0.596   6.147 -0.3847 -0.4247 -0.5915
  269TIP3    H2  769   2.264   0.585   6.008 -0.1995 -0.3428 -0.5191
  270TIP3   OH2  770   3.243   4.615   2.309  0.1364  0.1660 -1.0373
  270TIP3    H1  771   3.278   4.690   2.357 -1.0368 -0.0053  0.1465
  270TIP3    H2  772   3.209   4.557   2.377 -0.1995 -0.8041 -2.0122
  271TIP3   OH2  773   2.899   5.085   2.833  0.6228 -1.2358  0.8292
  271TIP3    H1  774   2.911   5.098   2.738 -0.2046 -1.8091  0.6345
  271TIP3    H2  775   2.836   5.153   2.858  0.6786 -1.2225  0.9318
  272TIP3   OH2  776   7.164   2.585   5.374  0.3673  0.0007  0.0053
  272TIP3    H1  777   7.208   2.595   5.458 -1.4520  0.1096  0.9747
  272TIP3    H2  778   7.097   2.519   5.389 -1.9350  2.0778 -0.5093
  273TIP3   OH2  779   5.772   5.996   2.299 -0.1464  0.0806 -0.4932
  273TIP3    H1  780   5.839   5.963   2.359 -0.0082  0.7189 -0.2845
  273TIP3    H2  781   5.777   6.091   2.308 -2.0573  0.1368  0.6290
  274TIP3   OH2  782   7.554   4.924   0.137  0.0220 -0.4199  0.1835
  274TIP3    H1  783   7.604   4.988   0.087  0.8788 -1.6693 -0.6511
  274TIP3    H2  784   7.537   4.853   0.074  0.5093 -1.7187  1.4507
  275TIP3   OH2  785   5.371   3.272   5.858  0.4945 -0.3463  0.4132
  275TIP3    H1  786   5.286   3.260   5.899 -0.1441  0.7977 -0.5480
  275TIP3    H2  787   5.432   3.225   5.916 -0.6688 -0.5662  1.4952
  276TIP3   OH2  788   0.236   6.213   3.455 -0.1686  0.0993  0.1306
  276TIP3    H1  789   0.311   6.181   3.405 -0.6386 -0.2421 -0.3709
  276TIP3    H2  790   0.264   6.299   3.488  0.3554  0.0740 -0.2362
  277TIP3   OH2  791   0.459   6.301   2.358 -0.0541  0.0631 -0.3243
  277TIP3    H1  792   0.527   6.312   2.291  0.3013 -0.7221 -0.1145
  277TIP3    H2  793   0.377   6.316   2.312  0.2333  0.3423 -0.7474
  278TIP3   OH2  794   5.613   5.558   5.905  0.3922 -0.6434  0.0428
  278TIP3    H1  795   5.584   5.617   5.836 -1.2889 -0.5351  0.7945
  278TIP3    H2  796   5.664   5.491   5.859  1.0617  0.5470 -1.0043
  279TIP3   OH2  797   0.015   5.192   5.753 -0.3277  0.1806 -0.4977
  279TIP3    H1  798   0.096   5.241   5.764  0.0987 -0.4899 -0.5688
  279TIP3    H2  799   0.029   5.111   5.803 -0.7019 -0.2214 -1.0311
  280TIP3   OH2  800   6.823   0.237   2.382 -0.3003  0.1315  0.4626
  280TIP3    H1  801   6.839   0.277   2.467 -0.3784 -1.6846  1.3691
  280TIP3    H2  802   6.895   0.174   2.371 -0.6722 -0.1453 -0.4970
  281TIP3   OH2  803   0.853   0.791   0.256  0.3874 -0.0222  0.1189
  281TIP3    H1  804   0.854   0.791   0.352 -0.8323  0.0202  0.1493
  281TIP3    H2  805   0.760   0.787   0.234  0.4884  2.5196 -1.0771
  282TIP3   OH2  806   6.856   2.729   3.456  0.3055  0.2039  0.1525
  282TIP3    H1  807   6.827   2.664   3.393  1.3730 -1.0371  0.8827
  282TIP3    H2  808   6.934   2.769   3.416  1.1274 -0.7535  0.7374
  283TIP3   OH2  809   3.181   1.912   5.197 -0.0625 -0.3415  0.1612
  283TIP3    H1  810   3.103   1.949   5.239  0.0915 -0.6308  0.7067
  283TIP3    H2  811   3.180   1.819   5.221  1.5132  0.0185  1.8695
  284TIP3   OH2  812   4.486   3.763   4.091 -0.4945  0.2882 -0.2018
  284TIP3    H1  813   4.428   3.802   4.156 -0.5864 -1.1825  0.6388
  284TIP3    H2  814   4.561   3.731   4.142  0.6648  1.3960 -1.1568
  285TIP3   OH2  815   4.090   4.132   5.427 -0.2895  0.2793  0.1736
  285TIP3    H1  816   4.045   4.175   5.501  0.1316  0.0523  0.5650
  285TIP3    H2  817   4.027   4.137   5.355 -0.2793  1.5015  0.2216
  286TIP3   OH2  818   4.646   3.719   0.048 -0.1795 -0.0152  0.0740
  286TIP3    H1  819   4.576   3.673   0.002  0.9708 -0.4276 -1.3451
  286TIP3    H2  820   4.620   3.716   0.140 -3.7781  2.8985 -0.6318
  287TIP3   OH2  821   4.749   3.347   5.140  0.0255  0.1795 -0.2889
  287TIP3    H1  822   4.699   3.358   5.059 -0.0552  0.1731 -0.2405
  287TIP3    H2  823   4.727   3.425   5.191  1.1756  0.8951 -0.8511
  288TIP3   OH2  824   6.946   5.343   1.467  0.2826 -0.0534 -0.1016
  288TIP3    H1  825   7.034   5.319   1.496  1.0172  0.3301 -1.8886
  288TIP3    H2  826   6.888   5.280   1.510  1.6986 -2.0899 -1.0567
  289TIP3   OH2  827   1.297   3.997   5.126  0.0113  0.0351  0.1176
  289TIP3    H1  828   1.241   4.068   5.096  0.3466  0.5285  0.6476
  289TIP3    H2  829   1.240   3.920   5.127 -0.4024  0.3300 -0.2731
  290TIP3   OH2  830   3.027   1.267   0.866 -0.5588 -0.2543  0.7383
  290TIP3    H1  831   3.048   1.176   0.887  0.6874  0.1748  1.4303
  290TIP3    H2  832   3.103   1.317   0.895 -0.9402  0.9492 -0.2257
  291TIP3   OH2  833   7.420   4.730   0.917 -0.0518  0.2492  0.5234
  291TIP3    H1  834   7.408   4.651   0.970 -0.2046  0.8049  1.3374
  291TIP3    H2  835   7.449   4.796   0.979 -1.0529  1.1434  0.0746
  292TIP3   OH2  836   4.189   4.389   5.595 -0.6265 -0.1953 -0.5065
  292TIP3    H1  837   4.151   4.477   5.597 -1.0501 -0.3852  0.4710
  292TIP3    H2  838   4.276   4.401   5.557 -0.2266  0.8473  0.6562
  293TIP3   OH2  839   5.703   7.039   1.819  0.2351  0.2131 -0.2347
  293TIP3    H1  840   5.706   7.131   1.792  0.3812  0.3692  0.2887
  293TIP3    H2  841   5.792   7.020   1.849 -0.3406  0.6222  1.9158
  294TIP3   OH2  842   3.959   1.000   2.146 -0.4390 -0.4516 -0.2897
  294TIP3    H1  843   3.993   1.022   2.059 -3.1456 -0.9620 -1.5969
  294TIP3    H2  844   3.905   0.922   2.131  0.1442 -1.4124  2.1571
  295TIP3   OH2  845   5.646   4.899   5.837 -0.8406  0.6199  0.3155
  295TIP3    H1  846   5.720   4.892   5.777  0.4048  0.2409  1.8374
  295TIP3    H2  847   5.593   4.821   5.820 -0.5249  0.5340 -0.2854
  296TIP3   OH2  848   3.062   0.916   4.392 -0.7608  0.3793  0.1961
  296TIP3    H1  849   3.131   0.863   4.352 -0.9276 -1.2229  1.8782
  296TIP3    H2  850   3.109   0.985   4.439 -0.0330 -1.6032  2.6582
  297TIP3   OH2  851   5.073   6.127   1.992 -0.0980 -0.4321 -0.2885
  297TIP3    H1  852   5.014   6.137   2.067 -0.6532 -1.5994 -0.5325
  297TIP3    H2  853   5.149   6.180   2.014 -0.1181 -0.9615  1.2489
  298TIP3   OH2  854   1.077   4.503   0.189  0.2915  0.0563 -0.2123
  298TIP3    H1  855   1.129   4.430   0.222 -0.2364  0.7033  2.2620
  298TIP3    H2  856   1.140   4.560   0.146  0.5849 -2.2094 -3.0929
  299TIP3   OH2  857   6.287   6.353   5.044  0.8027 -0.0614  0.9032
  299TIP3    H1  858   6.334   6.392   4.971  1.1851 -0.8941  0.6974
  299TIP3    H2  859   6.218   6.301   5.003 -0.9175  1.8580  1.2145
  300TIP3   OH2  860   7.402   4.474   2.747 -0.2238  0.2124  0.3192
  300TIP3    H1  861   7.490   4.477   2.784  0.5079 -1.5024 -1.1470
  300TIP3    H2  862   7.347   4.445   2.820  0.6928 -0.2410  0.8452
  301TIP3   OH2  863   2.376   6.337   5.058 -0.2314 -0.3587  0.5459
  301TIP3    H1  864   2.443   6.370   4.998 -2.9517  0.5555 -2.2654
  301TIP3    H2  865   2.375   6.401   5.130  1.3527 -0.0279  0.3172
  302TIP3   OH2  866   1.623   2.363   5.995 -0.0187  0.1308  0.4992
  302TIP3    H1  867   1.699   2.305   6.011 -0.1181 -0.1301  0.0302
  302TIP3    H2  868   1.549   2.313   6.028 -0.1825 -0.2682 -0.4528
  303TIP3   OH2  869   2.388   4.488   3.428 -0.0890 -0.0612 -0.2273
  303TIP3    H1  870   2.449   4.561   3.433 -0.3898  0.2254 -0.7116
  303TIP3    H2  871   2.441   4.411   3.449  0.2877  0.2590  0.0171
  304TIP3   OH2  872   1.029   5.267   5.422 -0.3806 -0.6331  0.3649
  304TIP3    H1  873   1.041   5.362   5.413  0.7266 -0.9198 -1.6870
  304TIP3    H2  874   1.040   5.251   5.516  2.0928  0.9543  0.4595
  305TIP3   OH2  875   2.422   2.274   2.622 -0.6507  0.3404 -0.8712
  305TIP3    H1  876   2.418   2.322   2.540 -0.5588 -0.6311 -1.4650
  305TIP3    H2  877   2.515   2.274   2.645 -0.8102  1.6075 -0.1377
  306TIP3   OH2  878   1.053   7.030   4.756 -0.0297 -0.0992  0.3519
  306TIP3    H1  879   1.092   7.008   4.840  1.6320  0.7746 -0.1587
  306TIP3    H2  880   1.108   7.100   4.721 -0.8066 -0.3045 -1.3797
  307TIP3   OH2  881   4.649   2.735   4.450 -0.0717  0.1656  0.1597
  307TIP3    H1  882   4.713   2.694   4.508 -0.0404  0.3851  0.2815
  307TIP3    H2  883   4.565   2.697   4.476 -0.0642  0.2997  0.3836
  308TIP3   OH2  884   7.280   2.472   4.741 -0.2627 -0.2006  0.6361
  308TIP3    H1  885   7.300   2.415   4.815  0.2648 -1.5033 -0.4625
  308TIP3    H2  886   7.283   2.560   4.777  1.0089 -0.7364  1.9399
  309TIP3   OH2  887   2.096   3.272   4.271 -0.2665  0.2558  0.1527
  309TIP3    H1  888   2.080   3.181   4.294  2.9162 -0.8951 -1.4741
  309TIP3    H2  889   2.065   3.280   4.181 -1.8032  1.2479  0.7320
  310TIP3   OH2  890   6.730   2.390   2.385 -0.0880 -0.3753  0.0898
  310TIP3    H1  891   6.775   2.354   2.309  0.9389 -0.3387  0.6563
  310TIP3    H2  892   6.798   2.439   2.432 -0.9994  0.6813  0.3487
  311TIP3   OH2  893   4.088   1.744   4.270  0.1864 -0.0604 -0.1198
  311TIP3    H1  894   4.132   1.762   4.353  0.0978  1.4627 -0.3719
  311TIP3    H2  895   4.159   1.729   4.208  0.2458 -2.0354  0.3618
  312TIP3   OH2  896   4.757   4.438   1.790 -0.4494 -0.1617 -0.0885
  312TIP3    H1  897   4.776   4.423   1.697 -1.8892  0.5461 -0.5360
  312TIP3    H2  898   4.778   4.355   1.833 -0.7320 -0.8446 -1.2256
  313TIP3   OH2  899   2.523   0.173   0.290 -0.2100  0.0501  0.0360
  313TIP3    H1  900   2.436   0.197   0.259 -0.6032 -2.2343 -0.8200
  313TIP3    H2  901   2.537   0.084   0.258  1.6966 -0.3552  1.7279
  314TIP3   OH2  902   4.220   4.738   5.204  0.5366  0.3117  0.6409
  314TIP3    H1  903   4.257   4.710   5.121 -3.0222  1.1064 -1.4297
  314TIP3    H2  904   4.164   4.666   5.231  1.2133  0.2967  2.0897
  315TIP3   OH2  905   5.735   5.195   5.381 -0.1240  0.2532  0.4060
  315TIP3    H1  906   5.702   5.213   5.293 -0.5292  2.9043  1.0091
  315TIP3    H2  907   5.830   5.189   5.370  0.0708  2.7995 -0.0046
  316TIP3   OH2  908   0.197   4.195   1.488  0.2612 -0.5617 -0.1866
  316TIP3    H1  909   0.232   4.264   1.544  0.3539 -1.7145  1.2423
  316TIP3    H2  910   0.104   4.215   1.480  0.6152  0.7785 -1.4172
  317TIP3   OH2  911   4.769   1.551   0.951  0.0947 -0.3980  0.8324
  317TIP3    H1  912   4.763   1.551   0.855 -2.8437  2.6597  0.8373
  317TIP3    H2  913   4.857   1.582   0.970 -0.5709  3.1803 -1.0998
  318TIP3   OH2  914   4.334   5.570   3.589 -0.0686  0.1567  0.1591
  318TIP3    H1  915   4.389   5.494   3.570  1.4057  1.5762 -1.6407
  318TIP3    H2  916   4.259   5.534   3.637  0.3319 -2.4901 -1.0344
  319TIP3   OH2  917   2.430   6.815   0.932 -0.1730  0.1261  0.0463
  319TIP3    H1  918   2.399   6.753   0.998 -0.2666  1.1861  1.0362
  319TIP3    H2  919   2.492   6.765   0.879  0.5379 -0.5464  1.4600
  320TIP3   OH2  920   6.601   0.914   1.002  0.1632  0.0570  0.0303
  320TIP3    H1  921   6.598   0.836   1.057  1.0896  1.1710  1.7359
  320TIP3    H2  922   6.694   0.938   1.000  0.3390 -0.4659 -2.8674
  321TIP3   OH2  923   3.460   3.296   1.313 -0.0777 -0.1159  0.4855
  321TIP3    H1  924   3.488   3.329   1.228 -1.4762  0.7816  0.3450
  321TIP3    H2  925   3.486   3.364   1.375 -0.8577  0.1858  0.4970
  322TIP3   OH2  926   0.546   5.147   2.381  0.4348  0.1942 -0.7331
  322TIP3    H1  927   0.560   5.204   2.458 -0.2428 -1.0955  0.3917
  322TIP3    H2  928   0.633   5.118   2.357  0.6722  0.7325 -0.5429
  323TIP3   OH2  929   5.400   4.734   2.009  0.1526 -0.6439  0.1821
  323TIP3    H1  930   5.389   4.647   1.970  2.1928 -1.8555  2.0327
  323TIP3    H2  931   5.469   4.722   2.074 -0.4128  2.0952  1.4368
  324TIP3   OH2  932   3.220   4.207   0.862 -0.4623  0.0094  0.0846
  324TIP3    H1  933   3.277   4.173   0.793 -0.3041  1.6244 -0.6258
  324TIP3    H2  934   3.268   4.190   0.943  0.0547 -0.5249 -0.3203
  325TIP3   OH2  935   0.482   5.995   2.372  0.7421  0.3012 -0.1940
  325TIP3    H1  936   0.402   5.964   2.414  1.3009  0.1783  0.8002
  325TIP3    H2  937   0.474   6.090   2.374  0.2091  0.2810 -0.9278
  326TIP3   OH2  938   6.338   6.833   5.820 -0.2223 -0.0894  0.4810
  326TIP3    H1  939   6.376   6.898   5.761 -0.8646 -1.7063 -1.8564
  326TIP3    H2  940   6.255   6.872   5.849  0.1160  0.7362  0.3545
  327TIP3   OH2  941   0.460   4.761   3.383 -0.1439 -0.2530  0.0630
  327TIP3    H1  942   0.548   4.783   3.353 -0.0731 -0.9237 -0.2386
  327TIP3    H2  943   0.431   4.692   3.323 -1.0459  0.2585 -0.1105
  328TIP3   OH2  944   3.746   5.759   0.472  0.4842  0.1606 -0.3488
  328TIP3    H1  945   3.654   5.787   0.480  0.0527 -0.7949 -1.5152
  328TIP3    H2  946   3.774   5.741   0.561  0.8792  4.3602  0.5526
  329TIP3   OH2  947   4.863   2.053   3.487 -0.4169  0.1115 -0.4341
  329TIP3    H1  948   4.930   2.063   3.555  0.5167  0.5599 -1.3791
  329TIP3    H2  949   4.876   2.129   3.430 -1.2371 -0.2067 -1.0588
  330TIP3   OH2  950   2.520   0.100   2.766  0.1169  0.6148  0.2410
  330TIP3    H1  951   2.524   0.110   2.671  1.4205 -0.1745  0.1897
  330TIP3    H2  952   2.440   0.147   2.792  0.4022  1.9096 -1.0943
  331TIP3   OH2  953   7.573   6.266   4.393  0.1385  0.4271  0.2151
  331TIP3    H1  954   7.480   6.282   4.411  0.6666  2.8188  1.1712
  331TIP3    H2  955   7.572   6.196   4.327 -2.2349 -1.1041  1.7015
  332TIP3   OH2  956   2.844   3.546   1.673  0.3163 -0.1405 -0.2754
  332TIP3    H1  957   2.876   3.547   1.763 -0.5458  2.4068  0.0550
  332TIP3    H2  958   2.919   3.514   1.622  1.7780  1.0340  1.0237
  333TIP3   OH2  959   5.711   3.694   3.148 -0.7254 -0.3876 -0.5231
  333TIP3    H1  960   5.695   3.611   3.104  0.1243 -0.8778  0.0742
  333TIP3    H2  961   5.640   3.751   3.117 -1.7016 -1.5125 -0.4459
  334TIP3   OH2  962   4.778   4.210   0.361 -0.4274 -0.1489  0.3634
  334TIP3    H1  963   4.765   4.258   0.279  0.8718  0.4526  0.4931
  334TIP3    H2  964   4.691   4.210   0.402 -1.0411 -0.2361 -0.8750
  335TIP3   OH2  965   4.667   2.734   0.633 -0.0182 -0.2735  0.0110
  335TIP3    H1  966   4.665   2.811   0.577 -0.4051 -0.9145 -0.8734
  335TIP3    H2  967   4.606   2.672   0.592 -2.0961  0.0604  2.3886
  336TIP3   OH2  968   2.042   3.772   4.951 -0.7457  0.4686 -0.5228
  336TIP3    H1  969   2.090   3.814   5.023  1.1569 -1.4066 -0.5987
  336TIP3    H2  970   1.963   3.738   4.992 -1.0629  1.8523  0.0645
  337TIP3   OH2  971   4.488   1.064   5.422 -0.5406 -0.7290  0.4697
  337TIP3    H1  972   4.507   1.049   5.515  1.0326 -0.7953  0.1671
  337TIP3    H2  973   4.569   1.039   5.377 -0.9983  0.0826 -0.8525
  338TIP3   OH2  974   1.240   2.546   4.480  0.2319  0.0713 -0.5352
  338TIP3    H1  975   1.262   2.454   4.465  1.2610  0.2039  0.1295
  338TIP3    H2  976   1.145   2.549   4.470  0.0015 -1.3412  0.8389
  339TIP3   OH2  977   0.332   1.442   5.248 -0.5264 -0.1430 -0.1727
  339TIP3    H1  978   0.332   1.537   5.239  1.0787 -0.0860  0.0748
  339TIP3    H2  979   0.379   1.410   5.172 -2.2354 -0.8651 -0.9674
  340TIP3   OH2  980   5.002   5.043   1.579 -0.4817 -0.5721  0.1073
  340TIP3    H1  981   5.055   5.058   1.501  0.2468 -0.6447  0.5718
  340TIP3    H2  982   4.925   4.996   1.548  0.7083 -2.3383 -0.3083
  341TIP3   OH2  983   6.785   0.296   1.852  0.2065  0.3989  0.3068
  341TIP3    H1  984   6.794   0.387   1.880  0.5860  0.6681 -0.6534
  341TIP3    H2  985   6.810   0.245   1.928  1.9511  1.1136  0.2502
  342TIP3   OH2  986   7.049   0.739   0.060 -0.4147 -0.1972 -0.0291
  342TIP3    H1  987   7.018   0.828   0.080 -1.7996 -1.0387  1.8495
  342TIP3    H2  988   7.138   0.736   0.094 -0.5446  0.3095  0.3700
  343TIP3   OH2  989   2.376   3.494   0.247 -0.1218 -0.0079 -0.2552
  343TIP3    H1  990   2.307   3.559   0.230 -0.3167 -0.5398 -1.6962
  343TIP3    H2  991   2.332   3.424   0.295  0.7223  2.1133  4.0975
  344TIP3   OH2  992   5.261   2.817   0.061  0.0188 -0.3054 -0.8658
  344TIP3    H1  993   5.223   2.732   0.082  0.0347 -0.0231  0.3686
  344TIP3    H2  994   5.340   2.797   0.010  0.3018 -1.0560 -0.1466
  345TIP3   OH2  995   1.624   3.241   3.311  0.4365  0.3815  0.3008
  345TIP3    H1  996   1.532   3.214   3.304  0.2539  0.3897  2.1786
  345TIP3    H2  997   1.629   3.321   3.259 -0.3731 -0.1559 -0.6343
  346TIP3   OH2  998   5.184   6.887   3.416 -0.2416 -0.1924  0.7212
  346TIP3    H1  999   5.265   6.872   3.465  0.6104  1.1026 -0.2135
  346TIP3    H2 1000   5.186   6.981   3.395 -0.4958 -0.6808 -1.8145
  347TIP3   OH2 1001   7.270   5.819   2.706 -0.0642  0.3597  0.0986
  347TIP3    H1 1002   7.218   5.797   2.629  2.0989 -1.2639 -1.0131
  347TIP3    H2 1003   7.208   5.815   2.779 -2.2373  2.1909 -1.4996
  348TIP3   OH2 1004   7.386   0.972   2.241 -0.1289  0.1016 -0.2403
  348TIP3    H1 1005   7.464   0.943   2.286 -0.7208 -0.0931  0.6861
  348TIP3    H2 1006   7.381   0.918   2.162 -0.2363 -1.0440  0.5451
  349TIP3   OH2 1007   1.373   2.439   2.667 -0.0999  0.0843  0.8486
  349TIP3    H1 1008   1.406   2.501   2.732  0.9253 -1.0309  1.4230
  349TIP3    H2 1009   1.339   2.494   2.596  1.5617  1.3032  0.9517
  350TIP3   OH2 1010   5.019   5.517   1.283 -0.1405  0.6253 -0.1927
  350TIP3    H1 1011   5.078   5.443   1.299 -2.3227 -1.3810 -0.8000
  350TIP3    H2 1012   5.051   5.555   1.201  0.7096 -0.0066 -0.1668
  351TIP3   OH2 1013   5.845   2.364   3.979  0.6324 -0.4482  0.5390
  351TIP3    H1 1014   5.830   2.375   4.073  0.3430 -0.6857  0.5211
  351TIP3    H2 1015   5.921   2.420   3.961 -1.1137  2.0026  0.3351
  352TIP3   OH2 1016   6.448   0.915   5.771  0.2315 -0.0367 -0.1461
  352TIP3    H1 1017   6.372   0.861   5.748  0.3496 -0.7183  0.9955
  352TIP3    H2 1018   6.440   0.993   5.716 -1.1652 -0.2096 -0.2085
  353TIP3   OH2 1019   4.042   5.036   1.595  0.1256  0.0629 -0.2492
  353TIP3    H1 1020   4.077   4.952   1.565  0.0329  0.1505 -0.6103
  353TIP3    H2 1021   4.035   5.027   1.690  3.2438  0.8105  0.1616
  354TIP3   OH2 1022   4.716   2.090   0.684  0.0501  0.2328  0.3769
  354TIP3    H1 1023   4.732   2.158   0.619 -0.4901  1.0018  1.0238
  354TIP3    H2 1024   4.648   2.127   0.741  1.2908  0.0509  2.0426
  355TIP3   OH2 1025   6.775   5.990   0.825 -0.5011  0.7343 -0.4133
  355TIP3    H1 1026   6.693   6.015   0.782 -0.2469  2.5406  0.0878
  355TIP3    H2 1027   6.747   5.948   0.906 -0.9570  1.6965 -0.0536
  356TIP3   OH2 1028   2.410   2.175   4.839 -0.4429  0.6425 -0.5583
  356TIP3    H1 1029   2.425   2.223   4.920  0.3090 -0.5952  0.0621
  356TIP3    H2 1030   2.316   2.157   4.838 -0.1626 -1.3467  1.2568
  357TIP3   OH2 1031   0.348   3.973   1.570 -0.7572 -0.3562 -0.0342
  357TIP3    H1 1032   0.315   4.054   1.533  2.6739  0.6625 -1.2806
  357TIP3    H2 1033   0.381   3.997   1.657  0.0918 -0.4071 -0.3274
  358TIP3   OH2 1034   5.568   3.639   1.979 -0.0453  0.1483  0.6138
  358TIP3    H1 1035   5.509   3.669   2.048 -0.5701 -1.4508  0.8945
  358TIP3    H2 1036   5.650   3.621   2.024 -0.2193 -0.3580  0.7378
  359TIP3   OH2 1037   3.205   2.121   5.032 -0.3230 -0.3428 -0.1840
  359TIP3    H1 1038   3.185   2.054   5.098  1.5909 -1.3895 -0.5923
  359TIP3    H2 1039   3.255   2.074   4.965  0.0333  1.2577 -1.0840
  360TIP3   OH2 1040   2.992   6.140   0.518 -0.3194 -0.2912 -0.9854
  360TIP3    H1 1041   3.046   6.161   0.594 -0.0677 -1.5262 -0.8096
  360TIP3    H2 1042   2.977   6.046   0.524 -1.7680 -0.1177 -1.5117
  361TIP3   OH2 1043   5.737   4.197   4.301  0.0744  0.2935  0.1357
  361TIP3    H1 1044   5.820   4.236   4.327  0.1303 -0.9464  2.0592
  361TIP3    H2 1045   5.759   4.105   4.282 -0.7469  0.1053  0.0613
  362TIP3   OH2 1046   7.551   2.262   5.206  0.0992 -0.0659  0.8393
  362TIP3    H1 1047   7.516   2.350   5.217 -0.6695 -0.3339  0.6138
  362TIP3    H2 1048   7.643   2.275   5.183 -0.3101  0.7249 -0.4661
  363TIP3   OH2 1049   7.132   0.970   0.567 -0.2405 -0.3543 -0.0245
  363TIP3    H1 1050   7.191   0.984   0.641  1.4219 -0.1855 -1.3175
  363TIP3    H2 1051   7.140   1.051   0.515  0.0701 -1.1884 -1.3200
  364TIP3   OH2 1052   5.193   4.288   4.408 -0.1334 -0.0912  0.0212
  364TIP3    H1 1053   5.149   4.203   4.415  0.4010 -0.5923 -2.0391
  364TIP3    H2 1054   5.270   4.279   4.464 -1.1537 -0.1743  1.4845
  365TIP3   OH2 1055   0.758   4.406   4.721  0.3079 -0.0549 -0.1827
  365TIP3    H1 1056   0.847   4.383   4.747  1.3620  1.0477 -2.5083
  365TIP3    H2 1057   0.719   4.445   4.799  1.0190 -2.6153  1.5570
  366TIP3   OH2 1058   7.488   5.774   1.035  0.2334  0.1272 -0.0760
  366TIP3    H1 1059   7.414   5.749   1.091  0.7537  0.1145  0.6248
  366TIP3    H2 1060   7.518   5.692   0.997 -0.8508  0.2728 -1.3281
  367TIP3   OH2 1061   5.674   0.558   3.121  0.0380  0.0246  0.4343
  367TIP3    H1 1062   5.755   0.541   3.169 -0.1783  0.5326  0.9906
  367TIP3    H2 1063   5.617   0.603   3.184 -0.0279  1.2567 -0.4533
  368TIP3   OH2 1064   5.190   0.239   1.157  0.4038  0.3281  0.3269
  368TIP3    H1 1065   5.166   0.186   1.081  0.0490  0.9813 -0.0264
  368TIP3    H2 1066   5.284   0.223   1.169  0.0051 -1.6203  1.2218
  369TIP3   OH2 1067   3.005   4.672   3.088  0.3436 -0.2362 -0.0113
  369TIP3    H1 1068   3.086   4.702   3.129  0.8208  0.6978 -1.5627
  369TIP3    H2 1069   2.936   4.725   3.129  0.4382 -1.2375  1.5208
  370TIP3   OH2 1070   3.823   7.056   0.008  0.2525  0.6374  0.1918
  370TIP3    H1 1071   3.832   7.054   0.104  0.2268 -0.4697  0.1862
  370TIP3    H2 1072   3.799   7.146  -0.012 -0.3682  0.7310  1.2900
  371TIP3   OH2 1073   2.983   0.875   2.103 -0.3380 -0.2692 -0.2187
  371TIP3    H1 1074   3.056   0.924   2.141  0.8281  0.2057 -2.8595
  371TIP3    H2 1075   3.001   0.873   2.009 -2.0745 -2.9378 -0.6234
  372TIP3   OH2 1076   5.163   5.035   1.130 -0.3205 -0.7874 -0.3291
  372TIP3    H1 1077   5.181   4.985   1.050  0.0085 -1.2323  0.0186
  372TIP3    H2 1078   5.243   5.084   1.146 -1.1284  1.0015 -1.4686
  373TIP3   OH2 1079   4.905   4.991   4.182  0.5441 -0.2888  0.3406
  373TIP3    H1 1080   4.939   5.080   4.177 -1.0297  0.5169  2.6513
  373TIP3    H2 1081   4.863   4.976   4.097 -1.1485  2.0608  0.6811
  374TIP3   OH2 1082   6.913   6.872   0.312 -0.0886 -0.3975  0.2892
  374TIP3    H1 1083   6.980   6.808   0.289 -0.3505 -0.1486 -1.2885
  374TIP3    H2 1084   6.871   6.836   0.390 -0.9678 -2.7498 -1.1632
  375TIP3   OH2 1085   0.519   4.884   2.964  0.2379  0.2673  0.2123
  375TIP3    H1 1086   0.463   4.828   3.016 -0.6148 -2.1342 -2.9714
  375TIP3    H2 1087   0.460   4.925   2.900  1.5186  1.1335 -0.4798
  376TIP3   OH2 1088   2.708   5.909   2.408  0.5752  0.3347 -0.4813
  376TIP3    H1 1089   2.696   5.900   2.503  0.0128 -3.5700 -0.7472
  376TIP3    H2 1090   2.633   5.960   2.379  0.2965  0.8646  1.0838
  377TIP3   OH2 1091   0.042   6.070   3.599 -0.0904 -0.1634  0.1107
  377TIP3    H1 1092  -0.018   6.131   3.641 -0.7498 -1.4519  1.1041
  377TIP3    H2 1093   0.098   6.125   3.544 -0.0094  1.4451  1.7100
  378TIP3   OH2 1094   5.437   2.594   2.294  0.4616  0.4568  0.2620
  378TIP3    H1 1095   5.357   2.604   2.345  0.0404  1.0711 -0.5064
  378TIP3    H2 1096   5.437   2.667   2.233 -0.2345 -1.4760 -2.2255
  379TIP3   OH2 1097   3.030   5.687   4.561 -0.3625 -0.4176 -0.0088
  379TIP3    H1 1098   3.121   5.656   4.560 -0.1132  0.3077 -0.5726
  379TIP3    H2 1099   3.012   5.710   4.470 -1.4063 -1.3642 -0.0707
  380TIP3   OH2 1100   5.663   1.311   3.422 -0.0880  0.4290  0.9139
  380TIP3    H1 1101   5.755   1.288   3.407 -0.2456 -0.5708  1.4453
  380TIP3    H2 1102   5.617   1.280   3.344 -0.3236 -1.2921  1.6887
  381TIP3   OH2 1103   4.174   3.607   1.436 -0.1706  0.4897  0.3628
  381TIP3    H1 1104   4.185   3.578   1.526 -0.9681 -1.4366 -0.1098
  381TIP3    H2 1105   4.251   3.574   1.390  0.4239  1.7858  0.3617
  382TIP3   OH2 1106   0.622   3.501   5.285 -0.2755  0.1004  0.5129
  382TIP3    H1 1107   0.622   3.596   5.295 -2.2088  0.0469  1.3876
  382TIP3    H2 1108   0.582   3.485   5.199  0.3605  0.0760  0.2172
  383TIP3   OH2 1109   6.606   2.725   0.701  0.2898  0.0320  0.9415
  383TIP3    H1 1110   6.655   2.778   0.638 -0.7228  1.7682  1.5459
  383TIP3    H2 1111   6.520   2.715   0.663  0.4044 -1.0613  0.9301
  384TIP3   OH2 1112   6.599   6.098   5.049 -0.0487 -0.9896  0.1763
  384TIP3    H1 1113   6.693   6.113   5.056 -0.2836  0.5500  0.3200
  384TIP3    H2 1114   6.589   6.048   4.968  1.0730 -3.2875  1.3411
  385TIP3   OH2 1115   0.162   6.319   1.489 -0.0226  0.4095 -0.3348
  385TIP3    H1 1116   0.193   6.262   1.559 -0.0113  0.5858 -0.1955
  385TIP3    H2 1117   0.237   6.329   1.431 -0.5174 -1.1270 -1.3007
  386TIP3   OH2 1118   6.526   3.888   0.961  0.0307  0.1303 -0.0537
  386TIP3    H1 1119   6.539   3.913   0.870  1.8739 -1.5148 -0.2964
  386TIP3    H2 1120   6.582   3.948   1.010  0.1866  0.0456 -0.1296
  387TIP3   OH2 1121   1.973   0.422   5.463 -0.1269 -0.0566 -0.6562
  387TIP3    H1 1122   1.955   0.507   5.423  1.3277  0.4040 -0.3804
  387TIP3    H2 1123   2.064   0.427   5.491 -0.5025 -1.0882  0.9138
  388TIP3   OH2 1124   0.464   2.345   4.310 -0.2914 -0.0125 -0.7221
  388TIP3    H1 1125   0.391   2.359   4.370 -0.6596 -1.5099 -0.7741
  388TIP3    H2 1126   0.426   2.354   4.223 -0.7890 -2.1329 -0.7869
  389TIP3   OH2 1127   2.085   4.377   0.137 -0.3437 -0.4382  0.4068
  389TIP3    H1 1128   2.018   4.441   0.163  0.2651  1.5643 -2.5565
  389TIP3    H2 1129   2.064   4.354   0.047  0.1432 -3.6892  0.9716
  390TIP3   OH2 1130   1.639   6.705   0.454 -0.0247  0.2194 -1.0815
  390TIP3    H1 1131   1.733   6.692   0.440  0.6396  3.2201 -0.1673
  390TIP3    H2 1132   1.618   6.781   0.401 -1.5100  0.6894  0.1137
  391TIP3   OH2 1133   4.772   4.883   1.522 -0.0718 -0.0276  0.4026
  391TIP3    H1 1134   4.748   4.892   1.430 -0.3408 -4.7608 -0.1913
  391TIP3    H2 1135   4.696   4.918   1.569 -1.0743  0.0839 -1.2172
  392TIP3   OH2 1136   2.474   3.978   0.824  0.0483 -0.8598  0.0535
  392TIP3    H1 1137   2.474   3.887   0.794 -0.8737 -1.0174  0.5030
  392TIP3    H2 1138   2.523   3.976   0.906 -0.8820 -1.1514  0.6125
  393TIP3   OH2 1139   6.973   6.765   4.976  0.2919 -0.5037  0.1432
  393TIP3    H1 1140   6.884   6.800   4.978 -0.5079 -2.3473 -0.9173
  393TIP3    H2 1141   6.967   6.681   5.021  1.1519 -1.3066 -1.1856
  394TIP3   OH2 1142   7.342   1.659   1.448  0.0276  0.0465  0.0545
  394TIP3    H1 1143   7.355   1.748   1.415 -0.0129 -0.9283 -2.8446
  394TIP3    H2 1144   7.389   1.603   1.387 -0.8553 -2.0363  1.1765
  395TIP3   OH2 1145   6.073   3.274   0.088  0.1960 -0.3585  0.2987
  395TIP3    H1 1146   6.072   3.181   0.066 -1.2220 -0.1316 -0.7276
  395TIP3    H2 1147   6.128   3.313   0.021 -1.0219 -0.1857 -0.6373
  396TIP3   OH2 1148   5.757   3.852   1.595  0.6431 -0.0561  0.0470
  396TIP3    H1 1149   5.800   3.929   1.631 -0.7953  0.5293  0.5970
  396TIP3    H2 1150   5.665   3.863   1.618  0.3361 -1.7489 -0.2138
  397TIP3   OH2 1151   6.254   2.899   1.635 -0.1167  0.8717  0.2402
  397TIP3    H1 1152   6.205   2.977   1.609 -1.5224  0.4539  1.4882
  397TIP3    H2 1153   6.346   2.926   1.630 -0.5616  2.5124  0.3197
  398TIP3   OH2 1154   0.958   4.362   5.157  0.3901 -0.5199  0.3139
  398TIP3    H1 1155   0.945   4.438   5.214  5.0166  0.8297 -0.0271
  398TIP3    H2 1156   0.951   4.398   5.069  1.2194 -0.7676  0.1413
  399TIP3   OH2 1157   6.900   0.217   3.375 -0.2551  0.5808 -0.3287
  399TIP3    H1 1158   6.819   0.165   3.367 -1.2067  1.9506 -0.0092
  399TIP3    H2 1159   6.955   0.188   3.303 -0.3766 -1.4832  0.3438
  400TIP3   OH2 1160   5.640   6.040   2.008  0.1622 -0.0599 -0.2307
  400TIP3    H1 1161   5.630   6.135   2.000 -0.3887 -0.2330 -2.1187
  400TIP3    H2 1162   5.564   6.012   2.059  0.7282  0.5690  0.9924
  401TIP3   OH2 1163   6.766   6.220   1.586  0.1026  0.0856  0.5364
  401TIP3    H1 1164   6.692   6.281   1.590 -1.6068 -1.9209  1.3892
  401TIP3    H2 1165   6.759   6.179   1.500  0.5560  0.2451  0.4181
  402TIP3   OH2 1166   1.505   0.544   1.836  0.6594 -0.0388  0.1381
  402TIP3    H1 1167   1.490   0.486   1.910 -0.2796  0.2721  0.2049
  402TIP3    H2 1168   1.599   0.562   1.838  0.7449 -0.5371  0.8739
  403TIP3   OH2 1169   6.340   3.784   2.827  0.0441  0.1880 -0.1836
  403TIP3    H1 1170   6.252   3.822   2.820 -0.8412 -1.9852 -1.7071
  403TIP3    H2 1171   6.398   3.855   2.798 -1.0953  1.8447  1.3279
  404TIP3   OH2 1172   4.661   1.575   1.526 -0.5468  0.4523 -0.5091
  404TIP3    H1 1173   4.657   1.647   1.463  0.3248  3.1731  2.2737
  404TIP3    H2 1174   4.741   1.592   1.577 -2.1322 -0.3834  2.5295
  405TIP3   OH2 1175   0.874   1.293   1.315  0.0033 -0.0162 -0.1816
  405TIP3    H1 1176   0.926   1.327   1.243  0.4781 -1.5685 -0.6123
  405TIP3    H2 1177   0.784   1.321   1.295 -0.0341 -1.2007 -1.9258
  406TIP3   OH2 1178   0.708   4.873   3.267 -0.0700 -0.5815 -0.6410
  406TIP3    H1 1179   0.763   4.808   3.222  2.2671  0.7850  0.0945
  406TIP3    H2 1180   0.753   4.890   3.349 -1.5033  0.7975 -0.0880
  407TIP3   OH2 1181   2.853   2.506   1.158  0.2533 -0.3783 -0.2492
  407TIP3    H1 1182   2.872   2.568   1.088  0.5560 -0.6815 -0.4388
  407TIP3    H2 1183   2.781   2.453   1.125  1.0817 -1.2094 -0.7700
  408TIP3   OH2 1184   0.385   4.812   2.619 -0.1205  0.0516  0.2249
  408TIP3    H1 1185   0.293   4.790   2.610  0.0519 -0.7322  0.3354
  408TIP3    H2 1186   0.417   4.753   2.687  0.5271  0.1295 -0.0063
  409TIP3   OH2 1187   1.246   5.995   2.418 -0.3038 -0.2928  0.1461
  409TIP3    H1 1188   1.250   6.069   2.357 -0.2660 -1.3004 -1.1302
  409TIP3    H2 1189   1.299   6.023   2.493 -1.2877  1.4357  0.2468
  410TIP3   OH2 1190   7.128   0.981   4.392 -0.6917 -0.6861 -0.3974
  410TIP3    H1 1191   7.050   0.967   4.446 -0.7670  1.1223  0.0250
  410TIP3    H2 1192   7.188   0.911   4.418 -0.7956  0.0007  1.9509
  411TIP3   OH2 1193   6.992   6.435   4.528 -0.0658  0.7472  0.1392
  411TIP3    H1 1194   7.010   6.342   4.514 -0.2417  0.3970  1.9232
  411TIP3    H2 1195   6.990   6.473   4.440  2.2174 -0.4946 -0.5205
  412TIP3   OH2 1196   6.655   5.166   2.363 -0.4491 -0.4542  0.0713
  412TIP3    H1 1197   6.693   5.080   2.342 -0.4211 -0.7199  1.1382
  412TIP3    H2 1198   6.673   5.220   2.286 -1.4697 -1.7152 -1.1013
  413TIP3   OH2 1199   1.303   4.166   3.068  0.0435 -0.5676  0.6238
  413TIP3    H1 1200   1.238   4.103   3.099 -0.2830 -0.1765  0.7415
  413TIP3    H2 1201   1.302   4.237   3.132 -0.6448  0.2549 -0.2548
  414TIP3   OH2 1202   3.288   0.305   5.699  0.2305 -0.3581  0.4019
  414TIP3    H1 1203   3.247   0.220   5.718 -0.9522  0.4312  1.5945
  414TIP3    H2 1204   3.303   0.343   5.786  0.8459  0.6059 -0.1176
  415TIP3   OH2 1205   5.224   4.109   3.913  0.7638  0.2572 -0.2493
  415TIP3    H1 1206   5.168   4.047   3.866  2.8602 -1.5948 -0.4435
  415TIP3    H2 1207   5.232   4.184   3.854 -0.1119 -0.1651 -0.9376
  416TIP3   OH2 1208   4.081   0.685   4.098  0.4548  0.6344  0.4061
  416TIP3    H1 1209   4.121   0.600   4.078  0.1064  0.6334 -0.3110
  416TIP3    H2 1210   3.988   0.672   4.079  0.7538  1.9589 -2.3912
  417TIP3   OH2 1211   1.263   1.259   2.538  0.2436 -0.5412 -0.0357
  417TIP3    H1 1212   1.185   1.228   2.583  1.0075 -2.3195  0.1602
  417TIP3    H2 1213   1.329   1.266   2.607  0.0965  1.7070 -0.0606
  418TIP3   OH2 1214   4.102   3.385   6.161 -0.4277  0.0674 -0.3855
  418TIP3    H1 1215   4.169   3.322   6.187  1.4457  1.2703 -1.9478
  418TIP3    H2 1216   4.111   3.391   6.065 -1.1303  2.0083 -0.3795
  419TIP3   OH2 1217   1.911   4.331   4.846 -0.1875  0.8876 -0.8247
  419TIP3    H1 1218   1.838   4.322   4.907  0.8029 -0.2887  0.2273
  419TIP3    H2 1219   1.975   4.386   4.892  0.3024  0.5147 -1.0527
  420TIP3   OH2 1220   1.586   5.182   6.077 -0.4346 -0.4006  0.2695
  420TIP3    H1 1221   1.586   5.096   6.033  0.1487  0.4294 -1.4351
  420TIP3    H2 1222   1.494   5.208   6.075 -0.6365 -1.0232  0.9064
  421TIP3   OH2 1223   6.957   5.220   4.742 -0.6752  0.4384 -0.0863
  421TIP3    H1 1224   6.968   5.246   4.834  0.9800  0.7578 -0.3467
  421TIP3    H2 1225   6.964   5.125   4.744  2.1034  0.5692 -0.1538
  422TIP3   OH2 1226   0.055   1.400   5.261 -0.0079  0.5862 -0.2627
  422TIP3    H1 1227  -0.010   1.382   5.329 -0.8626  2.0302 -0.6462
  422TIP3    H2 1228   0.119   1.456   5.304  1.1590 -1.0404  0.1833
  423TIP3   OH2 1229   1.097   5.391   0.895  0.3020  0.5309 -0.2977
  423TIP3    H1 1230   1.146   5.370   0.816 -1.3951 -0.6445 -1.1264
  423TIP3    H2 1231   1.092   5.308   0.942 -0.9021  0.5821 -0.2874
  424TIP3   OH2 1232   2.468   4.502   0.396 -0.7443 -0.0259  0.0338
  424TIP3    H1 1233   2.460   4.582   0.448  1.9828  1.4362 -1.5552
  424TIP3    H2 1234   2.421   4.522   0.314 -0.1454 -0.0654 -0.3252
  425TIP3   OH2 1235   3.103   1.574   4.441 -0.1511  0.1645  0.3693
  425TIP3    H1 1236   3.094   1.632   4.365 -0.3120 -2.7354 -2.0108
  425TIP3    H2 1237   3.031   1.599   4.499 -0.6003  1.8652 -0.8308
  426TIP3   OH2 1238   2.726   4.324   5.155 -0.4994 -0.6140 -0.0568
  426TIP3    H1 1239   2.718   4.244   5.103  0.7245 -0.9218  0.1907
  426TIP3    H2 1240   2.692   4.299   5.242 -1.7333 -0.3487 -0.4462
  427TIP3   OH2 1241   7.533   4.583   3.197 -0.1580  0.2215  0.6869
  427TIP3    H1 1242   7.445   4.618   3.188  0.5726  1.9599 -0.0022
  427TIP3    H2 1243   7.535   4.507   3.139 -0.5261  1.5826 -1.1974
  428TIP3   OH2 1244   2.575   0.333   3.492  0.3729 -0.6836  0.1159
  428TIP3    H1 1245   2.517   0.259   3.477 -0.8837  0.3931 -0.5697
  428TIP3    H2 1246   2.572   0.346   3.587 -0.5167 -0.6699  0.1013
  429TIP3   OH2 1247   4.607   1.991   5.514  0.9070 -0.0199 -0.6520
  429TIP3    H1 1248   4.651   1.910   5.536  0.5227  0.0419  0.3966
  429TIP3    H2 1249   4.586   1.983   5.421  1.1096 -1.0055 -0.6170
  430TIP3   OH2 1250   6.767   6.022   5.575  0.8699  0.0536 -0.0786
  430TIP3    H1 1251   6.699   5.955   5.581  0.7945  0.0482 -0.8875
  430TIP3    H2 1252   6.784   6.031   5.481  0.2956  1.7578 -0.0426
  431TIP3   OH2 1253   1.732   2.018   0.952  0.2321 -0.4906  0.0426
  431TIP3    H1 1254   1.736   2.053   1.041  1.2173 -1.1607  0.2818
  431TIP3    H2 1255   1.659   1.956   0.954  1.3735 -1.8832  0.9411
  432TIP3   OH2 1256   3.325   5.687   4.470 -0.0621 -0.1025 -0.2665
  432TIP3    H1 1257   3.373   5.727   4.542  0.0279  0.0766 -0.4255
  432TIP3    H2 1258   3.293   5.761   4.419 -1.2691 -0.1835  0.3232
  433TIP3   OH2 1259   2.845   6.010   0.016  0.7782 -0.0635  0.2212
  433TIP3    H1 1260   2.868   5.931  -0.034 -1.4111 -0.1037 -0.8210
  433TIP3    H2 1261   2.750   6.008   0.021  0.8350  0.7312  3.2100
  434TIP3   OH2 1262   0.443   3.182   5.682 -0.0501 -0.2120  0.4128
  434TIP3    H1 1263   0.487   3.102   5.713 -1.2227 -0.4740  1.5026
  434TIP3    H2 1264   0.466   3.187   5.589  2.5711 -0.0950  0.9887
  435TIP3   OH2 1265   2.410   4.153   5.086  0.0528  0.1011  0.2914
  435TIP3    H1 1266   2.463   4.156   5.166 -0.6243 -0.6049  0.7775
  435TIP3    H2 1267   2.458   4.209   5.024  1.4649 -0.6365  0.6583
  436TIP3   OH2 1268   6.436   4.898   1.817 -0.2921 -0.2717 -0.3247
  436TIP3    H1 1269   6.399   4.814   1.791  0.4587 -0.7007 -0.0403
  436TIP3    H2 1270   6.406   4.959   1.750 -0.9853 -0.7288 -0.4404
  437TIP3   OH2 1271   6.729   0.266   5.700  0.0339  0.1652 -0.1220
  437TIP3    H1 1272   6.807   0.311   5.731  0.1109  0.9793 -1.4136
  437TIP3    H2 1273   6.676   0.252   5.778 -0.2684  3.0418  0.2999
  438TIP3   OH2 1274   2.066   3.352   0.939 -0.1934  0.2115 -0.1360
  438TIP3    H1 1275   2.143   3.350   0.996 -0.3097  1.8715  0.1128
  438TIP3    H2 1276   2.014   3.425   0.972 -1.9139 -0.8946 -0.2784
  439TIP3   OH2 1277   1.229   2.068   3.853 -0.2808  0.1749  0.3993
  439TIP3    H1 1278   1.263   2.091   3.766 -0.0720  0.7351  0.6229
  439TIP3    H2 1279   1.143   2.110   3.856 -1.0861 -1.3526 -0.2179
  440TIP3   OH2 1280   3.840   0.266   1.868  0.2085 -0.0695 -0.3411
  440TIP3    H1 1281   3.890   0.208   1.811 -0.4125 -1.2486  0.2971
  440TIP3    H2 1282   3.752   0.230   1.869 -0.1761  0.8414  0.1439
  441TIP3   OH2 1283   5.138   5.633   3.217  0.4299  0.2436 -0.1713
  441TIP3    H1 1284   5.085   5.683   3.280 -2.0562 -1.4094 -0.7788
  441TIP3    H2 1285   5.076   5.608   3.149  1.2957 -3.9854  0.3013
  442TIP3   OH2 1286   1.160   7.139   1.863  0.4512  0.3545  0.3211
  442TIP3    H1 1287   1.194   7.086   1.791 -1.1173  0.4369 -0.5316
  442TIP3    H2 1288   1.127   7.219   1.820  0.2429  0.7659  1.2308
  443TIP3   OH2 1289   1.749   4.439   0.710 -0.9318 -0.5356  0.0598
  443TIP3    H1 1290   1.746   4.346   0.684 -0.8817 -0.8292  1.0635
  443TIP3    H2 1291   1.842   4.458   0.720 -0.9778 -0.6909  0.8912
  444TIP3   OH2 1292   4.701   6.688   5.120  0.1943  0.1427 -0.5204
  444TIP3    H1 1293   4.667   6.603   5.150  0.1864  0.2998 -0.0792
  444TIP3    H2 1294   4.647   6.709   5.044 -2.1239  1.3403  1.3323
  445TIP3   OH2 1295   3.701   4.440   4.455  0.0484  0.4138  0.2102
  445TIP3    H1 1296   3.618   4.415   4.496 -0.0405 -2.0023 -1.2663
  445TIP3    H2 1297   3.761   4.452   4.529 -1.0910  0.1272  1.2124
  446TIP3   OH2 1298   0.925   6.266   3.973  0.7635 -0.0696  0.1675
  446TIP3    H1 1299   0.995   6.325   4.001  0.2981  1.4202 -1.6040
  446TIP3    H2 1300   0.845   6.315   3.993  0.3387 -0.4533 -0.5957
  447TIP3   OH2 1301   6.365   1.455   1.306 -0.0203  0.0316  0.3074
  447TIP3    H1 1302   6.349   1.364   1.331  0.8947 -0.2612 -0.1236
  447TIP3    H2 1303   6.429   1.487   1.370  0.7505 -0.0833 -0.3867
  448TIP3   OH2 1304   0.117   4.841   3.782  0.1839 -0.5485 -0.2106
  448TIP3    H1 1305   0.153   4.780   3.847 -1.8100  0.4918  2.0229
  448TIP3    H2 1306   0.170   4.920   3.791 -0.4571 -0.1983  0.6379
  449TIP3   OH2 1307   6.435   1.272   3.005  0.0641  0.2580 -0.7680
  449TIP3    H1 1308   6.415   1.193   3.055  1.2223 -0.2017 -0.9918
  449TIP3    H2 1309   6.406   1.251   2.916  1.4466 -0.3986 -1.0889
  450TIP3   OH2 1310   0.551   3.191   4.105  0.1712 -0.3445 -0.1647
  450TIP3    H1 1311   0.554   3.272   4.156  0.0454 -0.9802  0.8842
  450TIP3    H2 1312   0.622   3.200   4.042  0.0945  0.6183 -0.1374
  451TIP3   OH2 1313   2.623   6.696   1.967  0.8575 -0.6481  0.9025
  451TIP3    H1 1314   2.695   6.751   1.999  0.3749 -0.9888  2.6620
  451TIP3    H2 1315   2.558   6.758   1.936  2.2752 -0.3327 -1.7524
  452TIP3   OH2 1316   1.773   6.257   4.541  0.0189  0.9683  0.3506
  452TIP3    H1 1317   1.821   6.330   4.502  2.4296 -0.3347  0.6571
  452TIP3    H2 1318   1.822   6.179   4.515  0.0345 -0.2020  3.3743
  453TIP3   OH2 1319   3.566   4.070   3.658 -0.1600 -0.1534  0.5325
  453TIP3    H1 1320   3.601   4.104   3.740  0.1985 -0.4450  0.5029
  453TIP3    H2 1321   3.642   4.068   3.598 -0.8615  2.2470 -0.5319
  454TIP3   OH2 1322   5.452   1.018   1.876 -0.3268 -0.1345  0.3690
  454TIP3    H1 1323   5.429   1.012   1.969 -0.3296 -1.4547  0.3032
  454TIP3    H2 1324   5.372   0.991   1.830 -0.3246  0.5172 -0.0186
  455TIP3   OH2 1325   6.366   0.493   5.654  0.0169 -0.5603 -0.0670
  455TIP3    H1 1326   6.431   0.534   5.596  0.1325  0.7017  0.9038
  455TIP3    H2 1327   6.304   0.451   5.594  0.5773  0.0115 -1.0820
  456TIP3   OH2 1328   1.283   4.316   5.557  0.4480  0.4956  0.3554
  456TIP3    H1 1329   1.341   4.324   5.481 -0.1957 -1.0168 -0.3451
  456TIP3    H2 1330   1.323   4.248   5.610  0.3233  0.7988  0.8417
  457TIP3   OH2 1331   6.372   2.295   1.040  0.7170  0.8059 -0.1714
  457TIP3    H1 1332   6.409   2.378   1.011 -0.0516  0.4851 -2.2408
  457TIP3    H2 1333   6.365   2.242   0.960 -1.3457 -0.2447  0.6171
  458TIP3   OH2 1334   6.846   0.828   3.261 -0.2115 -0.0211 -0.0812
  458TIP3    H1 1335   6.804   0.874   3.188 -1.3737 -0.2446  0.4109
  458TIP3    H2 1336   6.887   0.897   3.312 -2.5732  0.6470  1.0608
  459TIP3   OH2 1337   7.065   2.843   2.220 -0.3303  0.1296  0.0042
  459TIP3    H1 1338   7.024   2.830   2.134  1.7737 -1.5193 -0.8110
  459TIP3    H2 1339   7.138   2.782   2.222  1.5643  2.2817  1.7558
  460TIP3   OH2 1340   2.485   6.602   3.558  0.0172  0.1153  0.1795
  460TIP3    H1 1341   2.412   6.664   3.564  0.1254  0.2171  0.4878
  460TIP3    H2 1342   2.451   6.521   3.597  0.1628  0.2552  0.6097
  461TIP3   OH2 1343   6.510   3.052   3.780 -0.1215  0.1045  0.0460
  461TIP3    H1 1344   6.485   2.977   3.833 -0.6522  0.7692  0.7568
  461TIP3    H2 1345   6.597   3.076   3.812 -0.4595  0.5306  0.6426
  462TIP3   OH2 1346   0.273   2.972   0.981  0.2150  0.4337 -0.2601
  462TIP3    H1 1347   0.245   3.018   0.901  0.5238 -0.7602 -1.0722
  462TIP3    H2 1348   0.289   3.042   1.044  2.0619  1.5746 -1.8835
  463TIP3   OH2 1349   0.830   6.540   3.535  0.2817 -0.1413 -0.1896
  463TIP3    H1 1350   0.834   6.635   3.529  0.3220 -0.1598 -0.4729
  463TIP3    H2 1351   0.750   6.516   3.488 -1.5367 -0.0236  2.5991
  464TIP3   OH2 1352   0.740   1.986   0.527  0.4665 -0.0810  0.3926
  464TIP3    H1 1353   0.686   1.961   0.601 -0.6705  0.6594 -0.1540
  464TIP3    H2 1354   0.724   2.080   0.517  2.0265  0.2146  0.3342
  465TIP3   OH2 1355   4.147   7.169   2.747 -0.0886  0.3589  0.0543
  465TIP3    H1 1356   4.131   7.075   2.746 -0.2981  0.3870 -0.9965
  465TIP3    H2 1357   4.202   7.184   2.670 -1.9421  1.3793 -1.1577
  466TIP3   OH2 1358   6.293   4.766   0.163 -0.1472  0.6519  0.1406
  466TIP3    H1 1359   6.229   4.701   0.195 -0.5162  1.1701  0.4778
  466TIP3    H2 1360   6.378   4.722   0.172 -0.5829 -0.8382 -2.2822
  467TIP3   OH2 1361   2.637   4.332   0.824  0.1237 -0.2500 -0.5692
  467TIP3    H1 1362   2.608   4.395   0.889  0.8957  0.1144 -0.5762
  467TIP3    H2 1363   2.578   4.346   0.749 -0.7064 -0.6122  0.0047
  468TIP3   OH2 1364   0.748   6.321   5.190  0.2630  0.2974  0.3227
  468TIP3    H1 1365   0.666   6.273   5.180  1.1747 -1.4341  0.6811
  468TIP3    H2 1366   0.781   6.331   5.101 -0.0185  0.3903  0.2297
  469TIP3   OH2 1367   5.684   3.603   1.740  0.2977 -0.1973  0.0579
  469TIP3    H1 1368   5.619   3.605   1.810  1.0122  0.4210  0.7370
  469TIP3    H2 1369   5.686   3.693   1.707  0.5614 -0.2896 -0.1802
  470TIP3   OH2 1370   1.109   4.875   0.126  0.1032  0.5886 -0.3961
  470TIP3    H1 1371   1.065   4.952   0.162 -1.5278 -0.6020  0.2514
  470TIP3    H2 1372   1.180   4.856   0.188  0.5635  1.5766 -0.6001
  471TIP3   OH2 1373   5.492   3.787   2.971 -0.2057 -0.1715 -0.2942
  471TIP3    H1 1374   5.452   3.866   3.006 -1.0066 -1.0334  0.7770
  471TIP3    H2 1375   5.541   3.817   2.894  0.2173  1.4881  0.5833
  472TIP3   OH2 1376   4.414   0.433   3.604 -0.2618  0.0739 -0.3504
  472TIP3    H1 1377   4.441   0.443   3.696 -0.9630 -0.7487 -0.0436
  472TIP3    H2 1378   4.396   0.523   3.575 -1.9391  0.1958  0.9270
  473TIP3   OH2 1379   7.224   6.384   5.815 -0.2171 -0.1482 -0.4843
  473TIP3    H1 1380   7.262   6.406   5.730 -0.6145 -0.3269 -0.7155
  473TIP3    H2 1381   7.153   6.323   5.794  0.3699 -1.0342  0.0747
  474TIP3   OH2 1382   4.882   0.833   5.702  0.3443  0.0095  0.1918
  474TIP3    H1 1383   4.974   0.824   5.680  0.5616 -1.7914  1.6247
  474TIP3    H2 1384   4.835   0.808   5.622  1.0810  0.2319 -0.3154
  475TIP3   OH2 1385   1.684   5.407   2.661  0.4044  0.6005 -0.0415
  475TIP3    H1 1386   1.668   5.400   2.567 -0.7658  0.6990  0.1449
  475TIP3    H2 1387   1.772   5.446   2.667  0.4235  0.7455 -1.0862
  476TIP3   OH2 1388   1.923   2.427   4.213  0.5174  0.2051  0.3820
  476TIP3    H1 1389   1.854   2.482   4.176  1.1491  0.9528  0.2740
  476TIP3    H2 1390   1.954   2.374   4.140  0.4039  0.2341  0.3129
  477TIP3   OH2 1391   4.589   4.128   3.679  0.1820  0.2315 -0.6492
  477TIP3    H1 1392   4.504   4.121   3.637 -0.5144  2.4338  0.2594
  477TIP3    H2 1393   4.573   4.104   3.771  0.6118  0.3765 -0.5303
  478TIP3   OH2 1394   4.228   0.824   2.873  0.4500  0.0395  0.2802
  478TIP3    H1 1395   4.228   0.804   2.779 -1.0367  0.2136  0.2173
  478TIP3    H2 1396   4.141   0.798   2.903  1.4889 -1.7749  2.0126
  479TIP3   OH2 1397   4.370   5.803   3.437 -0.1962 -0.0615 -0.2300
  479TIP3    H1 1398   4.350   5.724   3.486 -0.2662  0.6830  0.9717
  479TIP3    H2 1399   4.284   5.838   3.412 -0.2025  0.1073  0.0212
  480TIP3   OH2 1400   1.338   1.368   5.631 -0.0322 -0.1732 -1.0406
  480TIP3    H1 1401   1.331   1.458   5.663  2.1305 -0.5692  0.8262
  480TIP3    H2 1402   1.370   1.319   5.707 -4.1738 -3.2455 -0.9208
  481TIP3   OH2 1403   4.152   6.218   0.557 -0.1794  0.3198 -0.4368
  481TIP3    H1 1404   4.074   6.188   0.510  0.5368 -0.5867 -1.0820
  481TIP3    H2 1405   4.188   6.139   0.597  0.7624  0.6077 -0.6920
  482TIP3   OH2 1406   1.125   2.500   4.926  0.0594 -0.5102  0.4905
  482TIP3    H1 1407   1.047   2.554   4.919  0.1761 -0.4509 -0.5234
  482TIP3    H2 1408   1.197   2.563   4.929  0.4132 -0.4915 -3.2280
  483TIP3   OH2 1409   4.821   3.667   4.748  0.3474 -0.2719  0.0819
  483TIP3    H1 1410   4.781   3.696   4.830  0.4220  1.2750 -0.4036
  483TIP3    H2 1411   4.885   3.602   4.775 -0.7579 -0.9940  1.0995
  484TIP3   OH2 1412   4.969   3.897   2.584  0.5930 -0.1130  0.1583
  484TIP3    H1 1413   4.982   3.965   2.650  0.3667 -0.4182  0.5214
  484TIP3    H2 1414   4.992   3.815   2.629  0.1911 -0.3487 -0.0643
  485TIP3   OH2 1415   6.173   6.282   0.946 -0.2984 -0.3487  0.2046
  485TIP3    H1 1416   6.253   6.234   0.924 -0.1836  0.1501 -0.4888
  485TIP3    H2 1417   6.166   6.350   0.879 -1.3405 -0.4235  0.2134
  486TIP3   OH2 1418   2.909   5.670   2.063 -0.5851 -0.0943 -0.4429
  486TIP3    H1 1419   2.975   5.602   2.052  0.6960  0.9204  0.6459
  486TIP3    H2 1420   2.847   5.634   2.127 -0.7929 -0.8181 -1.0337
  487TIP3   OH2 1421   6.156   6.187   1.885 -0.1812  0.5660 -0.4987
  487TIP3    H1 1422   6.074   6.168   1.931  0.4545  0.3888  0.5989
  487TIP3    H2 1423   6.188   6.268   1.924  0.3842  0.4001 -0.6043
  488TIP3   OH2 1424   1.486   3.378   5.801 -0.2015 -0.3559  0.0467
  488TIP3    H1 1425   1.392   3.395   5.808  0.0633  0.8262  1.2131
  488TIP3    H2 1426   1.501   3.301   5.857 -0.3055  0.2252  0.8988
  489TIP3   OH2 1427   5.590   3.262   2.409 -0.4985 -0.0424 -0.2060
  489TIP3    H1 1428   5.667   3.227   2.454  0.6313  0.1155 -1.9406
  489TIP3    H2 1429   5.551   3.186   2.365  0.1972  0.3164 -1.4720
  490TIP3   OH2 1430   4.096   6.134   3.839  0.0952  0.3077 -0.4197
  490TIP3    H1 1431   4.167   6.077   3.810  1.3326  0.6070  1.7888
  490TIP3    H2 1432   4.067   6.096   3.922  0.3175  2.3101  0.6491
  491TIP3   OH2 1433   1.264   4.945   1.828 -0.4018  0.3376  0.6438
  491TIP3    H1 1434   1.192   4.916   1.773 -0.2365  0.8720  0.1447
  491TIP3    H2 1435   1.222   4.991   1.901 -0.6440 -0.7797  1.2330
  492TIP3   OH2 1436   4.759   6.593   1.381 -0.2358  0.0886  0.0688
  492TIP3    H1 1437   4.778   6.512   1.332 -1.7640 -0.7609  0.7964
  492TIP3    H2 1438   4.745   6.659   1.313  2.6128  0.1993 -0.5275
  493TIP3   OH2 1439   2.709   7.168   6.174  0.1784 -0.0942  0.0356
  493TIP3    H1 1440   2.762   7.153   6.252 -1.2752 -0.3384  1.0340
  493TIP3    H2 1441   2.706   7.082   6.131 -0.7869 -0.5330  0.9172
  494TIP3   OH2 1442   4.677   3.102   3.897 -0.5741  0.5640 -0.6631
  494TIP3    H1 1443   4.747   3.122   3.958 -1.4775  1.8021  0.0183
  494TIP3    H2 1444   4.708   3.026   3.848  0.4174 -0.0910  0.9310
  495TIP3   OH2 1445   5.941   1.691   4.523 -0.4996 -0.2217  0.1942
  495TIP3    H1 1446   5.878   1.669   4.592  2.0584 -0.0036  2.7912
  495TIP3    H2 1447   5.947   1.787   4.526  1.1225 -0.3223  1.1871
  496TIP3   OH2 1448   3.814   1.800   3.993  0.5077 -0.2084 -0.1408
  496TIP3    H1 1449   3.742   1.748   4.031  1.0767 -0.8140  0.1321
  496TIP3    H2 1450   3.792   1.890   4.015  1.0457 -0.5651  2.1048
  497TIP3   OH2 1451   1.853   4.125   2.875  0.3412 -0.4926 -0.1593
  497TIP3    H1 1452   1.929   4.111   2.819  0.3267  1.3227 -0.6938
  497TIP3    H2 1453   1.882   4.190   2.939 -0.6134 -0.1178 -0.0897
  498TIP3   OH2 1454   7.437   0.701   5.488  0.0556 -0.1046 -0.1214
  498TIP3    H1 1455   7.499   0.628   5.499  1.3630  0.6952 -1.7575
  498TIP3    H2 1456   7.492   0.779   5.487 -1.1826  0.7952  0.1350
  499TIP3   OH2 1457   3.232   4.676   5.808  0.1115 -0.1467 -0.7045
  499TIP3    H1 1458   3.231   4.765   5.773 -0.9574 -0.0908 -0.5463
  499TIP3    H2 1459   3.250   4.621   5.732 -0.5411  0.1048 -1.0513
  500TIP3   OH2 1460   5.441   4.311   4.541  0.2942 -0.1402  0.4623
  500TIP3    H1 1461   5.536   4.318   4.555  0.2468  0.2920  0.6067
  500TIP3    H2 1462   5.410   4.262   4.617  0.6657 -2.2419 -0.6692
  501TIP3   OH2 1463   3.709   5.507   1.009 -0.4892 -0.5891  0.8196
  501TIP3    H1 1464   3.700   5.503   1.104 -2.4296 -2.2715  0.6434
  501TIP3    H2 1465   3.732   5.417   0.984 -1.7894 -0.6181 -0.3973
  502TIP3   OH2 1466   0.185   5.533   2.437  0.1954  0.2993 -0.1636
  502TIP3    H1 1467   0.120   5.484   2.487  0.3791 -1.7031 -1.7455
  502TIP3    H2 1468   0.136   5.604   2.395  0.0650  2.1698  2.8172
  503TIP3   OH2 1469   0.148   6.473   3.143 -0.0038  0.2431 -0.0270
  503TIP3    H1 1470   0.238   6.498   3.162 -0.3206  0.9577  0.6029
  503TIP3    H2 1471   0.099   6.502   3.220 -0.7154 -0.4591 -0.2027
  504TIP3   OH2 1472   5.787   5.563   0.650  0.3826  0.6576  0.0957
  504TIP3    H1 1473   5.728   5.557   0.725 -1.4413  2.2829 -1.0996
  504TIP3    H2 1474   5.837   5.482   0.653 -0.9694 -0.1995  1.9657
  505TIP3   OH2 1475   5.732   5.502   1.003  0.2812 -0.3897  0.2228
  505TIP3    H1 1476   5.798   5.457   1.055  0.3889  0.7245  1.0971
  505TIP3    H2 1477   5.678   5.547   1.067 -1.7659 -1.7975 -0.4326
  506TIP3   OH2 1478   6.876   5.584   1.327 -0.1361  0.0876 -0.0003
  506TIP3    H1 1479   6.907   5.508   1.375  1.9747  0.6935 -0.3031
  506TIP3    H2 1480   6.802   5.552   1.276 -0.1031 -1.4268  0.8483
  507TIP3   OH2 1481   1.230   0.872   4.706 -0.4754  0.4873 -0.8721
  507TIP3    H1 1482   1.143   0.895   4.737  0.0269 -0.8198  1.7810
  507TIP3    H2 1483   1.290   0.919   4.764  0.5707 -0.5273 -1.0833
  508TIP3   OH2 1484   2.542   4.787   2.469 -0.3317 -0.2151 -0.0796
  508TIP3    H1 1485   2.531   4.808   2.561 -1.4462 -0.0929 -0.2258
  508TIP3    H2 1486   2.628   4.747   2.463  0.4586  1.2799  0.7468
  509TIP3   OH2 1487   3.502   5.562   1.549  0.7378 -0.3590 -0.1347
  509TIP3    H1 1488   3.562   5.604   1.610 -0.6645  1.3416  0.1719
  509TIP3    H2 1489   3.443   5.512   1.604  0.6528 -0.3832 -0.2468
  510TIP3   OH2 1490   2.907   4.503   3.395 -0.1792 -0.0196 -0.1393
  510TIP3    H1 1491   2.973   4.570   3.379 -0.7913  1.1023  1.7517
  510TIP3    H2 1492   2.954   4.420   3.388  1.0749  0.6907 -0.3419
  511TIP3   OH2 1493   3.609   2.436   5.076  0.2019  0.0207 -0.1135
  511TIP3    H1 1494   3.685   2.470   5.028  1.1127 -1.8699 -0.1029
  511TIP3    H2 1495   3.575   2.512   5.123  2.7584  0.7439  0.7579
  512TIP3   OH2 1496   3.431   3.375   5.855  0.0473  0.2184  0.0344
  512TIP3    H1 1497   3.372   3.384   5.930 -0.2055 -1.3879  0.0556
  512TIP3    H2 1498   3.513   3.343   5.892  0.3650  0.7329 -0.2132
  513TIP3   OH2 1499   7.529   1.631   2.401  0.6520 -0.4032 -0.2267
  513TIP3    H1 1500   7.482   1.626   2.318  0.3483 -0.1492 -0.0742
  513TIP3    H2 1501   7.552   1.724   2.410  0.2794 -0.3478  0.1875
  514TIP3   OH2 1502   5.374   4.542   0.866 -0.6220  0.4924  1.3132
  514TIP3    H1 1503   5.417   4.599   0.802 -1.1243 -3.4301 -3.0428
  514TIP3    H2 1504   5.281   4.546   0.843 -0.9014 -0.6785  2.1307
  515TIP3   OH2 1505   0.335   5.301   1.028  0.3834 -0.5652  0.2780
  515TIP3    H1 1506   0.360   5.215   1.060  0.6559 -0.4022  0.5018
  515TIP3    H2 1507   0.247   5.315   1.063  0.9002 -0.1459  1.4374
  516TIP3   OH2 1508   5.919   1.692   0.689 -0.7725 -0.6184 -0.0221
  516TIP3    H1 1509   5.856   1.661   0.624 -1.3285 -1.5540  0.9295
  516TIP3    H2 1510   5.865   1.723   0.762 -0.2012  1.6229 -0.4744
  517TIP3   OH2 1511   4.603   5.297   2.615  0.0777  0.0108  0.0883
  517TIP3    H1 1512   4.521   5.247   2.623  0.0558 -0.0703 -0.6088
  517TIP3    H2 1513   4.632   5.310   2.706  0.1731 -1.4037  0.2846
  518TIP3   OH2 1514   2.054   3.563   2.981 -0.1828 -0.1227  0.6975
  518TIP3    H1 1515   2.082   3.655   2.985 -0.1227 -0.1268  0.4193
  518TIP3    H2 1516   2.017   3.545   3.067  0.5258 -0.0689  1.0125
  519TIP3   OH2 1517   0.606   3.430   0.653  0.1027  0.3941 -0.1491
  519TIP3    H1 1518   0.624   3.400   0.564 -0.2786 -1.0083  0.2172
  519TIP3    H2 1519   0.569   3.517   0.642 -0.3146  0.0814 -1.3949
  520TIP3   OH2 1520   1.799   3.483   5.472  0.0080  0.4716  0.2385
  520TIP3    H1 1521   1.849   3.451   5.547 -0.4052 -1.4468 -0.2402
  520TIP3    H2 1522   1.811   3.578   5.473  0.6904  0.4042  2.2211
  521TIP3   OH2 1523   2.017   1.529   1.672 -0.4652  0.4005 -0.1731
  521TIP3    H1 1524   1.972   1.516   1.755  0.3458 -0.4945  0.1493
  521TIP3    H2 1525   1.980   1.610   1.637  0.6136  1.9317  1.9945
  522TIP3   OH2 1526   5.713   2.310   5.717  0.6704 -0.0789 -0.7100
  522TIP3    H1 1527   5.700   2.252   5.791  0.5534 -1.0226 -1.4533
  522TIP3    H2 1528   5.709   2.253   5.640  0.8970  0.8562 -1.4399
  523TIP3   OH2 1529   3.779   2.893   1.301  0.1670  0.2503 -0.2532
  523TIP3    H1 1530   3.749   2.983   1.297  1.2572  0.6705  0.3148
  523TIP3    H2 1531   3.864   2.898   1.347 -0.3620 -1.1991  0.9986
  524TIP3   OH2 1532   2.364   5.273   2.302  0.2473  0.1598 -0.0331
  524TIP3    H1 1533   2.297   5.205   2.301 -1.2591  1.4956  1.7316
  524TIP3    H2 1534   2.392   5.282   2.211 -1.7923 -0.6371 -0.7777
  525TIP3   OH2 1535   4.864   0.244   4.741 -0.1639  0.8432  0.5187
  525TIP3    H1 1536   4.952   0.212   4.720 -0.3953  1.2630 -1.2270
  525TIP3    H2 1537   4.869   0.269   4.833  1.6577  1.2349  0.3458
  526TIP3   OH2 1538   2.432   1.122   4.590  0.0490 -0.4429  0.7197
  526TIP3    H1 1539   2.507   1.149   4.643  0.4109 -0.7065  0.3563
  526TIP3    H2 1540   2.442   1.171   4.508 -0.0976 -0.5825  0.6177
  527TIP3   OH2 1541   7.150   6.934   2.616  0.2639  0.9985  0.1672
  527TIP3    H1 1542   7.219   6.987   2.577  0.3493  0.5533 -0.2929
  527TIP3    H2 1543   7.196   6.872   2.673  0.0954  2.1154  1.5604
  528TIP3   OH2 1544   1.558   0.265   5.184 -0.0601 -0.2632  0.6688
  528TIP3    H1 1545   1.493   0.211   5.230 -1.5273  1.0495  0.2041
  528TIP3    H2 1546   1.578   0.215   5.105 -1.7722  0.0428 -0.0015
  529TIP3   OH2 1547   4.981   6.348   5.611 -0.2912  0.3522 -0.2783
  529TIP3    H1 1548   4.902   6.316   5.654  1.4500 -1.7861  1.6221
  529TIP3    H2 1549   4.977   6.310   5.523 -1.2247  0.0575 -0.1235
  530TIP3   OH2 1550   2.265   5.177   0.464 -0.0982 -0.4513  0.2894
  530TIP3    H1 1551   2.201   5.118   0.504 -0.2574 -0.4556  0.0330
  530TIP3    H2 1552   2.216   5.258   0.450  0.2210 -0.1422  0.9718
  531TIP3   OH2 1553   2.189   2.543   4.198  0.0341 -0.5452  0.0818
  531TIP3    H1 1554   2.222   2.537   4.109  1.7234  0.2426  0.6168
  531TIP3    H2 1555   2.096   2.563   4.188  0.4864  0.9968 -1.5247
  532TIP3   OH2 1556   5.589   6.196   3.025  0.1610  0.1105  0.5889
  532TIP3    H1 1557   5.666   6.140   3.037  0.0716  0.1363  1.3154
  532TIP3    H2 1558   5.621   6.269   2.972  0.9362  0.7217  1.8546
  533TIP3   OH2 1559   7.337   2.241   3.994  0.0857 -0.2749 -0.1325
  533TIP3    H1 1560   7.324   2.322   4.044 -0.3310 -1.8748  2.5502
  533TIP3    H2 1561   7.432   2.237   3.979  0.2057  0.3381  0.4041
  534TIP3   OH2 1562   1.345   5.402   2.363  0.2244  0.1921  0.8176
  534TIP3    H1 1563   1.364   5.316   2.327 -1.3956 -0.2848  1.0223
  534TIP3    H2 1564   1.429   5.448   2.362  0.8965 -1.0023 -0.3068
  535TIP3   OH2 1565   2.380   1.924   3.361 -0.2847 -0.2672 -0.6569
  535TIP3    H1 1566   2.307   1.863   3.363 -0.0126 -0.5966 -0.6904
  535TIP3    H2 1567   2.441   1.891   3.427  0.4039 -0.7244 -1.5010
  536TIP3   OH2 1568   1.073   2.260   5.166  0.4947  0.7307 -0.0638
  536TIP3    H1 1569   1.156   2.307   5.160  1.0612 -0.1562  0.5464
  536TIP3    H2 1570   1.017   2.317   5.219  1.3545  0.5002  1.1425
  537TIP3   OH2 1571   6.871   4.065   3.588  0.1491 -0.2115  0.2105
  537TIP3    H1 1572   6.844   4.040   3.500  1.4263  1.1252 -0.6232
  537TIP3    H2 1573   6.966   4.054   3.587  0.3570  1.2955  0.8832
  538TIP3   OH2 1574   6.383   5.599   4.499 -0.3820 -0.6976  0.5328
  538TIP3    H1 1575   6.293   5.577   4.474  0.0313 -1.1202 -0.6560
  538TIP3    H2 1576   6.414   5.523   4.548 -0.2919 -1.0653 -0.0843
  539TIP3   OH2 1577   3.109   5.518   1.686 -0.0521 -0.0115 -0.6867
  539TIP3    H1 1578   3.065   5.592   1.643 -1.8398  1.1674  2.8225
  539TIP3    H2 1579   3.052   5.443   1.667 -1.1378  0.6027  0.0712
  540TIP3   OH2 1580   2.783   2.571   2.015  0.0157 -0.1082 -0.1507
  540TIP3    H1 1581   2.758   2.502   1.953 -0.2466  0.4194 -0.6414
  540TIP3    H2 1582   2.711   2.634   2.010 -0.1989 -0.2496  0.9869
  541TIP3   OH2 1583   4.605   3.843   2.158  0.3824 -0.9135 -0.2318
  541TIP3    H1 1584   4.658   3.773   2.196  0.0197 -0.5558  0.9810
  541TIP3    H2 1585   4.525   3.844   2.210 -1.2904 -2.0473 -2.5795
  542TIP3   OH2 1586   5.759   4.323   5.623  0.8946  0.1783  0.1364
  542TIP3    H1 1587   5.666   4.313   5.600  0.6275 -1.0592  1.5873
  542TIP3    H2 1588   5.775   4.417   5.616 -0.0724  0.2654 -1.5277
  543TIP3   OH2 1589   3.251   5.488   4.833 -0.2798 -0.8611  0.3795
  543TIP3    H1 1590   3.233   5.403   4.872  0.0050 -1.4992 -0.8255
  543TIP3    H2 1591   3.245   5.473   4.738  0.1797  0.3564  0.1340
  544TIP3   OH2 1592   5.088   0.302   3.457 -0.2116 -0.3332 -0.0965
  544TIP3    H1 1593   5.142   0.368   3.412 -0.2264 -1.0313 -1.1728
  544TIP3    H2 1594   5.147   0.230   3.474 -0.3469 -0.3045  0.5157
  545TIP3   OH2 1595   3.115   3.354   0.002  0.2846  0.2519 -0.0129
  545TIP3    H1 1596   3.171   3.299   0.056 -1.5602 -1.7583  0.0193
  545TIP3    H2 1597   3.068   3.409   0.065  1.9497  1.7673 -0.0267
  546TIP3   OH2 1598   4.899   1.685   4.751 -0.8755  0.1850 -0.3184
  546TIP3    H1 1599   4.963   1.756   4.747 -1.9825  1.1540 -1.6433
  546TIP3    H2 1600   4.949   1.606   4.731 -0.2102  1.0175 -2.0992
  547TIP3   OH2 1601   5.155   4.866   0.398  0.3048  0.1781  0.6348
  547TIP3    H1 1602   5.237   4.909   0.424 -0.0914  0.5222  1.3503
  547TIP3    H2 1603   5.143   4.891   0.306  1.2039 -0.2110  0.3983
  548TIP3   OH2 1604   4.425   2.990   1.671 -0.3792  0.1941  0.4250
  548TIP3    H1 1605   4.478   3.054   1.718 -0.9025  0.2675  0.9244
  548TIP3    H2 1606   4.473   2.908   1.680 -0.3732  0.2488  0.9094
  549TIP3   OH2 1607   5.954   6.394   4.223  0.2246 -0.3588 -0.0740
  549TIP3    H1 1608   5.884   6.336   4.251 -3.2804  2.5130 -2.1261
  549TIP3    H2 1609   5.999   6.346   4.153 -0.9928 -1.5056 -0.1094
  550TIP3   OH2 1610   6.258   0.073   4.510  0.4158 -0.0451  0.2485
  550TIP3    H1 1611   6.238   0.145   4.571  1.1622 -1.3567  2.1340
  550TIP3    H2 1612   6.351   0.081   4.493  0.4860 -0.5089  0.4053
  551TIP3   OH2 1613   1.830   1.910   2.501  0.6605 -0.1743  0.2936
  551TIP3    H1 1614   1.917   1.947   2.510  1.0931 -0.8724 -0.8305
  551TIP3    H2 1615   1.845   1.817   2.480 -0.3680 -0.6262  1.4416
  552TIP3   OH2 1616   0.244   0.089   5.698 -0.3254  0.4181  0.5315
  552TIP3    H1 1617   0.212   0.038   5.624 -0.1748  0.6676  0.2890
  552TIP3    H2 1618   0.175   0.084   5.764  0.0545 -0.8238  0.8668
  553TIP3   OH2 1619   2.736   6.237   2.545 -0.2266  0.4906 -0.2974
  553TIP3    H1 1620   2.822   6.212   2.511  0.5930 -0.5400  2.2818
  553TIP3    H2 1621   2.677   6.228   2.470  1.6086 -0.4422 -1.7156
  554TIP3   OH2 1622   1.365   2.671   0.092  0.0405 -0.3505 -0.3996
  554TIP3    H1 1623   1.279   2.710   0.079  0.3545 -0.1784 -2.1476
  554TIP3    H2 1624   1.351   2.602   0.157 -1.5343 -0.7186 -1.0941
  555TIP3   OH2 1625   3.250   4.370   3.149  0.3163 -0.1522  0.2610
  555TIP3    H1 1626   3.275   4.281   3.173 -1.6975 -0.8096  0.1235
  555TIP3    H2 1627   3.157   4.363   3.127  0.0993  2.0093  0.3266
  556TIP3   OH2 1628   1.107   4.220   4.483  0.1061 -0.3349  0.1616
  556TIP3    H1 1629   1.124   4.310   4.458  1.1329 -0.3376  0.7727
  556TIP3    H2 1630   1.191   4.188   4.516 -0.8061 -0.7374  2.2910
  557TIP3   OH2 1631   1.912   6.711   0.505 -0.2363  1.0518 -0.4921
  557TIP3    H1 1632   1.979   6.642   0.505 -0.1971  1.0765  0.1996
  557TIP3    H2 1633   1.958   6.789   0.475 -0.0814  0.9568 -0.5050
  558TIP3   OH2 1634   4.731   2.532   1.210  0.2127  0.0083 -0.1655
  558TIP3    H1 1635   4.665   2.486   1.263 -0.2120  0.5804 -0.1852
  558TIP3    H2 1636   4.684   2.556   1.130  0.3298  0.7588 -0.0167
  559TIP3   OH2 1637   1.019   1.909   5.264 -0.9287  0.0808 -0.3853
  559TIP3    H1 1638   1.112   1.928   5.262 -0.9069 -0.1227 -1.4304
  559TIP3    H2 1639   1.011   1.819   5.232 -1.3828 -0.3509  0.8586
  560TIP3   OH2 1640   4.650   2.981   1.835 -0.3880 -0.2392  0.3609
  560TIP3    H1 1641   4.687   2.918   1.773  0.0218 -0.7356  1.0994
  560TIP3    H2 1642   4.642   2.933   1.917  1.3143  1.0324  1.3675
  561TIP3   OH2 1643   6.609   5.048   6.167 -0.2495 -0.2790 -0.4956
  561TIP3    H1 1644   6.621   4.970   6.222 -0.4796 -0.7671 -1.1326
  561TIP3    H2 1645   6.515   5.062   6.166 -0.1524  0.4832  0.2623
  562TIP3   OH2 1646   3.434   1.917   1.891  0.1081  0.3671 -0.1436
  562TIP3    H1 1647   3.444   1.865   1.812  2.2462  0.3154  0.1155
  562TIP3    H2 1648   3.352   1.965   1.878  0.6101  0.6636 -2.5489
  563TIP3   OH2 1649   4.866   6.271   5.949 -0.5816 -0.0617 -0.4312
  563TIP3    H1 1650   4.945   6.307   5.910 -0.8785 -0.5831 -1.5485
  563TIP3    H2 1651   4.891   6.248   6.038  1.3198 -2.7230 -1.5302
  564TIP3   OH2 1652   2.590   6.778   0.501 -0.0167  0.0388  0.6863
  564TIP3    H1 1653   2.624   6.823   0.578  1.3464 -1.5690  1.0828
  564TIP3    H2 1654   2.644   6.810   0.429  0.1452 -0.0293  0.7742
  565TIP3   OH2 1655   1.124   0.532   4.324 -0.3084  0.0419 -0.6245
  565TIP3    H1 1656   1.091   0.489   4.246 -1.0302 -1.0570  0.2585
  565TIP3    H2 1657   1.135   0.624   4.299 -0.0370 -0.3896 -2.1423
  566TIP3   OH2 1658   6.652   6.636   2.695  1.2905 -0.4067  0.2358
  566TIP3    H1 1659   6.612   6.700   2.636 -0.5774 -1.1467  0.6392
  566TIP3    H2 1660   6.746   6.649   2.683  1.0808 -1.3568 -3.8722
  567TIP3   OH2 1661   3.208   6.217   0.737 -0.3043  0.1515  0.5771
  567TIP3    H1 1662   3.250   6.303   0.738 -0.1846  0.1301 -0.7058
  567TIP3    H2 1663   3.165   6.211   0.822 -0.7814  1.7128  0.4879
  568TIP3   OH2 1664   1.145   3.665   3.321 -0.5907  0.5257  0.1991
  568TIP3    H1 1665   1.107   3.711   3.246 -1.0705 -0.9126 -0.4746
  568TIP3    H2 1666   1.226   3.627   3.288  0.3639  1.7409  1.0452
  569TIP3   OH2 1667   6.728   1.690   3.830 -0.1038  0.3272 -0.2527
  569TIP3    H1 1668   6.676   1.668   3.752  0.5582  0.1858 -0.6604
  569TIP3    H2 1669   6.784   1.613   3.843 -2.6198 -1.2515  2.4630
  570TIP3   OH2 1670   3.386   5.965   4.500 -0.0954 -0.4187 -0.0456
  570TIP3    H1 1671   3.373   6.013   4.581 -0.2769 -0.0854 -0.2697
  570TIP3    H2 1672   3.312   5.990   4.444 -0.5842 -1.5039  0.0886
  571TIP3   OH2 1673   5.662   0.370   2.520  0.5157  0.0162  0.3892
  571TIP3    H1 1674   5.616   0.416   2.450  1.3865 -0.0652 -0.2524
  571TIP3    H2 1675   5.701   0.294   2.477  0.0672 -0.6854  1.2086
  572TIP3   OH2 1676   4.216   2.778   4.594 -0.2777 -0.0429 -0.9467
  572TIP3    H1 1677   4.168   2.861   4.588  0.1967  0.4473  1.3697
  572TIP3    H2 1678   4.296   2.794   4.544  0.4883  1.4651  0.6268
  573TIP3   OH2 1679   0.204   1.248   5.687 -0.1325 -0.5684  0.3431
  573TIP3    H1 1680   0.211   1.255   5.592  3.1202  0.3973  0.5418
  573TIP3    H2 1681   0.125   1.298   5.709 -0.0497  0.5427 -1.6980
  574TIP3   OH2 1682   5.099   0.616   5.720  0.3281  0.1936 -0.1513
  574TIP3    H1 1683   5.166   0.655   5.775  1.8975 -0.9399 -1.1560
  574TIP3    H2 1684   5.077   0.534   5.763  1.6225 -0.7374 -1.1770
  575TIP3   OH2 1685   6.895   1.150   4.860 -0.2302  0.1723 -0.8553
  575TIP3    H1 1686   6.921   1.199   4.782 -2.6712  0.0935 -1.8025
  575TIP3    H2 1687   6.832   1.207   4.905  0.2145 -0.3026  0.4271
  576TIP3   OH2 1688   4.477   6.152   1.305 -0.1320  0.3098 -0.1519
  576TIP3    H1 1689   4.475   6.080   1.368  0.5907 -0.0294 -0.4989
  576TIP3    H2 1690   4.530   6.119   1.232 -1.3091  0.5340 -1.1508
  577TIP3   OH2 1691   5.047   5.807   2.816 -0.5990  0.8434 -0.1382
  577TIP3    H1 1692   5.057   5.766   2.730 -1.2777  4.0728 -1.9407
  577TIP3    H2 1693   4.953   5.820   2.826 -0.4850  0.9755  0.8563
  578TIP3   OH2 1694   0.467   7.139   0.524 -0.1240  0.0882 -0.5007
  578TIP3    H1 1695   0.517   7.183   0.455  1.5765 -1.5666 -0.3885
  578TIP3    H2 1696   0.531   7.126   0.595 -1.8761  2.0354  1.6146
  579TIP3   OH2 1697   4.724   4.389   5.008 -0.5935 -0.7420 -0.4154
  579TIP3    H1 1698   4.798   4.329   5.013 -0.2529 -0.2812  0.2552
  579TIP3    H2 1699   4.708   4.400   4.915 -1.0234 -2.3052 -0.5579
  580TIP3   OH2 1700   4.791   6.101   5.058  0.0127  0.0833 -0.1837
  580TIP3    H1 1701   4.725   6.032   5.048 -1.3012  1.1298  0.9073
  580TIP3    H2 1702   4.749   6.180   5.023  0.2860  0.9639  1.3755
  581TIP3   OH2 1703   4.046   2.933   0.869  0.3050 -0.2168  0.2653
  581TIP3    H1 1704   4.115   2.884   0.825  0.4750  1.3162 -1.3055
  581TIP3    H2 1705   4.034   2.888   0.953  1.6630 -1.8182 -0.3400
  582TIP3   OH2 1706   4.958   2.688   1.487 -0.1971  0.0140 -0.0606
  582TIP3    H1 1707   5.050   2.680   1.465 -0.5822 -0.4021 -1.6601
  582TIP3    H2 1708   4.931   2.600   1.513  0.1363  0.4010  1.6986
  583TIP3   OH2 1709   2.105   4.285   2.626 -0.3023  0.3358 -0.4965
  583TIP3    H1 1710   2.016   4.322   2.622 -0.2447  0.6442  0.7232
  583TIP3    H2 1711   2.100   4.218   2.694  1.0502  2.3482  1.7606
  584TIP3   OH2 1712   3.885   0.502   5.993 -0.4018 -0.2363  0.2207
  584TIP3    H1 1713   3.905   0.446   5.918  0.1530  1.4666 -0.9729
  584TIP3    H2 1714   3.961   0.493   6.051  1.1463  1.5186 -1.4007
  585TIP3   OH2 1715   4.706   0.529   2.378  0.5321  0.0551  0.0277
  585TIP3    H1 1716   4.642   0.587   2.337  1.0527  1.7064  1.4448
  585TIP3    H2 1717   4.790   0.555   2.340  0.5777 -0.9336 -0.5646
  586TIP3   OH2 1718   3.087   4.454   6.090 -0.0647 -0.0978 -0.4608
  586TIP3    H1 1719   3.002   4.496   6.102 -1.2913 -2.2381 -1.0476
  586TIP3    H2 1720   3.078   4.404   6.009  1.3642 -1.2281  0.0271
  587TIP3   OH2 1721   2.995   3.823   3.156 -0.1044  0.1406 -0.1569
  587TIP3    H1 1722   2.968   3.786   3.072  0.3949  1.1666 -0.7966
  587TIP3    H2 1723   2.961   3.913   3.154 -0.5599  0.0133  0.9863
  588TIP3   OH2 1724   1.631   5.046   3.265 -0.0629  0.1467  0.2599
  588TIP3    H1 1725   1.559   5.047   3.328 -0.6645 -0.2377 -0.3993
  588TIP3    H2 1726   1.710   5.041   3.318 -0.6040 -2.0479  0.9675
  589TIP3   OH2 1727   5.839   0.650   2.468  0.0252 -0.5598 -0.2811
  589TIP3    H1 1728   5.866   0.561   2.448 -1.2646 -1.1177  0.3318
  589TIP3    H2 1729   5.912   0.705   2.439  0.8814 -1.8146 -0.5658
  590TIP3   OH2 1730   2.616   3.329   2.804  0.3329 -0.2248 -0.2299
  590TIP3    H1 1731   2.541   3.369   2.848  0.5851  0.3936 -0.3567
  590TIP3    H2 1732   2.653   3.399   2.750  0.9580 -0.5444 -0.2281
  591TIP3   OH2 1733   1.694   5.155   0.818  0.3988  0.0834 -0.1936
  591TIP3    H1 1734   1.697   5.173   0.911 -0.6147  0.7196 -0.2716
  591TIP3    H2 1735   1.702   5.060   0.812  0.1830  0.0129  0.5524
  592TIP3   OH2 1736   2.546   6.687   5.869  0.3774  0.5373  0.1392
  592TIP3    H1 1737   2.601   6.687   5.948  0.2677  0.8243  0.2151
  592TIP3    H2 1738   2.467   6.734   5.895 -0.4392 -0.9370  0.4007
  593TIP3   OH2 1739   6.086   1.395   1.314  0.4829  0.0046 -0.2539
  593TIP3    H1 1740   6.011   1.447   1.286 -0.0492 -0.2173  0.7243
  593TIP3    H2 1741   6.157   1.458   1.325  0.7074  0.1143 -1.9948
  594TIP3   OH2 1742   4.263   6.947   6.068 -0.1964  0.3199 -0.0665
  594TIP3    H1 1743   4.186   6.947   6.126  1.1581  0.2515  1.8158
  594TIP3    H2 1744   4.240   7.010   5.999 -1.2046  1.7561  1.4993
  595TIP3   OH2 1745   3.628   3.533   3.242  0.4743 -0.1233  0.5737
  595TIP3    H1 1746   3.618   3.444   3.276  0.1837 -0.1365  0.4534
  595TIP3    H2 1747   3.571   3.536   3.165 -1.0602  0.7734  1.6973
  596TIP3   OH2 1748   0.752   4.095   5.895 -0.0267 -0.2160 -0.5223
  596TIP3    H1 1749   0.792   4.044   5.825 -1.0765 -0.2498 -1.1234
  596TIP3    H2 1750   0.666   4.120   5.861 -0.0435  0.8772  0.2522
  597TIP3   OH2 1751   0.119   7.009   3.054 -0.0274  0.2912  0.0390
  597TIP3    H1 1752   0.209   6.978   3.040 -0.6842 -1.6598 -0.1542
  597TIP3    H2 1753   0.072   6.932   3.086 -1.4964  1.4473  0.7544
  598TIP3   OH2 1754   5.977   1.885   1.294 -0.0018  0.0772  0.4756
  598TIP3    H1 1755   5.940   1.829   1.362  2.7488 -1.1696  1.0653
  598TIP3    H2 1756   5.946   1.973   1.315  0.3417 -0.3471  3.0657
  599TIP3   OH2 1757   7.203   5.785   0.218  0.5761  0.4991  0.1888
  599TIP3    H1 1758   7.185   5.831   0.300 -1.4902  0.1285 -0.0159
  599TIP3    H2 1759   7.297   5.796   0.206  0.5198  2.8970  1.2064
  600TIP3   OH2 1760   7.438   5.103   2.244  0.0951 -0.0143 -0.2303
  600TIP3    H1 1761   7.510   5.151   2.205  0.7007  0.5667  1.4967
  600TIP3    H2 1762   7.471   5.075   2.330 -2.0073  1.1204  1.0455
  601TIP3   OH2 1763   4.354   1.118   0.201  0.1037  0.5359  0.0271
  601TIP3    H1 1764   4.337   1.205   0.236 -0.7771 -0.0905  1.2273
  601TIP3    H2 1765   4.445   1.122   0.171  0.4730  1.5161  1.1830
  602TIP3   OH2 1766   6.997   0.930   2.830  0.4835  0.3548 -0.0333
  602TIP3    H1 1767   7.089   0.904   2.821  0.2888 -0.6276  0.6856
  602TIP3    H2 1768   6.997   1.024   2.809  1.8569  0.6650  1.1624
  603TIP3   OH2 1769   5.303   0.856   4.980  0.0127  0.1549 -0.0366
  603TIP3    H1 1770   5.386   0.844   5.025  0.1527  0.8383 -0.1056
  603TIP3    H2 1771   5.237   0.848   5.048  0.1768  0.3654  0.1470
  604TIP3   OH2 1772   4.275   0.927   4.341  0.1254 -0.2308 -0.1550
  604TIP3    H1 1773   4.224   0.899   4.265  0.1974  0.9009 -0.6403
  604TIP3    H2 1774   4.293   0.846   4.389 -1.5256 -0.7439 -0.3355
  605TIP3   OH2 1775   3.575   6.733   1.247 -0.8476  0.4069 -0.7226
  605TIP3    H1 1776   3.610   6.752   1.160 -1.2085  0.5870 -0.8251
  605TIP3    H2 1777   3.493   6.781   1.252 -0.5507  0.8617 -0.0645
  606TIP3   OH2 1778   1.463   0.370   1.435  0.3933 -0.4124 -0.0676
  606TIP3    H1 1779   1.391   0.383   1.373  0.2435 -1.5178 -0.1427
  606TIP3    H2 1780   1.520   0.306   1.392  0.0257 -1.5939  1.1312
  607TIP3   OH2 1781   5.151   5.228   2.231 -0.4178 -0.2045  0.2679
  607TIP3    H1 1782   5.135   5.317   2.261  0.5349 -0.5661  1.9986
  607TIP3    H2 1783   5.131   5.173   2.308 -2.0048 -1.5901 -1.0607
  608TIP3   OH2 1784   5.435   5.698   1.101  0.5542 -0.5902  0.1433
  608TIP3    H1 1785   5.344   5.729   1.101  0.9777  0.7280  0.2974
  608TIP3    H2 1786   5.450   5.670   1.191  0.7934  0.8326  0.5817
  609TIP3   OH2 1787   7.403   4.787   5.157  0.4392  0.6404 -0.2850
  609TIP3    H1 1788   7.486   4.741   5.159  0.4715  0.7078  1.2090
  609TIP3    H2 1789   7.377   4.794   5.249 -2.0225 -0.8271 -0.7660
  610TIP3   OH2 1790   3.957   2.675   4.341 -0.7230 -0.0648 -0.3848
  610TIP3    H1 1791   4.012   2.681   4.263 -1.3265  1.3557 -0.7462
  610TIP3    H2 1792   3.915   2.761   4.347  1.6006  1.0435  3.2476
  611TIP3   OH2 1793   5.293   5.879   0.293 -0.3966  0.2072 -0.5188
  611TIP3    H1 1794   5.341   5.961   0.302 -0.4609  0.3192 -1.1413
  611TIP3    H2 1795   5.245   5.870   0.375  0.3631  0.3023 -0.0614
  612TIP3   OH2 1796   3.226   5.699   1.857 -0.1458  0.0761 -0.2083
  612TIP3    H1 1797   3.171   5.625   1.831  0.7115 -0.7989  0.3824
  612TIP3    H2 1798   3.214   5.764   1.788 -2.3416  0.1539  0.1699
  613TIP3   OH2 1799   3.811   1.775   2.391 -0.3206  0.3668 -0.1772
  613TIP3    H1 1800   3.796   1.683   2.415 -0.3680  0.4590  0.1522
  613TIP3    H2 1801   3.890   1.800   2.438 -1.0844  0.9057  0.8810
  614TIP3   OH2 1802   7.215   2.447   6.082 -0.3964  0.5628 -0.2832
  614TIP3    H1 1803   7.121   2.428   6.084 -0.3713  0.4758  1.1965
  614TIP3    H2 1804   7.226   2.519   6.144  0.6541 -0.1477  0.3824
  615TIP3   OH2 1805   7.248   6.603   2.729 -0.4042  0.1657 -0.1882
  615TIP3    H1 1806   7.219   6.649   2.808 -0.2770 -0.7024  0.3816
  615TIP3    H2 1807   7.342   6.592   2.741 -0.4952 -0.5970 -0.1132
  616TIP3   OH2 1808   5.588   1.608   0.822  0.4308  0.3118  0.2776
  616TIP3    H1 1809   5.655   1.669   0.854 -0.8767  1.0074  1.8411
  616TIP3    H2 1810   5.539   1.659   0.757 -2.1255  1.9248  3.1982
  617TIP3   OH2 1811   3.229   1.455   5.579  0.2138  0.2121 -0.2852
  617TIP3    H1 1812   3.185   1.384   5.532  1.6442 -2.6222  2.2960
  617TIP3    H2 1813   3.184   1.460   5.663  1.0717  1.3300  0.1308
  618TIP3   OH2 1814   4.796   2.306   3.008  0.5214  0.4730 -0.0733
  618TIP3    H1 1815   4.710   2.265   3.019 -0.7892  3.0290  0.1366
  618TIP3    H2 1816   4.776   2.390   2.966  2.9764  1.0300 -0.2387
  619TIP3   OH2 1817   3.407   0.603   3.174  0.4093 -0.4747 -0.2051
  619TIP3    H1 1818   3.452   0.660   3.236 -1.5474  3.0367 -1.7257
  619TIP3    H2 1819   3.349   0.549   3.229 -1.1537  2.3979  1.2223
  620TIP3   OH2 1820   6.475   1.448   5.674  0.3496 -0.5091  0.0237
  620TIP3    H1 1821   6.444   1.461   5.764 -1.6415 -0.2735 -0.6575
  620TIP3    H2 1822   6.520   1.529   5.652  0.4197 -0.3802  0.6249
  621TIP3   OH2 1823   2.082   2.640   2.412 -0.3013  0.6334 -0.0911
  621TIP3    H1 1824   2.140   2.717   2.412  1.4636 -0.5994 -1.6488
  621TIP3    H2 1825   2.066   2.622   2.505  0.9063  1.6914  0.3505
  622TIP3   OH2 1826   1.983   3.325   2.421  0.0739 -0.2007 -0.0812
  622TIP3    H1 1827   1.998   3.415   2.449 -0.3315 -0.2062  0.1476
  622TIP3    H2 1828   1.935   3.333   2.338 -0.4457 -0.2122  0.2159
  623TIP3   OH2 1829   6.261   6.637   5.179  0.5539  0.1028  0.5699
  623TIP3    H1 1830   6.211   6.557   5.164 -1.2711  1.2606  0.1536
  623TIP3    H2 1831   6.276   6.640   5.273  1.5851 -1.2368  0.4714
  624TIP3   OH2 1832   2.130   3.609   3.841  0.2065 -0.6404 -0.7137
  624TIP3    H1 1833   2.057   3.666   3.818 -0.2847 -0.8584  0.2693
  624TIP3    H2 1834   2.125   3.537   3.778  0.8219  0.3450 -1.9576
  625TIP3   OH2 1835   0.203   5.202   4.699  0.3342  0.0894 -0.2414
  625TIP3    H1 1836   0.155   5.273   4.656  0.5790  0.5813  0.2896
  625TIP3    H2 1837   0.288   5.200   4.654  0.8346  1.0315  0.6250
  626TIP3   OH2 1838   3.957   3.368   1.567  0.4692 -0.0115 -0.0477
  626TIP3    H1 1839   4.045   3.394   1.593  0.2098 -0.4872  1.3996
  626TIP3    H2 1840   3.898   3.417   1.624 -0.0873 -1.8515  1.0575
  627TIP3   OH2 1841   0.041   4.643   2.360 -0.0242  0.2513  0.1027
  627TIP3    H1 1842   0.113   4.584   2.337 -0.1394  1.3076 -3.7918
  627TIP3    H2 1843  -0.031   4.585   2.383  0.8335 -1.0195 -0.3033
  628TIP3   OH2 1844   0.054   3.351   5.340  0.4561 -0.3312 -0.3716
  628TIP3    H1 1845   0.102   3.379   5.417  1.0641  0.0375 -0.8743
  628TIP3    H2 1846   0.120   3.347   5.270 -0.2568  0.2882 -1.0991
  629TIP3   OH2 1847   7.362   0.110   5.709 -0.3562  0.5193 -0.3524
  629TIP3    H1 1848   7.273   0.097   5.676 -0.8308 -0.0529  1.0900
  629TIP3    H2 1849   7.363   0.201   5.739  0.0252  0.9884 -1.6802
  630TIP3   OH2 1850   2.171   4.791   0.687 -0.4002  0.1176 -0.2645
  630TIP3    H1 1851   2.083   4.779   0.723 -0.3592  0.5249 -0.0241
  630TIP3    H2 1852   2.218   4.840   0.754 -0.6849  1.9627 -1.3671
  631TIP3   OH2 1853   5.909   3.765   4.051  0.0436 -0.4494 -0.4204
  631TIP3    H1 1854   5.913   3.689   4.109  0.7783  1.0260  1.5900
  631TIP3    H2 1855   6.000   3.797   4.047 -0.2694  0.4086 -1.0801
  632TIP3   OH2 1856   4.002   0.967   3.052 -0.8857  0.1348  0.6692
  632TIP3    H1 1857   4.055   0.984   3.130 -1.6470  1.4650  0.9344
  632TIP3    H2 1858   4.045   1.016   2.982 -0.5525 -0.5618  0.3716
  633TIP3   OH2 1859   2.880   3.897   3.650 -0.8520  0.3931 -0.3592
  633TIP3    H1 1860   2.965   3.917   3.689 -1.1721  0.4742  0.3013
  633TIP3    H2 1861   2.842   3.831   3.708 -2.4538  2.3948  0.9918
  634TIP3   OH2 1862   0.654   1.821   5.744  0.7667 -0.1137  0.2971
  634TIP3    H1 1863   0.577   1.807   5.798  0.3762  2.6868  0.5826
  634TIP3    H2 1864   0.636   1.773   5.663 -0.6063 -0.7052  0.9291
  635TIP3   OH2 1865   4.374   0.829   1.931  0.5821  0.3234 -0.6706
  635TIP3    H1 1866   4.332   0.746   1.910 -3.8369  2.1102  0.0933
  635TIP3    H2 1867   4.384   0.873   1.846 -0.5742  0.4514 -0.7540
  636TIP3   OH2 1868   2.011   5.717   3.933 -0.2932  0.1136 -0.4715
  636TIP3    H1 1869   1.967   5.799   3.954  0.0669  0.6300 -1.6697
  636TIP3    H2 1870   1.991   5.660   4.008 -1.4587  0.9212 -0.1273
  637TIP3   OH2 1871   0.959   5.595   1.666 -0.6703  0.7868 -0.3280
  637TIP3    H1 1872   1.035   5.579   1.723  0.3353 -1.2655 -2.0695
  637TIP3    H2 1873   0.992   5.654   1.598 -1.6233  2.5573  0.7014
  638TIP3   OH2 1874   5.006   1.679   2.669 -0.0285  0.6798 -0.4830
  638TIP3    H1 1875   5.001   1.731   2.749 -0.9357  0.3913 -0.3446
  638TIP3    H2 1876   5.092   1.699   2.633 -0.3941  2.3778 -0.5013
  639TIP3   OH2 1877   1.684   6.384   4.781  0.3261  0.2948  0.2004
  639TIP3    H1 1878   1.714   6.336   4.704  0.6478  0.8544 -0.0236
  639TIP3    H2 1879   1.644   6.464   4.746 -1.6528 -0.5098  0.4591
  640TIP3   OH2 1880   0.185   5.349   2.793 -0.7651 -0.5366 -0.1785
  640TIP3    H1 1881   0.120   5.309   2.735 -1.5667 -1.9293  1.5813
  640TIP3    H2 1882   0.253   5.282   2.802 -0.0640  0.1303 -0.4125
  641TIP3   OH2 1883   3.089   5.794   0.301 -0.0188 -0.1375  0.0062
  641TIP3    H1 1884   3.006   5.781   0.346  0.0038 -0.4727 -0.0444
  641TIP3    H2 1885   3.075   5.754   0.215  0.5196 -1.0683  0.3484
  642TIP3   OH2 1886   3.212   0.835   2.621 -0.0931  0.2670 -0.0282
  642TIP3    H1 1887   3.144   0.786   2.668  0.4524 -0.7533 -0.2597
  642TIP3    H2 1888   3.265   0.767   2.579 -0.0506  1.1004 -1.4035
  643TIP3   OH2 1889   1.402   6.021   2.059 -0.4976 -0.4541  0.1573
  643TIP3    H1 1890   1.422   6.091   2.122 -2.2093 -0.3027  0.5722
  643TIP3    H2 1891   1.486   6.002   2.017  0.3932  0.4616  1.4519
  644TIP3   OH2 1892   6.085   6.644   4.213  0.6248  0.1701 -0.2377
  644TIP3    H1 1893   6.089   6.659   4.118  0.7238 -0.0331 -0.2659
  644TIP3    H2 1894   6.037   6.562   4.222  1.7959 -0.5321 -0.1799
  645TIP3   OH2 1895   2.701   3.426   5.723 -0.4924 -0.2087 -0.0991
  645TIP3    H1 1896   2.671   3.396   5.808  1.2293 -0.2484  0.5200
  645TIP3    H2 1897   2.625   3.415   5.665 -1.8570  0.3279  1.5217
  646TIP3   OH2 1898   2.627   6.024   4.427  0.1002  0.2568 -0.1626
  646TIP3    H1 1899   2.540   6.051   4.457  0.0147  1.2571 -1.2381
  646TIP3    H2 1900   2.681   6.025   4.506 -0.5803  0.8053  0.3122
  647TIP3   OH2 1901   3.942   3.290   1.305  1.0608  0.0926 -0.3546
  647TIP3    H1 1902   3.948   3.323   1.394  0.6141  1.5382 -0.8314
  647TIP3    H2 1903   3.848   3.279   1.290  1.0013  1.5156 -1.1978
  648TIP3   OH2 1904   0.212   0.703   3.427  0.3501 -0.0236 -0.0981
  648TIP3    H1 1905   0.189   0.615   3.456 -0.0280 -0.2553 -1.0503
  648TIP3    H2 1906   0.134   0.755   3.446  0.9050  0.3375  1.3257
  649TIP3   OH2 1907   2.751   3.002   1.487 -0.0108  0.0881  0.9078
  649TIP3    H1 1908   2.829   3.049   1.459  0.6830 -0.9754  1.0297
  649TIP3    H2 1909   2.772   2.970   1.575 -0.1743 -1.0921  0.5345
  650TIP3   OH2 1910   3.653   0.601   1.208  0.7064  0.1010 -0.1513
  650TIP3    H1 1911   3.705   0.526   1.239 -0.2361  0.0410  1.3637
  650TIP3    H2 1912   3.568   0.564   1.184  0.2158  0.6770  0.6494
  651TIP3   OH2 1913   3.748   0.654   3.012 -0.3387  0.0100  0.0543
  651TIP3    H1 1914   3.732   0.565   3.044 -1.5129  0.0497 -0.3339
  651TIP3    H2 1915   3.696   0.659   2.931  1.0766  0.4959 -0.8706
  652TIP3   OH2 1916   4.742   6.619   4.771  0.1219 -0.0235  0.1771
  652TIP3    H1 1917   4.647   6.627   4.783 -0.0671  0.2767 -1.3013
  652TIP3    H2 1918   4.752   6.546   4.710  0.7451  0.8087 -0.7388
  653TIP3   OH2 1919   4.425   6.167   3.931 -0.6292 -0.1516  0.0033
  653TIP3    H1 1920   4.388   6.112   3.862 -2.9943  0.2760  0.8411
  653TIP3    H2 1921   4.514   6.134   3.942 -0.6205 -1.0921 -2.3172
  654TIP3   OH2 1922   4.401   4.949   3.828  0.0038 -0.6222  0.4560
  654TIP3    H1 1923   4.438   4.878   3.777 -0.2750  0.5566 -1.4958
  654TIP3    H2 1924   4.474   5.009   3.842  0.0018 -0.7828  1.1773
  655TIP3   OH2 1925   0.872   2.998   0.916  0.0239 -0.4012  0.4135
  655TIP3    H1 1926   0.836   2.958   0.996 -0.7993  0.1640  0.3362
  655TIP3    H2 1927   0.819   3.076   0.903  1.7043  0.8254  0.6423
  656TIP3   OH2 1928   4.989   4.705   4.245  0.0858 -1.0013 -0.0447
  656TIP3    H1 1929   5.081   4.714   4.269  0.0349 -1.2003  0.2291
  656TIP3    H2 1930   4.986   4.629   4.187  0.4188  0.2803 -1.8355
  657TIP3   OH2 1931   3.211   6.690   1.868  0.5027 -0.2801 -0.1921
  657TIP3    H1 1932   3.189   6.656   1.955  0.2475  0.3383 -0.0104
  657TIP3    H2 1933   3.150   6.645   1.809  0.1529 -0.1301  0.0488
  658TIP3   OH2 1934   6.485   6.744   3.243 -0.6054  0.2343 -0.3005
  658TIP3    H1 1935   6.505   6.836   3.232  0.0275  0.0183 -1.0531
  658TIP3    H2 1936   6.463   6.713   3.155 -0.2418 -0.4615 -0.1597
  659TIP3   OH2 1937   2.449   2.157   1.973 -0.2592 -0.0633  0.3050
  659TIP3    H1 1938   2.506   2.081   1.983 -0.9326 -0.4212  1.7555
  659TIP3    H2 1939   2.363   2.126   2.001 -1.0190  0.6705 -1.1110
  660TIP3   OH2 1940   5.362   2.109   4.884 -0.9152 -0.4528 -0.4153
  660TIP3    H1 1941   5.424   2.174   4.916 -1.5470  1.3011 -2.4471
  660TIP3    H2 1942   5.333   2.062   4.962 -1.9118  3.0476  1.5335
  661TIP3   OH2 1943   0.520   1.084   0.900  0.1849 -0.1187  0.2746
  661TIP3    H1 1944   0.613   1.089   0.879  0.3797 -0.6420  0.9987
  661TIP3    H2 1945   0.507   0.996   0.934 -0.4290  0.1933  0.8768
  662TIP3   OH2 1946   6.247   3.641   5.396  0.7073 -0.1385  1.1438
  662TIP3    H1 1947   6.189   3.667   5.324  0.0384 -0.6077  1.4973
  662TIP3    H2 1948   6.335   3.662   5.365  0.2329  2.7724  1.4907
  663TIP3   OH2 1949   4.799   5.985   0.670  0.3753  0.3859  0.0046
  663TIP3    H1 1950   4.720   5.987   0.725 -0.2027  0.7366 -0.8124
  663TIP3    H2 1951   4.770   6.019   0.586  0.9767 -1.1814 -0.8795
  664TIP3   OH2 1952   2.927   3.497   0.192  1.2061  0.0994  0.2603
  664TIP3    H1 1953   2.902   3.574   0.141  1.0250 -0.4275 -0.4713
  664TIP3    H2 1954   2.844   3.464   0.229  0.6006 -1.8807 -2.4923
  665TIP3   OH2 1955   7.431   1.823   5.858  0.1661 -0.5440 -0.3180
  665TIP3    H1 1956   7.387   1.739   5.869  0.6568 -0.8133 -0.3346
  665TIP3    H2 1957   7.426   1.865   5.944  0.1071 -0.6857 -0.2519
  666TIP3   OH2 1958   5.194   6.037   5.244  0.2226 -0.1888  0.0220
  666TIP3    H1 1959   5.287   6.051   5.258  0.5163 -2.9762  1.5417
  666TIP3    H2 1960   5.151   6.103   5.299  1.3914 -2.0544  3.4225
  667TIP3   OH2 1961   5.941   0.995   1.797  0.9019 -0.0342  0.3701
  667TIP3    H1 1962   5.879   0.998   1.724 -0.0980  0.8456  1.2175
  667TIP3    H2 1963   5.907   1.060   1.860  3.1752  1.1717  0.4690
  668TIP3   OH2 1964   6.553   0.918   4.179  0.1099  0.4365  0.1616
  668TIP3    H1 1965   6.534   0.904   4.272  0.0336  0.1778  0.1097
  668TIP3    H2 1966   6.525   0.836   4.137 -3.2526  1.8198 -0.6037
  669TIP3   OH2 1967   6.697   2.472  -0.010  0.3493 -0.1558  0.0425
  669TIP3    H1 1968   6.740   2.387   0.001  2.6907  0.9248 -0.1648
  669TIP3    H2 1969   6.760   2.535   0.025 -0.5499  1.6505 -1.4329
  670TIP3   OH2 1970   5.923   6.274   3.330 -0.2053  0.7574  0.2786
  670TIP3    H1 1971   5.914   6.185   3.295 -1.9685  1.9184 -2.5868
  670TIP3    H2 1972   5.963   6.323   3.259 -1.2619  2.7031  0.9626
  671TIP3   OH2 1973   2.927   4.900   1.197  0.0312 -0.4401 -0.7678
  671TIP3    H1 1974   2.920   4.809   1.223  0.2459  0.1313  1.4407
  671TIP3    H2 1975   2.983   4.941   1.264 -0.8272  1.5090 -1.1584
  672TIP3   OH2 1976   0.564   1.745   0.092  0.3249  0.4401 -0.2441
  672TIP3    H1 1977   0.602   1.673   0.043  0.1859  0.9045 -1.0481
  672TIP3    H2 1978   0.501   1.785   0.032  1.2843  1.9859 -0.2868
  673TIP3   OH2 1979   5.158   3.069   2.267 -0.3077 -0.3419 -0.8583
  673TIP3    H1 1980   5.149   3.163   2.250 -0.4838  0.1452  1.5571
  673TIP3    H2 1981   5.097   3.028   2.205 -0.5505  1.1461 -1.6689
  674TIP3   OH2 1982   7.111   5.572   3.456  0.0966  0.3843  0.1268
  674TIP3    H1 1983   7.175   5.513   3.495  0.9859  1.5601  0.5249
  674TIP3    H2 1984   7.161   5.625   3.394 -0.8918 -0.0179 -1.0610
  675TIP3   OH2 1985   0.090   6.558   0.578  0.1634  0.1559 -0.8760
  675TIP3    H1 1986   0.175   6.593   0.602  0.2397 -1.2214  1.1482
  675TIP3    H2 1987   0.027   6.614   0.622  0.1600 -0.3218 -0.2514
  676TIP3   OH2 1988   7.575   3.790   1.264 -0.2327  0.1175 -0.4353
  676TIP3    H1 1989   7.529   3.861   1.220 -0.2038  1.6702  1.8677
  676TIP3    H2 1990   7.558   3.804   1.358  0.6331 -2.3253  0.1718
  677TIP3   OH2 1991   4.115   6.745   3.432 -0.1009  0.3341  0.2549
  677TIP3    H1 1992   4.110   6.740   3.337  0.3647 -1.0934  0.2829
  677TIP3    H2 1993   4.183   6.682   3.456 -0.3872  0.4848  1.5493
  678TIP3   OH2 1994   0.815   6.544   1.789  0.5733  0.1743 -0.0323
  678TIP3    H1 1995   0.776   6.573   1.706  1.5759  0.3343 -0.4541
  678TIP3    H2 1996   0.777   6.457   1.803  0.9558 -0.1684 -1.0415
  679TIP3   OH2 1997   6.900   4.275   4.310 -0.1179  0.5732 -0.2196
  679TIP3    H1 1998   6.977   4.321   4.343 -1.2913  2.8956 -0.4384
  679TIP3    H2 1999   6.883   4.315   4.224 -2.2843  1.1352  0.3918
  680TIP3   OH2 2000   1.232   5.505   2.127  0.1324 -0.4061  0.4267
  680TIP3    H1 2001   1.216   5.599   2.134 -1.0492 -0.5855  0.2888
  680TIP3    H2 2002   1.253   5.477   2.216  1.9944  0.2261  0.2271
  681TIP3   OH2 2003   2.213   6.461   3.440 -0.2999  0.7428 -0.3402
  681TIP3    H1 2004   2.255   6.386   3.398 -0.1046  1.3575 -1.2742
  681TIP3    H2 2005   2.260   6.537   3.405 -0.3601  1.2930  0.7390
  682TIP3   OH2 2006   5.012   2.312   2.033  0.3637  0.0340 -0.7478
  682TIP3    H1 2007   5.013   2.405   2.010 -0.8952  0.2278 -0.0703
  682TIP3    H2 2008   5.084   2.302   2.095 -0.2505  0.8180  0.1116
  683TIP3   OH2 2009   4.289   3.157   4.546  0.0106  0.0188  0.4672
  683TIP3    H1 2010   4.202   3.133   4.578 -1.4599 -0.5930 -3.4649
  683TIP3    H2 2011   4.334   3.073   4.534  1.4979  0.3506  3.0228
  684TIP3   OH2 2012   4.166   5.253   1.482  0.3882 -0.4129 -0.1077
  684TIP3    H1 2013   4.128   5.336   1.509  0.6130 -0.7302  1.3005
  684TIP3    H2 2014   4.116   5.187   1.531  1.5630 -0.9483  0.4188
  685TIP3   OH2 2015   6.757   1.130   6.227 -0.2201  0.0999 -0.4896
  685TIP3    H1 2016   6.760   1.225   6.218  1.0342  0.1876  0.5757
  685TIP3    H2 2017   6.710   1.100   6.150  0.9780  1.4485 -1.8058
  686TIP3   OH2 2018   0.761   4.964   2.258 -0.2348  0.1078 -0.3491
  686TIP3    H1 2019   0.694   4.909   2.298 -1.6223  1.0444 -1.2763
  686TIP3    H2 2020   0.836   4.959   2.317 -0.8907 -1.4914  0.3752
  687TIP3   OH2 2021   0.865   3.990   5.612 -0.5090  0.0129 -0.0029
  687TIP3    H1 2022   0.896   4.050   5.545  0.8842  0.0827  0.6637
  687TIP3    H2 2023   0.845   3.909   5.565 -2.1255  0.8584 -0.8669
  688TIP3   OH2 2024   4.071   1.367   5.606 -0.1825 -0.4044  0.0399
  688TIP3    H1 2025   4.069   1.439   5.543  0.2078 -0.8327 -0.4685
  688TIP3    H2 2026   4.009   1.393   5.674  3.1150  2.5510  2.2298
  689TIP3   OH2 2027   4.492   4.513   6.167 -0.8008 -0.6904 -0.6903
  689TIP3    H1 2028   4.428   4.454   6.127  1.2291 -2.9471 -0.7789
  689TIP3    H2 2029   4.537   4.552   6.092  0.2014 -1.7388 -0.6534
  690TIP3   OH2 2030   5.716   5.099   4.360  0.3425 -0.1941 -0.5896
  690TIP3    H1 2031   5.788   5.035   4.364  1.6321  1.2279  0.2785
  690TIP3    H2 2032   5.639   5.050   4.389  0.8633 -1.8466 -1.8138
  691TIP3   OH2 2033   0.492   1.699   5.961 -0.8556  0.9237  0.4583
  691TIP3    H1 2034   0.410   1.673   5.920 -0.0523  0.5096 -0.9644
  691TIP3    H2 2035   0.527   1.619   6.000 -0.7867  0.9421  0.4364
  692TIP3   OH2 2036   2.313   6.713   3.359  0.2817 -0.1604 -0.6111
  692TIP3    H1 2037   2.367   6.786   3.389  0.6153 -0.0899 -1.3650
  692TIP3    H2 2038   2.228   6.752   3.340  0.5095  0.0739 -1.1768
  693TIP3   OH2 2039   3.901   5.187   5.607  0.1019  0.1771  0.3227
  693TIP3    H1 2040   3.893   5.246   5.532  2.3868  0.3023  0.1332
  693TIP3    H2 2041   3.861   5.105   5.576  0.8589  0.2785 -0.9973
  694TIP3   OH2 2042   2.998   3.844   4.003  0.1802 -0.3032  0.4967
  694TIP3    H1 2043   3.055   3.875   3.933 -1.7362 -0.8243 -1.3926
  694TIP3    H2 2044   2.972   3.756   3.975  0.1220 -0.9212  2.3755
  695TIP3   OH2 2045   0.569   2.501   0.912  0.0433  0.2354  0.0144
  695TIP3    H1 2046   0.625   2.570   0.876 -0.9448 -0.0537 -2.2488
  695TIP3    H2 2047   0.539   2.536   0.996  1.9674  1.2339  0.3515
  696TIP3   OH2 2048   4.335   0.249   3.277  0.0070 -0.5049 -0.1009
  696TIP3    H1 2049   4.313   0.313   3.345 -2.0765 -1.8614  0.6103
  696TIP3    H2 2050   4.283   0.172   3.299  1.8115 -2.1978 -1.3678
  697TIP3   OH2 2051   4.841   2.113   5.584  0.3355 -0.1416  0.2565
  697TIP3    H1 2052   4.770   2.049   5.596  1.7778 -1.5355  1.8954
  697TIP3    H2 2053   4.813   2.166   5.509 -0.2544 -3.7102 -2.3160
  698TIP3   OH2 2054   7.195   5.302   5.565 -0.0352  0.5189  0.1676
  698TIP3    H1 2055   7.217   5.265   5.479  1.3373 -0.7179  1.0013
  698TIP3    H2 2056   7.107   5.269   5.582  0.0670 -0.0617 -0.3477
  699TIP3   OH2 2057   7.552   2.562   3.309 -0.1259 -0.0267  0.2574
  699TIP3    H1 2058   7.579   2.470   3.319  1.2863  0.2694 -0.5972
  699TIP3    H2 2059   7.608   2.596   3.240 -1.3975  1.2005 -0.2209
  700TIP3   OH2 2060   1.586   0.075   3.447  0.0713  0.2906  0.2550
  700TIP3    H1 2061   1.510   0.123   3.415  1.1265  1.0966 -1.1707
  700TIP3    H2 2062   1.650   0.080   3.375  1.5617 -0.1603  1.4876
  701TIP3   OH2 2063   2.541   0.819   3.028  0.2913 -0.2103 -0.1183
  701TIP3    H1 2064   2.615   0.760   3.043  1.1670  1.0697  0.7948
  701TIP3    H2 2065   2.563   0.899   3.077 -1.4606  0.3951 -0.2374
  702TIP3   OH2 2066   0.884   1.817   1.441  0.1217  0.6406 -0.4626
  702TIP3    H1 2067   0.977   1.809   1.459 -0.3206  0.2370  1.9067
  702TIP3    H2 2068   0.869   1.760   1.366  1.2313 -2.0917  1.2511
  703TIP3   OH2 2069   2.306   3.997   3.928  0.1814  0.2434  0.0213
  703TIP3    H1 2070   2.388   4.029   3.965 -0.8834  2.5807  0.5438
  703TIP3    H2 2071   2.325   3.983   3.835  1.5795 -0.9416  0.4542
  704TIP3   OH2 2072   7.461   5.409   5.992  0.3984 -0.5492  0.1817
  704TIP3    H1 2073   7.540   5.361   6.018  0.7906  0.2138  0.4252
  704TIP3    H2 2074   7.489   5.461   5.917 -0.0554 -0.7933 -0.1548
  705TIP3   OH2 2075   1.110   5.610   5.676 -0.3300 -1.0913 -0.0147
  705TIP3    H1 2076   1.130   5.703   5.664  0.2278 -1.2610 -0.4940
  705TIP3    H2 2077   1.108   5.575   5.587 -1.5042 -1.3545  0.0974
  706TIP3   OH2 2078   5.128   2.545   3.976  0.2849 -0.1925  0.2040
  706TIP3    H1 2079   5.083   2.483   4.034 -2.4340  0.0374 -1.4851
  706TIP3    H2 2080   5.221   2.526   3.989 -0.2630 -1.4998  3.0853
  707TIP3   OH2 2081   5.713   1.547   2.602 -0.0582 -0.6225  0.3798
  707TIP3    H1 2082   5.756   1.465   2.579 -1.6848 -1.1871 -0.8080
  707TIP3    H2 2083   5.714   1.598   2.521 -1.0275 -0.4054  0.4858
  708TIP3   OH2 2084   6.081   6.633   5.845 -0.1339  0.2503  0.1816
  708TIP3    H1 2085   6.097   6.726   5.827 -0.0629  0.3391  0.6863
  708TIP3    H2 2086   6.127   6.616   5.928 -1.6875  0.2203  1.0810
  709TIP3   OH2 2087   2.283   3.329   0.540  0.0755  0.5995  0.4431
  709TIP3    H1 2088   2.248   3.243   0.519  2.1501 -0.1571 -0.2145
  709TIP3    H2 2089   2.207   3.386   0.549 -1.2452 -0.8428 -1.1893
  710TIP3   OH2 2090   3.584   0.154   3.985  0.2148  0.3685 -0.2881
  710TIP3    H1 2091   3.663   0.101   3.977  0.8094  1.1712  0.0225
  710TIP3    H2 2092   3.523   0.100   4.036  0.0763 -0.7684 -1.6228
  711TIP3   OH2 2093   1.099   1.566   5.942  0.3025  0.5830  0.0887
  711TIP3    H1 2094   1.097   1.661   5.929  0.7861  0.4068 -1.6101
  711TIP3    H2 2095   1.018   1.546   5.990 -0.7091  1.6778 -1.0879
  712TIP3   OH2 2096   4.290   7.055   0.833  0.1034  0.2512 -0.4150
  712TIP3    H1 2097   4.197   7.063   0.811 -0.2189 -1.2979  0.2501
  712TIP3    H2 2098   4.334   7.116   0.774 -1.4204  1.8353  0.0008
  713TIP3   OH2 2099   2.998   5.219   4.080 -0.1037 -0.4286 -0.0045
  713TIP3    H1 2100   2.927   5.257   4.028  0.2297 -1.4230 -1.2343
  713TIP3    H2 2101   2.993   5.125   4.062  1.4090 -0.5345  0.0000
  714TIP3   OH2 2102   3.677   7.082   0.362 -0.0778  0.4515  0.3496
  714TIP3    H1 2103   3.655   7.026   0.437 -1.2564  0.6919  0.2098
  714TIP3    H2 2104   3.622   7.160   0.373 -0.3925  0.4206 -0.8424
  715TIP3   OH2 2105   5.045   4.033   2.012 -0.2590  0.0604  0.1057
  715TIP3    H1 2106   5.009   4.111   2.054 -0.3281 -1.2279  2.6362
  715TIP3    H2 2107   5.139   4.035   2.034 -0.3218 -0.7078  0.5043
  716TIP3   OH2 2108   3.616   5.009   2.592 -0.3495  0.1275  0.3851
  716TIP3    H1 2109   3.622   4.990   2.685 -1.6635  0.9511  0.6577
  716TIP3    H2 2110   3.609   4.923   2.551  1.6496 -0.3327  0.8773
  717TIP3   OH2 2111   1.769   4.915   2.672 -0.4309 -0.0634 -0.0148
  717TIP3    H1 2112   1.701   4.859   2.710 -0.7654 -0.1487 -0.7215
  717TIP3    H2 2113   1.722   4.995   2.647 -0.1597  0.0998 -0.0026
  718TIP3   OH2 2114   4.533   5.905   4.752  0.1654 -0.5560  0.1495
  718TIP3    H1 2115   4.527   5.975   4.817  0.1896 -1.4016  1.0829
  718TIP3    H2 2116   4.605   5.850   4.783 -1.1076 -2.0865  0.5521
  719TIP3   OH2 2117   1.638   6.216   5.712  0.1245  0.0925 -0.2792
  719TIP3    H1 2118   1.588   6.285   5.756  1.6769  0.6975  0.6482
  719TIP3    H2 2119   1.633   6.141   5.770  1.9214  0.7973  0.8817
  720TIP3   OH2 2120   6.851   0.032   1.293 -0.2340  0.4554 -0.1754
  720TIP3    H1 2121   6.853   0.069   1.205  2.1258  1.4408  0.2172
  720TIP3    H2 2122   6.936   0.055   1.331 -0.3058 -1.8275  1.5949
  721TIP3   OH2 2123   5.855   5.174   2.848 -0.2842  0.6076 -0.6193
  721TIP3    H1 2124   5.931   5.127   2.814  0.8684  0.3166  2.1337
  721TIP3    H2 2125   5.784   5.151   2.787  0.9858 -2.0358 -1.2736
  722TIP3   OH2 2126   4.722   6.896   4.850  0.2068  0.4741 -0.1665
  722TIP3    H1 2127   4.702   6.803   4.860  0.0038  0.3952 -1.1743
  722TIP3    H2 2128   4.641   6.935   4.817 -0.1852  1.2986  1.6524
  723TIP3   OH2 2129   4.961   2.862   2.156 -0.1450 -0.1383  0.1678
  723TIP3    H1 2130   4.872   2.897   2.161  0.1796  0.8715 -0.7046
  723TIP3    H2 2131   4.996   2.899   2.075  0.6601 -1.4970 -0.1331
  724TIP3   OH2 2132   2.399   4.316   4.070  0.3678 -0.4667  0.0441
  724TIP3    H1 2133   2.346   4.296   4.147 -0.2037 -0.9388 -0.4658
  724TIP3    H2 2134   2.486   4.282   4.092 -0.3422 -2.7319 -0.4123
  725TIP3   OH2 2135   6.777   3.617   2.016  0.3496  0.4008 -0.8787
  725TIP3    H1 2136   6.793   3.599   2.109  0.8155 -0.2569 -1.0804
  725TIP3    H2 2137   6.683   3.632   2.010  0.4699  1.6245 -0.1099
  726TIP3   OH2 2138   1.514   4.916   1.052 -0.3806  0.3745  0.1132
  726TIP3    H1 2139   1.604   4.886   1.069 -0.6074  0.0167  0.7108
  726TIP3    H2 2140   1.512   5.006   1.083 -0.7847 -0.2630  2.0563
  727TIP3   OH2 2141   2.363   4.597   2.545 -0.1539 -0.2981  0.2750
  727TIP3    H1 2142   2.429   4.665   2.527  0.1933 -0.7721 -0.2999
  727TIP3    H2 2143   2.334   4.569   2.458  0.5106 -1.6637  0.4743
  728TIP3   OH2 2144   0.463   2.480   3.840  0.3212  0.1509  0.1779
  728TIP3    H1 2145   0.552   2.509   3.863  0.5272 -0.0455 -0.3575
  728TIP3    H2 2146   0.424   2.556   3.797  0.3697  0.1112  0.0613
  729TIP3   OH2 2147   0.854   6.113   2.274  0.3345 -0.0640 -0.4797
  729TIP3    H1 2148   0.824   6.054   2.344  0.1253 -0.2427 -0.7177
  729TIP3    H2 2149   0.894   6.187   2.321  1.1632 -0.6885 -0.1948
  730TIP3   OH2 2150   0.517   0.907   5.252 -0.1548  0.0667 -0.3382
  730TIP3    H1 2151   0.443   0.931   5.309  1.4463  3.4565  0.5678
  730TIP3    H2 2152   0.509   0.965   5.177  1.6793  0.6665 -0.1111
  731TIP3   OH2 2153   5.714   3.294   5.909 -0.0529  0.5916  0.0925
  731TIP3    H1 2154   5.649   3.254   5.966 -0.6370 -0.2150 -1.0961
  731TIP3    H2 2155   5.779   3.331   5.969 -1.2622  0.8614  1.2963
  732TIP3   OH2 2156   5.878   6.319   3.860 -0.5501 -0.0310  0.3055
  732TIP3    H1 2157   5.961   6.315   3.908 -0.4572  1.6878  0.3301
  732TIP3    H2 2158   5.902   6.296   3.770 -0.6575 -2.8566  0.9043
  733TIP3   OH2 2159   1.514   4.405   4.409  0.3076 -0.8468 -0.5870
  733TIP3    H1 2160   1.449   4.416   4.339  0.8557 -0.4536 -1.0466
  733TIP3    H2 2161   1.597   4.431   4.369  0.5723 -0.2264  0.3255
  734TIP3   OH2 2162   2.641   6.231   1.246  0.2576 -0.0920 -0.9852
  734TIP3    H1 2163   2.624   6.210   1.338 -0.3513 -1.3628 -1.3746
  734TIP3    H2 2164   2.555   6.236   1.206  0.4943  0.9405 -1.4142
  735TIP3   OH2 2165   6.135   3.799   0.491  0.4075 -0.4303  0.2509
  735TIP3    H1 2166   6.100   3.850   0.418  1.2586  0.3264  0.3594
  735TIP3    H2 2167   6.069   3.731   0.506 -0.0748 -0.2100 -0.8041
  736TIP3   OH2 2168   3.627   4.111   4.784  0.5208 -0.3252  0.1774
  736TIP3    H1 2169   3.616   4.019   4.757 -1.8471  0.2386 -1.1091
  736TIP3    H2 2170   3.645   4.106   4.877  1.4257 -2.1320 -0.0438
  737TIP3   OH2 2171   4.479   3.403   5.535  0.1813  0.3019 -0.2734
  737TIP3    H1 2172   4.440   3.362   5.612 -2.4374  0.1486 -1.5650
  737TIP3    H2 2173   4.572   3.382   5.540 -0.1511 -0.8332  2.1198
  738TIP3   OH2 2174   4.952   3.015   5.586 -0.2154  0.5436  0.3602
  738TIP3    H1 2175   4.958   2.936   5.639 -1.3861 -0.2175 -0.5811
  738TIP3    H2 2176   5.037   3.022   5.543  0.0542  0.0496  0.8009
  739TIP3   OH2 2177   6.693   2.970   0.563 -0.0090 -0.2964  0.5261
  739TIP3    H1 2178   6.704   2.985   0.469 -1.3039 -2.4291 -0.0513
  739TIP3    H2 2179   6.778   2.991   0.601  0.2110  1.7120 -0.9359
  740TIP3   OH2 2180   6.102   3.506   3.743  0.0199 -0.0414 -0.3259
  740TIP3    H1 2181   6.165   3.573   3.770 -1.1407  0.7857  0.4167
  740TIP3    H2 2182   6.025   3.556   3.715 -1.0705 -1.0761  0.7365
  741TIP3   OH2 2183   7.066   3.549   4.805  0.2722 -0.4010 -0.0933
  741TIP3    H1 2184   7.089   3.640   4.824 -0.9744 -0.1580  0.3242
  741TIP3    H2 2185   7.102   3.499   4.879  0.2631 -0.1415  0.0884
  742TIP3   OH2 2186   4.859   2.452   1.529  0.1625 -0.6258 -0.4498
  742TIP3    H1 2187   4.814   2.418   1.453 -0.1640 -1.0485 -0.0703
  742TIP3    H2 2188   4.852   2.383   1.595 -1.6768  0.6605  0.7821
  743TIP3   OH2 2189   5.940   4.917   3.526 -0.7152  0.0047  0.0611
  743TIP3    H1 2190   5.983   4.846   3.480 -1.0720  0.3144 -0.7845
  743TIP3    H2 2191   6.006   4.950   3.587 -0.4371 -0.8176  0.2147
  744TIP3   OH2 2192   1.824   4.015   4.774  0.9104  0.4124  0.5060
  744TIP3    H1 2193   1.895   4.067   4.737  0.6275  1.0326  0.8328
  744TIP3    H2 2194   1.865   3.964   4.843  1.3236 -0.3093 -0.2502
  745TIP3   OH2 2195   0.332   4.250   0.216  0.1017  0.3616 -0.1542
  745TIP3    H1 2196   0.350   4.282   0.128  0.0700 -1.7919 -1.0107
  745TIP3    H2 2197   0.376   4.313   0.274  1.8122  0.7623 -1.7694
  746TIP3   OH2 2198   7.129   1.615   1.842 -0.2010 -0.5733 -0.0589
  746TIP3    H1 2199   7.183   1.555   1.895  0.8535 -0.0135 -0.4779
  746TIP3    H2 2200   7.132   1.578   1.754  0.0652 -0.1589 -0.2224
  747TIP3   OH2 2201   1.592   5.269   5.166  0.4649 -0.1204 -0.1606
  747TIP3    H1 2202   1.556   5.209   5.101  0.1740  0.0214 -0.1344
  747TIP3    H2 2203   1.562   5.233   5.250  0.7961 -0.2753 -0.1070
  748TIP3   OH2 2204   5.264   1.562   3.129  0.1680  0.0797  0.3874
  748TIP3    H1 2205   5.266   1.554   3.034 -0.7390  0.4057  0.3322
  748TIP3    H2 2206   5.217   1.484   3.159  1.3107 -0.5410  0.6596
  749TIP3   OH2 2207   1.979   4.214   5.143  0.3447 -0.6086 -0.0200
  749TIP3    H1 2208   2.043   4.284   5.160 -0.8425  0.2700  1.0316
  749TIP3    H2 2209   2.022   4.158   5.079  1.1577  1.3460 -1.2905
  750TIP3   OH2 2210   5.167   1.040   3.378 -0.4637 -0.6103  0.2953
  750TIP3    H1 2211   5.095   0.991   3.418 -0.6049 -1.8360 -1.3582
  750TIP3    H2 2212   5.236   0.974   3.365 -0.4202 -0.2721 -1.4042
  751TIP3   OH2 2213   2.523   5.861   1.531 -0.3176  0.0905  0.4948
  751TIP3    H1 2214   2.515   5.812   1.450 -0.5532  2.0246 -0.7283
  751TIP3    H2 2215   2.433   5.868   1.564 -0.7513  2.1193 -0.9175
  752TIP3   OH2 2216   4.894   1.651   1.653 -0.3653  0.3813  0.5016
  752TIP3    H1 2217   4.920   1.707   1.727  1.3420  1.6048 -0.9331
  752TIP3    H2 2218   4.947   1.572   1.664 -0.3244  0.4394  0.7412
  753TIP3   OH2 2219   2.845   2.844   6.125  0.0596  0.3119  0.4393
  753TIP3    H1 2220   2.790   2.820   6.200 -0.2450 -1.9192 -0.4348
  753TIP3    H2 2221   2.925   2.878   6.165 -0.7393  0.7258  1.7504
  754TIP3   OH2 2222   5.886   0.177   4.861  0.4785  0.3029  0.1512
  754TIP3    H1 2223   5.862   0.104   4.917  0.7032 -0.7709 -1.1132
  754TIP3    H2 2224   5.976   0.159   4.835  0.8139  1.4484  0.4500
  755TIP3   OH2 2225   3.287   5.694   0.484 -0.1521  0.5407  0.7295
  755TIP3    H1 2226   3.255   5.690   0.574 -1.3925 -2.4481  0.3047
  755TIP3    H2 2227   3.221   5.745   0.437 -1.2021 -0.5336  0.9873
  756TIP3   OH2 2228   2.904   3.117   0.738  0.0406 -0.1046 -0.6943
  756TIP3    H1 2229   2.959   3.089   0.665 -0.3282 -0.2037 -0.9392
  756TIP3    H2 2230   2.900   3.212   0.731  0.0546 -0.1100 -0.7716
  757TIP3   OH2 2231   1.462   1.340   1.011  0.1102  0.2775 -0.3674
  757TIP3    H1 2232   1.375   1.300   1.007 -1.2110  2.9574 -2.3133
  757TIP3    H2 2233   1.469   1.374   1.101 -0.0879 -1.3975  0.3072
  758TIP3   OH2 2234   3.332   1.247   4.994 -0.7977 -0.1112  0.1346
  758TIP3    H1 2235   3.270   1.190   4.948 -0.1515 -2.0080  1.4768
  758TIP3    H2 2236   3.280   1.323   5.020 -1.7486 -0.1346 -1.5223
  759TIP3   OH2 2237   3.098   1.257   5.442  0.2950 -0.4432 -0.0288
  759TIP3    H1 2238   3.079   1.244   5.535  0.6446  2.7564  0.6048
  759TIP3    H2 2239   3.124   1.170   5.411  0.5917 -1.5545  2.9425
  760TIP3   OH2 2240   2.574   0.457   3.786  0.2607  0.1720  0.0131
  760TIP3    H1 2241   2.533   0.381   3.826  0.5091 -0.9475 -1.7596
  760TIP3    H2 2242   2.548   0.531   3.842 -2.0212 -0.8514  0.3945
  761TIP3   OH2 2243   6.370   0.538   5.110 -0.2887 -0.5631 -0.6534
  761TIP3    H1 2244   6.417   0.485   5.174  1.2404  2.0748  0.6056
  761TIP3    H2 2245   6.308   0.478   5.069  0.1179 -2.8682  1.8332
  762TIP3   OH2 2246   3.910   0.831   4.867 -0.4457  0.3037 -0.1679
  762TIP3    H1 2247   3.927   0.925   4.854 -0.7494  0.4010  0.1265
  762TIP3    H2 2248   3.828   0.828   4.915 -0.0001 -0.0941  0.5814
  763TIP3   OH2 2249   6.677   3.922   2.980  0.0517 -0.3275 -0.4353
  763TIP3    H1 2250   6.691   3.844   3.034 -0.8533  0.0277  0.3543
  763TIP3    H2 2251   6.751   3.924   2.920  0.2727 -1.6033 -0.2385
  764TIP3   OH2 2252   5.752   2.247   2.349 -0.2726  0.2707 -0.0010
  764TIP3    H1 2253   5.674   2.220   2.398  2.2429 -0.7270  3.8760
  764TIP3    H2 2254   5.763   2.340   2.371 -0.8975  0.7286 -1.4812
  765TIP3   OH2 2255   3.048   3.833   0.191 -0.4585  0.1065 -0.1946
  765TIP3    H1 2256   2.980   3.770   0.170 -0.5874  0.9322 -2.6005
  765TIP3    H2 2257   3.008   3.893   0.254 -2.0355  0.6310 -1.6315
  766TIP3   OH2 2258   4.900   0.939   5.979  0.4454  0.4529  0.3008
  766TIP3    H1 2259   4.966   0.880   6.015 -0.6816 -0.9127  0.2354
  766TIP3    H2 2260   4.884   0.906   5.890  0.1384  1.1512  0.0867
  767TIP3   OH2 2261   3.239   2.086   0.849  0.4478 -0.4807 -0.4939
  767TIP3    H1 2262   3.245   2.169   0.897  1.5466 -0.6202 -0.3536
  767TIP3    H2 2263   3.160   2.095   0.796  1.0287  1.0305 -1.1738
  768TIP3   OH2 2264   4.324   2.419   5.854  0.3632 -0.3947 -0.1939
  768TIP3    H1 2265   4.377   2.339   5.848  1.4624  0.3650 -1.1346
  768TIP3    H2 2266   4.363   2.478   5.790 -2.3960 -0.2013 -1.8603
  769TIP3   OH2 2267   5.673   1.317   2.329 -0.2021  0.0675 -0.7671
  769TIP3    H1 2268   5.591   1.346   2.289 -1.8864 -2.9535  0.1458
  769TIP3    H2 2269   5.655   1.227   2.357  3.5583 -0.8499 -0.7965
  770TIP3   OH2 2270   4.415   0.370   5.634 -0.0260  0.0604 -0.2787
  770TIP3    H1 2271   4.447   0.280   5.646 -0.3576  0.0653  0.7170
  770TIP3    H2 2272   4.494   0.420   5.612  0.6443 -0.0050  1.7313
  771TIP3   OH2 2273   4.773   0.156   1.251 -0.1210  0.1710 -0.5533
  771TIP3    H1 2274   4.709   0.169   1.182  0.0844 -0.9254 -0.9780
  771TIP3    H2 2275   4.840   0.100   1.211  0.5602  0.4266  0.2002
  772TIP3   OH2 2276   7.069   1.736   3.632  0.5665 -0.9393 -0.1804
  772TIP3    H1 2277   7.056   1.673   3.562 -0.5762 -0.2427 -0.6236
  772TIP3    H2 2278   7.143   1.702   3.682  2.2632 -0.8061 -2.4531
  773TIP3   OH2 2279   0.586   4.858   0.405 -0.0762  0.0926  0.7892
  773TIP3    H1 2280   0.599   4.930   0.344 -0.5452 -2.1642 -2.2256
  773TIP3    H2 2281   0.492   4.857   0.423  0.0524  0.7122  1.5787
  774TIP3   OH2 2282   5.793   6.120   1.785 -0.3309 -0.5430  0.4978
  774TIP3    H1 2283   5.834   6.139   1.869 -0.5660 -1.4619  0.8352
  774TIP3    H2 2284   5.779   6.025   1.786  0.6803 -0.7505 -1.0464
  775TIP3   OH2 2285   3.144   7.062   6.081  0.2552  0.0876 -0.1248
  775TIP3    H1 2286   3.197   7.072   6.160  0.5621 -0.9011 -0.1924
  775TIP3    H2 2287   3.110   6.973   6.086  1.6005 -0.5926 -1.8809
  776TIP3   OH2 2288   4.087   6.887   2.833 -0.6767  0.1225  0.0784
  776TIP3    H1 2289   4.093   6.792   2.819  2.6485  0.0352  1.3747
  776TIP3    H2 2290   4.027   6.896   2.907 -2.6454 -0.7396 -1.3179
  777TIP3   OH2 2291   3.089   3.404   3.360 -0.2498  0.0095  0.0374
  777TIP3    H1 2292   3.112   3.430   3.271 -1.8807 -1.2723 -0.8024
  777TIP3    H2 2293   3.123   3.475   3.415 -0.5005  1.5661 -1.7242
  778TIP3   OH2 2294   6.561   2.015   0.269 -0.1210  0.1554 -0.1637
  778TIP3    H1 2295   6.532   1.935   0.314  0.1629  1.1784  1.9431
  778TIP3    H2 2296   6.656   2.004   0.261 -0.1436  0.0721 -0.3286
  779TIP3   OH2 2297   7.554   4.715   5.520 -0.2005  0.1984 -0.2530
  779TIP3    H1 2298   7.540   4.785   5.456 -2.4769  0.8514  0.8744
  779TIP3    H2 2299   7.516   4.748   5.601  0.8689 -1.3963  0.9593
  780TIP3   OH2 2300   1.258   0.065   5.706 -0.0900  0.1191  0.0932
  780TIP3    H1 2301   1.280   0.110   5.624  0.5565 -1.5707 -0.7105
  780TIP3    H2 2302   1.317  -0.010   5.708 -0.9812 -0.5782  1.4800
  781TIP3   OH2 2303   6.350   4.877   3.097  0.8200  0.1064  0.2756
  781TIP3    H1 2304   6.423   4.846   3.151 -0.4317 -1.3138  1.2420
  781TIP3    H2 2305   6.302   4.798   3.074 -0.9843  1.0791  0.5206
  782TIP3   OH2 2306   2.670   0.788   1.047 -0.4931  0.0031 -0.3052
  782TIP3    H1 2307   2.660   0.701   1.086 -2.4935  0.2140 -0.2296
  782TIP3    H2 2308   2.613   0.787   0.970  0.6821  0.7522 -1.2181
  783TIP3   OH2 2309   6.562   0.161   5.269 -0.0178 -0.4695  0.8460
  783TIP3    H1 2310   6.635   0.201   5.316 -1.0498  2.0219  0.4882
  783TIP3    H2 2311   6.492   0.154   5.333 -0.0178 -1.2813  0.7691
  784TIP3   OH2 2312   2.176   0.862   4.309  0.0763  0.6328 -0.1393
  784TIP3    H1 2313   2.174   0.909   4.393 -0.0597  1.2189 -0.4683
  784TIP3    H2 2314   2.148   0.926   4.245  1.8375  0.6983 -0.8900
  785TIP3   OH2 2315   6.574   5.945   1.773 -0.3360 -0.3269  0.1686
  785TIP3    H1 2316   6.537   6.012   1.715  0.5776 -0.5466 -0.6956
  785TIP3    H2 2317   6.668   5.965   1.775 -0.1121 -1.3539  0.1944
  786TIP3   OH2 2318   0.335   3.449   0.177  0.4967 -0.7023  0.3181
  786TIP3    H1 2319   0.404   3.515   0.189  0.3744 -0.8298  2.1239
  786TIP3    H2 2320   0.294   3.443   0.264 -2.4872  0.1125 -0.9161
  787TIP3   OH2 2321   7.210   5.922   2.125 -0.1626  0.2081 -0.0797
  787TIP3    H1 2322   7.143   5.854   2.121 -1.1445  1.1153  0.6514
  787TIP3    H2 2323   7.293   5.874   2.117 -0.8062 -1.1447  0.9489
  788TIP3   OH2 2324   2.636   6.555   4.435 -0.3370  0.6656 -0.1830
  788TIP3    H1 2325   2.597   6.561   4.348 -0.8557 -0.8380 -0.0856
  788TIP3    H2 2326   2.728   6.576   4.421  0.6033 -3.6024 -1.9841
  789TIP3   OH2 2327   0.951   1.155   4.698 -0.2716 -0.8334 -0.0470
  789TIP3    H1 2328   0.867   1.144   4.654  0.7871 -1.2887 -2.0703
  789TIP3    H2 2329   0.967   1.250   4.697  0.5964 -0.9197 -2.5189
  790TIP3   OH2 2330   0.741   0.135   3.842 -0.3156 -0.0809 -0.0243
  790TIP3    H1 2331   0.671   0.088   3.796  0.6233  0.0816 -1.7313
  790TIP3    H2 2332   0.821   0.110   3.795  0.3897  2.1136 -0.1340
  791TIP3   OH2 2333   5.266   4.382   2.643 -0.0080 -0.1058 -0.0341
  791TIP3    H1 2334   5.264   4.336   2.559 -0.4036  1.4176 -0.8972
  791TIP3    H2 2335   5.215   4.462   2.628  1.9326  1.4000  0.9029
  792TIP3   OH2 2336   1.464   1.615   0.494  0.5726  0.3755 -0.3265
  792TIP3    H1 2337   1.424   1.699   0.473 -0.5605 -0.5462 -2.2117
  792TIP3    H2 2338   1.531   1.603   0.426  0.0168 -0.6717 -0.7141
  793TIP3   OH2 2339   1.834   7.011   4.172  0.0261  0.2617 -0.0595
  793TIP3    H1 2340   1.926   7.035   4.187  0.4007  1.0738 -2.9842
  793TIP3    H2 2341   1.784   7.083   4.211  0.7433  0.7686 -0.0458
  794TIP3   OH2 2342   0.365   2.708   6.086  0.4054 -0.8024 -0.0576
  794TIP3    H1 2343   0.343   2.646   6.155 -2.9589 -1.8257 -1.7742
  794TIP3    H2 2344   0.323   2.790   6.113  0.8287 -0.6184  0.0461
  795TIP3   OH2 2345   0.910   0.423   1.903  0.3938 -0.1605  0.4404
  795TIP3    H1 2346   0.941   0.333   1.915  0.9767  0.0232  0.3095
  795TIP3    H2 2347   0.984   0.470   1.864  0.1461  0.4148  0.6500
  796TIP3   OH2 2348   5.066   1.264   0.149 -0.5440 -1.1098 -0.2720
  796TIP3    H1 2349   5.007   1.297   0.081 -1.4504 -0.8707  0.6197
  796TIP3    H2 2350   5.056   1.169   0.146 -0.1377 -1.1407 -0.8570
  797TIP3   OH2 2351   2.829   4.087   2.781 -0.7255 -0.1438  0.2474
  797TIP3    H1 2352   2.819   4.182   2.782 -0.9477 -0.1719  0.7719
  797TIP3    H2 2353   2.822   4.064   2.688 -3.4300  0.0654  0.3329
  798TIP3   OH2 2354   7.530   4.631   0.439  0.0283  0.1031  0.6355
  798TIP3    H1 2355   7.517   4.725   0.451  1.6645  0.4036  0.3351
  798TIP3    H2 2356   7.490   4.611   0.355 -0.1185  0.5918  0.5865
  799TIP3   OH2 2357   3.847   0.817   4.073  0.0115  0.0746 -0.1396
  799TIP3    H1 2358   3.755   0.798   4.057  0.2715 -1.6175  0.1758
  799TIP3    H2 2359   3.849   0.849   4.164 -0.0954 -1.5506  0.4682
  800TIP3   OH2 2360   6.991   1.624   2.085  0.3814 -0.6093  0.9914
  800TIP3    H1 2361   7.007   1.534   2.112  1.3324 -0.5041  0.7992
  800TIP3    H2 2362   7.022   1.629   1.994 -1.7639 -0.6674  0.1936
  801TIP3   OH2 2363   1.972   2.257   0.203 -0.3200 -0.0770 -0.6066
  801TIP3    H1 2364   1.916   2.331   0.229 -0.9689 -0.9715  0.6787
  801TIP3    H2 2365   1.915   2.180   0.210  0.7963 -0.9038 -0.2152
  802TIP3   OH2 2366   6.183   0.209   1.774  0.4918  0.8318 -0.2672
  802TIP3    H1 2367   6.216   0.120   1.767 -2.7917 -0.5703  0.0972
  802TIP3    H2 2368   6.145   0.227   1.688 -0.4035  1.1686  0.1871
  803TIP3   OH2 2369   4.012   5.418   2.322  0.2540  0.6129 -0.0946
  803TIP3    H1 2370   4.029   5.342   2.267  1.8356 -0.7383  2.1128
  803TIP3    H2 2371   3.919   5.411   2.344  0.3684 -0.6814  0.0561
  804TIP3   OH2 2372   3.510   0.052   0.278  0.0803 -0.3144 -0.0239
  804TIP3    H1 2373   3.441   0.117   0.269  0.3309 -0.1625 -1.0136
  804TIP3    H2 2374   3.583   0.100   0.317  0.6640  0.3315 -1.8061
  805TIP3   OH2 2375   2.956   4.093   3.325 -0.2126 -0.2099  0.5657
  805TIP3    H1 2376   2.872   4.064   3.360 -1.1902  2.2609  0.4412
  805TIP3    H2 2377   3.004   4.125   3.401 -0.2333  0.3329  0.3499
  806TIP3   OH2 2378   0.495   6.350   5.530  0.3350 -0.5031  0.0637
  806TIP3    H1 2379   0.511   6.441   5.504 -2.3356 -0.4064 -1.6983
  806TIP3    H2 2380   0.558   6.299   5.480 -0.6397  0.1862 -1.9859
  807TIP3   OH2 2381   5.655   6.742   0.539  0.2906 -0.3066 -0.3296
  807TIP3    H1 2382   5.566   6.712   0.522  0.1109  0.6277 -1.1350
  807TIP3    H2 2383   5.652   6.837   0.526  1.3992 -0.2612 -0.3946
  808TIP3   OH2 2384   3.261   6.095   5.026 -0.2694  0.1149  0.0855
  808TIP3    H1 2385   3.171   6.123   5.043 -0.7087 -0.6534 -0.8932
  808TIP3    H2 2386   3.277   6.025   5.090 -0.0615  0.8219  0.8207
  809TIP3   OH2 2387   0.501   0.534   3.667  0.4379 -0.6242  0.1458
  809TIP3    H1 2388   0.589   0.535   3.628  0.0962 -0.7977 -0.6334
  809TIP3    H2 2389   0.504   0.463   3.730  0.0204 -2.5074 -1.8568
  810TIP3   OH2 2390   5.534   1.361   4.857 -0.0913  0.5854  0.2654
  810TIP3    H1 2391   5.557   1.371   4.764  0.6214  0.6038  0.4324
  810TIP3    H2 2392   5.567   1.274   4.881  1.6554  1.4025  1.0189
  811TIP3   OH2 2393   0.993   6.526   3.295 -0.5672  0.2434  0.5608
  811TIP3    H1 2394   0.922   6.473   3.259  0.0143  0.1902 -0.5827
  811TIP3    H2 2395   0.981   6.612   3.254 -0.3378  0.4172  0.8538
  812TIP3   OH2 2396   1.759   4.270   2.346  0.2904 -0.2008  0.6777
  812TIP3    H1 2397   1.778   4.182   2.316  0.9822  0.5142 -1.1188
  812TIP3    H2 2398   1.845   4.312   2.356 -0.0412  0.4324  0.9758
  813TIP3   OH2 2399   4.282   3.914   0.538 -0.1580 -0.4058  0.0040
  813TIP3    H1 2400   4.348   3.969   0.496 -0.4565 -0.3911 -0.4512
  813TIP3    H2 2401   4.318   3.825   0.532  1.0843 -0.1285  2.1644
  814TIP3   OH2 2402   2.213   1.205   5.105  0.1559 -0.2825 -0.1073
  814TIP3    H1 2403   2.127   1.239   5.084  0.1658 -1.1034 -1.5924
  814TIP3    H2 2404   2.225   1.130   5.046  1.4864 -0.7775  0.7376
  815TIP3   OH2 2405   2.060   0.526   4.310  0.3367  0.3406 -0.4220
  815TIP3    H1 2406   2.043   0.471   4.233 -0.8002  2.4824 -1.8189
  815TIP3    H2 2407   2.156   0.529   4.317  0.4407 -1.7029 -0.3039
  816TIP3   OH2 2408   0.180   0.214   1.625 -0.4352  0.0941  0.1101
  816TIP3    H1 2409   0.236   0.215   1.702  0.0143 -1.5380 -0.1617
  816TIP3    H2 2410   0.107   0.156   1.648 -0.9901  0.6328 -0.2434
  817TIP3   OH2 2411   2.393   2.794   2.996 -0.0202  0.3569  0.0671
  817TIP3    H1 2412   2.485   2.789   2.968 -0.2341  0.6960 -0.7132
  817TIP3    H2 2413   2.363   2.879   2.964 -0.8527 -0.1129 -0.4368
  818TIP3   OH2 2414   5.187   6.485   0.447 -0.1077  0.1781 -0.0564
  818TIP3    H1 2415   5.200   6.533   0.365 -0.8923 -1.5190 -1.2284
  818TIP3    H2 2416   5.102   6.515   0.479  0.7207  1.7185  0.8059
  819TIP3   OH2 2417   0.797   3.823   4.451 -0.4344 -0.9025  0.1051
  819TIP3    H1 2418   0.831   3.804   4.538 -2.4415 -3.1034  0.5206
  819TIP3    H2 2419   0.709   3.786   4.451 -1.1995  0.6816 -2.2743
  820TIP3   OH2 2420   7.124   1.183   1.704  0.0865 -0.5118  0.2977
  820TIP3    H1 2421   7.202   1.179   1.649  0.1971  0.6644  0.3336
  820TIP3    H2 2422   7.051   1.181   1.643  0.1849 -0.2573  0.1691
  821TIP3   OH2 2423   4.575   2.796   1.330  0.0062 -0.0316 -0.0195
  821TIP3    H1 2424   4.543   2.706   1.331 -1.2809  0.4056  1.2018
  821TIP3    H2 2425   4.581   2.818   1.237 -0.8931 -0.9565 -0.3195
  822TIP3   OH2 2426   6.978   4.146   0.746 -0.1852 -0.3412 -0.9052
  822TIP3    H1 2427   7.001   4.078   0.809 -0.4222  0.5393  0.1491
  822TIP3    H2 2428   6.886   4.166   0.763  0.3389  1.5155  0.0709
  823TIP3   OH2 2429   0.394   1.980   0.650  0.2381  0.3426  0.3186
  823TIP3    H1 2430   0.403   2.036   0.727 -2.7825  0.0517  0.9857
  823TIP3    H2 2431   0.459   1.910   0.664  1.0700  1.3276  1.6036
  824TIP3   OH2 2432   4.228   0.772   1.482  0.0113 -0.2840 -0.3214
  824TIP3    H1 2433   4.154   0.713   1.466 -2.1258  1.6837  1.5413
  824TIP3    H2 2434   4.245   0.814   1.398 -0.4738 -1.2963 -0.9405
  825TIP3   OH2 2435   5.737   4.613   4.654  0.3005  0.5497  0.1565
  825TIP3    H1 2436   5.748   4.589   4.562 -2.8774  1.4213 -0.5923
  825TIP3    H2 2437   5.693   4.698   4.651 -0.4945  0.2884  2.4483
  826TIP3   OH2 2438   2.838   5.859   6.101 -0.0096 -0.2798 -0.8277
  826TIP3    H1 2439   2.921   5.818   6.079  0.1453  0.8086 -2.3764
  826TIP3    H2 2440   2.774   5.787   6.096  0.6955 -0.9454 -0.4682
  827TIP3   OH2 2441   5.014   5.218   4.185 -0.9642 -0.4093  0.3484
  827TIP3    H1 2442   5.009   5.253   4.274  0.0240  0.3557  0.1226
  827TIP3    H2 2443   5.107   5.225   4.162 -0.8978 -2.2444 -0.1042
  828TIP3   OH2 2444   5.313   3.069   4.795  0.1290  0.1740 -0.5841
  828TIP3    H1 2445   5.225   3.037   4.811  0.1275  0.4473 -0.0186
  828TIP3    H2 2446   5.304   3.164   4.791  0.1657  0.1361 -2.0332
  829TIP3   OH2 2447   2.435   0.852   5.459  0.0236  0.1859  0.1783
  829TIP3    H1 2448   2.473   0.890   5.538  3.0082  0.9807 -1.4614
  829TIP3    H2 2449   2.447   0.920   5.392 -3.1292 -0.1344 -0.8719
  830TIP3   OH2 2450   5.878   4.039   3.429  0.1268 -0.5081  0.4655
  830TIP3    H1 2451   5.810   4.106   3.429  2.0162  1.5636 -0.7191
  830TIP3    H2 2452   5.859   3.985   3.353  1.0003  1.4922 -1.2828
  831TIP3   OH2 2453   5.116   1.372   2.853 -0.0457  0.0493 -0.1705
  831TIP3    H1 2454   5.153   1.294   2.896  0.1558  0.4097  0.3079
  831TIP3    H2 2455   5.028   1.380   2.889 -0.3588 -0.3998 -0.7957
  832TIP3   OH2 2456   7.155   1.238   4.357 -0.1092  0.1399 -0.4886
  832TIP3    H1 2457   7.243   1.250   4.392 -1.0603  2.6688  1.3645
  832TIP3    H2 2458   7.139   1.144   4.364  1.5526 -0.0715  1.5168
  833TIP3   OH2 2459   6.406   0.354   6.091 -0.5862 -0.2372 -0.5958
  833TIP3    H1 2460   6.454   0.355   6.174 -1.3814  1.5266 -0.0949
  833TIP3    H2 2461   6.316   0.376   6.115 -0.9789 -0.3837 -1.8496
  834TIP3   OH2 2462   2.849   4.220   1.098  0.0620  0.1200 -0.1745
  834TIP3    H1 2463   2.903   4.283   1.051 -0.0895 -0.4604 -1.1552
  834TIP3    H2 2464   2.912   4.163   1.143  0.1981  0.9546  0.7188
  835TIP3   OH2 2465   5.334   3.902   0.462 -0.8332 -0.7792 -0.5590
  835TIP3    H1 2466   5.398   3.968   0.488 -2.2395  1.2027 -1.8193
  835TIP3    H2 2467   5.291   3.876   0.543 -1.3492  1.1145 -0.1723
  836TIP3   OH2 2468   1.946   5.658   6.155  0.0505 -0.0972  0.0170
  836TIP3    H1 2469   2.025   5.650   6.208  0.8394  0.5175 -1.0445
  836TIP3    H2 2470   1.908   5.570   6.155  1.0383 -0.5291  0.0646
  837TIP3   OH2 2471   5.151   6.963   2.811 -0.1743 -0.4112  0.4600
  837TIP3    H1 2472   5.064   7.002   2.809  0.5316  1.2501 -0.3762
  837TIP3    H2 2473   5.208   7.034   2.842  0.7305 -1.8355  2.2676
  838TIP3   OH2 2474   4.931   4.449   4.102  0.2647 -0.2317 -0.3451
  838TIP3    H1 2475   4.913   4.415   4.190 -3.3294 -1.1053 -1.2327
  838TIP3    H2 2476   4.938   4.371   4.047  0.6328  0.3259 -1.1057
  839TIP3   OH2 2477   4.521   0.156   4.231 -0.2500 -0.2033  0.1143
  839TIP3    H1 2478   4.504   0.168   4.324 -1.2200 -2.1732  0.2489
  839TIP3    H2 2479   4.596   0.097   4.227  0.5690  0.8363 -0.3989
  840TIP3   OH2 2480   5.174   3.398   1.113 -0.6633 -0.1738 -0.0297
  840TIP3    H1 2481   5.229   3.320   1.122 -1.3528 -0.5176  1.6991
  840TIP3    H2 2482   5.144   3.416   1.202  0.8960  3.1652 -0.0478
  841TIP3   OH2 2483   2.063   6.894   0.753 -0.3665 -0.3960 -0.3706
  841TIP3    H1 2484   2.119   6.971   0.738 -0.7429 -0.1292 -0.4129
  841TIP3    H2 2485   2.121   6.820   0.738  0.3512 -0.1256  0.9769
  842TIP3   OH2 2486   3.052   0.827   6.151 -0.0031 -0.7974  0.1077
  842TIP3    H1 2487   3.148   0.827   6.152  0.0891  0.5022  3.3026
  842TIP3    H2 2488   3.028   0.741   6.184  0.1540 -0.5688  0.8504
  843TIP3   OH2 2489   7.180   2.021   3.602 -0.2418  0.1390 -0.0894
  843TIP3    H1 2490   7.144   1.937   3.632  0.2905 -0.0384  0.0577
  843TIP3    H2 2491   7.237   1.997   3.528 -0.4689  0.4248 -0.3627
  844TIP3   OH2 2492   1.154   1.164   2.227 -0.4762  0.5667  0.1338
  844TIP3    H1 2493   1.235   1.116   2.245 -1.0202 -0.0089  1.1557
  844TIP3    H2 2494   1.121   1.190   2.313 -1.5890  0.4417 -0.2294
  845TIP3   OH2 2495   0.284   0.560   5.399  0.4397  0.2700 -0.0182
  845TIP3    H1 2496   0.360   0.543   5.455  0.4673 -1.9449 -0.6158
  845TIP3    H2 2497   0.210   0.567   5.459  0.9355  1.2173  0.4881
  846TIP3   OH2 2498   7.399   5.087   1.486  0.5257  0.2341 -0.0873
  846TIP3    H1 2499   7.446   5.052   1.562 -0.4027  0.3577  0.5594
  846TIP3    H2 2500   7.442   5.047   1.411  1.8186  0.5452  0.4736
  847TIP3   OH2 2501   0.974   3.785   3.820  0.6295 -0.1824  0.2787
  847TIP3    H1 2502   1.047   3.835   3.858  0.2667  1.5345 -1.1881
  847TIP3    H2 2503   1.003   3.763   3.732  1.3820 -3.9743  1.2864
  848TIP3   OH2 2504   1.135   4.191   5.022  0.0631  0.3918 -0.1577
  848TIP3    H1 2505   1.077   4.263   5.046 -1.5504 -0.8191 -0.2428
  848TIP3    H2 2506   1.199   4.230   4.964 -0.1929  1.9465  0.5614
  849TIP3   OH2 2507   4.518   4.961   0.608 -0.1472  0.2686 -0.3211
  849TIP3    H1 2508   4.605   4.991   0.636  0.6105 -0.5131 -1.7275
  849TIP3    H2 2509   4.509   4.994   0.519 -1.3310  0.3796 -0.1741
  850TIP3   OH2 2510   1.704   4.975   0.053  0.3836  0.7289 -0.0642
  850TIP3    H1 2511   1.659   5.044   0.101 -2.2039  0.0185 -1.2719
  850TIP3    H2 2512   1.709   5.007  -0.037  0.5709 -0.0170 -0.3308
  851TIP3   OH2 2513   1.376   5.901   5.380 -0.1268  0.0193 -0.1148
  851TIP3    H1 2514   1.417   5.944   5.305  1.6624  2.0747  1.9108
  851TIP3    H2 2515   1.311   5.964   5.412  0.4477 -0.0082  1.1560
  852TIP3   OH2 2516   1.735   4.233   3.202 -0.2599 -0.3808 -0.1693
  852TIP3    H1 2517   1.813   4.221   3.148 -1.1508 -0.6294 -1.4655
  852TIP3    H2 2518   1.698   4.317   3.174 -0.2152 -0.0323  0.7704
  853TIP3   OH2 2519   4.105   6.931   1.772 -0.0097 -0.4872 -0.0083
  853TIP3    H1 2520   4.082   6.930   1.679 -0.3464  0.0208  0.0661
  853TIP3    H2 2521   4.028   6.968   1.816 -0.4292 -2.0649  0.6401
  854TIP3   OH2 2522   3.926   2.959   2.874 -0.3175 -0.0513  0.3524
  854TIP3    H1 2523   3.979   2.927   2.947 -0.6609 -1.0168  0.1920
  854TIP3    H2 2524   3.987   3.006   2.818 -0.0688  0.8356  1.3210
  855TIP3   OH2 2525   7.249   0.375   2.399 -0.2072 -0.6552  0.2832
  855TIP3    H1 2526   7.264   0.454   2.347 -0.6251 -0.0138  1.1054
  855TIP3    H2 2527   7.268   0.401   2.489 -0.2573 -1.5205  0.5555
  856TIP3   OH2 2528   6.453   0.904   2.173 -0.7904  0.7366  0.0962
  856TIP3    H1 2529   6.500   0.824   2.195  0.1353  1.0931 -0.5337
  856TIP3    H2 2530   6.414   0.886   2.087  0.1743  1.2506 -0.4745
  857TIP3   OH2 2531   5.376   5.117   2.669 -0.5009 -0.2840 -0.2281
  857TIP3    H1 2532   5.320   5.181   2.626 -2.3281 -1.9357 -0.4742
  857TIP3    H2 2533   5.365   5.135   2.763  0.3138  0.7741 -0.3183
  858TIP3   OH2 2534   5.874   3.923   5.891 -0.5352 -0.3847 -0.0715
  858TIP3    H1 2535   5.863   3.999   5.834 -0.6970 -0.3419  0.0179
  858TIP3    H2 2536   5.897   3.852   5.831 -1.2227 -0.4595 -0.2498
  859TIP3   OH2 2537   4.322   5.580   0.356 -0.0735 -0.1529 -0.1231
  859TIP3    H1 2538   4.302   5.614   0.269 -0.5756 -0.4999 -0.1431
  859TIP3    H2 2539   4.328   5.485   0.345 -0.0052 -0.1903  0.1961
  860TIP3   OH2 2540   6.341   4.420   1.328 -0.1999  0.1753 -0.0200
  860TIP3    H1 2541   6.247   4.405   1.335 -0.6416 -0.9972 -4.9450
  860TIP3    H2 2542   6.349   4.498   1.274  1.7072  0.2595  0.3119
  861TIP3   OH2 2543   0.622   4.108   0.310  0.2663 -0.3829  0.2091
  861TIP3    H1 2544   0.692   4.166   0.338 -0.5786  1.4687 -1.3002
  861TIP3    H2 2545   0.607   4.131   0.218 -0.6868 -2.4278 -0.2019
  862TIP3   OH2 2546   2.945   2.754   1.337  0.2373 -0.2739  0.1332
  862TIP3    H1 2547   3.035   2.723   1.327  0.5507  0.5447  0.3470
  862TIP3    H2 2548   2.915   2.771   1.248  0.4187 -0.2061  0.0845
  863TIP3   OH2 2549   1.203   2.139   3.575 -0.5369 -0.1962 -0.3935
  863TIP3    H1 2550   1.278   2.170   3.524  0.1791  0.7400  1.1353
  863TIP3    H2 2551   1.127   2.177   3.532  0.1031  1.1645 -0.3842
  864TIP3   OH2 2552   1.200   6.608   0.586 -0.5522 -0.2188 -0.0893
  864TIP3    H1 2553   1.282   6.632   0.630 -0.9695  0.8546  0.1221
  864TIP3    H2 2554   1.223   6.533   0.532  0.5218 -0.0671  0.1394
  865TIP3   OH2 2555   2.167   0.833   1.921 -0.2088  0.1358 -0.4779
  865TIP3    H1 2556   2.224   0.835   1.844 -1.2566  0.3184 -1.2690
  865TIP3    H2 2557   2.080   0.813   1.886 -0.7009  0.2009  0.6631
  866TIP3   OH2 2558   4.391   5.730   5.001 -0.5148  0.3445 -0.1817
  866TIP3    H1 2559   4.364   5.714   4.911  0.4082  0.2928 -0.4602
  866TIP3    H2 2560   4.317   5.699   5.054 -0.6443 -0.6000 -0.8817
  867TIP3   OH2 2561   1.630   2.047   1.497  0.0040 -0.0895 -0.2911
  867TIP3    H1 2562   1.655   2.105   1.425 -1.1167  2.6231  1.3353
  867TIP3    H2 2563   1.686   2.075   1.570  0.1572 -1.8308  0.3093
  868TIP3   OH2 2564   1.020   2.917   0.715  0.3714  0.1535 -0.1809
  868TIP3    H1 2565   1.068   2.845   0.755  1.1147 -0.1654 -1.5813
  868TIP3    H2 2566   0.972   2.957   0.787 -0.5694 -2.1279  0.5227
  869TIP3   OH2 2567   1.591   2.475   1.809 -0.0259  0.2709  0.0605
  869TIP3    H1 2568   1.645   2.482   1.888 -0.2798  0.2774  0.2312
  869TIP3    H2 2569   1.518   2.419   1.834  1.3547 -2.1352 -0.9500
  870TIP3   OH2 2570   2.766   2.760   2.386  0.0722  0.1215  0.7697
  870TIP3    H1 2571   2.757   2.694   2.454 -1.0863 -0.3274  0.2148
  870TIP3    H2 2572   2.690   2.746   2.329  0.7154  0.8401 -0.3019
  871TIP3   OH2 2573   6.774   5.911  -0.002  0.1596 -0.0202  0.1620
  871TIP3    H1 2574   6.723   5.903   0.078 -1.3673 -1.4602 -0.8780
  871TIP3    H2 2575   6.735   5.985  -0.048 -0.1407 -0.3011 -0.0398
  872TIP3   OH2 2576   7.104   4.415   0.333 -0.0765 -0.4266  0.2370
  872TIP3    H1 2577   7.069   4.337   0.376 -2.1707  0.1492 -0.2835
  872TIP3    H2 2578   7.143   4.466   0.403 -2.3868 -0.0545  1.3430
  873TIP3   OH2 2579   7.117   6.622   0.321  0.3148  0.1024 -0.2831
  873TIP3    H1 2580   7.199   6.638   0.368  1.2017  0.9092 -2.0207
  873TIP3    H2 2581   7.089   6.535   0.350  1.4486  0.0772  0.8161
  874TIP3   OH2 2582   3.308   0.240   0.294 -0.4956  0.3218  0.0155
  874TIP3    H1 2583   3.360   0.311   0.256  1.2467  0.9923  3.2633
  874TIP3    H2 2584   3.246   0.285   0.352 -0.2720 -0.7408  1.1087
  875TIP3   OH2 2585   5.379   4.901   2.268  0.1571 -0.1292 -0.0981
  875TIP3    H1 2586   5.373   4.861   2.181  2.2529 -1.2027  0.1990
  875TIP3    H2 2587   5.294   4.881   2.309  0.3255 -2.4526 -0.7536
  876TIP3   OH2 2588   6.406   4.572   3.312  0.0839 -0.1966 -0.3059
  876TIP3    H1 2589   6.422   4.527   3.395  0.3264  1.5393  0.6302
  876TIP3    H2 2590   6.339   4.519   3.268 -0.8788 -0.5237  1.4954
  877TIP3   OH2 2591   6.331   0.538   4.520  0.2113  0.7149  0.2643
  877TIP3    H1 2592   6.355   0.463   4.576 -0.6620 -1.2793 -1.8880
  877TIP3    H2 2593   6.411   0.559   4.473  0.0083 -0.0849 -0.4509
  878TIP3   OH2 2594   4.793   3.624   2.242 -0.4210 -0.0763  0.1707
  878TIP3    H1 2595   4.761   3.567   2.312 -1.8646  0.8221  0.2906
  878TIP3    H2 2596   4.803   3.566   2.166  0.4472 -0.9149  0.9003
  879TIP3   OH2 2597   6.019   3.163   2.936 -0.1907  0.2265  0.5916
  879TIP3    H1 2598   6.065   3.080   2.929 -0.8328 -0.2763  2.0222
  879TIP3    H2 2599   6.029   3.189   3.027 -1.0157  1.1223  0.4453
  880TIP3   OH2 2600   0.274   6.656   6.063  0.2166  0.4187  0.0486
  880TIP3    H1 2601   0.359   6.681   6.099  0.2501 -0.6457  0.7808
  880TIP3    H2 2602   0.294   6.597   5.990  0.1646 -1.7097  1.6367
  881TIP3   OH2 2603   5.789   3.188   1.211 -0.1347  0.1477  0.0223
  881TIP3    H1 2604   5.730   3.112   1.201 -1.5906  1.2490 -0.1671
  881TIP3    H2 2605   5.811   3.213   1.121  0.5647 -0.2010  0.0915
  882TIP3   OH2 2606   4.176   3.557   3.634  0.0096 -0.0522 -0.0071
  882TIP3    H1 2607   4.233   3.602   3.697  0.3454 -1.8851  1.0734
  882TIP3    H2 2608   4.212   3.580   3.549  1.1915  0.3767  0.5856
  883TIP3   OH2 2609   6.266   1.071   0.421 -0.7125  0.0029  0.0277
  883TIP3    H1 2610   6.173   1.059   0.441 -0.4913 -0.1504  1.0019
  883TIP3    H2 2611   6.311   1.017   0.485  0.0286 -0.7958 -1.1311
  884TIP3   OH2 2612   7.264   5.722   3.900  0.6789  0.8214 -0.1432
  884TIP3    H1 2613   7.348   5.676   3.898  2.6317  4.0890 -0.6388
  884TIP3    H2 2614   7.286   5.813   3.884 -3.0503  1.8313 -0.5052
  885TIP3   OH2 2615   6.754   5.394   4.515  0.0423  0.8618  0.2753
  885TIP3    H1 2616   6.755   5.471   4.572  1.0659  2.4008 -1.6744
  885TIP3    H2 2617   6.846   5.365   4.513 -0.4160 -0.8083  1.4219
  886TIP3   OH2 2618   6.438   4.721   5.195  0.3102 -0.0752  0.0238
  886TIP3    H1 2619   6.366   4.784   5.185 -0.8301 -1.0592  1.5455
  886TIP3    H2 2620   6.469   4.736   5.284  0.3160 -1.3452  0.2456
  887TIP3   OH2 2621   7.393   4.348   1.128 -0.0312  0.0759 -0.6478
  887TIP3    H1 2622   7.465   4.291   1.155 -0.1311 -0.3206 -1.2042
  887TIP3    H2 2623   7.410   4.365   1.035 -0.2746  0.5540 -0.6087
  888TIP3   OH2 2624   7.558   1.647   0.957 -0.1894  0.1514  0.0057
  888TIP3    H1 2625   7.524   1.719   0.903  1.9546  1.2021 -0.0312
  888TIP3    H2 2626   7.635   1.683   1.001  1.1401 -2.1876 -0.2139
  889TIP3   OH2 2627   0.730   5.011   4.501  0.0456 -0.3396 -0.1242
  889TIP3    H1 2628   0.685   4.929   4.517 -0.8141 -0.0920 -1.1542
  889TIP3    H2 2629   0.757   5.042   4.587  1.4462 -2.2766  0.1949
  890TIP3   OH2 2630   3.267   3.089   2.502 -0.6920 -0.2702  0.9471
  890TIP3    H1 2631   3.198   3.031   2.532  0.0154 -2.1953 -0.9306
  890TIP3    H2 2632   3.344   3.033   2.493 -0.0336  0.8525 -1.1567
  891TIP3   OH2 2633   7.181   2.658   3.571  0.6337  0.2086 -0.1693
  891TIP3    H1 2634   7.113   2.672   3.505  1.3374  0.9322 -0.7685
  891TIP3    H2 2635   7.199   2.564   3.567  1.3030  0.3594 -1.6940
  892TIP3   OH2 2636   5.306   5.254   4.144  0.1035 -0.3848 -0.2816
  892TIP3    H1 2637   5.254   5.327   4.177 -0.8812 -1.6973  1.2041
  892TIP3    H2 2638   5.349   5.288   4.066  0.2750  1.9993  0.7782
  893TIP3   OH2 2639   2.685   2.517   3.495 -0.4157 -0.3305  0.5994
  893TIP3    H1 2640   2.692   2.603   3.456 -0.8140  0.1270  1.5006
  893TIP3    H2 2641   2.600   2.483   3.467 -0.2610 -0.4302  0.2501
  894TIP3   OH2 2642   3.484   6.124   2.893 -0.6207  0.1233  0.7851
  894TIP3    H1 2643   3.527   6.084   2.817 -0.5025  0.5198  0.6421
  894TIP3    H2 2644   3.423   6.056   2.924 -1.3777  0.2905 -0.2494
  895TIP3   OH2 2645   5.677   6.542   1.545  0.1037  0.1480  0.0146
  895TIP3    H1 2646   5.643   6.545   1.634  1.0076  2.0259  0.3552
  895TIP3    H2 2647   5.720   6.457   1.538  0.2376  0.0699  1.4422
  896TIP3   OH2 2648   0.913   2.089   5.440  0.0842 -0.0647  0.1202
  896TIP3    H1 2649   0.846   2.138   5.392 -1.4526 -0.4793  1.7362
  896TIP3    H2 2650   0.929   2.012   5.386  0.5269  0.8628 -1.1153
  897TIP3   OH2 2651   3.322   2.955   3.990  0.3361 -0.3878 -0.3239
  897TIP3    H1 2652   3.299   2.867   3.957 -1.9525 -0.1165  0.3367
  897TIP3    H2 2653   3.262   3.013   3.944  0.5997  0.6063  0.5611
  898TIP3   OH2 2654   0.356   0.117   0.818 -0.1748  0.0871 -0.5536
  898TIP3    H1 2655   0.418   0.120   0.891 -0.9549 -2.5022  0.3416
  898TIP3    H2 2656   0.334   0.208   0.802  2.1511  0.9372  0.5623
  899TIP3   OH2 2657   4.279   1.109   3.490  0.0814 -0.4919  0.4482
  899TIP3    H1 2658   4.233   1.094   3.573  0.6357 -0.1518  0.8164
  899TIP3    H2 2659   4.306   1.201   3.494 -0.7420 -0.1821 -0.5390
  900TIP3   OH2 2660   7.080   6.714   3.350  0.3486  0.8312 -0.2448
  900TIP3    H1 2661   7.122   6.709   3.436 -0.5936  1.0094  0.2489
  900TIP3    H2 2662   7.058   6.806   3.339  0.3817  0.7927 -0.6325
  901TIP3   OH2 2663   1.006   5.936   3.158 -0.0120  0.0412  0.4827
  901TIP3    H1 2664   1.090   5.893   3.141  0.4521  1.9260 -2.7294
  901TIP3    H2 2665   0.942   5.883   3.111 -0.1695  0.2229  0.4924
  902TIP3   OH2 2666   1.475   4.340   1.657  0.2473 -0.7338  0.3706
  902TIP3    H1 2667   1.448   4.270   1.597 -0.7169 -0.7426  0.8046
  902TIP3    H2 2668   1.472   4.419   1.603 -1.4047 -0.6203  0.5908
  903TIP3   OH2 2669   1.950   4.270   1.475 -1.3484  0.3345 -0.4634
  903TIP3    H1 2670   2.037   4.273   1.515 -0.0921 -0.8557 -2.9217
  903TIP3    H2 2671   1.890   4.287   1.548  0.8471 -0.1862  1.5985
  904TIP3   OH2 2672   2.655   0.423   0.192 -0.0875 -0.4269  0.4282
  904TIP3    H1 2673   2.584   0.487   0.184 -0.9149 -1.3777 -0.0844
  904TIP3    H2 2674   2.612   0.342   0.219  0.3000 -1.8331 -2.6631
  905TIP3   OH2 2675   2.147   4.191   0.446 -0.8843  0.0339 -0.2040
  905TIP3    H1 2676   2.143   4.128   0.374  0.4589  1.2851 -1.4290
  905TIP3    H2 2677   2.210   4.154   0.507  0.1859  0.3259 -1.1016
  906TIP3   OH2 2678   0.770   3.068   5.329 -0.4455  0.6883 -0.0806
  906TIP3    H1 2679   0.767   3.164   5.331 -2.4964  0.6568  1.6149
  906TIP3    H2 2680   0.803   3.043   5.415 -2.9621 -0.1020  0.7384
  907TIP3   OH2 2681   5.321   4.365   1.254  0.1257  0.4062  0.0027
  907TIP3    H1 2682   5.245   4.420   1.274  0.9361  1.7602 -0.4913
  907TIP3    H2 2683   5.314   4.347   1.161  0.7994  1.2042 -0.2196
  908TIP3   OH2 2684   0.343   4.220   4.057 -0.1183  0.4194 -0.3389
  908TIP3    H1 2685   0.261   4.269   4.068 -0.5317  0.1454 -1.8561
  908TIP3    H2 2686   0.400   4.252   4.126 -1.7774  0.0127  1.3026
  909TIP3   OH2 2687   2.481   4.591   2.889  0.3203 -0.1151  0.2642
  909TIP3    H1 2688   2.470   4.656   2.819  0.2387 -0.2778  0.1240
  909TIP3    H2 2689   2.445   4.633   2.966 -0.0912 -0.1398  0.0892
  910TIP3   OH2 2690   5.736   6.676   1.264  0.1574  0.5972 -0.3562
  910TIP3    H1 2691   5.745   6.624   1.343 -4.2886 -0.0814 -0.0525
  910TIP3    H2 2692   5.786   6.628   1.197 -0.0520 -1.5461  0.9491
  911TIP3   OH2 2693   7.430   4.257   4.753 -0.4681 -0.0648  0.1094
  911TIP3    H1 2694   7.509   4.280   4.802  0.3812  0.2557 -1.3387
  911TIP3    H2 2695   7.387   4.341   4.736  0.2495  0.0491 -1.2912
  912TIP3   OH2 2696   0.311   5.404   0.632 -0.9334 -0.3177  0.5499
  912TIP3    H1 2697   0.248   5.390   0.562 -0.4881 -1.7638  0.4163
  912TIP3    H2 2698   0.395   5.415   0.587 -0.9724  1.0153  0.7557
  913TIP3   OH2 2699   3.309   5.340   3.810  0.5839  0.5500 -0.0686
  913TIP3    H1 2700   3.310   5.420   3.758  1.0384  1.9923  2.0364
  913TIP3    H2 2701   3.223   5.301   3.792  0.1876  1.7118 -0.8269
  914TIP3   OH2 2702   4.751   7.141   6.096  0.1101  0.6122  0.3524
  914TIP3    H1 2703   4.692   7.098   6.158  0.8354  0.2206  0.7781
  914TIP3    H2 2704   4.839   7.119   6.127  0.4841  1.5340 -0.0375
  915TIP3   OH2 2705   6.376   4.278   1.826  0.2886  0.1316 -0.1207
  915TIP3    H1 2706   6.461   4.251   1.863  1.2944  1.1238 -1.5755
  915TIP3    H2 2707   6.343   4.344   1.887  0.5550 -0.2674  0.4660
  916TIP3   OH2 2708   4.268   5.485   0.987  0.0345  0.2246 -0.2082
  916TIP3    H1 2709   4.202   5.549   1.014 -0.8614 -0.8822  0.2940
  916TIP3    H2 2710   4.264   5.485   0.891  1.0389  1.9118 -0.2935
  917TIP3   OH2 2711   0.714   5.456   3.970 -0.2925 -0.1226 -0.0025
  917TIP3    H1 2712   0.751   5.498   4.048 -3.9872  0.1893  1.8173
  917TIP3    H2 2713   0.751   5.368   3.970  2.1951  0.8446  0.1848
  918TIP3   OH2 2714   3.227   5.296   3.171  0.4815 -0.5570 -0.1678
  918TIP3    H1 2715   3.245   5.239   3.096  0.1075  0.9310 -1.4593
  918TIP3    H2 2716   3.205   5.237   3.242  1.6918 -2.0620 -0.9964
  919TIP3   OH2 2717   1.290   6.450   1.511  0.2219  0.0463  0.2324
  919TIP3    H1 2718   1.265   6.440   1.419  1.7654 -2.1529 -0.0156
  919TIP3    H2 2719   1.219   6.408   1.559  0.4119 -0.6635 -0.0919
  920TIP3   OH2 2720   2.595   6.480   6.192  0.0070 -0.0053  0.2332
  920TIP3    H1 2721   2.515   6.448   6.149  0.1203 -1.3918  0.9912
  920TIP3    H2 2722   2.603   6.426   6.271  1.2454  0.6803  0.6021
  921TIP3   OH2 2723   5.436   0.138   4.438  1.0540  0.4394  0.5394
  921TIP3    H1 2724   5.506   0.075   4.454  0.9755  0.3375  0.4904
  921TIP3    H2 2725   5.463   0.218   4.482  1.4783  0.5820  0.0281
  922TIP3   OH2 2726   4.797   0.371   3.087  0.3667 -0.0296  0.1912
  922TIP3    H1 2727   4.702   0.367   3.080  0.4854 -0.7902 -1.2613
  922TIP3    H2 2728   4.829   0.356   2.998  1.8790 -0.8973  0.8412
  923TIP3   OH2 2729   3.816   4.924   2.003 -0.3871 -0.3964 -0.2713
  923TIP3    H1 2730   3.725   4.896   1.992 -0.1042 -0.6975 -2.1545
  923TIP3    H2 2731   3.841   4.889   2.089 -1.6677 -1.3796 -0.2582
  924TIP3   OH2 2732   2.348   4.533   4.943  0.0437  0.0513  0.2366
  924TIP3    H1 2733   2.412   4.560   4.878  0.3986 -1.3302 -0.0294
  924TIP3    H2 2734   2.394   4.468   4.997 -0.6466  0.2063  1.0402
  925TIP3   OH2 2735   7.392   3.606   3.931  0.1073 -0.4677  0.1106
  925TIP3    H1 2736   7.362   3.672   3.993  0.4781  1.8748 -2.0482
  925TIP3    H2 2737   7.487   3.604   3.941 -0.0251 -2.4695  1.7514
  926TIP3   OH2 2738   6.311   3.975   0.723  0.7988  0.3900  0.2279
  926TIP3    H1 2739   6.258   4.054   0.717 -1.6305 -1.1598 -0.0345
  926TIP3    H2 2740   6.284   3.934   0.805  0.5030 -1.1518 -0.5984
  927TIP3   OH2 2741   3.922   1.978   2.884 -0.6936  0.2792 -0.0081
  927TIP3    H1 2742   3.971   1.896   2.885 -0.3408  0.4928  0.5177
  927TIP3    H2 2743   3.870   1.974   2.804  0.4411  0.1984 -0.7578
  928TIP3   OH2 2744   6.955   1.166   1.456  0.0408 -0.5243  0.3443
  928TIP3    H1 2745   6.900   1.112   1.399  0.2117  0.0679 -0.3880
  928TIP3    H2 2746   6.913   1.252   1.455  0.3257 -0.3779  0.7271
  929TIP3   OH2 2747   0.807   6.549   2.254  0.7046 -0.0015  0.3597
  929TIP3    H1 2748   0.852   6.630   2.229 -0.7878  0.6077 -0.5073
  929TIP3    H2 2749   0.730   6.579   2.303 -0.7021 -0.7651 -1.2702
  930TIP3   OH2 2750   0.581   1.254   3.718 -0.1470 -0.2572  0.1025
  930TIP3    H1 2751   0.584   1.311   3.795 -1.7992 -0.3906  0.2969
  930TIP3    H2 2752   0.617   1.171   3.748  0.5355  0.1094  0.3276
  931TIP3   OH2 2753   2.575   0.403   4.509  0.2074  0.0369 -0.2824
  931TIP3    H1 2754   2.650   0.428   4.454 -1.1013 -0.7827 -2.5858
  931TIP3    H2 2755   2.605   0.324   4.554  0.9400  0.0721 -0.6781
  932TIP3   OH2 2756   4.411   3.626   1.911 -0.2606 -0.0685  0.0765
  932TIP3    H1 2757   4.333   3.599   1.958  0.2712 -3.8135 -0.9045
  932TIP3    H2 2758   4.379   3.657   1.826 -0.7535 -1.2522 -0.1866
  933TIP3   OH2 2759   2.235   2.134   4.517 -0.3634 -0.0415  0.2830
  933TIP3    H1 2760   2.206   2.224   4.500  1.2482  0.3946 -0.3450
  933TIP3    H2 2761   2.213   2.087   4.437 -2.1125 -0.4881  0.9777
  934TIP3   OH2 2762   4.640   5.328   3.187  0.2580 -0.3748  0.1104
  934TIP3    H1 2763   4.698   5.399   3.212 -0.5093 -0.2497  1.6634
  934TIP3    H2 2764   4.665   5.255   3.244 -0.9182 -0.3962  0.6283
  935TIP3   OH2 2765   6.306   2.128   5.556  0.4412  0.1083 -0.6176
  935TIP3    H1 2766   6.225   2.101   5.598  0.0940  1.5536 -0.2887
  935TIP3    H2 2767   6.290   2.219   5.530  1.5193  0.0231 -1.6638
  936TIP3   OH2 2768   5.540   2.422   3.607  0.0045  0.5924 -0.2784
  936TIP3    H1 2769   5.563   2.499   3.658  1.4400 -0.6882  1.1272
  936TIP3    H2 2770   5.456   2.393   3.642  0.3615  0.4653  0.4885
  937TIP3   OH2 2771   6.364   6.724   4.712  0.2707  0.4710  0.2568
  937TIP3    H1 2772   6.424   6.657   4.745  0.9440  0.5897 -0.6843
  937TIP3    H2 2773   6.364   6.791   4.780 -1.4279 -1.0276  1.8446
  938TIP3   OH2 2774   5.818   3.254   5.654 -0.4820  0.5863  0.2578
  938TIP3    H1 2775   5.770   3.254   5.737  0.0905  1.5364  0.6069
  938TIP3    H2 2776   5.899   3.301   5.673  1.2809 -2.1561  0.0667
  939TIP3   OH2 2777   0.940   6.413   5.707  0.4570  0.4410 -0.3177
  939TIP3    H1 2778   0.892   6.460   5.776  0.5212 -0.0945  0.1004
  939TIP3    H2 2779   0.899   6.442   5.626 -0.7637 -0.1863  0.0341
  940TIP3   OH2 2780   6.906   6.534   5.078 -0.0615  0.4170 -0.2609
  940TIP3    H1 2781   6.840   6.501   5.139  0.4790 -1.1622 -0.4933
  940TIP3    H2 2782   6.947   6.456   5.042 -0.1963  1.2728 -2.4830
  941TIP3   OH2 2783   0.599   5.523   2.016  0.3811  0.8274  0.0734
  941TIP3    H1 2784   0.568   5.571   1.939 -2.1920 -0.5068  0.1693
  941TIP3    H2 2785   0.540   5.549   2.086 -0.6681 -1.8262  0.2987
  942TIP3   OH2 2786   7.468   4.405   0.862 -0.3004  0.0363 -0.5190
  942TIP3    H1 2787   7.549   4.457   0.862 -0.2831  0.0074 -0.2384
  942TIP3    H2 2788   7.444   4.400   0.769 -0.4029  0.6996 -0.5354
  943TIP3   OH2 2789   7.269   4.352   1.786 -0.1956 -0.2312  0.0244
  943TIP3    H1 2790   7.254   4.361   1.692 -1.0302  2.6445  0.3595
  943TIP3    H2 2791   7.186   4.376   1.826  0.9559  1.4722  1.5522
  944TIP3   OH2 2792   7.059   4.718   2.816  0.2679 -0.0537 -0.1532
  944TIP3    H1 2793   7.045   4.801   2.770  0.2563  0.6277  1.0532
  944TIP3    H2 2794   7.060   4.652   2.746  2.1862  1.1363 -1.3477
  945TIP3   OH2 2795   4.420   2.091   4.884 -0.5198  0.0157 -0.4378
  945TIP3    H1 2796   4.390   2.149   4.954 -0.7282 -0.9582  0.3035
  945TIP3    H2 2797   4.499   2.133   4.850 -1.2271  1.2522 -0.6179
  946TIP3   OH2 2798   1.507   4.824   1.664  0.5063  0.0542  0.0177
  946TIP3    H1 2799   1.493   4.737   1.629 -0.4396 -0.4109  1.4664
  946TIP3    H2 2800   1.420   4.854   1.691  0.0175  3.1634 -4.1140
  947TIP3   OH2 2801   5.282   1.962   4.569  0.0008 -0.4084 -0.7531
  947TIP3    H1 2802   5.331   1.945   4.489  2.2478 -1.3204  0.7175
  947TIP3    H2 2803   5.279   1.877   4.613 -0.6016  0.2117  0.4428
  948TIP3   OH2 2804   1.559   5.629   0.152  0.3675  0.7321 -0.1835
  948TIP3    H1 2805   1.623   5.673   0.208 -0.5501 -1.0659  2.5199
  948TIP3    H2 2806   1.483   5.687   0.152  0.5884  1.0243 -0.0187
  949TIP3   OH2 2807   6.537   5.480   2.131 -0.3482 -0.8086 -0.5863
  949TIP3    H1 2808   6.585   5.401   2.107  0.6229 -0.6855  0.8054
  949TIP3    H2 2809   6.605   5.547   2.139 -0.7376 -0.5616  1.1567
  950TIP3   OH2 2810   0.136   6.818   0.808 -0.7185  0.4453  0.2625
  950TIP3    H1 2811   0.148   6.781   0.896  0.7677 -1.6810 -0.7489
  950TIP3    H2 2812   0.223   6.812   0.768 -1.8384 -0.9129 -2.1613
  951TIP3   OH2 2813   0.288   4.024   2.723 -0.1409 -0.4049 -0.2208
  951TIP3    H1 2814   0.280   3.950   2.783  0.5918 -0.7637 -0.5663
  951TIP3    H2 2815   0.198   4.045   2.699 -0.5029  0.1352  1.4741
  952TIP3   OH2 2816   0.921   6.056   2.690  0.0569  0.2376 -0.4796
  952TIP3    H1 2817   0.864   6.118   2.736 -1.1172 -1.1028 -0.0824
  952TIP3    H2 2818   0.905   6.072   2.597 -0.4574  0.3324 -0.3754
  953TIP3   OH2 2819   7.156   6.494   2.189 -0.2599 -0.0589  1.0943
  953TIP3    H1 2820   7.146   6.514   2.283  1.4743 -0.1356  1.3251
  953TIP3    H2 2821   7.161   6.398   2.186 -1.6101 -0.1357  0.7565
  954TIP3   OH2 2822   0.557   3.884   5.333  0.2340 -0.1002  0.1242
  954TIP3    H1 2823   0.633   3.828   5.352  1.3291  1.3011  0.0835
  954TIP3    H2 2824   0.557   3.948   5.405  0.5238  1.3410 -1.1176
  955TIP3   OH2 2825   1.717   3.534   5.851 -0.2512 -0.1650 -0.1685
  955TIP3    H1 2826   1.729   3.532   5.946 -1.6072 -2.1690  0.0109
  955TIP3    H2 2827   1.637   3.484   5.835 -0.3791  0.6222 -2.3324
  956TIP3   OH2 2828   3.893   1.862   3.733 -0.4736 -0.0748  0.0881
  956TIP3    H1 2829   3.897   1.863   3.829 -1.7123  0.2111  0.1563
  956TIP3    H2 2830   3.836   1.788   3.712  1.8324 -1.8007 -0.5753
  957TIP3   OH2 2831   7.110   4.628   3.729 -0.0353 -0.5706  0.1747
  957TIP3    H1 2832   7.024   4.595   3.704  0.1509 -2.0054  1.2763
  957TIP3    H2 2833   7.105   4.722   3.717 -1.7274 -0.6512  0.1360
  958TIP3   OH2 2834   4.868   1.809   2.270 -0.4961  0.0691 -0.0599
  958TIP3    H1 2835   4.828   1.765   2.345  0.5229 -0.5552  0.1442
  958TIP3    H2 2836   4.961   1.785   2.275 -0.2285  0.8570 -0.9362
  959TIP3   OH2 2837   2.624   2.019   4.713  0.5120 -0.3156  0.5364
  959TIP3    H1 2838   2.608   1.931   4.748  1.7184  0.0773  2.1614
  959TIP3    H2 2839   2.564   2.076   4.762 -1.2300 -0.3258 -1.4210
  960TIP3   OH2 2840   1.131   2.402   2.828  0.2728  1.4473  0.5127
  960TIP3    H1 2841   1.111   2.492   2.802 -0.8270  0.8411 -0.8329
  960TIP3    H2 2842   1.167   2.361   2.750 -0.3877  0.3791  0.7526
  961TIP3   OH2 2843   3.621   5.012   3.976 -0.0291  0.6917 -0.3905
  961TIP3    H1 2844   3.551   5.070   4.005 -2.4095 -1.5254 -1.2783
  961TIP3    H2 2845   3.697   5.069   3.964 -2.1766  3.5769 -1.1951
  962TIP3   OH2 2846   3.263   2.510   0.588  0.0927  0.4048 -0.2467
  962TIP3    H1 2847   3.267   2.572   0.515  0.6968 -0.8679 -1.3297
  962TIP3    H2 2848   3.175   2.473   0.583  0.1970  0.1861 -0.4283
  963TIP3   OH2 2849   0.205   5.453   3.146 -0.4229  0.0380 -0.2913
  963TIP3    H1 2850   0.192   5.474   3.238 -0.2507 -1.7002  0.1730
  963TIP3    H2 2851   0.166   5.366   3.135  0.5712 -0.2863 -1.5776
  964TIP3   OH2 2852   6.421   1.164   2.449  0.2374 -1.0375  0.2724
  964TIP3    H1 2853   6.430   1.258   2.463  0.3083 -1.3682  3.2470
  964TIP3    H2 2854   6.506   1.135   2.416 -0.1416  0.0334 -1.7887
  965TIP3   OH2 2855   2.814   1.626   2.804  0.0422  1.0537  0.5182
  965TIP3    H1 2856   2.910   1.627   2.800  0.0666 -0.9921 -1.2800
  965TIP3    H2 2857   2.786   1.620   2.713 -1.6202 -2.3604  1.1059
  966TIP3   OH2 2858   6.089   0.012   1.228  0.0029 -0.1739  0.4828
  966TIP3    H1 2859   6.137   0.079   1.178  0.6704 -1.4998 -0.7282
  966TIP3    H2 2860   6.112   0.029   1.319 -0.6996  1.8994  0.3354
  967TIP3   OH2 2861   5.718   5.414   1.930 -0.3978  1.3824  0.2673
  967TIP3    H1 2862   5.814   5.420   1.932 -0.2179  0.2006 -1.7125
  967TIP3    H2 2863   5.696   5.350   1.998  0.5660 -0.7847 -1.3224
  968TIP3   OH2 2864   4.294   0.869   0.861 -0.1265  0.2194 -1.0945
  968TIP3    H1 2865   4.235   0.802   0.826 -0.3078 -0.2707  0.0777
  968TIP3    H2 2866   4.236   0.938   0.893 -0.1427 -0.4579  0.4591
  969TIP3   OH2 2867   1.129   0.397   4.064  0.7346 -0.1361  0.1723
  969TIP3    H1 2868   1.061   0.378   3.999 -0.5150  1.6236  0.8551
  969TIP3    H2 2869   1.183   0.465   4.022  2.7434 -2.1740 -0.7370
  970TIP3   OH2 2870   4.284   0.481   1.583  0.1722 -0.6241  0.5068
  970TIP3    H1 2871   4.271   0.463   1.676 -2.3435  2.1591  0.8292
  970TIP3    H2 2872   4.323   0.569   1.581 -1.6118  0.2009 -1.0101
  971TIP3   OH2 2873   2.818   1.721   0.633 -0.2037  0.0063  0.4599
  971TIP3    H1 2874   2.910   1.713   0.609 -0.7599 -0.7919 -1.5629
  971TIP3    H2 2875   2.799   1.641   0.682  0.2179  0.2898  1.1020
  972TIP3   OH2 2876   6.112   1.859   4.087  0.1464 -0.2383 -0.0748
  972TIP3    H1 2877   6.180   1.852   4.020 -2.8687 -0.5962 -3.4099
  972TIP3    H2 2878   6.079   1.770   4.098 -0.7655  0.1266  0.3191
  973TIP3   OH2 2879   5.193   0.722   5.440  0.6324  0.4836 -0.0854
  973TIP3    H1 2880   5.252   0.710   5.515  1.1745  1.1385 -0.4037
  973TIP3    H2 2881   5.215   0.808   5.405 -0.7325  0.8774 -0.0310
  974TIP3   OH2 2882   5.184   2.027   3.129  0.3355 -0.0605  0.2295
  974TIP3    H1 2883   5.122   2.055   3.062  0.2689 -0.2901  0.1949
  974TIP3    H2 2884   5.263   2.003   3.080  0.3412 -0.0757  0.2458
  975TIP3   OH2 2885   4.764   1.346   1.655 -0.1868 -0.3094 -0.0171
  975TIP3    H1 2886   4.842   1.379   1.611  0.0450 -1.0008 -0.1216
  975TIP3    H2 2887   4.691   1.390   1.611  0.1607  0.8484  0.5150
  976TIP3   OH2 2888   1.179   6.006   0.971  0.3072 -0.1174 -0.0468
  976TIP3    H1 2889   1.237   5.933   0.992  0.1882  0.1229  1.1423
  976TIP3    H2 2890   1.128   5.974   0.896  0.7952 -0.9622 -0.0350
  977TIP3   OH2 2891   4.954   3.332   0.900 -0.3105 -0.1056 -0.5854
  977TIP3    H1 2892   5.001   3.354   0.981  0.3652  0.9082 -1.2265
  977TIP3    H2 2893   5.019   3.290   0.844 -0.6360 -0.3250 -0.8066
  978TIP3   OH2 2894   1.738   2.852   4.576 -0.5057 -0.4102  0.0329
  978TIP3    H1 2895   1.766   2.811   4.658 -0.5781  1.4962  1.0650
  978TIP3    H2 2896   1.705   2.938   4.602  1.1385  1.0098 -2.1808
  979TIP3   OH2 2897   2.428   1.426   3.823 -0.4226  0.0217  0.1279
  979TIP3    H1 2898   2.392   1.429   3.911  1.3367  0.2032  0.8990
  979TIP3    H2 2899   2.498   1.361   3.828  0.4122  0.7990 -0.8276
  980TIP3   OH2 2900   0.924   4.343   3.930  0.0429  0.3566 -0.0756
  980TIP3    H1 2901   0.935   4.390   3.847 -0.3086  1.4718  0.4839
  980TIP3    H2 2902   0.967   4.259   3.916 -0.4694  0.3029 -1.5665
  981TIP3   OH2 2903   2.082   3.030   1.723 -0.7313 -0.2207 -0.1108
  981TIP3    H1 2904   2.146   3.098   1.745  1.7339 -2.5396  0.3585
  981TIP3    H2 2905   2.034   3.067   1.648 -0.0563  2.3120  0.5993
  982TIP3   OH2 2906   4.767   2.857   3.774 -0.6292 -0.5066  0.5539
  982TIP3    H1 2907   4.834   2.815   3.828  0.6280 -0.6627 -1.0580
  982TIP3    H2 2908   4.699   2.790   3.765 -0.0152 -1.1346  0.4591
  983TIP3   OH2 2909   2.692   3.375   6.113 -0.0733 -0.5695  0.2489
  983TIP3    H1 2910   2.698   3.318   6.189  0.6767  0.1003  0.7077
  983TIP3    H2 2911   2.615   3.430   6.131  1.3244  1.0518  1.5895
  984TIP3   OH2 2912   6.764   4.404   1.726  0.5532 -0.0052 -0.3379
  984TIP3    H1 2913   6.789   4.381   1.816 -0.7660 -0.0315  0.0385
  984TIP3    H2 2914   6.691   4.465   1.737 -0.0729 -0.5432 -1.3956
  985TIP3   OH2 2915   4.714   7.139   0.458 -0.2625 -0.3663  0.1166
  985TIP3    H1 2916   4.793   7.115   0.410  0.3927 -0.0241  0.9979
  985TIP3    H2 2917   4.722   7.093   0.542 -0.8123 -0.0361  0.3565
  986TIP3   OH2 2918   6.154   3.153   1.548 -0.2017  0.2167  0.2544
  986TIP3    H1 2919   6.193   3.238   1.529  0.5213 -0.1233  0.1797
  986TIP3    H2 2920   6.076   3.149   1.491 -0.5787  1.0599  0.6937
  987TIP3   OH2 2921   4.429   3.522   2.638 -0.2647 -0.4035 -0.2901
  987TIP3    H1 2922   4.450   3.442   2.685  0.1859  0.4117  0.9466
  987TIP3    H2 2923   4.379   3.574   2.701 -1.8809 -0.3180 -1.5716
  988TIP3   OH2 2924   2.196   1.339   1.628  0.0684  0.1296  0.4902
  988TIP3    H1 2925   2.142   1.413   1.655 -1.0847 -0.3115 -0.4781
  988TIP3    H2 2926   2.165   1.266   1.682 -1.0289 -0.3500 -0.7388
  989TIP3   OH2 2927   6.792   6.264   4.107  0.8345  0.0914  0.0281
  989TIP3    H1 2928   6.784   6.181   4.154 -0.3390 -0.8135 -1.6877
  989TIP3    H2 2929   6.708   6.275   4.063  0.9132  2.2675  0.2704
  990TIP3   OH2 2930   4.055   3.152   2.093 -0.0392 -0.6954  0.3239
  990TIP3    H1 2931   4.025   3.241   2.074 -1.3780 -1.1202  0.3218
  990TIP3    H2 2932   4.148   3.161   2.110  0.0646  0.5517 -0.7519
  991TIP3   OH2 2933   1.785   1.174   1.645 -0.3204  0.1464  0.2305
  991TIP3    H1 2934   1.771   1.246   1.584  1.4642  0.5128  0.2075
  991TIP3    H2 2935   1.767   1.212   1.731  0.5451  0.6275  0.2125
  992TIP3   OH2 2936   4.589   6.036   2.375  0.0448 -0.1587  0.1286
  992TIP3    H1 2937   4.656   6.072   2.316  0.8732  0.1126  1.1923
  992TIP3    H2 2938   4.538   5.977   2.320 -0.6851  1.8135 -1.4139
  993TIP3   OH2 2939   3.481   2.249   4.446 -0.2951 -0.4162  0.4686
  993TIP3    H1 2940   3.402   2.195   4.440  0.5736 -1.9948  2.0153
  993TIP3    H2 2941   3.550   2.187   4.470  0.7800  1.3809  2.3458
  994TIP3   OH2 2942   4.175   3.996   3.742 -0.0736 -0.8170 -0.4445
  994TIP3    H1 2943   4.191   3.924   3.803  1.0620  0.1525  0.4519
  994TIP3    H2 2944   4.097   3.969   3.693 -1.9680 -1.0158  2.4138
  995TIP3   OH2 2945   5.462   1.620   3.293 -0.7656  0.0838  0.0852
  995TIP3    H1 2946   5.384   1.611   3.239  0.0962 -0.1051 -1.1780
  995TIP3    H2 2947   5.430   1.653   3.377 -2.2976 -0.8349 -0.0946
  996TIP3   OH2 2948   6.360   6.079   0.855 -0.0387 -0.3835  0.2233
  996TIP3    H1 2949   6.401   6.102   0.772 -2.7850  1.3859 -0.7895
  996TIP3    H2 2950   6.315   5.997   0.837 -0.6333 -0.0006 -0.0630
  997TIP3   OH2 2951   1.204   1.088   0.882 -0.2282 -0.2542 -0.3601
  997TIP3    H1 2952   1.180   1.172   0.844 -2.2776 -0.6153  0.0396
  997TIP3    H2 2953   1.168   1.023   0.822 -0.9899 -0.8228  0.6689
  998TIP3   OH2 2954   1.396   1.089   0.319 -0.5868 -0.4377  0.2359
  998TIP3    H1 2955   1.396   1.075   0.225 -1.0684 -2.8476  0.5282
  998TIP3    H2 2956   1.469   1.149   0.334 -0.6566  0.1874 -1.6737
  999TIP3   OH2 2957   1.721   3.950   5.798 -0.3888  0.0859  0.2619
  999TIP3    H1 2958   1.709   3.891   5.873 -2.0503  0.5562  0.4023
  999TIP3    H2 2959   1.659   3.919   5.733 -0.6529  1.1303 -0.0010
 1000TIP3   OH2 2960   0.864   0.730   0.771  0.2274 -0.2523  0.3195
 1000TIP3    H1 2961   0.959   0.714   0.764  0.5264  1.3447  0.4072
 1000TIP3    H2 2962   0.836   0.678   0.846  1.1631 -0.2182  0.7030
 1001TIP3   OH2 2963   5.397   7.093   5.254 -0.1184  0.8036 -0.0275
 1001TIP3    H1 2964   5.405   7.036   5.330  0.3242  0.6061 -0.2191
 1001TIP3    H2 2965   5.337   7.047   5.196  0.9002  0.1083 -0.5563
 1002TIP3   OH2 2966   3.722   5.827   2.905 -0.6961 -0.1570 -0.4077
 1002TIP3    H1 2967   3.787   5.881   2.860  1.1988 -2.5843 -0.7949
 1002TIP3    H2 2968   3.712   5.868   2.991  0.6593  0.8015 -0.6744
 1003TIP3   OH2 2969   2.938   0.325   3.211 -0.0811 -1.0148  0.3213
 1003TIP3    H1 2970   2.846   0.335   3.188 -0.7318 -0.8064  2.7578
 1003TIP3    H2 2971   2.948   0.372   3.294  2.0733 -1.5802  0.4543
 1004TIP3   OH2 2972   4.297   1.383   0.277  0.0390 -0.4401  1.0836
 1004TIP3    H1 2973   4.297   1.474   0.245 -1.0117 -0.5252  0.7930
 1004TIP3    H2 2974   4.206   1.368   0.304 -0.1501 -1.8932 -0.2672
 1005TIP3   OH2 2975   3.376   6.932   4.566  0.2892 -0.8088  0.0738
 1005TIP3    H1 2976   3.404   6.900   4.651  0.4754 -0.9642 -0.0451
 1005TIP3    H2 2977   3.457   6.954   4.520  0.1882 -0.6923 -0.0499
 1006TIP3   OH2 2978   3.849   6.632   1.277 -0.0508  0.2623  0.5186
 1006TIP3    H1 2979   3.850   6.537   1.269 -1.1631  0.2504  0.4395
 1006TIP3    H2 2980   3.757   6.655   1.288 -0.0384  1.5138 -1.4967
 1007TIP3   OH2 2981   0.808   0.260   0.633 -0.0170 -0.6232 -0.7414
 1007TIP3    H1 2982   0.768   0.346   0.645  0.9200 -0.1196 -1.0850
 1007TIP3    H2 2983   0.756   0.201   0.687 -0.6624  0.1636 -0.4873
 1008TIP3   OH2 2984   2.370   3.255   3.908 -0.0025  0.9168  0.7930
 1008TIP3    H1 2985   2.436   3.246   3.838 -0.9796 -0.2775 -0.0172
 1008TIP3    H2 2986   2.404   3.325   3.964  2.3648 -0.2001  0.8727
 1009TIP3   OH2 2987   1.282   4.153   2.591  0.0171 -0.2118  0.0014
 1009TIP3    H1 2988   1.247   4.122   2.507  0.0780 -0.9867  0.2499
 1009TIP3    H2 2989   1.344   4.085   2.617  0.1465  0.1242  0.5789
 1010TIP3   OH2 2990   1.100   4.674   3.895  0.7270  0.3155  0.5731
 1010TIP3    H1 2991   1.140   4.589   3.910  0.6882  0.3097  0.6431
 1010TIP3    H2 2992   1.062   4.668   3.807 -0.1340 -0.0773  0.9580
 1011TIP3   OH2 2993   3.457   1.581   2.892  0.3266 -0.5381 -0.2566
 1011TIP3    H1 2994   3.537   1.634   2.902 -0.7381  0.9121  1.0493
 1011TIP3    H2 2995   3.415   1.586   2.977 -0.6657 -2.1641 -0.6156
 1012TIP3   OH2 2996   5.878   5.156   3.408  0.2431 -0.4524  0.2611
 1012TIP3    H1 2997   5.889   5.073   3.454  1.1587 -1.0617 -1.0012
 1012TIP3    H2 2998   5.860   5.220   3.477  1.4600 -1.3513  1.4673
 1013TIP3   OH2 2999   5.957   1.459   5.911 -0.3303  0.2035 -0.2068
 1013TIP3    H1 3000   5.987   1.387   5.967 -1.3349  0.8972  1.2693
 1013TIP3    H2 3001   5.904   1.416   5.844 -0.2215 -0.5144  0.1532
 1014TIP3   OH2 3002   5.496   0.760   3.716  0.3163  0.2068  0.6418
 1014TIP3    H1 3003   5.446   0.771   3.797  0.0918 -1.0047  0.6840
 1014TIP3    H2 3004   5.563   0.695   3.738  1.4325  1.2170  0.3576
 1015TIP3   OH2 3005   6.690   6.422   5.980  0.1858  0.2504  0.0257
 1015TIP3    H1 3006   6.781   6.447   5.962  0.3971  0.3498  1.1926
 1015TIP3    H2 3007   6.645   6.438   5.897  1.1937  0.3586 -0.5244
 1016TIP3   OH2 3008   5.064   3.574   5.263 -0.5913 -0.1030  0.1760
 1016TIP3    H1 3009   5.080   3.578   5.169 -1.2133  1.6121  0.0983
 1016TIP3    H2 3010   5.094   3.659   5.296 -1.0170 -0.4076  1.4159
 1017TIP3   OH2 3011   0.217   2.715   1.133  0.2612 -0.1207  0.0740
 1017TIP3    H1 3012   0.265   2.761   1.066 -0.3611  1.4669  0.6703
 1017TIP3    H2 3013   0.270   2.725   1.212 -0.8089  1.3454  0.6554
 1018TIP3   OH2 3014   0.959   2.288   3.005  0.0206 -0.1878 -0.3958
 1018TIP3    H1 3015   0.918   2.215   2.960  0.8266 -0.1283 -1.2685
 1018TIP3    H2 3016   1.014   2.329   2.939 -1.3736  2.0028 -0.2900
 1019TIP3   OH2 3017   2.531   5.451   0.463  0.0600 -0.2054 -0.5963
 1019TIP3    H1 3018   2.547   5.359   0.483 -1.7083 -0.4045  0.0583
 1019TIP3    H2 3019   2.452   5.451   0.409  0.7148  0.8658 -1.6048
 1020TIP3   OH2 3020   4.382   2.912   4.399 -0.0191 -0.2877  1.3841
 1020TIP3    H1 3021   4.465   2.929   4.354 -1.1984  0.3124 -0.7268
 1020TIP3    H2 3022   4.334   2.855   4.338 -2.1171  1.4169  1.3229
 1021TIP3   OH2 3023   0.563   6.718   2.828  0.5683  0.2797  0.1202
 1021TIP3    H1 3024   0.490   6.688   2.882  2.8843  0.4947  3.7287
 1021TIP3    H2 3025   0.597   6.638   2.788 -0.5922 -0.0525 -0.2380
 1022TIP3   OH2 3026   7.489   6.054   2.606 -0.1241  0.6360 -0.0761
 1022TIP3    H1 3027   7.509   5.978   2.662 -1.1064  0.9613  0.7478
 1022TIP3    H2 3028   7.487   6.018   2.517  3.2101  0.4158 -0.1952
 1023TIP3   OH2 3029   5.217   2.546   5.386  0.1882 -0.3044  0.6398
 1023TIP3    H1 3030   5.183   2.635   5.388 -0.1797 -0.4388  0.3805
 1023TIP3    H2 3031   5.278   2.545   5.313  0.9546  0.0044  1.2551
 1024TIP3   OH2 3032   2.019   0.306   2.537 -0.5617 -0.1225  0.4549
 1024TIP3    H1 3033   1.948   0.337   2.481 -1.0723 -1.4262  0.3248
 1024TIP3    H2 3034   1.999   0.213   2.552  1.5279 -0.7560 -0.2457
 1025TIP3   OH2 3035   3.909   6.690   3.600  0.1734  0.5580 -0.3012
 1025TIP3    H1 3036   3.849   6.738   3.543 -0.6122  0.6221  0.5510
 1025TIP3    H2 3037   3.996   6.708   3.565 -0.1393  2.1737 -0.3261
 1026TIP3   OH2 3038   5.302   4.833   4.144 -0.1614  0.4123  0.1163
 1026TIP3    H1 3039   5.257   4.763   4.097  0.1245  0.4834 -0.2685
 1026TIP3    H2 3040   5.315   4.798   4.233  1.5286 -0.7401 -0.5255
 1027TIP3   OH2 3041   6.611   4.805   4.169 -0.7771 -0.3832 -0.0068
 1027TIP3    H1 3042   6.665   4.870   4.125  0.2785  0.4946  2.4445
 1027TIP3    H2 3043   6.522   4.826   4.143 -0.4626  2.0738  0.6830
 1028TIP3   OH2 3044   4.033   0.513   3.175 -0.2289 -0.1640  0.1030
 1028TIP3    H1 3045   3.981   0.459   3.235 -0.7573  0.6470  0.3797
 1028TIP3    H2 3046   4.033   0.463   3.093  1.5708 -1.9233  1.0815
 1029TIP3   OH2 3047   0.721   5.016   2.000 -0.5603 -0.2417  0.0046
 1029TIP3    H1 3048   0.752   4.986   2.085  0.9342 -0.4466 -0.5929
 1029TIP3    H2 3049   0.729   5.111   2.003 -0.3717 -0.2599  0.0300
 1030TIP3   OH2 3050   5.770   0.905   2.090 -0.1974  0.1977 -0.2636
 1030TIP3    H1 3051   5.704   0.848   2.050 -1.4293  1.2379  0.2137
 1030TIP3    H2 3052   5.846   0.848   2.102 -0.9357 -0.9989 -0.9981
 1031TIP3   OH2 3053   0.684   6.047   0.346  0.0083 -0.2685 -0.0403
 1031TIP3    H1 3054   0.615   6.102   0.384  0.4734  0.9416 -0.8762
 1031TIP3    H2 3055   0.750   6.109   0.315  2.0770 -1.4045  1.7805
 1032TIP3   OH2 3056   2.162   2.634   0.356 -0.0073 -0.5750 -0.6913
 1032TIP3    H1 3057   2.072   2.606   0.372 -0.1646  0.7871  1.1707
 1032TIP3    H2 3058   2.154   2.710   0.299 -0.0546 -0.3395 -0.3719
 1033TIP3   OH2 3059   5.593   3.040   4.313 -0.2496  0.4305  0.2679
 1033TIP3    H1 3060   5.678   3.054   4.354 -0.4230  1.5481  0.2776
 1033TIP3    H2 3061   5.559   2.960   4.353  2.1239 -1.8845 -1.9449
 1034TIP3   OH2 3062   6.178   5.364   6.093 -0.6617  0.0616  0.2761
 1034TIP3    H1 3063   6.083   5.371   6.091 -0.6730  0.1398  0.7924
 1034TIP3    H2 3064   6.197   5.320   6.176 -0.2798 -0.5570 -0.1290
 1035TIP3   OH2 3065   0.890   3.644   4.120  0.1343  0.2701 -0.3201
 1035TIP3    H1 3066   0.805   3.686   4.111 -0.9117 -1.7526 -0.3233
 1035TIP3    H2 3067   0.925   3.643   4.031 -0.6381 -0.4588 -0.6271
 1036TIP3   OH2 3068   1.306   3.178   1.021 -0.6933 -0.1464 -0.5838
 1036TIP3    H1 3069   1.258   3.261   1.018 -0.6017 -0.0647  0.1613
 1036TIP3    H2 3070   1.312   3.151   0.929  0.5240  1.3779 -1.0005
 1037TIP3   OH2 3071   3.596   6.846   4.845 -0.2064  0.5685  0.1720
 1037TIP3    H1 3072   3.597   6.762   4.891  2.0159  0.3739 -0.1114
 1037TIP3    H2 3073   3.504   6.869   4.839 -0.8712 -1.7499  0.4331
 1038TIP3   OH2 3074   5.894   3.217   0.942 -0.2283 -0.5134  0.5281
 1038TIP3    H1 3075   5.931   3.281   1.003 -1.0866 -0.3625  0.9059
 1038TIP3    H2 3076   5.964   3.153   0.930  1.0072  0.9914 -0.6377
 1039TIP3   OH2 3077   7.412   4.786   2.238 -0.1217 -0.4325  0.1824
 1039TIP3    H1 3078   7.469   4.784   2.315  0.5675  0.6685 -0.2965
 1039TIP3    H2 3079   7.356   4.709   2.249 -0.0365 -0.2988  1.7901
 1040TIP3   OH2 3080   2.600   1.968   1.707 -0.4653 -0.5223  0.4915
 1040TIP3    H1 3081   2.518   2.001   1.670 -0.7992  0.0871  1.7387
 1040TIP3    H2 3082   2.642   1.921   1.634 -2.3204 -1.6147  0.0588
 1041TIP3   OH2 3083   3.966   3.141   4.128  0.2035  0.3962 -0.2725
 1041TIP3    H1 3084   3.902   3.084   4.170  0.7368 -0.8882 -1.1375
 1041TIP3    H2 3085   3.954   3.226   4.170 -1.6787  0.0476 -0.0410
 1042TIP3   OH2 3086   1.412   5.844   2.259  0.1018  0.0368 -0.1968
 1042TIP3    H1 3087   1.341   5.872   2.317 -0.9083 -0.9634 -0.8936
 1042TIP3    H2 3088   1.384   5.872   2.172  0.3441 -0.7345 -0.5360
 1043TIP3   OH2 3089   4.241   0.461   4.081 -1.0734 -0.0632 -0.4483
 1043TIP3    H1 3090   4.283   0.487   4.163 -0.5012  0.0005 -0.7569
 1043TIP3    H2 3091   4.298   0.393   4.045 -0.2426  1.2645 -1.7554
 1044TIP3   OH2 3092   1.001   4.772   2.141 -0.1671  0.1894  0.3389
 1044TIP3    H1 3093   0.914   4.736   2.122  0.7639 -2.2266  0.2429
 1044TIP3    H2 3094   0.995   4.805   2.230 -1.6040  1.6329 -0.2368
 1045TIP3   OH2 3095   2.784   3.038   4.868 -0.5005 -0.0998  0.1262
 1045TIP3    H1 3096   2.835   2.989   4.932  0.3258  1.1347  0.4439
 1045TIP3    H2 3097   2.717   3.083   4.920 -1.8339 -1.5512 -0.2639
 1046TIP3   OH2 3098   4.621   0.871   0.802  0.2000  0.0143  0.7193
 1046TIP3    H1 3099   4.580   0.844   0.720  0.4194  1.1096  0.2316
 1046TIP3    H2 3100   4.562   0.937   0.838  2.2450  2.9461 -0.8660
 1047TIP3   OH2 3101   7.562   3.052   5.182  0.0495 -0.5915  0.0620
 1047TIP3    H1 3102   7.529   3.001   5.108  0.4692 -0.5752 -0.1360
 1047TIP3    H2 3103   7.648   3.083   5.154 -0.6458  1.1466 -0.2616
 1048TIP3   OH2 3104   2.915   1.398   1.606  0.0795 -0.3426 -0.3044
 1048TIP3    H1 3105   2.931   1.328   1.669  0.0053  0.2256  0.3693
 1048TIP3    H2 3106   2.821   1.415   1.613  0.5797  2.2848  2.3052
 1049TIP3   OH2 3107   5.042   6.073   4.888  0.4514  0.6022 -0.2111
 1049TIP3    H1 3108   5.137   6.076   4.903  0.4666 -0.4202 -0.0433
 1049TIP3    H2 3109   5.004   6.103   4.971  0.6065 -1.1872  0.5422
 1050TIP3   OH2 3110   5.379   6.351   1.027  0.6933 -0.3255 -0.0130
 1050TIP3    H1 3111   5.349   6.263   1.002  0.4764 -0.4846  0.7625
 1050TIP3    H2 3112   5.427   6.383   0.951  1.0451 -1.2478 -0.1880
 1051TIP3   OH2 3113   2.755   4.971   2.344  0.2619  0.2662  0.1785
 1051TIP3    H1 3114   2.830   4.921   2.310  0.4536  1.4766 -1.2902
 1051TIP3    H2 3115   2.679   4.932   2.300  0.4271  1.3080 -1.0889
 1052TIP3   OH2 3116   6.067   5.749   3.689 -0.0234 -0.0744 -0.4809
 1052TIP3    H1 3117   6.008   5.824   3.698  0.5775  0.5253 -1.3241
 1052TIP3    H2 3118   6.010   5.678   3.660 -1.1851 -0.8775  3.2198
 1053TIP3   OH2 3119   2.553   0.120   5.037  0.0128 -0.5231  0.3155
 1053TIP3    H1 3120   2.523   0.199   5.081 -0.3400 -0.9456  0.8449
 1053TIP3    H2 3121   2.476   0.063   5.034  0.2432 -0.8190 -0.1307
 1054TIP3   OH2 3122   1.983   6.370   6.046 -0.5083  0.1475 -0.1108
 1054TIP3    H1 3123   1.935   6.324   6.114 -0.3546 -0.2050 -0.2347
 1054TIP3    H2 3124   2.033   6.301   6.001  1.8397  0.7625  1.3980
 1055TIP3   OH2 3125   2.547   5.951   1.116 -0.6611  0.6252 -0.4562
 1055TIP3    H1 3126   2.518   5.879   1.171  1.2860 -0.9205 -1.3041
 1055TIP3    H2 3127   2.468   6.002   1.099 -1.6352  0.1580  2.2337
 1056TIP3   OH2 3128   1.290   3.265   2.204  0.1998  0.2683 -0.4792
 1056TIP3    H1 3129   1.225   3.327   2.173 -0.7538  0.6328  1.9749
 1056TIP3    H2 3130   1.292   3.196   2.138 -2.7105  0.2336 -0.6417
 1057TIP3   OH2 3131   0.375   1.306   0.727  0.1036  0.4479  1.0165
 1057TIP3    H1 3132   0.280   1.317   0.737 -0.0993 -0.3991  0.1489
 1057TIP3    H2 3133   0.386   1.215   0.698  1.0139  1.1552 -0.9994
 1058TIP3   OH2 3134   6.396   7.041   4.613  0.3090  0.3396  0.0827
 1058TIP3    H1 3135   6.341   7.109   4.574  1.0061  1.9472  1.7396
 1058TIP3    H2 3136   6.333   6.979   4.651 -0.3556  1.0476  0.1704
 1059TIP3   OH2 3137   1.099   5.943   5.090  0.4671  0.0691 -0.4684
 1059TIP3    H1 3138   1.164   5.966   5.023 -0.4150 -1.7170 -2.0411
 1059TIP3    H2 3139   1.018   5.982   5.058 -0.0499 -1.1600 -0.6973
 1060TIP3   OH2 3140   1.988   4.783   1.220 -0.2155  0.3559 -0.3321
 1060TIP3    H1 3141   1.998   4.824   1.306 -0.0608  1.2575 -0.7747
 1060TIP3    H2 3142   1.895   4.761   1.215 -0.5310  1.6512 -0.5227
 1061TIP3   OH2 3143   2.867   7.097   2.338  0.1349  0.6888 -0.1513
 1061TIP3    H1 3144   2.783   7.054   2.324 -0.8608  2.0321  1.4151
 1061TIP3    H2 3145   2.915   7.037   2.395 -0.1319  0.3837 -0.2413
 1062TIP3   OH2 3146   2.215   0.575   4.976 -0.0023 -0.1958  0.0869
 1062TIP3    H1 3147   2.161   0.544   4.903  0.4195 -0.9655  0.0871
 1062TIP3    H2 3148   2.156   0.575   5.051 -0.1184 -0.6390  0.0021
 1063TIP3   OH2 3149   4.617   1.086   0.183 -0.1171  0.2184  0.2898
 1063TIP3    H1 3150   4.688   1.130   0.230 -0.3088  0.3106  0.4960
 1063TIP3    H2 3151   4.626   0.994   0.209 -0.6071  0.3641  1.0159
 1064TIP3   OH2 3152   4.110   3.770   5.648  0.0601  0.5792 -0.4290
 1064TIP3    H1 3153   4.069   3.793   5.565  0.8023  0.2406 -0.9109
 1064TIP3    H2 3154   4.065   3.690   5.675  0.7943 -0.1546 -1.2787
 1065TIP3   OH2 3155   2.600   3.066   5.367 -0.2547  0.3655 -0.3203
 1065TIP3    H1 3156   2.619   3.063   5.273  0.9337 -1.4236 -0.0616
 1065TIP3    H2 3157   2.668   3.013   5.408 -0.8167  0.9940  1.5689
 1066TIP3   OH2 3158   0.137   1.444   2.238 -0.6208  0.8712 -0.0822
 1066TIP3    H1 3159   0.174   1.433   2.326  0.4356  1.2761 -0.4669
 1066TIP3    H2 3160   0.116   1.537   2.232 -0.3104  0.9253 -0.3930
 1067TIP3   OH2 3161   0.340   5.394   6.079 -0.3967 -0.0413 -0.5625
 1067TIP3    H1 3162   0.332   5.429   5.990  1.6071  0.0554 -0.7352
 1067TIP3    H2 3163   0.374   5.305   6.067  2.1196  0.7507  0.1351
 1068TIP3   OH2 3164   2.453   0.870   4.291 -0.1457  0.1623 -0.1939
 1068TIP3    H1 3165   2.360   0.860   4.311 -0.0826  2.6974  1.8608
 1068TIP3    H2 3166   2.457   0.878   4.196 -1.9625 -0.2866 -0.3437
 1069TIP3   OH2 3167   0.584   1.821   0.730  0.1248 -0.1267 -0.1327
 1069TIP3    H1 3168   0.618   1.737   0.697 -1.3254 -0.2861 -1.3276
 1069TIP3    H2 3169   0.543   1.799   0.814  0.9759 -0.3391  0.2385
 1070TIP3   OH2 3170   5.490   0.781   4.384 -0.5712  0.1765  0.2171
 1070TIP3    H1 3171   5.520   0.777   4.293  1.0839  1.1091  0.6718
 1070TIP3    H2 3172   5.494   0.691   4.415  3.7752  0.3510  0.7666
 1071TIP3   OH2 3173   4.626   2.935   4.279  0.4770 -0.3813 -0.8734
 1071TIP3    H1 3174   4.668   2.853   4.306  0.3960 -0.4666 -1.0101
 1071TIP3    H2 3175   4.693   2.981   4.229  2.0927  1.5518  2.6242
 1072TIP3   OH2 3176   4.372   7.151   4.478  0.3357 -0.8772  0.3133
 1072TIP3    H1 3177   4.315   7.140   4.555 -0.4905 -3.4286 -0.5858
 1072TIP3    H2 3178   4.357   7.073   4.426  1.5828  0.3625 -2.0314
 1073TIP3   OH2 3179   5.872   6.244   2.732 -0.2905 -0.1498  0.0284
 1073TIP3    H1 3180   5.849   6.156   2.761  1.7648 -0.7668 -0.0277
 1073TIP3    H2 3181   5.800   6.300   2.761 -0.8798 -1.6059  1.4471
 1074TIP3   OH2 3182   0.663   0.225   2.007 -0.3258 -0.5152 -0.2618
 1074TIP3    H1 3183   0.723   0.232   2.081 -0.9645 -0.5267  0.2764
 1074TIP3    H2 3184   0.625   0.138   2.016 -0.2626 -0.5867 -0.7155
 1075TIP3   OH2 3185   4.988   4.913   1.282  0.3282 -0.3316 -0.2670
 1075TIP3    H1 3186   5.025   4.974   1.218  1.3928  0.2415  0.8321
 1075TIP3    H2 3187   4.894   4.919   1.269  0.5253 -0.8776 -2.3162
 1076TIP3   OH2 3188   2.616   1.174   3.867 -0.2038  0.5101  0.5048
 1076TIP3    H1 3189   2.711   1.165   3.874 -0.2396 -0.6448 -0.3381
 1076TIP3    H2 3190   2.590   1.109   3.802 -1.7089  0.0172  1.5422
 1077TIP3   OH2 3191   5.374   2.823   5.846 -0.5431 -0.1835 -0.0424
 1077TIP3    H1 3192   5.315   2.748   5.855 -0.8937  0.1076  0.1487
 1077TIP3    H2 3193   5.348   2.882   5.917  2.2561 -1.5160  2.2857
 1078TIP3   OH2 3194   3.358   2.488   6.186 -0.5482  0.5898  0.2043
 1078TIP3    H1 3195   3.380   2.559   6.246  0.2610 -0.1261  0.7788
 1078TIP3    H2 3196   3.441   2.462   6.146 -0.4187 -1.4728  1.6427
 1079TIP3   OH2 3197   0.383   5.926   6.099  0.0062 -0.1430 -0.2845
 1079TIP3    H1 3198   0.344   5.899   6.182  0.1119  0.4405 -0.0411
 1079TIP3    H2 3199   0.472   5.953   6.122  0.7878 -2.0148 -0.9238
 1080TIP3   OH2 3200   6.490   6.950   4.226 -0.0937  0.6013  0.0879
 1080TIP3    H1 3201   6.536   7.026   4.262  1.9071 -1.1369  1.4534
 1080TIP3    H2 3202   6.514   6.878   4.284 -0.2887 -1.4751 -2.2462
 1081TIP3   OH2 3203   4.760   0.119   2.380  0.0576 -0.5850 -0.0316
 1081TIP3    H1 3204   4.762   0.095   2.287  0.2898 -3.4532  0.6356
 1081TIP3    H2 3205   4.827   0.065   2.421 -0.3882  0.2357  1.9113
 1082TIP3   OH2 3206   0.812   0.217   2.237  0.3834 -0.0751  0.0813
 1082TIP3    H1 3207   0.831   0.294   2.292 -1.7523  0.1149  0.6509
 1082TIP3    H2 3208   0.796   0.146   2.299 -1.6195  0.0318 -0.2358
 1083TIP3   OH2 3209   2.734   3.669   5.605  0.0500 -0.0649  0.0662
 1083TIP3    H1 3210   2.652   3.715   5.625  0.3392  0.4623  0.0685
 1083TIP3    H2 3211   2.730   3.589   5.657 -0.6805 -0.2788 -0.3056
 1084TIP3   OH2 3212   0.629   0.702   3.241 -0.1048  0.1711  0.1360
 1084TIP3    H1 3213   0.571   0.711   3.317 -0.1883  1.3995 -0.0632
 1084TIP3    H2 3214   0.667   0.789   3.229  2.4310 -0.7745  0.7521
 1085TIP3   OH2 3215   4.070   2.822   4.950  0.4652  0.6959 -0.2495
 1085TIP3    H1 3216   4.068   2.741   4.900  0.0392  0.3108  0.3756
 1085TIP3    H2 3217   4.107   2.798   5.035  0.6671  1.2272 -0.1810
 1086TIP3   OH2 3218   1.450   2.944   3.849 -0.1601 -0.4786 -0.4605
 1086TIP3    H1 3219   1.391   2.882   3.805  0.1935 -2.5659  1.7856
 1086TIP3    H2 3220   1.458   2.911   3.938  1.8096  1.6317  0.2585
 1087TIP3   OH2 3221   3.072   5.331   2.106  0.6231 -0.0806 -0.5071
 1087TIP3    H1 3222   3.044   5.245   2.138 -1.6708  1.2740  1.4940
 1087TIP3    H2 3223   3.021   5.345   2.026  1.0308 -0.5896 -0.8587
 1088TIP3   OH2 3224   7.201   6.211   3.857  0.2317  0.0610 -0.1485
 1088TIP3    H1 3225   7.219   6.265   3.780  0.6314 -1.4816 -1.1965
 1088TIP3    H2 3226   7.189   6.273   3.928 -0.8193  1.5850 -1.5727
 1089TIP3   OH2 3227   1.967   3.867   1.275  0.2861 -0.0009  0.1064
 1089TIP3    H1 3228   2.027   3.940   1.294  0.2319 -0.5525  2.8400
 1089TIP3    H2 3229   1.994   3.798   1.336 -2.1332 -0.8140  0.3617
 1090TIP3   OH2 3230   2.165   4.089   2.815 -0.3071 -0.0782 -0.7249
 1090TIP3    H1 3231   2.230   4.135   2.868  1.9623 -1.1756 -2.3579
 1090TIP3    H2 3232   2.137   4.015   2.869 -0.3681  0.5391  0.0957
 1091TIP3   OH2 3233   4.080   1.847   0.167 -0.3617  0.1843  0.2028
 1091TIP3    H1 3234   4.102   1.885   0.252 -0.1552 -2.6243  1.5319
 1091TIP3    H2 3235   3.985   1.845   0.165 -0.3882  1.2244 -0.1389
 1092TIP3   OH2 3236   7.095   1.686   2.758 -1.2022  0.9305  0.0835
 1092TIP3    H1 3237   7.055   1.772   2.741 -1.8436  0.9886  1.7648
 1092TIP3    H2 3238   7.031   1.623   2.724 -0.6136  1.0835 -1.3938
 1093TIP3   OH2 3239   5.733   6.101   0.548 -0.1770 -0.2291 -0.0782
 1093TIP3    H1 3240   5.684   6.171   0.591 -0.2871  0.1499 -0.8017
 1093TIP3    H2 3241   5.752   6.039   0.617  1.4806  1.3630  1.0007
 1094TIP3   OH2 3242   0.622   3.537   5.668 -0.2338 -0.1947 -0.0115
 1094TIP3    H1 3243   0.546   3.561   5.615  0.6737  2.0300 -0.4308
 1094TIP3    H2 3244   0.594   3.548   5.758 -0.1725  1.6972 -0.1751
 1095TIP3   OH2 3245   3.733   6.732   3.908  0.7080 -0.2218 -0.8689
 1095TIP3    H1 3246   3.757   6.807   3.962  0.9500 -0.7642 -0.2102
 1095TIP3    H2 3247   3.639   6.720   3.926  0.3127  0.7895 -2.0756
 1096TIP3   OH2 3248   2.596   4.136   2.218 -0.6268 -0.1617  0.4855
 1096TIP3    H1 3249   2.603   4.042   2.236  2.7154  0.0233  0.7282
 1096TIP3    H2 3250   2.544   4.170   2.291 -3.3160 -1.9556 -0.4621
 1097TIP3   OH2 3251   7.428   4.395   0.571 -0.0049  0.2424 -0.8548
 1097TIP3    H1 3252   7.347   4.443   0.552  0.3441  1.1353 -0.1765
 1097TIP3    H2 3253   7.495   4.441   0.520  0.2478  0.1344 -0.6208
 1098TIP3   OH2 3254   6.388   6.952   5.365  0.1144  0.1835  0.1048
 1098TIP3    H1 3255   6.456   6.994   5.417  0.3530 -0.5561  0.4023
 1098TIP3    H2 3256   6.431   6.927   5.284 -0.1702  1.0129 -0.3171
 1099TIP3   OH2 3257   2.193   4.545   1.527 -0.0289 -0.1974 -0.6725
 1099TIP3    H1 3258   2.259   4.570   1.591  0.6055 -1.1540 -0.9270
 1099TIP3    H2 3259   2.111   4.580   1.561  0.1906 -1.2072  0.9695
 1100TIP3   OH2 3260   4.402   4.046   2.086  0.0589  0.6183  0.3643
 1100TIP3    H1 3261   4.421   3.953   2.076  0.9336  0.6740  1.3522
 1100TIP3    H2 3262   4.320   4.049   2.136 -1.1419  0.3966 -1.4885
 1101TIP3   OH2 3263   3.745   5.968   2.130 -0.3144  0.0239 -0.4620
 1101TIP3    H1 3264   3.720   5.890   2.080  0.3257  0.4926 -1.5409
 1101TIP3    H2 3265   3.834   5.986   2.102 -0.2358  0.7763  0.2663
 1102TIP3   OH2 3266   1.183   1.770   2.395  0.5720  0.2304  0.1759
 1102TIP3    H1 3267   1.101   1.807   2.426  0.7736  1.5930 -0.8462
 1102TIP3    H2 3268   1.185   1.682   2.433 -1.2080  0.2712  0.4444
 1103TIP3   OH2 3269   4.025   5.651   0.432 -0.1753  0.4275 -0.2973
 1103TIP3    H1 3270   4.117   5.654   0.460  0.2536 -1.2731 -1.3606
 1103TIP3    H2 3271   3.978   5.699   0.500  1.4220  0.7316  0.6462
 1104TIP3   OH2 3272   4.731   5.369   1.657 -0.0548  0.4990  0.2896
 1104TIP3    H1 3273   4.776   5.447   1.689  0.6642  0.7619 -1.2674
 1104TIP3    H2 3274   4.775   5.296   1.700 -0.5623  0.9276  1.5618
 1105TIP3   OH2 3275   4.474   7.127   2.870 -0.1423 -0.3420  0.3189
 1105TIP3    H1 3276   4.524   7.200   2.907 -1.1259  0.1358  0.7158
 1105TIP3    H2 3277   4.537   7.054   2.868  0.9711  0.6112 -0.4860
 1106TIP3   OH2 3278   2.251   6.721   2.916  0.4871 -0.1951  0.2545
 1106TIP3    H1 3279   2.215   6.809   2.904  1.2328 -0.0467 -1.1016
 1106TIP3    H2 3280   2.343   6.736   2.940  0.6743 -0.5895 -0.2038
 1107TIP3   OH2 3281   3.858   0.365   0.965  0.4632  0.2011  0.0106
 1107TIP3    H1 3282   3.824   0.315   1.039  1.3349 -1.8452 -0.8978
 1107TIP3    H2 3283   3.953   0.363   0.975  0.5686  0.4199 -0.8161
 1108TIP3   OH2 3284   7.369   1.050   3.889  0.1262  0.1481  0.5370
 1108TIP3    H1 3285   7.356   1.026   3.980  0.0956  0.5200  0.6331
 1108TIP3    H2 3286   7.413   1.135   3.893  1.7621 -0.6393  0.2277
 1109TIP3   OH2 3287   0.390   5.492   1.236 -0.1988 -0.2521  0.0405
 1109TIP3    H1 3288   0.403   5.452   1.322 -0.5800  0.0139  0.2230
 1109TIP3    H2 3289   0.384   5.418   1.175 -3.4394 -0.6542  0.6800
 1110TIP3   OH2 3290   0.883   4.753   0.461 -0.0823 -0.3796 -0.3450
 1110TIP3    H1 3291   0.832   4.802   0.526  0.3579 -0.1413 -0.1716
 1110TIP3    H2 3292   0.878   4.807   0.382 -0.9668 -0.8786 -0.6349
 1111TIP3   OH2 3293   6.813   2.757   3.825 -0.0267  0.3757  0.2327
 1111TIP3    H1 3294   6.885   2.715   3.777  1.0976 -0.4406  2.4629
 1111TIP3    H2 3295   6.836   2.850   3.825  0.5888  0.2301  0.1971
 1112TIP3   OH2 3296   7.326   5.036   1.021 -0.2911 -0.1505  0.2881
 1112TIP3    H1 3297   7.250   4.980   1.034 -0.5251 -0.2824 -1.3913
 1112TIP3    H2 3298   7.398   4.989   1.063 -0.7718 -0.9767  0.2133
 1113TIP3   OH2 3299   3.537   1.167   1.092  0.0720  0.0660 -0.0443
 1113TIP3    H1 3300   3.553   1.120   1.174  3.7184  0.4348 -0.3931
 1113TIP3    H2 3301   3.545   1.259   1.116  0.9538  0.1822 -0.7346
 1114TIP3   OH2 3302   5.325   3.878   2.552  0.3184 -0.0182 -0.0567
 1114TIP3    H1 3303   5.400   3.821   2.565 -0.7668 -1.4266  0.3423
 1114TIP3    H2 3304   5.263   3.851   2.620 -1.6120 -0.8122 -1.9864
 1115TIP3   OH2 3305   4.652   2.376   4.233 -0.4643 -0.4502 -0.5661
 1115TIP3    H1 3306   4.557   2.370   4.238 -0.3065 -2.7918  0.9724
 1115TIP3    H2 3307   4.674   2.339   4.148 -0.9698  1.8415 -1.7670
 1116TIP3   OH2 3308   0.375   4.424   6.223  0.0153 -0.5854 -0.1661
 1116TIP3    H1 3309   0.401   4.511   6.254 -0.6138 -0.5890  0.3926
 1116TIP3    H2 3310   0.332   4.440   6.139 -0.1348 -0.3493 -0.0450
 1117TIP3   OH2 3311   4.394   1.629   4.360 -0.1302 -0.3552 -0.4340
 1117TIP3    H1 3312   4.449   1.693   4.315  1.9594 -1.2833  0.6911
 1117TIP3    H2 3313   4.421   1.544   4.324 -0.4685 -0.8710  0.4888
 1118TIP3   OH2 3314   0.934   6.206   0.826 -0.6124  0.3646 -0.2042
 1118TIP3    H1 3315   0.884   6.287   0.838 -0.2608  0.6671 -0.7836
 1118TIP3    H2 3316   0.868   6.137   0.833 -1.2269  0.7869 -1.6095
 1119TIP3   OH2 3317   5.922   2.011   3.970  0.2457 -0.3683  1.0783
 1119TIP3    H1 3318   5.968   2.095   3.961 -1.3758  0.3722 -1.2885
 1119TIP3    H2 3319   5.990   1.950   3.998  2.7326  0.7022 -1.9578
 1120TIP3   OH2 3320   4.351   1.698   3.671  0.2164 -0.0378 -0.2672
 1120TIP3    H1 3321   4.260   1.668   3.677 -0.2035  1.4165  1.9496
 1120TIP3    H2 3322   4.389   1.674   3.755  1.2701  1.2467 -0.3522
 1121TIP3   OH2 3323   5.348   0.830   3.498 -0.3808  0.2799  0.0496
 1121TIP3    H1 3324   5.355   0.925   3.495 -0.8555  0.3385  0.5190
 1121TIP3    H2 3325   5.381   0.806   3.585  0.5373 -0.0674 -0.3814
 1122TIP3   OH2 3326   0.895   1.267   6.078  0.6150 -0.1412  0.1717
 1122TIP3    H1 3327   0.940   1.324   6.140  2.1408 -0.7401 -0.3454
 1122TIP3    H2 3328   0.842   1.209   6.132 -0.5136  1.3547  0.7382
 1123TIP3   OH2 3329   6.772   0.780   2.793 -0.0344  0.0263  0.0568
 1123TIP3    H1 3330   6.849   0.836   2.797  0.8403 -1.1568  0.1758
 1123TIP3    H2 3331   6.721   0.804   2.870  0.2183  0.7959 -0.0063
 1124TIP3   OH2 3332   5.391   1.118   5.450 -0.1708  0.1227  0.0210
 1124TIP3    H1 3333   5.473   1.143   5.406  0.4371  0.5494  1.3339
 1124TIP3    H2 3334   5.330   1.100   5.379  0.4691  1.7654 -1.0079
 1125TIP3   OH2 3335   2.963   6.288   3.787 -0.2044 -0.2838 -0.0108
 1125TIP3    H1 3336   2.999   6.376   3.803 -0.9124 -0.1739  1.0683
 1125TIP3    H2 3337   3.039   6.234   3.767  0.3563  0.3546  0.3568
 1126TIP3   OH2 3338   2.169   4.336   0.949 -0.2369 -0.1506  0.0589
 1126TIP3    H1 3339   2.259   4.309   0.968  0.6898  2.2163 -0.5044
 1126TIP3    H2 3340   2.149   4.297   0.864  0.4505 -0.2805 -0.0474
 1127TIP3   OH2 3341   0.425   6.179   3.249  0.2579 -0.3576 -0.3818
 1127TIP3    H1 3342   0.475   6.260   3.260  0.5426 -0.5602 -0.1913
 1127TIP3    H2 3343   0.482   6.123   3.196  0.3179 -0.6656  0.0068
 1128TIP3   OH2 3344   1.227   7.111   2.144 -0.2849  0.0919  0.1767
 1128TIP3    H1 3345   1.185   7.026   2.155  1.3968 -0.7555  0.4373
 1128TIP3    H2 3346   1.202   7.138   2.055  1.0809 -1.8622 -0.8884
 1129TIP3   OH2 3347   4.606   2.988   0.566  1.1052 -0.0580  0.1315
 1129TIP3    H1 3348   4.630   3.048   0.637 -2.7027 -1.3255  2.8370
 1129TIP3    H2 3349   4.562   3.044   0.502  1.0587  0.5775  0.7088
 1130TIP3   OH2 3350   0.056   3.207   1.726 -0.4842 -0.6346  0.5741
 1130TIP3    H1 3351  -0.024   3.192   1.775 -1.8220  0.4903 -1.1477
 1130TIP3    H2 3352   0.102   3.275   1.775 -0.2921 -1.6336  1.8389
 1131TIP3   OH2 3353   1.336   3.221   4.326  0.7574 -0.2813  0.0750
 1131TIP3    H1 3354   1.409   3.181   4.280  0.1580 -1.7396  0.3501
 1131TIP3    H2 3355   1.269   3.153   4.329  0.2604  0.2360  1.8547
 1132TIP3   OH2 3356   2.090   2.652   0.003  0.4243 -0.3685 -0.1945
 1132TIP3    H1 3357   2.163   2.597   0.031  1.2245  0.0921 -1.2953
 1132TIP3    H2 3358   2.088   2.723   0.066  1.1117 -0.2422 -0.3066
 1133TIP3   OH2 3359   3.821   5.045   5.993  0.1054  0.5110 -0.1167
 1133TIP3    H1 3360   3.881   4.979   5.957  0.7166  1.9572 -1.9030
 1133TIP3    H2 3361   3.735   5.005   5.987  0.5169 -0.3431 -0.5901
 1134TIP3   OH2 3362   2.161   1.812   4.416  0.4827 -0.4420 -0.4620
 1134TIP3    H1 3363   2.216   1.741   4.447  0.9480  0.1291  0.0463
 1134TIP3    H2 3364   2.151   1.796   4.322 -0.3250 -1.7776 -0.1709
 1135TIP3   OH2 3365   0.359   6.988   2.928  0.1123  0.1284  0.1584
 1135TIP3    H1 3366   0.400   7.070   2.899 -0.1820  0.2272  0.0116
 1135TIP3    H2 3367   0.428   6.923   2.923  0.5905  0.5484  1.1368
 1136TIP3   OH2 3368   2.431   3.289   1.378 -0.6694 -0.6349  0.0925
 1136TIP3    H1 3369   2.402   3.244   1.299  0.1518  0.5992 -0.9443
 1136TIP3    H2 3370   2.452   3.218   1.439  1.1891 -1.7239 -1.6914
 1137TIP3   OH2 3371   5.614   5.572   5.319 -0.7897 -0.6368 -0.6755
 1137TIP3    H1 3372   5.596   5.543   5.409 -0.6636  0.9813 -0.0721
 1137TIP3    H2 3373   5.709   5.579   5.316 -0.8345  0.0872 -0.6467
 1138TIP3   OH2 3374   6.495   5.068   4.163  0.8352  0.3644 -0.3242
 1138TIP3    H1 3375   6.483   5.058   4.258  2.8999  1.3911  0.1016
 1138TIP3    H2 3376   6.513   5.161   4.151  0.0379  0.3532 -1.8258
 1139TIP3   OH2 3377   0.774   0.926   5.323 -0.1539 -0.0699 -0.2893
 1139TIP3    H1 3378   0.683   0.903   5.301  0.3436 -1.9761 -0.4854
 1139TIP3    H2 3379   0.774   0.931   5.418 -0.2878 -0.8995 -0.2400
 1140TIP3   OH2 3380   4.154   5.040   6.049  0.5138 -0.1031 -0.4762
 1140TIP3    H1 3381   4.089   5.092   6.096  0.8781  1.3547 -1.5192
 1140TIP3    H2 3382   4.237   5.086   6.064  1.1170 -1.2326 -0.2112
 1141TIP3   OH2 3383   1.954   2.363   1.951 -0.0285 -0.4792  0.4813
 1141TIP3    H1 3384   1.937   2.398   2.038 -0.9921 -0.6755  0.3787
 1141TIP3    H2 3385   1.890   2.406   1.895 -1.0712 -2.1711  0.3062
 1142TIP3   OH2 3386   5.199   0.668   1.301  0.1609  0.0069 -0.2433
 1142TIP3    H1 3387   5.143   0.612   1.248  0.4697  0.2623 -0.8558
 1142TIP3    H2 3388   5.282   0.621   1.306 -0.1157 -0.4037  0.7193
 1143TIP3   OH2 3389   2.289   6.230   3.284 -0.6439 -0.0353 -0.2136
 1143TIP3    H1 3390   2.194   6.242   3.279 -0.3893  2.9201  0.1378
 1143TIP3    H2 3391   2.325   6.306   3.237  1.5524 -0.4277  0.7055
 1144TIP3   OH2 3392   3.389   0.847   3.738  0.3946 -0.0138  0.1248
 1144TIP3    H1 3393   3.379   0.752   3.729 -0.6556 -0.1389  2.0874
 1144TIP3    H2 3394   3.425   0.875   3.654 -0.8874 -1.9148 -1.1408
 1145TIP3   OH2 3395   1.120   4.236   5.858  0.6128 -0.1495  0.2419
 1145TIP3    H1 3396   1.115   4.142   5.841 -0.0024  0.0208 -0.6189
 1145TIP3    H2 3397   1.203   4.248   5.904  0.7282 -1.1027  0.3009
 1146TIP3   OH2 3398   2.156   6.241   1.437  0.2120 -0.1831 -0.1110
 1146TIP3    H1 3399   2.203   6.289   1.369  0.4206  1.2489  0.9987
 1146TIP3    H2 3400   2.100   6.306   1.479 -0.1754 -1.1063  0.8582
 1147TIP3   OH2 3401   7.087   2.951   5.009 -0.8867 -0.7647  0.5695
 1147TIP3    H1 3402   7.101   2.889   5.081  0.4490 -1.9626 -0.6518
 1147TIP3    H2 3403   7.168   3.002   5.006 -1.0780 -0.4784  0.1502
 1148TIP3   OH2 3404   2.729   2.560   6.187 -0.0277 -0.3333  0.7466
 1148TIP3    H1 3405   2.811   2.571   6.236  0.0681 -1.2796  0.8134
 1148TIP3    H2 3406   2.737   2.474   6.147 -0.5618 -0.0013 -0.0877
 1149TIP3   OH2 3407   1.679   4.179   0.692 -0.0183 -0.2393  0.0179
 1149TIP3    H1 3408   1.768   4.173   0.657  0.2837  0.3912  0.6347
 1149TIP3    H2 3409   1.635   4.100   0.661  0.6759 -0.4174 -0.5306
 1150TIP3   OH2 3410   6.340   4.523   2.067 -0.4747  0.4928 -0.9535
 1150TIP3    H1 3411   6.400   4.595   2.085 -0.5164  0.5708 -1.1212
 1150TIP3    H2 3412   6.275   4.527   2.137  1.0206 -1.0585  0.6163
 1151TIP3   OH2 3413   3.250   5.986   0.595 -0.1515  0.3647  0.4173
 1151TIP3    H1 3414   3.217   5.915   0.650  1.0228 -0.7089 -0.2181
 1151TIP3    H2 3415   3.239   6.064   0.649 -1.7981 -0.2106  1.0071
 1152TIP3   OH2 3416   0.595   0.486   2.046 -0.3227 -0.4888  0.3181
 1152TIP3    H1 3417   0.603   0.391   2.040 -0.2105 -0.3704 -2.2079
 1152TIP3    H2 3418   0.677   0.514   2.086  1.3613 -1.2366 -2.3451
 1153TIP3   OH2 3419   4.336   5.286   2.300 -0.9767 -0.5605 -0.1351
 1153TIP3    H1 3420   4.273   5.238   2.353 -0.1480 -0.6865  0.7760
 1153TIP3    H2 3421   4.404   5.222   2.280 -0.6422 -0.1717 -0.2462
 1154TIP3   OH2 3422   5.044   6.253   3.891 -0.0969 -0.1457 -0.2141
 1154TIP3    H1 3423   5.107   6.251   3.820  0.4245  0.4320  0.2203
 1154TIP3    H2 3424   5.016   6.345   3.895  0.1145 -0.1066  0.5195
 1155TIP3   OH2 3425   5.543   0.249   2.722 -0.2633 -0.9450  0.0083
 1155TIP3    H1 3426   5.603   0.187   2.764 -1.8003 -2.2579  0.3559
 1155TIP3    H2 3427   5.592   0.282   2.647  0.1069 -3.7395 -1.0781
 1156TIP3   OH2 3428   7.536   0.297   0.888 -0.4432  0.1121  0.4130
 1156TIP3    H1 3429   7.508   0.208   0.911  1.1492 -0.6709 -0.5719
 1156TIP3    H2 3430   7.609   0.315   0.947  0.0937  0.2457 -0.2913
 1157TIP3   OH2 3431   5.515   1.571   5.984 -0.0774  0.3447 -0.0997
 1157TIP3    H1 3432   5.452   1.560   6.056  0.2053  0.2632  0.1385
 1157TIP3    H2 3433   5.592   1.610   6.025 -0.2996  1.2865 -0.5626
 1158TIP3   OH2 3434   4.801   7.059   5.106  0.5060 -0.4081 -0.2954
 1158TIP3    H1 3435   4.774   6.997   5.038 -1.6014 -0.7538  0.7550
 1158TIP3    H2 3436   4.882   7.022   5.142  1.8530 -0.0337 -2.7672
 1159TIP3   OH2 3437   1.975   0.865   3.511 -0.9804 -0.5313 -0.3037
 1159TIP3    H1 3438   2.065   0.832   3.507 -1.0628 -0.9545  0.9423
 1159TIP3    H2 3439   1.945   0.842   3.599 -1.4219  1.8778  0.2567
 1160TIP3   OH2 3440   1.602   5.584   3.918 -0.0614  0.1779  0.6053
 1160TIP3    H1 3441   1.674   5.551   3.864  0.4850  0.7931  0.9499
 1160TIP3    H2 3442   1.533   5.519   3.908  0.4113 -0.2334 -0.0198
 1161TIP3   OH2 3443   4.119   5.909   2.685  0.1207 -0.4723  0.5594
 1161TIP3    H1 3444   4.168   5.987   2.713  0.1730 -0.0100 -0.7473
 1161TIP3    H2 3445   4.157   5.885   2.601 -2.5397  0.5741 -1.0853
 1162TIP3   OH2 3446   1.267   0.641   0.241  0.0524  0.4135 -0.1221
 1162TIP3    H1 3447   1.221   0.718   0.208  0.9802  1.2503  0.4954
 1162TIP3    H2 3448   1.359   0.660   0.226  0.2774 -0.7246 -0.2476
 1163TIP3   OH2 3449   7.031   6.284   2.476  0.8291  0.0943  0.2861
 1163TIP3    H1 3450   6.935   6.292   2.475  0.9647  2.2163 -1.0346
 1163TIP3    H2 3451   7.049   6.226   2.550 -1.4986 -0.8645  0.1803
 1164TIP3   OH2 3452   0.198   0.052   6.024  0.4331  0.1334 -0.1686
 1164TIP3    H1 3453   0.118   0.051   5.972  0.2765  2.1609 -0.0493
 1164TIP3    H2 3454   0.256  -0.010   5.979 -0.7504 -0.4425 -0.9674
 1165TIP3   OH2 3455   6.927   0.035   2.611 -0.0677 -1.2706 -0.6766
 1165TIP3    H1 3456   6.959   0.008   2.697  2.3422  1.2263 -0.6600
 1165TIP3    H2 3457   7.001   0.023   2.552 -1.3327 -1.8769 -2.2313
 1166TIP3   OH2 3458   4.114   0.678   3.693  0.4596 -0.6567 -0.0109
 1166TIP3    H1 3459   4.205   0.701   3.712  0.9621 -1.8763 -0.7737
 1166TIP3    H2 3460   4.089   0.618   3.763  0.1684 -0.1677  0.3079
 1167TIP3   OH2 3461   0.765   4.964   5.682 -0.2539  0.0542 -0.2148
 1167TIP3    H1 3462   0.842   4.921   5.720 -0.2161  0.1711 -0.1573
 1167TIP3    H2 3463   0.725   5.011   5.755 -0.6809 -0.4381 -0.1373
 1168TIP3   OH2 3464   4.701   4.510   2.353  0.0379  0.1608 -0.3218
 1168TIP3    H1 3465   4.758   4.464   2.415  0.3181  0.3468 -0.4392
 1168TIP3    H2 3466   4.729   4.480   2.267  1.3634  1.7921 -0.5037
 1169TIP3   OH2 3467   6.033   3.022   4.694 -0.3858 -0.6149 -0.1378
 1169TIP3    H1 3468   6.092   2.946   4.690 -1.1321 -1.3160  1.4596
 1169TIP3    H2 3469   6.045   3.057   4.782 -0.8679  0.4883 -0.4969
 1170TIP3   OH2 3470   0.992   7.060   1.520 -0.2318  0.6918 -0.1856
 1170TIP3    H1 3471   0.901   7.037   1.502 -0.0017 -0.7742  0.3882
 1170TIP3    H2 3472   1.042   7.014   1.452  0.2962 -1.3233  1.4365
 1171TIP3   OH2 3473   2.341   0.054   5.278  0.0765  0.2808  0.5955
 1171TIP3    H1 3474   2.264   0.047   5.333 -0.8814 -0.4845 -0.7666
 1171TIP3    H2 3475   2.306   0.067   5.189  1.4530 -1.1243 -0.2115
 1172TIP3   OH2 3476   5.125   2.522   3.684  0.2120  0.3108 -0.3482
 1172TIP3    H1 3477   5.094   2.529   3.774 -4.0904 -1.8314 -1.4222
 1172TIP3    H2 3478   5.129   2.612   3.653 -1.3105  0.9310  1.1060
 1173TIP3   OH2 3479   0.370   5.542   2.216  0.2998  0.0857  0.5558
 1173TIP3    H1 3480   0.319   5.579   2.144  0.2755  1.8163  1.4328
 1173TIP3    H2 3481   0.307   5.533   2.288  0.7176  0.0435  0.9189
 1174TIP3   OH2 3482   5.554   6.343   4.395 -0.3584 -0.5722  1.2590
 1174TIP3    H1 3483   5.466   6.306   4.405 -0.5944 -0.0074  1.2963
 1174TIP3    H2 3484   5.547   6.432   4.430 -0.0593 -0.1281  0.2139
 1175TIP3   OH2 3485   5.763   4.023   0.465 -0.1141 -0.3142  0.1383
 1175TIP3    H1 3486   5.756   3.938   0.422 -2.1132 -1.4697  2.5332
 1175TIP3    H2 3487   5.842   4.017   0.518 -0.9071 -1.1814  1.2507
 1176TIP3   OH2 3488   5.230   4.867   5.418 -0.0729  0.1779 -0.0200
 1176TIP3    H1 3489   5.303   4.910   5.463 -0.1205 -0.0419  0.2668
 1176TIP3    H2 3490   5.193   4.935   5.362 -0.7274  0.7879  1.1167
 1177TIP3   OH2 3491   6.222   3.297   2.694  0.0300 -0.2294  0.1948
 1177TIP3    H1 3492   6.136   3.285   2.734  0.4901 -0.6145  1.1002
 1177TIP3    H2 3493   6.214   3.380   2.647 -1.3092 -1.0240 -1.0665
 1178TIP3   OH2 3494   4.020   3.504   0.175  0.0442  0.2277  0.1878
 1178TIP3    H1 3495   4.071   3.474   0.100  0.6280 -0.3639  0.8056
 1178TIP3    H2 3496   4.049   3.448   0.248  2.3373  3.2188  1.7970
 1179TIP3   OH2 3497   1.396   5.699   2.729  0.4473 -1.3388  0.0487
 1179TIP3    H1 3498   1.407   5.662   2.816 -0.6235 -1.4877  0.1390
 1179TIP3    H2 3499   1.345   5.634   2.681 -0.6277 -0.4392 -0.0865
 1180TIP3   OH2 3500   4.957   6.390   5.147  0.0708 -0.0126 -0.3048
 1180TIP3    H1 3501   5.017   6.408   5.075  1.8809  0.7403  1.2784
 1180TIP3    H2 3502   4.872   6.379   5.106  1.0346  0.3569 -2.5342
 1181TIP3   OH2 3503   5.509   3.113   1.624  0.2593 -0.7766  0.7110
 1181TIP3    H1 3504   5.484   3.162   1.702  2.4993 -0.0595  1.0676
 1181TIP3    H2 3505   5.532   3.026   1.656 -0.8706 -1.1585  0.5137
 1182TIP3   OH2 3506   6.972   4.370   3.580  0.3206  0.2956 -0.1029
 1182TIP3    H1 3507   6.913   4.326   3.641  0.7227 -0.0964  0.0106
 1182TIP3    H2 3508   6.915   4.427   3.529 -0.2401 -0.4781 -0.3688
 1183TIP3   OH2 3509   0.852   5.427   0.621  0.6144 -0.4748 -0.8675
 1183TIP3    H1 3510   0.890   5.354   0.670  1.2708  0.6615  0.3983
 1183TIP3    H2 3511   0.922   5.453   0.560  0.8233 -0.1706 -0.5019
 1184TIP3   OH2 3512   1.731   2.523   4.600  0.0323 -0.7862  0.0504
 1184TIP3    H1 3513   1.661   2.575   4.641  0.9629 -0.3432  1.1303
 1184TIP3    H2 3514   1.808   2.580   4.603  0.4068 -1.1723 -1.3452
 1185TIP3   OH2 3515   1.574   3.370   0.385 -0.3549  0.0537 -0.5773
 1185TIP3    H1 3516   1.553   3.277   0.381  0.0987 -0.2641  2.2987
 1185TIP3    H2 3517   1.494   3.412   0.417 -0.3592  0.5710 -1.2457
 1186TIP3   OH2 3518   1.095   3.988   3.169  0.6533  0.7325  0.0802
 1186TIP3    H1 3519   1.071   3.903   3.131 -3.2373  1.9258 -0.4955
 1186TIP3    H2 3520   1.072   3.980   3.261 -1.5229  1.6829 -0.3406
 1187TIP3   OH2 3521   2.900   6.423   5.433  0.1425 -1.0373  0.0293
 1187TIP3    H1 3522   2.844   6.352   5.466 -0.2883 -1.0227 -0.6504
 1187TIP3    H2 3523   2.955   6.381   5.367  2.0911 -1.4080  1.8002
 1188TIP3   OH2 3524   2.073   2.372   1.262 -0.1890 -0.3468  0.0956
 1188TIP3    H1 3525   2.056   2.392   1.170  3.4989 -0.6266 -0.7991
 1188TIP3    H2 3526   2.030   2.288   1.277 -2.3643  0.5458 -0.7703
 1189TIP3   OH2 3527   3.617   1.366   4.161 -0.1543 -0.2826  0.1444
 1189TIP3    H1 3528   3.693   1.310   4.178 -0.1141 -0.7748 -1.5139
 1189TIP3    H2 3529   3.651   1.435   4.104 -0.0994  1.7451  2.4627
 1190TIP3   OH2 3530   4.533   1.492   1.818  0.2956 -0.0127 -0.3238
 1190TIP3    H1 3531   4.506   1.520   1.905 -0.2567 -0.0543 -0.4774
 1190TIP3    H2 3532   4.617   1.449   1.832  0.0767 -0.2714  0.2339
 1191TIP3   OH2 3533   2.145   4.113   4.735 -0.2999 -0.6508  0.3901
 1191TIP3    H1 3534   2.168   4.067   4.816  0.4498  0.7684  1.0105
 1191TIP3    H2 3535   2.091   4.187   4.764 -0.6953 -0.5747 -0.4970
 1192TIP3   OH2 3536   2.176   3.359   4.841  0.1906  0.6522 -0.0644
 1192TIP3    H1 3537   2.221   3.298   4.900  0.8224  1.9474  0.8339
 1192TIP3    H2 3538   2.084   3.352   4.866  0.2004 -0.2106 -0.2409
 1193TIP3   OH2 3539   3.262   0.178   3.048  0.2542  0.3472 -0.2836
 1193TIP3    H1 3540   3.212   0.108   3.007  1.9719 -2.2496  1.7374
 1193TIP3    H2 3541   3.285   0.237   2.975 -0.2840 -1.7755 -2.2831
 1194TIP3   OH2 3542   3.670   0.630   2.154 -0.3317 -0.0358 -0.6670
 1194TIP3    H1 3543   3.611   0.706   2.161  0.0020  0.1958 -0.3385
 1194TIP3    H2 3544   3.758   0.668   2.153 -0.0792 -0.4925  1.2046
 1195TIP3   OH2 3545   5.395   4.539   3.179  0.0805  0.2554 -0.6206
 1195TIP3    H1 3546   5.459   4.532   3.108  0.6747 -1.2430  0.0173
 1195TIP3    H2 3547   5.405   4.458   3.229 -0.7779  0.9787  0.8062
 1196TIP3   OH2 3548   3.277   2.830   0.116 -0.0365 -0.3931 -0.9473
 1196TIP3    H1 3549   3.286   2.890   0.190 -2.3637  0.4928 -1.3002
 1196TIP3    H2 3550   3.355   2.847   0.062  1.3736 -0.6047  0.9170
 1197TIP3   OH2 3551   3.665   2.500   0.431 -0.1962 -0.3859 -0.5993
 1197TIP3    H1 3552   3.740   2.532   0.482 -0.3298 -0.5681 -0.2835
 1197TIP3    H2 3553   3.645   2.571   0.370 -0.8531  0.3912  0.4678
 1198TIP3   OH2 3554   0.022   3.593   2.934  0.3643 -0.1346 -0.1223
 1198TIP3    H1 3555   0.072   3.646   2.996 -0.5221  1.5691 -0.7819
 1198TIP3    H2 3556  -0.069   3.611   2.955  0.0456 -0.9538 -0.7594
 1199TIP3   OH2 3557   1.611   2.039   3.448 -0.0028 -0.0012 -0.6432
 1199TIP3    H1 3558   1.622   1.983   3.371  0.5061  0.1290 -0.6725
 1199TIP3    H2 3559   1.612   1.979   3.522  0.2536 -0.0616 -0.6940
 1200TIP3   OH2 3560   1.740   2.486   0.592  0.0910 -0.2295  0.0510
 1200TIP3    H1 3561   1.648   2.511   0.590 -0.5478 -2.2456  1.5586
 1200TIP3    H2 3562   1.777   2.534   0.666  0.1224  0.1418 -0.2036
 1201TIP3   OH2 3563   5.275   4.866   3.073 -0.2381 -0.8527  0.1603
 1201TIP3    H1 3564   5.234   4.911   3.147 -1.5346  0.3685 -1.2336
 1201TIP3    H2 3565   5.302   4.937   3.014  0.5617 -1.8003 -0.6410
 1202TIP3   OH2 3566   5.142   2.875   2.658  0.5223 -0.1041 -0.5055
 1202TIP3    H1 3567   5.235   2.868   2.677  0.3576 -0.4916  0.2075
 1202TIP3    H2 3568   5.107   2.788   2.675  0.2734 -0.3791 -2.2603
 1203TIP3   OH2 3569   4.686   1.708   4.531  0.1899  0.4208 -0.1629
 1203TIP3    H1 3570   4.614   1.660   4.572 -1.1436  3.0443  0.8075
 1203TIP3    H2 3571   4.765   1.668   4.566 -0.7938 -1.5860 -0.1065
 1204TIP3   OH2 3572   5.920   1.170   3.950 -0.1406  0.4694  0.0202
 1204TIP3    H1 3573   5.928   1.182   3.856 -0.2080  1.4103  0.1271
 1204TIP3    H2 3574   6.007   1.142   3.978 -0.3169 -0.5645 -0.4169
 1205TIP3   OH2 3575   7.281   3.372   4.038 -0.4710  0.1483 -0.5757
 1205TIP3    H1 3576   7.216   3.401   4.102  1.1611  0.2566  1.1007
 1205TIP3    H2 3577   7.303   3.452   3.989 -0.9269  0.2869 -0.5626
 1206TIP3   OH2 3578   0.782   0.183   5.362 -0.2904 -0.0417 -0.3252
 1206TIP3    H1 3579   0.738   0.268   5.351  0.6789  0.3415 -1.5347
 1206TIP3    H2 3580   0.724   0.133   5.419 -1.7925  0.7979 -1.0526
 1207TIP3   OH2 3581   6.125   3.389   0.650 -0.2521  0.9943  0.5238
 1207TIP3    H1 3582   6.067   3.328   0.603  1.3766  0.6459 -1.1447
 1207TIP3    H2 3583   6.149   3.455   0.586  2.6728  0.0841  0.5086
 1208TIP3   OH2 3584   0.419   3.589   1.980  0.1539  0.0255 -0.0908
 1208TIP3    H1 3585   0.507   3.556   1.995  0.2743  0.4677  0.1819
 1208TIP3    H2 3586   0.367   3.551   2.052 -0.1935 -1.4144 -1.0679
 1209TIP3   OH2 3587   2.489  -0.027   3.865 -0.4841  0.1314  0.5496
 1209TIP3    H1 3588   2.462   0.028   3.792  0.8099  0.0463 -0.0160
 1209TIP3    H2 3589   2.439   0.006   3.940 -0.3715  1.4906  0.0416
 1210TIP3   OH2 3590   2.406   3.022   2.250 -0.2456 -0.0965  0.0020
 1210TIP3    H1 3591   2.364   3.080   2.314 -0.4615  0.5652 -0.7223
 1210TIP3    H2 3592   2.390   3.064   2.165 -0.8505 -1.4692 -0.6035
 1211TIP3   OH2 3593   5.684   4.633   0.191  0.3701  0.3586  0.6865
 1211TIP3    H1 3594   5.717   4.553   0.151 -0.2284  0.4353  0.0315
 1211TIP3    H2 3595   5.638   4.604   0.270 -0.6264 -0.0421 -0.0208
 1212TIP3   OH2 3596   3.638   6.083   0.490  0.0115  0.4506  0.0023
 1212TIP3    H1 3597   3.628   6.019   0.560 -0.2021  0.6898  0.1911
 1212TIP3    H2 3598   3.713   6.136   0.516  0.6458 -0.1718 -0.5072
 1213TIP3   OH2 3599   2.518   0.820   4.869  0.0972 -0.5928  0.1602
 1213TIP3    H1 3600   2.533   0.733   4.905 -1.3133 -0.8683  0.1280
 1213TIP3    H2 3601   2.493   0.806   4.778  1.5432 -0.0246 -0.3562
 1214TIP3   OH2 3602   1.592   4.759   2.874  0.2020 -0.0791  0.1653
 1214TIP3    H1 3603   1.686   4.755   2.893 -0.3185 -2.9951  3.0842
 1214TIP3    H2 3604   1.555   4.809   2.946 -0.5400  0.8283 -0.8258
 1215TIP3   OH2 3605   2.861   6.498   0.234 -0.1014  0.2342  0.1555
 1215TIP3    H1 3606   2.844   6.537   0.148 -0.5452  0.4381  0.3315
 1215TIP3    H2 3607   2.835   6.406   0.224 -0.4703  0.3361  0.1648
 1216TIP3   OH2 3608   1.744   1.815   4.389  0.2480  0.0868  0.6220
 1216TIP3    H1 3609   1.727   1.726   4.419  0.9226 -0.1502  0.3085
 1216TIP3    H2 3610   1.662   1.862   4.407 -0.2478 -0.6868  0.4239
 1217TIP3   OH2 3611   1.065   3.662   4.370  0.2481 -0.4085 -0.0918
 1217TIP3    H1 3612   1.023   3.748   4.369 -0.3429 -0.5763  2.3152
 1217TIP3    H2 3613   1.088   3.645   4.279 -0.5357  1.8377 -0.7845
 1218TIP3   OH2 3614   0.301   6.838   4.958 -0.1116 -0.1759 -0.1060
 1218TIP3    H1 3615   0.310   6.742   4.953 -0.7241 -0.2228 -0.4469
 1218TIP3    H2 3616   0.390   6.870   4.973 -0.1159 -0.9184  1.8809
 1219TIP3   OH2 3617   2.578   3.210   0.105 -0.5109  0.6971  0.0579
 1219TIP3    H1 3618   2.496   3.241   0.068 -0.5858 -0.4913 -0.8073
 1219TIP3    H2 3619   2.641   3.279   0.082 -1.1530  1.3682  0.2826
 1220TIP3   OH2 3620   4.520   4.816   4.681  0.5344  0.1857 -0.2721
 1220TIP3    H1 3621   4.490   4.735   4.640 -0.8752  0.7751 -0.4762
 1220TIP3    H2 3622   4.593   4.789   4.737  1.4620 -0.8861 -1.9148
 1221TIP3   OH2 3623   5.606   6.317   3.277  0.1387  0.2042  0.7566
 1221TIP3    H1 3624   5.562   6.393   3.239  1.9320  0.9540  0.0856
 1221TIP3    H2 3625   5.622   6.259   3.203 -2.5714 -1.6359  1.4644
 1222TIP3   OH2 3626   3.697   0.176   6.029  0.4510  0.1983 -0.5019
 1222TIP3    H1 3627   3.608   0.148   6.050  1.0872 -0.8483  0.9257
 1222TIP3    H2 3628   3.702   0.170   5.933 -0.8902 -0.0693 -0.5738
 1223TIP3   OH2 3629   7.235   5.629   1.494 -0.5016  0.1326 -0.1485
 1223TIP3    H1 3630   7.207   5.685   1.566 -2.3683 -1.1446  0.1779
 1223TIP3    H2 3631   7.244   5.542   1.532  0.9754 -0.0977 -0.9459
 1224TIP3   OH2 3632   6.230   1.298   2.051 -0.7239 -0.0095  0.1347
 1224TIP3    H1 3633   6.213   1.217   2.002 -2.4604 -0.3284  1.1830
 1224TIP3    H2 3634   6.241   1.269   2.142  3.2693  0.4761 -0.0548
 1225TIP3   OH2 3635   2.944   3.942   1.837 -0.4801 -0.4112 -0.0445
 1225TIP3    H1 3636   2.935   3.996   1.916 -0.1767 -2.4217  1.4415
 1225TIP3    H2 3637   3.038   3.937   1.822 -0.5432  0.1246 -0.6921
 1226TIP3   OH2 3638   2.592   3.699   3.801  0.1790  0.1282 -0.4176
 1226TIP3    H1 3639   2.503   3.705   3.764  0.2775 -1.2538 -0.9573
 1226TIP3    H2 3640   2.579   3.653   3.884  0.4103 -0.3450 -0.6389
 1227TIP3   OH2 3641   5.028   0.041   2.926  0.1182 -0.2931 -0.4323
 1227TIP3    H1 3642   5.015   0.070   3.017 -1.7542 -0.6946 -0.5296
 1227TIP3    H2 3643   5.033   0.122   2.876 -3.1309  0.0455 -0.4511
 1228TIP3   OH2 3644   7.201   6.748   4.782  0.0487  0.2415 -0.4638
 1228TIP3    H1 3645   7.196   6.654   4.762 -1.7570  0.3838 -0.7556
 1228TIP3    H2 3646   7.128   6.764   4.841  0.2542  1.5094 -0.5380
 1229TIP3   OH2 3647   4.704   1.434   5.018  0.0106 -0.2371 -1.1162
 1229TIP3    H1 3648   4.799   1.441   5.026 -0.1520 -0.4341  2.0924
 1229TIP3    H2 3649   4.680   1.508   4.963  1.9512  0.2293 -1.4308
 1230TIP3   OH2 3650   4.028   4.631   4.160 -0.0998 -0.6046 -0.5355
 1230TIP3    H1 3651   3.975   4.677   4.094 -2.5933  0.6326  2.1136
 1230TIP3    H2 3652   4.082   4.700   4.199  1.9659 -1.4705 -1.6984
 1231TIP3   OH2 3653   5.384   4.126   5.179  0.3590  0.8037 -0.0274
 1231TIP3    H1 3654   5.330   4.104   5.255  0.8696  0.9837  0.3906
 1231TIP3    H2 3655   5.377   4.222   5.172 -0.7642  0.6694 -1.0218
 1232TIP3   OH2 3656   0.411   6.792   2.144  0.0272 -0.4329 -0.3573
 1232TIP3    H1 3657   0.486   6.848   2.120 -0.5488  0.8863  0.7660
 1232TIP3    H2 3658   0.336   6.851   2.138 -0.7306 -1.3671 -0.0878
 1233TIP3   OH2 3659   7.404   0.403   2.785 -0.4804  0.1624  0.0531
 1233TIP3    H1 3660   7.424   0.404   2.879 -1.3220  0.7941  0.2441
 1233TIP3    H2 3661   7.330   0.463   2.776  0.2109  0.8641 -1.1709
 1234TIP3   OH2 3662   0.048   2.254   1.223  0.7275 -0.4726 -0.2649
 1234TIP3    H1 3663  -0.016   2.304   1.274  0.5811 -1.9548  1.0616
 1234TIP3    H2 3664   0.124   2.313   1.217 -0.0651  0.5860 -0.2737
 1235TIP3   OH2 3665   5.427   0.499   1.266 -0.5514 -0.2077  0.5216
 1235TIP3    H1 3666   5.476   0.538   1.194 -0.5801  0.4020  0.8176
 1235TIP3    H2 3667   5.435   0.405   1.253 -0.6578 -0.1061 -0.3413
 1236TIP3   OH2 3668   1.803   1.349   5.310 -0.1988  0.1046  0.0800
 1236TIP3    H1 3669   1.733   1.403   5.272 -0.0992  0.8267  0.9070
 1236TIP3    H2 3670   1.883   1.400   5.295 -0.1699  0.4685  1.3461
 1237TIP3   OH2 3671   4.171   0.504   5.609  0.4310  0.2634 -0.3075
 1237TIP3    H1 3672   4.221   0.580   5.578  0.5630 -0.3376 -1.6363
 1237TIP3    H2 3673   4.237   0.436   5.621  0.2907  0.3055  0.7283
 1238TIP3   OH2 3674   0.750   0.940   5.598 -0.5355 -0.0155 -0.4186
 1238TIP3    H1 3675   0.673   0.925   5.654  0.1933  1.7741  1.1870
 1238TIP3    H2 3676   0.824   0.938   5.659  0.4973  0.3015 -1.6185
 1239TIP3   OH2 3677   5.000   6.517   2.331 -0.1872  0.6045  0.0821
 1239TIP3    H1 3678   4.909   6.549   2.330  0.2214  1.8271 -0.1348
 1239TIP3    H2 3679   5.043   6.569   2.399  0.2258 -0.3574  0.5636
 1240TIP3   OH2 3680   0.675   0.314   4.795 -0.0649  0.4401  0.2388
 1240TIP3    H1 3681   0.588   0.327   4.758 -0.5831 -2.8718 -0.0684
 1240TIP3    H2 3682   0.725   0.273   4.723  1.5989  1.7129  0.6004
 1241TIP3   OH2 3683   6.860   2.488   0.568 -0.0564 -0.4328 -0.1334
 1241TIP3    H1 3684   6.837   2.539   0.490 -2.6602 -1.0892  0.0961
 1241TIP3    H2 3685   6.944   2.524   0.597 -0.4857  1.8657 -1.4945
 1242TIP3   OH2 3686   1.808   4.428   4.598  0.6908 -0.1456 -0.1130
 1242TIP3    H1 3687   1.825   4.400   4.688  1.9852 -1.9428 -0.8357
 1242TIP3    H2 3688   1.798   4.346   4.549  3.8981  0.5302 -2.2657
 1243TIP3   OH2 3689   3.832   0.770   0.644 -0.0063  0.4089 -0.0474
 1243TIP3    H1 3690   3.798   0.699   0.699  1.1154 -0.5169 -0.5073
 1243TIP3    H2 3691   3.873   0.829   0.707  1.5822 -0.8207  0.1400
 1244TIP3   OH2 3692   0.652   3.087   2.025  0.0482 -0.0861 -0.4333
 1244TIP3    H1 3693   0.568   3.133   2.024  0.6429  1.2470  2.3958
 1244TIP3    H2 3694   0.712   3.147   1.981 -0.1721 -0.4447 -1.2464
 1245TIP3   OH2 3695   3.253   7.156   0.175 -0.0458 -0.1619  0.2231
 1245TIP3    H1 3696   3.311   7.094   0.130 -0.7173 -0.0146 -0.8877
 1245TIP3    H2 3697   3.166   7.137   0.140 -0.3450  1.0412  0.2778
 1246TIP3   OH2 3698   4.877   5.086   1.064  0.3932  0.1908  0.3480
 1246TIP3    H1 3699   4.912   5.174   1.077 -1.1284  0.4728  3.3128
 1246TIP3    H2 3700   4.788   5.089   1.099 -0.5274 -2.0032 -1.4856
 1247TIP3   OH2 3701   3.915   5.345   5.385 -0.0264  0.1182  0.2394
 1247TIP3    H1 3702   3.992   5.321   5.333  0.2930  1.7273 -0.0898
 1247TIP3    H2 3703   3.858   5.389   5.322  0.2982  1.9680  1.1827
 1248TIP3   OH2 3704   2.308   5.537   5.011 -0.2699  0.4475 -0.5181
 1248TIP3    H1 3705   2.366   5.463   4.991 -1.6299 -1.8359  3.0689
 1248TIP3    H2 3706   2.363   5.598   5.060  0.1093  0.3565 -0.8246
 1249TIP3   OH2 3707   6.954   5.456   6.226  0.2252  0.3837  0.2101
 1249TIP3    H1 3708   6.873   5.429   6.185  1.0942 -0.6898 -0.8790
 1249TIP3    H2 3709   6.975   5.541   6.185 -0.3425  0.6752  0.5141
 1250TIP3   OH2 3710   4.060   3.055   2.658  0.4545 -0.4276  0.0320
 1250TIP3    H1 3711   4.121   3.106   2.604 -0.3104 -0.7443 -1.1577
 1250TIP3    H2 3712   4.061   2.968   2.620  0.7962 -1.0022  1.2868
 1251TIP3   OH2 3713   7.038   5.167   2.558  0.0562 -0.4517  0.1125
 1251TIP3    H1 3714   7.101   5.177   2.486  1.0915  0.2277  1.0644
 1251TIP3    H2 3715   7.000   5.255   2.569 -1.0422 -0.8464 -0.4215
 1252TIP3   OH2 3716   1.521   5.146   0.161 -0.7800 -0.2207  0.0745
 1252TIP3    H1 3717   1.492   5.235   0.178 -0.0051  0.2970 -1.2211
 1252TIP3    H2 3718   1.441   5.098   0.140 -1.3065 -0.0628  1.6059
 1253TIP3   OH2 3719   7.490   5.382   1.442  0.0594 -0.1847  0.2682
 1253TIP3    H1 3720   7.399   5.371   1.417 -0.7579  2.5238  1.5854
 1253TIP3    H2 3721   7.520   5.458   1.391  0.8727  0.2537  1.3496
 1254TIP3   OH2 3722   1.225   6.902   0.300 -0.0898 -0.1184  0.5653
 1254TIP3    H1 3723   1.270   6.937   0.377  1.3433  0.7389 -0.6199
 1254TIP3    H2 3724   1.284   6.835   0.265 -0.6221 -0.3435  0.0840
 1255TIP3   OH2 3725   4.337   0.887   4.948  0.4131 -0.1161 -0.2541
 1255TIP3    H1 3726   4.314   0.819   4.885  1.5940  0.7238 -1.6584
 1255TIP3    H2 3727   4.373   0.840   5.023 -2.3225 -1.2284  0.4769
 1256TIP3   OH2 3728   6.780   3.234   4.436 -0.6327  0.3545  0.0279
 1256TIP3    H1 3729   6.813   3.254   4.524 -0.8267  2.3797 -0.3122
 1256TIP3    H2 3730   6.856   3.249   4.379 -0.4962 -0.9999 -0.1730
 1257TIP3   OH2 3731   4.304   6.624   4.718 -0.4025  0.2619  0.0781
 1257TIP3    H1 3732   4.325   6.533   4.695  2.8094  0.3476  2.0420
 1257TIP3    H2 3733   4.347   6.676   4.650 -0.4043  0.3504  0.1446
 1258TIP3   OH2 3734   3.851   1.235   2.817 -0.1692  0.1608 -0.0106
 1258TIP3    H1 3735   3.776   1.293   2.835 -0.8817 -0.0882 -1.9079
 1258TIP3    H2 3736   3.813   1.160   2.771  1.2324  0.0338 -1.0423
 1259TIP3   OH2 3737   4.412   2.128   4.432  0.8282 -0.3103 -0.0979
 1259TIP3    H1 3738   4.500   2.092   4.434  0.6587 -0.7290 -0.1619
 1259TIP3    H2 3739   4.361   2.071   4.489  0.5167 -0.2837 -0.3495
 1260TIP3   OH2 3740   5.639   5.809   2.995  0.4671  0.1619 -0.0179
 1260TIP3    H1 3741   5.608   5.723   2.966  1.3411 -0.9084  2.0248
 1260TIP3    H2 3742   5.621   5.811   3.089  1.7320  1.6554  0.2395
 1261TIP3   OH2 3743   6.589   1.389   2.550 -0.2105  0.1463  0.1792
 1261TIP3    H1 3744   6.627   1.452   2.489  1.1777 -1.2613 -0.5023
 1261TIP3    H2 3745   6.663   1.332   2.574 -1.5267 -1.6771  0.1327
 1262TIP3   OH2 3746   1.304   3.305   4.691 -0.1150  0.1072  0.3305
 1262TIP3    H1 3747   1.319   3.213   4.673  0.8178  0.3755 -0.3675
 1262TIP3    H2 3748   1.231   3.329   4.635 -1.0101 -0.4255  1.2425
 1263TIP3   OH2 3749   7.176   5.177   3.222  0.1634 -0.2951  0.6691
 1263TIP3    H1 3750   7.154   5.250   3.164  1.2814  0.4152  1.1053
 1263TIP3    H2 3751   7.206   5.108   3.164  1.8960  0.6393  0.3958
 1264TIP3   OH2 3752   6.728   1.895   1.059  0.4891 -0.6822  0.4552
 1264TIP3    H1 3753   6.799   1.831   1.051  0.1825 -0.9222 -0.4700
 1264TIP3    H2 3754   6.758   1.956   1.126  1.2637 -1.1788  0.5746
 1265TIP3   OH2 3755   0.213   5.918   2.500 -0.1756  0.1194 -0.4438
 1265TIP3    H1 3756   0.170   5.926   2.586  1.5327  1.0498  0.3875
 1265TIP3    H2 3757   0.161   5.854   2.453 -1.6807  0.2246  0.9741
 1266TIP3   OH2 3758   7.580   7.069   1.847 -0.5482  0.4346  0.2873
 1266TIP3    H1 3759   7.495   7.077   1.890 -0.8713 -0.3907 -0.1804
 1266TIP3    H2 3760   7.574   6.988   1.798  1.2613 -0.7641  1.9154
 1267TIP3   OH2 3761   4.572   2.750   2.339 -0.1723  0.2234  0.0442
 1267TIP3    H1 3762   4.523   2.684   2.291 -1.7422  0.5903  1.0845
 1267TIP3    H2 3763   4.599   2.706   2.420 -0.1131  0.4676  0.1601
 1268TIP3   OH2 3764   6.764   1.784   4.314  0.2971 -0.6736 -0.3858
 1268TIP3    H1 3765   6.782   1.789   4.408 -1.4224  1.3263 -0.0888
 1268TIP3    H2 3766   6.703   1.710   4.305  0.3034 -0.7425  0.1096
 1269TIP3   OH2 3767   1.758   5.816   1.113  0.2065  0.2292 -0.9734
 1269TIP3    H1 3768   1.832   5.869   1.086  0.0173  0.7638 -0.4528
 1269TIP3    H2 3769   1.788   5.770   1.191  1.8089 -3.6277 -3.5468
 1270TIP3   OH2 3770   1.901   3.401   1.234  0.0234  0.4997 -0.1557
 1270TIP3    H1 3771   1.984   3.390   1.280 -0.1975  1.6177  0.5526
 1270TIP3    H2 3772   1.860   3.314   1.238  0.2124  0.4429  1.3821
 1271TIP3   OH2 3773   3.191   2.223   2.400 -0.3602  0.1885  0.2845
 1271TIP3    H1 3774   3.222   2.280   2.470  0.8709  1.4372 -1.1979
 1271TIP3    H2 3775   3.180   2.137   2.441  1.8100  0.5113  1.6788
 1272TIP3   OH2 3776   2.926   0.033   3.224 -0.3681 -0.2185 -0.1703
 1272TIP3    H1 3777   2.914   0.127   3.214 -1.2497 -0.4396 -1.5298
 1272TIP3    H2 3778   2.997   0.011   3.164 -1.7420 -0.7244 -1.6903
 1273TIP3   OH2 3779   5.910   1.361   2.180  0.0499 -0.5587 -0.3696
 1273TIP3    H1 3780   5.966   1.296   2.223  0.0735 -0.8550 -0.8331
 1273TIP3    H2 3781   5.845   1.385   2.246 -0.7192 -1.9760 -0.5503
 1274TIP3   OH2 3782   6.739   0.320   5.435  0.7018 -0.2599 -0.3145
 1274TIP3    H1 3783   6.723   0.306   5.528  1.5028 -0.2167 -0.1619
 1274TIP3    H2 3784   6.834   0.320   5.427  0.6497 -1.6195 -1.3409
 1275TIP3   OH2 3785   0.658   4.963   4.963 -0.3882 -0.0508 -0.2150
 1275TIP3    H1 3786   0.581   4.959   4.907  0.0987  0.9649 -1.0083
 1275TIP3    H2 3787   0.628   5.006   5.043 -0.7408 -0.0255 -0.3610
 1276TIP3   OH2 3788   2.761   4.752   1.672  0.1250  0.6053 -0.1773
 1276TIP3    H1 3789   2.799   4.831   1.634  0.4165  0.3331 -0.4596
 1276TIP3    H2 3790   2.824   4.724   1.738  0.7782 -0.2290 -1.1139
 1277TIP3   OH2 3791   7.052   4.203   5.714 -0.1379  0.1646  0.0140
 1277TIP3    H1 3792   7.011   4.256   5.782  0.0821 -1.0774  1.1719
 1277TIP3    H2 3793   7.035   4.112   5.741  3.6168 -0.4636  0.7900
 1278TIP3   OH2 3794   4.172   5.110   3.110  0.3576 -0.4778  0.2515
 1278TIP3    H1 3795   4.204   5.195   3.141 -0.4923 -0.1736  0.3325
 1278TIP3    H2 3796   4.230   5.087   3.038 -0.0551  0.7105 -0.4994
 1279TIP3   OH2 3797   6.038   1.526   5.242  0.5583 -0.2385 -0.0410
 1279TIP3    H1 3798   6.037   1.573   5.159 -0.8447 -0.6894 -0.2950
 1279TIP3    H2 3799   6.024   1.594   5.308 -0.4828 -0.1454 -0.3392
 1280TIP3   OH2 3800   6.316   1.507   3.507  0.7377  0.0403 -0.1324
 1280TIP3    H1 3801   6.280   1.420   3.492  3.0611 -0.9118 -0.7519
 1280TIP3    H2 3802   6.369   1.498   3.586  1.1147  0.8383 -0.2820
 1281TIP3   OH2 3803   7.049   5.625   0.441  0.2641  0.8289 -0.4737
 1281TIP3    H1 3804   7.026   5.576   0.520  0.9127 -0.1031 -0.8409
 1281TIP3    H2 3805   7.068   5.713   0.472 -2.3463  1.3101  0.0278
 1282TIP3   OH2 3806   6.890   5.995   2.547  0.4953  1.0154  0.0862
 1282TIP3    H1 3807   6.930   5.910   2.528 -1.0170  0.1844  0.4731
 1282TIP3    H2 3808   6.930   6.022   2.629  1.6372  1.1145 -0.4858
 1283TIP3   OH2 3809   4.353  -0.025   2.999  0.1502  0.1358  0.1800
 1283TIP3    H1 3810   4.285   0.007   2.939 -0.3014 -0.0382  0.5957
 1283TIP3    H2 3811   4.420   0.043   2.997  0.4617 -0.1835 -1.0536
 1284TIP3   OH2 3812   1.195   2.972   2.751 -0.3146 -0.0407  0.3589
 1284TIP3    H1 3813   1.122   2.981   2.811 -0.2116  1.3439  0.3068
 1284TIP3    H2 3814   1.265   2.935   2.804 -0.3426  0.8036  1.0124
 1285TIP3   OH2 3815   4.236   4.182   1.337 -0.1842 -0.5353  0.2591
 1285TIP3    H1 3816   4.289   4.124   1.283 -1.5299 -1.7303  0.1575
 1285TIP3    H2 3817   4.244   4.147   1.425 -1.0545 -0.9427  0.1875
 1286TIP3   OH2 3818   6.495   0.332   0.557 -0.0945  0.8080 -0.0001
 1286TIP3    H1 3819   6.495   0.404   0.495 -1.4170  1.6596  0.9132
 1286TIP3    H2 3820   6.411   0.341   0.604 -0.3528 -1.3926  0.0655
 1287TIP3   OH2 3821   3.341   5.255   1.474 -0.5718  0.6318  0.3613
 1287TIP3    H1 3822   3.247   5.234   1.467 -0.5666  0.9984 -1.5410
 1287TIP3    H2 3823   3.384   5.170   1.477 -0.9181  0.4411  0.0443
 1288TIP3   OH2 3824   0.139   6.170   2.711  0.9897 -0.3223 -0.2326
 1288TIP3    H1 3825   0.207   6.107   2.738  1.8241  1.2854  1.7235
 1288TIP3    H2 3826   0.058   6.119   2.712  1.6776 -1.4704  0.8931
 1289TIP3   OH2 3827   5.606   0.813   2.930 -0.4323  0.4210  0.1086
 1289TIP3    H1 3828   5.650   0.759   2.864 -1.4763 -0.1080 -0.1748
 1289TIP3    H2 3829   5.603   0.758   3.008 -0.5179  0.4866  0.1521
 1290TIP3   OH2 3830   1.951   6.340   3.419 -0.0531  0.4298 -0.6497
 1290TIP3    H1 3831   1.918   6.407   3.358  1.5172  0.8513 -1.0895
 1290TIP3    H2 3832   2.037   6.373   3.445  0.0227 -0.6075  0.4703
 1291TIP3   OH2 3833   7.356   3.515   1.262  0.1267 -0.3901  0.4344
 1291TIP3    H1 3834   7.321   3.576   1.197 -1.9512 -1.4170  0.5108
 1291TIP3    H2 3835   7.437   3.483   1.224 -0.8930 -0.7613 -1.5565
 1292TIP3   OH2 3836   7.229   3.430   3.108 -0.1839 -0.0826 -0.5131
 1292TIP3    H1 3837   7.304   3.371   3.116  0.5317  0.5817 -2.0258
 1292TIP3    H2 3838   7.267   3.514   3.082 -1.2431  0.8971  0.9077
 1293TIP3   OH2 3839   5.277   5.713   5.394  0.2519  0.2921 -0.0616
 1293TIP3    H1 3840   5.291   5.765   5.314  0.0859  0.6664  0.1487
 1293TIP3    H2 3841   5.193   5.669   5.379  1.2753 -1.4107 -1.0324
 1294TIP3   OH2 3842   6.934   1.098   0.268 -0.1665  0.1168 -0.3246
 1294TIP3    H1 3843   6.972   1.087   0.181 -0.5384  0.9172 -0.6022
 1294TIP3    H2 3844   6.866   1.030   0.273 -1.0212  0.8688 -1.1821
 1295TIP3   OH2 3845   7.530   0.973   0.941  0.4607  0.5423 -0.2707
 1295TIP3    H1 3846   7.506   1.037   1.007  1.1497  0.8305 -0.2872
 1295TIP3    H2 3847   7.455   0.915   0.935  0.2272  0.7569  0.4705
 1296TIP3   OH2 3848   3.651   6.888   2.226  0.0503  0.6433 -0.4068
 1296TIP3    H1 3849   3.694   6.954   2.171  0.6346 -0.0056 -0.7406
 1296TIP3    H2 3850   3.608   6.829   2.163 -0.8929  0.9806 -0.0958
 1297TIP3   OH2 3851   2.811   1.299   2.603 -0.0013 -0.6569 -0.0205
 1297TIP3    H1 3852   2.860   1.231   2.649  0.9908  0.0019 -0.0771
 1297TIP3    H2 3853   2.875   1.340   2.546 -0.4460  0.6746  0.3986
 1298TIP3   OH2 3854   3.579   4.910   4.880 -0.6305 -0.2103 -0.2489
 1298TIP3    H1 3855   3.562   4.882   4.970  0.8827  0.1616  0.1729
 1298TIP3    H2 3856   3.509   4.972   4.860 -1.3778 -0.8235  0.4177
 1299TIP3   OH2 3857   5.546   0.780   1.577  0.3912  0.8770  0.6727
 1299TIP3    H1 3858   5.575   0.814   1.492 -0.2620  1.5699  0.7208
 1299TIP3    H2 3859   5.626   0.777   1.630  0.6547  1.2446  0.3028
 1300TIP3   OH2 3860   7.283   4.922   2.007 -0.4048  0.1065 -0.2588
 1300TIP3    H1 3861   7.332   4.945   2.086  0.4526  0.3512 -0.8473
 1300TIP3    H2 3862   7.339   4.951   1.935 -1.5908  0.7330 -0.9547
 1301TIP3   OH2 3863   0.095   1.923   3.690 -0.2471 -0.2134 -0.7671
 1301TIP3    H1 3864   0.002   1.904   3.697 -0.1641 -0.2329  0.3821
 1301TIP3    H2 3865   0.119   1.894   3.602 -0.5944 -3.3365  0.0800
 1302TIP3   OH2 3866   5.193   6.743   3.084  0.1372 -0.3394 -0.3259
 1302TIP3    H1 3867   5.266   6.801   3.106 -0.2645  0.0355  0.0436
 1302TIP3    H2 3868   5.176   6.695   3.165  0.0680 -0.5330 -0.4539
 1303TIP3   OH2 3869   3.226   4.195   3.799 -0.2787  0.2141  0.2574
 1303TIP3    H1 3870   3.139   4.233   3.792 -0.4022 -0.0410  0.3911
 1303TIP3    H2 3871   3.253   4.214   3.889  1.0612  2.9726 -0.6226
 1304TIP3   OH2 3872   4.446   1.900   4.677  0.2529  0.1470  0.0002
 1304TIP3    H1 3873   4.421   1.948   4.756 -3.5933 -0.2019 -0.7826
 1304TIP3    H2 3874   4.450   1.808   4.706 -1.5198 -0.0273 -0.1751
 1305TIP3   OH2 3875   5.946   4.072   2.284 -0.6201 -0.1656  0.0042
 1305TIP3    H1 3876   5.922   3.991   2.239 -1.3712 -0.4433  0.8913
 1305TIP3    H2 3877   6.014   4.046   2.346 -1.6181 -0.3487  1.0578
 1306TIP3   OH2 3878   3.191   0.228   0.848 -0.1779 -0.2736  0.2361
 1306TIP3    H1 3879   3.185   0.183   0.933 -0.6759 -0.4011  0.1368
 1306TIP3    H2 3880   3.104   0.216   0.808 -0.4643  1.1301  0.3814
 1307TIP3   OH2 3881   0.540   6.823   3.611 -0.2663 -0.8761 -0.2630
 1307TIP3    H1 3882   0.626   6.811   3.570 -0.0502 -1.2180  0.2714
 1307TIP3    H2 3883   0.502   6.898   3.565  0.2472 -0.8230 -0.6205
 1308TIP3   OH2 3884   6.160   5.849   1.876  0.2510 -0.0087  0.1839
 1308TIP3    H1 3885   6.083   5.883   1.923  0.1701  0.8229 -0.5136
 1308TIP3    H2 3886   6.188   5.922   1.821  0.7241 -0.7528 -0.5825
 1309TIP3   OH2 3887   0.506   3.788   6.082  0.2262  0.3621 -0.0936
 1309TIP3    H1 3888   0.411   3.798   6.069  0.2557  0.9431  0.0842
 1309TIP3    H2 3889   0.534   3.872   6.118  1.0009  0.6386 -1.2655
 1310TIP3   OH2 3890   7.107   1.227   0.446  0.1535 -0.7043  0.0663
 1310TIP3    H1 3891   7.081   1.161   0.383  0.3245 -1.3997  0.7052
 1310TIP3    H2 3892   7.024   1.265   0.477 -0.0532 -1.8703  1.0014
 1311TIP3   OH2 3893   2.130   4.459   4.423  0.0587 -0.8005  0.2191
 1311TIP3    H1 3894   2.064   4.524   4.398  1.0024  0.1374  0.0784
 1311TIP3    H2 3895   2.121   4.452   4.518 -0.0541 -0.4520  0.2384
 1312TIP3   OH2 3896   3.427   4.566   5.025  0.0956  0.3966  0.0863
 1312TIP3    H1 3897   3.404   4.560   4.932 -0.1397 -0.2976  0.1871
 1312TIP3    H2 3898   3.492   4.497   5.037 -1.7293 -1.2464  0.9985
 1313TIP3   OH2 3899   1.552   2.785   5.025 -0.2778 -0.6357 -0.1032
 1313TIP3    H1 3900   1.631   2.838   5.038 -0.3522 -0.4007 -0.6029
 1313TIP3    H2 3901   1.523   2.806   4.937  0.3630 -2.4231 -0.7871
 1314TIP3   OH2 3902   6.600   0.683   3.033 -0.5457 -0.6020  0.0105
 1314TIP3    H1 3903   6.512   0.670   2.997 -0.7674 -0.8568  0.6340
 1314TIP3    H2 3904   6.586   0.697   3.127  0.0422 -0.1337  0.0349
 1315TIP3   OH2 3905   1.805   1.176   4.087 -0.5265  0.3194  0.2098
 1315TIP3    H1 3906   1.784   1.265   4.115 -2.5726 -0.0356 -0.0360
 1315TIP3    H2 3907   1.802   1.180   3.991 -1.2387 -0.1241  0.2048
 1316TIP3   OH2 3908   1.327   5.005   0.023 -0.6219  0.2991 -0.3198
 1316TIP3    H1 3909   1.378   4.942  -0.029 -1.0419  0.0497 -0.4289
 1316TIP3    H2 3910   1.243   4.963   0.037 -0.4229  0.2552  0.8090
 1317TIP3   OH2 3911   3.997   1.081   1.235  0.3260 -0.5162 -0.1628
 1317TIP3    H1 3912   3.951   1.007   1.195 -1.3167 -0.8697  2.1949
 1317TIP3    H2 3913   3.949   1.158   1.203 -0.2858 -0.7227  0.2355
 1318TIP3   OH2 3914   2.233   2.761   4.727 -0.3245 -0.0317 -0.1175
 1318TIP3    H1 3915   2.313   2.743   4.677  0.3655  1.1215  0.5380
 1318TIP3    H2 3916   2.247   2.720   4.812 -0.7789 -0.5151 -0.2693
 1319TIP3   OH2 3917   6.774   6.504   5.673 -0.3336  0.3214  0.4514
 1319TIP3    H1 3918   6.868   6.522   5.674 -0.0329 -1.0001 -1.1189
 1319TIP3    H2 3919   6.767   6.412   5.695 -1.3347  0.5532  1.1863
 1320TIP3   OH2 3920   4.098   0.342   1.084  0.0579 -0.2147  0.1553
 1320TIP3    H1 3921   4.179   0.373   1.045  0.3586 -1.2188 -0.0300
 1320TIP3    H2 3922   4.064   0.418   1.132  1.6356 -0.0711  1.1057
 1321TIP3   OH2 3923   6.217   0.058   5.929 -0.2644  0.4339 -0.1428
 1321TIP3    H1 3924   6.177   0.145   5.926 -1.6278 -0.0868  1.4887
 1321TIP3    H2 3925   6.245   0.046   6.019 -0.6746 -1.0494 -0.1751
 1322TIP3   OH2 3926   3.059   4.714   4.192  0.5372 -0.0044  0.0745
 1322TIP3    H1 3927   2.968   4.705   4.220  0.1446  1.7476 -0.5063
 1322TIP3    H2 3928   3.107   4.734   4.273  0.1508  0.5650  0.1702
 1323TIP3   OH2 3929   7.074   6.965   3.244  0.1265  0.0257  0.3021
 1323TIP3    H1 3930   7.002   6.978   3.183  0.5159  0.2466 -0.1188
 1323TIP3    H2 3931   7.122   7.049   3.243  0.2720 -0.0486  0.7291
 1324TIP3   OH2 3932   5.349   2.448   6.065 -0.4638  0.0500  0.1521
 1324TIP3    H1 3933   5.261   2.418   6.086  0.0374 -0.2010  2.1666
 1324TIP3    H2 3934   5.346   2.471   5.972 -2.8447  0.8087  0.3517
 1325TIP3   OH2 3935   5.174   3.324   3.130 -0.2691 -0.2318 -0.2567
 1325TIP3    H1 3936   5.135   3.237   3.129 -0.2586 -0.2353 -0.4729
 1325TIP3    H2 3937   5.101   3.383   3.110 -0.1804 -0.2312 -0.5811
 1326TIP3   OH2 3938   7.135   5.723   5.430  0.2122 -0.2956 -0.0214
 1326TIP3    H1 3939   7.188   5.701   5.506 -1.8659 -1.6129  1.1413
 1326TIP3    H2 3940   7.137   5.643   5.376 -0.2951 -0.2254 -0.1473
 1327TIP3   OH2 3941   7.341   6.632   3.182  0.1019  0.4023  0.4288
 1327TIP3    H1 3942   7.330   6.547   3.226 -0.2767  0.7615  1.0343
 1327TIP3    H2 3943   7.321   6.697   3.249 -0.1906  0.9662 -0.1932
 1328TIP3   OH2 3944   3.604   6.949   5.254  0.2488  0.1595 -0.4044
 1328TIP3    H1 3945   3.551   6.870   5.246 -0.1281  0.5399 -1.9202
 1328TIP3    H2 3946   3.622   6.956   5.348 -1.4865 -0.5721  0.0234
 1329TIP3   OH2 3947   6.861   4.390   0.554  0.9340  0.0998  0.2303
 1329TIP3    H1 3948   6.902   4.306   0.536 -1.2124 -1.0220  0.1841
 1329TIP3    H2 3949   6.860   4.396   0.650 -0.5265 -0.8446  0.3043
 1330TIP3   OH2 3950   2.104   1.213   2.053  0.0516  0.0948 -0.3709
 1330TIP3    H1 3951   2.069   1.197   1.965  2.1672  1.1812 -1.4779
 1330TIP3    H2 3952   2.105   1.127   2.095 -3.4186 -0.0911 -0.3826
 1331TIP3   OH2 3953   5.504   2.777   4.971  0.3779 -0.7962  0.1703
 1331TIP3    H1 3954   5.564   2.843   4.936  1.7924 -1.3378  1.4429
 1331TIP3    H2 3955   5.473   2.814   5.054 -0.3274 -0.9154 -0.0391
 1332TIP3   OH2 3956   0.482   6.978   4.354 -0.1607 -0.4298  0.2421
 1332TIP3    H1 3957   0.399   6.933   4.368 -0.2597 -1.0615 -2.0276
 1332TIP3    H2 3958   0.487   6.991   4.259  1.0946  2.0269  0.5736
 1333TIP3   OH2 3959   4.698   3.164   4.592 -0.0971 -0.1083  0.9382
 1333TIP3    H1 3960   4.660   3.082   4.625  2.5394 -1.2661  1.4186
 1333TIP3    H2 3961   4.722   3.145   4.502  1.1947 -0.1779  1.2681
 1334TIP3   OH2 3962   7.597   4.581   2.076 -0.3355  0.2780 -0.3909
 1334TIP3    H1 3963   7.586   4.609   1.985  0.8432 -0.8753 -0.9371
 1334TIP3    H2 3964   7.541   4.640   2.127  0.6446  2.4044 -1.6178
 1335TIP3   OH2 3965   6.202   6.524   2.896 -0.3113 -0.5609  0.5316
 1335TIP3    H1 3966   6.159   6.585   2.956 -0.2854 -0.0876  0.0767
 1335TIP3    H2 3967   6.295   6.532   2.916 -0.2963 -0.3464  0.3753
 1336TIP3   OH2 3968   6.561   6.955   1.013 -0.0333 -0.0453  0.8629
 1336TIP3    H1 3969   6.636   7.005   1.045 -0.3352  1.5891 -0.8053
 1336TIP3    H2 3970   6.484   7.006   1.041 -0.3633  0.2316 -0.4826
 1337TIP3   OH2 3971   2.489   2.409   4.658  0.0548  0.0650  0.1134
 1337TIP3    H1 3972   2.474   2.331   4.712  1.0824 -0.9234 -0.9745
 1337TIP3    H2 3973   2.558   2.456   4.705 -0.6766  0.4240  0.8579
 1338TIP3   OH2 3974   3.355   0.467   4.765  0.3026  0.4295 -0.1420
 1338TIP3    H1 3975   3.315   0.526   4.700  1.2831 -0.7908 -1.9541
 1338TIP3    H2 3976   3.413   0.524   4.815 -1.1827  1.5910  0.3677
 1339TIP3   OH2 3977   4.091   1.132   4.026  0.4227 -0.0539 -0.2231
 1339TIP3    H1 3978   4.160   1.179   4.073 -0.0551 -0.7352  1.2409
 1339TIP3    H2 3979   4.121   1.041   4.026  0.3077 -0.0967 -1.0854
 1340TIP3   OH2 3980   5.190   6.041   2.719  0.3884 -0.1913 -0.0023
 1340TIP3    H1 3981   5.226   6.075   2.801  2.2732  1.0156 -1.2459
 1340TIP3    H2 3982   5.140   5.964   2.745 -0.2749  0.9587  2.4182
 1341TIP3   OH2 3983   1.067   0.236   2.472 -0.1922 -0.2350 -0.5011
 1341TIP3    H1 3984   1.156   0.266   2.453  0.0347 -0.5604  0.0314
 1341TIP3    H2 3985   1.073   0.140   2.469 -0.5230 -0.2572 -0.4634
 1342TIP3   OH2 3986   5.343   1.363   3.431 -0.2045  0.2958 -0.5354
 1342TIP3    H1 3987   5.376   1.447   3.462  1.7413 -0.4485 -0.4531
 1342TIP3    H2 3988   5.395   1.343   3.353 -1.0452 -0.5618 -0.9056
 1343TIP3   OH2 3989   7.479   1.178   4.298 -0.7318  0.5262 -0.4199
 1343TIP3    H1 3990   7.541   1.251   4.290  0.8781 -0.6577  0.7187
 1343TIP3    H2 3991   7.440   1.190   4.385 -0.5014  0.0584 -0.2536
 1344TIP3   OH2 3992   5.168   2.807   3.607 -0.1721 -0.3247 -0.5124
 1344TIP3    H1 3993   5.155   2.901   3.618 -0.1149 -0.1914 -1.5113
 1344TIP3    H2 3994   5.144   2.790   3.516  2.3656 -0.7944 -1.1788
 1345TIP3   OH2 3995   4.770   0.072   5.434 -0.1542  0.0260  0.5308
 1345TIP3    H1 3996   4.849   0.094   5.386  0.5094 -0.8814  1.1850
 1345TIP3    H2 3997   4.796   0.002   5.494 -1.3235  0.0628  1.1195
 1346TIP3   OH2 3998   1.981   5.885   0.206 -0.3299  0.4226 -0.5419
 1346TIP3    H1 3999   2.055   5.944   0.190  0.0920 -0.3596 -1.6102
 1346TIP3    H2 4000   1.954   5.904   0.296 -0.2489  2.2673 -0.8618
 1347TIP3   OH2 4001   3.762   4.623   2.594 -0.2762  0.0624  0.0481
 1347TIP3    H1 4002   3.789   4.621   2.502  0.1455  0.1175  0.1701
 1347TIP3    H2 4003   3.785   4.711   2.624 -0.9728  0.2571  0.0421
 1348TIP3   OH2 4004   4.556   3.816   1.476  0.2706  0.2153 -0.3785
 1348TIP3    H1 4005   4.601   3.741   1.436 -0.2138 -0.2962  0.0313
 1348TIP3    H2 4006   4.574   3.889   1.416 -1.2199 -0.7288 -2.0753
 1349TIP3   OH2 4007   4.181   3.815   0.908 -0.1125  0.3818  0.7561
 1349TIP3    H1 4008   4.202   3.732   0.952 -0.2750  0.0161  0.1407
 1349TIP3    H2 4009   4.086   3.813   0.897  0.1117 -0.5771 -1.6462
 1350TIP3   OH2 4010   1.419   6.374   2.509  0.0768 -0.1052 -0.1220
 1350TIP3    H1 4011   1.367   6.400   2.585  0.6226  0.0594  0.2048
 1350TIP3    H2 4012   1.358   6.327   2.452 -0.4676  0.2621  0.1581
 1351TIP3   OH2 4013   1.909   5.491   1.536  0.0153 -0.0308 -0.8292
 1351TIP3    H1 4014   1.859   5.410   1.524  1.0039 -1.5135  3.4547
 1351TIP3    H2 4015   1.998   5.469   1.508  0.5208 -0.9141  1.2515
 1352TIP3   OH2 4016   6.095   1.446   3.766 -0.6164  0.0344 -0.4177
 1352TIP3    H1 4017   6.183   1.409   3.774  0.1136  1.9746  1.1906
 1352TIP3    H2 4018   6.078   1.443   3.672 -0.0909 -3.0362 -0.5207
 1353TIP3   OH2 4019   6.925   4.049   1.426  0.2241  0.3608 -0.4561
 1353TIP3    H1 4020   6.967   4.082   1.506  0.6349 -1.1100 -0.0307
 1353TIP3    H2 4021   6.867   3.979   1.456 -0.4154  0.4905 -1.3474
 1354TIP3   OH2 4022   1.640   5.536   5.171  0.5969  0.5156 -0.2193
 1354TIP3    H1 4023   1.552   5.558   5.140  0.3897  0.0283  0.0178
 1354TIP3    H2 4024   1.642   5.441   5.174  1.1783  0.5202 -0.3416
 1355TIP3   OH2 4025   4.513   3.992   0.407 -0.0201 -0.3157 -0.2571
 1355TIP3    H1 4026   4.555   4.009   0.323  1.4786 -0.5354  0.4143
 1355TIP3    H2 4027   4.585   3.967   0.466 -0.8806  0.7980  1.3582
 1356TIP3   OH2 4028   3.382   1.549   5.344  0.4929 -0.1106  0.0983
 1356TIP3    H1 4029   3.451   1.493   5.309  2.3362  1.3353  1.2653
 1356TIP3    H2 4030   3.402   1.557   5.437 -0.4692  1.4461  0.2041
 1357TIP3   OH2 4031   4.785   6.034   5.324 -0.2310 -0.0308 -0.3135
 1357TIP3    H1 4032   4.794   6.035   5.229  0.8522  1.0341 -0.2208
 1357TIP3    H2 4033   4.692   6.052   5.340 -1.0504 -2.9656 -1.1866
 1358TIP3   OH2 4034   5.718   4.928   1.884 -0.7562 -0.2674 -0.5905
 1358TIP3    H1 4035   5.627   4.899   1.885 -0.8719  0.0684 -1.1319
 1358TIP3    H2 4036   5.736   4.954   1.975 -1.3787  0.2230 -0.6074
 1359TIP3   OH2 4037   1.495   3.580   3.409  0.4246 -0.1810 -0.1572
 1359TIP3    H1 4038   1.579   3.535   3.398 -0.5730 -2.0305 -0.6016
 1359TIP3    H2 4039   1.462   3.590   3.319 -0.6815 -1.2422  0.1005
 1360TIP3   OH2 4040   4.573   2.529   0.047 -0.4141 -0.3075  0.1826
 1360TIP3    H1 4041   4.622   2.593  -0.003 -2.8825  0.9783 -0.7623
 1360TIP3    H2 4042   4.583   2.557   0.138  1.0714 -0.4804  0.1005
 1361TIP3   OH2 4043   1.600   6.502   5.471  0.1794 -0.4728 -0.1352
 1361TIP3    H1 4044   1.649   6.537   5.397  1.1911 -1.6104 -0.0417
 1361TIP3    H2 4045   1.619   6.408   5.470  0.6007 -0.4596  1.8422
 1362TIP3   OH2 4046   1.478   3.366   3.834 -0.3957  0.1272  0.3484
 1362TIP3    H1 4047   1.411   3.429   3.808  0.6840  0.8110 -0.9212
 1362TIP3    H2 4048   1.458   3.288   3.783  0.8962  1.0085 -1.6793
 1363TIP3   OH2 4049   6.685   1.204   2.847 -0.0587  0.7318  0.0689
 1363TIP3    H1 4050   6.635   1.276   2.884 -1.0852 -0.3501  0.8574
 1363TIP3    H2 4051   6.623   1.132   2.841  1.2512 -0.5011  0.5937
 1364TIP3   OH2 4052   1.904   5.691   1.725  0.3358  0.4851 -0.8276
 1364TIP3    H1 4053   1.890   5.654   1.812 -0.2268  2.4379 -0.0185
 1364TIP3    H2 4054   1.910   5.616   1.667 -1.4755 -0.8456  0.5836
 1365TIP3   OH2 4055   0.352   4.758   2.281  0.3518  0.4294  0.5516
 1365TIP3    H1 4056   0.296   4.703   2.225  0.2204  0.2525  0.8558
 1365TIP3    H2 4057   0.426   4.781   2.225  1.2480 -1.4292  0.9279
 1366TIP3   OH2 4058   5.851   0.715   0.303  0.5091  0.3944 -0.3758
 1366TIP3    H1 4059   5.833   0.622   0.317  1.1455  0.1953 -0.7982
 1366TIP3    H2 4060   5.828   0.757   0.386  0.2271 -0.1414 -0.1787
 1367TIP3   OH2 4061   5.134   0.860   0.837  1.2161 -0.1630 -0.4438
 1367TIP3    H1 4062   5.152   0.945   0.796  1.8373  0.3089  0.7859
 1367TIP3    H2 4063   5.047   0.871   0.876  1.7321  0.2789  0.6187
 1368TIP3   OH2 4064   1.129   2.667   0.874 -0.3933  0.2443  0.3187
 1368TIP3    H1 4065   1.223   2.677   0.889 -0.4430  0.4083  0.5291
 1368TIP3    H2 4066   1.123   2.605   0.801 -0.1566 -0.9256  1.2626
 1369TIP3   OH2 4067   4.044   6.218   2.397  0.5286  0.3457  0.2050
 1369TIP3    H1 4068   4.021   6.274   2.322  1.3720  1.2646  0.6091
 1369TIP3    H2 4069   4.034   6.129   2.364 -0.9912  0.7167 -0.4119
 1370TIP3   OH2 4070   0.102   2.440   2.515  0.2921 -0.4561  0.0454
 1370TIP3    H1 4071   0.151   2.521   2.500 -0.7904  0.8527  2.8971
 1370TIP3    H2 4072   0.013   2.460   2.488  0.3479 -1.3663 -0.9161
 1371TIP3   OH2 4073   4.774   1.475   1.250 -0.5364 -0.7560 -0.1218
 1371TIP3    H1 4074   4.769   1.493   1.156 -1.1478  1.0748  0.2290
 1371TIP3    H2 4075   4.719   1.542   1.290  4.3721  2.4842  2.0484
 1372TIP3   OH2 4076   0.716   5.770   6.024 -0.0848 -0.2613  0.1910
 1372TIP3    H1 4077   0.776   5.823   5.971 -3.0025  1.3469 -1.7295
 1372TIP3    H2 4078   0.685   5.830   6.092 -1.5663 -0.1869 -0.5243
 1373TIP3   OH2 4079   7.545   2.444   0.114 -0.0772 -0.4683 -0.0014
 1373TIP3    H1 4080   7.536   2.453   0.019  0.0697 -0.2803  0.0032
 1373TIP3    H2 4081   7.631   2.404   0.127 -0.9520 -2.5276 -0.0569
 1374TIP3   OH2 4082   7.125   2.446   2.231  0.0427 -0.6780  0.1207
 1374TIP3    H1 4083   7.153   2.537   2.240  0.1958 -0.5224 -1.6223
 1374TIP3    H2 4084   7.147   2.422   2.141 -4.3470 -0.8673 -1.1593
 1375TIP3   OH2 4085   0.807   5.551   5.031  0.0935  0.2085  0.0337
 1375TIP3    H1 4086   0.792   5.569   5.124  1.3557  2.0394 -0.0535
 1375TIP3    H2 4087   0.901   5.536   5.025 -0.0335 -0.2121 -0.9044
 1376TIP3   OH2 4088   0.521   4.716   0.123  0.1646  0.3360  0.3493
 1376TIP3    H1 4089   0.428   4.710   0.102  0.0914 -0.5196  0.9011
 1376TIP3    H2 4090   0.546   4.803   0.092 -0.6865  0.3642 -0.3056
 1377TIP3   OH2 4091   7.550   2.367   4.374  0.4298 -0.1481 -0.3300
 1377TIP3    H1 4092   7.645   2.374   4.386  0.1813  1.8424  1.0217
 1377TIP3    H2 4093   7.517   2.344   4.461 -0.4473  1.3301 -0.2265
 1378TIP3   OH2 4094   2.172   3.022   4.639 -0.0244  0.5218  0.6436
 1378TIP3    H1 4095   2.206   2.947   4.687  1.5464  0.2271 -0.8400
 1378TIP3    H2 4096   2.243   3.086   4.641 -0.6498  1.2398  0.3303
 1379TIP3   OH2 4097   0.443   6.667   1.089 -0.1638 -0.4239 -0.5374
 1379TIP3    H1 4098   0.463   6.626   1.173 -1.4427 -0.4488 -0.2282
 1379TIP3    H2 4099   0.521   6.719   1.069  0.0285 -0.1401  0.8444
 1380TIP3   OH2 4100   5.603   0.836   3.231  0.1949  0.1230 -0.9854
 1380TIP3    H1 4101   5.519   0.800   3.261  0.9366 -2.1264 -1.4154
 1380TIP3    H2 4102   5.650   0.859   3.311 -0.0310 -0.5594 -0.6550
 1381TIP3   OH2 4103   6.056   5.653   6.185 -0.6175 -0.3651 -0.0938
 1381TIP3    H1 4104   5.998   5.727   6.173 -1.0323 -0.5587  0.6046
 1381TIP3    H2 4105   5.999   5.576   6.180 -0.8156 -0.4927  2.4371
 1382TIP3   OH2 4106   0.334   1.735   2.487  0.0135 -0.0838  0.3776
 1382TIP3    H1 4107   0.379   1.759   2.406 -1.0740 -0.6691 -0.4262
 1382TIP3    H2 4108   0.268   1.804   2.498 -0.2599 -0.3535  0.4185
 1383TIP3   OH2 4109   2.251   0.312   3.153  0.1711  0.3952 -0.0222
 1383TIP3    H1 4110   2.248   0.401   3.186  0.0560 -0.0340  1.1704
 1383TIP3    H2 4111   2.175   0.268   3.194  0.1316 -0.2077 -0.7105
 1384TIP3   OH2 4112   6.182   5.011   4.786 -0.0581  0.3917  0.2280
 1384TIP3    H1 4113   6.116   5.016   4.855 -1.1675 -1.0560 -0.6841
 1384TIP3    H2 4114   6.229   4.929   4.803 -0.8767 -0.3985 -1.1602
 1385TIP3   OH2 4115   1.581   4.911   4.194  0.3205 -0.1959  0.3750
 1385TIP3    H1 4116   1.536   4.841   4.147  2.0653 -1.2399  0.1653
 1385TIP3    H2 4117   1.525   4.988   4.182 -1.8244 -1.5856  0.8994
 1386TIP3   OH2 4118   6.179   4.012   5.311 -0.1410  0.2787 -0.0395
 1386TIP3    H1 4119   6.246   3.952   5.279  0.7398  0.8372  0.7366
 1386TIP3    H2 4120   6.193   4.017   5.405 -0.5927  1.2327 -0.0086
 1387TIP3   OH2 4121   4.026   7.194   1.020 -0.1071  0.1649 -0.2968
 1387TIP3    H1 4122   3.991   7.118   1.066  4.1579 -0.9555  1.6418
 1387TIP3    H2 4123   4.008   7.177   0.928 -1.5470 -1.8544  0.2858
 1388TIP3   OH2 4124   7.328   0.476   4.317 -0.3694  0.1130  0.1782
 1388TIP3    H1 4125   7.387   0.478   4.392 -1.0851  1.6372  0.7449
 1388TIP3    H2 4126   7.381   0.508   4.244 -0.0041 -0.2006  0.3060
 1389TIP3   OH2 4127   1.285   5.464   5.037  0.7622 -0.1601  0.2205
 1389TIP3    H1 4128   1.346   5.534   5.012  1.6715 -1.2141 -0.5977
 1389TIP3    H2 4129   1.305   5.447   5.129  1.9316 -0.7044 -0.1215
 1390TIP3   OH2 4130   3.207   2.392   4.933  0.4702 -0.0242 -0.4563
 1390TIP3    H1 4131   3.238   2.399   4.843  0.1909 -1.9723 -0.7559
 1390TIP3    H2 4132   3.202   2.298   4.949  0.1770  0.2835  1.4872
 1391TIP3   OH2 4133   3.214   3.226   5.316  0.0359 -0.5413 -0.0659
 1391TIP3    H1 4134   3.306   3.252   5.309  0.2361 -1.0571  0.5651
 1391TIP3    H2 4135   3.201   3.208   5.409 -0.3646 -1.6900 -0.3290
 1392TIP3   OH2 4136   0.488   2.635   2.078 -0.3440  0.2573  0.1236
 1392TIP3    H1 4137   0.448   2.598   2.157 -1.1469  0.4753 -0.1684
 1392TIP3    H2 4138   0.567   2.583   2.065 -0.0276  0.4241  1.2513
 1393TIP3   OH2 4139   1.617   5.672   2.130 -0.6110 -0.8119  0.6895
 1393TIP3    H1 4140   1.565   5.733   2.182  0.2040  0.2946  0.2367
 1393TIP3    H2 4141   1.607   5.588   2.175 -1.7381 -0.3602  1.3348
 1394TIP3   OH2 4142   1.381   1.433   3.802 -1.2458 -0.2665 -0.0862
 1394TIP3    H1 4143   1.377   1.356   3.746 -1.7928  0.0370 -0.4772
 1394TIP3    H2 4144   1.301   1.428   3.855 -0.9001 -0.3716  0.4270
 1395TIP3   OH2 4145   4.797   2.900   1.439  0.1412  1.1459  0.0996
 1395TIP3    H1 4146   4.859   2.827   1.447 -1.4859 -0.1195  3.6195
 1395TIP3    H2 4147   4.731   2.869   1.377 -1.1965 -1.1495  2.4406
 1396TIP3   OH2 4148   3.643   3.283   3.967 -0.1419 -0.5013  0.0241
 1396TIP3    H1 4149   3.698   3.356   3.998  0.1228  0.1199 -1.7984
 1396TIP3    H2 4150   3.557   3.321   3.955  0.1398 -0.2907 -1.5302
 1397TIP3   OH2 4151   0.860   2.120   1.192  0.0798 -0.2735  0.6554
 1397TIP3    H1 4152   0.789   2.059   1.212  0.4558 -1.2657 -0.7935
 1397TIP3    H2 4153   0.850   2.191   1.255 -2.6875  0.0380 -0.0074
 1398TIP3   OH2 4154   3.513   5.836   5.095 -0.0674 -0.2823  0.0909
 1398TIP3    H1 4155   3.489   5.743   5.091 -2.9575  0.4016 -1.7337
 1398TIP3    H2 4156   3.435   5.879   5.129  0.5173  1.6615 -0.9039
 1399TIP3   OH2 4157   4.422   2.994   5.528  0.2549  0.4610 -0.5104
 1399TIP3    H1 4158   4.492   3.000   5.592  0.9470 -1.2055 -1.0334
 1399TIP3    H2 4159   4.398   2.901   5.528 -0.8596  0.7239 -1.4839
 1400TIP3   OH2 4160   2.810   1.652   4.202 -0.2026  0.1572 -0.0520
 1400TIP3    H1 4161   2.781   1.675   4.291 -1.3368  0.8400 -0.5886
 1400TIP3    H2 4162   2.747   1.586   4.173  0.3408 -0.2790 -0.2593
 1401TIP3   OH2 4163   1.975   5.188   5.809 -0.1421 -0.2127  0.3717
 1401TIP3    H1 4164   1.989   5.282   5.824  3.5111 -0.7707  1.3450
 1401TIP3    H2 4165   1.981   5.178   5.714 -0.0444  0.4843  0.2977
 1402TIP3   OH2 4166   2.406   5.899   0.135 -0.4531 -0.5954 -0.0349
 1402TIP3    H1 4167   2.460   5.969   0.099  1.2892 -0.7132  2.1109
 1402TIP3    H2 4168   2.347   5.943   0.197 -0.8099 -0.8129 -0.2128
 1403TIP3   OH2 4169   1.186   2.661   5.391  0.2611  0.5871  1.1801
 1403TIP3    H1 4170   1.193   2.752   5.363  1.3701 -0.5703 -2.9908
 1403TIP3    H2 4171   1.271   2.623   5.369 -0.8642 -1.8976  0.8197
 1404TIP3   OH2 4172   5.845   3.686   4.402  0.3342  0.0069 -0.5920
 1404TIP3    H1 4173   5.808   3.698   4.315  0.2357 -3.0460 -1.0880
 1404TIP3    H2 4174   5.783   3.629   4.448  1.9328 -1.1163  0.2987
 1405TIP3   OH2 4175   1.088   6.145   3.382  0.3517  0.1327  0.2837
 1405TIP3    H1 4176   1.054   6.193   3.457 -1.6943  0.2205 -0.6482
 1405TIP3    H2 4177   1.138   6.072   3.421 -0.2661  0.4326  1.7049
 1406TIP3   OH2 4178   0.069   3.809   0.420 -0.2597  0.0640  0.6694
 1406TIP3    H1 4179   0.027   3.802   0.505 -0.7640  0.8639  0.4920
 1406TIP3    H2 4180   0.157   3.841   0.439  0.0155 -0.8430  0.9728
 1407TIP3   OH2 4181   4.695   0.857   1.232 -0.6291  0.5711 -0.3883
 1407TIP3    H1 4182   4.739   0.776   1.206 -0.5216 -0.0269  1.5224
 1407TIP3    H2 4183   4.603   0.843   1.211 -0.4991  0.2626 -0.7578
 1408TIP3   OH2 4184   1.432   3.465   0.822 -0.7538 -0.1922  0.4978
 1408TIP3    H1 4185   1.483   3.461   0.903 -1.5527 -0.0253  1.0349
 1408TIP3    H2 4186   1.476   3.406   0.762  1.2237  1.4556  0.2452
 1409TIP3   OH2 4187   1.450   6.091   1.075 -0.0611 -0.5977 -0.0964
 1409TIP3    H1 4188   1.429   6.166   1.132 -0.7057  0.3452 -1.5177
 1409TIP3    H2 4189   1.388   6.099   1.002  0.0800 -2.3502 -0.4410
 1410TIP3   OH2 4190   5.495   6.672   3.344  0.3052 -0.3062  0.0812
 1410TIP3    H1 4191   5.452   6.693   3.427  0.1840  0.5716 -0.1965
 1410TIP3    H2 4192   5.516   6.757   3.306  0.2613 -0.7001 -0.8441
 1411TIP3   OH2 4193   7.455   3.568   4.314 -0.0779  0.2911  0.1177
 1411TIP3    H1 4194   7.497   3.522   4.241  0.1314  2.2746 -1.0790
 1411TIP3    H2 4195   7.511   3.549   4.390 -0.5452 -2.1616 -0.0740
 1412TIP3   OH2 4196   6.648   3.452   4.052  0.0934  0.5422 -0.5174
 1412TIP3    H1 4197   6.614   3.541   4.046 -1.2726 -0.0669 -3.5478
 1412TIP3    H2 4198   6.738   3.458   4.019  0.5355  0.9837  0.7047
 1413TIP3   OH2 4199   3.673   5.754   2.483  0.1853 -0.2578  0.2204
 1413TIP3    H1 4200   3.735   5.682   2.495  0.2539 -0.2735 -0.1960
 1413TIP3    H2 4201   3.588   5.715   2.500  0.2555 -0.3473  0.3641
 1414TIP3   OH2 4202   5.881   4.840   5.402  0.3527 -0.8985 -0.2452
 1414TIP3    H1 4203   5.961   4.795   5.429 -0.0112 -2.1177 -1.0944
 1414TIP3    H2 4204   5.894   4.860   5.310 -0.7767 -2.2092 -0.7212
 1415TIP3   OH2 4205   7.015   6.872   1.498 -0.4343 -0.0671 -0.5872
 1415TIP3    H1 4206   6.939   6.864   1.556 -0.6955  2.9446 -0.3759
 1415TIP3    H2 4207   7.090   6.854   1.555 -0.8101  0.8164  0.2172
 1416TIP3   OH2 4208   5.199   3.430   3.794  0.5737 -0.3695 -0.5358
 1416TIP3    H1 4209   5.260   3.504   3.793 -0.8279  0.8380 -0.3676
 1416TIP3    H2 4210   5.234   3.371   3.861  0.6954  1.0534  0.7176
 1417TIP3   OH2 4211   7.442   6.041   1.282 -0.0631 -0.5361  0.4380
 1417TIP3    H1 4212   7.459   6.130   1.315  1.0145 -0.7121  0.4158
 1417TIP3    H2 4213   7.417   6.054   1.191 -0.5230 -0.2131  0.6081
 1418TIP3   OH2 4214   1.277   3.556   2.919  1.1207  0.1405 -0.0812
 1418TIP3    H1 4215   1.227   3.633   2.890  1.8223  0.8299  0.5079
 1418TIP3    H2 4216   1.264   3.492   2.849  1.6942  1.3049 -1.3082
 1419TIP3   OH2 4217   5.945   2.427   1.637 -0.6969 -0.1292 -0.2075
 1419TIP3    H1 4218   6.007   2.374   1.588  0.1540  1.2912 -0.7297
 1419TIP3    H2 4219   5.897   2.364   1.691  0.4124 -1.3889 -0.6332
 1420TIP3   OH2 4220   7.561   5.146   2.912 -0.3966 -0.0661  0.4528
 1420TIP3    H1 4221   7.470   5.126   2.937 -0.8501  0.5452 -0.6578
 1420TIP3    H2 4222   7.590   5.069   2.863  0.9518 -1.8819  3.7752
 1421TIP3   OH2 4223   4.780   4.144   3.412 -0.5666 -0.0823  0.1625
 1421TIP3    H1 4224   4.727   4.181   3.483  0.4712  1.3787  0.2361
 1421TIP3    H2 4225   4.782   4.213   3.345  1.7426  0.2182  0.4549
 1422TIP3   OH2 4226   2.096   3.065   5.505  0.0607 -0.1843 -0.1190
 1422TIP3    H1 4227   2.076   3.136   5.566  0.7002  0.4027 -0.5772
 1422TIP3    H2 4228   2.092   2.985   5.559  0.5603  0.3159  0.6792
 1423TIP3   OH2 4229   3.251   2.547   2.225 -0.3714  0.4769 -0.0919
 1423TIP3    H1 4230   3.213   2.568   2.310 -0.6168  0.6378 -0.2435
 1423TIP3    H2 4231   3.195   2.591   2.161  1.2122  2.4391 -0.2226
 1424TIP3   OH2 4232   4.243   5.209   1.216 -0.6373  0.2564  0.0358
 1424TIP3    H1 4233   4.233   5.212   1.311  0.8038  0.0473  0.2139
 1424TIP3    H2 4234   4.295   5.286   1.195 -1.5847  0.7249 -0.7007
 1425TIP3   OH2 4235   3.878   2.700   4.705  0.1553 -0.1955  0.0344
 1425TIP3    H1 4236   3.952   2.725   4.649 -1.0063 -1.2563 -2.0984
 1425TIP3    H2 4237   3.803   2.742   4.664 -0.7750 -1.1818  0.6871
 1426TIP3   OH2 4238   7.149   4.720   6.066 -0.3715  0.1549  0.1318
 1426TIP3    H1 4239   7.161   4.675   6.149  0.1372  0.5853  0.2970
 1426TIP3    H2 4240   7.158   4.813   6.087  0.3385  0.2386 -0.4926
 1427TIP3   OH2 4241   6.628   4.999   2.761  0.4015 -0.4502 -0.1887
 1427TIP3    H1 4242   6.597   5.087   2.737  0.7710 -0.6340 -1.4218
 1427TIP3    H2 4243   6.635   5.001   2.857  0.0206  0.7322 -0.1692
 1428TIP3   OH2 4244   7.484   2.141   0.784  0.3324  0.1980  0.4909
 1428TIP3    H1 4245   7.525   2.190   0.856  0.0925 -1.1959  1.6228
 1428TIP3    H2 4246   7.557   2.118   0.727  1.0048 -1.0908  1.7808
 1429TIP3   OH2 4247   2.208   7.045   4.809 -0.0953  0.0564  0.2332
 1429TIP3    H1 4248   2.272   7.106   4.846 -1.4364  2.4739 -1.1570
 1429TIP3    H2 4249   2.146   7.030   4.880  0.0379  0.6519  0.4828
 1430TIP3   OH2 4250   1.706   3.353   4.858 -0.5095 -0.3136  0.0602
 1430TIP3    H1 4251   1.753   3.286   4.809  0.4613 -0.7885  1.5901
 1430TIP3    H2 4252   1.722   3.434   4.809  0.9727 -0.6598 -0.0680
 1431TIP3   OH2 4253   3.626   1.947   5.784 -0.5910  0.4601  0.1365
 1431TIP3    H1 4254   3.717   1.979   5.787 -0.6159  0.4916  1.3747
 1431TIP3    H2 4255   3.585   1.998   5.714 -0.2619  2.2165  1.1467
 1432TIP3   OH2 4256   0.516   1.364   0.954  0.2860 -0.3859  0.0045
 1432TIP3    H1 4257   0.535   1.270   0.948 -1.6776 -1.1356  2.9557
 1432TIP3    H2 4258   0.455   1.381   0.882  1.8863 -0.9141 -1.5514
 1433TIP3   OH2 4259   6.610   5.866   0.553  0.3878  0.3811 -0.1627
 1433TIP3    H1 4260   6.543   5.826   0.497 -0.0546 -3.0248  2.4803
 1433TIP3    H2 4261   6.692   5.826   0.526  0.0267 -2.1288  2.1070
 1434TIP3   OH2 4262   7.021   0.773   0.416 -0.4139  0.0531  0.2621
 1434TIP3    H1 4263   6.930   0.797   0.401 -0.6851 -1.0134  0.1171
 1434TIP3    H2 4264   7.064   0.855   0.440 -1.1050  0.8404 -1.0419
 1435TIP3   OH2 4265   3.708   6.687   5.130 -0.0049 -0.6406  0.3591
 1435TIP3    H1 4266   3.636   6.651   5.181 -1.6115  0.9051 -0.6846
 1435TIP3    H2 4267   3.750   6.750   5.188  0.4662 -1.4677  0.9336
 1436TIP3   OH2 4268   7.245   0.553   0.520  0.1259  0.0934 -0.5437
 1436TIP3    H1 4269   7.221   0.508   0.601  3.6403 -0.0953  0.5866
 1436TIP3    H2 4270   7.166   0.598   0.493 -1.5992 -1.0325  2.1889
 1437TIP3   OH2 4271   2.556   3.060   0.690  0.3649 -0.1193  0.4519
 1437TIP3    H1 4272   2.616   3.110   0.745 -0.3383  1.7677 -0.3758
 1437TIP3    H2 4273   2.470   3.073   0.730 -0.1167  1.0589 -0.8666
 1438TIP3   OH2 4274   2.848   6.858   1.440 -0.0991  0.4649 -0.5156
 1438TIP3    H1 4275   2.801   6.853   1.523 -1.0203 -1.1105 -1.0705
 1438TIP3    H2 4276   2.883   6.947   1.437 -1.4606  1.0966  0.8028
 1439TIP3   OH2 4277   3.907   7.061   2.176 -0.0292 -0.0088  0.6389
 1439TIP3    H1 4278   3.986   7.095   2.218 -0.2112  0.3187  0.7263
 1439TIP3    H2 4279   3.934   6.978   2.137  0.6110  0.5572 -0.1810
 1440TIP3   OH2 4280   4.683   4.589   0.075  0.0147  0.0028 -0.0734
 1440TIP3    H1 4281   4.605   4.606   0.023  0.6771  2.8357 -0.3083
 1440TIP3    H2 4282   4.654   4.593   0.166 -0.4807 -1.3386 -0.1437
 1441TIP3   OH2 4283   0.940   0.536   0.361  0.2651 -0.2964  0.5896
 1441TIP3    H1 4284   0.885   0.610   0.335  0.3446  0.3289  2.0354
 1441TIP3    H2 4285   0.882   0.460   0.360  0.0930 -0.1681 -0.5821
 1442TIP3   OH2 4286   1.355   3.538   3.183 -0.0509  0.4506  0.1935
 1442TIP3    H1 4287   1.341   3.560   3.091 -1.9800  1.4862  0.6619
 1442TIP3    H2 4288   1.330   3.446   3.190  1.7335 -0.1286 -0.5924
 1443TIP3   OH2 4289   4.155   1.984   1.929 -0.6852 -0.3534  0.3879
 1443TIP3    H1 4290   4.235   1.985   1.982  0.3149  0.1494 -1.0683
 1443TIP3    H2 4291   4.171   1.917   1.863 -1.8962 -0.9413  0.6645
 1444TIP3   OH2 4292   1.248   4.287   3.392 -0.5795 -0.4253  0.2958
 1444TIP3    H1 4293   1.202   4.338   3.458  0.5032 -0.2428  0.9333
 1444TIP3    H2 4294   1.330   4.261   3.434 -0.2320 -1.0115 -0.6961
 1445TIP3   OH2 4295   4.722   0.677   3.935  0.6249  0.8321 -0.1247
 1445TIP3    H1 4296   4.664   0.684   3.859 -1.1720 -2.0869  0.8154
 1445TIP3    H2 4297   4.801   0.634   3.901 -0.2636 -0.6753 -0.3589
 1446TIP3   OH2 4298   1.786   4.583   1.520 -0.0867  0.8476  0.2095
 1446TIP3    H1 4299   1.850   4.618   1.583 -0.1805  1.5289 -0.0623
 1446TIP3    H2 4300   1.731   4.525   1.572  0.5757  0.4678  0.5078
 1447TIP3   OH2 4301   6.137   1.063   5.326 -0.0882  0.2394  0.9156
 1447TIP3    H1 4302   6.073   1.065   5.255  1.0142 -0.0487 -0.1160
 1447TIP3    H2 4303   6.173   1.151   5.328  0.5561 -0.0137  0.4836
 1448TIP3   OH2 4304   1.286   3.233   3.054  0.2613 -0.0039  0.4410
 1448TIP3    H1 4305   1.302   3.150   3.098 -0.9036 -0.7103 -0.3870
 1448TIP3    H2 4306   1.191   3.241   3.053  0.3716  1.7170  1.1468
 1449TIP3   OH2 4307   6.200   5.436   0.175  0.2088 -0.0714  0.7533
 1449TIP3    H1 4308   6.223   5.431   0.082 -1.4781 -2.2462  0.3735
 1449TIP3    H2 4309   6.210   5.346   0.207 -0.1190  0.4642  2.4621
 1450TIP3   OH2 4310   2.347   5.247   1.137  0.3076  0.3006 -0.4656
 1450TIP3    H1 4311   2.369   5.184   1.068  1.4372 -2.1438  1.9301
 1450TIP3    H2 4312   2.323   5.192   1.212 -0.3225  2.8038  1.2860
 1451TIP3   OH2 4313   6.758   3.767   4.764 -0.2917 -0.1070 -0.1490
 1451TIP3    H1 4314   6.667   3.761   4.733 -0.1627  0.4888 -0.6666
 1451TIP3    H2 4315   6.810   3.776   4.684  0.1829 -0.0047  0.1689
 1452TIP3   OH2 4316   1.124   4.026   1.105  0.3091  0.1594  0.0353
 1452TIP3    H1 4317   1.138   3.943   1.059 -1.9221 -0.3783  0.2245
 1452TIP3    H2 4318   1.102   4.088   1.035  1.2308  0.4374 -0.0257
 1453TIP3   OH2 4319   1.804   4.773   2.328  0.0435 -0.4152 -0.4985
 1453TIP3    H1 4320   1.725   4.722   2.310 -1.2435  1.0226  0.7480
 1453TIP3    H2 4321   1.808   4.836   2.255 -0.3900 -0.0294 -0.1975
 1454TIP3   OH2 4322   5.978   5.969   0.339  0.0799  0.3465 -0.1706
 1454TIP3    H1 4323   6.057   6.006   0.379  0.3750 -0.7293  0.2957
 1454TIP3    H2 4324   5.938   5.917   0.409  0.3879 -1.2512 -1.1183
 1455TIP3   OH2 4325   7.318   0.015   4.498 -0.1446 -0.6307  0.1662
 1455TIP3    H1 4326   7.310  -0.011   4.406  0.3968 -1.0375  0.2262
 1455TIP3    H2 4327   7.393   0.075   4.500 -1.5697  1.2466 -0.0194
 1456TIP3   OH2 4328   1.095   5.338   4.024 -0.7300 -0.2089  0.4387
 1456TIP3    H1 4329   1.002   5.318   4.015 -1.2686  1.6893  1.2027
 1456TIP3    H2 4330   1.114   5.397   3.951 -0.2721 -0.1485  0.6042
 1457TIP3   OH2 4331   5.355   5.276   0.650 -0.0022 -0.8406  0.2134
 1457TIP3    H1 4332   5.426   5.239   0.703 -0.1778 -0.6876  0.5575
 1457TIP3    H2 4333   5.285   5.211   0.656  0.1236 -1.0169 -0.1708
 1458TIP3   OH2 4334   5.001   4.928   2.781  0.0821  0.1200 -0.5164
 1458TIP3    H1 4335   5.078   4.895   2.735 -0.5894 -0.1311 -1.5060
 1458TIP3    H2 4336   4.985   5.014   2.743  0.8815  0.9446  0.9258
 1459TIP3   OH2 4337   4.513   5.291   4.449 -0.0572  0.3655  0.2651
 1459TIP3    H1 4338   4.445   5.223   4.457  1.7974 -1.3729  3.1341
 1459TIP3    H2 4339   4.559   5.268   4.368 -0.0860 -1.2497  0.6658
 1460TIP3   OH2 4340   7.534   4.371   1.832 -0.4086 -0.2108 -0.2279
 1460TIP3    H1 4341   7.542   4.466   1.839 -1.7237 -0.1768  1.3114
 1460TIP3    H2 4342   7.446   4.357   1.797 -1.1383 -0.8736  1.7538
 1461TIP3   OH2 4343   2.862   1.273   3.046 -0.1333  0.3014 -0.2899
 1461TIP3    H1 4344   2.775   1.307   3.026 -0.6737 -0.8905 -0.0961
 1461TIP3    H2 4345   2.892   1.235   2.963  0.2530  0.7941 -0.3806
 1462TIP3   OH2 4346   6.077   5.085   2.713  0.0162  0.2495  0.1593
 1462TIP3    H1 4347   6.157   5.032   2.719  0.3655  0.9834  2.6406
 1462TIP3    H2 4348   6.032   5.049   2.636  1.3708 -2.0643  0.3314
 1463TIP3   OH2 4349   5.161   2.337   4.410 -0.0948  0.7150 -0.5542
 1463TIP3    H1 4350   5.226   2.268   4.395 -1.0056 -0.1854 -0.4448
 1463TIP3    H2 4351   5.123   2.353   4.323  0.3827  1.3670 -0.6502
 1464TIP3   OH2 4352   0.468   0.258   4.096 -0.5624  0.4874 -0.2087
 1464TIP3    H1 4353   0.422   0.216   4.169  0.7515  0.6593  0.7477
 1464TIP3    H2 4354   0.402   0.315   4.056 -1.7854 -0.8676 -0.2192
 1465TIP3   OH2 4355   3.917   0.055   5.341  0.0966 -0.9707  0.0583
 1465TIP3    H1 4356   3.942   0.007   5.421 -0.4277  0.3146  1.0285
 1465TIP3    H2 4357   3.995   0.051   5.286 -0.0572 -3.2675 -0.0825
 1466TIP3   OH2 4358   6.060   0.449   1.156 -0.1804 -0.2270 -0.3459
 1466TIP3    H1 4359   6.030   0.478   1.069 -0.0456 -0.9286 -0.6290
 1466TIP3    H2 4360   5.990   0.478   1.216  0.1113  0.9870 -0.5654
 1467TIP3   OH2 4361   6.852   4.597   0.979  0.5904  0.4940  0.7349
 1467TIP3    H1 4362   6.850   4.691   0.994  2.2543  0.2310  3.2728
 1467TIP3    H2 4363   6.832   4.559   1.065  1.8397 -1.4402  0.2197
 1468TIP3   OH2 4364   2.965   2.108   0.746 -0.8509 -0.2220  0.5205
 1468TIP3    H1 4365   2.941   2.019   0.771 -0.8024  0.0592  1.6278
 1468TIP3    H2 4366   2.900   2.164   0.788 -0.0384  0.3477  1.0694
 1469TIP3   OH2 4367   5.989   5.011   2.454  0.1674 -0.3159  0.0683
 1469TIP3    H1 4368   5.948   5.090   2.419 -2.2390 -1.7351 -0.5288
 1469TIP3    H2 4369   6.051   4.983   2.387 -2.0331 -1.1996 -1.6981
 1470TIP3   OH2 4370   5.705   0.967   4.353 -0.2863 -0.2370  0.2385
 1470TIP3    H1 4371   5.615   0.936   4.358 -0.3352 -0.0379  0.7219
 1470TIP3    H2 4372   5.735   0.944   4.265 -0.9615  0.1081 -0.0856
 1471TIP3   OH2 4373   7.444   6.436   0.399 -0.0743 -0.0585 -0.4561
 1471TIP3    H1 4374   7.526   6.464   0.440 -0.3462  1.6646 -1.0099
 1471TIP3    H2 4375   7.393   6.397   0.470  0.1141  1.3999  0.5045
 1472TIP3   OH2 4376   1.799   3.200   4.276 -0.2500 -0.1176  0.4951
 1472TIP3    H1 4377   1.844   3.167   4.199  0.0491  0.8839  0.2228
 1472TIP3    H2 4378   1.870   3.221   4.338 -0.4033  0.3838  0.5056
 1473TIP3   OH2 4379   3.907   6.877   3.085 -0.3717  0.2035  0.2598
 1473TIP3    H1 4380   3.856   6.806   3.047  0.9930  0.7186 -2.9373
 1473TIP3    H2 4381   3.843   6.945   3.105 -1.2104  0.1277 -1.8655
 1474TIP3   OH2 4382   2.732   4.131   5.650 -0.3119 -0.4356  0.2608
 1474TIP3    H1 4383   2.773   4.046   5.634 -0.3673 -0.1883 -1.3332
 1474TIP3    H2 4384   2.657   4.111   5.706  0.9979 -1.1041  1.8605
 1475TIP3   OH2 4385   3.813   6.215   3.141  0.0792 -0.2841  0.1894
 1475TIP3    H1 4386   3.898   6.250   3.113  0.4239 -1.2870 -0.0698
 1475TIP3    H2 4387   3.831   6.124   3.163 -0.8461 -0.3825  0.5910
 1476TIP3   OH2 4388   2.074   2.766   0.615 -0.3446 -0.4267 -0.0434
 1476TIP3    H1 4389   1.997   2.818   0.635 -0.5808 -0.2451 -1.3273
 1476TIP3    H2 4390   2.051   2.720   0.534  1.5813  1.1490 -1.5763
 1477TIP3   OH2 4391   7.064   6.941   5.187 -0.8648 -0.1133  0.0990
 1477TIP3    H1 4392   7.047   7.025   5.146 -4.5717 -1.0045 -0.5766
 1477TIP3    H2 4393   7.078   6.880   5.114  2.5682 -0.0804  0.5921
 1478TIP3   OH2 4394   3.819   0.360   3.339  0.4384 -0.4012 -0.4370
 1478TIP3    H1 4395   3.738   0.376   3.388 -0.3687 -0.2055 -1.7879
 1478TIP3    H2 4396   3.846   0.272   3.365 -0.6149 -0.7637 -0.5222
 1479TIP3   OH2 4397   0.157   3.430   1.864  0.2095 -0.4139 -0.0916
 1479TIP3    H1 4398   0.169   3.450   1.957 -0.0375  1.3284 -0.3854
 1479TIP3    H2 4399   0.150   3.516   1.823  0.3237 -1.1620 -1.7317
 1480TIP3   OH2 4400   0.239   2.664   4.142 -0.0627 -0.0802 -0.1055
 1480TIP3    H1 4401   0.267   2.577   4.113 -1.9645 -1.0971  0.9053
 1480TIP3    H2 4402   0.165   2.647   4.200  0.6250  2.1437  1.5441
 1481TIP3   OH2 4403   2.161   1.146   3.248  0.0528 -0.2187  0.6100
 1481TIP3    H1 4404   2.080   1.134   3.297 -0.7809 -0.1997 -0.7203
 1481TIP3    H2 4405   2.141   1.113   3.161  1.1811  0.7064 -0.0201
 1482TIP3   OH2 4406   6.510   0.927   5.439 -0.2034  0.9990 -0.0979
 1482TIP3    H1 4407   6.457   0.853   5.410 -0.5600  0.2751  2.1504
 1482TIP3    H2 4408   6.453   0.975   5.500  1.1957  1.0228  1.2669
 1483TIP3   OH2 4409   7.520   2.381   2.096 -0.7846 -0.5886 -0.1589
 1483TIP3    H1 4410   7.568   2.461   2.074 -1.6039  0.1933  0.8014
 1483TIP3    H2 4411   7.434   2.393   2.058 -0.8268 -1.1391 -0.2443
 1484TIP3   OH2 4412   0.695   6.972   2.729 -0.1610 -0.7562 -0.4679
 1484TIP3    H1 4413   0.720   6.881   2.716  1.7486 -0.4780  0.8439
 1484TIP3    H2 4414   0.774   7.014   2.765 -0.2239  1.8942 -2.9747
 1485TIP3   OH2 4415   3.094   6.432   2.543 -0.2915  0.2897  0.5539
 1485TIP3    H1 4416   3.060   6.459   2.457 -0.9187  0.9265  0.9886
 1485TIP3    H2 4417   3.036   6.475   2.606 -0.3186 -0.8078  1.2967
 1486TIP3   OH2 4418   7.239   0.736   5.770  0.3893 -0.0483 -0.4904
 1486TIP3    H1 4419   7.195   0.728   5.685 -0.0395  1.2068 -0.4160
 1486TIP3    H2 4420   7.268   0.827   5.773  0.3021 -0.0375  0.7477
 1487TIP3   OH2 4421   0.479   6.175   1.108  0.3668  0.3626 -0.2274
 1487TIP3    H1 4422   0.449   6.193   1.019  1.0538  1.9452 -0.1718
 1487TIP3    H2 4423   0.573   6.192   1.106  1.2645 -3.6325 -0.1774
 1488TIP3   OH2 4424   2.004   3.933   0.007  0.0812  0.6548 -0.1572
 1488TIP3    H1 4425   1.952   3.869   0.056  0.5580  0.1049 -0.3473
 1488TIP3    H2 4426   1.940   3.978  -0.048 -0.1455 -0.3054 -0.7041
 1489TIP3   OH2 4427   3.017   1.691   4.697 -0.3421  0.2340  0.1869
 1489TIP3    H1 4428   2.982   1.767   4.651  1.9255  1.3572  0.1970
 1489TIP3    H2 4429   3.086   1.726   4.754  1.1330 -1.8704 -0.1675
 1490TIP3   OH2 4430   6.170   2.325   1.221  0.3217 -0.1868 -0.6540
 1490TIP3    H1 4431   6.152   2.242   1.266  2.6860  1.2717  3.5915
 1490TIP3    H2 4432   6.236   2.302   1.156  1.3140 -1.6765  0.7821
 1491TIP3   OH2 4433   4.141   4.421   4.384  0.7542  0.3428 -0.1828
 1491TIP3    H1 4434   4.225   4.382   4.362 -0.6427 -1.6329 -2.4949
 1491TIP3    H2 4435   4.095   4.428   4.301 -1.2018  1.8682  0.9324
 1492TIP3   OH2 4436   4.588   2.664   3.743  0.1659 -0.1260  0.3747
 1492TIP3    H1 4437   4.535   2.674   3.664  0.9316 -0.9592 -0.2695
 1492TIP3    H2 4438   4.548   2.590   3.790 -0.8083  0.9085  1.2231
 1493TIP3   OH2 4439   5.981   4.585   1.268  0.0490  0.3133  0.3794
 1493TIP3    H1 4440   5.979   4.540   1.183 -1.7451  2.0252 -0.5759
 1493TIP3    H2 4441   5.988   4.514   1.332  0.5291 -1.0950 -1.1468
 1494TIP3   OH2 4442   6.582   3.303   3.323 -0.3667  0.0855  0.3074
 1494TIP3    H1 4443   6.544   3.284   3.408  0.1356  0.7776  0.6997
 1494TIP3    H2 4444   6.628   3.386   3.335  1.4462 -0.8052 -0.0674
 1495TIP3   OH2 4445   1.374   3.284   2.467  0.2508  0.1028 -0.0879
 1495TIP3    H1 4446   1.321   3.302   2.389  0.2691  0.8760  0.0714
 1495TIP3    H2 4447   1.464   3.287   2.435  0.2247 -0.9326 -0.3014
 1496TIP3   OH2 4448   4.384   2.380   4.304  0.4597 -0.0562 -0.4476
 1496TIP3    H1 4449   4.385   2.298   4.354  0.1635  1.2234  1.7968
 1496TIP3    H2 4450   4.308   2.372   4.246  0.4580 -1.3674 -0.2947
 1497TIP3   OH2 4451   6.005   1.283   4.555 -0.2020  0.0404  0.3528
 1497TIP3    H1 4452   6.092   1.254   4.527  0.6925  1.6536  1.2644
 1497TIP3    H2 4453   5.949   1.270   4.478  1.7184  2.4789 -1.6339
 1498TIP3   OH2 4454   6.208   0.273   1.263 -0.1279 -0.0308  0.1544
 1498TIP3    H1 4455   6.152   0.340   1.223  2.7057  2.6608  0.3067
 1498TIP3    H2 4456   6.234   0.311   1.347  1.5456 -1.3534  0.2863
 1499TIP3   OH2 4457   2.124   2.700   1.287 -0.6146 -0.2966 -0.0846
 1499TIP3    H1 4458   2.133   2.719   1.380 -0.0579 -0.5990 -0.0749
 1499TIP3    H2 4459   2.046   2.645   1.282 -0.7985 -0.0640  0.1705
 1500TIP3   OH2 4460   6.585   4.613   1.746  0.3797  0.2932  0.4108
 1500TIP3    H1 4461   6.547   4.642   1.663 -1.0922 -1.0302  0.5688
 1500TIP3    H2 4462   6.541   4.668   1.812  2.0893  1.8626  0.3183
 1501TIP3   OH2 4463   4.609   2.277   2.721 -0.0138 -0.3505  0.1975
 1501TIP3    H1 4464   4.690   2.310   2.684 -0.8938  1.5760 -0.1008
 1501TIP3    H2 4465   4.593   2.331   2.798 -0.5540 -1.3183  0.7961
 1502TIP3   OH2 4466   2.956   4.931   1.508  0.1719  0.2735  0.4230
 1502TIP3    H1 4467   2.927   5.010   1.554  0.0028  0.3524  0.1838
 1502TIP3    H2 4468   3.051   4.929   1.523  0.4136  1.2963 -0.7096
 1503TIP3   OH2 4469   3.391   6.451   0.515  0.3081  0.2592  0.3080
 1503TIP3    H1 4470   3.469   6.450   0.571 -1.0534  0.2109  2.3471
 1503TIP3    H2 4471   3.323   6.487   0.572 -1.0907  0.5789 -1.5055
 1504TIP3   OH2 4472   6.179   2.798   4.614  0.3602 -0.3881 -0.3526
 1504TIP3    H1 4473   6.249   2.858   4.588  0.0197 -0.3393 -1.2012
 1504TIP3    H2 4474   6.129   2.783   4.533 -0.4803 -0.5943  0.1898
 1505TIP3   OH2 4475   2.481   0.996   5.686  0.1041  0.0083  0.4751
 1505TIP3    H1 4476   2.543   0.933   5.724  3.1207  1.5102 -1.4659
 1505TIP3    H2 4477   2.499   1.078   5.731 -0.8114  0.3915  0.1609
 1506TIP3   OH2 4478   2.035   2.102   4.189 -0.2811  0.4560  0.1756
 1506TIP3    H1 4479   2.020   2.167   4.120  0.6887  0.0224 -0.4778
 1506TIP3    H2 4480   2.124   2.071   4.173  0.1235  0.6573  1.9127
 1507TIP3   OH2 4481   2.497   3.427   0.700 -0.0056  0.2969 -0.0836
 1507TIP3    H1 4482   2.424   3.390   0.649  1.2205 -0.9118 -1.0437
 1507TIP3    H2 4483   2.536   3.352   0.744  1.2346  0.7554 -0.3489
 1508TIP3   OH2 4484   5.221   4.301   3.708 -0.4786  0.4244 -0.1951
 1508TIP3    H1 4485   5.267   4.236   3.655  0.1218  0.5304  0.1946
 1508TIP3    H2 4486   5.142   4.322   3.657  0.4036  1.0104 -1.3696
 1509TIP3   OH2 4487   6.951   7.020   4.771  0.1632 -0.1134  0.1184
 1509TIP3    H1 4488   6.891   6.990   4.702  1.6351 -1.8658 -0.5008
 1509TIP3    H2 4489   6.962   6.943   4.827  2.3541 -0.1264 -0.2249
 1510TIP3   OH2 4490   6.761   6.801   0.853 -0.2572  0.2842 -0.2638
 1510TIP3    H1 4491   6.803   6.875   0.898 -0.7315 -0.3268  1.2581
 1510TIP3    H2 4492   6.825   6.730   0.860  0.4848  0.6731 -2.3150
 1511TIP3   OH2 4493   2.954   4.372   4.955 -0.2684  0.0215  0.0770
 1511TIP3    H1 4494   2.978   4.429   4.882 -0.7797  0.3724  0.1801
 1511TIP3    H2 4495   2.970   4.424   5.033 -2.0182  0.5299  0.1274
 1512TIP3   OH2 4496   7.030   5.385   5.845 -1.0737 -0.9667  0.4775
 1512TIP3    H1 4497   7.011   5.451   5.778  0.2072 -1.3544 -0.3050
 1512TIP3    H2 4498   7.033   5.434   5.927 -0.1896 -0.0437 -0.0879
 1513TIP3   OH2 4499   2.649   0.189   0.767 -0.1022 -0.5335 -0.4871
 1513TIP3    H1 4500   2.669   0.113   0.712  1.7306  1.2025 -2.4128
 1513TIP3    H2 4501   2.616   0.254   0.706  0.3506  0.9065  0.7551
 1514TIP3   OH2 4502   3.933   1.383   4.854  0.4737 -0.1395  0.3554
 1514TIP3    H1 4503   3.851   1.419   4.887  0.1164 -0.4511 -0.1724
 1514TIP3    H2 4504   3.935   1.408   4.762  1.1322  0.1459  0.4410
 1515TIP3   OH2 4505   3.260   5.916   5.652 -0.2902  0.3008 -0.2925
 1515TIP3    H1 4506   3.271   5.832   5.608  0.2470  0.3578 -0.2784
 1515TIP3    H2 4507   3.284   5.900   5.743 -0.5404  0.3857 -0.2105
 1516TIP3   OH2 4508   6.592   4.881   0.659 -0.6292 -0.0756 -0.1739
 1516TIP3    H1 4509   6.560   4.869   0.570  1.6241 -1.8082 -0.8414
 1516TIP3    H2 4510   6.626   4.795   0.685 -2.1741  0.0659  2.8140
 1517TIP3   OH2 4511   5.556   1.344   5.122  0.6253 -0.1546 -0.1406
 1517TIP3    H1 4512   5.643   1.372   5.151  0.4807  0.3736 -0.2121
 1517TIP3    H2 4513   5.550   1.374   5.032  0.1235  0.3773  0.0672
 1518TIP3   OH2 4514   1.227   1.770   1.971  0.0283 -0.2235 -0.0632
 1518TIP3    H1 4515   1.164   1.701   1.995  0.1828 -0.1365  0.5861
 1518TIP3    H2 4516   1.221   1.774   1.875  0.3620 -1.4675 -0.1481
 1519TIP3   OH2 4517   2.561   3.322   2.461  0.5174 -0.6161 -0.1249
 1519TIP3    H1 4518   2.648   3.315   2.499  1.0213 -1.2334 -1.3427
 1519TIP3    H2 4519   2.526   3.233   2.465  0.3972 -0.5958 -0.6664
 1520TIP3   OH2 4520   1.481   0.410   5.806 -0.8593 -0.1488  0.8445
 1520TIP3    H1 4521   1.398   0.458   5.804 -1.1784 -0.7090  0.3010
 1520TIP3    H2 4522   1.480   0.357   5.726 -0.5402 -1.0995  1.4556
 1521TIP3   OH2 4523   6.846   7.065   4.063 -0.0797  0.6307  0.1332
 1521TIP3    H1 4524   6.779   7.105   4.007 -0.5443  1.9283  1.5439
 1521TIP3    H2 4525   6.920   7.125   4.059  0.2559  0.2212  0.1349
 1522TIP3   OH2 4526   3.076   2.285   3.796 -0.1987 -0.1173  0.2167
 1522TIP3    H1 4527   3.011   2.353   3.812  0.1358  0.7190 -1.7304
 1522TIP3    H2 4528   3.025   2.204   3.794 -1.4048  0.6000 -2.0483
 1523TIP3   OH2 4529   7.259   0.238   5.982 -0.0604  0.3751 -0.2199
 1523TIP3    H1 4530   7.254   0.143   5.994 -1.8595  0.3774 -0.6374
 1523TIP3    H2 4531   7.214   0.274   6.059  0.4724  0.8905 -0.1436
 1524TIP3   OH2 4532   2.748   6.248   5.565  0.1758  0.0157  0.9715
 1524TIP3    H1 4533   2.694   6.295   5.628 -0.0946 -0.4963  1.1243
 1524TIP3    H2 4534   2.773   6.168   5.610 -0.9826 -0.9090  0.0140
 1525TIP3   OH2 4535   3.548   2.025   4.612  0.1514  0.3162  0.3673
 1525TIP3    H1 4536   3.588   2.088   4.672 -1.2224  0.4039  1.2341
 1525TIP3    H2 4537   3.622   1.977   4.575  1.0705  0.4411  1.9277
 1526TIP3   OH2 4538   5.982   0.691   4.197  0.0686 -0.0044  0.4998
 1526TIP3    H1 4539   5.941   0.607   4.218  0.3697 -0.5403 -0.9790
 1526TIP3    H2 4540   5.976   0.741   4.279  0.5538 -1.7287  1.6490
 1527TIP3   OH2 4541   5.400   1.608   4.157  0.6969 -0.3327 -0.2086
 1527TIP3    H1 4542   5.350   1.585   4.079  0.2016  1.6402 -0.5109
 1527TIP3    H2 4543   5.488   1.628   4.125  0.3409  1.0522 -0.3778
 1528TIP3   OH2 4544   6.131   2.249   0.030 -0.3404 -0.4078  0.0515
 1528TIP3    H1 4545   6.175   2.165   0.044 -1.3409 -0.9930 -0.2305
 1528TIP3    H2 4546   6.042   2.235   0.062 -0.0456  1.0978  1.6976
 1529TIP3   OH2 4547   2.298   1.956   3.077  0.7873  0.5021  0.4385
 1529TIP3    H1 4548   2.247   1.954   3.158 -0.0431  1.8728 -0.0212
 1529TIP3    H2 4549   2.385   1.924   3.103  0.1783 -0.3192  1.5776
 1530TIP3   OH2 4550   6.241   4.942   6.183 -0.3495 -0.1097  0.2695
 1530TIP3    H1 4551   6.165   4.905   6.138 -0.4718  0.0095  0.3784
 1530TIP3    H2 4552   6.301   4.868   6.194 -0.0202 -0.0087 -0.6971
 1531TIP3   OH2 4553   3.884   2.509   1.962 -0.2044 -0.3520  0.4865
 1531TIP3    H1 4554   3.841   2.458   1.893  0.6480  0.3053 -0.5665
 1531TIP3    H2 4555   3.836   2.487   2.042 -2.6817  0.5727 -0.6537
 1532TIP3   OH2 4556   1.845   5.732   5.777 -0.4323  0.3951 -0.0737
 1532TIP3    H1 4557   1.896   5.766   5.703  0.8969 -0.5085  0.3998
 1532TIP3    H2 4558   1.869   5.787   5.851  1.2372 -1.0691  0.5476
 1533TIP3   OH2 4559   4.287   0.263   4.444  0.1045  0.8201  0.1351
 1533TIP3    H1 4560   4.308   0.339   4.389 -0.5898  0.7206 -0.2778
 1533TIP3    H2 4561   4.372   0.230   4.473  0.4181  1.7420  0.3021
 1534TIP3   OH2 4562   7.066   5.686   0.702 -0.3744  0.2043 -0.0004
 1534TIP3    H1 4563   7.000   5.639   0.754 -0.3885  0.0002 -0.2029
 1534TIP3    H2 4564   7.082   5.766   0.751 -0.0330 -0.2065  0.5729
 1535TIP3   OH2 4565   4.844   6.533   5.372  0.4125 -0.1849  0.0518
 1535TIP3    H1 4566   4.896   6.512   5.294 -1.2619  0.7650 -1.4084
 1535TIP3    H2 4567   4.760   6.488   5.358 -1.2435  2.7928 -0.5273
 1536TIP3   OH2 4568   7.247   2.898   5.730 -0.3277 -0.0944  0.3068
 1536TIP3    H1 4569   7.232   2.949   5.651 -2.4664  1.9223  1.8460
 1536TIP3    H2 4570   7.339   2.913   5.752 -0.3732  1.4444 -0.4350
 1537TIP3   OH2 4571   0.259   5.353   5.749  0.6857 -0.6921  0.0722
 1537TIP3    H1 4572   0.217   5.358   5.663  1.3397  0.0523 -0.2077
 1537TIP3    H2 4573   0.312   5.273   5.745 -2.2398 -2.9003  1.1660
 1538TIP3   OH2 4574   0.113   4.555   0.842  0.2823 -0.3436 -0.3061
 1538TIP3    H1 4575   0.189   4.545   0.899 -0.3907 -1.3053  0.4589
 1538TIP3    H2 4576   0.113   4.647   0.817  2.3234 -0.5512 -1.2366
 1539TIP3   OH2 4577   1.252   6.773   3.751 -0.3582  0.1828 -0.0138
 1539TIP3    H1 4578   1.302   6.856   3.752  1.7337 -1.0031 -0.0994
 1539TIP3    H2 4579   1.223   6.764   3.661  0.1012  0.4581 -0.1963
 1540TIP3   OH2 4580   6.932   3.874   2.012  0.3045 -0.0163 -0.3857
 1540TIP3    H1 4581   6.900   3.785   1.999  1.2436 -0.1268 -2.3503
 1540TIP3    H2 4582   6.892   3.925   1.942  2.1626  0.3989 -1.2307
 1541TIP3   OH2 4583   1.726   2.837   2.654  0.2008  0.3847 -0.4668
 1541TIP3    H1 4584   1.736   2.807   2.745  0.8091  2.7174  0.3007
 1541TIP3    H2 4585   1.638   2.875   2.651  0.5877  1.2945 -0.5277
 1542TIP3   OH2 4586   3.368   4.029   0.645  0.2172  0.6701 -0.2685
 1542TIP3    H1 4587   3.325   4.058   0.565 -0.0304  2.6054  0.5028
 1542TIP3    H2 4588   3.451   4.075   0.646  0.7085 -0.1893  0.0701
 1543TIP3   OH2 4589   6.788   5.736   4.477  0.0498 -0.3083 -0.5512
 1543TIP3    H1 4590   6.879   5.707   4.468 -0.2388 -0.9294 -1.6112
 1543TIP3    H2 4591   6.762   5.706   4.564 -0.1351 -3.0114 -1.4585
 1544TIP3   OH2 4592   3.500   0.563   2.650 -0.0653  0.0077 -0.0624
 1544TIP3    H1 4593   3.472   0.550   2.741 -0.6290 -2.1844 -0.4890
 1544TIP3    H2 4594   3.419   0.565   2.600  0.2884 -0.4596 -0.6714
 1545TIP3   OH2 4595   3.650   3.405   2.042 -0.2357  0.0587  0.3306
 1545TIP3    H1 4596   3.586   3.449   2.098  1.0670  0.5681  1.4834
 1545TIP3    H2 4597   3.707   3.358   2.103  0.6074 -0.2157 -0.6375
 1546TIP3   OH2 4598   4.474   3.148   1.239  0.0041  0.2630  0.1561
 1546TIP3    H1 4599   4.475   3.120   1.148  1.8240  0.2816  0.1360
 1546TIP3    H2 4600   4.415   3.087   1.282 -1.3584  0.6231 -1.1133
 1547TIP3   OH2 4601   2.834   4.687   4.348  0.2847  0.4303 -0.1723
 1547TIP3    H1 4602   2.830   4.693   4.444  1.5171 -0.3374 -0.0469
 1547TIP3    H2 4603   2.743   4.682   4.321 -0.0882  0.6256  0.9666
 1548TIP3   OH2 4604   6.465   1.621   3.986  0.2195  0.0760 -0.0480
 1548TIP3    H1 4605   6.545   1.630   3.933 -0.5392 -1.2494 -1.5063
 1548TIP3    H2 4606   6.487   1.553   4.050  1.0433  1.4714  1.1910
 1549TIP3   OH2 4607   2.620   2.370   1.905  0.3073 -0.7376 -0.1941
 1549TIP3    H1 4608   2.545   2.311   1.904  1.3796 -2.1736  0.1684
 1549TIP3    H2 4609   2.696   2.312   1.899  1.4147  0.6217  0.1262
 1550TIP3   OH2 4610   1.492   5.170   1.231 -0.1306 -0.0628 -0.1407
 1550TIP3    H1 4611   1.585   5.152   1.243  0.5641  1.8979 -2.0504
 1550TIP3    H2 4612   1.478   5.253   1.275 -1.0682 -0.4719  0.3647
 1551TIP3   OH2 4613   0.487   2.926   4.106 -0.0225 -0.0090  0.1788
 1551TIP3    H1 4614   0.427   2.923   4.032  0.9746 -0.5446 -0.6489
 1551TIP3    H2 4615   0.500   3.019   4.124 -1.7177  0.1091  0.9253
 1552TIP3   OH2 4616   6.927   2.439   6.028 -0.4241  0.0760  0.4479
 1552TIP3    H1 4617   6.912   2.486   6.110 -0.8512 -3.5172  2.6595
 1552TIP3    H2 4618   6.844   2.396   6.010 -0.1221  0.2404 -1.5826
 1553TIP3   OH2 4619   6.681   5.385   4.062 -0.0137  0.0025 -0.0775
 1553TIP3    H1 4620   6.689   5.356   4.153  1.7217  0.9512  0.0990
 1553TIP3    H2 4621   6.738   5.327   4.013  1.5414  1.4683 -0.0747
 1554TIP3   OH2 4622   6.965   5.946   3.533  0.0384 -0.1730  0.2275
 1554TIP3    H1 4623   7.036   5.887   3.559 -1.1905 -2.3231 -0.9569
 1554TIP3    H2 4624   6.946   5.997   3.611  1.8277 -0.6209  1.0134
 1555TIP3   OH2 4625   4.918   6.545   0.459  0.0220  0.6144  0.5785
 1555TIP3    H1 4626   4.860   6.604   0.411 -0.2113 -0.7505 -0.9153
 1555TIP3    H2 4627   4.861   6.472   0.486  0.6655  0.1821  0.7896
 1556TIP3   OH2 4628   1.873   5.080   2.390  0.1588  0.5511 -0.1500
 1556TIP3    H1 4629   1.916   5.020   2.451  0.7982  0.6288 -0.5012
 1556TIP3    H2 4630   1.780   5.068   2.405  0.2536 -0.8226 -0.4732
 1557TIP3   OH2 4631   2.401   2.476   5.820 -0.0023 -0.3332 -0.4899
 1557TIP3    H1 4632   2.380   2.402   5.877  1.1280 -0.4570 -0.1974
 1557TIP3    H2 4633   2.384   2.445   5.732 -1.7965 -0.1329 -0.2425
 1558TIP3   OH2 4634   2.130   5.781   0.447 -0.2883  0.3734 -0.5149
 1558TIP3    H1 4635   2.047   5.779   0.496  0.6380  1.7941  1.2031
 1558TIP3    H2 4636   2.167   5.694   0.460 -1.4054 -0.2354 -1.1824
 1559TIP3   OH2 4637   1.594   0.743   3.535  0.3386  0.2316 -0.2581
 1559TIP3    H1 4638   1.556   0.656   3.519  0.7494  0.0107 -0.0399
 1559TIP3    H2 4639   1.569   0.794   3.457 -0.5158  0.1327 -0.0641
 1560TIP3   OH2 4640   3.660   0.661   6.017  0.2822 -0.0872 -0.2393
 1560TIP3    H1 4641   3.733   0.600   6.027 -0.5507 -1.1950 -0.6803
 1560TIP3    H2 4642   3.582   0.607   6.029 -0.5287  0.5757 -2.1262
 1561TIP3   OH2 4643   6.488   2.252   3.970 -0.1687  0.0832 -0.2616
 1561TIP3    H1 4644   6.437   2.280   3.893 -0.4411  0.1457 -0.0586
 1561TIP3    H2 4645   6.488   2.327   4.028 -0.6312 -0.2241  0.1445
 1562TIP3   OH2 4646   6.386   7.093   0.008  0.0471 -0.4423 -0.1748
 1562TIP3    H1 4647   6.475   7.058   0.012  0.0708 -0.6568 -1.8660
 1562TIP3    H2 4648   6.397   7.187  -0.009 -0.0114 -0.7515 -2.1469
 1563TIP3   OH2 4649   1.734   6.781   1.207 -0.0859  0.2538 -0.0752
 1563TIP3    H1 4650   1.799   6.771   1.137 -0.4465 -0.6526 -0.2875
 1563TIP3    H2 4651   1.786   6.806   1.284  0.4254  0.2775 -0.4201
 1564TIP3   OH2 4652   2.211   2.832   5.265  0.2188 -0.2466  0.7367
 1564TIP3    H1 4653   2.147   2.883   5.314  0.5357 -0.7702  1.7302
 1564TIP3    H2 4654   2.185   2.741   5.279  0.0943 -0.3945 -0.4003
 1565TIP3   OH2 4655   6.516   1.738   4.976 -0.3762 -0.0914 -0.2313
 1565TIP3    H1 4656   6.452   1.809   4.989 -2.2201 -1.3826 -1.7362
 1565TIP3    H2 4657   6.525   1.698   5.063  1.5621  2.5494  0.9355
 1566TIP3   OH2 4658   5.100   6.503   1.529 -0.2463  0.8936 -0.0836
 1566TIP3    H1 4659   5.169   6.537   1.586 -0.3975  0.9245  0.0814
 1566TIP3    H2 4660   5.021   6.508   1.582  0.3575 -4.4013  1.9529
 1567TIP3   OH2 4661   6.895   6.738   5.946 -0.3130 -0.2953 -0.2632
 1567TIP3    H1 4662   6.972   6.789   5.971  0.6255 -1.8648  0.1462
 1567TIP3    H2 4663   6.922   6.647   5.954 -1.7702 -0.8897 -1.5314
 1568TIP3   OH2 4664   1.480   2.527   0.281  0.3407 -0.3121 -0.1575
 1568TIP3    H1 4665   1.448   2.597   0.340 -0.7154 -1.0846  0.2217
 1568TIP3    H2 4666   1.534   2.573   0.217 -0.7112  0.9399 -0.2001
 1569TIP3   OH2 4667   6.689   6.637   1.694 -0.1218  0.3842  0.4328
 1569TIP3    H1 4668   6.672   6.606   1.783 -0.7391  0.7242  0.4370
 1569TIP3    H2 4669   6.732   6.722   1.706  2.1212 -0.6564  0.4339
 1570TIP3   OH2 4670   4.234   0.021   4.315 -0.4652 -0.0748  0.8490
 1570TIP3    H1 4671   4.184  -0.022   4.385  1.2188 -1.3233  1.3593
 1570TIP3    H2 4672   4.268   0.101   4.356  1.4678 -1.3528  1.9338
 1571TIP3   OH2 4673   3.484   5.322   2.865  0.0737  0.5096 -0.0425
 1571TIP3    H1 4674   3.426   5.396   2.845  0.2886  0.6294 -0.2235
 1571TIP3    H2 4675   3.493   5.275   2.782  0.9276  0.9805 -0.2307
 1572TIP3   OH2 4676   6.293   6.408   1.986 -0.3970  0.4346  0.1234
 1572TIP3    H1 4677   6.385   6.385   1.972 -1.1172 -3.1559  0.3749
 1572TIP3    H2 4678   6.282   6.405   2.081 -0.7480  1.0091  0.1023
 1573TIP3   OH2 4679   3.471   3.037   2.188  0.4758 -0.2446 -0.2098
 1573TIP3    H1 4680   3.467   3.062   2.096 -1.6241  0.4363  0.0163
 1573TIP3    H2 4681   3.392   2.985   2.203  1.0317 -0.7767  1.0985
 1574TIP3   OH2 4682   3.690   3.914   5.546 -0.2683  0.4351  0.3029
 1574TIP3    H1 4683   3.758   3.893   5.482  0.2761  0.4065  0.8877
 1574TIP3    H2 4684   3.733   3.906   5.631 -1.0726  0.1524  0.6932
 1575TIP3   OH2 4685   3.181   6.982   1.363 -0.1459  0.6125  0.1454
 1575TIP3    H1 4686   3.210   6.937   1.442  1.0131  1.6626  0.3540
 1575TIP3    H2 4687   3.186   6.915   1.294  0.7182  0.1829  0.6022
 1576TIP3   OH2 4688   1.113   5.032   2.084 -0.0064  0.2349 -0.0975
 1576TIP3    H1 4689   1.096   4.938   2.078  0.3867  0.0492  1.3886
 1576TIP3    H2 4690   1.044   5.072   2.031 -1.2458 -0.8170  0.6650
 1577TIP3   OH2 4691   2.684   1.159   6.076 -0.4360 -0.0454  0.7472
 1577TIP3    H1 4692   2.608   1.216   6.087  0.7923  2.2738 -1.5511
 1577TIP3    H2 4693   2.682   1.133   5.983  3.0573  2.7092 -0.3489
 1578TIP3   OH2 4694   7.387   7.099   0.449 -0.1723  0.3229 -0.1400
 1578TIP3    H1 4695   7.476   7.086   0.482 -0.1118  0.4577 -0.2493
 1578TIP3    H2 4696   7.389   7.064   0.360 -0.5218 -0.6804  0.2364
 1579TIP3   OH2 4697   4.154   6.983   2.498 -0.5781 -0.3589 -0.0409
 1579TIP3    H1 4698   4.208   6.919   2.452  1.3933  1.3153 -0.1922
 1579TIP3    H2 4699   4.141   7.054   2.435 -0.4110  0.6056  0.9835
 1580TIP3   OH2 4700   2.660   4.503   4.886  0.2098  0.3587 -0.5756
 1580TIP3    H1 4701   2.719   4.530   4.816  2.4529 -0.2362  0.9726
 1580TIP3    H2 4702   2.717   4.459   4.950 -2.0043 -0.6686  0.8102
 1581TIP3   OH2 4703   6.579   2.450   1.520  0.2852 -0.4430  0.1743
 1581TIP3    H1 4704   6.542   2.508   1.454  0.6349 -0.4127  0.0040
 1581TIP3    H2 4705   6.567   2.362   1.484 -1.2184 -0.5767  0.9047
 1582TIP3   OH2 4706   5.347   4.498   5.710 -0.0481  0.7533 -0.0880
 1582TIP3    H1 4707   5.370   4.588   5.686  0.2234 -0.0727 -3.4709
 1582TIP3    H2 4708   5.423   4.446   5.683 -0.8787 -0.6827  0.2106
 1583TIP3   OH2 4709   7.557   0.296   6.146 -0.0426  0.5577  0.5416
 1583TIP3    H1 4710   7.524   0.273   6.059 -0.7374  0.8725  0.7143
 1583TIP3    H2 4711   7.535   0.389   6.157  0.3265  0.6053  0.9275
 1584TIP3   OH2 4712   4.108   0.261   2.115  0.2883 -0.7025 -0.0188
 1584TIP3    H1 4713   4.204   0.268   2.108  0.1960 -0.5486 -1.5453
 1584TIP3    H2 4714   4.089   0.171   2.091 -0.0004 -0.5186 -0.4960
 1585TIP3   OH2 4715   0.776   6.571   0.161  0.0390  0.1667 -0.0202
 1585TIP3    H1 4716   0.800   6.654   0.121  0.4799 -0.7638 -1.8153
 1585TIP3    H2 4717   0.697   6.544   0.114 -0.7508  0.0703  1.3083
 1586TIP3   OH2 4718   0.442   7.071   3.505 -0.5366  0.0085  0.2851
 1586TIP3    H1 4719   0.361   7.082   3.454 -1.0909  0.1980  1.1812
 1586TIP3    H2 4720   0.512   7.084   3.442 -1.2093 -0.5764 -0.6029
 1587TIP3   OH2 4721   0.338   1.664   2.885 -0.2172  0.2872 -0.3445
 1587TIP3    H1 4722   0.253   1.708   2.888 -0.5237 -0.3454  0.7726
 1587TIP3    H2 4723   0.331   1.604   2.811  0.0263  1.6838 -1.5678
 1588TIP3   OH2 4724   1.070   4.158   4.187 -0.2294 -0.5878 -0.1610
 1588TIP3    H1 4725   1.094   4.231   4.244 -0.8645  0.4630 -1.1731
 1588TIP3    H2 4726   0.983   4.132   4.217 -0.1549 -0.6833 -0.0280
 1589TIP3   OH2 4727   5.534   6.229   1.797 -0.4625 -0.2771  0.2329
 1589TIP3    H1 4728   5.620   6.198   1.770 -0.2014 -0.3872  1.1493
 1589TIP3    H2 4729   5.511   6.295   1.732  0.0686 -0.6385 -0.3307
 1590TIP3   OH2 4730   3.604   4.745   2.918 -0.7048 -0.1481  0.2382
 1590TIP3    H1 4731   3.571   4.656   2.925 -2.2435  0.4870  2.0950
 1590TIP3    H2 4732   3.610   4.762   2.824 -1.4957 -1.8071 -0.1445
 1591TIP3   OH2 4733   3.417   6.101   2.334  0.4744 -0.0423 -0.3617
 1591TIP3    H1 4734   3.346   6.069   2.390  1.0057  0.0290  0.3602
 1591TIP3    H2 4735   3.496   6.059   2.367  0.6672 -0.8220 -1.7350
 1592TIP3   OH2 4736   7.166   2.079   0.194  0.0357  0.5287 -0.0231
 1592TIP3    H1 4737   7.136   2.027   0.268  0.3734 -0.8491 -0.8068
 1592TIP3    H2 4738   7.187   2.165   0.230 -1.3751  0.4008  1.1684
 1593TIP3   OH2 4739   5.572   3.480   1.200  0.4650 -0.0543 -0.2698
 1593TIP3    H1 4740   5.512   3.488   1.275  0.7138  2.2047 -0.2551
 1593TIP3    H2 4741   5.531   3.415   1.144 -1.6008  0.8097  0.1400
 1594TIP3   OH2 4742   3.443   0.420   1.179 -0.1223 -0.0147 -0.7928
 1594TIP3    H1 4743   3.351   0.406   1.203  0.1834  0.1287  0.5567
 1594TIP3    H2 4744   3.488   0.343   1.215  0.4689  0.6040 -0.1861
 1595TIP3   OH2 4745   0.363   6.183   4.252  0.9055 -0.1158 -0.4573
 1595TIP3    H1 4746   0.455   6.181   4.225  1.0409  0.8958 -0.1242
 1595TIP3    H2 4747   0.363   6.157   4.344  0.7600 -0.8865 -0.6689
 1596TIP3   OH2 4748   7.032   4.147   1.649  0.0271  0.4059 -0.1423
 1596TIP3    H1 4749   7.021   4.137   1.744 -1.4155  0.4155 -0.2901
 1596TIP3    H2 4750   7.067   4.062   1.620  1.0949  0.6203  0.4646
 1597TIP3   OH2 4751   2.717   5.552   4.467  0.0158 -0.0471  0.2220
 1597TIP3    H1 4752   2.772   5.566   4.390 -3.3308 -0.5524 -2.5277
 1597TIP3    H2 4753   2.715   5.637   4.512  1.0507  0.6338 -0.9722
 1598TIP3   OH2 4754   2.851   1.498   1.220  0.4504 -0.4912  0.3209
 1598TIP3    H1 4755   2.891   1.413   1.238  0.2860 -0.8846 -1.0852
 1598TIP3    H2 4756   2.887   1.524   1.136 -2.8534 -1.2786 -1.4922
 1599TIP3   OH2 4757   3.199   5.386   4.591  0.0761 -0.1385 -0.0312
 1599TIP3    H1 4758   3.277   5.346   4.551  0.3973 -0.3846  0.8168
 1599TIP3    H2 4759   3.126   5.347   4.543  0.3856 -1.6905  0.6795
 1600TIP3   OH2 4760   3.598   0.093   2.331  0.5472  0.4080  0.5077
 1600TIP3    H1 4761   3.608   0.187   2.344  2.4209  0.2260  0.6771
 1600TIP3    H2 4762   3.663   0.071   2.264  2.7303 -1.2619  2.9700
 1601TIP3   OH2 4763   1.066   4.218   0.925  0.4215 -0.3138  0.2743
 1601TIP3    H1 4764   1.048   4.210   0.831 -0.2275  1.2855  0.2398
 1601TIP3    H2 4765   0.994   4.271   0.959  0.7606 -0.6951  1.6558
 1602TIP3   OH2 4766   5.804   1.888   1.719 -0.8753 -0.2761  0.1700
 1602TIP3    H1 4767   5.871   1.846   1.773 -1.7261 -1.9126  0.0077
 1602TIP3    H2 4768   5.730   1.901   1.777 -1.2194 -0.5500 -0.2036
 1603TIP3   OH2 4769   3.802   1.597   0.318  0.2428  0.3963 -0.2973
 1603TIP3    H1 4770   3.850   1.656   0.376  2.4578 -1.7324  0.1727
 1603TIP3    H2 4771   3.719   1.581   0.364  0.6503  1.1566  0.7587
 1604TIP3   OH2 4772   3.767   4.173   5.566 -0.7066  0.0375 -0.4965
 1604TIP3    H1 4773   3.684   4.187   5.612 -1.3343 -1.0817 -1.2662
 1604TIP3    H2 4774   3.758   4.089   5.523  1.3314 -0.7533  0.4572
 1605TIP3   OH2 4775   5.344   5.051   4.298 -0.5407  0.5627  0.1041
 1605TIP3    H1 4776   5.341   5.131   4.246 -1.8903  0.6198  0.2329
 1605TIP3    H2 4777   5.342   4.980   4.233 -0.6999  0.6333  0.0320
 1606TIP3   OH2 4778   0.370   0.860   0.564 -0.3031 -0.6990 -0.3994
 1606TIP3    H1 4779   0.432   0.932   0.554 -0.0024 -0.5051  2.1787
 1606TIP3    H2 4780   0.308   0.891   0.631 -0.1636 -2.8017  0.7827
 1607TIP3   OH2 4781   3.007   0.545   2.016 -0.5267 -0.3889  0.0369
 1607TIP3    H1 4782   3.084   0.518   1.966 -1.7641 -3.5168 -0.4571
 1607TIP3    H2 4783   2.950   0.587   1.951  0.0559  0.3979  0.0295
 1608TIP3   OH2 4784   6.697   0.424   1.303  0.0970 -0.5363 -0.3320
 1608TIP3    H1 4785   6.625   0.363   1.322  0.1131 -0.0841  1.3411
 1608TIP3    H2 4786   6.747   0.428   1.385  0.1596  1.6281 -0.4319
 1609TIP3   OH2 4787   4.474   0.699   2.371  0.6667 -0.4055 -0.1893
 1609TIP3    H1 4788   4.470   0.766   2.302  0.0961  1.5979  1.6875
 1609TIP3    H2 4789   4.386   0.662   2.373  0.4482  0.1143 -0.0003
 1610TIP3   OH2 4790   0.619   0.410   5.977 -0.1275 -0.2795 -0.1297
 1610TIP3    H1 4791   0.712   0.389   5.973  0.3380  1.6382 -0.6497
 1610TIP3    H2 4792   0.576   0.341   5.927  1.1771 -0.4019 -1.1239
 1611TIP3   OH2 4793   1.018   1.413   0.438 -0.1157  0.0802 -0.1115
 1611TIP3    H1 4794   1.021   1.360   0.358 -0.5768 -0.3437  0.1429
 1611TIP3    H2 4795   1.106   1.405   0.475 -0.3410 -1.0266  0.2377
 1612TIP3   OH2 4796   6.670   4.545   4.146  0.1865  0.7157 -0.3660
 1612TIP3    H1 4797   6.633   4.633   4.142  0.1546  0.6965 -0.5263
 1612TIP3    H2 4798   6.597   4.488   4.125  0.0591  0.6091  0.3489
 1613TIP3   OH2 4799   4.068   3.103   3.359 -0.1803 -0.0491  0.1174
 1613TIP3    H1 4800   4.105   3.115   3.272  0.1291  1.9317  0.4778
 1613TIP3    H2 4801   4.130   3.046   3.404  0.6309  0.4230 -0.3820
 1614TIP3   OH2 4802   5.621   5.709   2.266  0.2864  0.0976  0.6431
 1614TIP3    H1 4803   5.647   5.800   2.268 -0.4896  0.4330 -1.6082
 1614TIP3    H2 4804   5.562   5.699   2.341  0.0824  1.5358  0.6950
 1615TIP3   OH2 4805   6.041   2.502   5.595  0.2798  0.1177  0.0975
 1615TIP3    H1 4806   5.983   2.487   5.670  0.2914  0.3176  0.1474
 1615TIP3    H2 4807   5.981   2.523   5.523  0.2470 -0.4210 -0.0408
 1616TIP3   OH2 4808   3.305   5.796   1.508 -0.3226  0.6881 -0.1567
 1616TIP3    H1 4809   3.333   5.856   1.577  1.0392 -0.6721  0.5426
 1616TIP3    H2 4810   3.374   5.731   1.504 -0.1375  0.9537 -3.1550
 1617TIP3   OH2 4811   6.331   5.040   2.881 -0.2025  0.7269  0.1016
 1617TIP3    H1 4812   6.351   5.010   2.970 -3.1842 -1.7393  0.0956
 1617TIP3    H2 4813   6.331   5.136   2.888  0.0716  0.6135  2.6421
 1618TIP3   OH2 4814   2.834   3.153   1.733  0.0538 -0.0657 -0.3322
 1618TIP3    H1 4815   2.850   3.104   1.813 -0.8820 -3.2662 -1.9149
 1618TIP3    H2 4816   2.761   3.212   1.754 -0.2902 -0.9708  1.1278
 1619TIP3   OH2 4817   6.687   5.216   4.775  0.2361  0.6695  0.0473
 1619TIP3    H1 4818   6.780   5.195   4.768  0.1594  0.4160 -0.2308
 1619TIP3    H2 4819   6.645   5.157   4.713 -0.3084 -0.7050  1.6559
 1620TIP3   OH2 4820   2.796   3.729   0.059  0.0997 -0.6540 -0.1268
 1620TIP3    H1 4821   2.801   3.821   0.031 -1.9222 -0.5389 -0.2384
 1620TIP3    H2 4822   2.787   3.680  -0.023  4.2096 -1.3705 -0.3865
 1621TIP3   OH2 4823   0.432   4.876   4.137  0.1832  0.0175 -0.2547
 1621TIP3    H1 4824   0.427   4.800   4.194  0.1099  0.1801 -0.0468
 1621TIP3    H2 4825   0.498   4.852   4.072  0.5345 -0.0191  0.1151
 1622TIP3   OH2 4826   7.083   0.696   2.270 -0.4196 -0.1289 -0.0077
 1622TIP3    H1 4827   7.039   0.768   2.225 -0.2735 -0.6784 -1.0576
 1622TIP3    H2 4828   7.044   0.694   2.357 -0.9164  0.7731 -0.2020
 1623TIP3   OH2 4829   3.607   0.455   5.163  0.4746  0.1871  0.2578
 1623TIP3    H1 4830   3.654   0.509   5.226  0.7906 -1.9047  1.9112
 1623TIP3    H2 4831   3.653   0.371   5.164 -1.0677 -0.7229 -0.8816
 1624TIP3   OH2 4832   6.460   0.043   2.915 -0.5411  0.3808  0.7458
 1624TIP3    H1 4833   6.398   0.040   2.843  0.0325 -1.0168  0.2785
 1624TIP3    H2 4834   6.546   0.040   2.873 -0.1536  1.1433  1.4371
 1625TIP3   OH2 4835   4.221   3.665   6.183  0.4010 -0.4311  0.0494
 1625TIP3    H1 4836   4.193   3.615   6.259 -1.9050 -1.0449 -1.1014
 1625TIP3    H2 4837   4.276   3.605   6.134 -1.1827 -1.4388 -0.5980
 1626TIP3   OH2 4838   0.630   6.470   2.502 -0.0977  0.0387 -0.3780
 1626TIP3    H1 4839   0.609   6.547   2.450 -1.0216  0.8515  1.1235
 1626TIP3    H2 4840   0.558   6.409   2.484  0.0130 -0.0157 -0.6509
 1627TIP3   OH2 4841   3.471   4.774   0.213  0.2409 -0.0685  0.5696
 1627TIP3    H1 4842   3.394   4.775   0.270 -1.5951 -2.8513 -1.6068
 1627TIP3    H2 4843   3.537   4.726   0.263 -1.0703 -1.7880  0.7293
 1628TIP3   OH2 4844   5.385   3.250   2.770 -0.0638  0.6727 -0.7440
 1628TIP3    H1 4845   5.462   3.194   2.778 -0.1444  0.5689 -0.6932
 1628TIP3    H2 4846   5.334   3.232   2.849 -0.7129 -0.1206 -1.3263
 1629TIP3   OH2 4847   6.342   5.152   5.977  0.0131 -0.2618 -0.3078
 1629TIP3    H1 4848   6.278   5.184   5.914 -0.4276 -0.0217  0.2552
 1629TIP3    H2 4849   6.300   5.165   6.062  0.8465 -0.0197  0.0731
 1630TIP3   OH2 4850   7.560   0.134   1.751 -0.0967 -0.0056 -0.2617
 1630TIP3    H1 4851   7.497   0.070   1.785  1.8800 -1.0205  1.7525
 1630TIP3    H2 4852   7.532   0.218   1.787 -1.1028 -0.1957 -0.5823
 1631TIP3   OH2 4853   1.665   1.149   6.233  0.3010  0.0005 -0.0956
 1631TIP3    H1 4854   1.576   1.139   6.198 -0.0238  1.8190  0.1041
 1631TIP3    H2 4855   1.706   1.215   6.177  1.4275 -0.5789  0.0140
 1632TIP3   OH2 4856   0.098   3.723   5.145 -0.0459 -0.4606 -0.2947
 1632TIP3    H1 4857   0.092   3.714   5.050 -0.7242 -0.2211 -0.2806
 1632TIP3    H2 4858   0.021   3.676   5.178  0.8977 -1.7214  0.2178
 1633TIP3   OH2 4859   5.226   1.147   5.229  0.2156 -0.4113  0.1338
 1633TIP3    H1 4860   5.238   1.233   5.190 -1.5842 -0.8931 -1.6543
 1633TIP3    H2 4861   5.230   1.086   5.154 -1.3301 -1.5767  0.9414
 1634TIP3   OH2 4862   5.206   0.809   0.165  0.6031  0.0857  0.0770
 1634TIP3    H1 4863   5.296   0.823   0.137  0.6255  0.2581  0.2364
 1634TIP3    H2 4864   5.175   0.736   0.111  0.4242  0.8471 -0.8905
 1635TIP3   OH2 4865   7.628   4.117   2.325  0.0662 -0.0920  0.0302
 1635TIP3    H1 4866   7.549   4.125   2.271  0.9425  0.7626 -1.1665
 1635TIP3    H2 4867   7.595   4.113   2.415 -1.4766 -2.2457 -0.5446
 1636TIP3   OH2 4868   6.362   5.849   4.808  0.1951  0.0228  0.4613
 1636TIP3    H1 4869   6.273   5.814   4.811  0.1192 -0.2546 -2.3263
 1636TIP3    H2 4870   6.416   5.784   4.854 -0.8463 -0.4641  1.0099
 1637TIP3   OH2 4871   1.421   3.860   1.558 -0.3468  0.3236  0.5622
 1637TIP3    H1 4872   1.474   3.823   1.487 -2.6612  0.0067 -1.0936
 1637TIP3    H2 4873   1.449   3.952   1.563 -0.8058  0.6301 -1.4945
 1638TIP3   OH2 4874   6.871   0.946   0.659  0.1623  0.0941  0.5475
 1638TIP3    H1 4875   6.955   0.960   0.615  0.3185  0.2065  0.8757
 1638TIP3    H2 4876   6.884   0.865   0.709  0.2247  0.3459  0.9461
 1639TIP3   OH2 4877   3.148   4.191   2.558 -0.7403 -0.0684  0.0484
 1639TIP3    H1 4878   3.095   4.206   2.636 -0.0812 -0.0954  0.5020
 1639TIP3    H2 4879   3.086   4.204   2.485 -1.0966  1.0896  0.5317
 1640TIP3   OH2 4880   3.404   5.112   3.018  0.2167 -0.2421 -0.2215
 1640TIP3    H1 4881   3.358   5.061   2.952  0.4914  0.5721 -1.0598
 1640TIP3    H2 4882   3.449   5.180   2.969  0.1867  0.5653  0.8357
 1641TIP3   OH2 4883   4.315   0.343   5.933  0.4393  0.2935  1.0951
 1641TIP3    H1 4884   4.349   0.426   5.900 -0.1550  0.1003 -0.0529
 1641TIP3    H2 4885   4.385   0.280   5.914  0.7265  0.4538  1.6046
 1642TIP3   OH2 4886   5.855   3.916   1.930  0.1472 -0.0166  0.0294
 1642TIP3    H1 4887   5.878   3.826   1.908  0.5795  0.3298 -0.9552
 1642TIP3    H2 4888   5.829   3.911   2.022 -0.5560 -1.2772 -0.2047
 1643TIP3   OH2 4889   2.898   0.811   3.772  0.3226  0.1406  0.4646
 1643TIP3    H1 4890   2.951   0.827   3.693  1.4779 -2.3953  0.5983
 1643TIP3    H2 4891   2.962   0.804   3.842 -0.5831  0.9460  1.4033
 1644TIP3   OH2 4892   0.600   1.238   5.521  0.5917  0.5733  0.8702
 1644TIP3    H1 4893   0.635   1.268   5.605 -0.3073 -2.2479  2.3940
 1644TIP3    H2 4894   0.509   1.268   5.521  0.0849 -0.8483  1.7741
 1645TIP3   OH2 4895   2.890   1.924   0.189  0.2774 -0.6218  0.0711
 1645TIP3    H1 4896   2.878   1.933   0.095 -0.2438 -1.5635  0.0390
 1645TIP3    H2 4897   2.806   1.948   0.227  0.5771  0.0556  0.3249
 1646TIP3   OH2 4898   2.743   3.812   5.266  0.1658  0.3607  0.2711
 1646TIP3    H1 4899   2.731   3.720   5.291  0.3483 -1.1008 -4.1217
 1646TIP3    H2 4900   2.816   3.842   5.320  1.8367 -2.9309  0.0573
 1647TIP3   OH2 4901   4.101   0.274   0.502 -0.0647  0.8418 -0.2107
 1647TIP3    H1 4902   4.036   0.344   0.508 -0.2117  0.6670  0.3961
 1647TIP3    H2 4903   4.070   0.217   0.432  0.1573  1.4813 -0.8325
 1648TIP3   OH2 4904   6.132   2.914   2.882  0.1561  0.8249  0.1837
 1648TIP3    H1 4905   6.178   2.833   2.903 -1.7996 -0.3867  0.0690
 1648TIP3    H2 4906   6.162   2.937   2.794 -0.3360 -0.6111 -0.3874
 1649TIP3   OH2 4907   0.169   0.244   2.595 -0.3084 -0.1814  0.1505
 1649TIP3    H1 4908   0.154   0.173   2.532 -2.3822  0.7751 -0.5065
 1649TIP3    H2 4909   0.246   0.289   2.561 -1.2034  0.1228 -1.5932
 1650TIP3   OH2 4910   3.626   1.961   1.469  0.1112 -0.7223  0.4637
 1650TIP3    H1 4911   3.593   2.044   1.433  1.8705 -0.7126 -1.3052
 1650TIP3    H2 4912   3.604   1.896   1.403  0.6633 -1.2706  0.8101
 1651TIP3   OH2 4913   1.764   6.852   0.197 -0.3947  0.0145 -0.0905
 1651TIP3    H1 4914   1.786   6.868   0.106  0.5528 -0.0068  0.1271
 1651TIP3    H2 4915   1.822   6.781   0.224 -0.7887 -0.1003  0.4801
 1652TIP3   OH2 4916   4.337   1.170   4.914 -0.1448 -0.0124 -0.1906
 1652TIP3    H1 4917   4.292   1.087   4.899  1.0344 -0.6493 -0.3182
 1652TIP3    H2 4918   4.413   1.147   4.967 -0.1831  1.1073  0.3836
 1653TIP3   OH2 4919   2.964   6.248   2.940 -0.1233 -0.5381 -0.4171
 1653TIP3    H1 4920   2.991   6.339   2.926 -0.1526  0.2347  3.4705
 1653TIP3    H2 4921   2.872   6.247   2.914 -0.8177  1.2751  1.6401
 1654TIP3   OH2 4922   6.809   0.527   2.235  0.6953 -0.8411 -0.1545
 1654TIP3    H1 4923   6.797   0.508   2.142 -1.1029 -0.2356 -0.0685
 1654TIP3    H2 4924   6.904   0.523   2.248  1.0004 -0.5598 -2.0838
 1655TIP3   OH2 4925   5.911   4.958   4.558  0.1865 -0.3218  0.5597
 1655TIP3    H1 4926   5.854   4.957   4.635  2.4089 -1.7266  2.3483
 1655TIP3    H2 4927   5.980   5.021   4.581  0.6959 -0.4905 -0.4524
 1656TIP3   OH2 4928   2.256   4.781   4.158 -0.0534 -0.1951 -0.0625
 1656TIP3    H1 4929   2.179   4.725   4.166  0.1946 -0.5556 -0.1715
 1656TIP3    H2 4930   2.316   4.732   4.102 -0.0376  0.4076 -0.5869
 1657TIP3   OH2 4931   1.701   4.175   4.533 -0.3331 -0.3379  0.0109
 1657TIP3    H1 4932   1.631   4.194   4.471 -0.5734 -0.5390  0.2203
 1657TIP3    H2 4933   1.660   4.119   4.599 -0.3227  0.5704  0.8227
 1658TIP3   OH2 4934   5.035   5.673   2.042 -0.1542 -0.0742 -0.0845
 1658TIP3    H1 4935   5.044   5.611   1.969  1.1706  0.1239 -0.1167
 1658TIP3    H2 4936   5.047   5.759   2.001 -1.5866  0.1940  0.0239
 1659TIP3   OH2 4937   3.791   1.054   3.707  0.3439 -0.1539  0.2914
 1659TIP3    H1 4938   3.723   1.052   3.775  0.7385 -0.2351  0.6841
 1659TIP3    H2 4939   3.839   0.972   3.718  0.0403 -0.4513 -0.4737
 1660TIP3   OH2 4940   7.164   1.328   4.102  0.0086 -0.1366  0.6801
 1660TIP3    H1 4941   7.211   1.410   4.094 -0.4923  0.0598 -0.5388
 1660TIP3    H2 4942   7.184   1.296   4.190  1.7970  0.2941  0.4571
 1661TIP3   OH2 4943   3.647   2.408   6.149 -0.3508 -0.0580  0.3683
 1661TIP3    H1 4944   3.631   2.315   6.165 -2.6756  0.5238  1.9196
 1661TIP3    H2 4945   3.739   2.420   6.171  0.0116 -1.9820  0.1072
 1662TIP3   OH2 4946   6.011   6.670   3.956 -0.6973  0.3281 -0.4417
 1662TIP3    H1 4947   5.998   6.760   3.984 -0.0259  0.1152  0.6436
 1662TIP3    H2 4948   5.941   6.653   3.894 -3.0341  0.4863  1.9728
 1663TIP3   OH2 4949   6.442   1.129   0.952  0.4022 -0.1160 -0.1550
 1663TIP3    H1 4950   6.364   1.089   0.992 -0.9046  0.7431 -1.7097
 1663TIP3    H2 4951   6.504   1.057   0.944 -0.2973 -0.8819  0.9259
 1664TIP3   OH2 4952   3.842   5.307   3.511  0.2996 -0.4290 -0.0685
 1664TIP3    H1 4953   3.916   5.246   3.507  0.0444 -0.7288 -0.2673
 1664TIP3    H2 4954   3.848   5.347   3.597  1.7815  0.9197 -0.7387
 1665TIP3   OH2 4955   1.969   3.370   1.731 -0.5590 -0.3856  0.0146
 1665TIP3    H1 4956   1.965   3.310   1.656  0.4711 -2.0782  1.2450
 1665TIP3    H2 4957   1.890   3.352   1.781  0.5305 -1.9573  1.2407
 1666TIP3   OH2 4958   2.279   6.130   2.595  0.1715 -0.0854  0.1862
 1666TIP3    H1 4959   2.185   6.122   2.609 -0.3083  0.2509 -2.4623
 1666TIP3    H2 4960   2.309   6.041   2.580  0.2125 -0.1389  0.5655
 1667TIP3   OH2 4961   2.132   1.380   0.825  0.2743 -0.3109  0.3010
 1667TIP3    H1 4962   2.227   1.384   0.814  0.1689  1.5195 -0.2057
 1667TIP3    H2 4963   2.119   1.359   0.917  1.2356  3.5167  1.4599
 1668TIP3   OH2 4964   1.908   6.487   4.428  0.3963  0.1851 -0.9481
 1668TIP3    H1 4965   1.913   6.554   4.360  0.3966  2.1758  0.9009
 1668TIP3    H2 4966   1.856   6.527   4.498 -0.5186 -2.1650 -0.1652
 1669TIP3   OH2 4967   1.371   1.037   1.096  0.2178 -0.2454  0.5795
 1669TIP3    H1 4968   1.330   1.038   1.009  1.2639 -1.7053  0.0235
 1669TIP3    H2 4969   1.308   1.081   1.153 -0.2981  1.1339 -0.9842
 1670TIP3   OH2 4970   0.978   2.820   0.479 -0.3836 -0.1825  0.2714
 1670TIP3    H1 4971   0.940   2.894   0.431 -2.5573 -2.1926 -1.3846
 1670TIP3    H2 4972   0.961   2.840   0.571 -1.3717  1.1478 -0.1703
 1671TIP3   OH2 4973   6.347   3.726   3.087  0.4266  0.4578  0.0410
 1671TIP3    H1 4974   6.268   3.672   3.078  0.3808  0.4653  0.4127
 1671TIP3    H2 4975   6.364   3.758   2.998 -0.3416  0.9578  0.0614
 1672TIP3   OH2 4976   3.044   1.828   4.300 -0.2133 -0.5949 -0.1838
 1672TIP3    H1 4977   3.052   1.916   4.337 -1.1137 -1.4152  2.1563
 1672TIP3    H2 4978   2.950   1.817   4.285  0.0442 -0.6381 -1.9513
 1673TIP3   OH2 4979   3.776   1.915   5.443  0.1829 -0.2013 -0.7530
 1673TIP3    H1 4980   3.750   1.936   5.353 -0.3942 -0.1600 -0.5843
 1673TIP3    H2 4981   3.838   1.843   5.434  3.7895  2.6801 -1.4971
 1674TIP3   OH2 4982   2.406   6.321   0.559  0.3076  0.2298  0.7870
 1674TIP3    H1 4983   2.491   6.279   0.551 -0.8322 -2.1028 -0.1988
 1674TIP3    H2 4984   2.414   6.403   0.511  1.4772 -0.8504 -0.9865
 1675TIP3   OH2 4985   4.244   4.871   4.024 -0.0368  0.0720  0.2447
 1675TIP3    H1 4986   4.215   4.784   3.994 -0.6419  0.4021 -0.1592
 1675TIP3    H2 4987   4.300   4.903   3.953  1.7084 -0.7259  1.1937
 1676TIP3   OH2 4988   1.512   6.708   5.145  0.0183  0.2564 -0.2819
 1676TIP3    H1 4989   1.457   6.786   5.147 -1.9774 -1.0188  3.0606
 1676TIP3    H2 4990   1.469   6.649   5.083  0.0218  0.8249 -0.8261
 1677TIP3   OH2 4991   7.130   2.190   1.742 -0.2330 -0.3825  0.1084
 1677TIP3    H1 4992   7.204   2.249   1.735  0.5495 -0.8705  3.1040
 1677TIP3    H2 4993   7.113   2.163   1.652  1.4497  1.8326 -0.9714
 1678TIP3   OH2 4994   6.093   6.453   5.621  0.0458 -0.3339 -0.3308
 1678TIP3    H1 4995   6.122   6.485   5.707  0.4839 -0.5762 -0.3856
 1678TIP3    H2 4996   6.122   6.521   5.559  0.6613 -0.6599 -0.4058
 1679TIP3   OH2 4997   2.902   5.299   0.058  0.0500 -0.3136 -0.1717
 1679TIP3    H1 4998   2.925   5.319   0.149 -0.6111 -0.6854  0.0778
 1679TIP3    H2 4999   2.845   5.223   0.063 -0.3027 -0.1052 -0.8708
 1680TIP3   OH2 5000   3.153   5.436   0.428 -0.0971 -0.0018 -0.1107
 1680TIP3    H1 5001   3.190   5.524   0.421 -0.0182  0.0161  0.4703
 1680TIP3    H2 5002   3.186   5.390   0.351 -1.4877  0.9499 -1.3183
 1681TIP3   OH2 5003   7.479   0.817   1.718 -0.5955 -0.0672 -0.3061
 1681TIP3    H1 5004   7.503   0.888   1.658  1.2335 -0.2204  0.1740
 1681TIP3    H2 5005   7.561   0.793   1.760 -1.5450 -1.1108  1.0335
 1682TIP3   OH2 5006   5.006   6.798   1.137  0.1852  0.1336 -0.0465
 1682TIP3    H1 5007   4.938   6.864   1.148 -0.7489 -1.0901  2.1399
 1682TIP3    H2 5008   5.053   6.797   1.220 -1.6109 -3.7258  1.1955
 1683TIP3   OH2 5009   3.997   3.608   4.606  0.8119  0.0663  0.0104
 1683TIP3    H1 5010   4.090   3.612   4.631  0.7468 -0.0761  0.2766
 1683TIP3    H2 5011   3.999   3.601   4.510  1.0550  0.7829 -0.0425
 1684TIP3   OH2 5012   0.956   2.647   0.254  0.1000 -0.1381 -0.1889
 1684TIP3    H1 5013   0.861   2.637   0.260  0.1362 -1.3283 -1.1744
 1684TIP3    H2 5014   0.977   2.716   0.317 -1.4364  0.3086 -0.1246
 1685TIP3   OH2 5015   5.972   4.432   0.787  0.3064  0.1422 -0.6957
 1685TIP3    H1 5016   5.926   4.515   0.785  0.5782  0.2910 -0.7700
 1685TIP3    H2 5017   5.920   4.374   0.731  1.3951  0.9245 -2.6254
 1686TIP3   OH2 5018   5.327   3.766   4.003  0.3721  0.1368 -0.5231
 1686TIP3    H1 5019   5.295   3.679   4.030  1.5643 -0.1685 -0.0322
 1686TIP3    H2 5020   5.313   3.769   3.909  0.0941 -0.4925 -0.5061
 1687TIP3   OH2 5021   6.562   2.081   1.561 -0.1908 -0.5016  0.0500
 1687TIP3    H1 5022   6.520   2.081   1.475 -0.2038 -0.4515  0.0565
 1687TIP3    H2 5023   6.491   2.069   1.623 -0.5814  2.2135  0.2461
 1688TIP3   OH2 5024   4.736   3.238   1.806 -0.1051 -0.2228 -0.0364
 1688TIP3    H1 5025   4.731   3.143   1.811  0.0322 -0.2664 -0.7181
 1688TIP3    H2 5026   4.821   3.256   1.766 -0.5272  0.1600 -0.7779
 1689TIP3   OH2 5027   5.265   4.368   1.584 -0.1780 -0.1339 -0.1538
 1689TIP3    H1 5028   5.215   4.416   1.518  0.3007  0.8104  0.1572
 1689TIP3    H2 5029   5.332   4.430   1.614  0.8301 -1.1920 -0.1627
 1690TIP3   OH2 5030   5.459   2.109   1.902  0.8077 -0.2476  0.3779
 1690TIP3    H1 5031   5.486   2.160   1.826  0.0643  0.9196  0.8594
 1690TIP3    H2 5032   5.489   2.159   1.978  0.0228 -0.4890  0.8703
 1691TIP3   OH2 5033   1.151   6.421   4.064  0.1145  0.7452 -0.1391
 1691TIP3    H1 5034   1.239   6.386   4.051 -0.1108  0.0600  0.1362
 1691TIP3    H2 5035   1.165   6.513   4.087  0.7360  0.7428 -0.4999
 1692TIP3   OH2 5036   6.476   5.195   1.158  0.5807  0.1078  0.1520
 1692TIP3    H1 5037   6.513   5.257   1.221 -1.4566  0.9216  0.6368
 1692TIP3    H2 5038   6.504   5.228   1.072  0.0473  1.3547  0.4399
 1693TIP3   OH2 5039   3.081   3.462   1.347 -0.4086 -0.2302  0.3080
 1693TIP3    H1 5040   3.048   3.376   1.374 -1.3376  0.2831  0.8824
 1693TIP3    H2 5041   3.009   3.500   1.296  0.0635  0.1277 -0.0933
 1694TIP3   OH2 5042   3.944   3.431   0.980 -0.8541 -0.1101  0.3361
 1694TIP3    H1 5043   4.010   3.491   1.016 -0.1921 -0.1256 -0.8036
 1694TIP3    H2 5044   3.874   3.432   1.045 -0.0364  0.4415  1.2505
 1695TIP3   OH2 5045   5.386   0.970   2.478  0.1057 -0.0781 -0.5049
 1695TIP3    H1 5046   5.306   0.922   2.457  0.2637  0.7933 -3.7258
 1695TIP3    H2 5047   5.455   0.903   2.475 -0.0928 -0.2585 -1.5630
 1696TIP3   OH2 5048   2.234   5.636   1.433  0.0869 -0.2679  0.2743
 1696TIP3    H1 5049   2.204   5.566   1.490 -1.2582 -0.2078 -0.3223
 1696TIP3    H2 5050   2.233   5.714   1.488 -0.6882 -0.3041  0.3158
 1697TIP3   OH2 5051   2.839   6.250   5.829 -0.9572 -0.2830 -0.1987
 1697TIP3    H1 5052   2.780   6.324   5.811 -0.2094  1.0120  2.2297
 1697TIP3    H2 5053   2.897   6.246   5.753 -0.6815  2.0048 -0.1792
 1698TIP3   OH2 5054   0.049   3.898   3.937  0.3814 -0.0822  0.5465
 1698TIP3    H1 5055   0.058   3.929   4.027 -1.7298  0.3229  0.6530
 1698TIP3    H2 5056   0.035   3.977   3.885 -0.2274 -0.4505  0.1302
 1699TIP3   OH2 5057   5.624   3.165   0.860 -0.2279 -0.1429 -0.1041
 1699TIP3    H1 5058   5.606   3.079   0.899 -0.9939  0.7651  1.6520
 1699TIP3    H2 5059   5.709   3.190   0.896 -0.0464 -0.1004 -0.5507
 1700TIP3   OH2 5060   2.301   4.667   5.291 -0.1807 -0.4608  0.0710
 1700TIP3    H1 5061   2.269   4.656   5.380  1.1443 -1.2281  0.4937
 1700TIP3    H2 5062   2.390   4.700   5.302  0.0522 -0.7088 -0.9625
 1701TIP3   OH2 5063   7.378   0.796   1.251 -0.2827  0.4195  0.2647
 1701TIP3    H1 5064   7.372   0.778   1.345 -1.5451 -3.2584 -0.3587
 1701TIP3    H2 5065   7.312   0.739   1.211  0.8233  1.1693 -2.9694
 1702TIP3   OH2 5066   0.384   0.139   1.218 -0.5198 -0.1081 -0.0638
 1702TIP3    H1 5067   0.302   0.136   1.268 -1.1018  0.3533 -0.9560
 1702TIP3    H2 5068   0.452   0.154   1.283 -1.3298  1.1419  0.5442
 1703TIP3   OH2 5069   4.557   3.763   5.253 -0.6258 -0.7850 -0.5840
 1703TIP3    H1 5070   4.632   3.703   5.249  1.2231  1.3133  0.4756
 1703TIP3    H2 5071   4.577   3.821   5.327 -0.8237  2.8988 -3.1487
 1704TIP3   OH2 5072   4.265   0.240   5.364 -0.0187 -0.1256  0.5048
 1704TIP3    H1 5073   4.270   0.200   5.451 -0.1317  0.7760  0.9322
 1704TIP3    H2 5074   4.232   0.170   5.308 -0.0046 -0.6978  1.1962
 1705TIP3   OH2 5075   3.364   1.773   1.655  0.0025 -0.2518  0.0545
 1705TIP3    H1 5076   3.288   1.714   1.649  0.3667 -0.9085  1.4815
 1705TIP3    H2 5077   3.331   1.857   1.625 -2.0908  0.1726  3.1226
 1706TIP3   OH2 5078   4.788   4.870   0.740 -0.6057 -0.4416 -0.4565
 1706TIP3    H1 5079   4.846   4.940   0.772 -0.4495 -1.2531  1.1385
 1706TIP3    H2 5080   4.831   4.837   0.662  0.1266  0.2219 -0.3463
 1707TIP3   OH2 5081   5.099   6.644   3.344 -0.6652 -0.3002  0.0685
 1707TIP3    H1 5082   5.142   6.728   3.360  0.4409 -1.3084  2.8145
 1707TIP3    H2 5083   5.024   6.644   3.404 -1.8351 -0.5387 -1.3165
 1708TIP3   OH2 5084   4.044   6.465   0.533 -0.3717  0.1763  0.0196
 1708TIP3    H1 5085   4.082   6.379   0.515 -1.6208 -0.4734  0.3586
 1708TIP3    H2 5086   4.092   6.525   0.476  1.9364 -0.3787  1.2453
 1709TIP3   OH2 5087   2.438   2.421   3.390  0.2417 -0.6913  0.3827
 1709TIP3    H1 5088   2.349   2.408   3.421  0.1376 -0.9021 -0.0017
 1709TIP3    H2 5089   2.454   2.348   3.330  0.5594 -0.4846  0.2106
 1710TIP3   OH2 5090   7.616   0.598   1.029 -0.1937 -0.8205 -0.1494
 1710TIP3    H1 5091   7.573   0.534   1.087 -0.6206 -2.1206 -1.8253
 1710TIP3    H2 5092   7.546   0.633   0.975 -0.0903  1.6787  1.1617
 1711TIP3   OH2 5093   2.886   5.066   4.811 -0.3164 -0.4070 -0.3436
 1711TIP3    H1 5094   2.888   5.156   4.843 -0.0235 -0.5494  0.0506
 1711TIP3    H2 5095   2.848   5.016   4.884  0.6699 -0.7905 -0.0808
 1712TIP3   OH2 5096   5.591   1.944   4.499 -0.2741 -0.3658  0.2128
 1712TIP3    H1 5097   5.680   1.920   4.473 -0.4616  0.6847 -1.5095
 1712TIP3    H2 5098   5.600   1.971   4.591  1.2190 -0.1206  0.0153
 1713TIP3   OH2 5099   3.695   2.463   4.653  0.2632  0.0388  0.9729
 1713TIP3    H1 5100   3.670   2.373   4.674  0.0009  0.1380  1.0852
 1713TIP3    H2 5101   3.746   2.491   4.729  1.6554 -0.5206  0.3000
 1714TIP3   OH2 5102   4.926   3.487   0.023  0.2638 -0.4950 -0.0565
 1714TIP3    H1 5103   4.962   3.575   0.010  1.9779 -1.3488 -1.5890
 1714TIP3    H2 5104   4.885   3.491   0.110  2.1919  1.2076  0.8801
 1715TIP3   OH2 5105   4.718   3.869   0.836 -0.3187 -0.1144  0.7245
 1715TIP3    H1 5106   4.624   3.872   0.818 -0.0885  1.3309 -0.5139
 1715TIP3    H2 5107   4.758   3.883   0.750  1.0167 -0.2526  1.3077
 1716TIP3   OH2 5108   7.503   6.515   5.717  0.0638 -0.2901  0.0123
 1716TIP3    H1 5109   7.432   6.532   5.655  0.0424 -0.1171  0.0834
 1716TIP3    H2 5110   7.480   6.566   5.795  0.7076  0.4669 -0.2830
 1717TIP3   OH2 5111   0.733   6.574   1.131 -0.1221  0.0344 -0.0686
 1717TIP3    H1 5112   0.724   6.646   1.068  2.1423 -0.4667 -1.0685
 1717TIP3    H2 5113   0.794   6.514   1.089 -1.0662 -1.9382  1.2481
 1718TIP3   OH2 5114   7.473   2.766   5.098  0.1563  0.5183  0.3120
 1718TIP3    H1 5115   7.509   2.753   5.010 -0.0126 -1.4765  0.5112
 1718TIP3    H2 5116   7.547   2.750   5.156 -0.3772 -0.9818  0.6186
 1719TIP3   OH2 5117   0.894   5.919   1.123 -0.0678 -0.5885  0.1301
 1719TIP3    H1 5118   0.808   5.958   1.111  0.4858  0.3175 -1.1873
 1719TIP3    H2 5119   0.953   5.977   1.075  1.2572 -1.2800  0.8594
 1720TIP3   OH2 5120   2.980   2.542   4.940  0.3160  0.0603  0.6189
 1720TIP3    H1 5121   3.000   2.633   4.918 -1.2267 -0.2183 -2.6191
 1720TIP3    H2 5122   3.065   2.498   4.939  0.9524  1.2451  1.0559
 1721TIP3   OH2 5123   4.658   3.156   1.438 -0.0218 -0.0468  0.1041
 1721TIP3    H1 5124   4.696   3.070   1.454 -0.8561  0.0670  3.4619
 1721TIP3    H2 5125   4.604   3.144   1.359  1.5116 -1.9664 -0.7325
 1722TIP3   OH2 5126   3.925   3.503   0.688  0.3102  0.3606  0.1637
 1722TIP3    H1 5127   4.019   3.500   0.675  0.5294  0.3384  1.5956
 1722TIP3    H2 5128   3.909   3.445   0.763 -0.5247  2.2248  1.5069
 1723TIP3   OH2 5129   3.918   6.666   5.930 -0.4385  0.6178 -0.4591
 1723TIP3    H1 5130   3.920   6.572   5.949  0.1025  0.1655 -2.4967
 1723TIP3    H2 5131   4.003   6.684   5.889 -1.1763  1.6288 -1.6007
 1724TIP3   OH2 5132   5.521   3.949   3.225  0.4702 -0.0020  0.3285
 1724TIP3    H1 5133   5.493   3.928   3.314 -0.4826 -1.2027 -0.2268
 1724TIP3    H2 5134   5.447   3.997   3.187  0.8728  0.5062  0.1752
 1725TIP3   OH2 5135   4.768   4.760   4.781 -0.2472 -0.4434 -0.3175
 1725TIP3    H1 5136   4.830   4.711   4.727 -1.4510 -2.9053  0.3687
 1725TIP3    H2 5137   4.791   4.737   4.871 -1.0061  0.0603  0.0192
 1726TIP3   OH2 5138   6.595   5.181   5.531 -0.2274  0.4049  0.6033
 1726TIP3    H1 5139   6.670   5.198   5.587  0.8208 -1.8203 -0.0266
 1726TIP3    H2 5140   6.552   5.105   5.570  0.1127 -0.7503 -1.1484
 1727TIP3   OH2 5141   6.566   4.988   0.908 -0.1024 -0.1590  0.1600
 1727TIP3    H1 5142   6.518   5.071   0.902  1.5509  0.8823  0.6165
 1727TIP3    H2 5143   6.591   4.968   0.817 -0.1646  0.0699  0.0912
 1728TIP3   OH2 5144   6.998   6.929   2.166 -0.8294 -0.1510 -0.1017
 1728TIP3    H1 5145   7.004   6.869   2.240  0.0600  0.4173  0.3086
 1728TIP3    H2 5146   6.987   6.872   2.089  1.9751 -1.0009  0.0230
 1729TIP3   OH2 5147   2.093   2.331   2.506 -0.5797 -0.1305 -0.3126
 1729TIP3    H1 5148   2.016   2.312   2.453 -0.1599  0.4139 -1.1369
 1729TIP3    H2 5149   2.156   2.367   2.444 -0.2667  1.0376  0.6567
 1730TIP3   OH2 5150   3.277   3.170   2.862 -0.5692 -0.4405 -0.0841
 1730TIP3    H1 5151   3.359   3.134   2.828 -0.5863 -0.2487 -0.3321
 1730TIP3    H2 5152   3.224   3.187   2.784 -0.8036 -0.4642  0.0682
 1731TIP3   OH2 5153   5.591   5.546   2.856  0.3179  0.2331  0.3525
 1731TIP3    H1 5154   5.513   5.566   2.908 -0.4026 -0.7015 -0.3324
 1731TIP3    H2 5155   5.616   5.458   2.884 -0.8205 -0.7977 -1.7401
 1732TIP3   OH2 5156   5.376   3.335   3.314 -0.4315 -0.2788 -0.4121
 1732TIP3    H1 5157   5.296   3.325   3.262  0.0809 -0.0623 -1.2672
 1732TIP3    H2 5158   5.353   3.300   3.400 -0.3665 -3.8074 -1.6389
 1733TIP3   OH2 5159   1.818   0.016   1.785 -0.0138 -0.1118  0.0387
 1733TIP3    H1 5160   1.882   0.010   1.856 -2.3913  1.7923  2.5877
 1733TIP3    H2 5161   1.743   0.060   1.825 -1.7569  0.5433 -3.5652
 1734TIP3   OH2 5162   2.108   3.922   2.519 -0.2485  0.2166 -0.2757
 1734TIP3    H1 5163   2.121   3.863   2.593 -0.2996  0.1743 -0.3000
 1734TIP3    H2 5164   2.173   3.894   2.455 -0.5315 -0.0698 -0.4428
 1735TIP3   OH2 5165   5.396   4.649   1.340 -0.6901  0.2608 -0.3911
 1735TIP3    H1 5166   5.444   4.729   1.362 -1.3163  0.6133 -0.2789
 1735TIP3    H2 5167   5.464   4.584   1.323 -0.1429  1.1284 -1.7149
 1736TIP3   OH2 5168   5.652   6.938   3.249  1.0087  0.0969  0.1530
 1736TIP3    H1 5169   5.702   7.007   3.291  2.0631  0.6872 -1.9489
 1736TIP3    H2 5170   5.576   6.982   3.210  0.5170 -0.2970  0.6372
 1737TIP3   OH2 5171   6.451   4.051   3.918 -0.1776 -0.5177  0.2768
 1737TIP3    H1 5172   6.379   4.068   3.857 -0.2187 -0.9901  0.1853
 1737TIP3    H2 5173   6.507   3.989   3.872 -0.6857 -1.5906  1.0636
 1738TIP3   OH2 5174   5.858   6.421   5.914  0.0491  0.0984  0.4035
 1738TIP3    H1 5175   5.823   6.475   5.984 -1.4442 -1.8296  1.2449
 1738TIP3    H2 5176   5.910   6.481   5.861 -0.4144  2.0330  2.0150
 1739TIP3   OH2 5177   4.586   7.079   4.679  0.3003 -0.2650 -0.4106
 1739TIP3    H1 5178   4.668   7.116   4.648  0.0817  0.7980  0.2247
 1739TIP3    H2 5179   4.521   7.108   4.615  0.4784 -1.5678 -1.2208
 1740TIP3   OH2 5180   1.192   4.309   1.388  0.1778 -0.0136  0.1198
 1740TIP3    H1 5181   1.253   4.347   1.325 -1.8912  1.7300 -0.9395
 1740TIP3    H2 5182   1.164   4.227   1.348 -0.1345  0.4490 -0.6158
 1741TIP3   OH2 5183   1.345   1.702   0.744  0.0844  0.4737 -0.0501
 1741TIP3    H1 5184   1.386   1.645   0.810 -2.1235 -2.0102 -0.6363
 1741TIP3    H2 5185   1.418   1.726   0.686  1.2726 -1.2963  0.5853
 1742TIP3   OH2 5186   2.165   0.807   0.105  0.3948  0.2200 -0.2488
 1742TIP3    H1 5187   2.200   0.887   0.144  1.2972  0.5604 -1.6854
 1742TIP3    H2 5188   2.083   0.834   0.064  0.2569  0.2071  0.0137
 1743TIP3   OH2 5189   0.533   5.131   1.352 -0.1361  0.0880  0.0319
 1743TIP3    H1 5190   0.460   5.132   1.413 -1.1396 -0.2718 -1.1276
 1743TIP3    H2 5191   0.609   5.155   1.405 -0.8992 -0.6065  1.4972
 1744TIP3   OH2 5192   2.095   5.453   0.088 -0.3822 -0.8110  0.3127
 1744TIP3    H1 5193   2.043   5.382   0.125  1.3770 -1.4348  1.7444
 1744TIP3    H2 5194   2.031   5.517   0.058 -2.0556 -0.2339  4.4710
 1745TIP3   OH2 5195   4.667   2.482   2.277 -0.1887  0.5526 -0.4055
 1745TIP3    H1 5196   4.617   2.453   2.354  0.3548  0.8505  0.0583
 1745TIP3    H2 5197   4.644   2.418   2.209 -0.7205  0.3242 -0.0176
 1746TIP3   OH2 5198   4.640   3.919   1.878  0.2636 -0.5940 -0.0331
 1746TIP3    H1 5199   4.719   3.875   1.846  0.1834 -0.5977 -0.2278
 1746TIP3    H2 5200   4.636   3.898   1.971  0.4175 -0.7082 -0.0533
 1747TIP3   OH2 5201   7.358   2.994   0.043  0.5440  0.2992  0.0633
 1747TIP3    H1 5202   7.312   3.000  -0.041  0.5037 -1.2392 -0.0536
 1747TIP3    H2 5203   7.291   3.017   0.108  1.2046  4.0660 -0.3652
 1748TIP3   OH2 5204   1.553   3.651   0.008 -0.2154 -0.3490 -0.0107
 1748TIP3    H1 5205   1.471   3.685   0.045 -1.4621 -1.3495 -1.7026
 1748TIP3    H2 5206   1.563   3.565   0.048  1.3225  0.6613  1.9597
 1749TIP3   OH2 5207   0.177   5.928   5.923  0.5643  0.0922  0.1791
 1749TIP3    H1 5208   0.150   5.838   5.906 -1.4444  0.4977  0.9356
 1749TIP3    H2 5209   0.251   5.921   5.983  0.7018 -1.0365 -0.1051
 1750TIP3   OH2 5210   7.453   3.693   0.813 -0.0964 -0.0347  0.2270
 1750TIP3    H1 5211   7.501   3.776   0.803  0.4203 -0.4268 -0.5967
 1750TIP3    H2 5212   7.361   3.720   0.816  0.0539  0.5587 -0.2037
 1751TIP3   OH2 5213   3.045   4.420   5.581 -0.1356 -0.1357 -0.2406
 1751TIP3    H1 5214   2.975   4.465   5.629  0.3603 -0.4350  0.7942
 1751TIP3    H2 5215   3.118   4.481   5.583 -0.3191  0.1421 -1.2537
 1752TIP3   OH2 5216   4.050   3.558   3.970  0.3933  0.2685  0.4133
 1752TIP3    H1 5217   4.085   3.520   4.050  1.3061  0.1861 -0.0192
 1752TIP3    H2 5218   4.042   3.485   3.909  0.7550  0.5182  0.0641
 1753TIP3   OH2 5219   2.035   3.456   0.056 -0.2435 -0.2022 -0.0015
 1753TIP3    H1 5220   2.000   3.369   0.037 -1.8336  0.0785  1.4159
 1753TIP3    H2 5221   2.045   3.457   0.151  1.8306  0.4459 -0.1815
 1754TIP3   OH2 5222   0.134   0.316   1.117  0.4947 -0.2078  0.2480
 1754TIP3    H1 5223   0.200   0.297   1.184  1.1647  0.5036 -0.1948
 1754TIP3    H2 5224   0.068   0.368   1.162 -0.1831 -1.5744  0.8901
 1755TIP3   OH2 5225   3.114   6.303   5.665  0.1448  0.4593  0.1886
 1755TIP3    H1 5226   3.164   6.273   5.741 -0.8625 -0.9714  0.3115
 1755TIP3    H2 5227   3.118   6.230   5.603  1.4710  1.8252 -1.4455
 1756TIP3   OH2 5228   1.316   3.591   3.802 -0.3234 -0.0014  0.1868
 1756TIP3    H1 5229   1.379   3.645   3.754  0.0159 -0.2801  0.3134
 1756TIP3    H2 5230   1.332   3.612   3.894  1.0165 -1.5899  0.3582
 1757TIP3   OH2 5231   0.723   0.577   5.004  0.2501  0.9583 -0.3549
 1757TIP3    H1 5232   0.649   0.594   5.063  0.2191  0.0811 -0.1257
 1757TIP3    H2 5233   0.771   0.659   5.002  1.3327  0.5044  2.4426
 1758TIP3   OH2 5234   7.581   1.426   5.789  0.0529 -0.4941  0.2569
 1758TIP3    H1 5235   7.588   1.518   5.816 -0.7091  0.4408 -2.4581
 1758TIP3    H2 5236   7.487   1.407   5.792  0.2383 -1.3654  1.2155
 1759TIP3   OH2 5237   6.876   0.967   1.048  0.2416 -0.1251  0.1027
 1759TIP3    H1 5238   6.848   0.996   1.135 -1.4306  2.0931 -1.0814
 1759TIP3    H2 5239   6.892   1.048   1.000  1.6392 -1.3040 -1.5374
 1760TIP3   OH2 5240   5.963   2.476   0.479  0.0408  0.1350  1.1846
 1760TIP3    H1 5241   6.055   2.493   0.462  0.4666 -1.0469  2.1547
 1760TIP3    H2 5242   5.956   2.474   0.575 -1.3253  1.8388  1.1772
 1761TIP3   OH2 5243   7.024   0.845   5.906 -0.2119  0.3359 -0.2733
 1761TIP3    H1 5244   7.104   0.811   5.866 -1.0257 -2.6336  0.3540
 1761TIP3    H2 5245   6.954   0.801   5.858 -1.3033 -0.7821  2.1866
 1762TIP3   OH2 5246   5.282   0.705   0.678 -0.1810 -0.4788  0.4904
 1762TIP3    H1 5247   5.259   0.622   0.719 -1.3422  0.1870  1.2358
 1762TIP3    H2 5248   5.230   0.771   0.725 -0.0043  0.5534 -0.7028
 1763TIP3   OH2 5249   1.480   0.051   1.604 -0.2158 -0.0607 -0.2175
 1763TIP3    H1 5250   1.540  -0.002   1.552  0.1689  1.1832 -1.0653
 1763TIP3    H2 5251   1.524   0.135   1.614 -1.4840  0.6262 -0.2329
 1764TIP3   OH2 5252   0.184   6.386   2.356 -0.6200 -0.1577 -0.1957
 1764TIP3    H1 5253   0.181   6.399   2.451  1.0527 -0.3139 -0.1061
 1764TIP3    H2 5254   0.188   6.291   2.344 -0.3686 -0.1232 -0.4002
 1765TIP3   OH2 5255   2.617   1.083   0.127 -0.2660  0.4813  0.0929
 1765TIP3    H1 5256   2.646   1.010   0.183 -2.4124 -0.7053 -0.2318
 1765TIP3    H2 5257   2.672   1.076   0.049  0.2955 -0.1062  0.5244
 1766TIP3   OH2 5258   1.570   3.319   2.096  0.5654 -0.0116 -0.3806
 1766TIP3    H1 5259   1.478   3.319   2.121  0.4618 -0.0731 -0.7634
 1766TIP3    H2 5260   1.583   3.237   2.049  1.3953 -1.2114  1.7755
 1767TIP3   OH2 5261   1.849   2.966   0.305 -0.9074  0.1220  0.5157
 1767TIP3    H1 5262   1.817   3.041   0.255 -1.9078 -0.3972  0.3613
 1767TIP3    H2 5263   1.804   2.973   0.390  0.8265  1.0373  1.4129
 1768TIP3   OH2 5264   3.635   4.115   2.604 -0.2884 -0.0043  0.1513
 1768TIP3    H1 5265   3.704   4.077   2.550 -0.6194 -0.5371  0.0858
 1768TIP3    H2 5266   3.676   4.189   2.649  0.0509  0.3130 -0.6637
 1769TIP3   OH2 5267   4.672   6.816   2.289 -0.1761  0.2601 -0.3110
 1769TIP3    H1 5268   4.730   6.889   2.309  1.6942 -1.3430  0.4165
 1769TIP3    H2 5269   4.633   6.839   2.204  0.7327  1.8575 -0.3278
 1770TIP3   OH2 5270   4.558   5.550   1.105  1.3521  0.5153 -0.2243
 1770TIP3    H1 5271   4.629   5.523   1.163  0.1495 -1.2569  0.4793
 1770TIP3    H2 5272   4.586   5.520   1.018  1.5439 -0.0173  0.0162
 1771TIP3   OH2 5273   0.869   5.643   2.109 -0.0980 -0.1656  0.2296
 1771TIP3    H1 5274   0.883   5.700   2.033 -0.7964 -0.1633  0.1028
 1771TIP3    H2 5275   0.789   5.594   2.089 -0.1139 -0.3950  0.8269
 1772TIP3   OH2 5276   2.374   3.531   6.002 -0.1631 -0.7214  0.4328
 1772TIP3    H1 5277   2.399   3.543   6.094 -0.4928  1.2612  0.3113
 1772TIP3    H2 5278   2.279   3.521   6.003 -1.1099  4.9354  0.0891
 1773TIP3   OH2 5279   6.705   4.183   5.939 -0.5245 -0.4454  0.2296
 1773TIP3    H1 5280   6.686   4.089   5.933  1.5188 -1.1070  2.2449
 1773TIP3    H2 5281   6.675   4.208   6.027  0.1977  0.4182  0.2518
 1774TIP3   OH2 5282   5.369   5.374   5.493 -0.0469  0.2787 -0.1571
 1774TIP3    H1 5283   5.465   5.377   5.488 -0.0382  0.2592 -0.0104
 1774TIP3    H2 5284   5.342   5.333   5.411  0.1756 -1.4229  0.5723
 1775TIP3   OH2 5285   2.128   0.294   1.877  0.5422 -0.2412 -0.2646
 1775TIP3    H1 5286   2.114   0.232   1.805 -1.2317 -1.9755  1.4630
 1775TIP3    H2 5287   2.214   0.270   1.912  1.4112  0.5977 -1.7019
 1776TIP3   OH2 5288   6.998   5.806   1.207  0.2453  0.6946 -0.2443
 1776TIP3    H1 5289   6.955   5.740   1.261 -0.2530 -0.2978 -1.7933
 1776TIP3    H2 5290   6.991   5.887   1.257 -0.1611 -0.1909  1.1754
 1777TIP3   OH2 5291   0.399   5.048   1.113 -0.5874 -0.1992 -0.0220
 1777TIP3    H1 5292   0.345   4.972   1.134 -0.7387  0.1348  0.8390
 1777TIP3    H2 5293   0.438   5.074   1.197  0.4750 -0.0953 -0.5315
 1778TIP3   OH2 5294   1.229   0.143   0.786  0.4333 -0.4787 -0.2141
 1778TIP3    H1 5295   1.185   0.195   0.719 -1.7099 -0.2285  1.2882
 1778TIP3    H2 5296   1.159   0.091   0.826  1.5015 -0.1768  2.2199
 1779TIP3   OH2 5297   4.163   1.996   0.413 -0.0658 -0.5115  0.3144
 1779TIP3    H1 5298   4.168   1.918   0.468 -0.0805 -0.1965  0.7639
 1779TIP3    H2 5299   4.234   2.052   0.443  0.3088 -0.5934 -0.3978
 1780TIP3   OH2 5300   1.494   1.005   3.596  0.3430  0.2975  0.6655
 1780TIP3    H1 5301   1.491   0.943   3.668 -1.3704  0.4707  0.7868
 1780TIP3    H2 5302   1.415   1.059   3.607  0.2339  0.5786 -1.0929
 1781TIP3   OH2 5303   1.939   6.329   0.447 -0.1559  0.2539  0.1515
 1781TIP3    H1 5304   2.019   6.381   0.453  0.6401 -0.9103 -0.0873
 1781TIP3    H2 5305   1.908   6.342   0.357  0.7599 -0.6853 -0.3185
 1782TIP3   OH2 5306   2.798   3.518   3.092 -0.2804  0.1798 -0.3252
 1782TIP3    H1 5307   2.822   3.555   3.178  0.3678 -0.9521 -0.0015
 1782TIP3    H2 5308   2.736   3.582   3.056 -1.0413  0.4047  1.2446
 1783TIP3   OH2 5309   1.051   2.601   3.108 -0.1380 -0.2823  0.1647
 1783TIP3    H1 5310   1.029   2.513   3.078 -0.8353  0.2603 -1.0220
 1783TIP3    H2 5311   1.127   2.627   3.056 -1.0381  0.4736 -0.8270
 1784TIP3   OH2 5312   5.731   7.080   2.289  0.2129  0.1094 -0.2771
 1784TIP3    H1 5313   5.698   7.117   2.208 -1.6142 -0.1021  0.3249
 1784TIP3    H2 5314   5.681   7.123   2.358  1.8174  0.3931  0.7833
 1785TIP3   OH2 5315   5.106   1.674   2.308  0.0635  0.1110 -0.3470
 1785TIP3    H1 5316   5.051   1.607   2.267  0.2336  0.1560 -0.6578
 1785TIP3    H2 5317   5.119   1.645   2.398 -0.2890 -0.0110 -0.3354
 1786TIP3   OH2 5318   4.614   4.037   2.912  0.8320  0.5739  0.1774
 1786TIP3    H1 5319   4.705   4.054   2.937  0.2606  2.3572  1.2660
 1786TIP3    H2 5320   4.620   4.002   2.823  2.5909  0.3508  0.3343
 1787TIP3   OH2 5321   0.559   5.933   1.038  0.1934  0.1208 -0.3438
 1787TIP3    H1 5322   0.510   5.869   1.089  0.1206  0.6280  0.2267
 1787TIP3    H2 5323   0.539   6.017   1.079  0.7815  0.4388 -0.6997
 1788TIP3   OH2 5324   4.205   3.507   2.843  0.1662  0.1472  0.0187
 1788TIP3    H1 5325   4.111   3.523   2.848  0.1424 -0.2430  3.4078
 1788TIP3    H2 5326   4.212   3.421   2.801 -0.9634  0.2264 -0.3688
 1789TIP3   OH2 5327   2.986   3.288   4.428  0.0356  0.3913 -0.1294
 1789TIP3    H1 5328   2.927   3.349   4.472  1.5026  0.3598  2.0644
 1789TIP3    H2 5329   2.933   3.212   4.409 -0.5447  0.0404  2.5063
 1790TIP3   OH2 5330   1.481   2.643   4.687  0.7289  0.2859  0.1832
 1790TIP3    H1 5331   1.392   2.614   4.706  1.4353 -1.7453  0.5418
 1790TIP3    H2 5332   1.472   2.694   4.606 -0.6214 -0.7090 -0.3334
 1791TIP3   OH2 5333   0.865   5.671   0.275 -0.2554  0.3210 -0.0690
 1791TIP3    H1 5334   0.855   5.669   0.370  2.4899 -0.2779  0.3041
 1791TIP3    H2 5335   0.865   5.765   0.253 -0.0569  0.4958  0.6573
 1792TIP3   OH2 5336   2.164   3.922   5.707  0.2310  0.2905  0.1746
 1792TIP3    H1 5337   2.133   3.924   5.798  2.8335  2.3193  1.1498
 1792TIP3    H2 5338   2.220   3.844   5.703 -0.3071 -0.0972  0.1417
 1793TIP3   OH2 5339   4.519   4.416   0.910 -0.1737  0.8534  0.4081
 1793TIP3    H1 5340   4.539   4.500   0.869  0.3135  0.8699  0.6703
 1793TIP3    H2 5341   4.518   4.354   0.837  3.2262  0.4212  0.5596
 1794TIP3   OH2 5342   6.022   1.895   2.586  0.5693  0.0071  0.5273
 1794TIP3    H1 5343   5.984   1.903   2.673  0.5316  0.3092  0.4856
 1794TIP3    H2 5344   6.041   1.985   2.560  1.1676 -0.1275  0.4859
 1795TIP3   OH2 5345   6.069   3.449   1.985 -0.0328  0.1818  0.2884
 1795TIP3    H1 5346   6.037   3.377   1.930 -0.0924  1.4197 -1.3977
 1795TIP3    H2 5347   6.157   3.422   2.011  0.2391 -0.1847 -0.9508
 1796TIP3   OH2 5348   1.181   0.130   2.194 -0.2106 -0.4131  0.3724
 1796TIP3    H1 5349   1.107   0.177   2.231 -0.1121  0.1373 -0.1236
 1796TIP3    H2 5350   1.254   0.149   2.254 -0.0380  0.5209 -0.1221
 1797TIP3   OH2 5351   7.173   5.817   3.595 -0.5873  0.0864  0.1522
 1797TIP3    H1 5352   7.196   5.749   3.658  0.1000 -0.5505 -0.7691
 1797TIP3    H2 5353   7.257   5.854   3.567 -0.9066  0.6280 -0.1184
 1798TIP3   OH2 5354   7.548   6.807   3.127  0.2142  0.1569 -0.1900
 1798TIP3    H1 5355   7.471   6.755   3.105  0.2409  0.5637 -1.3625
 1798TIP3    H2 5356   7.563   6.792   3.220 -0.5634 -0.8698 -0.2193
 1799TIP3   OH2 5357   0.570   6.173   4.021 -0.1515 -0.3945 -0.2849
 1799TIP3    H1 5358   0.536   6.115   3.953  0.7571  0.0345 -1.1414
 1799TIP3    H2 5359   0.648   6.128   4.054  0.1723  0.0110 -0.4793
 1800TIP3   OH2 5360   1.375   5.961   4.456 -0.0323  0.6558 -0.3314
 1800TIP3    H1 5361   1.415   6.025   4.398  0.4959 -0.5831 -1.3872
 1800TIP3    H2 5362   1.439   5.948   4.526  0.6029  0.0681 -1.0088
 1801TIP3   OH2 5363   0.186   3.107   5.400 -0.6483 -0.1129 -0.1930
 1801TIP3    H1 5364   0.115   3.146   5.349 -0.1904  0.9992 -0.0125
 1801TIP3    H2 5365   0.265   3.126   5.349 -0.1473  1.2279  0.9913
 1802TIP3   OH2 5366   3.593   6.326   4.712 -0.2677 -0.0618  0.2166
 1802TIP3    H1 5367   3.567   6.363   4.797  0.8695  1.1800  0.0657
 1802TIP3    H2 5368   3.669   6.271   4.733 -0.0206  0.2026  0.0186
 1803TIP3   OH2 5369   2.394   4.592   0.733  0.1846  0.1526 -0.2577
 1803TIP3    H1 5370   2.418   4.523   0.671  2.7183  2.5852 -2.2257
 1803TIP3    H2 5371   2.310   4.624   0.700  0.8415  0.5060 -1.6326
 1804TIP3   OH2 5372   6.374   2.107   5.261 -0.0437 -0.0191 -0.1566
 1804TIP3    H1 5373   6.358   2.118   5.355  0.1472  0.5959 -0.1941
 1804TIP3    H2 5374   6.376   2.196   5.226 -0.1601 -0.2485 -0.7550
 1805TIP3   OH2 5375   3.534   6.031   5.807  0.5802  0.3690 -0.1418
 1805TIP3    H1 5376   3.609   5.971   5.805  1.2490  1.1148  1.1822
 1805TIP3    H2 5377   3.466   5.983   5.852  1.1023  0.5684  0.8836
 1806TIP3   OH2 5378   6.595   4.382   6.112 -0.1872 -0.0462  0.3950
 1806TIP3    H1 5379   6.499   4.380   6.106 -0.1136 -1.2323 -0.6460
 1806TIP3    H2 5380   6.612   4.414   6.201 -1.5203  1.9890 -0.0127
 1807TIP3   OH2 5381   2.920   5.250   5.919 -0.2008 -0.2503 -0.5029
 1807TIP3    H1 5382   2.915   5.295   6.003  0.0645 -0.8408 -0.1657
 1807TIP3    H2 5383   2.892   5.316   5.855 -1.5870 -0.1550  0.1579
 1808TIP3   OH2 5384   4.002   2.235   1.837  0.4422  0.1979  0.4416
 1808TIP3    H1 5385   4.075   2.297   1.844  0.1072  0.6267  0.2226
 1808TIP3    H2 5386   4.036   2.153   1.873  0.3722  0.9538  2.3729
 1809TIP3   OH2 5387   5.910   5.942   2.027 -0.5189 -0.3537  0.2471
 1809TIP3    H1 5388   5.865   5.904   1.951 -2.6400  1.3566  0.5357
 1809TIP3    H2 5389   5.841   5.991   2.073  1.3486  1.0835  1.6565
 1810TIP3   OH2 5390   4.953   6.778   5.124 -0.1745  0.0389 -0.1312
 1810TIP3    H1 5391   4.998   6.716   5.066  1.5581  0.6156  0.5275
 1810TIP3    H2 5392   4.865   6.742   5.133  0.0499 -1.0362 -1.6576
 1811TIP3   OH2 5393   5.346   2.708   3.765  0.5401  0.1219  0.0982
 1811TIP3    H1 5394   5.309   2.761   3.836  0.7245 -0.7707  0.8834
 1811TIP3    H2 5395   5.293   2.730   3.689 -0.3443  0.3292  0.7532
 1812TIP3   OH2 5396   7.472   6.730   4.720 -0.2617  0.0241  0.5609
 1812TIP3    H1 5397   7.488   6.639   4.747  0.3369 -0.0815 -0.1316
 1812TIP3    H2 5398   7.378   6.743   4.735 -0.4476 -0.8606  0.2185
 1813TIP3   OH2 5399   1.452   2.263   0.182 -0.3434 -0.2935  0.5752
 1813TIP3    H1 5400   1.486   2.342   0.223 -0.7891  0.7553 -0.9718
 1813TIP3    H2 5401   1.489   2.191   0.233  0.7773  0.8901  1.4875
 1814TIP3   OH2 5402   0.519   4.274   5.018 -0.3630  0.5428 -0.2456
 1814TIP3    H1 5403   0.432   4.305   5.042 -0.5831  0.4043 -0.8443
 1814TIP3    H2 5404   0.579   4.322   5.075 -0.8661  0.2078  0.5729
 1815TIP3   OH2 5405   4.324   1.522   1.528  0.2940  0.3142 -0.2521
 1815TIP3    H1 5406   4.240   1.566   1.516  0.2897  0.3724 -0.0263
 1815TIP3    H2 5407   4.389   1.589   1.505  0.2914  0.4971  0.2455
 1816TIP3   OH2 5408   6.515   6.340   5.718  0.6015  0.1326 -0.3660
 1816TIP3    H1 5409   6.481   6.335   5.808 -1.3287 -0.3026 -1.0780
 1816TIP3    H2 5410   6.493   6.429   5.690 -0.2690 -0.2412 -0.9249
 1817TIP3   OH2 5411   2.925   2.810   2.141 -0.1082  0.2128 -0.0434
 1817TIP3    H1 5412   2.859   2.753   2.102  0.4073 -0.9526  0.7640
 1817TIP3    H2 5413   2.904   2.810   2.235 -0.1748  1.4648 -0.0420
 1818TIP3   OH2 5414   4.530   2.490   1.015  0.0745  0.7835  0.8788
 1818TIP3    H1 5415   4.528   2.532   0.929 -0.6432  0.6811  0.8384
 1818TIP3    H2 5416   4.462   2.536   1.066 -0.1962  0.1823  1.0697
 1819TIP3   OH2 5417   4.674   6.382   5.048  0.7205  0.5468 -0.2108
 1819TIP3    H1 5418   4.581   6.389   5.070  0.5236 -0.2838 -0.7150
 1819TIP3    H2 5419   4.676   6.383   4.952  0.9208 -2.1940 -0.3298
 1820TIP3   OH2 5420   6.538   4.636   0.214  0.0148  0.0664 -0.2450
 1820TIP3    H1 5421   6.550   4.549   0.176 -1.0965  0.0793 -0.6645
 1820TIP3    H2 5422   6.559   4.625   0.307  2.6276  0.0056 -0.7896
 1821TIP3   OH2 5423   3.554   3.104   3.191  0.1122  0.3337  0.8300
 1821TIP3    H1 5424   3.596   3.078   3.108  0.1018  1.9624  0.2659
 1821TIP3    H2 5425   3.625   3.102   3.255  0.0101 -1.4607  0.9358
 1822TIP3   OH2 5426   5.942   1.274   0.731  0.0022  0.0738 -0.3894
 1822TIP3    H1 5427   5.851   1.301   0.723 -0.6112 -1.8906 -0.7131
 1822TIP3    H2 5428   5.982   1.298   0.647 -0.4382  0.2108 -0.5612
 1823TIP3   OH2 5429   4.356   6.932   1.294 -0.5899 -0.3397  0.4340
 1823TIP3    H1 5430   4.366   6.907   1.202  0.8725 -0.5281  0.6318
 1823TIP3    H2 5431   4.340   7.026   1.292  0.2878 -0.1979  0.0270
 1824TIP3   OH2 5432   0.403   2.205   6.079  0.6577 -0.0468  0.2226
 1824TIP3    H1 5433   0.404   2.110   6.072  2.2787 -0.1050  0.8358
 1824TIP3    H2 5434   0.349   2.234   6.005  2.5866 -1.3415 -1.8110
 1825TIP3   OH2 5435   5.838   6.451   0.056 -0.2024 -0.3665 -0.2474
 1825TIP3    H1 5436   5.872   6.362   0.051 -0.0320 -0.2695 -0.8527
 1825TIP3    H2 5437   5.915   6.506   0.074 -0.5468 -0.5140  1.9841
 1826TIP3   OH2 5438   6.931   3.426   3.958  0.0260  0.1558 -0.0768
 1826TIP3    H1 5439   6.922   3.399   3.866 -1.5999  0.8982 -0.1658
 1826TIP3    H2 5440   6.980   3.508   3.953 -0.7447  0.6092 -0.3655
 1827TIP3   OH2 5441   6.114   6.088   5.221 -0.0189  0.4150 -0.0648
 1827TIP3    H1 5442   6.142   6.129   5.139 -0.8912  0.1954 -0.4839
 1827TIP3    H2 5443   6.178   6.018   5.236  0.4938  0.8409 -0.2377
 1828TIP3   OH2 5444   5.086   1.116   1.569 -0.9350  0.0766 -0.2343
 1828TIP3    H1 5445   5.177   1.109   1.540 -1.0726  0.1063 -0.6888
 1828TIP3    H2 5446   5.045   1.171   1.502 -1.6450 -1.1878 -0.8591
 1829TIP3   OH2 5447   4.162   6.633   2.807 -0.0589 -0.7073  0.2664
 1829TIP3    H1 5448   4.248   6.612   2.845 -0.5056 -0.1587  1.6669
 1829TIP3    H2 5449   4.118   6.549   2.798 -0.2795 -0.8051  1.8952
 1830TIP3   OH2 5450   2.836   6.489   3.180  0.4580 -0.8585  0.1378
 1830TIP3    H1 5451   2.925   6.482   3.214  0.9191  1.4869 -0.3603
 1830TIP3    H2 5452   2.790   6.545   3.243 -0.6000 -1.8033  0.2358
 1831TIP3   OH2 5453   1.905   4.360   1.910  0.2356 -0.3172 -0.0687
 1831TIP3    H1 5454   1.919   4.453   1.928 -1.9628 -0.1650  1.2083
 1831TIP3    H2 5455   1.977   4.336   1.852  0.2229  2.4491 -1.3818
 1832TIP3   OH2 5456   4.231   5.298   4.229  0.2768  0.2122  0.3325
 1832TIP3    H1 5457   4.142   5.264   4.233  0.7125 -1.0552 -0.1795
 1832TIP3    H2 5458   4.221   5.393   4.231 -1.1207  0.1004 -0.4188
 1833TIP3   OH2 5459   4.826   3.102   0.352  0.0021  0.7376 -0.4509
 1833TIP3    H1 5460   4.805   3.023   0.401 -0.2548  0.0032 -1.7081
 1833TIP3    H2 5461   4.919   3.095   0.332 -0.2632  0.1653 -1.5537
 1834TIP3   OH2 5462   1.436   6.689   1.596 -0.2825 -0.4193 -0.5139
 1834TIP3    H1 5463   1.378   6.623   1.556 -0.5427 -0.1325 -0.6114
 1834TIP3    H2 5464   1.497   6.712   1.526  0.9757 -1.8825  0.0440
 1835TIP3   OH2 5465   1.548   2.360   1.378  0.0375 -0.3012 -0.0086
 1835TIP3    H1 5466   1.542   2.447   1.419  0.6032 -0.0947 -0.3507
 1835TIP3    H2 5467   1.578   2.378   1.289  0.7889 -0.8937  0.1192
 1836TIP3   OH2 5468   3.855   5.329   1.223 -0.0202  0.1720 -0.3214
 1836TIP3    H1 5469   3.892   5.403   1.271 -1.1087  0.7069 -0.2760
 1836TIP3    H2 5470   3.768   5.317   1.262  0.9337 -2.5778  1.2496
 1837TIP3   OH2 5471   6.398   5.831   2.327  0.3636  0.8026 -0.2668
 1837TIP3    H1 5472   6.473   5.876   2.366  0.8054  0.4005 -0.6492
 1837TIP3    H2 5473   6.417   5.827   2.234 -0.1083  0.6564 -0.3600
 1838TIP3   OH2 5474   5.323   5.948   1.324  0.3000 -0.0699  0.2044
 1838TIP3    H1 5475   5.338   5.939   1.229 -0.8809 -0.3951  0.0325
 1838TIP3    H2 5476   5.228   5.955   1.332  0.3931 -0.0811  1.3804
 1839TIP3   OH2 5477   5.891   3.449   3.028  0.2308  0.5131  0.2934
 1839TIP3    H1 5478   5.873   3.383   2.961 -1.1037  0.4113  0.7324
 1839TIP3    H2 5479   5.859   3.410   3.110 -1.3191  1.9894  0.4472
 1840TIP3   OH2 5480   3.175   5.105   3.365  0.2473  0.0025 -1.1159
 1840TIP3    H1 5481   3.126   5.054   3.429 -0.6728  0.0113 -1.7806
 1840TIP3    H2 5482   3.252   5.136   3.412 -0.7220  0.5587  0.1727
 1841TIP3   OH2 5483   0.532   0.032   3.707  0.1961  0.2921 -0.1846
 1841TIP3    H1 5484   0.450   0.081   3.697 -0.1064 -0.4578 -1.7030
 1841TIP3    H2 5485   0.554   0.005   3.618  0.1010 -2.6784  0.6059
 1842TIP3   OH2 5486   1.577   0.431   2.143 -0.1072 -0.0581 -0.2196
 1842TIP3    H1 5487   1.491   0.474   2.141 -0.5108 -0.6418  2.1769
 1842TIP3    H2 5488   1.634   0.492   2.188  0.3014 -0.4228 -0.2358
 1843TIP3   OH2 5489   3.999   5.514   5.904  0.0974 -0.7026 -0.1523
 1843TIP3    H1 5490   4.065   5.447   5.887  0.1520 -0.8890  0.7491
 1843TIP3    H2 5491   3.922   5.466   5.935 -0.2669 -0.4390 -0.6208
 1844TIP3   OH2 5492   0.984   3.351   3.105  0.0702 -0.6933 -0.2013
 1844TIP3    H1 5493   0.992   3.348   3.200 -1.4290 -0.8787 -0.0451
 1844TIP3    H2 5494   1.010   3.440   3.081  1.1318 -0.8581  0.2911
 1845TIP3   OH2 5495   1.338   0.112   5.254  0.1083 -0.1992  0.5223
 1845TIP3    H1 5496   1.260   0.057   5.252 -0.4635  0.6031  0.0782
 1845TIP3    H2 5497   1.320   0.178   5.322 -0.7400  1.5530 -1.2937
 1846TIP3   OH2 5498   2.869   1.585   5.560 -0.5019  0.1892  0.1101
 1846TIP3    H1 5499   2.938   1.649   5.544 -1.4903  0.8169 -2.0018
 1846TIP3    H2 5500   2.825   1.576   5.476 -1.3073 -2.2179  0.7157
 1847TIP3   OH2 5501   3.747   1.211   1.604  0.2474 -0.3138 -0.3870
 1847TIP3    H1 5502   3.677   1.170   1.655  0.6334 -1.4576 -0.7447
 1847TIP3    H2 5503   3.812   1.238   1.669  0.3858 -1.0665 -0.2064
 1848TIP3   OH2 5504   4.350   4.288   3.947 -0.1920 -0.3191  0.1125
 1848TIP3    H1 5505   4.445   4.301   3.955 -0.2453 -0.6883  1.4880
 1848TIP3    H2 5506   4.333   4.302   3.854  0.9422  1.4765  0.1113
 1849TIP3   OH2 5507   2.659   6.890   1.104  0.3234  0.5307 -0.1571
 1849TIP3    H1 5508   2.678   6.932   1.020  0.4572 -1.0045 -0.9421
 1849TIP3    H2 5509   2.572   6.853   1.093 -0.5425  2.0788  1.1557
 1850TIP3   OH2 5510   4.394   4.107   3.495 -0.0181 -0.2949 -0.0771
 1850TIP3    H1 5511   4.340   4.137   3.422  0.5945  0.9395 -0.0621
 1850TIP3    H2 5512   4.399   4.012   3.485  2.4269 -0.0041 -3.4277
 1851TIP3   OH2 5513   1.595   6.927   3.858 -0.0630  0.5387 -0.5220
 1851TIP3    H1 5514   1.686   6.931   3.829  0.4713 -0.1153  0.9929
 1851TIP3    H2 5515   1.599   6.889   3.946 -1.5407  3.0832  0.7388
 1852TIP3   OH2 5516   3.781   2.944   2.572 -0.8401 -0.0772  0.7470
 1852TIP3    H1 5517   3.754   2.861   2.532 -1.7169 -0.3029  1.7660
 1852TIP3    H2 5518   3.784   2.926   2.666 -1.8647  1.2491  1.0693
 1853TIP3   OH2 5519   6.580   3.936   1.329  0.1271 -0.0486  0.2145
 1853TIP3    H1 5520   6.635   3.898   1.397  0.9433 -3.5856 -2.0967
 1853TIP3    H2 5521   6.491   3.930   1.363  0.5466 -1.4316  1.1551
 1854TIP3   OH2 5522   6.357   4.459   6.013  0.4700 -0.0553  0.6314
 1854TIP3    H1 5523   6.419   4.531   6.004 -0.2069  0.3054 -1.9064
 1854TIP3    H2 5524   6.285   4.496   6.063  1.0669  0.3490  1.2207
 1855TIP3   OH2 5525   1.365   7.025   2.454  0.0506  0.6813  0.4858
 1855TIP3    H1 5526   1.350   6.992   2.365  0.9869 -1.1749  0.9652
 1855TIP3    H2 5527   1.399   7.113   2.441  3.6243 -0.7674 -1.2315
 1856TIP3   OH2 5528   0.101   0.093   0.586  0.5252  0.1428  0.4291
 1856TIP3    H1 5529   0.141   0.008   0.604  1.9486  0.9012  1.0525
 1856TIP3    H2 5530   0.017   0.090   0.632  0.8573 -0.6797  1.0069
 1857TIP3   OH2 5531   0.185   0.088   2.817  0.3406 -0.0838  0.1705
 1857TIP3    H1 5532   0.161   0.133   2.736 -0.2800  1.2912  1.0925
 1857TIP3    H2 5533   0.266   0.131   2.844  0.2118 -0.1203  0.6085
 1858TIP3   OH2 5534   4.990   3.241   3.964  0.3701 -0.4287  0.0229
 1858TIP3    H1 5535   5.085   3.236   3.950  0.3890 -2.0626  0.4615
 1858TIP3    H2 5536   4.955   3.270   3.880  1.3182  1.2114  0.1628
 1859TIP3   OH2 5537   6.415   3.899   5.160  0.3556  0.0308  0.7364
 1859TIP3    H1 5538   6.459   3.891   5.076 -1.7225  0.1491 -0.4225
 1859TIP3    H2 5539   6.443   3.822   5.209  0.4583 -0.8215 -0.6171
 1860TIP3   OH2 5540   6.054   4.129   0.288  0.6541 -0.0950  0.5776
 1860TIP3    H1 5541   6.096   4.178   0.218  0.1204 -1.4496 -0.7667
 1860TIP3    H2 5542   6.028   4.195   0.352  2.2701  1.0485  0.1111
 1861TIP3   OH2 5543   7.619   4.286   2.086 -0.4563  0.2468  0.1841
 1861TIP3    H1 5544   7.583   4.298   1.998 -1.8541 -1.9452  0.3761
 1861TIP3    H2 5545   7.567   4.343   2.142  1.0517  2.3729 -0.4735
 1862TIP3   OH2 5546   1.466   1.815   4.224  0.2156 -0.2168  0.4249
 1862TIP3    H1 5547   1.384   1.864   4.227  0.5909  0.4132  3.3255
 1862TIP3    H2 5548   1.533   1.879   4.200 -0.0228 -0.6545 -1.5801
 1863TIP3   OH2 5549   1.621   6.552   3.680  0.3927  0.1713  0.3232
 1863TIP3    H1 5550   1.558   6.543   3.752  0.5185  1.4701  0.6231
 1863TIP3    H2 5551   1.620   6.467   3.637 -2.6730  0.5345 -0.6012
 1864TIP3   OH2 5552   5.322   6.630   1.638 -0.9524  0.2258 -0.2212
 1864TIP3    H1 5553   5.360   6.680   1.566 -1.0134  0.2447 -0.2405
 1864TIP3    H2 5554   5.364   6.666   1.716  2.6523 -2.8606 -0.4774
 1865TIP3   OH2 5555   1.349   6.697   4.650  0.3483  0.1114 -0.0465
 1865TIP3    H1 5556   1.277   6.752   4.619 -0.0756 -0.0701  0.5682
 1865TIP3    H2 5557   1.393   6.750   4.717  0.6264  0.1252 -0.2415
 1866TIP3   OH2 5558   0.066   1.752   5.073 -0.5736  0.0231  0.1881
 1866TIP3    H1 5559   0.004   1.823   5.088 -2.2626 -1.5487  1.0601
 1866TIP3    H2 5560   0.049   1.722   4.984  2.1639  2.4718 -1.3532
 1867TIP3   OH2 5561   6.475   0.701   4.912  0.5567  0.0106  0.2397
 1867TIP3    H1 5562   6.402   0.683   4.852 -0.5185  1.5527  1.0087
 1867TIP3    H2 5563   6.460   0.643   4.986  0.0534  0.3724  0.4267
 1868TIP3   OH2 5564   6.720   1.389   3.760  0.4636  0.0907 -0.4526
 1868TIP3    H1 5565   6.796   1.433   3.799 -0.3070 -0.7734  2.1995
 1868TIP3    H2 5566   6.757   1.338   3.687  2.2962  0.3483  0.2504
 1869TIP3   OH2 5567   7.097   0.148   2.404  0.1329  0.4088 -0.3346
 1869TIP3    H1 5568   7.165   0.097   2.359  0.5831  1.1018 -0.4581
 1869TIP3    H2 5569   7.124   0.239   2.392  0.5624  0.6123  1.7689
 1870TIP3   OH2 5570   4.674   1.130   5.930 -0.1609  0.4491 -0.6107
 1870TIP3    H1 5571   4.748   1.078   5.962 -0.8517  0.4712  1.1657
 1870TIP3    H2 5572   4.615   1.135   6.005 -0.2217  3.6515 -0.7113
 1871TIP3   OH2 5573   7.034   3.407   3.331 -0.1948  0.0606 -0.2928
 1871TIP3    H1 5574   7.055   3.323   3.290  0.2009 -0.3343  0.7087
 1871TIP3    H2 5575   7.051   3.472   3.262  0.0993 -0.6259 -0.8725
 1872TIP3   OH2 5576   1.303   7.014   3.470 -0.6944 -0.0486  0.1122
 1872TIP3    H1 5577   1.361   6.942   3.446  0.9224  1.2510 -0.0857
 1872TIP3    H2 5578   1.326   7.034   3.561 -1.9403 -0.5156  0.5369
 1873TIP3   OH2 5579   2.369   2.025   5.215 -0.2531 -0.2989 -0.2498
 1873TIP3    H1 5580   2.454   1.986   5.198  0.1870  1.1740 -1.7222
 1873TIP3    H2 5581   2.388   2.118   5.231 -1.5272 -0.0625 -0.0074
 1874TIP3   OH2 5582   5.134   5.142   0.555 -0.2900 -0.0641  0.1235
 1874TIP3    H1 5583   5.108   5.232   0.573  1.2859  0.4474 -0.0016
 1874TIP3    H2 5584   5.056   5.102   0.516 -1.3204  0.9505  1.0639
 1875TIP3   OH2 5585   4.291   3.214   4.269  0.4965 -0.0505 -0.7081
 1875TIP3    H1 5586   4.249   3.184   4.350 -0.2412 -0.9092 -1.3797
 1875TIP3    H2 5587   4.385   3.203   4.285  0.3040 -1.5210 -0.4356
 1876TIP3   OH2 5588   4.116   5.826   1.501  0.1331  0.1090  0.1841
 1876TIP3    H1 5589   4.062   5.827   1.580  0.4339 -3.7238  0.6396
 1876TIP3    H2 5590   4.054   5.819   1.429 -0.0768  1.1079  0.2578
 1877TIP3   OH2 5591   0.668   6.270   6.001  0.2415  0.3850  0.2598
 1877TIP3    H1 5592   0.645   6.242   5.912 -0.6496 -0.9142  0.8709
 1877TIP3    H2 5593   0.750   6.317   5.990  0.4070 -0.1746 -1.1905
 1878TIP3   OH2 5594   0.653   4.080   3.238 -0.0217  0.1923  0.2264
 1878TIP3    H1 5595   0.683   4.130   3.314 -0.8635 -0.2595  0.8860
 1878TIP3    H2 5596   0.614   4.145   3.180  2.0627  0.7730 -0.6003
 1879TIP3   OH2 5597   5.139   1.101   0.747  0.1933  0.7261 -0.0649
 1879TIP3    H1 5598   5.139   1.122   0.653  0.2237  0.3265 -0.1564
 1879TIP3    H2 5599   5.157   1.184   0.790 -0.5912  1.0590 -0.3778
 1880TIP3   OH2 5600   6.846   1.829   0.550 -0.0513  0.8853 -0.5118
 1880TIP3    H1 5601   6.826   1.893   0.618  0.1269  0.2832  0.1166
 1880TIP3    H2 5602   6.871   1.750   0.598  0.5933  0.6113 -1.2758
 1881TIP3   OH2 5603   1.658   1.770   5.085  0.0915 -0.3986 -0.2968
 1881TIP3    H1 5604   1.739   1.820   5.081  0.5673 -1.1595 -0.4139
 1881TIP3    H2 5605   1.603   1.819   5.145  0.9461 -0.2993  0.4283
 1882TIP3   OH2 5606   4.338   6.373   0.046  0.4753  0.1279 -0.2990
 1882TIP3    H1 5607   4.254   6.392   0.088  0.1471  0.4400 -1.0833
 1882TIP3    H2 5608   4.392   6.335   0.116 -1.3445 -3.0956 -0.4243
 1883TIP3   OH2 5609   5.467   6.099   5.238  0.1950  0.4255  0.3735
 1883TIP3    H1 5610   5.526   6.101   5.314 -0.7976 -1.2575  1.2746
 1883TIP3    H2 5611   5.521   6.066   5.166  0.7221  0.2922  0.8256
 1884TIP3   OH2 5612   6.404   0.641   0.465 -0.3961  0.2819  0.6595
 1884TIP3    H1 5613   6.361   0.672   0.385  0.6533  0.9125  0.3223
 1884TIP3    H2 5614   6.483   0.694   0.472  0.1190 -0.5588  1.4947
 1885TIP3   OH2 5615   0.533   3.582   4.553  0.1049  0.3017  0.4154
 1885TIP3    H1 5616   0.522   3.673   4.527  1.6650  1.4292  3.1711
 1885TIP3    H2 5617   0.611   3.553   4.505 -1.0233  0.0147 -1.2963
 1886TIP3   OH2 5618   0.241   1.750   1.940  0.4291 -0.3403  0.1587
 1886TIP3    H1 5619   0.308   1.722   2.002  0.0301 -2.3988 -0.2417
 1886TIP3    H2 5620   0.176   1.796   1.993  1.7239  0.9780  0.6695
 1887TIP3   OH2 5621   1.884   6.642   1.886 -0.5200  0.4531 -0.3767
 1887TIP3    H1 5622   1.912   6.727   1.920  3.0296 -0.1547 -1.4425
 1887TIP3    H2 5623   1.921   6.578   1.947 -0.2334 -0.4219 -1.4387
 1888TIP3   OH2 5624   3.478   4.788   5.514  0.2530  0.3625  0.2957
 1888TIP3    H1 5625   3.498   4.798   5.607 -0.7743 -0.4031  0.6179
 1888TIP3    H2 5626   3.451   4.876   5.486  1.4644  0.8069  0.4794
 1889TIP3   OH2 5627   0.324   5.184   3.273 -0.3330  0.1641  0.8179
 1889TIP3    H1 5628   0.384   5.227   3.211 -0.3319 -0.3881  0.4284
 1889TIP3    H2 5629   0.237   5.204   3.240 -0.3398  0.1059  0.8010
 1890TIP3   OH2 5630   2.917   5.520   4.732 -0.0029 -0.4698  0.2273
 1890TIP3    H1 5631   2.877   5.445   4.689  0.1012  0.1867 -1.0822
 1890TIP3    H2 5632   2.940   5.579   4.660  0.9841  0.2941  1.1352
 1891TIP3   OH2 5633   0.185   0.794   4.281 -0.0273 -0.1796 -0.7838
 1891TIP3    H1 5634   0.191   0.699   4.296  1.1132  0.1560  1.2336
 1891TIP3    H2 5635   0.220   0.833   4.361 -1.5478  1.9813 -1.1011
 1892TIP3   OH2 5636   2.084   7.089   1.983  0.4097  0.4720 -0.4347
 1892TIP3    H1 5637   2.074   7.045   2.068 -0.1984  1.6607  0.1334
 1892TIP3    H2 5638   1.998   7.080   1.941  0.9912 -0.9753 -1.3782
 1893TIP3   OH2 5639   5.341   3.659   3.729 -0.4000  0.3643  0.0573
 1893TIP3    H1 5640   5.285   3.705   3.667  0.1656 -0.6734 -1.2860
 1893TIP3    H2 5641   5.429   3.664   3.691 -0.1379 -0.8162  0.4554
 1894TIP3   OH2 5642   1.041   4.060   1.347  0.0282  0.3096 -0.4568
 1894TIP3    H1 5643   1.050   4.042   1.254  0.7272 -1.5305 -0.0865
 1894TIP3    H2 5644   0.948   4.079   1.359 -0.3735 -0.9748 -1.3218
 1895TIP3   OH2 5645   0.290   4.016   2.255  0.3372  0.4370  0.0178
 1895TIP3    H1 5646   0.196   4.031   2.271  0.0571  0.5771 -1.6170
 1895TIP3    H2 5647   0.317   3.960   2.328 -0.9953  0.4790  0.5833
 1896TIP3   OH2 5648   2.568   5.698   2.599  0.2219  0.1606  0.1655
 1896TIP3    H1 5649   2.543   5.609   2.574 -0.4293  0.5197 -0.5249
 1896TIP3    H2 5650   2.613   5.688   2.683  1.8829 -1.0189 -0.8033
 1897TIP3   OH2 5651   4.198   2.854   2.039 -0.8997  0.2570  0.8264
 1897TIP3    H1 5652   4.181   2.801   2.117 -0.8808  0.0086  0.6619
 1897TIP3    H2 5653   4.168   2.942   2.062 -1.7791 -0.0243  0.7771
 1898TIP3   OH2 5654   6.035   3.292   2.330  0.1378 -0.3219  0.5317
 1898TIP3    H1 5655   6.008   3.224   2.268  0.9451 -1.8072  1.7460
 1898TIP3    H2 5656   5.991   3.269   2.412  1.5009 -0.1945  1.3269
 1899TIP3   OH2 5657   7.238   6.623   4.412  0.2270 -0.7214 -0.3516
 1899TIP3    H1 5658   7.272   6.678   4.342 -0.4315  1.1224  0.7096
 1899TIP3    H2 5659   7.159   6.669   4.442 -0.3061 -2.2167  0.6367
 1900TIP3   OH2 5660   3.693   1.890   6.070 -0.0191  0.0351 -0.5033
 1900TIP3    H1 5661   3.604   1.886   6.105  0.4612 -1.4097  0.6877
 1900TIP3    H2 5662   3.682   1.920   5.980 -1.5194  1.7580  0.1838
 1901TIP3   OH2 5663   0.394   3.268   5.927  0.1711 -0.0700  0.1000
 1901TIP3    H1 5664   0.420   3.225   5.846  1.8020  1.1210 -0.0718
 1901TIP3    H2 5665   0.338   3.205   5.972 -0.7207 -0.7814 -1.9007
 1902TIP3   OH2 5666   6.102   4.611   3.609  0.1871  0.1268  0.2158
 1902TIP3    H1 5667   6.104   4.676   3.539 -0.1253  1.4539  1.3885
 1902TIP3    H2 5668   6.173   4.551   3.588 -0.7054 -0.2365 -1.8916
 1903TIP3   OH2 5669   6.718   5.196   5.983 -0.0628  0.4683  0.4478
 1903TIP3    H1 5670   6.705   5.286   6.014  1.5159  0.9561 -0.1851
 1903TIP3    H2 5671   6.687   5.141   6.055  1.2929  1.5471  1.9544
 1904TIP3   OH2 5672   3.183   6.550   0.675  0.2142 -0.3275  0.3735
 1904TIP3    H1 5673   3.109   6.517   0.624  0.5745 -1.5020  0.5655
 1904TIP3    H2 5674   3.165   6.522   0.765  1.2862 -1.4290  0.2837
 1905TIP3   OH2 5675   6.841   5.662   3.422  0.4278  0.3999 -0.0378
 1905TIP3    H1 5676   6.931   5.631   3.435  0.7339  1.2606 -0.0094
 1905TIP3    H2 5677   6.820   5.709   3.503  0.0771  0.4801 -0.1726
 1906TIP3   OH2 5678   1.294   6.059   4.898 -0.2641 -0.5969  0.0930
 1906TIP3    H1 5679   1.310   6.127   4.833 -2.1902 -0.5179 -0.3701
 1906TIP3    H2 5680   1.296   5.977   4.847 -2.4969 -0.4806 -0.2813
 1907TIP3   OH2 5681   0.054   2.761   5.532  0.4823  0.2319 -0.4502
 1907TIP3    H1 5682   0.022   2.672   5.514  0.4233  0.5292 -2.0303
 1907TIP3    H2 5683   0.128   2.772   5.472 -0.2965  1.6747 -1.2040
 1908TIP3   OH2 5684   2.173   3.469   5.439 -0.0063 -0.1761 -0.1894
 1908TIP3    H1 5685   2.207   3.380   5.435 -0.9899 -0.5379 -0.9837
 1908TIP3    H2 5686   2.083   3.462   5.405 -0.1474  1.0887 -0.1258
 1909TIP3   OH2 5687   5.384   2.895   4.449 -0.0576  0.1985 -0.2568
 1909TIP3    H1 5688   5.289   2.900   4.444  0.0033  0.3179 -1.7808
 1909TIP3    H2 5689   5.402   2.871   4.540 -1.6004 -1.0394 -0.2333
 1910TIP3   OH2 5690   1.175   1.642   1.209 -0.2018  0.6175  0.0597
 1910TIP3    H1 5691   1.193   1.706   1.140  0.1202  0.5880  0.1139
 1910TIP3    H2 5692   1.227   1.672   1.284  0.4264 -0.0432 -0.1053
 1911TIP3   OH2 5693   3.336   4.110   3.209 -0.3367  0.3396 -0.0015
 1911TIP3    H1 5694   3.321   4.023   3.173  0.6057 -0.0100  0.4161
 1911TIP3    H2 5695   3.310   4.104   3.300 -0.7682  0.6505 -0.0984
 1912TIP3   OH2 5696   1.711   7.104   2.400 -0.4450 -0.0316 -0.0949
 1912TIP3    H1 5697   1.651   7.132   2.331 -0.7815  3.9404  1.5335
 1912TIP3    H2 5698   1.798   7.127   2.368 -0.1979 -1.4839 -0.5489
 1913TIP3   OH2 5699   3.926   3.398   3.295 -0.1060 -0.0776  0.3491
 1913TIP3    H1 5700   3.929   3.322   3.353  0.9080 -1.4288 -1.3692
 1913TIP3    H2 5701   3.837   3.432   3.305 -0.4602 -1.2565  1.4514
 1914TIP3   OH2 5702   6.361   0.797   1.310  0.2538  0.1493  0.4761
 1914TIP3    H1 5703   6.356   0.893   1.301 -0.8419  0.1983  1.4136
 1914TIP3    H2 5704   6.455   0.780   1.322  0.4383  1.1428  0.6081
 1915TIP3   OH2 5705   3.894   6.033   2.832  0.0991  0.6643  0.1695
 1915TIP3    H1 5706   3.970   6.010   2.778  1.3835  0.0633  2.1112
 1915TIP3    H2 5707   3.865   6.117   2.797 -0.1499 -0.4189 -2.4276
 1916TIP3   OH2 5708   0.072   3.635   1.503 -0.2983  0.0283  0.0638
 1916TIP3    H1 5709   0.139   3.619   1.569  1.1828  0.7246 -1.2202
 1916TIP3    H2 5710   0.043   3.725   1.518 -1.4365 -0.4553  0.9896
 1917TIP3   OH2 5711   5.889   6.274   2.030  0.1164 -0.8882  0.3749
 1917TIP3    H1 5712   5.814   6.331   2.050 -0.2380 -0.7915 -1.1138
 1917TIP3    H2 5713   5.945   6.280   2.107 -1.2255 -0.6545  1.3597
 1918TIP3   OH2 5714   3.360   6.442   3.772  0.5872  0.4384  0.3046
 1918TIP3    H1 5715   3.366   6.346   3.779 -0.6975  0.1032 -2.1168
 1918TIP3    H2 5716   3.281   6.465   3.820  0.8139  0.2806  0.7602
 1919TIP3   OH2 5717   5.496   1.097   0.116  0.2915 -0.0512 -0.3970
 1919TIP3    H1 5718   5.556   1.171   0.116  0.9647 -0.5726  0.3313
 1919TIP3    H2 5719   5.522   1.045   0.193 -0.4784 -0.7820 -0.6106
 1920TIP3   OH2 5720   0.564   2.085   3.890  0.3341 -0.1480 -0.0436
 1920TIP3    H1 5721   0.568   2.044   3.976 -0.3836  1.3577  0.7363
 1920TIP3    H2 5722   0.631   2.039   3.839  1.2271 -0.6315  1.4897
 1921TIP3   OH2 5723   1.711   2.455   0.134  0.2362 -0.7767 -0.3625
 1921TIP3    H1 5724   1.699   2.523   0.067  0.9225 -0.1202  0.1660
 1921TIP3    H2 5725   1.732   2.503   0.214  0.2671 -1.5932  0.1324
 1922TIP3   OH2 5726   4.320   1.703   2.611  0.1973  0.0114  0.5389
 1922TIP3    H1 5727   4.334   1.608   2.609  1.1370  0.0966  1.7696
 1922TIP3    H2 5728   4.356   1.731   2.696 -1.9732  1.1749  1.1585
 1923TIP3   OH2 5729   2.014   6.682   3.966 -0.4121 -0.3047  0.2139
 1923TIP3    H1 5730   2.095   6.634   3.951 -0.3652 -0.0528 -0.3627
 1923TIP3    H2 5731   1.951   6.644   3.905 -1.1896 -1.5551  1.7078
 1924TIP3   OH2 5732   1.068   6.578   2.479  0.6361 -0.2531  0.0472
 1924TIP3    H1 5733   1.023   6.629   2.547  1.3840 -1.1964  1.2837
 1924TIP3    H2 5734   1.101   6.643   2.418 -0.8469  0.5668  0.0793
 1925TIP3   OH2 5735   5.546   5.106   0.873  0.2836  0.0626 -0.4480
 1925TIP3    H1 5736   5.490   5.044   0.827  1.6395 -1.4093 -0.1958
 1925TIP3    H2 5737   5.512   5.108   0.962 -0.1212  0.1332 -0.6018
 1926TIP3   OH2 5738   4.560   0.125   5.610 -0.3549  0.8291 -0.4557
 1926TIP3    H1 5739   4.617   0.107   5.535  1.1548  2.2348  0.2846
 1926TIP3    H2 5740   4.472   0.111   5.577  0.3047  0.8572 -2.3360
 1927TIP3   OH2 5741   7.446   0.475   4.548  0.0284  0.4738 -0.0267
 1927TIP3    H1 5742   7.512   0.480   4.618 -0.1728  1.4566  0.1057
 1927TIP3    H2 5743   7.362   0.471   4.595  0.0034 -1.5470 -0.1754
 1928TIP3   OH2 5744   3.989   1.494   2.911 -0.0573  0.3713 -0.5126
 1928TIP3    H1 5745   4.040   1.430   2.960 -0.0330  0.8166  0.0633
 1928TIP3    H2 5746   3.904   1.496   2.956 -0.5708 -0.3055 -1.4112
 1929TIP3   OH2 5747   3.497   6.509   1.457 -0.0354  0.4241  0.2664
 1929TIP3    H1 5748   3.427   6.446   1.440  1.6848 -1.2563 -1.0308
 1929TIP3    H2 5749   3.509   6.555   1.374  1.5483 -0.5607 -0.0842
 1930TIP3   OH2 5750   1.291   4.977   6.131  0.0910 -0.2130  0.0403
 1930TIP3    H1 5751   1.307   5.070   6.142 -1.4031 -0.0476  1.1298
 1930TIP3    H2 5752   1.307   4.939   6.217 -0.3549 -0.7927 -0.1254
 1931TIP3   OH2 5753   6.320   3.307   2.100  0.8638 -0.2960  0.2632
 1931TIP3    H1 5754   6.302   3.218   2.069 -1.5457 -0.1565  1.0891
 1931TIP3    H2 5755   6.390   3.338   2.042 -0.1188 -1.7612 -1.8308
 1932TIP3   OH2 5756   6.337   0.870   2.709 -0.4395  0.2976 -0.2605
 1932TIP3    H1 5757   6.399   0.834   2.645 -0.7753  0.1006 -0.4811
 1932TIP3    H2 5758   6.251   0.861   2.667 -0.6787  0.0539  0.2660
 1933TIP3   OH2 5759   4.410   4.854   6.143 -0.4374  0.0834 -0.0155
 1933TIP3    H1 5760   4.486   4.809   6.178 -1.9312 -1.8911  0.8726
 1933TIP3    H2 5761   4.419   4.847   6.048  0.5195 -0.0580  0.0803
 1934TIP3   OH2 5762   7.412   6.640   1.352  0.2628 -0.5513  0.1069
 1934TIP3    H1 5763   7.428   6.646   1.258 -0.9867  0.7708 -0.0489
 1934TIP3    H2 5764   7.463   6.711   1.390 -0.1396 -0.3590  0.2944
 1935TIP3   OH2 5765   0.783   5.886   1.900 -0.3577  0.2027  0.1232
 1935TIP3    H1 5766   0.825   5.965   1.933  0.8921  0.2271 -1.4373
 1935TIP3    H2 5767   0.704   5.877   1.953  1.2149  0.5529  2.7213
 1936TIP3   OH2 5768   2.372   1.571   0.553  0.0311  0.0355 -0.0502
 1936TIP3    H1 5769   2.392   1.629   0.480 -1.1494 -0.1384 -0.5303
 1936TIP3    H2 5770   2.356   1.629   0.627  0.1554  0.2633 -0.2050
 1937TIP3   OH2 5771   5.411   2.916   3.215  0.5765 -0.7957 -0.4017
 1937TIP3    H1 5772   5.476   2.982   3.189 -0.6251 -0.0024 -1.4932
 1937TIP3    H2 5773   5.426   2.844   3.154  0.1972 -0.4564 -0.9035
 1938TIP3   OH2 5774   0.094   2.959   3.450  0.0334 -0.1246  0.2674
 1938TIP3    H1 5775   0.016   2.915   3.415 -1.7895  2.3692  0.8672
 1938TIP3    H2 5776   0.073   2.975   3.542  0.4451  2.0670  0.0475
 1939TIP3   OH2 5777   6.904   4.959   1.648 -0.0320 -0.0049  0.1188
 1939TIP3    H1 5778   6.880   4.910   1.727 -0.8420  1.3086  0.7298
 1939TIP3    H2 5779   6.994   4.987   1.664 -0.2306  0.3557  0.6617
 1940TIP3   OH2 5780  -0.018   6.392   1.680  0.1654  0.1511  0.0840
 1940TIP3    H1 5781   0.035   6.387   1.601  2.5242  0.3863  1.5446
 1940TIP3    H2 5782  -0.011   6.305   1.719  0.5048  0.5318  0.8997
 1941TIP3   OH2 5783   1.874   2.255   1.480 -0.4768  0.3344  0.0282
 1941TIP3    H1 5784   1.846   2.221   1.565 -0.5964  0.1980 -0.0641
 1941TIP3    H2 5785   1.920   2.337   1.500 -0.0276  0.0288  0.2727
 1942TIP3   OH2 5786   5.320   1.292   0.248 -0.0546  0.4878  0.0028
 1942TIP3    H1 5787   5.385   1.224   0.229 -0.3281 -0.6082  2.6309
 1942TIP3    H2 5788   5.240   1.263   0.205 -0.1314 -0.8441  0.9921
 1943TIP3   OH2 5789   5.059   1.891   4.751 -0.1276  0.3672 -0.0407
 1943TIP3    H1 5790   5.088   1.914   4.839 -0.4192 -0.3383  0.2447
 1943TIP3    H2 5791   5.092   1.962   4.696  1.2452  0.1238  0.4252
 1944TIP3   OH2 5792   2.040   0.569   2.662  0.2215 -0.4584 -0.4677
 1944TIP3    H1 5793   2.067   0.535   2.577 -0.9739 -0.4446 -0.8728
 1944TIP3    H2 5794   1.964   0.623   2.643  1.5375  1.8002  0.2658
 1945TIP3   OH2 5795   3.358   0.387   0.675  0.0521 -0.5291  0.0445
 1945TIP3    H1 5796   3.429   0.442   0.641  0.5018 -0.2357  1.3812
 1945TIP3    H2 5797   3.290   0.393   0.609 -0.3292  2.5119  0.5586
 1946TIP3   OH2 5798   3.617   0.371   4.531 -0.6989 -0.2245  0.1043
 1946TIP3    H1 5799   3.665   0.376   4.613 -1.6803  0.2359  0.6727
 1946TIP3    H2 5800   3.584   0.459   4.517  0.1826 -0.0881 -1.2498
 1947TIP3   OH2 5801   1.935   0.881   0.728 -0.2871  0.2114  0.6912
 1947TIP3    H1 5802   1.885   0.836   0.659  0.2884  0.2278  0.2573
 1947TIP3    H2 5803   1.947   0.814   0.796 -0.0352 -0.0919  0.3532
 1948TIP3   OH2 5804   1.404   6.530   4.962  0.0628  0.2713 -0.3622
 1948TIP3    H1 5805   1.309   6.536   4.974 -0.0489 -0.3312 -0.8960
 1948TIP3    H2 5806   1.427   6.444   4.994  0.3346  0.1739 -0.8044
 1949TIP3   OH2 5807   2.074   5.602   4.896  0.2070 -0.3903 -0.3343
 1949TIP3    H1 5808   2.158   5.589   4.940  0.7958  1.5167 -0.8088
 1949TIP3    H2 5809   2.086   5.682   4.845 -2.5040  1.1307  1.1926
 1950TIP3   OH2 5810   6.078   5.590   2.934  0.2788  0.2450  0.2388
 1950TIP3    H1 5811   6.098   5.628   2.849 -0.4758  1.7248  0.6949
 1950TIP3    H2 5812   6.041   5.662   2.985  0.1062 -0.7677  1.6076
 1951TIP3   OH2 5813   6.486   4.028   2.086 -0.1970  0.1443  0.6230
 1951TIP3    H1 5814   6.428   4.043   2.161 -0.4038  0.7480  0.3436
 1951TIP3    H2 5815   6.501   3.933   2.087 -1.5606 -0.0976  0.4338
 1952TIP3   OH2 5816   3.523   0.127   3.330 -0.0728 -0.1392 -0.4292
 1952TIP3    H1 5817   3.554   0.118   3.420  4.1657  0.2321 -1.6376
 1952TIP3    H2 5818   3.488   0.216   3.325 -2.9600 -1.0294  1.3539
 1953TIP3   OH2 5819   1.982   0.743   1.480  0.2085 -0.1836  0.4701
 1953TIP3    H1 5820   1.917   0.674   1.470  1.5995 -1.5150  0.1771
 1953TIP3    H2 5821   2.050   0.721   1.415 -0.9149  3.4623 -2.2620
 1954TIP3   OH2 5822   4.211   3.608   5.090 -0.2009 -0.5006 -0.2412
 1954TIP3    H1 5823   4.281   3.667   5.063 -1.7333  1.1600 -0.7876
 1954TIP3    H2 5824   4.244   3.565   5.169  1.0293  0.9550  0.0771
 1955TIP3   OH2 5825   1.268   4.623   0.576  0.2993 -0.4567  0.0407
 1955TIP3    H1 5826   1.339   4.626   0.639  1.1472  2.6987 -0.8827
 1955TIP3    H2 5827   1.195   4.668   0.619  0.5199  0.7045 -0.7433
 1956TIP3   OH2 5828   2.508   4.526   0.995  0.5147 -0.5464  0.2210
 1956TIP3    H1 5829   2.454   4.575   0.933  0.1691  4.1423  3.6801
 1956TIP3    H2 5830   2.446   4.474   1.046  0.1426 -0.2516  0.0671
 1957TIP3   OH2 5831   4.617   0.779   3.695 -0.6805 -0.4058  0.5374
 1957TIP3    H1 5832   4.604   0.863   3.650  0.2242 -0.4448  0.1891
 1957TIP3    H2 5833   4.654   0.721   3.629  0.4758 -0.5247  1.2637
 1958TIP3   OH2 5834   6.384   1.743   2.511 -0.1696  0.5412  0.3270
 1958TIP3    H1 5835   6.397   1.699   2.428 -0.6747  0.4487  0.2982
 1958TIP3    H2 5836   6.329   1.684   2.562  1.4593 -0.1811  1.3554
 1959TIP3   OH2 5837   2.282   0.557   3.988  0.0656  0.3942 -0.1606
 1959TIP3    H1 5838   2.319   0.572   4.074  0.8771 -1.4110 -0.1492
 1959TIP3    H2 5839   2.199   0.511   4.004 -0.0659  0.5699 -0.3245
 1960TIP3   OH2 5840   4.295   4.595   2.637  0.9987  0.1022 -0.5580
 1960TIP3    H1 5841   4.378   4.555   2.662  0.3433 -1.6290 -0.9633
 1960TIP3    H2 5842   4.232   4.522   2.639 -0.1837  1.0310 -1.8114
 1961TIP3   OH2 5843   7.114   6.229   1.760 -0.4166  0.3111 -0.6015
 1961TIP3    H1 5844   7.089   6.236   1.668 -0.5578 -2.2422 -0.8129
 1961TIP3    H2 5845   7.038   6.262   1.808 -1.6780 -1.3064 -1.3788
 1962TIP3   OH2 5846   0.624   2.583   5.824  0.9044 -0.0667  0.1367
 1962TIP3    H1 5847   0.667   2.652   5.875 -0.2612  1.3530 -0.7158
 1962TIP3    H2 5848   0.570   2.536   5.888  1.4705 -0.0087  0.6702
 1963TIP3   OH2 5849   6.849   1.126   4.043  0.2990  0.2685 -0.2411
 1963TIP3    H1 5850   6.936   1.130   4.081  0.6398 -2.0289 -0.6565
 1963TIP3    H2 5851   6.802   1.062   4.097 -0.1066 -0.8949 -1.8965
 1964TIP3   OH2 5852   7.216   2.630   2.575  0.1238  0.6967 -0.6311
 1964TIP3    H1 5853   7.149   2.677   2.624 -1.3782 -0.9894 -0.9884
 1964TIP3    H2 5854   7.296   2.643   2.626 -1.1047  0.0896  1.6051
 1965TIP3   OH2 5855   2.925   3.189   3.053  0.3229  0.1277 -0.1388
 1965TIP3    H1 5856   2.986   3.253   3.090  0.1073  1.2614 -1.6749
 1965TIP3    H2 5857   2.843   3.204   3.100  0.8465 -0.5724  1.0653
 1966TIP3   OH2 5858   0.712   5.181   0.463  0.3597 -0.3260 -0.5221
 1966TIP3    H1 5859   0.708   5.240   0.388  1.4139 -1.5118 -1.5554
 1966TIP3    H2 5860   0.801   5.190   0.496  0.1822 -0.5002  0.0147
 1967TIP3   OH2 5861   1.135   3.732   2.759  0.3194  0.0774  0.1897
 1967TIP3    H1 5862   1.047   3.764   2.738  1.7765  3.4056 -1.6451
 1967TIP3    H2 5863   1.175   3.715   2.673  0.7277 -4.1095  1.0115
 1968TIP3   OH2 5864   3.203   2.498   0.120  0.0673  0.1650  0.0008
 1968TIP3    H1 5865   3.239   2.554   0.051  0.1005  2.6703  1.9042
 1968TIP3    H2 5866   3.109   2.516   0.119  0.0381  0.0551  0.4328
 1969TIP3   OH2 5867   3.054   1.064   1.465 -0.2706  0.3301 -0.4119
 1969TIP3    H1 5868   2.963   1.075   1.495 -0.3864  1.0687 -1.0128
 1969TIP3    H2 5869   3.048   1.069   1.370  0.2496 -0.8511 -0.5236
 1970TIP3   OH2 5870   4.187   1.750   6.043  0.3290 -0.3868  0.2122
 1970TIP3    H1 5871   4.169   1.810   5.970  3.5447  0.1932 -0.2233
 1970TIP3    H2 5872   4.236   1.679   6.003  1.3825 -0.4924  1.6674
 1971TIP3   OH2 5873   1.796   4.063   4.020 -0.7390 -0.6574 -0.0851
 1971TIP3    H1 5874   1.776   4.106   4.103 -0.7536  1.4677 -1.1355
 1971TIP3    H2 5875   1.891   4.055   4.019 -0.8070 -1.8527  0.6471
 1972TIP3   OH2 5876   0.369   1.247   1.675  0.2474  0.0955  0.1326
 1972TIP3    H1 5877   0.406   1.312   1.734  0.3573  0.5052 -0.3729
 1972TIP3    H2 5878   0.429   1.172   1.681  1.1974  0.7597 -0.6935
 1973TIP3   OH2 5879   0.953   6.289   5.962 -0.5759 -0.1180 -0.1079
 1973TIP3    H1 5880   0.938   6.307   5.869  0.2123  1.1561 -0.0209
 1973TIP3    H2 5881   1.041   6.324   5.979 -0.2687 -1.3116  0.8802
 1974TIP3   OH2 5882   3.254   4.470   1.553  0.6768 -0.1160  0.1058
 1974TIP3    H1 5883   3.349   4.481   1.551  0.7934 -1.0419  0.1504
 1974TIP3    H2 5884   3.237   4.394   1.498  0.2303 -1.7070  2.3140
 1975TIP3   OH2 5885   6.056   3.398   1.447  0.0911 -0.4116 -0.1589
 1975TIP3    H1 5886   5.966   3.415   1.417  0.8695  0.5450 -2.1308
 1975TIP3    H2 5887   6.071   3.465   1.514 -0.2424  0.3286 -0.7960
 1976TIP3   OH2 5888   5.745   5.700   3.372 -0.1867 -0.2232  0.0615
 1976TIP3    H1 5889   5.826   5.751   3.372  0.2493 -0.9012  0.0080
 1976TIP3    H2 5890   5.753   5.643   3.295 -1.4809  0.8949 -0.9327
 1977TIP3   OH2 5891   2.244   4.072   5.338 -0.5935  0.0212 -0.4238
 1977TIP3    H1 5892   2.330   4.043   5.367 -0.5403  0.1536 -0.4486
 1977TIP3    H2 5893   2.261   4.150   5.286 -0.8860  1.1221  1.0968
 1978TIP3   OH2 5894   1.767   4.917   1.670  0.0973 -0.0597 -0.1195
 1978TIP3    H1 5895   1.767   5.007   1.702  0.4728 -0.4420  0.9947
 1978TIP3    H2 5896   1.677   4.887   1.682 -0.0646  0.2153 -0.6400
 1979TIP3   OH2 5897   1.066   5.353   6.189  0.4078 -0.2186 -0.2865
 1979TIP3    H1 5898   1.043   5.313   6.274  1.0153  0.4647  0.2084
 1979TIP3    H2 5899   1.050   5.283   6.125  0.3092 -0.8673  0.4305
 1980TIP3   OH2 5900   1.336   0.701   6.028  0.1661 -0.4796 -0.3283
 1980TIP3    H1 5901   1.398   0.722   6.098 -0.9783 -0.9499  0.8856
 1980TIP3    H2 5902   1.318   0.785   5.986  3.2961 -0.6289 -2.2482
 1981TIP3   OH2 5903   0.791   1.558   3.742 -0.0027 -0.2576  0.0160
 1981TIP3    H1 5904   0.803   1.599   3.657  0.6998  1.6950  1.0093
 1981TIP3    H2 5905   0.726   1.613   3.786  1.7652  0.5261  1.7941
 1982TIP3   OH2 5906   6.793   3.770   2.748  0.5624 -0.0806  0.4662
 1982TIP3    H1 5907   6.730   3.816   2.693  1.6165 -0.0876 -0.7963
 1982TIP3    H2 5908   6.782   3.678   2.726  2.4669  0.0734 -1.4348
 1983TIP3   OH2 5909   2.410   5.245   3.367  0.3547  0.5301  0.2065
 1983TIP3    H1 5910   2.405   5.274   3.276 -1.8833 -0.9496 -0.2267
 1983TIP3    H2 5911   2.336   5.288   3.409 -1.1845 -2.0294  0.2618
 1984TIP3   OH2 5912   7.256   1.210   2.111  0.1309 -0.2393 -0.0672
 1984TIP3    H1 5913   7.198   1.172   2.044  1.3874  0.9177 -1.9111
 1984TIP3    H2 5914   7.281   1.136   2.166 -1.4631 -1.1192 -0.4708
 1985TIP3   OH2 5915   1.720   3.259   1.044  0.1871 -0.2768  0.4714
 1985TIP3    H1 5916   1.777   3.247   0.968  1.5421 -1.0954  1.5737
 1985TIP3    H2 5917   1.692   3.350   1.038  2.2269  0.3908  0.2786
 1986TIP3   OH2 5918   2.777   5.977   1.560  0.2129 -0.1678 -0.7056
 1986TIP3    H1 5919   2.785   6.031   1.638  0.3924  0.3530 -1.0861
 1986TIP3    H2 5920   2.711   5.912   1.583 -2.4344  2.1325 -1.3210
 1987TIP3   OH2 5921   2.296   6.023   1.536  1.1493  0.4977 -0.3064
 1987TIP3    H1 5922   2.253   6.102   1.502  0.9646  0.9102  0.8464
 1987TIP3    H2 5923   2.225   5.961   1.551  1.1089  0.6576  0.2028
 1988TIP3   OH2 5924   0.388   2.720   0.617 -0.1233 -0.0373  0.4460
 1988TIP3    H1 5925   0.301   2.748   0.586  0.6795  0.1137 -1.9247
 1988TIP3    H2 5926   0.432   2.802   0.640  0.5966  0.3554 -1.9665
 1989TIP3   OH2 5927   5.320   2.061   2.156 -0.4110  0.1072  0.6549
 1989TIP3    H1 5928   5.343   1.968   2.151 -3.5948 -0.7449 -0.2701
 1989TIP3    H2 5929   5.329   2.093   2.066 -0.2516  0.4596  0.7933
 1990TIP3   OH2 5930   1.799   6.335   3.113  0.6095  0.4202 -0.1823
 1990TIP3    H1 5931   1.728   6.340   3.176  0.4692  1.0490 -0.3841
 1990TIP3    H2 5932   1.781   6.405   3.050  1.8546  1.1463  0.2364
 1991TIP3   OH2 5933   3.299   3.267   4.532  0.4841 -0.0240 -0.1052
 1991TIP3    H1 5934   3.222   3.301   4.487  0.2215 -0.7305 -0.2177
 1991TIP3    H2 5935   3.281   3.280   4.625  0.0126 -0.5983 -0.1066
 1992TIP3   OH2 5936   0.521   0.533   1.603  0.1199  0.2264 -0.4076
 1992TIP3    H1 5937   0.614   0.528   1.626 -0.2757 -1.2614  1.0888
 1992TIP3    H2 5938   0.517   0.496   1.515  0.8082 -1.0822  0.0696
 1993TIP3   OH2 5939   2.647   2.886   5.802 -0.5087 -0.2888 -0.6939
 1993TIP3    H1 5940   2.661   2.835   5.722  0.1139 -0.5228 -0.4381
 1993TIP3    H2 5941   2.597   2.828   5.859  0.3498 -0.6826 -0.3357
 1994TIP3   OH2 5942   1.469   2.220   4.349 -0.3430  0.0288 -0.0647
 1994TIP3    H1 5943   1.465   2.169   4.268 -0.9678  0.0376 -0.0473
 1994TIP3    H2 5944   1.382   2.209   4.388  0.0408 -0.1947  0.7366
 1995TIP3   OH2 5945   6.825   6.981   1.087  0.1982  0.1838  0.3484
 1995TIP3    H1 5946   6.902   6.976   1.030 -0.8541 -1.5413 -1.0139
 1995TIP3    H2 5947   6.846   6.922   1.160  0.3510  0.0714  0.2146
 1996TIP3   OH2 5948   5.565   0.956   0.752  0.0519 -0.7778  0.3585
 1996TIP3    H1 5949   5.647   0.941   0.705  0.1117 -0.4791  0.3659
 1996TIP3    H2 5950   5.584   1.030   0.810 -0.4064 -0.2994 -0.0951
 1997TIP3   OH2 5951   5.826   6.744   3.181  0.1238  0.2072 -0.4713
 1997TIP3    H1 5952   5.749   6.800   3.182 -1.4028 -1.7513  2.0287
 1997TIP3    H2 5953   5.893   6.793   3.228  0.0573  1.3933 -1.5561
 1998TIP3   OH2 5954   2.328   0.047   5.822 -0.2816 -0.4497  0.1434
 1998TIP3    H1 5955   2.243   0.088   5.839 -0.6139 -1.0290 -0.0681
 1998TIP3    H2 5956   2.324  -0.037   5.869 -0.1819 -0.8830 -0.5910
 1999TIP3   OH2 5957   0.528   3.154   1.243 -0.4427  0.0308 -0.1124
 1999TIP3    H1 5958   0.548   3.100   1.166  0.9478  0.6895 -0.2336
 1999TIP3    H2 5959   0.434   3.139   1.258 -0.1182 -2.4284 -0.1142
 2000TIP3   OH2 5960   5.920   5.009   3.876  0.3750 -0.3995 -0.5990
 2000TIP3    H1 5961   5.974   4.966   3.942 -0.6351  0.8344  1.1127
 2000TIP3    H2 5962   5.838   5.029   3.921 -0.3137  0.6084 -2.2014
 2001TIP3   OH2 5963   2.879   2.296   4.343 -0.0341 -0.2867 -0.2314
 2001TIP3    H1 5964   2.815   2.308   4.414 -0.1313 -1.0634 -0.1721
 2001TIP3    H2 5965   2.825   2.272   4.267  0.0271  1.0337 -0.7102
 2002TIP3   OH2 5966   6.929   1.864   1.796 -0.6001  0.3195 -0.4799
 2002TIP3    H1 5967   6.936   1.824   1.883 -1.8010  1.1356  0.0104
 2002TIP3    H2 5968   6.916   1.957   1.813  0.6734  0.7357 -1.5820
 2003TIP3   OH2 5969   4.853   5.689   0.040 -0.3335  0.8142  0.1411
 2003TIP3    H1 5970   4.918   5.705   0.109 -1.1494  1.4957  0.7693
 2003TIP3    H2 5971   4.867   5.761  -0.022  1.4619 -0.6637 -1.2674
 2004TIP3   OH2 5972   7.134   0.410   2.083 -0.0587  0.1312 -0.0419
 2004TIP3    H1 5973   7.156   0.478   2.146  0.8174 -1.3625  1.3311
 2004TIP3    H2 5974   7.202   0.416   2.016  1.4629 -0.9432  1.3559
 2005TIP3   OH2 5975   1.862   4.765   5.369 -0.5908 -0.2496  0.3336
 2005TIP3    H1 5976   1.768   4.774   5.385 -0.8643  1.2461 -1.8187
 2005TIP3    H2 5977   1.902   4.831   5.426 -1.0496  0.6323 -0.3352
 2006TIP3   OH2 5978   5.170   1.290   3.175  0.2300 -0.3422 -0.2294
 2006TIP3    H1 5979   5.153   1.247   3.259 -1.1870 -1.3521 -0.9783
 2006TIP3    H2 5980   5.129   1.232   3.111  1.5795  0.2293 -1.6619
 2007TIP3   OH2 5981   1.083   2.666   2.479 -0.8523 -0.2366  0.0775
 2007TIP3    H1 5982   1.160   2.700   2.433 -1.3082  1.7685  0.7185
 2007TIP3    H2 5983   1.069   2.579   2.441  1.4051 -0.4464 -0.4087
 2008TIP3   OH2 5984   1.459   2.387   5.778 -0.2828  0.5843  0.1921
 2008TIP3    H1 5985   1.389   2.434   5.822 -1.0102  0.1024 -0.4223
 2008TIP3    H2 5986   1.522   2.366   5.847 -0.9152  0.7179  0.8068
 2009TIP3   OH2 5987   3.087   6.324   5.258  0.7060 -0.2233 -0.4575
 2009TIP3    H1 5988   3.155   6.283   5.313 -0.9276 -0.8632  1.1947
 2009TIP3    H2 5989   3.049   6.251   5.209  1.2034  0.1412 -1.4108
 2010TIP3   OH2 5990   3.179   5.647   0.066 -0.2942 -0.6610  0.2202
 2010TIP3    H1 5991   3.131   5.586   0.010  1.0156 -0.8780 -0.7056
 2010TIP3    H2 5992   3.179   5.729   0.017  0.5294 -0.7436  0.0791
 2011TIP3   OH2 5993   4.697   0.319   5.032  0.4715  0.2567 -0.0180
 2011TIP3    H1 5994   4.679   0.234   5.072 -3.2070  0.1920 -1.4159
 2011TIP3    H2 5995   4.693   0.381   5.105  0.7835 -0.5107  0.6737
 2012TIP3   OH2 5996   2.916   1.547   3.289  0.2694 -0.0650 -0.3846
 2012TIP3    H1 5997   3.008   1.529   3.271  0.9133 -0.0220  2.4486
 2012TIP3    H2 5998   2.917   1.612   3.359 -1.9780  1.2605 -1.4539
 2013TIP3   OH2 5999   3.519   3.269   2.563  0.2736 -0.0164  0.3338
 2013TIP3    H1 6000   3.565   3.198   2.607  1.9830  1.9075  1.8388
 2013TIP3    H2 6001   3.440   3.283   2.615 -0.5019 -1.2942 -0.4499
 2014TIP3   OH2 6002   2.211   0.332   3.526 -0.1438 -0.7243  0.1349
 2014TIP3    H1 6003   2.267   0.356   3.600 -1.3154 -1.5166  1.3152
 2014TIP3    H2 6004   2.244   0.247   3.498 -1.5957 -1.8695  1.7542
 2015TIP3   OH2 6005   4.597   2.374   5.667 -0.3050 -0.5727  0.5176
 2015TIP3    H1 6006   4.610   2.418   5.582  0.2803  0.6868  1.2176
 2015TIP3    H2 6007   4.564   2.288   5.645 -1.9159  0.3576 -0.9335
 2016TIP3   OH2 6008   4.959   1.424   0.378 -0.0404  0.3345  0.1112
 2016TIP3    H1 6009   4.865   1.435   0.360 -0.1564  0.8955  0.9703
 2016TIP3    H2 6010   4.998   1.409   0.292 -0.7240  1.5416 -0.4467
 2017TIP3   OH2 6011   2.132   3.012   2.656 -0.0652  0.4171  0.0593
 2017TIP3    H1 6012   2.087   2.948   2.711 -1.2440  0.2662 -1.0121
 2017TIP3    H2 6013   2.102   2.992   2.567  0.4376  1.7228 -0.4345
 2018TIP3   OH2 6014   1.435   6.631   6.138  0.0944 -0.5142 -0.3348
 2018TIP3    H1 6015   1.431   6.708   6.195  0.6984 -0.9530  0.3118
 2018TIP3    H2 6016   1.362   6.643   6.077  1.4415  1.6615 -1.6460
 2019TIP3   OH2 6017   1.441   5.447   1.342 -0.3045  0.0761 -0.0327
 2019TIP3    H1 6018   1.488   5.447   1.425 -1.8642  0.0660  0.8804
 2019TIP3    H2 6019   1.353   5.416   1.363 -0.7104 -0.0190 -1.7052
 2020TIP3   OH2 6020   6.475   6.326   3.548 -0.0256  0.3552 -0.1737
 2020TIP3    H1 6021   6.476   6.348   3.455  0.7600  0.1874 -0.2191
 2020TIP3    H2 6022   6.568   6.320   3.572 -0.2160  0.3146  0.6013
 2021TIP3   OH2 6023   7.429   4.123   0.563  0.1524 -0.0320  0.4805
 2021TIP3    H1 6024   7.516   4.141   0.527 -0.8709  0.7845 -1.8281
 2021TIP3    H2 6025   7.390   4.210   0.576 -0.4976 -0.3942  1.0166
 2022TIP3   OH2 6026   4.228   6.064   0.333 -0.1029  0.0257  0.2317
 2022TIP3    H1 6027   4.262   6.036   0.418 -0.0811  1.4694  0.7243
 2022TIP3    H2 6028   4.134   6.075   0.348  0.2143  2.6035  0.7939
 2023TIP3   OH2 6029   7.204   6.003   2.418  0.2620 -0.3572  0.1243
 2023TIP3    H1 6030   7.160   6.078   2.458  0.2334  0.8464 -2.0446
 2023TIP3    H2 6031   7.145   5.930   2.433 -0.6015  0.4323  0.6731
 2024TIP3   OH2 6032   0.907   3.428   5.264 -0.7598 -0.0494 -0.0687
 2024TIP3    H1 6033   0.812   3.441   5.264 -0.4686  2.7150 -1.2049
 2024TIP3    H2 6034   0.928   3.403   5.174 -0.3771 -0.5212  0.1465
 2025TIP3   OH2 6035   3.186   0.965   2.251 -0.5231  0.0083  0.1501
 2025TIP3    H1 6036   3.246   1.036   2.275  1.3029 -1.0833 -0.9261
 2025TIP3    H2 6037   3.225   0.886   2.288 -1.6676 -0.6651 -0.0137
 2026TIP3   OH2 6038   6.002   0.675   0.686 -0.5268 -0.1873  0.2228
 2026TIP3    H1 6039   5.934   0.734   0.653 -0.4165 -0.4527 -0.4938
 2026TIP3    H2 6040   6.005   0.603   0.622  1.1444  0.3346 -0.3512
 2027TIP3   OH2 6041   5.137   0.065   0.379  0.5610 -0.0947  0.4567
 2027TIP3    H1 6042   5.061   0.009   0.362 -0.5374  1.0132  1.5148
 2027TIP3    H2 6043   5.131   0.136   0.315  1.1962 -0.4442 -0.0038
 2028TIP3   OH2 6044   7.603   2.914   4.290 -0.1100  0.1365  0.3457
 2028TIP3    H1 6045   7.515   2.920   4.252  1.0545 -0.2772 -2.6516
 2028TIP3    H2 6046   7.651   2.987   4.251  1.2449 -0.4245  0.8973
 2029TIP3   OH2 6047   2.942   2.888   3.379 -0.2540  0.2338  0.2382
 2029TIP3    H1 6048   2.889   2.879   3.458  1.1833  1.2514  1.3746
 2029TIP3    H2 6049   2.963   2.981   3.375  1.8438 -0.1931  0.1254
 2030TIP3   OH2 6050   2.475   4.224   0.182 -0.3682 -0.8165 -0.0120
 2030TIP3    H1 6051   2.525   4.186   0.254 -0.4280 -0.2869  0.3111
 2030TIP3    H2 6052   2.398   4.262   0.224 -0.3375 -0.3858 -0.3434
 2031TIP3   OH2 6053   2.352   7.047   2.102  0.0448 -0.0369  0.2373
 2031TIP3    H1 6054   2.300   7.121   2.069  2.1925  0.1240 -3.3810
 2031TIP3    H2 6055   2.443   7.074   2.088  1.0410 -1.9288  2.4332
 2032TIP3   OH2 6056   5.617   6.194   3.689  0.5122 -0.1955 -0.3712
 2032TIP3    H1 6057   5.644   6.266   3.632  4.0108 -2.1143 -1.4617
 2032TIP3    H2 6058   5.674   6.202   3.766  0.4814 -1.3743 -0.2095
 2033TIP3   OH2 6059   4.009   0.458   1.967 -0.7075 -0.3122 -0.0896
 2033TIP3    H1 6060   3.956   0.408   1.906  0.1724 -0.5649 -0.6775
 2033TIP3    H2 6061   4.048   0.393   2.025 -0.7027 -0.1778  0.0595
 2034TIP3   OH2 6062   7.357   6.431   1.842  0.3224  0.0233 -0.0057
 2034TIP3    H1 6063   7.272   6.460   1.807  0.4413  0.9247  0.4343
 2034TIP3    H2 6064   7.416   6.436   1.767  0.1280 -0.0348 -0.1666
 2035TIP3   OH2 6065   3.887   4.987   3.068 -0.0945 -0.4101  0.5155
 2035TIP3    H1 6066   3.958   5.019   3.013 -0.8822  2.3847  0.9620
 2035TIP3    H2 6067   3.866   5.061   3.126 -1.4775 -2.1166  2.3441
 2036TIP3   OH2 6068   6.509   3.975   1.670 -0.1015 -0.0893 -0.4778
 2036TIP3    H1 6069   6.434   3.970   1.611 -0.1479 -0.4827 -0.3899
 2036TIP3    H2 6070   6.483   3.922   1.746  0.9190 -1.6706 -1.1685
 2037TIP3   OH2 6071   3.147   0.352   1.214 -0.3750  0.3501 -0.0189
 2037TIP3    H1 6072   3.093   0.424   1.182 -1.6765  0.0570  1.3981
 2037TIP3    H2 6073   3.122   0.278   1.159  0.9625  0.9249 -1.4744
 2038TIP3   OH2 6074   1.938   4.490   3.838 -0.4499 -0.3551 -0.1531
 2038TIP3    H1 6075   2.008   4.554   3.851  1.7962 -2.2101 -2.0847
 2038TIP3    H2 6076   1.957   4.422   3.903 -0.7718 -0.6155 -0.3322
 2039TIP3   OH2 6077   6.747   7.114   0.260 -0.0845 -0.1966 -0.4223
 2039TIP3    H1 6078   6.673   7.133   0.318  0.0019 -3.1285  0.8379
 2039TIP3    H2 6079   6.779   7.029   0.290  3.5712  0.7513 -1.1875
 2040TIP3   OH2 6080   2.984   5.340   2.362 -0.1265 -0.5136 -0.3307
 2040TIP3    H1 6081   3.020   5.360   2.276 -2.0917 -0.4887 -1.2013
 2040TIP3    H2 6082   2.907   5.286   2.344  0.0604 -1.4887  1.4905
 2041TIP3   OH2 6083   1.266   6.146   5.263  0.1493 -0.2621  0.4378
 2041TIP3    H1 6084   1.175   6.162   5.238 -0.0539 -1.0378  0.6596
 2041TIP3    H2 6085   1.272   6.180   5.353  0.6368  1.6663 -0.2661
 2042TIP3   OH2 6086   7.390   5.968   3.531 -0.0445 -0.1206 -0.0086
 2042TIP3    H1 6087   7.483   5.970   3.511  0.0266 -0.6832  0.2355
 2042TIP3    H2 6088   7.355   6.050   3.496  0.8260  0.8469  1.3297
 2043TIP3   OH2 6089   0.827   3.758   1.143 -0.0944  0.0129 -0.4487
 2043TIP3    H1 6090   0.752   3.766   1.202  0.4980 -1.2349  0.5030
 2043TIP3    H2 6091   0.858   3.668   1.154  0.6200  0.0315 -1.9712
 2044TIP3   OH2 6092   6.831   6.776   1.253  0.3917 -0.0367  0.3365
 2044TIP3    H1 6093   6.752   6.776   1.198  1.2668  0.0493 -0.9815
 2044TIP3    H2 6094   6.821   6.700   1.310  0.5580 -1.6610 -1.6688
 2045TIP3   OH2 6095   2.670   2.023   2.090 -0.4763 -0.0541 -0.2603
 2045TIP3    H1 6096   2.747   2.047   2.039 -1.0291  1.5751 -0.3812
 2045TIP3    H2 6097   2.679   2.073   2.172  0.2496 -2.3954  1.1964
 2046TIP3   OH2 6098   7.481   1.983   2.817 -0.6722 -0.2272 -0.1700
 2046TIP3    H1 6099   7.445   1.903   2.780  1.8932 -0.7673 -1.8223
 2046TIP3    H2 6100   7.445   2.053   2.764 -0.6940 -0.5757 -0.6156
 2047TIP3   OH2 6101   2.801   6.898   1.704  0.2397  0.4919  0.0478
 2047TIP3    H1 6102   2.797   6.893   1.799 -0.0105 -2.5300 -0.0466
 2047TIP3    H2 6103   2.892   6.880   1.682  0.2992  1.1811 -0.3034
 2048TIP3   OH2 6104   6.727   4.036   1.099 -0.6820  0.4788 -0.0746
 2048TIP3    H1 6105   6.691   4.045   1.187 -1.0856  0.9101 -0.2786
 2048TIP3    H2 6106   6.820   4.018   1.113 -0.3500  2.3869  0.4394
 2049TIP3   OH2 6107   5.627   0.513   0.386  0.0077 -0.2566  0.1341
 2049TIP3    H1 6108   5.647   0.424   0.416 -0.2778 -0.2857  0.2462
 2049TIP3    H2 6109   5.620   0.564   0.467  1.5476  0.1790  0.0242
 2050TIP3   OH2 6110   2.961   6.235   2.380 -0.1383  0.1583  0.3138
 2050TIP3    H1 6111   2.972   6.328   2.360  0.2735  0.5191  2.0157
 2050TIP3    H2 6112   3.021   6.219   2.452  1.8663 -2.1418 -1.7154
 2051TIP3   OH2 6113   2.911   2.919   4.597 -0.1650 -0.0483 -0.4482
 2051TIP3    H1 6114   2.927   2.974   4.674 -1.6694  0.6470 -0.5889
 2051TIP3    H2 6115   2.828   2.875   4.617 -0.3233 -0.2303 -1.4675
 2052TIP3   OH2 6116   2.248   0.021   5.031 -0.1891  0.4730  0.2448
 2052TIP3    H1 6117   2.256  -0.062   4.983 -0.8720  0.3678  0.2880
 2052TIP3    H2 6118   2.172   0.064   4.991 -0.6094  0.5020  1.0414
 2053TIP3   OH2 6119   3.449   4.431   0.926  0.0410 -0.4501  0.0959
 2053TIP3    H1 6120   3.504   4.373   0.873  0.0511 -0.4033  0.0558
 2053TIP3    H2 6121   3.433   4.381   1.006  0.1089 -0.4808  0.0911
 2054TIP3   OH2 6122   3.360   5.558   2.909 -0.2126 -0.5730 -0.1922
 2054TIP3    H1 6123   3.327   5.575   2.997  0.1510 -1.1976  0.0676
 2054TIP3    H2 6124   3.379   5.645   2.873 -3.4964 -0.0079 -0.9232
 2055TIP3   OH2 6125   1.769   5.396   5.618  0.4978  0.0613 -0.4079
 2055TIP3    H1 6126   1.721   5.461   5.668  1.0771  0.2974 -0.1625
 2055TIP3    H2 6127   1.727   5.313   5.640  0.1863  0.2703 -0.2135
 2056TIP3   OH2 6128   0.634   4.408   6.159 -0.0340 -0.1130  0.0048
 2056TIP3    H1 6129   0.567   4.396   6.227 -0.5054  0.6993 -0.3027
 2056TIP3    H2 6130   0.586   4.407   6.077  0.3377  0.3841 -0.2252
 2057TIP3   OH2 6131   0.211   1.891   0.299 -0.1037 -0.7787  0.4773
 2057TIP3    H1 6132   0.196   1.802   0.266 -0.3959 -0.8418  0.7780
 2057TIP3    H2 6133   0.306   1.899   0.303 -0.0513 -0.6330 -0.7510
 2058TIP3   OH2 6134   2.611   5.498   1.344  0.1449  0.2892  0.0418
 2058TIP3    H1 6135   2.695   5.545   1.348  0.0753  0.4145  0.0294
 2058TIP3    H2 6136   2.629   5.422   1.288  0.2672  0.2815  0.0918
 2059TIP3   OH2 6137   5.362   5.620   2.998  0.1062  0.4492  0.0722
 2059TIP3    H1 6138   5.401   5.651   3.079  0.9407  0.4644 -0.3242
 2059TIP3    H2 6139   5.295   5.558   3.025  0.0426  0.8205  0.7848
 2060TIP3   OH2 6140   5.786   1.758   3.015 -0.5151 -0.2633 -0.0539
 2060TIP3    H1 6141   5.705   1.725   3.054 -0.2508  0.2279  0.9497
 2060TIP3    H2 6142   5.764   1.775   2.924 -2.1412  1.8355  0.6555
 2061TIP3   OH2 6143   3.539   6.857   6.117  0.4539 -0.3973 -0.2105
 2061TIP3    H1 6144   3.457   6.860   6.068 -0.0117 -0.0167  0.5808
 2061TIP3    H2 6145   3.604   6.831   6.052 -0.3428 -1.0422 -0.7774
 2062TIP3   OH2 6146   7.173   4.446   5.907 -0.3874  0.4268 -0.4383
 2062TIP3    H1 6147   7.186   4.519   5.967  1.0016 -0.2722  0.1612
 2062TIP3    H2 6148   7.084   4.457   5.874 -1.5215  0.3981  2.3518
 2063TIP3   OH2 6149   6.039   1.335   0.081  0.1352  0.3845  0.3303
 2063TIP3    H1 6150   6.069   1.401   0.144  1.3530  0.5419 -0.3885
 2063TIP3    H2 6151   6.083   1.254   0.108  0.5680  0.4261 -0.2266
 2064TIP3   OH2 6152   4.283   5.063   2.049  0.2873  0.1063  0.2589
 2064TIP3    H1 6153   4.290   5.124   1.975  2.2638  0.7280  0.8744
 2064TIP3    H2 6154   4.318   4.981   2.016  0.6809  0.2372  0.3452
 2065TIP3   OH2 6155   2.344   1.041   0.152 -0.2104 -0.1369 -0.6851
 2065TIP3    H1 6156   2.438   1.055   0.144 -0.1813  1.1628  1.4230
 2065TIP3    H2 6157   2.335   0.983   0.227 -1.0793 -1.0546 -1.4662
 2066TIP3   OH2 6158   6.787   4.885   4.495  0.2935  0.4086 -0.3562
 2066TIP3    H1 6159   6.870   4.910   4.454  1.1937 -0.6379  0.7465
 2066TIP3    H2 6160   6.809   4.808   4.547 -1.4344 -0.0150 -0.2103
 2067TIP3   OH2 6161   0.314   3.985   4.293  0.0307 -0.1701  0.5153
 2067TIP3    H1 6162   0.262   4.042   4.236  2.6913  1.1115 -0.7759
 2067TIP3    H2 6163   0.281   3.897   4.275  0.4768  0.2123 -2.8202
 2068TIP3   OH2 6164   5.019   5.560   2.611  0.1500 -0.2679  0.0148
 2068TIP3    H1 6165   5.092   5.545   2.552 -1.6215 -0.6109 -2.2236
 2068TIP3    H2 6166   4.990   5.649   2.592 -0.3419 -0.3134  0.5066
 2069TIP3   OH2 6167   5.479   1.418   1.031  0.1171 -0.0152  0.2648
 2069TIP3    H1 6168   5.513   1.502   0.999  0.7267  0.4137  1.9054
 2069TIP3    H2 6169   5.385   1.431   1.036  0.3017  1.1014  1.7702
 2070TIP3   OH2 6170   4.888   3.183   4.366  0.7177  0.2498 -0.5141
 2070TIP3    H1 6171   4.883   3.088   4.358 -0.3239  0.2981 -0.6847
 2070TIP3    H2 6172   4.916   3.199   4.456  0.0959 -0.2220 -0.2276
 2071TIP3   OH2 6173   6.601   4.738   3.831  0.1635  0.3661  0.6922
 2071TIP3    H1 6174   6.578   4.786   3.751 -0.4708 -2.0375 -0.6842
 2071TIP3    H2 6175   6.520   4.738   3.883  0.1140  0.6360  0.6173
 2072TIP3   OH2 6176   1.747   6.014   2.676 -0.3926  0.2230 -0.4245
 2072TIP3    H1 6177   1.713   6.078   2.738 -3.0680 -0.1354 -1.4007
 2072TIP3    H2 6178   1.762   6.064   2.596 -0.7912 -0.0278 -0.6594
 2073TIP3   OH2 6179   1.870   1.892   5.617 -0.0277  0.3008  0.2046
 2073TIP3    H1 6180   1.789   1.859   5.577  0.9159 -0.1933 -1.4126
 2073TIP3    H2 6181   1.907   1.815   5.660  0.4282  0.0801 -0.5593
 2074TIP3   OH2 6182   7.057   0.165   4.329  0.0576  0.5788 -0.4497
 2074TIP3    H1 6183   7.014   0.094   4.378  1.4712  1.3080  2.0474
 2074TIP3    H2 6184   7.008   0.243   4.353  0.0525  0.7947 -1.1560
 2075TIP3   OH2 6185   2.472   3.605   2.080  0.3400  0.4415  0.1745
 2075TIP3    H1 6186   2.497   3.590   1.989 -1.9657 -1.1837 -0.2822
 2075TIP3    H2 6187   2.533   3.552   2.131  0.7692  0.2382 -0.5452
 2076TIP3   OH2 6188   2.368   2.571   5.214 -0.2662 -0.7532  0.3709
 2076TIP3    H1 6189   2.296   2.616   5.170  0.8541  0.6124 -0.1424
 2076TIP3    H2 6190   2.380   2.491   5.163 -1.2208 -0.8661  0.2969
 2077TIP3   OH2 6191   4.174   2.292   4.610  0.6596  0.2997  0.0073
 2077TIP3    H1 6192   4.269   2.302   4.612  0.6449  1.0008 -1.4171
 2077TIP3    H2 6193   4.141   2.381   4.597 -0.0590 -0.2103 -1.9304
 2078TIP3   OH2 6194   1.721   7.106   1.051  0.5085 -0.1318  0.1855
 2078TIP3    H1 6195   1.778   7.033   1.029 -1.0454 -0.6851 -2.4303
 2078TIP3    H2 6196   1.657   7.068   1.111 -0.0102 -0.8406 -0.7881
 2079TIP3   OH2 6197   5.429   6.750   2.337 -0.3384 -0.2361  0.1813
 2079TIP3    H1 6198   5.381   6.706   2.407  0.8751 -0.5116  0.8637
 2079TIP3    H2 6199   5.518   6.759   2.371 -0.1527  1.2325 -0.6180
 2080TIP3   OH2 6200   4.679   2.895   1.090 -0.3092  0.2425 -0.1678
 2080TIP3    H1 6201   4.772   2.911   1.075 -0.2257  0.9281  0.9656
 2080TIP3    H2 6202   4.648   2.854   1.009  1.1999 -0.9563 -0.1928
 2081TIP3   OH2 6203   1.563   6.863   2.822  0.6873  0.3857  0.2687
 2081TIP3    H1 6204   1.525   6.877   2.909 -2.0008 -1.5465 -0.4546
 2081TIP3    H2 6205   1.552   6.946   2.777 -0.0053  0.7441  1.0680
 2082TIP3   OH2 6206   5.095   3.017   0.368 -0.1391 -0.0629  0.7180
 2082TIP3    H1 6207   5.092   2.921   0.370 -0.3527 -0.0483  2.2809
 2082TIP3    H2 6208   5.167   3.038   0.308 -1.5024 -1.1453 -1.4015
 2083TIP3   OH2 6209  -0.020   0.177   2.959  0.2792 -0.2859 -0.1159
 2083TIP3    H1 6210   0.020   0.260   2.933  0.2792 -0.6133 -1.1922
 2083TIP3    H2 6211   0.025   0.111   2.907 -1.4833 -0.6879 -1.2390
 2084TIP3   OH2 6212   2.637   7.015   5.091  0.7650 -0.6522  0.2568
 2084TIP3    H1 6213   2.670   6.935   5.050  0.3161 -0.3660 -0.7151
 2084TIP3    H2 6214   2.704   7.040   5.154 -0.2914 -3.3000  2.6723
 2085TIP3   OH2 6215   1.628   5.570   4.507  0.0112  0.3668  0.5296
 2085TIP3    H1 6216   1.682   5.643   4.476  1.3407 -0.2109  1.4249
 2085TIP3    H2 6217   1.541   5.588   4.470  1.1926  0.3464 -2.5368
 2086TIP3   OH2 6218   5.402   2.828   2.745  0.0411 -0.6495 -0.1472
 2086TIP3    H1 6219   5.474   2.842   2.684  1.0494 -1.4541  0.8058
 2086TIP3    H2 6220   5.436   2.859   2.829  0.1884 -3.1606  0.8026
 2087TIP3   OH2 6221   4.845   3.933   5.712 -0.2920  0.2022  0.2556
 2087TIP3    H1 6222   4.786   3.880   5.766 -0.5396 -0.5641 -0.7294
 2087TIP3    H2 6223   4.844   4.019   5.753 -2.8965  0.5250 -0.2864
 2088TIP3   OH2 6224   5.974   5.382   3.035  0.1427  0.6761 -0.0884
 2088TIP3    H1 6225   5.949   5.313   2.974  0.6864  1.2474 -0.9811
 2088TIP3    H2 6226   6.001   5.455   2.979  2.3329  0.6306  0.8135
 2089TIP3   OH2 6227   7.529   3.155   2.409  0.4322 -0.7667  0.1809
 2089TIP3    H1 6228   7.533   3.222   2.478  0.4694 -1.3732  0.7814
 2089TIP3    H2 6229   7.498   3.202   2.332 -2.0521 -0.5180  1.2241
 2090TIP3   OH2 6230   4.931   2.419   2.347  0.2148 -0.0636  0.1090
 2090TIP3    H1 6231   4.864   2.452   2.288  1.3302  0.1661 -1.0534
 2090TIP3    H2 6232   4.955   2.333   2.312  0.7279 -0.0276  0.3556
 2091TIP3   OH2 6233   5.168   2.272   3.987 -0.2614  0.7421 -0.2639
 2091TIP3    H1 6234   5.259   2.270   3.956 -0.1436 -0.2989  0.0844
 2091TIP3    H2 6235   5.145   2.179   3.996 -1.3844  1.0038 -0.4095
 2092TIP3   OH2 6236   3.097   1.416   5.014  0.4660  0.2548 -0.6567
 2092TIP3    H1 6237   3.073   1.412   4.921  0.5253 -1.2934 -0.6292
 2092TIP3    H2 6238   3.149   1.496   5.021 -0.6960  1.1420 -1.6688
 2093TIP3   OH2 6239   5.275   1.982   1.549  0.0418 -0.5714  0.1385
 2093TIP3    H1 6240   5.179   1.981   1.545  0.0068  0.9554  0.0850
 2093TIP3    H2 6241   5.297   2.074   1.563  1.4990 -0.9450  0.4044
 2094TIP3   OH2 6242   7.075   4.484   5.276 -0.8175  0.0802  0.2017
 2094TIP3    H1 6243   7.170   4.482   5.272 -0.8253 -0.5487  0.1100
 2094TIP3    H2 6244   7.053   4.576   5.291 -0.1813  0.1584  0.7288
 2095TIP3   OH2 6245   6.988   1.123   5.978  0.2126  0.6065 -0.1755
 2095TIP3    H1 6246   7.030   1.155   6.058  0.9631 -0.4238 -0.1378
 2095TIP3    H2 6247   7.020   1.033   5.969 -0.2681  0.5429 -1.3557
 2096TIP3   OH2 6248   1.374   6.220   4.675  0.4377  0.3262  0.5336
 2096TIP3    H1 6249   1.424   6.294   4.642  1.4402 -0.3526  0.4864
 2096TIP3    H2 6250   1.291   6.223   4.626  1.8919 -0.7018 -2.2096
 2097TIP3   OH2 6251   6.827   4.583   0.099  0.0437 -0.0977  0.7399
 2097TIP3    H1 6252   6.918   4.612   0.108 -0.0441  1.0695 -1.5027
 2097TIP3    H2 6253   6.776   4.651   0.143  0.2077 -0.8927  2.2447
 2098TIP3   OH2 6254   7.208   3.083   3.403  0.1278 -0.8192  0.0410
 2098TIP3    H1 6255   7.244   3.025   3.471  1.5789 -1.2557 -1.0390
 2098TIP3    H2 6256   7.250   3.167   3.419  1.9473 -1.3857 -1.3563
 2099TIP3   OH2 6257   0.817   4.500   0.288  0.5557 -0.1847  0.2917
 2099TIP3    H1 6258   0.760   4.448   0.231  0.2981  1.2592 -0.8200
 2099TIP3    H2 6259   0.900   4.505   0.240  0.6960  0.1268  0.5613
 2100TIP3   OH2 6260   7.527   6.552   2.738  0.1060 -0.2190 -0.0867
 2100TIP3    H1 6261   7.598   6.556   2.802  1.3090  2.0893 -1.4467
 2100TIP3    H2 6262   7.503   6.459   2.735  2.7280 -1.0128  0.7615
 2101TIP3   OH2 6263   0.696   6.269   2.850  0.1767 -0.1094 -0.1212
 2101TIP3    H1 6264   0.607   6.285   2.821  0.4322  1.0138 -0.3316
 2101TIP3    H2 6265   0.749   6.335   2.805  0.9965 -0.2352  0.6161
 2102TIP3   OH2 6266   6.192   5.591   5.203  0.5552 -0.1516  0.4232
 2102TIP3    H1 6267   6.273   5.540   5.202  0.7587  0.1218  1.3762
 2102TIP3    H2 6268   6.221   5.680   5.222 -0.0186 -0.1956  1.6099
 2103TIP3   OH2 6269   0.152   0.609   5.639 -0.5277 -0.3441 -0.0618
 2103TIP3    H1 6270   0.122   0.522   5.666  0.8617 -0.2326  2.1392
 2103TIP3    H2 6271   0.208   0.638   5.711 -0.6459  2.2344 -0.9050
 2104TIP3   OH2 6272   4.950   4.731   1.037 -0.2402  0.2495 -0.5920
 2104TIP3    H1 6273   5.040   4.741   1.069 -0.5802 -0.6281  0.7048
 2104TIP3    H2 6274   4.917   4.820   1.030  0.4282  0.5348 -0.1667
 2105TIP3   OH2 6275   3.720   4.193   4.298 -0.2963 -0.0031  0.2912
 2105TIP3    H1 6276   3.726   4.278   4.342  0.6477  0.6138 -0.9892
 2105TIP3    H2 6277   3.637   4.196   4.251 -1.1589 -0.5428  1.7006
 2106TIP3   OH2 6278   6.436   2.526   2.657 -0.0729 -0.3706  0.3268
 2106TIP3    H1 6279   6.434   2.502   2.750 -1.2955  0.4523  0.5299
 2106TIP3    H2 6280   6.478   2.451   2.614 -0.9790 -1.5036  1.3364
 2107TIP3   OH2 6281   2.232   1.398   4.822  0.4943 -0.0901 -0.0632
 2107TIP3    H1 6282   2.278   1.462   4.767  0.0954 -0.4460 -0.8199
 2107TIP3    H2 6283   2.155   1.373   4.771 -1.5941  1.8621  1.9251
 2108TIP3   OH2 6284   5.045   2.189   2.682  0.5335  0.1080  0.0623
 2108TIP3    H1 6285   5.076   2.121   2.622  0.4353 -0.9189  1.1414
 2108TIP3    H2 6286   4.970   2.229   2.638  0.0110 -1.1261 -0.1925
 2109TIP3   OH2 6287   7.341   2.160   6.153 -0.5871  0.3965  0.6101
 2109TIP3    H1 6288   7.399   2.177   6.227 -2.2320  2.7187  1.4864
 2109TIP3    H2 6289   7.321   2.247   6.118 -3.2850 -0.3244  0.1811
 2110TIP3   OH2 6290   4.010   5.154   4.525 -0.3622  0.0959 -0.2704
 2110TIP3    H1 6291   3.991   5.198   4.443  0.0427  2.3902  0.7906
 2110TIP3    H2 6292   3.948   5.081   4.529 -1.6484  1.0618 -1.7263
 2111TIP3   OH2 6293   7.347   6.043   4.422  0.5025 -0.4392 -0.5887
 2111TIP3    H1 6294   7.347   5.959   4.376  0.8672  0.1011 -1.5938
 2111TIP3    H2 6295   7.403   6.029   4.498  1.3222 -0.8390 -1.2615
 2112TIP3   OH2 6296   4.672   6.054   4.001  0.5350 -0.0309 -0.1999
 2112TIP3    H1 6297   4.616   6.029   4.075 -0.5529 -0.6442 -1.1862
 2112TIP3    H2 6298   4.734   5.982   3.992 -0.2758 -0.6814 -0.7717
 2113TIP3   OH2 6299   0.314   1.416   2.747  0.2019 -0.4088  0.1310
 2113TIP3    H1 6300   0.285   1.328   2.771 -2.3525  0.8186  1.9679
 2113TIP3    H2 6301   0.286   1.427   2.656  0.7347 -1.5442 -0.1828
 2114TIP3   OH2 6302   2.129   5.728   2.008  0.1050  0.1496  0.2474
 2114TIP3    H1 6303   2.179   5.706   2.087  0.8714 -0.9680 -0.5244
 2114TIP3    H2 6304   2.040   5.696   2.026  0.0621  0.6519  0.9750
 2115TIP3   OH2 6305   1.995   1.582   0.657 -0.5482  0.3347 -0.1100
 2115TIP3    H1 6306   1.943   1.644   0.708 -0.4494 -0.6008  1.1795
 2115TIP3    H2 6307   2.049   1.537   0.722  1.1507  0.5644 -1.2974
 2116TIP3   OH2 6308   2.901   2.468   5.615  0.1405  0.0469  0.3078
 2116TIP3    H1 6309   2.944   2.398   5.665 -0.9718 -1.0184 -0.1589
 2116TIP3    H2 6310   2.833   2.500   5.674  0.5531  0.6576  0.4634
 2117TIP3   OH2 6311   3.964   1.839   5.729  0.4420  0.5592 -0.4818
 2117TIP3    H1 6312   3.912   1.918   5.712  1.0919  1.1522  0.1908
 2117TIP3    H2 6313   4.026   1.866   5.797 -0.4320 -1.0062  1.0102
 2118TIP3   OH2 6314   5.718   0.675   5.549  0.0949  0.4690  0.2133
 2118TIP3    H1 6315   5.767   0.712   5.475  0.0186  1.5677  0.6895
 2118TIP3    H2 6316   5.749   0.725   5.625  0.9809 -1.3788  1.1212
 2119TIP3   OH2 6317   2.243   3.837   5.150  1.0351  0.4343 -0.1617
 2119TIP3    H1 6318   2.276   3.747   5.150 -0.5749 -0.2103 -1.5817
 2119TIP3    H2 6319   2.307   3.885   5.202  1.6689 -1.6173  1.1031
 2120TIP3   OH2 6320   2.588   6.479   5.245  0.7891  0.5326  0.0949
 2120TIP3    H1 6321   2.533   6.542   5.197 -0.3170 -0.4760 -0.0115
 2120TIP3    H2 6322   2.621   6.529   5.320  1.4883  1.7652 -0.9926
 2121TIP3   OH2 6323   6.815   5.230   5.319 -0.1100 -0.1244  0.4476
 2121TIP3    H1 6324   6.884   5.170   5.290  0.4739  1.2794 -1.2233
 2121TIP3    H2 6325   6.734   5.185   5.297  0.3058 -0.5556 -0.2637
 2122TIP3   OH2 6326   4.501   3.789   2.480  0.2072  0.2360  0.3914
 2122TIP3    H1 6327   4.559   3.842   2.535 -0.3933 -0.2857  1.5724
 2122TIP3    H2 6328   4.491   3.706   2.528  1.9479 -1.4227 -1.8817
 2123TIP3   OH2 6329   5.463   3.012   3.464  0.0523  0.2773 -0.0863
 2123TIP3    H1 6330   5.508   2.930   3.486  1.2085  0.9450  0.1435
 2123TIP3    H2 6331   5.443   3.004   3.371 -0.5413 -0.5792  0.1060
 2124TIP3   OH2 6332   5.428   1.760   0.359  0.6524  0.3068  0.3085
 2124TIP3    H1 6333   5.404   1.841   0.314 -0.7580 -0.4223 -0.2985
 2124TIP3    H2 6334   5.454   1.789   0.447  0.7187  1.4659 -0.0661
 2125TIP3   OH2 6335   5.226   6.972   2.536 -0.1778  0.2316  0.2136
 2125TIP3    H1 6336   5.319   6.953   2.531 -0.2439  0.0906 -0.9861
 2125TIP3    H2 6337   5.207   6.980   2.629  1.1079  0.6502  0.4560
 2126TIP3   OH2 6338   1.500   1.801   1.840  0.3750 -0.0069 -0.0479
 2126TIP3    H1 6339   1.438   1.766   1.904  1.5758 -1.8119  0.1979
 2126TIP3    H2 6340   1.538   1.724   1.799  1.1413  1.0932 -1.4811
 2127TIP3   OH2 6341   2.974   2.214   1.388 -0.1021 -0.0783 -0.6294
 2127TIP3    H1 6342   2.992   2.308   1.383 -1.1212  0.1984  0.4118
 2127TIP3    H2 6343   2.899   2.200   1.330 -0.8950  0.0505  0.3167
 2128TIP3   OH2 6344   0.126   0.448   3.001  0.0369 -0.1705  0.2121
 2128TIP3    H1 6345   0.220   0.463   3.004 -0.3312  2.5700  1.0070
 2128TIP3    H2 6346   0.093   0.483   3.084 -1.7040 -1.0194 -0.0581
 2129TIP3   OH2 6347   0.198   2.976   1.742  0.4516  0.1035 -0.0713
 2129TIP3    H1 6348   0.161   3.064   1.737  1.1912  0.3936 -0.6667
 2129TIP3    H2 6349   0.288   2.989   1.771  1.1683 -0.2764 -2.0030
 2130TIP3   OH2 6350   3.779   6.162   4.131 -0.3517  0.4347 -0.1735
 2130TIP3    H1 6351   3.784   6.258   4.137 -3.1801  0.6617 -0.0643
 2130TIP3    H2 6352   3.767   6.133   4.221 -0.3718  0.0469 -0.3010
 2131TIP3   OH2 6353   6.103   5.991   1.609 -0.4283  0.3757  0.5861
 2131TIP3    H1 6354   6.097   6.078   1.570 -1.7825  0.5733  1.1818
 2131TIP3    H2 6355   6.185   5.955   1.574 -1.2820  0.7238 -1.9764
 2132TIP3   OH2 6356   4.732   6.099   0.400  0.0110 -0.5710 -0.5725
 2132TIP3    H1 6357   4.661   6.039   0.378  0.3032 -1.0608 -0.2075
 2132TIP3    H2 6358   4.809   6.060   0.359  0.3194 -0.7828  0.2085
 2133TIP3   OH2 6359   4.494   6.699   4.922  0.1213 -0.0783  0.1480
 2133TIP3    H1 6360   4.448   6.760   4.980  1.1715  0.5679  0.3411
 2133TIP3    H2 6361   4.428   6.670   4.860 -0.7960 -0.0279  1.0702
 2134TIP3   OH2 6362   6.291   5.493   5.864 -0.1181  0.0341  0.2487
 2134TIP3    H1 6363   6.271   5.464   5.953  2.2902  0.5552  1.0134
 2134TIP3    H2 6364   6.373   5.448   5.841 -0.2725  0.5263 -1.4186
 2135TIP3   OH2 6365   2.566   1.975   1.365 -0.2226  0.0275  0.3389
 2135TIP3    H1 6366   2.559   2.052   1.422  0.8618  3.3725 -3.5671
 2135TIP3    H2 6367   2.486   1.976   1.314  0.1517 -1.0326 -0.2957
 2136TIP3   OH2 6368   3.586   4.790   4.419 -0.3026 -0.9357  0.2808
 2136TIP3    H1 6369   3.644   4.805   4.494  0.2923 -2.5262  0.1736
 2136TIP3    H2 6370   3.635   4.731   4.362 -1.5396 -1.3431 -0.3934
 2137TIP3   OH2 6371   2.573   1.854   3.133 -0.0691 -0.0831  0.6740
 2137TIP3    H1 6372   2.664   1.856   3.103 -0.6437 -0.0811 -1.1241
 2137TIP3    H2 6373   2.580   1.834   3.227  1.7064 -2.2500  0.1612
 2138TIP3   OH2 6374   4.483   1.285   0.954  0.5555 -0.4791 -0.4879
 2138TIP3    H1 6375   4.554   1.222   0.963 -0.0628 -0.9593  1.9267
 2138TIP3    H2 6376   4.439   1.282   1.039  0.2699  2.9385 -0.3872
 2139TIP3   OH2 6377   2.556   1.318   1.675 -0.0400 -0.3161  0.0960
 2139TIP3    H1 6378   2.565   1.312   1.580 -1.5954  0.1573 -0.0965
 2139TIP3    H2 6379   2.574   1.229   1.706 -0.3936 -0.6845 -0.7186
 2140TIP3   OH2 6380   2.287   6.818   4.676 -0.1052  0.1247 -0.3584
 2140TIP3    H1 6381   2.260   6.903   4.711 -1.8135 -0.4363 -0.2444
 2140TIP3    H2 6382   2.235   6.806   4.597  2.2741  0.4741 -2.1056
 2141TIP3   OH2 6383   4.214   5.460   0.699  0.4841  0.3235  0.1457
 2141TIP3    H1 6384   4.156   5.432   0.628 -0.1722 -1.8173  1.4065
 2141TIP3    H2 6385   4.302   5.455   0.661  0.0699  0.3463 -0.8475
 2142TIP3   OH2 6386   4.161   2.894   1.766  0.1000  0.8160  0.4901
 2142TIP3    H1 6387   4.175   2.895   1.861  0.7770  0.7166  0.3948
 2142TIP3    H2 6388   4.244   2.924   1.729 -0.4192  1.6132 -0.0525
 2143TIP3   OH2 6389   3.420   3.444   4.328 -0.2645 -0.4002 -0.7113
 2143TIP3    H1 6390   3.376   3.366   4.294 -1.4343  0.3077 -0.8710
 2143TIP3    H2 6391   3.472   3.412   4.402  0.0870 -1.4897 -1.3984
 2144TIP3   OH2 6392   2.346   0.427   1.521  0.8369  0.0178 -0.3439
 2144TIP3    H1 6393   2.306   0.365   1.460 -1.2276  1.0840 -0.1764
 2144TIP3    H2 6394   2.302   0.409   1.604  0.8009  1.1362 -0.1140
 2145TIP3   OH2 6395   0.148   1.407   4.486 -0.4728  0.0364  0.2064
 2145TIP3    H1 6396   0.088   1.462   4.437  0.4277 -0.1518 -1.1448
 2145TIP3    H2 6397   0.210   1.468   4.526 -0.1286  0.0839 -0.3915
 2146TIP3   OH2 6398   0.381   5.847   4.022 -0.2674  0.3237 -0.3428
 2146TIP3    H1 6399   0.405   5.903   3.949 -0.3504 -1.2468 -1.6390
 2146TIP3    H2 6400   0.445   5.776   4.020 -1.2100 -0.5783  0.1288
 2147TIP3   OH2 6401   0.098   4.433   5.508  0.0592  0.3289  0.3281
 2147TIP3    H1 6402   0.163   4.403   5.444  0.4789  1.0168  0.4194
 2147TIP3    H2 6403   0.096   4.528   5.497 -0.0403  0.4318  1.1674
 2148TIP3   OH2 6404   4.054   1.299   2.644 -0.4809 -0.0614  0.2648
 2148TIP3    H1 6405   4.000   1.266   2.572 -2.4513  3.2328  0.0219
 2148TIP3    H2 6406   4.002   1.282   2.722  0.1026 -0.5789  0.5537
 2149TIP3   OH2 6407   1.526   0.901   3.842  0.4126 -0.4285 -0.2532
 2149TIP3    H1 6408   1.602   0.946   3.877  0.1270 -0.1487  0.0147
 2149TIP3    H2 6409   1.547   0.808   3.850 -0.2704 -0.4302  2.1296
 2150TIP3   OH2 6410   7.540   0.933   4.571  0.2098 -0.8106  0.2339
 2150TIP3    H1 6411   7.606   0.998   4.548 -0.9356  0.0047 -0.8522
 2150TIP3    H2 6412   7.510   0.959   4.658 -0.1350  0.0529 -0.1317
 2151TIP3   OH2 6413   2.331   1.276   5.463 -0.4828 -0.4545  0.2582
 2151TIP3    H1 6414   2.421   1.244   5.458 -0.5616 -0.7036  0.3872
 2151TIP3    H2 6415   2.324   1.341   5.394 -0.1277 -0.2490  0.4165
 2152TIP3   OH2 6416   2.478   2.384   5.017 -0.6015 -0.5751 -0.0782
 2152TIP3    H1 6417   2.547   2.450   5.011  0.2442 -1.5418 -1.6022
 2152TIP3    H2 6418   2.512   2.318   5.077  0.1897 -1.4304 -1.4083
 2153TIP3   OH2 6419   5.716   3.767   5.679 -0.1954  0.0314  0.1517
 2153TIP3    H1 6420   5.657   3.694   5.662 -1.1440  0.6414  0.7255
 2153TIP3    H2 6421   5.708   3.823   5.602 -0.4871  0.1958  0.3026
 2154TIP3   OH2 6422   4.036   7.102   0.254  0.3827  0.0292  0.6739
 2154TIP3    H1 6423   3.986   7.022   0.241  2.3523 -0.9136 -2.2369
 2154TIP3    H2 6424   4.047   7.108   0.348  0.2858 -3.2609  1.0245
 2155TIP3   OH2 6425   1.653   6.801   5.479 -0.2436  0.5866  0.0362
 2155TIP3    H1 6426   1.617   6.713   5.472  0.4716  0.0621  2.2154
 2155TIP3    H2 6427   1.726   6.792   5.540  0.3126  2.5638 -0.2783
 2156TIP3   OH2 6428   4.775   1.777   5.245 -0.0009 -0.3762  0.2250
 2156TIP3    H1 6429   4.754   1.683   5.249  0.4746 -0.5402 -0.7799
 2156TIP3    H2 6430   4.737   1.806   5.162  2.7872 -0.4692 -1.2117
 2157TIP3   OH2 6431   4.924   3.915   4.662 -0.2369 -0.5351 -0.3237
 2157TIP3    H1 6432   4.904   3.837   4.714 -1.0653  0.8124  1.5030
 2157TIP3    H2 6433   4.839   3.949   4.636  0.0573  0.3848 -0.0989
 2158TIP3   OH2 6434   6.851   2.442   3.001  0.3653 -0.1580  0.0787
 2158TIP3    H1 6435   6.880   2.358   2.963 -0.4515 -0.6779  0.5675
 2158TIP3    H2 6436   6.802   2.417   3.079 -0.9547  0.7077 -0.4456
 2159TIP3   OH2 6437   0.273   0.669   0.963 -0.1865  0.8415 -0.7165
 2159TIP3    H1 6438   0.268   0.760   0.933  0.6030  0.6510 -1.4959
 2159TIP3    H2 6439   0.183   0.645   0.982 -0.6943  1.1255 -2.5704
 2160TIP3   OH2 6440   4.775   5.635   1.273 -0.5139 -0.3007 -0.4509
 2160TIP3    H1 6441   4.798   5.728   1.272 -1.7728  0.0374 -1.5621
 2160TIP3    H2 6442   4.859   5.589   1.264  0.0515  0.7522 -0.6996
 2161TIP3   OH2 6443   3.170   0.761   1.394  0.5223  0.4431  0.0523
 2161TIP3    H1 6444   3.177   0.841   1.446 -0.7224  0.5631  0.0674
 2161TIP3    H2 6445   3.077   0.754   1.372  0.5126 -1.2434  0.4379
 2162TIP3   OH2 6446   0.171   3.154   4.112  0.0621 -0.6385 -0.0669
 2162TIP3    H1 6447   0.186   3.161   4.207 -1.0559  1.0056  0.0380
 2162TIP3    H2 6448   0.210   3.234   4.076 -1.3131 -0.2177 -0.7064
 2163TIP3   OH2 6449   3.868   3.082   4.824 -0.2083  0.8248  0.0350
 2163TIP3    H1 6450   3.919   3.005   4.849  0.3200  1.1728  0.0441
 2163TIP3    H2 6451   3.786   3.046   4.788  1.1189  0.1119 -2.5296
 2164TIP3   OH2 6452   2.588   0.107   3.041  0.4304 -0.0543  0.1113
 2164TIP3    H1 6453   2.572   0.094   2.947 -0.9238  0.7751  0.2036
 2164TIP3    H2 6454   2.604   0.019   3.075 -2.2633 -0.8093 -0.3592
 2165TIP3   OH2 6455   4.721   5.693   0.607 -0.0233 -0.3822 -0.2555
 2165TIP3    H1 6456   4.775   5.675   0.530  2.2820 -0.4502  1.2684
 2165TIP3    H2 6457   4.743   5.784   0.631 -0.0947 -0.6105  0.7338
 2166TIP3   OH2 6458   1.399   5.976   2.623  0.2091 -0.4662  0.1351
 2166TIP3    H1 6459   1.494   5.977   2.626  0.2499  0.1176 -1.0576
 2166TIP3    H2 6460   1.375   5.884   2.637  1.0662 -1.1028 -2.2499
 2167TIP3   OH2 6461   1.868   4.565   4.369 -0.1839 -0.1022 -0.4634
 2167TIP3    H1 6462   1.813   4.515   4.429  0.7841 -0.0020  0.5337
 2167TIP3    H2 6463   1.848   4.656   4.389 -1.6380 -0.0309 -1.9950
 2168TIP3   OH2 6464   0.069   5.570   1.307 -0.1368 -0.1090  0.0841
 2168TIP3    H1 6465   0.044   5.658   1.337  1.4604  0.3193  0.2522
 2168TIP3    H2 6466   0.066   5.577   1.211 -2.4238 -0.6387  0.0539
 2169TIP3   OH2 6467   1.068   5.995   3.745 -0.5317  0.1919 -0.0536
 2169TIP3    H1 6468   0.987   6.045   3.751 -1.2224 -1.0123  0.9808
 2169TIP3    H2 6469   1.072   5.966   3.654 -2.6935 -1.9984  0.4457
 2170TIP3   OH2 6470   5.031   1.850   1.797 -0.4828  0.2675 -0.4484
 2170TIP3    H1 6471   5.097   1.906   1.755  0.2116 -0.6428 -0.6050
 2170TIP3    H2 6472   4.968   1.912   1.835  0.2666  1.1508 -0.5984
 2171TIP3   OH2 6473   5.697   4.303   4.549 -0.0982  0.5371  0.1488
 2171TIP3    H1 6474   5.779   4.334   4.587 -0.2875  1.2195  0.0095
 2171TIP3    H2 6475   5.723   4.260   4.468  0.1370  0.6252  0.1774
 2172TIP3   OH2 6476   5.000   2.737   0.158  0.2342 -0.5399 -0.3432
 2172TIP3    H1 6477   5.018   2.824   0.122  0.1960 -0.2410  0.3342
 2172TIP3    H2 6478   5.039   2.739   0.246 -1.3453 -0.5564  0.3929
 2173TIP3   OH2 6479   7.399   3.661   4.771 -0.1649  0.5734  0.2654
 2173TIP3    H1 6480   7.391   3.705   4.686 -2.0843  0.7068  0.4612
 2173TIP3    H2 6481   7.333   3.704   4.826 -1.0382 -1.4752  0.9203
 2174TIP3   OH2 6482   6.489   2.233   2.416 -0.3861  0.1226 -1.1081
 2174TIP3    H1 6483   6.426   2.270   2.354 -1.7954  0.4423  0.4264
 2174TIP3    H2 6484   6.564   2.291   2.412 -0.2709 -0.0862 -2.7698
 2175TIP3   OH2 6485   2.330   5.630   4.655 -0.3314  0.2757  0.3068
 2175TIP3    H1 6486   2.259   5.566   4.657  0.3749 -0.5234  3.1305
 2175TIP3    H2 6487   2.286   5.715   4.660 -1.1764  0.0128 -1.5532
 2176TIP3   OH2 6488   5.773   6.641   2.689 -0.0779 -0.4777  0.1723
 2176TIP3    H1 6489   5.852   6.631   2.636 -1.2560  2.5015 -2.4528
 2176TIP3    H2 6490   5.800   6.699   2.761  0.2763  0.1167 -0.4266
 2177TIP3   OH2 6491   0.759   0.068   1.678 -0.1183 -0.1971  1.2650
 2177TIP3    H1 6492   0.854   0.072   1.667 -0.3200 -0.9679 -1.4774
 2177TIP3    H2 6493   0.735   0.155   1.710  1.1823  1.3963 -1.6852
 2178TIP3   OH2 6494   2.425   0.783   0.716 -0.4816 -0.0113  0.0593
 2178TIP3    H1 6495   2.436   0.863   0.665  1.3084  0.3099  0.8525
 2178TIP3    H2 6496   2.391   0.812   0.800 -1.9834 -0.3708 -0.3956
 2179TIP3   OH2 6497   5.665   4.402   0.656 -0.3788  0.0539  0.2419
 2179TIP3    H1 6498   5.623   4.335   0.602  0.7159  0.6315 -1.4065
 2179TIP3    H2 6499   5.677   4.359   0.741 -1.6102 -1.0976 -0.1169
 2180TIP3   OH2 6500   2.834   5.119   1.065  0.0131 -0.0975 -0.4311
 2180TIP3    H1 6501   2.890   5.061   1.117 -1.3702 -0.2743  0.9408
 2180TIP3    H2 6502   2.818   5.071   0.984  0.5296 -0.7523 -0.1502
 2181TIP3   OH2 6503   4.977   5.713   6.180 -0.1453 -0.5355  0.5755
 2181TIP3    H1 6504   4.905   5.705   6.243  0.0542 -2.2690  0.6241
 2181TIP3    H2 6505   4.962   5.643   6.117  0.8640 -0.1942 -0.0673
 2182TIP3   OH2 6506   2.438   6.387   1.961  0.0006  0.8824  0.7123
 2182TIP3    H1 6507   2.525   6.425   1.976  0.3169  0.6723 -0.4303
 2182TIP3    H2 6508   2.431   6.316   2.025  0.7978  0.7352  0.6539
 2183TIP3   OH2 6509   0.206   4.929   4.675 -0.2812  0.1395  0.0116
 2183TIP3    H1 6510   0.170   5.018   4.677 -2.8697 -0.8222  1.3137
 2183TIP3    H2 6511   0.154   4.881   4.740  1.4940 -2.1708 -0.1566
 2184TIP3   OH2 6512   3.766   4.659   2.321  0.0460 -0.6349 -0.0960
 2184TIP3    H1 6513   3.706   4.586   2.307 -1.5715  0.6623 -0.2597
 2184TIP3    H2 6514   3.823   4.660   2.244  1.4517 -2.8862  0.8149
 2185TIP3   OH2 6515   6.166   5.731   0.612  0.5253  0.1688  0.2619
 2185TIP3    H1 6516   6.224   5.695   0.544  1.0898  0.5068  0.5534
 2185TIP3    H2 6517   6.212   5.714   0.694  0.1672  0.3644  0.5035
 2186TIP3   OH2 6518   7.100   4.020   4.023 -0.4905 -0.2271 -0.2011
 2186TIP3    H1 6519   7.011   4.037   3.992  0.0898  0.9945 -1.3194
 2186TIP3    H2 6520   7.143   4.106   4.020  1.0136 -0.9621 -0.6756
 2187TIP3   OH2 6521   5.205   4.669   1.112  0.5968 -0.5498 -0.0833
 2187TIP3    H1 6522   5.262   4.612   1.060 -0.2473 -0.3917 -1.2158
 2187TIP3    H2 6523   5.254   4.685   1.192  1.3426 -1.9323 -0.2382
 2188TIP3   OH2 6524   1.333   2.340   0.477  0.1726 -0.3351  0.3448
 2188TIP3    H1 6525   1.280   2.264   0.502  0.4261 -0.6834 -0.1572
 2188TIP3    H2 6526   1.305   2.361   0.388 -0.7089  0.8866  0.8862
 2189TIP3   OH2 6527   3.348   2.985   4.423 -0.4432  0.2968 -0.1860
 2189TIP3    H1 6528   3.353   3.072   4.462 -1.5659  0.4026 -0.2465
 2189TIP3    H2 6529   3.400   2.991   4.344 -1.0600  1.1219 -0.5420
 2190TIP3   OH2 6530   0.852   3.231   4.793  0.5181 -0.6141 -0.0098
 2190TIP3    H1 6531   0.833   3.258   4.704 -1.4510  0.2052  0.6170
 2190TIP3    H2 6532   0.861   3.135   4.788 -0.9121 -0.7226 -0.8820
 2191TIP3   OH2 6533   6.272   3.586   1.275  0.2876  0.2820 -0.4506
 2191TIP3    H1 6534   6.342   3.617   1.218  2.9740  0.8982  2.8738
 2191TIP3    H2 6535   6.215   3.662   1.287  0.6950  0.6496 -0.8199
 2192TIP3   OH2 6536   0.168   6.581   2.908  0.5716  0.4568  0.1056
 2192TIP3    H1 6537   0.122   6.559   2.989  2.3288 -1.2346  0.7223
 2192TIP3    H2 6538   0.259   6.592   2.934  0.9360  1.4583 -1.4279
 2193TIP3   OH2 6539   1.004   4.290   3.271 -0.1754  0.6381  0.2774
 2193TIP3    H1 6540   1.093   4.291   3.308 -0.5596 -3.2873  1.7000
 2193TIP3    H2 6541   1.015   4.255   3.183 -0.3401 -0.1879  0.5838
 2194TIP3   OH2 6542   0.177   3.676   2.714 -0.3700 -0.2068  0.7374
 2194TIP3    H1 6543   0.190   3.596   2.664  0.4877  0.4806 -0.1775
 2194TIP3    H2 6544   0.126   3.649   2.790 -1.3646 -1.3484 -0.3004
 2195TIP3   OH2 6545   0.516   1.624   1.008 -0.1001  0.0517 -0.1549
 2195TIP3    H1 6546   0.524   1.533   1.037 -0.1664  0.1387  0.1334
 2195TIP3    H2 6547   0.422   1.638   0.997 -0.1850  0.4590  0.9968
 2196TIP3   OH2 6548   7.364   7.122   4.246 -0.0808 -0.0482 -0.4197
 2196TIP3    H1 6549   7.419   7.148   4.320  0.1644 -0.6849 -0.3734
 2196TIP3    H2 6550   7.362   7.199   4.189 -0.9619  0.7473  0.6487
 2197TIP3   OH2 6551   5.610   1.102   2.931  0.1814  0.2254  0.5741
 2197TIP3    H1 6552   5.626   1.008   2.933  0.6873  0.2148 -1.5842
 2197TIP3    H2 6553   5.689   1.140   2.970  0.4792 -0.2154  0.4106
 2198TIP3   OH2 6554   7.321   1.644   4.773 -0.9209  0.0240  0.4626
 2198TIP3    H1 6555   7.254   1.610   4.714  2.0007 -1.0140 -2.5993
 2198TIP3    H2 6556   7.348   1.727   4.733  0.6762 -0.3726  0.6301
 2199TIP3   OH2 6557   2.066   2.854   4.109 -0.2165 -0.4019 -0.0159
 2199TIP3    H1 6558   2.039   2.932   4.061  0.9549 -1.9452 -3.5578
 2199TIP3    H2 6559   1.985   2.817   4.144 -0.8295  2.0572  1.4109
 2200TIP3   OH2 6560   0.803   4.710   2.694  0.1344 -0.0980 -0.3752
 2200TIP3    H1 6561   0.726   4.689   2.642 -0.1091  2.1019 -0.9920
 2200TIP3    H2 6562   0.876   4.671   2.645 -0.2608  0.6101 -1.5738
 2201TIP3   OH2 6563   7.157   4.525   0.593 -0.2632 -0.2932 -0.3219
 2201TIP3    H1 6564   7.193   4.612   0.608 -0.6124  0.0831 -1.5393
 2201TIP3    H2 6565   7.086   4.517   0.657  0.0770  0.1126  0.1181
 2202TIP3   OH2 6566   2.035   5.387   1.898 -0.0659  0.1737 -0.3454
 2202TIP3    H1 6567   1.961   5.403   1.957  0.1254 -1.9091  0.5267
 2202TIP3    H2 6568   2.112   5.416   1.948  0.1340 -1.9201  0.6487
 2203TIP3   OH2 6569   1.125   0.325   4.565  0.2107  0.0604 -0.5388
 2203TIP3    H1 6570   1.182   0.266   4.613 -0.4562 -2.2199 -2.3220
 2203TIP3    H2 6571   1.037   0.289   4.578 -0.0513 -0.2863 -2.8474
 2204TIP3   OH2 6572   2.601   2.214   5.206 -0.0869 -0.1406 -0.3601
 2204TIP3    H1 6573   2.636   2.126   5.189 -0.9056 -0.3559 -0.9954
 2204TIP3    H2 6574   2.661   2.251   5.270  0.2387 -1.1900 -0.0328
 2205TIP3   OH2 6575   4.833   7.135   1.817 -0.2693  0.5094 -0.4406
 2205TIP3    H1 6576   4.873   7.059   1.860  1.3228  1.7240  0.3348
 2205TIP3    H2 6577   4.769   7.167   1.880 -2.4746 -1.3175 -1.6006
 2206TIP3   OH2 6578   6.126   4.372   5.605  0.8075 -0.5744  0.0683
 2206TIP3    H1 6579   6.183   4.444   5.576  0.2170  0.9125  2.3535
 2206TIP3    H2 6580   6.059   4.365   5.537  2.6316 -1.1664 -1.7749
 2207TIP3   OH2 6581   4.650   3.622   4.228 -0.2745  0.5414 -0.1006
 2207TIP3    H1 6582   4.677   3.530   4.228  0.1566  0.6503  0.9948
 2207TIP3    H2 6583   4.654   3.648   4.320  2.0681  2.3477 -0.6076
 2208TIP3   OH2 6584   5.956   0.276   2.560  0.3401 -0.0247  0.0284
 2208TIP3    H1 6585   5.931   0.317   2.477 -1.8840  0.0018  0.6227
 2208TIP3    H2 6586   5.934   0.183   2.549  2.7341 -0.6005 -0.3490
 2209TIP3   OH2 6587   2.649   4.088   0.979 -0.7148 -0.1364 -0.3864
 2209TIP3    H1 6588   2.724   4.138   1.011  1.2054 -2.1762 -1.4528
 2209TIP3    H2 6589   2.608   4.146   0.915 -0.0420  1.0030  0.1728
 2210TIP3   OH2 6590   5.464   4.137   1.378 -0.2194  0.1917  0.0013
 2210TIP3    H1 6591   5.535   4.158   1.438 -0.3052 -0.4711  0.3405
 2210TIP3    H2 6592   5.426   4.222   1.355  0.2137  0.4930  0.3839
 2211TIP3   OH2 6593   0.459   1.424   1.863 -0.1782 -0.6645  0.0150
 2211TIP3    H1 6594   0.400   1.436   1.938  0.6309 -2.0761  0.9194
 2211TIP3    H2 6595   0.475   1.512   1.831 -1.5959 -0.1330  0.6745
 2212TIP3   OH2 6596   1.203   1.400   3.163 -0.0656  0.1654 -0.1063
 2212TIP3    H1 6597   1.160   1.315   3.157 -1.6967  1.0186 -1.6249
 2212TIP3    H2 6598   1.201   1.422   3.256 -0.5541 -1.0078  0.1746
 2213TIP3   OH2 6599   5.910   4.436   2.034  0.5153  0.7685  0.2074
 2213TIP3    H1 6600   5.935   4.446   2.125  0.4993 -1.9514  0.5715
 2213TIP3    H2 6601   5.839   4.499   2.021  0.9408  1.6229  1.8678
 2214TIP3   OH2 6602   3.802   2.154   4.411 -0.7960 -0.1630 -0.2022
 2214TIP3    H1 6603   3.814   2.126   4.502 -0.0374 -0.6219 -0.4349
 2214TIP3    H2 6604   3.806   2.250   4.415 -0.6873 -0.1831  0.2367
 2215TIP3   OH2 6605   2.794   1.297   3.317 -0.2211  0.2120  0.2194
 2215TIP3    H1 6606   2.836   1.383   3.314  0.6149 -0.1960  0.0254
 2215TIP3    H2 6607   2.810   1.260   3.230 -0.7271 -0.0713  0.2467
 2216TIP3   OH2 6608   6.375   2.710   0.537 -0.4720  0.3048 -0.2044
 2216TIP3    H1 6609   6.383   2.739   0.446  0.2781  0.0449 -0.2263
 2216TIP3    H2 6610   6.342   2.621   0.532  0.4873 -0.0603 -0.2693
 2217TIP3   OH2 6611   7.378   6.278   2.455  0.5412 -0.3025 -0.5965
 2217TIP3    H1 6612   7.299   6.236   2.422  0.3597  0.0417 -0.5979
 2217TIP3    H2 6613   7.416   6.213   2.514  0.3880 -0.5642 -0.7840
 2218TIP3   OH2 6614   6.193   6.420   3.521  0.3266 -0.5011  0.4053
 2218TIP3    H1 6615   6.232   6.443   3.605 -0.4220 -0.9452  0.8806
 2218TIP3    H2 6616   6.261   6.441   3.457  0.8002  0.1086  1.0872
 2219TIP3   OH2 6617   4.308   4.185   2.760  0.2654  0.0474 -0.1798
 2219TIP3    H1 6618   4.302   4.108   2.817  0.4350  0.9202  1.0595
 2219TIP3    H2 6619   4.234   4.240   2.785  0.3410  0.4543 -0.8168
 2220TIP3   OH2 6620   3.145   4.866   4.887  0.3807  0.6974  0.2650
 2220TIP3    H1 6621   3.098   4.921   4.824 -0.1203 -0.0684 -0.0373
 2220TIP3    H2 6622   3.116   4.898   4.973 -1.7736 -0.6300  0.0994
 2221TIP3   OH2 6623   4.077   1.646   3.696  0.3576  0.2801 -0.2892
 2221TIP3    H1 6624   4.028   1.590   3.756 -0.0284 -0.3209 -1.1401
 2221TIP3    H2 6625   4.014   1.711   3.667  0.1772 -0.1923 -0.9987
 2222TIP3   OH2 6626   0.307   6.545   4.942 -0.4234 -0.0057  0.4647
 2222TIP3    H1 6627   0.378   6.503   4.990  0.5560  1.5510  0.4389
 2222TIP3    H2 6628   0.293   6.489   4.866  1.3033  0.0580  0.0680
 2223TIP3   OH2 6629   2.522   5.213   5.904  0.1712  0.0383  0.5267
 2223TIP3    H1 6630   2.494   5.262   5.981  0.5017  2.2161 -0.6393
 2223TIP3    H2 6631   2.460   5.239   5.835  0.8718 -0.5362 -0.3525
 2224TIP3   OH2 6632   4.752   4.491   2.084 -0.7694 -1.1646  0.3964
 2224TIP3    H1 6633   4.827   4.503   2.026 -0.1233  2.0116  1.6734
 2224TIP3    H2 6634   4.677   4.521   2.033 -0.6266 -1.0067  0.2778
 2225TIP3   OH2 6635   1.918   0.161   1.571  0.2647  0.0224  0.4188
 2225TIP3    H1 6636   1.954   0.109   1.499 -1.6957 -0.5451 -0.2174
 2225TIP3    H2 6637   1.895   0.097   1.638 -0.4470  0.2453  0.3971
 2226TIP3   OH2 6638   6.028   0.118   0.346 -0.1293  0.0773 -0.2883
 2226TIP3    H1 6639   5.956   0.087   0.290 -0.9512 -0.9611  1.2597
 2226TIP3    H2 6640   6.010   0.211   0.358 -0.5068  0.0952 -0.9224
 2227TIP3   OH2 6641   2.420   4.846   1.820 -0.3342 -0.5638 -0.2698
 2227TIP3    H1 6642   2.500   4.879   1.779 -2.1510  2.9867 -1.3426
 2227TIP3    H2 6643   2.388   4.779   1.760  1.1500 -1.1480 -0.4445
 2228TIP3   OH2 6644   6.657   2.338   2.690  0.5106  0.3006  0.1130
 2228TIP3    H1 6645   6.715   2.371   2.622  0.3207 -2.1922 -1.3986
 2228TIP3    H2 6646   6.713   2.331   2.768  0.7911  2.9471  0.2330
 2229TIP3   OH2 6647   6.076   4.375   1.798 -0.1469 -0.1245  0.5423
 2229TIP3    H1 6648   6.013   4.427   1.849 -1.9785 -1.9800  0.3356
 2229TIP3    H2 6649   6.055   4.395   1.707  1.0534  0.8577  0.4591
 2230TIP3   OH2 6650   3.266   6.809   0.613  0.2033  0.1939 -0.0763
 2230TIP3    H1 6651   3.360   6.825   0.620  0.2879 -0.3763  0.1081
 2230TIP3    H2 6652   3.254   6.719   0.645 -0.8085  1.3000  3.1248
 2231TIP3   OH2 6653   5.691   2.557   5.022 -0.0287  0.0056 -0.8633
 2231TIP3    H1 6654   5.636   2.635   5.017 -0.4709 -0.0226  1.7719
 2231TIP3    H2 6655   5.764   2.575   4.963 -0.5928  1.9962 -1.0352
 2232TIP3   OH2 6656   0.391   2.477   5.686  0.0833 -0.7015  0.4732
 2232TIP3    H1 6657   0.383   2.394   5.640  1.5950  0.0910 -1.3507
 2232TIP3    H2 6658   0.486   2.487   5.699 -0.2224 -0.4221  2.9439
 2233TIP3   OH2 6659   4.554   3.106   2.260  0.4308 -0.1584 -0.1576
 2233TIP3    H1 6660   4.622   3.171   2.240  1.1148 -1.1585 -1.1617
 2233TIP3    H2 6661   4.596   3.022   2.245 -0.7084 -0.8265  0.3016
 2234TIP3   OH2 6662   2.056   2.043   1.392 -0.3390  0.4390 -0.3573
 2234TIP3    H1 6663   2.063   1.978   1.462  0.4592  0.9817  0.0783
 2234TIP3    H2 6664   1.996   2.109   1.427  0.0791  0.7226 -0.1766
 2235TIP3   OH2 6665   6.731   0.243   3.783 -0.0092 -0.6510 -0.5640
 2235TIP3    H1 6666   6.755   0.326   3.743 -1.2604  0.0783  0.1102
 2235TIP3    H2 6667   6.713   0.265   3.875 -2.8564 -1.1308 -0.9273
 2236TIP3   OH2 6668   6.982   0.443   0.538 -1.0555  0.4685 -0.2841
 2236TIP3    H1 6669   7.034   0.368   0.510 -1.2211 -0.1000  0.8756
 2236TIP3    H2 6670   6.894   0.407   0.551 -0.9008  0.6140  1.2928
 2237TIP3   OH2 6671   7.190   2.125   2.046  0.0922  0.1044 -0.1421
 2237TIP3    H1 6672   7.140   2.145   1.967 -1.0945 -0.5856  0.4033
 2237TIP3    H2 6673   7.279   2.157   2.028 -0.0039 -0.5652 -1.9712
 2238TIP3   OH2 6674   3.654   4.259   3.428 -0.4279  0.8170  0.0133
 2238TIP3    H1 6675   3.722   4.235   3.491 -0.7320 -0.8387 -0.2464
 2238TIP3    H2 6676   3.584   4.298   3.481 -0.6204 -0.4316  0.7093
 2239TIP3   OH2 6677   2.025   2.743   1.553  0.6640 -0.3725  0.7559
 2239TIP3    H1 6678   1.942   2.783   1.577 -0.4759 -2.6712  0.8454
 2239TIP3    H2 6679   2.079   2.750   1.632 -1.0606 -2.8139  2.2559
 2240TIP3   OH2 6680   6.676   6.240   2.681 -0.6441  0.4681 -0.0574
 2240TIP3    H1 6681   6.656   6.249   2.588 -1.2123 -3.2748 -0.4559
 2240TIP3    H2 6682   6.594   6.262   2.725 -0.8905  0.6129 -0.5886
 2241TIP3   OH2 6683   7.555   1.056   1.577 -0.4606  0.0478 -0.0830
 2241TIP3    H1 6684   7.589   1.106   1.652 -0.2251  2.3828 -1.6302
 2241TIP3    H2 6685   7.633   1.023   1.533 -0.4508  0.6387 -0.5292
 2242TIP3   OH2 6686   1.718   3.912   0.092  0.3539  0.3802  0.2634
 2242TIP3    H1 6687   1.737   3.848   0.023 -1.1776 -1.1689  1.2095
 2242TIP3    H2 6688   1.779   3.891   0.162  0.2261  0.3250  0.3580
 2243TIP3   OH2 6689   7.468   4.647   4.320 -0.1968 -0.0614 -0.3745
 2243TIP3    H1 6690   7.513   4.726   4.289  0.3320 -0.4431 -0.5865
 2243TIP3    H2 6691   7.481   4.583   4.251 -1.9531  0.1163 -0.9163
 2244TIP3   OH2 6692   5.155   5.697   4.433  0.3086  0.4510  0.0501
 2244TIP3    H1 6693   5.082   5.729   4.380 -0.6619 -0.8257  0.5612
 2244TIP3    H2 6694   5.114   5.666   4.514  1.7331  2.2450  1.5387
 2245TIP3   OH2 6695   7.477   0.641   2.038  0.2564  0.2689 -0.7504
 2245TIP3    H1 6696   7.422   0.711   2.004  0.4373  0.0724 -1.4639
 2245TIP3    H2 6697   7.556   0.685   2.069 -1.5586  1.0421  3.4914
 2246TIP3   OH2 6698   0.366   0.652   1.224 -0.1023  0.1630  0.9019
 2246TIP3    H1 6699   0.375   0.733   1.274  1.6338  0.9412 -0.5456
 2246TIP3    H2 6700   0.324   0.679   1.143 -2.2074 -0.9523  1.5703
 2247TIP3   OH2 6701   2.534   2.373   0.153 -0.0866 -0.4180  0.2122
 2247TIP3    H1 6702   2.605   2.402   0.095  1.0758  0.6105  2.0367
 2247TIP3    H2 6703   2.497   2.296   0.109  1.5593 -0.4400 -1.2485
 2248TIP3   OH2 6704   2.171   5.541   2.938  0.2032  0.5508 -0.0970
 2248TIP3    H1 6705   2.208   5.518   2.853  2.0264  0.1027  0.7613
 2248TIP3    H2 6706   2.144   5.632   2.929  0.7822  0.6393 -1.0230
 2249TIP3   OH2 6707   7.390   1.784   3.991  0.4882 -0.3020 -0.5875
 2249TIP3    H1 6708   7.319   1.848   3.982  0.7629  0.0608 -0.2369
 2249TIP3    H2 6709   7.440   1.815   4.067  0.9271 -0.6460 -0.7334
 2250TIP3   OH2 6710   7.480   4.079   0.898  0.4514  0.1170  0.0374
 2250TIP3    H1 6711   7.496   4.163   0.856 -1.1387 -0.2735 -1.4638
 2250TIP3    H2 6712   7.561   4.030   0.886  0.1840  0.1401 -2.3998
 2251TIP3   OH2 6713   2.819   0.633   4.051  0.8138 -0.1663  0.5856
 2251TIP3    H1 6714   2.862   0.717   4.034  1.4518 -0.6883 -0.4819
 2251TIP3    H2 6715   2.889   0.569   4.048  0.6487 -0.5735  3.3403
 2252TIP3   OH2 6716   7.004   1.601   3.399  0.1384 -0.2132  0.3085
 2252TIP3    H1 6717   7.073   1.565   3.343 -1.9409 -1.4057 -1.6780
 2252TIP3    H2 6718   6.949   1.525   3.421 -0.2384  0.5907  2.3425
 2253TIP3   OH2 6719   4.553   1.251   4.040  0.4313 -0.0352 -0.2685
 2253TIP3    H1 6720   4.627   1.294   3.998  0.4397  0.0690 -0.1492
 2253TIP3    H2 6721   4.592   1.178   4.088  0.4856  0.1591 -0.0162
 2254TIP3   OH2 6722   1.218   3.746   6.222 -0.3437  0.0595  0.4059
 2254TIP3    H1 6723   1.264   3.780   6.145  0.3492  0.4295  0.9769
 2254TIP3    H2 6724   1.125   3.759   6.201 -0.1276  1.8976  0.3947
 2255TIP3   OH2 6725   6.348   4.319   5.283 -0.4087  0.1619  0.4996
 2255TIP3    H1 6726   6.382   4.270   5.358 -0.5896  0.5987  0.8680
 2255TIP3    H2 6727   6.297   4.254   5.234  1.0025 -0.5332 -0.1183
 2256TIP3   OH2 6728   2.398   5.532   4.051  0.0761  0.0302  0.1309
 2256TIP3    H1 6729   2.351   5.612   4.026 -1.1212 -0.2221  1.4430
 2256TIP3    H2 6730   2.406   5.538   4.147 -1.7723 -2.2900  0.5232
 2257TIP3   OH2 6731   0.035   0.409   4.765  0.1154 -0.1720 -0.2510
 2257TIP3    H1 6732   0.106   0.354   4.732 -1.4874 -1.0458 -2.4567
 2257TIP3    H2 6733  -0.022   0.348   4.813 -0.5272 -0.0410 -0.8310
 2258TIP3   OH2 6734   0.308   1.302   3.572 -0.7586  0.4501 -0.1380
 2258TIP3    H1 6735   0.343   1.224   3.616 -0.0952  0.5619 -0.4425
 2258TIP3    H2 6736   0.297   1.366   3.643  0.3713  0.6535 -0.1264
 2259TIP3   OH2 6737   2.961   1.000   4.114 -0.4327  0.1887  0.0435
 2259TIP3    H1 6738   2.894   0.996   4.183  0.5922 -0.6318  1.0283
 2259TIP3    H2 6739   3.025   1.063   4.147  1.7675 -2.5710  1.5098
 2260TIP3   OH2 6740   6.832   0.769   4.088 -0.6439  0.1381  0.7888
 2260TIP3    H1 6741   6.803   0.830   4.156 -1.7172  1.7674 -1.0131
 2260TIP3    H2 6742   6.924   0.793   4.072 -1.3353  2.1629 -0.6417
 2261TIP3   OH2 6743   6.026   3.384   3.989 -0.5878 -0.2629  0.3656
 2261TIP3    H1 6744   6.047   3.458   4.046  0.7401  0.2933 -0.7969
 2261TIP3    H2 6745   6.028   3.420   3.900 -0.0504 -1.6528 -0.2226
 2262TIP3   OH2 6746   0.950   4.395   3.533 -0.4480  0.0884  0.0533
 2262TIP3    H1 6747   0.933   4.375   3.441 -0.4909 -0.1918  0.1216
 2262TIP3    H2 6748   0.947   4.310   3.577  0.0873  0.1552  0.2295
 2263TIP3   OH2 6749   1.036   3.228   3.592  0.4444  0.1742  0.1744
 2263TIP3    H1 6750   1.024   3.285   3.668 -1.4844  0.4657 -0.3022
 2263TIP3    H2 6751   1.042   3.139   3.629  0.0693  0.3675  0.7053
 2264TIP3   OH2 6752   2.356   1.245   3.532 -0.3781  0.0174  0.1363
 2264TIP3    H1 6753   2.264   1.265   3.516 -0.2412  1.6613  1.0990
 2264TIP3    H2 6754   2.362   1.237   3.627  0.0703 -2.5200 -0.0315
 2265TIP3   OH2 6755   3.166   0.321   3.703  0.2381  0.4470  0.5823
 2265TIP3    H1 6756   3.133   0.334   3.792 -0.2903 -0.9855  0.6221
 2265TIP3    H2 6757   3.261   0.321   3.712  0.2007 -1.9254  1.5380
 2266TIP3   OH2 6758   6.333   2.583   2.122 -0.6655  0.0592  0.0534
 2266TIP3    H1 6759   6.313   2.610   2.033 -0.2445  1.2985  0.3111
 2266TIP3    H2 6760   6.414   2.629   2.144 -0.1650 -1.0751  0.7038
 2267TIP3   OH2 6761   6.671   1.588   0.492 -0.8103  0.3544  0.1441
 2267TIP3    H1 6762   6.646   1.676   0.464 -0.3374  0.1354 -1.0031
 2267TIP3    H2 6763   6.737   1.603   0.560 -0.1770  0.8952 -0.5672
 2268TIP3   OH2 6764   0.060   0.644   0.723  0.7978  0.0863  0.4505
 2268TIP3    H1 6765   0.009   0.564   0.734  2.5140 -1.0645  0.5964
 2268TIP3    H2 6766   0.151   0.614   0.727  1.4941  2.0796  0.6619
 2269TIP3   OH2 6767   0.812   3.156   2.899 -0.3585  0.5974 -1.0360
 2269TIP3    H1 6768   0.877   3.218   2.931  0.2163  0.4836 -1.9182
 2269TIP3    H2 6769   0.741   3.159   2.962  1.0882 -0.2777  0.7231
 2270TIP3   OH2 6770   2.659   2.569   5.066  0.0253 -0.1274  0.3855
 2270TIP3    H1 6771   2.592   2.620   5.112  0.1891  0.1663  0.3084
 2270TIP3    H2 6772   2.742   2.599   5.106  0.2100  0.5124 -0.4555
 2271TIP3   OH2 6773   1.543   5.228   3.661  0.0264  0.0647 -0.0210
 2271TIP3    H1 6774   1.630   5.260   3.638 -0.1035 -0.3577 -1.1501
 2271TIP3    H2 6775   1.528   5.262   3.749  1.1175  0.5748 -0.0122
 2272TIP3   OH2 6776   6.013   1.123   3.686  0.1235  0.2606 -0.5254
 2272TIP3    H1 6777   6.067   1.045   3.671  0.3796  0.4208 -0.4438
 2272TIP3    H2 6778   6.023   1.174   3.605  1.3580  1.0398  0.0934
 2273TIP3   OH2 6779   0.461   0.146   0.158  0.3985  1.1799 -0.1593
 2273TIP3    H1 6780   0.424   0.083   0.221 -0.1030  1.3095 -0.3175
 2273TIP3    H2 6781   0.546   0.110   0.135  0.4335  0.9426  0.3204
 2274TIP3   OH2 6782   0.545   4.370   2.542  0.5318  0.3997 -0.0379
 2274TIP3    H1 6783   0.496   4.326   2.473 -0.9066 -0.8584  1.6761
 2274TIP3    H2 6784   0.516   4.461   2.539 -1.4001 -0.1595  0.4397
 2275TIP3   OH2 6785   3.098   4.314   5.832  0.3072  0.0314  0.5342
 2275TIP3    H1 6786   3.070   4.322   5.741  1.8308  1.7307  0.1593
 2275TIP3    H2 6787   3.036   4.252   5.871 -1.2968  0.4067 -1.2675
 2276TIP3   OH2 6788   6.797   4.788   2.918 -0.3008 -0.1636  0.1640
 2276TIP3    H1 6789   6.717   4.753   2.877 -1.0200  1.6177 -0.0714
 2276TIP3    H2 6790   6.868   4.742   2.875 -1.1800 -1.2913 -0.1339
 2277TIP3   OH2 6791   7.115   2.653   4.258 -0.5038  0.1625  0.0996
 2277TIP3    H1 6792   7.121   2.574   4.205  3.5707  0.7434 -0.6266
 2277TIP3    H2 6793   7.141   2.626   4.346  0.0782  0.5449  0.0479
 2278TIP3   OH2 6794   1.338   1.989   1.253  0.1216  0.3324  0.1226
 2278TIP3    H1 6795   1.341   1.924   1.324  0.6955 -0.4344 -0.5890
 2278TIP3    H2 6796   1.379   1.945   1.179 -0.2240  1.2263 -0.6120
 2279TIP3   OH2 6797   2.399   3.392   3.322  0.1410  0.2350 -0.7341
 2279TIP3    H1 6798   2.414   3.323   3.257  1.2997 -1.4276  1.2084
 2279TIP3    H2 6799   2.441   3.360   3.402 -4.0976  0.5554  1.9364
 2280TIP3   OH2 6800   0.190   4.588   4.808  0.5606  0.6427  0.0848
 2280TIP3    H1 6801   0.110   4.630   4.777 -0.3167  2.2216  3.9406
 2280TIP3    H2 6802   0.160   4.512   4.857  1.8752 -1.7972 -2.5973
 2281TIP3   OH2 6803   0.269   2.071   3.946  0.1451  0.4903  0.2014
 2281TIP3    H1 6804   0.279   1.998   4.007 -0.5988  0.3295  0.1369
 2281TIP3    H2 6805   0.353   2.076   3.900  0.0888 -0.5503 -0.0328
 2282TIP3   OH2 6806   5.989   5.483   1.933 -0.3274  0.5123 -0.1874
 2282TIP3    H1 6807   5.945   5.532   2.003  0.3215 -0.4990  0.9740
 2282TIP3    H2 6808   6.082   5.503   1.945 -0.2235  0.4764 -0.9010
 2283TIP3   OH2 6809   5.064   1.814   2.877  0.0762 -0.3155  0.1513
 2283TIP3    H1 6810   5.155   1.787   2.891  0.5646  0.5957 -1.0251
 2283TIP3    H2 6811   5.062   1.906   2.902  0.3252  0.5917 -2.7470
 2284TIP3   OH2 6812   3.489   4.515   2.994 -0.2450  0.1120  0.0324
 2284TIP3    H1 6813   3.394   4.512   3.006 -0.1673  1.0118  1.0637
 2284TIP3    H2 6814   3.522   4.442   3.045 -0.5361 -2.1738 -2.8208
 2285TIP3   OH2 6815   5.522   6.984   0.598 -0.3592  0.5154 -0.3928
 2285TIP3    H1 6816   5.562   6.965   0.683 -0.5638  0.6726 -0.2580
 2285TIP3    H2 6817   5.428   6.987   0.617 -0.3730  1.0090 -0.5333
 2286TIP3   OH2 6818   3.274   3.375   3.640  0.7449  0.5577 -0.3194
 2286TIP3    H1 6819   3.200   3.323   3.608 -1.0401  2.5292  0.3551
 2286TIP3    H2 6820   3.272   3.455   3.587  1.9593  0.9727  0.2249
 2287TIP3   OH2 6821   2.465   4.894   2.236  0.2071  0.5052  0.8512
 2287TIP3    H1 6822   2.508   4.847   2.308  0.2703 -0.0034  0.4918
 2287TIP3    H2 6823   2.437   4.824   2.177 -2.3452  0.6757  1.7187
 2288TIP3   OH2 6824   7.308   4.873   4.001  0.2554  0.1634  0.2313
 2288TIP3    H1 6825   7.267   4.791   3.973  0.3437  0.6473 -1.4413
 2288TIP3    H2 6826   7.251   4.906   4.071 -0.7927 -0.4370 -0.3111
 2289TIP3   OH2 6827   6.565   1.639   2.319  0.0358 -0.2670 -0.3310
 2289TIP3    H1 6828   6.626   1.651   2.246 -0.4165  1.3331 -0.4795
 2289TIP3    H2 6829   6.608   1.681   2.393 -0.1550 -0.6244 -0.0133
 2290TIP3   OH2 6830   3.362   0.743   0.535 -0.5668 -0.2553  0.1072
 2290TIP3    H1 6831   3.364   0.695   0.452  1.7150 -0.4480  0.2114
 2290TIP3    H2 6832   3.329   0.829   0.512  1.3792  0.1801 -1.3424
 2291TIP3   OH2 6833   6.969   2.435   2.526  0.2385  0.3787  0.3367
 2291TIP3    H1 6834   6.959   2.493   2.601 -1.1499  0.9675 -0.2636
 2291TIP3    H2 6835   7.061   2.407   2.529  0.0264 -0.2498  2.6799
 2292TIP3   OH2 6836   1.168   3.999   1.599 -0.2785 -0.0421 -0.1062
 2292TIP3    H1 6837   1.138   3.999   1.508  1.2175  0.3048 -0.6308
 2292TIP3    H2 6838   1.247   3.945   1.598 -1.2387 -1.5676  1.3773
 2293TIP3   OH2 6839   6.658   2.046   6.021 -0.1665 -0.2625 -0.1251
 2293TIP3    H1 6840   6.712   1.990   5.966 -0.8758 -2.0605  0.8987
 2293TIP3    H2 6841   6.632   1.989   6.094 -0.1953  1.6828  1.4591
 2294TIP3   OH2 6842   6.773   4.604   5.663  0.3484 -0.1029  0.0549
 2294TIP3    H1 6843   6.697   4.660   5.678 -0.8289 -0.9493 -2.2680
 2294TIP3    H2 6844   6.811   4.636   5.581 -0.3759 -2.6089 -1.3757
 2295TIP3   OH2 6845   5.804   1.171   1.979 -0.1566  0.0440 -0.3118
 2295TIP3    H1 6846   5.851   1.228   2.040 -0.2338  0.3483 -0.5319
 2295TIP3    H2 6847   5.789   1.091   2.028  0.0122  0.1891 -0.0179
 2296TIP3   OH2 6848   7.122   4.388   3.344 -1.0106 -0.4021  0.0344
 2296TIP3    H1 6849   7.075   4.385   3.427  0.6585 -1.2863  0.9919
 2296TIP3    H2 6850   7.100   4.306   3.300 -0.1690 -0.9549  0.6173
 2297TIP3   OH2 6851   3.472   0.098   1.334 -0.1733  0.2892  0.2860
 2297TIP3    H1 6852   3.555   0.115   1.288 -0.7384  0.2888 -0.7580
 2297TIP3    H2 6853   3.499   0.072   1.422  0.9165  0.9074  0.1526
 2298TIP3   OH2 6854   2.014   4.560   5.532 -0.2437  0.3514  0.5302
 2298TIP3    H1 6855   1.938   4.612   5.507 -0.7852 -0.3729  0.6553
 2298TIP3    H2 6856   1.986   4.511   5.609 -0.4239 -1.6747 -0.7551
 2299TIP3   OH2 6857   0.538   6.870   1.696  0.7086  0.1935  0.1687
 2299TIP3    H1 6858   0.614   6.837   1.744  0.1955 -0.5196  0.4911
 2299TIP3    H2 6859   0.464   6.818   1.727  0.1037  0.7804 -0.2519
 2300TIP3   OH2 6860   3.491   6.703   2.044 -0.5402  0.0499  0.1747
 2300TIP3    H1 6861   3.418   6.758   2.071 -0.2094 -0.0143  1.2133
 2300TIP3    H2 6862   3.452   6.641   1.982 -1.5035 -0.3534  1.1470
 2301TIP3   OH2 6863   2.369   0.082   0.000  0.2800  0.0924 -0.0603
 2301TIP3    H1 6864   2.379   0.001   0.050 -2.8196 -1.7060 -2.0239
 2301TIP3    H2 6865   2.304   0.132   0.049  1.9312  1.3357  0.9580
 2302TIP3   OH2 6866   6.681   7.068   3.793  0.9482  0.1793  0.2011
 2302TIP3    H1 6867   6.614   7.034   3.734  0.9524  0.2059  0.1805
 2302TIP3    H2 6868   6.703   7.154   3.757 -1.2766  1.5968  1.9604
 2303TIP3   OH2 6869   6.943   3.723   5.312  0.5573 -0.4646  0.6317
 2303TIP3    H1 6870   6.907   3.638   5.287  2.2765 -1.7958  2.3206
 2303TIP3    H2 6871   6.874   3.786   5.290 -1.1791 -2.3950  0.2290
 2304TIP3   OH2 6872   4.834   4.997   3.549 -0.1261  0.8177 -0.3727
 2304TIP3    H1 6873   4.872   4.920   3.506 -1.2077 -0.2522  0.5110
 2304TIP3    H2 6874   4.901   5.025   3.612 -0.0454  0.0756 -0.1156
 2305TIP3   OH2 6875   0.156   2.230   0.335 -0.5424 -0.3286  0.1156
 2305TIP3    H1 6876   0.083   2.171   0.352 -1.3530  0.2090 -1.3122
 2305TIP3    H2 6877   0.233   2.174   0.336 -0.7484 -0.7153  2.9748
 2306TIP3   OH2 6878   6.922   5.342   5.540 -0.2816 -0.3485  0.7962
 2306TIP3    H1 6879   6.896   5.433   5.555  0.1114  0.1646 -1.2758
 2306TIP3    H2 6880   6.863   5.312   5.471  1.0604 -0.9154 -0.1388
 2307TIP3   OH2 6881   0.735   1.845   3.120  0.3419  0.0440  0.4565
 2307TIP3    H1 6882   0.656   1.824   3.071 -1.0711 -1.2325  3.0851
 2307TIP3    H2 6883   0.765   1.760   3.154  1.5163  0.7999  1.3853
 2308TIP3   OH2 6884   2.686   0.704   4.445  0.2666 -0.1413 -0.3550
 2308TIP3    H1 6885   2.731   0.620   4.460  0.9262  0.2235 -0.2354
 2308TIP3    H2 6886   2.643   0.694   4.360 -2.1769 -1.6762  0.9358
 2309TIP3   OH2 6887   5.674   3.164   3.560  0.7071  0.1594 -0.3806
 2309TIP3    H1 6888   5.586   3.143   3.530  1.1849  0.6958 -2.2655
 2309TIP3    H2 6889   5.727   3.087   3.538  0.8171  0.0223  0.3258
 2310TIP3   OH2 6890   5.402   5.219   1.381 -1.1894  0.3814  0.1966
 2310TIP3    H1 6891   5.445   5.284   1.436  0.3447  0.6899 -1.2895
 2310TIP3    H2 6892   5.310   5.245   1.381 -1.3261  0.2236  2.7413
 2311TIP3   OH2 6893   0.393   7.081   3.771 -0.0217  0.5613 -0.1513
 2311TIP3    H1 6894   0.431   7.012   3.716  1.9521  1.0590  0.5244
 2311TIP3    H2 6895   0.399   7.160   3.718 -3.1122  0.1666 -1.2874
 2312TIP3   OH2 6896   4.828   2.616   1.791  0.5024  0.1865 -0.0801
 2312TIP3    H1 6897   4.740   2.652   1.776  0.6593  0.4809 -0.3018
 2312TIP3    H2 6898   4.852   2.576   1.707  0.1604 -0.8200  0.2848
 2313TIP3   OH2 6899   3.741   1.133   0.913 -0.1405  0.4974 -0.7060
 2313TIP3    H1 6900   3.812   1.176   0.961  0.7666 -2.0901  0.4139
 2313TIP3    H2 6901   3.671   1.124   0.977 -0.1986  0.0187 -0.8374
 2314TIP3   OH2 6902   5.038   3.274   4.587  0.1044  0.3739 -0.0742
 2314TIP3    H1 6903   5.099   3.328   4.636  1.0023  0.3574 -1.1278
 2314TIP3    H2 6904   5.085   3.191   4.573  0.2946  0.7202 -1.7781
 2315TIP3   OH2 6905   1.189   3.079   2.512  0.0035  0.5817 -0.1792
 2315TIP3    H1 6906   1.258   3.145   2.514  0.2027  0.3770  1.6369
 2315TIP3    H2 6907   1.183   3.048   2.602  1.5000 -3.5422 -1.3066
 2316TIP3   OH2 6908   0.659   0.059   0.780  0.1084 -0.7937 -0.5115
 2316TIP3    H1 6909   0.669   0.082   0.872  0.4971 -0.2535 -0.6864
 2316TIP3    H2 6910   0.599  -0.016   0.780 -0.2963 -0.4685  0.1359
 2317TIP3   OH2 6911   0.999   1.537   1.966  0.0393 -0.2337  0.4823
 2317TIP3    H1 6912   1.027   1.451   1.934 -0.0611 -0.3732  0.7660
 2317TIP3    H2 6913   0.961   1.519   2.052 -2.4306 -0.3312 -0.5284
 2318TIP3   OH2 6914   3.721   2.471   5.393  0.6641  1.0067 -0.2031
 2318TIP3    H1 6915   3.656   2.527   5.435  0.6491 -0.1430  1.3940
 2318TIP3    H2 6916   3.670   2.402   5.351  0.7856  0.7428  0.0752
 2319TIP3   OH2 6917   5.140   4.757   1.470 -0.4032 -0.1418 -0.3169
 2319TIP3    H1 6918   5.092   4.812   1.408 -2.8448 -2.4700 -0.6791
 2319TIP3    H2 6919   5.203   4.710   1.416 -0.0771  0.3914 -0.4146
 2320TIP3   OH2 6920   2.749   4.543   2.095 -0.0386 -0.2748 -0.8930
 2320TIP3    H1 6921   2.728   4.511   2.182  1.0138  0.2474 -0.4335
 2320TIP3    H2 6922   2.667   4.536   2.046 -1.0058  0.7510  0.5388
 2321TIP3   OH2 6923   5.138   0.875   4.686 -0.3455 -0.6425 -0.1879
 2321TIP3    H1 6924   5.115   0.782   4.675  0.8799 -0.8693 -1.0606
 2321TIP3    H2 6925   5.232   0.874   4.705 -0.2009  0.4501 -0.7905
 2322TIP3   OH2 6926   4.832   2.562   3.770  0.1040  0.4768 -0.0537
 2322TIP3    H1 6927   4.756   2.619   3.780 -0.6718 -0.5595  0.2618
 2322TIP3    H2 6928   4.829   2.506   3.847 -0.3880 -1.3494 -1.3193
 2323TIP3   OH2 6929   6.897   6.418   1.198 -0.6900  0.2557 -0.0861
 2323TIP3    H1 6930   6.878   6.486   1.264  1.0748  0.7873 -0.0672
 2323TIP3    H2 6931   6.813   6.402   1.155 -1.1741  2.4820 -0.0985
 2324TIP3   OH2 6932   5.215   5.898   5.872  0.1128  0.1515 -0.5932
 2324TIP3    H1 6933   5.144   5.930   5.817 -0.3503  0.6340  0.2701
 2324TIP3    H2 6934   5.197   5.804   5.881  0.3020  0.0274 -1.4070
 2325TIP3   OH2 6935   2.517   5.787   0.399  0.0439 -0.3466 -0.0766
 2325TIP3    H1 6936   2.573   5.739   0.338 -1.1906 -0.5988 -1.0596
 2325TIP3    H2 6937   2.431   5.790   0.356 -0.5595  0.5330  1.1119
 2326TIP3   OH2 6938   4.148   1.900   5.346 -0.5368 -0.4979 -0.4100
 2326TIP3    H1 6939   4.172   1.854   5.266  0.1571  0.9914 -1.1037
 2326TIP3    H2 6940   4.106   1.981   5.315  1.3622  0.9786  0.6451
 2327TIP3   OH2 6941   5.792   5.538   3.167  0.0177 -0.6230  0.2206
 2327TIP3    H1 6942   5.826   5.521   3.079  0.0113 -0.8052  0.2536
 2327TIP3    H2 6943   5.775   5.452   3.203 -0.0881 -0.5438  0.3594
 2328TIP3   OH2 6944   4.298   3.083   5.956  0.1750  0.2773 -0.3102
 2328TIP3    H1 6945   4.269   3.071   6.046  0.7022  1.1865 -0.0024
 2328TIP3    H2 6946   4.221   3.064   5.903 -0.9858  2.4607  0.4763
 2329TIP3   OH2 6947   2.152   1.529   5.046 -0.0708  0.2029 -0.4589
 2329TIP3    H1 6948   2.164   1.473   4.970  0.3373 -0.4870  0.1017
 2329TIP3    H2 6949   2.060   1.555   5.043 -0.6282 -1.5947 -0.0033
 2330TIP3   OH2 6950   0.020   0.895   2.366 -0.6080  0.5586 -0.1239
 2330TIP3    H1 6951   0.007   0.869   2.458  1.7475  0.3360  0.2214
 2330TIP3    H2 6952   0.084   0.966   2.370  0.6658 -0.4207 -1.6316
 2331TIP3   OH2 6953   0.276   4.939   3.459 -0.3290  0.0154  0.4569
 2331TIP3    H1 6954   0.342   4.870   3.450 -1.2001 -0.5635 -2.5119
 2331TIP3    H2 6955   0.309   5.011   3.406 -0.3930  1.1672  1.9196
 2332TIP3   OH2 6956   6.161   6.135   4.939  0.6251 -0.1980  0.2655
 2332TIP3    H1 6957   6.202   6.053   4.965 -0.7306 -1.0918 -0.2592
 2332TIP3    H2 6958   6.080   6.107   4.895 -1.2488  1.4414  2.4256
 2333TIP3   OH2 6959   2.425   2.064   5.964  0.2384  0.0300 -0.4900
 2333TIP3    H1 6960   2.492   2.020   6.015  0.1018  0.0809 -0.2686
 2333TIP3    H2 6961   2.404   2.003   5.893 -1.1760 -0.9985  0.7680
 2334TIP3   OH2 6962   0.117   5.398   1.858 -0.9375  0.1303  0.4153
 2334TIP3    H1 6963   0.022   5.399   1.845 -0.7095  2.1028 -1.7688
 2334TIP3    H2 6964   0.146   5.317   1.815 -1.5907 -0.4566  1.0466
 2335TIP3   OH2 6965   3.599   0.918   5.388  0.3694 -0.3014 -0.5240
 2335TIP3    H1 6966   3.643   0.974   5.324  1.3377  1.1362  1.2630
 2335TIP3    H2 6967   3.665   0.904   5.456 -1.2746  0.1932  1.2632
 2336TIP3   OH2 6968   6.524   3.222   4.049  0.0114  0.2963 -0.2948
 2336TIP3    H1 6969   6.527   3.193   3.958  1.6925  0.1333 -0.2084
 2336TIP3    H2 6970   6.582   3.298   4.053 -0.3646  0.5554  0.5621
 2337TIP3   OH2 6971   1.803   1.113   0.153 -0.3386  0.1665 -0.1664
 2337TIP3    H1 6972   1.848   1.053   0.093 -0.9195 -0.2820 -0.1618
 2337TIP3    H2 6973   1.800   1.196   0.105 -0.0615  0.0353 -0.4200
 2338TIP3   OH2 6974   6.476   6.437   2.773 -0.0082  0.1228 -0.3849
 2338TIP3    H1 6975   6.546   6.502   2.767 -0.8026  0.9066 -1.4894
 2338TIP3    H2 6976   6.431   6.441   2.689 -1.8033  0.1153  0.5195
 2339TIP3   OH2 6977   2.478   2.516   2.950 -0.4369  0.0171 -0.2637
 2339TIP3    H1 6978   2.552   2.571   2.925 -0.9500 -0.1425 -2.3046
 2339TIP3    H2 6979   2.411   2.577   2.978  0.4268  0.1608  1.6952
 2340TIP3   OH2 6980   2.076   6.899   0.362 -0.2803  0.3033  0.5444
 2340TIP3    H1 6981   2.162   6.882   0.400 -0.7323 -0.7398  1.1384
 2340TIP3    H2 6982   2.094   6.946   0.280  0.8025  0.7605  1.0384
 2341TIP3   OH2 6983   2.983   0.620   1.723  0.0932  0.1220  0.6581
 2341TIP3    H1 6984   3.068   0.597   1.759 -0.2863 -1.7880  0.4082
 2341TIP3    H2 6985   2.980   0.576   1.638 -1.9040 -1.5397  1.5166
 2342TIP3   OH2 6986   5.219   0.653   0.404 -0.5048 -0.1823  0.0956
 2342TIP3    H1 6987   5.231   0.674   0.496 -3.5819 -0.2123  0.6362
 2342TIP3    H2 6988   5.211   0.738   0.361  0.6388 -0.1738 -0.1306
 2343TIP3   OH2 6989   2.907   2.385   2.338  0.4945  0.3707  0.2237
 2343TIP3    H1 6990   2.973   2.401   2.271 -1.8293  0.2340 -2.2413
 2343TIP3    H2 6991   2.892   2.291   2.336 -0.6089  0.5395 -0.1173
 2344TIP3   OH2 6992   6.907   3.529   2.582  0.0913 -0.3728  0.2620
 2344TIP3    H1 6993   6.849   3.498   2.651  0.3231 -0.7816  0.2777
 2344TIP3    H2 6994   6.860   3.512   2.500  0.5488 -1.5354  0.2203
 2345TIP3   OH2 6995   2.251   2.615   3.489 -0.3237 -0.2531  0.5304
 2345TIP3    H1 6996   2.225   2.706   3.506 -0.2708 -0.1210 -0.0809
 2345TIP3    H2 6997   2.310   2.620   3.414 -0.6450 -0.8327  0.2267
 2346TIP3   OH2 6998   3.044   0.093   4.400 -0.0337  0.3253 -0.0538
 2346TIP3    H1 6999   3.108   0.096   4.472  0.2286 -0.7965 -0.2222
 2346TIP3    H2 7000   3.037   0.000   4.379 -1.6185  0.4464 -0.1443
 2347TIP3   OH2 7001   5.307   1.473   3.768  0.1095 -0.1054 -0.2384
 2347TIP3    H1 7002   5.391   1.478   3.722  0.7996 -1.5928  0.7922
 2347TIP3    H2 7003   5.324   1.417   3.844 -1.5120  0.5920  0.6928
 2348TIP3   OH2 7004   6.119   0.782   3.171  0.4159 -0.1339 -0.3112
 2348TIP3    H1 7005   6.034   0.750   3.140  0.3025  0.2971 -0.4410
 2348TIP3    H2 7006   6.099   0.861   3.221  0.7999  0.3393 -0.8914
 2349TIP3   OH2 7007   1.708   4.310   0.369 -0.3653  0.0161 -0.0187
 2349TIP3    H1 7008   1.717   4.262   0.287  0.3302 -1.2840  0.7960
 2349TIP3    H2 7009   1.618   4.343   0.367 -0.7754 -1.0770 -0.7550
 2350TIP3   OH2 7010   0.592   1.650   1.736 -0.3760  0.2824 -0.5285
 2350TIP3    H1 7011   0.612   1.562   1.703 -1.2773 -0.2404  0.2613
 2350TIP3    H2 7012   0.677   1.685   1.763  0.0969 -0.0421 -1.5462
 2351TIP3   OH2 7013   6.556   4.195   4.637  0.1461 -0.5625  1.0151
 2351TIP3    H1 7014   6.558   4.221   4.729 -3.5669  2.9656  0.3739
 2351TIP3    H2 7015   6.630   4.240   4.597  0.8198 -0.8071  1.9594
 2352TIP3   OH2 7016   1.292   1.471   0.209 -0.0228  0.1865 -0.4495
 2352TIP3    H1 7017   1.220   1.529   0.184  0.3951  1.7971  1.8099
 2352TIP3    H2 7018   1.249   1.390   0.235 -1.0484  1.0326  0.6205
 2353TIP3   OH2 7019   2.175   2.710   0.869  0.0149 -0.1293 -0.2667
 2353TIP3    H1 7020   2.246   2.648   0.883  0.2132  0.0790 -0.3318
 2353TIP3    H2 7021   2.164   2.712   0.774  1.1267  1.1522 -0.4043
 2354TIP3   OH2 7022   2.884   5.211   0.687  0.0231 -0.5704  0.3950
 2354TIP3    H1 7023   2.848   5.280   0.743 -0.5333 -0.7188  0.2351
 2354TIP3    H2 7024   2.977   5.230   0.681 -0.2506  0.6587 -0.3422
 2355TIP3   OH2 7025   2.775   0.262   1.043 -0.6689  0.4270 -0.3841
 2355TIP3    H1 7026   2.750   0.220   0.961  0.6068  1.1259 -1.1668
 2355TIP3    H2 7027   2.805   0.349   1.016  0.8920  0.2463  0.6702
 2356TIP3   OH2 7028   0.729   2.587   1.704  0.1780  0.1774 -0.0962
 2356TIP3    H1 7029   0.788   2.525   1.747 -1.0319 -0.0301  1.3606
 2356TIP3    H2 7030   0.644   2.543   1.706 -0.5064  1.4758  0.0758
 2357TIP3   OH2 7031   5.804   5.946   4.350 -0.1117 -0.1658  0.0385
 2357TIP3    H1 7032   5.777   5.888   4.420 -0.2046  0.2068  0.3120
 2357TIP3    H2 7033   5.878   5.901   4.309 -0.7599 -0.9050 -0.3391
 2358TIP3   OH2 7034   2.507   1.769   1.870  0.2437 -0.3482  0.0227
 2358TIP3    H1 7035   2.544   1.837   1.814  2.3563 -0.7243  0.8696
 2358TIP3    H2 7036   2.500   1.692   1.813  1.0099 -0.3268 -0.1143
 2359TIP3   OH2 7037   1.110   2.256   2.596 -0.6009  0.0624 -0.3333
 2359TIP3    H1 7038   1.077   2.318   2.532 -0.4432 -1.5637 -2.0920
 2359TIP3    H2 7039   1.196   2.230   2.562 -0.2147 -0.3708  0.8995
 2360TIP3   OH2 7040   1.198   0.997   5.973  0.0584  0.1973 -0.1939
 2360TIP3    H1 7041   1.140   0.924   5.995  1.3890 -0.8722 -0.1069
 2360TIP3    H2 7042   1.145   1.053   5.915 -1.1793 -0.5112  0.2073
 2361TIP3   OH2 7043   7.091   5.900   3.273  0.0998 -0.2881 -0.1672
 2361TIP3    H1 7044   7.103   5.806   3.256  0.5695  0.1529 -2.4500
 2361TIP3    H2 7045   7.040   5.902   3.355  0.3235 -2.5124  0.0965
 2362TIP3   OH2 7046   4.546   1.938   5.972 -0.0796  0.3119 -0.1338
 2362TIP3    H1 7047   4.533   1.843   5.983  0.8599  0.0497 -1.1221
 2362TIP3    H2 7048   4.622   1.945   5.914 -0.5951  1.6700 -0.6770
 2363TIP3   OH2 7049   0.840   6.807   3.522  0.0818  0.3262  0.3355
 2363TIP3    H1 7050   0.895   6.861   3.465  0.1261 -0.7712 -0.7155
 2363TIP3    H2 7051   0.874   6.822   3.610  0.8285  1.1148 -0.0723
 2364TIP3   OH2 7052   5.976   1.130   2.335  0.0788  0.0323 -0.2608
 2364TIP3    H1 7053   6.007   1.173   2.415  0.1173  0.0521 -0.2860
 2364TIP3    H2 7054   6.050   1.076   2.307 -0.2866 -0.7727  0.2772
 2365TIP3   OH2 7055   2.402   6.509   0.837 -0.1033  0.0869 -0.4493
 2365TIP3    H1 7056   2.453   6.442   0.883 -0.4721  0.3048  0.2880
 2365TIP3    H2 7057   2.468   6.566   0.797  0.2732  0.7417  1.0341
 2366TIP3   OH2 7058   6.830   7.147   4.463 -0.3674 -0.3957  0.0765
 2366TIP3    H1 7059   6.835   7.174   4.555 -1.9291  2.0506 -0.4711
 2366TIP3    H2 7060   6.922   7.140   4.436  0.1312  0.7406  1.3200
 2367TIP3   OH2 7061   0.517   2.811   3.041 -0.1277  0.2211 -0.4170
 2367TIP3    H1 7062   0.593   2.780   3.088  1.1529  3.7869  0.1968
 2367TIP3    H2 7063   0.500   2.744   2.974  1.1113 -2.4915  1.8152
 2368TIP3   OH2 7064   2.501   6.742   5.184  0.1365 -0.9059 -0.4948
 2368TIP3    H1 7065   2.482   6.828   5.222  2.0562 -0.8254  0.4162
 2368TIP3    H2 7066   2.564   6.760   5.114  0.3875 -1.5364 -0.4383
 2369TIP3   OH2 7067   0.654   4.229   1.190  0.0707  0.3424 -0.3149
 2369TIP3    H1 7068   0.562   4.223   1.164  0.0744 -0.2574 -0.2155
 2369TIP3    H2 7069   0.664   4.162   1.258  0.2647  1.3123  0.6340
 2370TIP3   OH2 7070   4.655   3.138   3.606 -0.4161 -0.0808 -0.3133
 2370TIP3    H1 7071   4.721   3.199   3.640 -0.9869 -1.2847  3.3165
 2370TIP3    H2 7072   4.573   3.187   3.610 -0.6842 -0.6025  1.4606
 2371TIP3   OH2 7073   0.522   1.705   4.243  0.0993  0.0174  0.8848
 2371TIP3    H1 7074   0.499   1.707   4.336 -0.4184 -0.7345  0.7817
 2371TIP3    H2 7075   0.484   1.623   4.211  0.0687  0.3858 -0.0435
 2372TIP3   OH2 7076   3.094   0.793   3.996  0.2655  0.4881 -0.4121
 2372TIP3    H1 7077   3.038   0.848   4.051  0.8687 -1.2323  2.0976
 2372TIP3    H2 7078   3.172   0.847   3.980  0.1785  0.9535  0.6492
 2373TIP3   OH2 7079   1.721   6.792   4.289  0.0077 -0.1613 -0.1636
 2373TIP3    H1 7080   1.728   6.888   4.288 -0.0145 -0.1092  1.5153
 2373TIP3    H2 7081   1.694   6.771   4.378 -2.9927 -1.5693 -1.2582
 2374TIP3   OH2 7082   3.357   5.938   0.931  0.5233  0.0760 -0.5634
 2374TIP3    H1 7083   3.425   6.005   0.936  0.6487 -0.0508 -0.5260
 2374TIP3    H2 7084   3.279   5.979   0.968  1.1960 -0.5384  1.7125
 2375TIP3   OH2 7085   5.957   1.953   4.506 -0.2942  0.1992 -0.1309
 2375TIP3    H1 7086   6.014   1.990   4.574 -1.8483  0.8917  0.8594
 2375TIP3    H2 7087   5.898   2.025   4.483  0.5432  0.1630 -2.6872
 2376TIP3   OH2 7088   3.588   2.781   3.302 -0.3326 -0.4170  0.2235
 2376TIP3    H1 7089   3.526   2.834   3.352 -0.2332 -0.0854  0.0003
 2376TIP3    H2 7090   3.634   2.729   3.368  0.8285  1.0739  0.6505
 2377TIP3   OH2 7091   6.406   1.270   0.175  0.2358  0.6998 -0.2736
 2377TIP3    H1 7092   6.343   1.204   0.203  0.1298  1.1391  0.5500
 2377TIP3    H2 7093   6.433   1.314   0.255  2.0021  0.1870 -0.5371
 2378TIP3   OH2 7094   4.992   2.615   2.034 -0.3575 -0.0358  0.4061
 2378TIP3    H1 7095   4.943   2.617   1.951  2.0596 -1.1425 -1.1334
 2378TIP3    H2 7096   4.957   2.689   2.083 -1.6570  0.8676 -1.7285
 2379TIP3   OH2 7097   4.801   4.808   4.406  0.2454 -0.5206  0.1235
 2379TIP3    H1 7098   4.876   4.776   4.357  0.0547 -0.0480 -0.4850
 2379TIP3    H2 7099   4.811   4.903   4.406 -0.9499 -0.3660 -0.9600
 2380TIP3   OH2 7100   5.099   0.292   2.761  0.3189 -0.0730 -0.4549
 2380TIP3    H1 7101   5.172   0.257   2.711  0.0537 -0.5083 -0.5416
 2380TIP3    H2 7102   5.122   0.384   2.777  1.1411 -0.3519  0.0048
 2381TIP3   OH2 7103   0.589   6.177   4.752 -0.3262 -1.0440  0.2934
 2381TIP3    H1 7104   0.651   6.200   4.683  0.6789 -0.2186  1.4141
 2381TIP3    H2 7105   0.578   6.259   4.801 -0.3230 -1.8118  1.6114
 2382TIP3   OH2 7106   6.216   6.366   5.297  0.4454 -0.0473  0.4097
 2382TIP3    H1 7107   6.166   6.294   5.337 -0.5691  0.2331 -0.2979
 2382TIP3    H2 7108   6.267   6.324   5.228  1.7933 -0.4503  1.6188
 2383TIP3   OH2 7109   6.591   5.422   3.400 -0.2912 -0.2408  0.3059
 2383TIP3    H1 7110   6.675   5.415   3.356 -0.1975 -0.4942  0.5213
 2383TIP3    H2 7111   6.532   5.367   3.348 -1.1024  2.2530 -1.6353
 2384TIP3   OH2 7112   0.820   2.862   1.476 -0.2044  0.3485  0.2840
 2384TIP3    H1 7113   0.792   2.771   1.468 -0.5112  0.5614 -1.3310
 2384TIP3    H2 7114   0.912   2.856   1.501  0.0707 -0.4467 -0.8140
 2385TIP3   OH2 7115   5.684   4.238   0.894 -0.3167  0.4419  0.2170
 2385TIP3    H1 7116   5.685   4.308   0.960 -1.1169 -0.0762  0.8078
 2385TIP3    H2 7117   5.663   4.159   0.944  3.0476 -0.7265 -0.0056
 2386TIP3   OH2 7118   3.641   7.045   3.029  0.1535 -0.0954 -0.2616
 2386TIP3    H1 7119   3.603   7.103   2.963  1.7306  1.1808 -0.1204
 2386TIP3    H2 7120   3.623   6.957   2.998 -1.0770  0.4678 -1.2239
 2387TIP3   OH2 7121   0.410   3.194   1.976  0.2081  0.1394  0.0571
 2387TIP3    H1 7122   0.380   3.278   1.941 -1.7421  0.4115  2.1202
 2387TIP3    H2 7123   0.334   3.160   2.024  2.1192 -0.9777  2.4907
 2388TIP3   OH2 7124   5.940   2.904   2.656  0.4896 -0.2139  0.0536
 2388TIP3    H1 7125   5.897   2.828   2.696  2.1304 -1.2224 -0.0394
 2388TIP3    H2 7126   5.948   2.967   2.728 -0.5452 -0.2392  0.2182
 2389TIP3   OH2 7127   3.947   5.707   3.004 -0.2246  0.4828 -0.5236
 2389TIP3    H1 7128   3.874   5.707   2.942 -0.9503 -0.6719  0.2923
 2389TIP3    H2 7129   3.948   5.618   3.040  0.0290  1.1769  1.2941
 2390TIP3   OH2 7130   1.003   4.051   2.130 -0.1056  0.3096 -0.6382
 2390TIP3    H1 7131   1.020   3.970   2.082 -0.6534  0.2932 -0.8177
 2390TIP3    H2 7132   0.930   4.091   2.083 -1.1106 -0.0303  0.5434
 2391TIP3   OH2 7133   2.961   2.208   2.606 -0.4794  0.0854 -0.0867
 2391TIP3    H1 7134   2.878   2.204   2.560 -0.9366  2.1412  0.4562
 2391TIP3    H2 7135   2.973   2.121   2.643 -2.1752 -0.3638 -0.5320
 2392TIP3   OH2 7136   6.236   4.404   3.875 -0.2039 -0.3569  0.1969
 2392TIP3    H1 7137   6.159   4.462   3.873  0.4747  0.5414 -0.9200
 2392TIP3    H2 7138   6.242   4.376   3.966 -0.1041  1.9580  0.9585
 2393TIP3   OH2 7139   1.183   3.925   4.294 -0.7712 -0.3186 -0.0987
 2393TIP3    H1 7140   1.164   3.934   4.388 -0.0985  0.9592 -0.0707
 2393TIP3    H2 7141   1.129   3.992   4.252 -0.2067 -0.1124 -0.5059
 2394TIP3   OH2 7142   4.678   0.611   3.502 -0.1253  0.0439  0.3688
 2394TIP3    H1 7143   4.706   0.521   3.490 -0.6407 -0.0567 -0.1252
 2394TIP3    H2 7144   4.587   0.613   3.471 -0.9354  0.1933  2.5555
 2395TIP3   OH2 7145   1.870   3.201   0.810 -0.0857  0.0193 -0.0959
 2395TIP3    H1 7146   1.862   3.108   0.789  0.6516  0.1505 -1.0124
 2395TIP3    H2 7147   1.957   3.209   0.849 -0.0233  0.3811 -0.3109
 2396TIP3   OH2 7148   0.642   1.218   1.814  0.4155 -0.0736 -0.4848
 2396TIP3    H1 7149   0.676   1.161   1.883 -1.6061 -1.3393 -0.4383
 2396TIP3    H2 7150   0.603   1.292   1.862  0.7415  0.0320 -0.3837
 2397TIP3   OH2 7151   1.129   5.903   1.938  0.1552  0.0175  0.3281
 2397TIP3    H1 7152   1.140   5.941   1.850 -0.4587 -1.4062 -0.4019
 2397TIP3    H2 7153   1.181   5.960   1.995  0.3736  1.1234 -0.9126
 2398TIP3   OH2 7154   0.167   3.130   3.195 -0.5503  0.0161 -0.3792
 2398TIP3    H1 7155   0.207   3.217   3.201 -1.8672  0.5763  0.9248
 2398TIP3    H2 7156   0.142   3.109   3.285 -2.2373 -0.7441 -0.9801
 2399TIP3   OH2 7157   6.931   0.641   4.701  0.4194  0.4547  0.8210
 2399TIP3    H1 7158   7.017   0.646   4.661 -0.2210  1.3835 -0.5226
 2399TIP3    H2 7159   6.917   0.548   4.719  1.0923  0.1212 -0.3360
 2400TIP3   OH2 7160   7.406   2.447   3.602  0.1155  0.6147 -0.2447
 2400TIP3    H1 7161   7.447   2.361   3.594 -1.3722 -0.1195 -0.1478
 2400TIP3    H2 7162   7.474   2.508   3.573  1.7328 -0.4423  1.1536
 2401TIP3   OH2 7163   3.328   7.187   5.330  0.1834  0.6808  0.1555
 2401TIP3    H1 7164   3.422   7.202   5.338  0.2261  0.7030 -0.3232
 2401TIP3    H2 7165   3.316   7.094   5.349  0.4648  0.3983 -0.9667
 2402TIP3   OH2 7166   4.898   1.917   4.091  0.3274 -0.1445  0.2199
 2402TIP3    H1 7167   4.841   1.859   4.140  0.1891 -0.0163  0.2111
 2402TIP3    H2 7168   4.840   1.983   4.053  0.4289 -0.2606 -0.1436
 2403TIP3   OH2 7169   4.998   4.664   2.710 -0.0784 -0.5049  0.0619
 2403TIP3    H1 7170   4.968   4.595   2.769 -0.5360  0.3249  0.8338
 2403TIP3    H2 7171   4.990   4.745   2.761 -0.1607  0.2036 -1.0261
 2404TIP3   OH2 7172   5.300   4.339   4.115  0.4184 -0.3885 -0.0044
 2404TIP3    H1 7173   5.266   4.250   4.131 -1.2969  0.4196  1.1322
 2404TIP3    H2 7174   5.371   4.349   4.178 -0.6591 -0.3115  1.2540
 2405TIP3   OH2 7175   6.721   4.039   2.654  0.1701 -0.1377  0.4124
 2405TIP3    H1 7176   6.770   3.994   2.585 -1.4113 -0.4116 -0.6075
 2405TIP3    H2 7177   6.785   4.095   2.698  1.1209  0.5474 -1.7182
 2406TIP3   OH2 7178   2.229   0.226   0.559  0.1555  0.9458  0.7164
 2406TIP3    H1 7179   2.260   0.228   0.468  1.2242 -0.0247  1.0460
 2406TIP3    H2 7180   2.171   0.150   0.563 -0.8529  1.6848  0.5666
 2407TIP3   OH2 7181   5.740   1.051   2.612 -0.1930 -0.0680 -0.8940
 2407TIP3    H1 7182   5.652   1.041   2.650  0.1746 -0.7051 -0.1970
 2407TIP3    H2 7183   5.736   0.999   2.531 -0.3776 -0.3065 -0.7340
 2408TIP3   OH2 7184   0.531   1.651   5.547 -0.3467  0.1965  0.4685
 2408TIP3    H1 7185   0.467   1.588   5.579  1.1202 -0.5581  2.1159
 2408TIP3    H2 7186   0.592   1.599   5.495  0.6562  0.2587  1.5196
 2409TIP3   OH2 7187   0.054   2.312   3.334  0.1969  0.2185 -0.0892
 2409TIP3    H1 7188   0.043   2.274   3.421  1.6573  0.3281  0.1700
 2409TIP3    H2 7189   0.149   2.326   3.326  0.1498 -0.2296 -1.8778
 2410TIP3   OH2 7190   1.172   5.165   5.201 -0.4568 -0.2127  0.2039
 2410TIP3    H1 7191   1.242   5.221   5.168  1.1248 -1.5349  1.1573
 2410TIP3    H2 7192   1.125   5.219   5.264 -0.8045  0.9408 -1.0172
 2411TIP3   OH2 7193   4.483   3.432   2.187  0.2611 -0.3922 -0.2396
 2411TIP3    H1 7194   4.450   3.452   2.099 -1.7982 -3.4950 -0.3295
 2411TIP3    H2 7195   4.414   3.462   2.246  0.2834 -0.9288  0.0715
 2412TIP3   OH2 7196   1.358   6.116   0.661 -0.1668  0.3734  0.4417
 2412TIP3    H1 7197   1.328   6.178   0.727  1.0962  0.2292  1.1992
 2412TIP3    H2 7198   1.282   6.060   0.643 -0.4206  0.1219  2.1312
 2413TIP3   OH2 7199   3.152   5.777   5.114  0.1819 -0.4741  0.2480
 2413TIP3    H1 7200   3.121   5.690   5.088 -1.0836  0.1009 -0.2577
 2413TIP3    H2 7201   3.072   5.827   5.129  0.8212  1.3080 -1.8633
 2414TIP3   OH2 7202   2.151   6.528   0.508  0.5861 -0.1803 -0.6056
 2414TIP3    H1 7203   2.175   6.459   0.569 -0.2367 -1.0147 -1.1823
 2414TIP3    H2 7204   2.232   6.577   0.493  2.0724 -2.9558 -2.6197
 2415TIP3   OH2 7205   5.821   5.340   1.262  0.1789 -0.5505 -0.4464
 2415TIP3    H1 7206   5.893   5.308   1.316 -0.4135 -0.7430  0.2414
 2415TIP3    H2 7207   5.771   5.262   1.241 -0.7224 -0.2219  0.4180
 2416TIP3   OH2 7208   7.077   6.592   1.733 -0.7368  0.3353 -0.3749
 2416TIP3    H1 7209   7.089   6.568   1.641  1.0532  1.6609 -0.5345
 2416TIP3    H2 7210   7.067   6.508   1.778  2.6178 -0.6921 -1.2450
 2417TIP3   OH2 7211   4.246   2.495   0.827  0.2472 -0.3297 -0.2517
 2417TIP3    H1 7212   4.166   2.469   0.782 -1.6090 -0.1404  2.6142
 2417TIP3    H2 7213   4.258   2.429   0.896  1.9807  0.2264  0.0525
 2418TIP3   OH2 7214   3.247   5.479   2.484  0.0499  0.7693 -0.0833
 2418TIP3    H1 7215   3.177   5.414   2.484  0.4508  0.3291 -0.1009
 2418TIP3    H2 7216   3.205   5.561   2.511 -0.2805  0.3039  0.8649
 2419TIP3   OH2 7217   6.288   2.335   2.253 -0.2747 -0.5617 -0.0976
 2419TIP3    H1 7218   6.288   2.418   2.205  0.7355 -0.0967  0.6637
 2419TIP3    H2 7219   6.206   2.335   2.302 -0.0738  0.2181  0.2563
 2420TIP3   OH2 7220   2.738   0.657   3.138 -0.1508  0.7243 -0.4439
 2420TIP3    H1 7221   2.803   0.654   3.068 -1.5021  0.1090 -1.7184
 2420TIP3    H2 7222   2.768   0.592   3.201 -0.0230 -0.2438 -1.4762
 2421TIP3   OH2 7223   3.756   3.420   0.185  0.7802 -0.2052  0.0286
 2421TIP3    H1 7224   3.846   3.451   0.196  1.0002 -0.1794 -1.5927
 2421TIP3    H2 7225   3.742   3.418   0.090 -0.9628 -0.1504  0.2457
 2422TIP3   OH2 7226   0.783   5.283   4.999 -0.1086 -0.3124 -0.4116
 2422TIP3    H1 7227   0.796   5.377   5.005  2.6541 -0.5427 -1.1307
 2422TIP3    H2 7228   0.796   5.250   5.088  0.3467 -0.1350 -0.4119
 2423TIP3   OH2 7229   3.196   3.994   2.176  0.2498 -0.6624 -0.0540
 2423TIP3    H1 7230   3.258   4.057   2.212 -0.2504 -0.6828  0.8784
 2423TIP3    H2 7231   3.197   4.010   2.082 -0.7285  1.5569  0.2596
 2424TIP3   OH2 7232   2.940   5.249   5.485  0.2056 -0.7007 -0.1777
 2424TIP3    H1 7233   2.857   5.251   5.533 -0.3445  2.1615 -1.0108
 2424TIP3    H2 7234   2.921   5.202   5.404 -0.6926  0.0775 -0.4325
 2425TIP3   OH2 7235   2.018   4.625   5.986  0.6691 -0.4631 -0.1535
 2425TIP3    H1 7236   1.976   4.555   5.936  0.8883 -0.1673 -0.7665
 2425TIP3    H2 7237   1.975   4.705   5.954 -0.7023 -0.4193  1.6568
 2426TIP3   OH2 7238   1.705   0.650   5.639  0.4564  0.4083 -0.0760
 2426TIP3    H1 7239   1.714   0.605   5.723  0.6747 -1.1396 -0.8827
 2426TIP3    H2 7240   1.686   0.741   5.662 -0.2172 -0.1254  1.6387
 2427TIP3   OH2 7241   4.802   1.533   4.194 -0.1760 -0.4918 -0.1184
 2427TIP3    H1 7242   4.820   1.448   4.236 -0.5467  0.3524  1.8343
 2427TIP3    H2 7243   4.880   1.586   4.214 -1.3528  0.6753  1.6219
 2428TIP3   OH2 7244   4.805   5.494   1.907  0.5261  0.0476  0.4256
 2428TIP3    H1 7245   4.798   5.434   1.981  0.2610 -0.3803  0.0594
 2428TIP3    H2 7246   4.899   5.511   1.899  0.6049 -0.3231  0.5341
 2429TIP3   OH2 7247   3.678   3.001   2.982  0.4482  0.1583  0.3182
 2429TIP3    H1 7248   3.661   2.909   3.002  1.1472 -0.0659 -0.0785
 2429TIP3    H2 7249   3.768   3.002   2.950  0.2090  0.8798 -0.3527
 2430TIP3   OH2 7250   4.711   6.371   3.713  0.1664 -0.2878 -0.6456
 2430TIP3    H1 7251   4.708   6.280   3.684 -1.1402 -1.1487  1.9442
 2430TIP3    H2 7252   4.803   6.396   3.703  1.1946 -2.8824  1.2689
 2431TIP3   OH2 7253   4.596   0.572   2.895  0.5788  0.1803  0.4682
 2431TIP3    H1 7254   4.538   0.567   2.970  0.7534  0.9442  0.6657
 2431TIP3    H2 7255   4.654   0.496   2.904 -1.0908 -1.2709 -0.3648
 2432TIP3   OH2 7256   1.286   2.758   4.280  0.4135 -0.0582  0.1427
 2432TIP3    H1 7257   1.271   2.682   4.336  0.6771 -0.3303 -0.1557
 2432TIP3    H2 7258   1.212   2.816   4.298  0.1645 -0.4234  0.2978
 2433TIP3   OH2 7259   2.937   3.328   5.207  0.1770 -0.5296 -0.6502
 2433TIP3    H1 7260   3.014   3.386   5.207 -0.7768  0.8391 -2.2399
 2433TIP3    H2 7261   2.908   3.327   5.298  2.1262 -1.1867  0.0127
 2434TIP3   OH2 7262   1.511   5.058   2.563 -0.5033  0.1926  0.2789
 2434TIP3    H1 7263   1.473   5.081   2.648 -0.4790  1.8445 -0.1253
 2434TIP3    H2 7264   1.435   5.040   2.507 -0.5032 -1.9385  0.8726
 2435TIP3   OH2 7265   3.279   2.709   4.456  0.1427  0.3516  0.1966
 2435TIP3    H1 7266   3.313   2.798   4.445 -0.8557  0.5102 -2.6099
 2435TIP3    H2 7267   3.353   2.652   4.436  0.3776  0.5772  0.4205
 2436TIP3   OH2 7268   5.678   1.813   1.210  0.1771  0.8928 -0.2211
 2436TIP3    H1 7269   5.693   1.906   1.223  1.0555  0.7359 -0.0827
 2436TIP3    H2 7270   5.705   1.772   1.292  0.2700  0.4648 -0.4586
 2437TIP3   OH2 7271   7.096   3.065   0.130  0.0513  0.0127 -0.3514
 2437TIP3    H1 7272   7.078   3.152   0.095 -1.9488 -0.4189 -0.5191
 2437TIP3    H2 7273   7.104   3.079   0.225  0.8842  0.5277 -0.4899
 2438TIP3   OH2 7274   6.920   4.177   3.261  0.3926  0.1490  0.0542
 2438TIP3    H1 7275   6.980   4.112   3.223  0.4921  0.1546  0.2025
 2438TIP3    H2 7276   6.833   4.143   3.241  0.3952 -1.0548  1.8144
 2439TIP3   OH2 7277   6.973   5.860   1.531 -0.3866  0.0056 -0.2911
 2439TIP3    H1 7278   7.033   5.897   1.466 -0.3273 -0.0910 -0.2910
 2439TIP3    H2 7279   6.901   5.824   1.479 -0.8581  0.8694 -0.2495
 2440TIP3   OH2 7280   4.506   5.459   6.162 -0.7880  0.4442  0.1390
 2440TIP3    H1 7281   4.551   5.476   6.080 -1.1162  2.9730  0.4001
 2440TIP3    H2 7282   4.414   5.449   6.137 -1.2871  3.6122  0.2985
 2441TIP3   OH2 7283   6.517   2.458   3.181 -0.3218 -0.2897 -0.5494
 2441TIP3    H1 7284   6.468   2.401   3.240 -0.9996 -0.9305 -1.6901
 2441TIP3    H2 7285   6.482   2.546   3.198 -0.6118 -0.4856 -0.1027
 2442TIP3   OH2 7286   3.936   1.402   1.776  0.2512 -0.1838  0.8718
 2442TIP3    H1 7287   3.930   1.498   1.778  1.7270  0.1699 -2.8381
 2442TIP3    H2 7288   4.030   1.384   1.770 -0.0773 -1.5835 -1.4417
 2443TIP3   OH2 7289   3.198   3.549   2.817 -0.2073 -0.2227  0.4844
 2443TIP3    H1 7290   3.232   3.474   2.767 -0.0284 -1.4547  2.3517
 2443TIP3    H2 7291   3.103   3.544   2.804 -0.1630 -0.4929  0.2243
 2444TIP3   OH2 7292   7.370   2.283   4.948 -0.4049  0.5170 -0.1688
 2444TIP3    H1 7293   7.406   2.357   4.996  0.0730 -0.6339  1.3131
 2444TIP3    H2 7294   7.343   2.221   5.016  0.0327 -1.0625 -1.3766
 2445TIP3   OH2 7295   4.944   2.270   3.849 -0.2591 -0.1384  0.4300
 2445TIP3    H1 7296   4.966   2.294   3.759  0.1438  0.6425  0.7170
 2445TIP3    H2 7297   5.027   2.281   3.897 -0.7534  0.7280  1.1284
 2446TIP3   OH2 7298   0.131   1.312   3.372 -0.1496 -0.2194  0.4260
 2446TIP3    H1 7299   0.194   1.280   3.308 -2.0996 -2.9040 -0.3497
 2446TIP3    H2 7300   0.178   1.309   3.456  0.6723 -2.5744 -0.0479
 2447TIP3   OH2 7301   2.749   0.600   3.631 -0.0201  0.2929 -0.3843
 2447TIP3    H1 7302   2.791   0.649   3.702  0.7906 -1.7736  0.6616
 2447TIP3    H2 7303   2.703   0.529   3.676  0.1030 -0.7841 -1.9054
 2448TIP3   OH2 7304   0.542   3.879   3.421 -0.2669 -0.2283  0.1710
 2448TIP3    H1 7305   0.558   3.945   3.354 -1.0174 -0.9973 -0.7921
 2448TIP3    H2 7306   0.480   3.921   3.482 -0.8473 -0.0820 -0.5080
 2449TIP3   OH2 7307   5.090   5.440   1.915 -0.5674  0.6942 -0.3910
 2449TIP3    H1 7308   5.172   5.432   1.963 -0.8231 -0.7656 -0.1543
 2449TIP3    H2 7309   5.062   5.350   1.900 -0.8149  1.0981 -2.7605
 2450TIP3   OH2 7310   2.398   3.568   2.526  0.0173 -0.3562 -0.1176
 2450TIP3    H1 7311   2.393   3.488   2.578  4.4053 -0.5284  0.4282
 2450TIP3    H2 7312   2.412   3.537   2.436  0.7862 -0.2238 -0.0498
 2451TIP3   OH2 7313   0.066   3.230   6.070  0.6506  0.5299  0.1588
 2451TIP3    H1 7314   0.103   3.144   6.092  0.7086 -0.4868 -3.3490
 2451TIP3    H2 7315  -0.028   3.214   6.059  0.6927  0.8427 -0.7414
 2452TIP3   OH2 7316   6.007   1.117   4.898 -0.2329  0.2576 -0.1768
 2452TIP3    H1 7317   6.081   1.060   4.879 -0.0114  0.4519  0.0908
 2452TIP3    H2 7318   5.947   1.105   4.824 -0.7620 -1.2573  0.4580
 2453TIP3   OH2 7319   5.206   5.451   0.147 -0.0465 -0.2679 -0.0547
 2453TIP3    H1 7320   5.247   5.537   0.151 -1.2195  0.2731  0.7668
 2453TIP3    H2 7321   5.239   5.405   0.224  0.1770 -0.3837 -0.2161
 2454TIP3   OH2 7322   6.969   0.311   1.198 -0.5564 -0.7389  0.2247
 2454TIP3    H1 7323   6.881   0.279   1.178 -0.3980 -2.1530  1.5230
 2454TIP3    H2 7324   6.957   0.369   1.273 -0.5927  0.7272 -0.8720
 2455TIP3   OH2 7325   7.257   5.039   0.475 -0.4092 -0.0718  0.1988
 2455TIP3    H1 7326   7.240   5.114   0.417  0.9998 -0.5233 -0.8586
 2455TIP3    H2 7327   7.298   5.077   0.552 -2.3759  0.5496  1.0028
 2456TIP3   OH2 7328   3.333   2.934   0.343 -0.0014  0.3271 -0.7943
 2456TIP3    H1 7329   3.422   2.948   0.376 -0.3861  1.9953 -0.3894
 2456TIP3    H2 7330   3.279   2.929   0.422 -0.4022  0.3060 -1.0709
 2457TIP3   OH2 7331   1.537   1.340   0.294  0.0898  0.0437  0.5750
 2457TIP3    H1 7332   1.559   1.315   0.204 -1.5950 -0.3687  0.2427
 2457TIP3    H2 7333   1.477   1.414   0.284 -3.4408 -2.4558  1.0608
 2458TIP3   OH2 7334   7.272   1.987   3.082 -0.1406  0.4911 -0.1124
 2458TIP3    H1 7335   7.327   2.031   3.147 -2.2236  2.0419  0.7158
 2458TIP3    H2 7336   7.188   1.975   3.127 -0.6706 -1.3181 -1.4875
 2459TIP3   OH2 7337   0.303   0.509   0.650 -0.6548 -0.3882 -0.4351
 2459TIP3    H1 7338   0.379   0.557   0.682  0.1189 -0.6687 -1.7715
 2459TIP3    H2 7339   0.268   0.465   0.728  1.2897 -1.2479  0.0057
 2460TIP3   OH2 7340   3.843   6.923   2.587 -0.1957  0.3634  0.5922
 2460TIP3    H1 7341   3.914   6.876   2.631  1.2206  0.9322 -0.9898
 2460TIP3    H2 7342   3.884   7.003   2.554 -0.9822 -0.3025 -2.2793
 2461TIP3   OH2 7343   4.094   1.918   2.203  0.0975  0.5074  0.0921
 2461TIP3    H1 7344   4.082   1.890   2.113  0.4233  0.0276  0.1935
 2461TIP3    H2 7345   4.134   1.842   2.247  0.1523  0.8138  0.5819
 2462TIP3   OH2 7346   1.077   0.721   0.588  0.0783  0.6711 -0.4960
 2462TIP3    H1 7347   1.090   0.804   0.542 -0.7313  0.7963 -0.5143
 2462TIP3    H2 7348   1.046   0.661   0.520 -0.6346  0.7203 -0.2156
 2463TIP3   OH2 7349   5.409   2.498   5.158  0.1633  0.3150  0.0131
 2463TIP3    H1 7350   5.437   2.428   5.217 -2.5161 -0.8111  0.0763
 2463TIP3    H2 7351   5.340   2.458   5.105 -0.3511  2.4925 -1.0474
 2464TIP3   OH2 7352   4.501   0.936   3.435  0.0728 -0.4021 -0.2709
 2464TIP3    H1 7353   4.505   1.015   3.489 -1.6885 -0.1775 -0.3908
 2464TIP3    H2 7354   4.415   0.941   3.392 -0.1708 -2.4654 -0.1487
 2465TIP3   OH2 7355   6.497   2.549   0.883  0.3239  0.2286  0.4966
 2465TIP3    H1 7356   6.515   2.488   0.812 -1.0887  0.7235 -0.3356
 2465TIP3    H2 7357   6.531   2.633   0.852 -1.7676  0.8214 -0.4042
 2466TIP3   OH2 7358   1.816   3.996   5.155 -0.4395  0.3035 -0.0787
 2466TIP3    H1 7359   1.731   4.024   5.190 -0.2609 -0.6307  1.1956
 2466TIP3    H2 7360   1.855   4.075   5.118 -1.2652  1.0403  0.6002
 2467TIP3   OH2 7361   1.286   1.192   4.849  0.0868 -0.5969 -0.3710
 2467TIP3    H1 7362   1.352   1.126   4.868  0.1533 -0.1771  0.9191
 2467TIP3    H2 7363   1.228   1.191   4.925  0.4208  1.2157 -0.0405
 2468TIP3   OH2 7364   3.002   5.917   2.357 -0.0044  0.0491  0.3952
 2468TIP3    H1 7365   2.919   5.881   2.387 -1.0279  0.8987 -1.2676
 2468TIP3    H2 7366   3.003   5.900   2.263  0.9594  1.4782  0.1213
 2469TIP3   OH2 7367   6.742   6.900   4.959 -0.0079  0.1136  0.6317
 2469TIP3    H1 7368   6.688   6.821   4.953  1.8894 -1.1987 -0.2352
 2469TIP3    H2 7369   6.705   6.959   4.893  0.1253 -1.1153 -0.6054
 2470TIP3   OH2 7370   2.447   0.344   5.127  0.7346 -0.2514 -0.6165
 2470TIP3    H1 7371   2.512   0.371   5.192 -0.1330 -0.1562  0.2424
 2470TIP3    H2 7372   2.363   0.365   5.167  0.1586 -0.5499 -1.6211
 2471TIP3   OH2 7373   6.969   6.568   0.965  0.3072  0.0316 -0.1535
 2471TIP3    H1 7374   6.924   6.544   1.046 -1.3659  1.4708 -0.5655
 2471TIP3    H2 7375   7.057   6.594   0.993 -0.6169  1.7351  1.4509
 2472TIP3   OH2 7376   5.113   0.149   0.899  0.9112 -0.3419 -0.1209
 2472TIP3    H1 7377   5.171   0.180   0.829  0.4528  0.1978 -0.2692
 2472TIP3    H2 7378   5.025   0.165   0.865  0.6786  0.6246  0.8817
 2473TIP3   OH2 7379   1.536   3.294   4.519 -0.7215  0.6605 -0.1594
 2473TIP3    H1 7380   1.484   3.304   4.439 -2.1176 -1.9019  0.3003
 2473TIP3    H2 7381   1.471   3.302   4.589  0.0306  0.2908  0.5858
 2474TIP3   OH2 7382   2.784   0.383   5.947 -0.0110 -0.5353 -0.3212
 2474TIP3    H1 7383   2.728   0.337   6.011 -2.2042 -0.8816 -2.3281
 2474TIP3    H2 7384   2.810   0.314   5.885  0.3466  0.1271 -0.9202
 2475TIP3   OH2 7385   4.762   5.556   4.721  0.4498 -0.1836 -0.1469
 2475TIP3    H1 7386   4.790   5.618   4.653  0.0196 -0.3662 -0.4932
 2475TIP3    H2 7387   4.771   5.604   4.803 -1.2005  0.8063 -0.5258
 2476TIP3   OH2 7388   0.054   5.307   4.171  0.2861 -0.6999 -0.3811
 2476TIP3    H1 7389   0.099   5.366   4.111  0.5656 -0.1389  0.3619
 2476TIP3    H2 7390   0.057   5.222   4.129  1.0707 -0.4451 -0.8462
 2477TIP3   OH2 7391   3.047   4.021   1.223  0.5804 -0.4310  0.3861
 2477TIP3    H1 7392   3.094   3.972   1.155  1.4768 -0.1564  0.7917
 2477TIP3    H2 7393   3.003   3.954   1.275  2.7098 -0.9499  1.6297
 2478TIP3   OH2 7394   4.168   1.089   0.998 -0.1685  0.2217 -0.0231
 2478TIP3    H1 7395   4.219   1.166   1.021 -0.9693  0.7080  0.1632
 2478TIP3    H2 7396   4.154   1.044   1.082 -1.0987  0.7493  0.1064
 2479TIP3   OH2 7397   2.634   3.276   1.967  0.3731 -0.4430  0.1836
 2479TIP3    H1 7398   2.668   3.320   2.045  0.7781  1.5807 -1.0595
 2479TIP3    H2 7399   2.564   3.221   2.000  0.1078  0.8352  1.9309
 2480TIP3   OH2 7400   1.646   5.964   0.919 -0.4874  0.0406 -0.0917
 2480TIP3    H1 7401   1.693   5.913   0.985  0.1376  0.3583 -0.2874
 2480TIP3    H2 7402   1.589   6.023   0.969 -2.9630 -2.3534  0.1786
 2481TIP3   OH2 7403   5.295   5.662   2.703 -0.4057 -0.3052  0.1291
 2481TIP3    H1 7404   5.230   5.629   2.765 -0.8840  0.7866  0.2451
 2481TIP3    H2 7405   5.374   5.674   2.755 -0.7903  0.5515  0.5457
 2482TIP3   OH2 7406   5.114   3.709   2.116 -0.0989 -0.9678  0.2808
 2482TIP3    H1 7407   5.202   3.736   2.144  0.0146 -2.1016  1.1240
 2482TIP3    H2 7408   5.057   3.734   2.188 -0.1291 -2.0646  0.6608
 2483TIP3   OH2 7409   2.306   4.581   0.157 -0.1840  0.5318  0.5299
 2483TIP3    H1 7410   2.245   4.508   0.157  0.4413 -0.0567  2.8885
 2483TIP3    H2 7411   2.263   4.649   0.210 -0.3860  1.5957 -0.9256
 2484TIP3   OH2 7412   5.488   5.959   4.617 -0.3891  0.2196 -0.3088
 2484TIP3    H1 7413   5.415   5.948   4.557  0.2436 -0.9906 -0.9003
 2484TIP3    H2 7414   5.448   5.955   4.704 -1.1698  0.8729 -0.6247
 2485TIP3   OH2 7415   7.050   3.333   2.935 -0.5233  0.2945  0.5300
 2485TIP3    H1 7416   6.975   3.380   2.970 -0.4413  1.3862 -0.6668
 2485TIP3    H2 7417   7.120   3.348   2.999 -0.8033  0.8794  0.7045
 2486TIP3   OH2 7418   1.648   4.235   2.603 -0.2498  0.9189  0.2947
 2486TIP3    H1 7419   1.658   4.251   2.510 -2.2894 -0.3387 -0.2029
 2486TIP3    H2 7420   1.666   4.142   2.614 -1.6178  0.6854  0.8419
 2487TIP3   OH2 7421   5.246   5.840   2.252  0.3306  0.1761  0.1952
 2487TIP3    H1 7422   5.272   5.776   2.318  0.2629 -0.9113 -0.8005
 2487TIP3    H2 7423   5.151   5.843   2.257  0.4026  1.8015  1.6681
 2488TIP3   OH2 7424   5.304   3.600   2.371  0.3730 -0.0547 -0.0515
 2488TIP3    H1 7425   5.212   3.580   2.388  0.5764 -0.0016  1.1541
 2488TIP3    H2 7426   5.352   3.528   2.412  0.8564 -0.3593 -1.1243
 2489TIP3   OH2 7427   1.019   0.546   2.574  0.4953 -0.4591  0.3143
 2489TIP3    H1 7428   0.945   0.487   2.559 -0.1230  0.3662  0.0528
 2489TIP3    H2 7429   1.062   0.511   2.652 -1.0967 -0.0808  1.4108
 2490TIP3   OH2 7430   3.908   6.994   3.762 -0.6597  0.6356  0.2162
 2490TIP3    H1 7431   3.998   7.026   3.760 -0.3847 -0.1153  0.3665
 2490TIP3    H2 7432   3.854   7.074   3.766  0.0245  1.0676  1.2155
 2491TIP3   OH2 7433   4.792   3.425   2.037  0.8717  0.0332 -1.0299
 2491TIP3    H1 7434   4.842   3.345   2.048  0.3413 -0.0409  1.3273
 2491TIP3    H2 7435   4.713   3.398   1.990  0.8046 -0.7850 -0.4650
 2492TIP3   OH2 7436   6.093   5.693   4.784  0.0881 -0.2137  0.6180
 2492TIP3    H1 7437   6.128   5.622   4.730 -3.9660  0.3910 -3.3587
 2492TIP3    H2 7438   6.020   5.654   4.831 -0.6934  0.7203  0.2239
 2493TIP3   OH2 7439   5.051   1.010   0.254  0.4949 -0.1584  0.8699
 2493TIP3    H1 7440   5.005   0.936   0.294  0.2105 -0.6858 -0.3894
 2493TIP3    H2 7441   5.123   0.970   0.205  1.8791  0.6032  2.2072
 2494TIP3   OH2 7442   4.333   0.875   5.284  0.7597 -0.0214 -0.4573
 2494TIP3    H1 7443   4.396   0.937   5.321  1.2861 -0.0654 -1.2543
 2494TIP3    H2 7444   4.272   0.931   5.234 -1.4970  0.3526  2.4309
 2495TIP3   OH2 7445   2.064   4.723   4.584  0.1887 -0.3208  0.2257
 2495TIP3    H1 7446   1.996   4.790   4.588  0.8769  0.4811 -0.7221
 2495TIP3    H2 7447   2.027   4.647   4.627 -0.8931  0.4490  0.6790
 2496TIP3   OH2 7448   2.056   6.091   6.111  0.5283  0.1583  0.2966
 2496TIP3    H1 7449   2.111   6.079   6.034  0.1750 -0.9556  0.2046
 2496TIP3    H2 7450   2.109   6.143   6.171  0.0096  3.0583 -1.5343
 2497TIP3   OH2 7451   4.683   1.142   1.069  0.3307  0.9356 -0.9068
 2497TIP3    H1 7452   4.693   1.056   1.109 -2.5164  0.0222 -1.9217
 2497TIP3    H2 7453   4.653   1.199   1.140  0.1174  0.5704 -0.7083
 2498TIP3   OH2 7454   0.340   1.475   5.530  0.7198 -0.1526  0.6520
 2498TIP3    H1 7455   0.246   1.478   5.545  0.7422  1.0448  0.6586
 2498TIP3    H2 7456   0.349   1.450   5.438  0.3805  0.0409  0.5631
 2499TIP3   OH2 7457   5.275   5.587   2.435  0.2753 -0.0125  0.4078
 2499TIP3    H1 7458   5.298   5.619   2.522  0.3490 -3.3259  1.7726
 2499TIP3    H2 7459   5.352   5.538   2.406  1.1159  2.8001 -2.6233
 2500TIP3   OH2 7460   4.763   0.245   2.824 -0.1780 -0.0161 -0.2070
 2500TIP3    H1 7461   4.804   0.179   2.768 -0.4599 -0.4270  0.0715
 2500TIP3    H2 7462   4.670   0.222   2.824 -0.1193 -0.2914  0.7998
 2501TIP3   OH2 7463   6.883   1.430   1.737 -0.0016 -0.5664  0.0666
 2501TIP3    H1 7464   6.828   1.490   1.789 -0.2205 -0.6453 -0.0714
 2501TIP3    H2 7465   6.836   1.421   1.654 -0.3161 -1.4372  0.3196
 2502TIP3   OH2 7466   5.435   1.635   5.710  0.1182 -0.1885 -0.1179
 2502TIP3    H1 7467   5.467   1.611   5.797 -1.6437 -4.2054 -0.3731
 2502TIP3    H2 7468   5.376   1.708   5.726  2.2577  1.3120  1.5324
 2503TIP3   OH2 7469   2.819   3.342   0.984 -0.2350 -0.6598 -0.0145
 2503TIP3    H1 7470   2.835   3.410   1.050  2.0154  0.1429 -1.2589
 2503TIP3    H2 7471   2.872   3.268   1.013  0.4157 -0.4591 -0.6463
 2504TIP3   OH2 7472   1.013   0.639   5.356 -0.2948  0.5584  0.2196
 2504TIP3    H1 7473   0.949   0.703   5.326 -0.9330  0.1536  0.7079
 2504TIP3    H2 7474   0.979   0.608   5.440 -0.6304 -1.3246 -0.5759
 2505TIP3   OH2 7475   1.152   0.751   3.991 -0.2391 -0.3099 -0.5211
 2505TIP3    H1 7476   1.182   0.790   4.073 -0.5017 -1.7669  0.3016
 2505TIP3    H2 7477   1.059   0.776   3.986 -0.6596 -1.5683  0.4876
 2506TIP3   OH2 7478   2.836   0.650   5.213  0.3824 -0.3129 -0.2051
 2506TIP3    H1 7479   2.836   0.691   5.126  1.7740 -0.4165 -0.2764
 2506TIP3    H2 7480   2.868   0.561   5.197 -1.3778 -1.0523  0.1316
 2507TIP3   OH2 7481   3.962   3.698   5.158  0.0038 -0.2872  0.5104
 2507TIP3    H1 7482   4.053   3.673   5.141 -0.6150 -1.4451 -1.3640
 2507TIP3    H2 7483   3.959   3.791   5.137  0.7238 -0.2677  0.4590
 2508TIP3   OH2 7484   4.184   0.616   0.951  0.3645 -0.1288  0.0498
 2508TIP3    H1 7485   4.253   0.584   1.009  1.0451  0.7672 -0.2390
 2508TIP3    H2 7486   4.135   0.679   1.004  0.6656  0.3009 -0.1714
 2509TIP3   OH2 7487   2.244   0.906   0.391  0.0578  0.0861  0.3475
 2509TIP3    H1 7488   2.211   0.974   0.450 -0.5686  0.3365 -0.2696
 2509TIP3    H2 7489   2.182   0.833   0.401  1.0389 -0.6298  1.4222
 2510TIP3   OH2 7490   4.400   3.419   1.294 -0.8480  0.0351  0.3988
 2510TIP3    H1 7491   4.316   3.393   1.257 -1.0347 -1.3823  1.7175
 2510TIP3    H2 7492   4.448   3.337   1.306  0.3966  0.7346  0.4616
 2511TIP3   OH2 7493   5.225   7.097   3.938  0.6523  0.2929  0.1017
 2511TIP3    H1 7494   5.186   7.028   3.884  0.4429 -0.1241  0.7720
 2511TIP3    H2 7495   5.267   7.050   4.011  0.0349  0.8897  0.8658
 2512TIP3   OH2 7496   1.634   0.264   3.152 -0.1298  0.2138  0.5382
 2512TIP3    H1 7497   1.715   0.217   3.173 -0.1332  0.7467  1.8680
 2512TIP3    H2 7498   1.662   0.332   3.090  0.4055  0.2306  0.7873
 2513TIP3   OH2 7499   1.991   5.375   5.192  0.0139 -0.1317 -0.1228
 2513TIP3    H1 7500   2.066   5.391   5.250 -0.8265  1.5156  0.5820
 2513TIP3    H2 7501   1.983   5.456   5.141 -0.8703 -0.5536 -0.6688
 2514TIP3   OH2 7502   4.530   4.157   1.854  0.1391 -0.2397  0.4110
 2514TIP3    H1 7503   4.535   4.179   1.761  2.4898  0.9532  0.7391
 2514TIP3    H2 7504   4.561   4.067   1.859  0.4870 -0.1426  0.0655
 2515TIP3   OH2 7505   0.991   6.785   3.175  0.0167  0.5597 -0.0620
 2515TIP3    H1 7506   1.055   6.838   3.128  0.3536  0.4954  0.3179
 2515TIP3    H2 7507   0.906   6.817   3.145  0.1424 -1.4571 -3.0124
 2516TIP3   OH2 7508   3.947   1.253   5.107 -0.2900 -0.0379  0.4404
 2516TIP3    H1 7509   3.919   1.288   5.022 -1.0527 -0.2422  0.6010
 2516TIP3    H2 7510   3.970   1.331   5.158 -0.5919  0.1362  0.3150
 2517TIP3   OH2 7511   4.010   1.594   3.949  0.3821  0.3936  0.0604
 2517TIP3    H1 7512   3.940   1.659   3.958  0.1398  0.3709 -1.4946
 2517TIP3    H2 7513   4.088   1.639   3.982 -0.2106  0.6671  1.1318
 2518TIP3   OH2 7514   2.433   0.684   5.134 -0.0939 -0.0570  0.4737
 2518TIP3    H1 7515   2.476   0.600   5.124  0.6670  0.2636  0.9614
 2518TIP3    H2 7516   2.352   0.676   5.084  0.5377 -0.6586 -0.4779
 2519TIP3   OH2 7517   0.817   5.089   4.766  0.5197 -0.1617 -0.2718
 2519TIP3    H1 7518   0.767   5.040   4.832 -0.6033  0.4508 -0.6450
 2519TIP3    H2 7519   0.778   5.176   4.767  1.0947  0.1090 -1.1155
 2520TIP3   OH2 7520   3.631   5.884   3.162  0.1523 -0.2441  0.4709
 2520TIP3    H1 7521   3.693   5.924   3.223 -0.4823 -0.3158  1.1905
 2520TIP3    H2 7522   3.551   5.873   3.214 -0.2371 -0.8108 -0.2288
 2521TIP3   OH2 7523   3.455   2.095   4.166  0.3444  0.2162  0.5852
 2521TIP3    H1 7524   3.397   2.145   4.108  0.3164 -1.5023 -0.9505
 2521TIP3    H2 7525   3.409   2.013   4.181  0.5522  0.4412  2.7630
 2522TIP3   OH2 7526   0.164   5.437   0.406  0.0038 -0.1238 -0.0054
 2522TIP3    H1 7527   0.158   5.394   0.321 -0.7501  0.5862 -0.3247
 2522TIP3    H2 7528   0.115   5.518   0.395 -0.9563 -0.4737  1.3894
 2523TIP3   OH2 7529   2.122   4.106   0.198 -0.5563 -0.2606  0.7418
 2523TIP3    H1 7530   2.077   4.056   0.130  0.4721 -1.0668  0.6158
 2523TIP3    H2 7531   2.104   4.197   0.177 -0.1512 -0.4908 -0.7135
 2524TIP3   OH2 7532   3.924   6.922   6.044  0.6426 -0.4488  0.2715
 2524TIP3    H1 7533   3.894   6.836   6.016 -0.1822  0.0427 -0.4163
 2524TIP3    H2 7534   3.890   6.933   6.132 -1.8336  0.3382 -0.7004
 2525TIP3   OH2 7535   5.415   6.893   4.887  0.1311 -0.3920  0.1358
 2525TIP3    H1 7536   5.382   6.858   4.969  1.2494 -0.8235  0.4215
 2525TIP3    H2 7537   5.507   6.911   4.904  0.1726  0.3086 -0.7718
 2526TIP3   OH2 7538   7.377   0.790   4.418  0.4966  0.3685  0.1146
 2526TIP3    H1 7539   7.307   0.761   4.477  0.2064  0.8925  0.0278
 2526TIP3    H2 7540   7.443   0.828   4.476  0.3658  0.5721  0.1284
 2527TIP3   OH2 7541   0.771   6.826   1.829 -0.2462 -0.2962 -0.0624
 2527TIP3    H1 7542   0.770   6.744   1.879  3.3282 -0.0687  0.6672
 2527TIP3    H2 7543   0.858   6.828   1.789 -0.6701  2.5913 -1.0179
 2528TIP3   OH2 7544   3.675   1.816   4.839 -0.0342 -0.3450  0.1814
 2528TIP3    H1 7545   3.761   1.781   4.859  1.6342  2.1712 -1.9702
 2528TIP3    H2 7546   3.651   1.776   4.755 -1.2380 -1.3731  0.9720
 2529TIP3   OH2 7547   1.148   0.136   2.936  0.8324 -0.1035  0.4864
 2529TIP3    H1 7548   1.057   0.109   2.943  0.0144  1.8206 -1.5423
 2529TIP3    H2 7549   1.198   0.057   2.954 -1.2739 -1.5467  0.3037
 2530TIP3   OH2 7550   0.355   1.834   1.298 -0.1858 -0.4094 -0.0848
 2530TIP3    H1 7551   0.425   1.771   1.315 -0.0080  0.0443  0.9913
 2530TIP3    H2 7552   0.274   1.788   1.321 -0.0659 -0.3044  0.5845
 2531TIP3   OH2 7553   1.309   5.464   5.301 -0.4223  0.8970  0.2462
 2531TIP3    H1 7554   1.254   5.535   5.331 -0.9453 -0.0391  1.6150
 2531TIP3    H2 7555   1.336   5.419   5.381 -1.5011 -1.4547 -0.6204
 2532TIP3   OH2 7556   6.784   0.920   4.789 -0.1161  0.0519 -0.3344
 2532TIP3    H1 7557   6.831   0.988   4.836 -0.0773  0.4563 -0.9461
 2532TIP3    H2 7558   6.692   0.935   4.809  0.0129 -1.1809  1.4553
 2533TIP3   OH2 7559   4.093   3.763   1.683  0.5968  0.1559 -0.4998
 2533TIP3    H1 7560   4.151   3.836   1.708  1.3094  0.4160 -2.7238
 2533TIP3    H2 7561   4.064   3.785   1.595 -0.2883 -1.6090 -0.6805
 2534TIP3   OH2 7562   0.053   7.106   2.525 -0.1732  0.1752  0.1024
 2534TIP3    H1 7563   0.072   7.026   2.475  2.7582  1.4301 -1.0082
 2534TIP3    H2 7564   0.085   7.086   2.613 -1.0476 -0.4491  0.2886
 2535TIP3   OH2 7565   0.338   3.872   0.426  0.1995 -0.8868 -0.0856
 2535TIP3    H1 7566   0.331   3.917   0.342 -0.0651  0.0606  0.4159
 2535TIP3    H2 7567   0.415   3.910   0.467 -0.7198  0.0611  0.8597
 2536TIP3   OH2 7568   6.479   4.319   2.313  0.3087  0.2590  0.2168
 2536TIP3    H1 7569   6.395   4.364   2.303 -0.6487 -1.3473  0.7572
 2536TIP3    H2 7570   6.458   4.226   2.303  2.0653 -0.1603  0.1571
 2537TIP3   OH2 7571   1.464   6.239   0.422 -0.3507 -0.1612  0.2611
 2537TIP3    H1 7572   1.411   6.202   0.493  0.1378 -0.9730  0.2174
 2537TIP3    H2 7573   1.495   6.163   0.373  1.2064  0.2539  0.5436
 2538TIP3   OH2 7574   3.972   4.133   1.198  0.2185  0.0250  0.0971
 2538TIP3    H1 7575   3.981   4.153   1.292  1.3104  1.7962 -0.3422
 2538TIP3    H2 7576   4.033   4.062   1.183  0.9212  0.5250  0.5191
 2539TIP3   OH2 7577   2.568   6.655   1.312 -0.1380  0.6121 -0.6220
 2539TIP3    H1 7578   2.567   6.649   1.407 -3.5201 -0.4547 -0.5870
 2539TIP3    H2 7579   2.597   6.744   1.293  1.7153  0.4856  1.2974
 2540TIP3   OH2 7580   5.628   2.071   2.961 -0.3622 -0.1886  0.7178
 2540TIP3    H1 7581   5.565   2.138   2.990 -1.5951 -0.0997 -1.8885
 2540TIP3    H2 7582   5.610   1.996   3.018 -0.2687  1.0186  2.4299
 2541TIP3   OH2 7583   5.161   4.077   1.093  0.2211 -0.1794 -0.3169
 2541TIP3    H1 7584   5.154   4.011   1.162  0.6044  0.2332  0.1175
 2541TIP3    H2 7585   5.249   4.114   1.103  1.0757 -1.5005 -2.2782
 2542TIP3   OH2 7586   2.462   5.350   5.392  0.0454 -0.0955 -0.6809
 2542TIP3    H1 7587   2.423   5.275   5.346  0.1935 -0.8031  0.3048
 2542TIP3    H2 7588   2.387   5.404   5.416 -0.3494 -1.2414  0.8365
 2543TIP3   OH2 7589   5.127   4.650   3.144 -0.1229 -0.2214 -0.0612
 2543TIP3    H1 7590   5.157   4.733   3.108 -0.2965 -0.2717 -0.3225
 2543TIP3    H2 7591   5.204   4.593   3.144 -0.5358 -0.8857 -2.2296
 2544TIP3   OH2 7592   5.143   2.145   1.794 -0.3495 -0.7281 -0.5280
 2544TIP3    H1 7593   5.217   2.205   1.792 -0.1169 -1.0240 -1.3246
 2544TIP3    H2 7594   5.071   2.197   1.830  0.4912 -0.7490  1.2519
 2545TIP3   OH2 7595   2.156   6.480   4.748 -0.4669 -0.0981 -0.1984
 2545TIP3    H1 7596   2.094   6.527   4.804 -0.3055 -0.5739  0.3885
 2545TIP3    H2 7597   2.212   6.549   4.712 -0.9629  0.2770 -0.2826
 2546TIP3   OH2 7598   7.221   1.201   4.835  0.7133 -0.3411  0.2670
 2546TIP3    H1 7599   7.154   1.219   4.769 -0.2178 -3.2851  0.2299
 2546TIP3    H2 7600   7.232   1.283   4.882 -2.2562  0.5222 -0.3431
 2547TIP3   OH2 7601   5.630   5.273   3.251 -0.3114  0.1459  0.3166
 2547TIP3    H1 7602   5.699   5.224   3.295 -0.6124  2.3683  3.6542
 2547TIP3    H2 7603   5.549   5.232   3.282 -0.6121 -1.2340 -2.0666
 2548TIP3   OH2 7604   4.090   1.249   2.958 -0.4507 -0.0099  0.6597
 2548TIP3    H1 7605   4.086   1.246   3.054 -2.9864 -0.7508  0.6153
 2548TIP3    H2 7606   3.998   1.249   2.930  0.2173  0.1245 -1.7859
 2549TIP3   OH2 7607   3.114   3.661   6.058 -0.4987  0.0295 -0.2636
 2549TIP3    H1 7608   3.023   3.673   6.029 -1.0799  0.3423  1.5613
 2549TIP3    H2 7609   3.143   3.583   6.011 -0.9370  1.1456 -2.5684
 2550TIP3   OH2 7610   3.556   3.346   5.627 -0.3547 -0.2336 -0.3361
 2550TIP3    H1 7611   3.515   3.345   5.713  0.6931  2.2557  0.2835
 2550TIP3    H2 7612   3.484   3.360   5.566 -0.9871 -1.0416  0.2096
 2551TIP3   OH2 7613   3.290   3.336   0.810 -0.3625 -0.3147 -0.0738
 2551TIP3    H1 7614   3.269   3.276   0.882  0.8756  0.0881  0.6516
 2551TIP3    H2 7615   3.279   3.282   0.731 -1.3945 -0.8599  0.4161
 2552TIP3   OH2 7616   2.811   3.410   0.642 -0.0771  0.3641 -0.0309
 2552TIP3    H1 7617   2.853   3.496   0.650  1.6189 -0.4304 -0.1656
 2552TIP3    H2 7618   2.736   3.415   0.701  0.8194  1.4535  1.0674
 2553TIP3   OH2 7619   4.497   4.492   2.779  0.5173  0.1310 -0.0977
 2553TIP3    H1 7620   4.542   4.570   2.810 -1.9790  1.4364  0.4903
 2553TIP3    H2 7621   4.486   4.438   2.858 -0.5614  0.7010  0.1644
 2554TIP3   OH2 7622   2.670   6.884   3.670 -0.2354  0.0278  0.3951
 2554TIP3    H1 7623   2.724   6.832   3.729 -0.5044  0.4586  1.0332
 2554TIP3    H2 7624   2.718   6.883   3.587 -0.7556 -2.0682  0.0817
 2555TIP3   OH2 7625   1.264   7.115   3.991 -0.1488 -0.6101  0.0879
 2555TIP3    H1 7626   1.258   7.040   4.051  0.3673 -0.4968  0.2904
 2555TIP3    H2 7627   1.351   7.152   4.008  0.1622 -0.8063 -1.0049
 2556TIP3   OH2 7628   0.583   1.966   4.135 -0.1834 -0.0423  0.0438
 2556TIP3    H1 7629   0.604   1.888   4.187  1.1648  0.3383  0.1308
 2556TIP3    H2 7630   0.649   2.030   4.163 -0.9871  0.9750 -0.3622
 2557TIP3   OH2 7631   1.624   6.300   3.549  0.4233 -0.1520 -0.5951
 2557TIP3    H1 7632   1.530   6.287   3.532  0.0372  0.4077  0.9141
 2557TIP3    H2 7633   1.655   6.215   3.580 -0.1844  0.2457  1.2548
 2558TIP3   OH2 7634   4.772   5.855   2.761 -0.1843 -0.4386  0.0172
 2558TIP3    H1 7635   4.738   5.767   2.741  1.1196 -1.1790  0.9230
 2558TIP3    H2 7636   4.741   5.872   2.850  2.0305 -1.3104  1.0375
 2559TIP3   OH2 7637   1.137   3.448   2.074  0.3296 -0.3920 -0.4918
 2559TIP3    H1 7638   1.103   3.520   2.021 -0.8869  0.3787  1.2269
 2559TIP3    H2 7639   1.101   3.369   2.035 -1.7729  0.2651  0.0348
 2560TIP3   OH2 7640   4.000   2.999   2.371 -0.4929 -0.1505  0.4829
 2560TIP3    H1 7641   3.912   3.014   2.404 -0.9868  2.4790 -1.6363
 2560TIP3    H2 7642   3.998   3.033   2.281  2.8711  0.7752  0.6205
 2561TIP3   OH2 7643   4.197   2.153   1.484  0.0073 -0.3198  0.4227
 2561TIP3    H1 7644   4.107   2.141   1.513  0.0808  0.5197  1.0241
 2561TIP3    H2 7645   4.229   2.064   1.468 -1.0525 -0.5957 -0.2062
 2562TIP3   OH2 7646   6.354   5.629   6.147  0.4082 -0.5432  0.4788
 2562TIP3    H1 7647   6.271   5.598   6.184 -0.3041 -0.5101 -1.0262
 2562TIP3    H2 7648   6.412   5.639   6.223 -1.2825  0.4775  1.6973
 2563TIP3   OH2 7649   0.390   3.352   4.510 -0.0920  0.1099 -0.0617
 2563TIP3    H1 7650   0.462   3.295   4.536  0.2114  0.9779  1.1187
 2563TIP3    H2 7651   0.425   3.441   4.522 -0.9990  0.5488 -0.5425
 2564TIP3   OH2 7652   1.680   5.399   0.384 -0.0792  0.2921 -0.6346
 2564TIP3    H1 7653   1.666   5.410   0.478  2.1590 -0.3065 -0.1849
 2564TIP3    H2 7654   1.745   5.466   0.362 -0.5281  0.3741 -1.7676
 2565TIP3   OH2 7655   0.677   3.974   3.734 -0.1362  0.4036  0.4311
 2565TIP3    H1 7656   0.671   4.059   3.779 -1.5583  0.4713  0.1555
 2565TIP3    H2 7657   0.721   3.917   3.797 -1.5773  0.6558  1.7500
 2566TIP3   OH2 7658   7.309   5.028   3.034 -0.1732 -0.1015  0.0072
 2566TIP3    H1 7659   7.266   4.943   3.020 -0.6510  0.0594  0.4916
 2566TIP3    H2 7660   7.257   5.089   2.982  0.7881 -0.2673 -1.1854
 2567TIP3   OH2 7661   3.037   0.163   1.849  0.2541  0.1825  0.2102
 2567TIP3    H1 7662   3.129   0.137   1.843  0.5011  1.2441 -1.0834
 2567TIP3    H2 7663   3.009   0.174   1.758 -1.2997 -0.5613  0.5682
 2568TIP3   OH2 7664   0.650   6.459   3.219  0.3101 -0.6020 -0.1657
 2568TIP3    H1 7665   0.704   6.501   3.152  1.1266 -0.1279  0.7482
 2568TIP3    H2 7666   0.690   6.373   3.230 -2.2047 -2.3231 -3.0387
 2569TIP3   OH2 7667   4.899   2.988   5.230 -0.2135 -0.3725 -0.0041
 2569TIP3    H1 7668   4.825   3.015   5.285 -1.9799  0.3178 -2.5224
 2569TIP3    H2 7669   4.934   3.071   5.196  0.8434 -0.7759  0.0812
 2570TIP3   OH2 7670   3.865   5.422   2.811 -0.3764 -0.2071  0.5884
 2570TIP3    H1 7671   3.900   5.422   2.900 -0.6877  0.2447  0.7165
 2570TIP3    H2 7672   3.914   5.491   2.766  1.8981 -2.3744 -0.4703
 2571TIP3   OH2 7673   3.114   5.041   5.561 -0.0939 -0.0147  0.1031
 2571TIP3    H1 7674   3.051   5.111   5.543 -1.3413 -0.7526  1.4233
 2571TIP3    H2 7675   3.156   5.068   5.643  1.2545  0.4067 -0.7011
 2572TIP3   OH2 7676   0.714   3.683   0.443  0.3895  0.3399 -0.3917
 2572TIP3    H1 7677   0.723   3.645   0.355  1.7366  3.0427 -1.5165
 2572TIP3    H2 7678   0.791   3.652   0.491 -0.1214 -0.7808 -0.2610
 2573TIP3   OH2 7679   5.926   3.824   5.272  0.4404 -0.0687  0.5317
 2573TIP3    H1 7680   6.015   3.820   5.237  0.8234 -2.4637  1.5632
 2573TIP3    H2 7681   5.873   3.780   5.207 -0.3356  2.5051 -0.7257
 2574TIP3   OH2 7682   7.111   1.168   5.725  0.2957 -0.1605 -0.5355
 2574TIP3    H1 7683   7.041   1.203   5.670  0.6851 -0.3708 -1.1778
 2574TIP3    H2 7684   7.067   1.109   5.786  0.0277 -1.0262 -1.5485
 2575TIP3   OH2 7685   5.160   2.266   3.316 -0.6560 -0.0348  0.3224
 2575TIP3    H1 7686   5.172   2.181   3.275  0.0563  0.5542 -0.7491
 2575TIP3    H2 7687   5.105   2.315   3.255  1.6918  1.3835 -0.8192
 2576TIP3   OH2 7688   4.018   7.085   0.773  0.8575 -0.4104  0.0203
 2576TIP3    H1 7689   3.946   7.024   0.793  0.4268  0.0924  0.0428
 2576TIP3    H2 7690   4.000   7.116   0.684  1.4924 -0.8807 -0.2803
 2577TIP3   OH2 7691   5.913   5.458   4.995 -0.7718  1.0865  0.1020
 2577TIP3    H1 7692   5.980   5.393   5.017 -2.8738 -0.7071  1.8453
 2577TIP3    H2 7693   5.917   5.521   5.067 -0.8076  1.1147  0.0793
 2578TIP3   OH2 7694   0.975   1.487   2.712 -0.1642 -0.2218  0.1895
 2578TIP3    H1 7695   1.049   1.437   2.745  0.9590  0.4712 -1.1918
 2578TIP3    H2 7696   0.936   1.432   2.645 -0.3571 -0.2084  0.2883
 2579TIP3   OH2 7697   5.486   0.824   5.234  0.3223 -0.2634  0.4089
 2579TIP3    H1 7698   5.559   0.879   5.208  0.1151 -1.5600 -3.6880
 2579TIP3    H2 7699   5.517   0.734   5.220 -0.7357 -1.1079  2.7868
 2580TIP3   OH2 7700   0.901   1.808   0.674  0.0682 -0.1145  0.0802
 2580TIP3    H1 7701   0.988   1.848   0.682  0.0556 -0.2594  1.0501
 2580TIP3    H2 7702   0.859   1.858   0.604  0.2747  1.1937  0.8442
 2581TIP3   OH2 7703   6.326   1.996   0.083  0.0154 -0.4735 -0.5591
 2581TIP3    H1 7704   6.418   2.001   0.112 -0.4930 -0.8599  1.2443
 2581TIP3    H2 7705   6.284   1.941   0.149 -1.1088 -2.0481 -2.4850
 2582TIP3   OH2 7706   0.890   5.187   3.685 -0.2217  0.2013 -0.3192
 2582TIP3    H1 7707   0.865   5.271   3.649 -0.9514  0.2776  0.3502
 2582TIP3    H2 7708   0.893   5.128   3.610 -1.0774  0.5073 -0.6024
 2583TIP3   OH2 7709   2.485   0.540   5.747 -0.2598  0.3463 -0.0497
 2583TIP3    H1 7710   2.472   0.470   5.811 -2.2657  1.3153  0.6791
 2583TIP3    H2 7711   2.399   0.580   5.736  0.5320  1.8043 -1.5175
 2584TIP3   OH2 7712   3.448   5.792   2.792  0.4451 -0.0117 -0.8008
 2584TIP3    H1 7713   3.544   5.794   2.785  0.4944  1.1624 -0.0431
 2584TIP3    H2 7714   3.418   5.802   2.701  1.0438 -0.1184 -1.0181
 2585TIP3   OH2 7715   4.644   1.630   4.842  0.6949  0.0558 -0.0758
 2585TIP3    H1 7716   4.712   1.689   4.810  0.7618  0.7105  1.2191
 2585TIP3    H2 7717   4.575   1.635   4.776  2.6104 -2.1240 -2.4599
 2586TIP3   OH2 7718   1.492   6.375   0.748  0.4337 -0.0141  0.2856
 2586TIP3    H1 7719   1.490   6.466   0.777  0.8949 -0.3605  1.4353
 2586TIP3    H2 7720   1.400   6.349   0.743  0.3267  0.3123  0.5999
 2587TIP3   OH2 7721   0.918   6.796   2.183 -0.4523 -0.4615 -0.0556
 2587TIP3    H1 7722   0.911   6.881   2.228 -0.3976 -0.0764 -0.7627
 2587TIP3    H2 7723   0.991   6.807   2.122 -1.8190 -0.2526 -1.7408
 2588TIP3   OH2 7724   6.729   5.605   0.485  0.8538 -0.1990 -0.2775
 2588TIP3    H1 7725   6.672   5.532   0.459  1.3685 -0.6468 -0.1889
 2588TIP3    H2 7726   6.805   5.598   0.427  0.6321  0.6469 -0.6788
 2589TIP3   OH2 7727   0.320   1.564   0.492 -0.1031 -0.2953 -0.0377
 2589TIP3    H1 7728   0.381   1.542   0.422  1.9810 -1.3176  2.0053
 2589TIP3    H2 7729   0.254   1.495   0.489 -0.0577 -0.3172 -0.9504
 2590TIP3   OH2 7730   0.991   1.167   3.148 -0.2609 -0.9647  0.3397
 2590TIP3    H1 7731   1.066   1.111   3.167 -0.5461 -1.1449  0.9442
 2590TIP3    H2 7732   0.970   1.209   3.231 -1.3347 -1.5288  0.3760
 2591TIP3   OH2 7733   5.140   6.490   0.079  0.6822 -0.2093 -0.2726
 2591TIP3    H1 7734   5.180   6.572   0.109  1.2783 -0.6986  0.2923
 2591TIP3    H2 7735   5.062   6.518   0.032  1.5837  0.7601 -1.2580
 2592TIP3   OH2 7736   2.435   5.318   1.474 -0.5200  0.3466 -0.2325
 2592TIP3    H1 7737   2.488   5.384   1.429  0.5097 -0.7781 -0.7231
 2592TIP3    H2 7738   2.478   5.235   1.454 -0.7119 -0.3192  1.8792
 2593TIP3   OH2 7739   0.597   1.123   6.174 -0.3970  0.0067  0.1953
 2593TIP3    H1 7740   0.619   1.040   6.216 -0.4497 -0.4655 -0.6683
 2593TIP3    H2 7741   0.625   1.112   6.083  2.0206  1.9161  0.6125
 2594TIP3   OH2 7742   6.975   5.071   0.706  0.3561 -0.1857  0.0910
 2594TIP3    H1 7743   6.959   5.116   0.624 -0.6055 -0.7622 -0.0604
 2594TIP3    H2 7744   7.070   5.072   0.717  0.5715 -0.8975 -1.4856
 2595TIP3   OH2 7745   5.381   4.398   5.188 -0.2229  0.1220  0.0916
 2595TIP3    H1 7746   5.328   4.459   5.239 -1.8537 -1.7486  0.7531
 2595TIP3    H2 7747   5.359   4.419   5.097 -1.0360  0.3185  0.3202
 2596TIP3   OH2 7748   6.512   4.080   4.186  0.0362  0.3372  0.2466
 2596TIP3    H1 7749   6.498   4.079   4.091  1.8559  0.0120 -0.0572
 2596TIP3    H2 7750   6.605   4.058   4.197 -0.5388 -1.5596  2.1914
 2597TIP3   OH2 7751   6.945   5.431   2.592  0.2945  0.1646 -0.5750
 2597TIP3    H1 7752   6.997   5.491   2.539 -1.0864  1.2092 -0.8042
 2597TIP3    H2 7753   6.856   5.463   2.584 -0.0712 -0.0595  1.8235
 2598TIP3   OH2 7754   6.301   5.396   1.996 -0.1756  0.0249 -0.1356
 2598TIP3    H1 7755   6.372   5.417   2.056 -0.6190 -1.2079  0.8639
 2598TIP3    H2 7756   6.318   5.450   1.919 -0.0076  2.2346  1.3688
 2599TIP3   OH2 7757   5.643   6.417   2.821  0.1009  0.1981  0.0248
 2599TIP3    H1 7758   5.550   6.428   2.801  0.3484  0.1731 -1.1729
 2599TIP3    H2 7759   5.685   6.495   2.784  0.5219  0.3923  0.8857
 2600TIP3   OH2 7760   5.997   5.154   5.306 -0.1784  0.2679 -0.3825
 2600TIP3    H1 7761   6.057   5.100   5.357  0.6263  1.4351 -0.0416
 2600TIP3    H2 7762   6.054   5.199   5.242 -0.4611  2.2665  0.6848
 2601TIP3   OH2 7763   6.990   2.767   0.796 -0.2333 -0.1758 -0.0470
 2601TIP3    H1 7764   6.910   2.802   0.837  0.3981  0.3687  0.7624
 2601TIP3    H2 7765   7.021   2.701   0.858  0.7538  0.6844  0.4071
 2602TIP3   OH2 7766   2.643   1.482   1.398 -0.3004 -0.1412  0.3453
 2602TIP3    H1 7767   2.694   1.462   1.320  0.6145  0.4598  0.7729
 2602TIP3    H2 7768   2.555   1.502   1.365  0.3074  1.0127 -0.6221
 2603TIP3   OH2 7769   3.727   4.970   5.586  0.1904 -0.5454 -0.3172
 2603TIP3    H1 7770   3.685   4.950   5.670  1.5989 -0.6310  0.3938
 2603TIP3    H2 7771   3.656   5.004   5.531 -0.6051  0.3575  1.1992
 2604TIP3   OH2 7772   4.177   2.011   3.219  0.4472  0.4157 -0.3325
 2604TIP3    H1 7773   4.150   2.102   3.211  0.6363  0.5190  0.1256
 2604TIP3    H2 7774   4.096   1.964   3.238  0.7363  0.9911  3.0500
 2605TIP3   OH2 7775   7.335   0.652   4.998  0.1072 -0.6560  0.3160
 2605TIP3    H1 7776   7.428   0.666   5.015  0.6594 -1.5190 -1.6822
 2605TIP3    H2 7777   7.297   0.634   5.084  1.6325  0.3894  1.2566
 2606TIP3   OH2 7778   0.517   1.736   3.791  0.3028 -0.2811  0.1187
 2606TIP3    H1 7779   0.521   1.714   3.884  0.2258 -0.0087  0.1872
 2606TIP3    H2 7780   0.594   1.790   3.776  0.3562 -0.3864  0.0052
 2607TIP3   OH2 7781   2.417   1.385   0.771 -0.2692  0.5969 -0.1409
 2607TIP3    H1 7782   2.415   1.425   0.685  1.0179  0.9137 -0.0433
 2607TIP3    H2 7783   2.482   1.315   0.764 -1.5004 -0.5920  0.0685
 2608TIP3   OH2 7784   3.943   4.821   5.911 -0.5211  0.1921 -0.0270
 2608TIP3    H1 7785   3.901   4.749   5.862 -1.7946 -0.5652  2.0192
 2608TIP3    H2 7786   4.034   4.794   5.919 -0.8082 -0.8222  0.0133
 2609TIP3   OH2 7787   4.228   0.067   3.606  0.3840 -0.0281  0.0834
 2609TIP3    H1 7788   4.323   0.070   3.595  0.2675  1.3093 -0.7225
 2609TIP3    H2 7789   4.200  -0.003   3.546  0.9209 -0.9859  0.9292
 2610TIP3   OH2 7790   1.080   1.705   4.766  0.1864 -0.2264 -0.3575
 2610TIP3    H1 7791   1.095   1.710   4.671 -3.3239 -1.0429 -1.1183
 2610TIP3    H2 7792   1.138   1.635   4.796  0.7092 -0.6025 -2.1019
 2611TIP3   OH2 7793   2.466   0.747   0.042  0.6701  0.6511  0.1973
 2611TIP3    H1 7794   2.473   0.677  -0.023 -0.8146 -1.1633  1.8779
 2611TIP3    H2 7795   2.407   0.811   0.003  0.8752  0.2594 -0.7736
 2612TIP3   OH2 7796   4.165   4.740   3.593  0.0252 -0.1108 -0.0960
 2612TIP3    H1 7797   4.115   4.760   3.513 -1.2584  2.8738  1.2740
 2612TIP3    H2 7798   4.099   4.710   3.655  0.3954  0.8997  0.8193
 2613TIP3   OH2 7799   6.244   4.502   2.418 -0.4654  0.3268 -0.3895
 2613TIP3    H1 7800   6.190   4.502   2.497  0.5023 -0.5212  0.2905
 2613TIP3    H2 7801   6.299   4.580   2.425 -0.6941  0.4947 -0.4533
 2614TIP3   OH2 7802   6.094   3.872   0.250 -0.2761 -0.2243  0.3419
 2614TIP3    H1 7803   6.070   3.964   0.260 -0.3764 -0.3209  1.0402
 2614TIP3    H2 7804   6.168   3.873   0.189 -0.0506  0.3467  0.6179
 2615TIP3   OH2 7805   4.701   5.516   0.838  0.1797  0.1965 -0.4360
 2615TIP3    H1 7806   4.719   5.543   0.748  0.2129  0.0112 -0.4852
 2615TIP3    H2 7807   4.651   5.435   0.830  0.2915  0.1116 -0.2868
 2616TIP3   OH2 7808   2.221   7.066   3.892 -0.5725 -0.1690 -0.6975
 2616TIP3    H1 7809   2.215   7.160   3.880 -1.1132 -0.4297 -2.8349
 2616TIP3    H2 7810   2.142   7.031   3.851 -0.0610 -1.5899 -0.5276
 2617TIP3   OH2 7811   7.543   6.240   5.700 -0.2656 -0.0984  0.3311
 2617TIP3    H1 7812   7.514   6.226   5.790  0.6753  0.4307  0.7376
 2617TIP3    H2 7813   7.533   6.335   5.686 -0.9750 -0.2618 -0.3324
 2618TIP3   OH2 7814   0.253   4.686   2.979 -0.0100 -0.0933 -0.3565
 2618TIP3    H1 7815   0.207   4.727   3.052 -2.1014 -1.5235 -0.7835
 2618TIP3    H2 7816   0.337   4.660   3.015  0.1913  1.8260  0.7084
 2619TIP3   OH2 7817   7.088   2.527   0.919 -0.1269  0.0015 -0.0138
 2619TIP3    H1 7818   7.088   2.443   0.967  1.9603 -0.9068 -1.4673
 2619TIP3    H2 7819   7.176   2.562   0.932 -1.1570  2.3971  1.1371
 2620TIP3   OH2 7820   4.430   3.598   1.622 -0.1539  0.1685 -0.1455
 2620TIP3    H1 7821   4.475   3.678   1.595 -1.0210  0.9970  0.7882
 2620TIP3    H2 7822   4.498   3.531   1.619  0.7825  1.0851 -0.2274
 2621TIP3   OH2 7823   2.277   0.215   4.180  0.4865  1.0218 -0.3026
 2621TIP3    H1 7824   2.228   0.288   4.143  0.1471  0.4219 -1.0578
 2621TIP3    H2 7825   2.257   0.219   4.274  1.7829  2.8761 -0.0488
 2622TIP3   OH2 7826   4.281   2.295   3.824 -0.5512 -0.0680  0.0069
 2622TIP3    H1 7827   4.305   2.209   3.791  0.9699  0.5170 -0.5087
 2622TIP3    H2 7828   4.197   2.314   3.783 -0.1419 -0.6463 -1.1426
 2623TIP3   OH2 7829   6.363   6.394   4.691  0.2638  0.2416  0.5336
 2623TIP3    H1 7830   6.412   6.432   4.618  0.4372 -0.2577  0.3835
 2623TIP3    H2 7831   6.271   6.401   4.664  0.3999 -2.1896 -0.9063
 2624TIP3   OH2 7832   3.237   6.168   3.731  0.0107  0.5554 -0.2241
 2624TIP3    H1 7833   3.248   6.106   3.658 -0.6543 -0.3774  0.4574
 2624TIP3    H2 7834   3.232   6.113   3.809  0.8666  1.5559  0.5625
 2625TIP3   OH2 7835   1.030   5.549   3.552  0.0275 -0.1444  0.0777
 2625TIP3    H1 7836   1.087   5.520   3.623 -0.0949 -1.3760 -0.2986
 2625TIP3    H2 7837   0.969   5.611   3.593  1.6012  1.2122  0.4862
 2626TIP3   OH2 7838   1.580   3.666   2.188 -0.4262 -0.7640 -0.0738
 2626TIP3    H1 7839   1.544   3.753   2.204 -0.4207 -0.7352 -0.2134
 2626TIP3    H2 7840   1.534   3.636   2.109  1.1757  0.0418 -1.3902
 2627TIP3   OH2 7841   1.256   5.117   2.330  0.4117 -0.1661 -0.0383
 2627TIP3    H1 7842   1.178   5.112   2.275  0.7743  3.0901 -1.0758
 2627TIP3    H2 7843   1.310   5.042   2.302 -0.7084 -0.3146 -2.0223
 2628TIP3   OH2 7844   6.120   6.196   3.131  0.3921 -0.0715  0.2116
 2628TIP3    H1 7845   6.104   6.290   3.129 -0.8922 -0.2881 -0.8692
 2628TIP3    H2 7846   6.178   6.180   3.056  0.6548 -0.1489  0.4270
 2629TIP3   OH2 7847   7.201   0.324   1.078 -0.3705 -0.0187 -0.3335
 2629TIP3    H1 7848   7.110   0.316   1.105  0.0752  0.0643  1.2805
 2629TIP3    H2 7849   7.251   0.281   1.147  0.8793  0.8797 -0.6327
 2630TIP3   OH2 7850   6.892   3.164   2.792  0.6137  0.4339  0.1418
 2630TIP3    H1 7851   6.963   3.208   2.838  1.8050  0.6229 -1.7383
 2630TIP3    H2 7852   6.814   3.180   2.845  1.9817 -0.0087  2.4303
 2631TIP3   OH2 7853   2.996   6.767   0.936 -0.1799 -0.2400 -0.0115
 2631TIP3    H1 7854   2.974   6.682   0.898 -1.5494 -0.3102  0.8814
 2631TIP3    H2 7855   2.946   6.771   1.017 -0.8176  1.7747 -0.4552
 2632TIP3   OH2 7856   0.810   7.048   6.132  0.3761  0.2150 -0.0613
 2632TIP3    H1 7857   0.798   6.953   6.136  0.2318  0.2684  1.2420
 2632TIP3    H2 7858   0.822   7.074   6.224 -1.2175  1.6671 -0.2332
 2633TIP3   OH2 7859   5.854   0.552   1.814 -0.1032  0.0290  0.7791
 2633TIP3    H1 7860   5.763   0.526   1.812 -0.0412 -0.1922  0.8751
 2633TIP3    H2 7861   5.901   0.478   1.852  0.0008  0.4870  1.5771
 2634TIP3   OH2 7862   5.231   4.885   5.954  0.4739  0.8240 -1.4081
 2634TIP3    H1 7863   5.231   4.849   5.866 -0.8415 -0.0829 -1.0650
 2634TIP3    H2 7864   5.141   4.874   5.985  0.0784  4.0282 -1.1065
 2635TIP3   OH2 7865   5.610   1.947   3.565  0.5597  0.0004  0.0729
 2635TIP3    H1 7866   5.623   1.938   3.660  0.6942 -0.9290 -0.0236
 2635TIP3    H2 7867   5.675   2.013   3.538  2.7243 -1.9408  0.1646
 2636TIP3   OH2 7868   2.322   0.277   4.448 -0.3930  0.6159 -0.2065
 2636TIP3    H1 7869   2.387   0.210   4.425 -0.6079  0.0750  0.7256
 2636TIP3    H2 7870   2.372   0.346   4.490 -0.1805  1.0316 -1.1079
 2637TIP3   OH2 7871   4.427   5.332   0.325  0.0301  0.4151  0.3228
 2637TIP3    H1 7872   4.410   5.280   0.404  1.4486 -0.6993 -0.0744
 2637TIP3    H2 7873   4.459   5.270   0.261 -1.0902  1.3179 -1.1682
 2638TIP3   OH2 7874   4.808   6.349   0.807 -0.1020 -0.1645 -0.1242
 2638TIP3    H1 7875   4.831   6.383   0.720  0.3407  0.0514  0.0754
 2638TIP3    H2 7876   4.879   6.288   0.828  0.6917  1.0298  0.7969
 2639TIP3   OH2 7877   4.701   6.197   1.587 -0.1245  0.0957  0.0904
 2639TIP3    H1 7878   4.700   6.131   1.517  1.1031  0.1489 -0.0020
 2639TIP3    H2 7879   4.792   6.227   1.590 -0.6415  1.7207  0.1978
 2640TIP3   OH2 7880   1.194   2.927   6.154 -0.0156  0.4669 -0.0483
 2640TIP3    H1 7881   1.163   3.018   6.151 -2.4269 -0.2950  0.1220
 2640TIP3    H2 7882   1.153   2.890   6.232  1.8556 -0.5009  0.5451
 2641TIP3   OH2 7883   2.241   0.995   2.692  0.1391 -0.2791  0.3546
 2641TIP3    H1 7884   2.287   0.911   2.687  2.8342  1.1067  0.1101
 2641TIP3    H2 7885   2.283   1.042   2.764 -3.8768 -0.4513  3.1144
 2642TIP3   OH2 7886   3.193   1.492   3.381  0.1808 -0.3581  0.3191
 2642TIP3    H1 7887   3.169   1.406   3.346  2.8378 -0.4737 -1.5332
 2642TIP3    H2 7888   3.244   1.472   3.460  2.3795 -0.6830 -1.1040
 2643TIP3   OH2 7889   3.223   3.857   5.520 -0.3308 -0.0496 -0.5025
 2643TIP3    H1 7890   3.132   3.859   5.552 -0.5772  1.1105 -1.1949
 2643TIP3    H2 7891   3.250   3.767   5.531 -1.4043 -0.3174  0.1934
 2644TIP3   OH2 7892   2.108   6.188   5.838  0.0481 -0.5142 -0.7881
 2644TIP3    H1 7893   2.035   6.233   5.796 -0.8875 -0.1014  1.1314
 2644TIP3    H2 7894   2.173   6.178   5.770 -1.8191 -0.9627 -2.6083
 2645TIP3   OH2 7895   0.735   2.239   0.036 -0.4521 -0.8709  0.3294
 2645TIP3    H1 7896   0.795   2.310   0.013  0.0120 -1.2133  0.4515
 2645TIP3    H2 7897   0.746   2.229   0.131 -1.5281 -0.2025  0.5370
 2646TIP3   OH2 7898   3.431   2.667   3.522  0.5915  0.4437  0.1699
 2646TIP3    H1 7899   3.514   2.620   3.517  0.2408 -0.3286  1.1466
 2646TIP3    H2 7900   3.365   2.603   3.495  0.2065  0.7026  0.4810
 2647TIP3   OH2 7901   0.229   6.867   2.621  0.5421  0.3187  0.5570
 2647TIP3    H1 7902   0.175   6.857   2.700 -1.3305  0.6631 -0.6152
 2647TIP3    H2 7903   0.179   6.824   2.552  1.7186  0.7912 -0.6320
 2648TIP3   OH2 7904   7.149   1.691   3.134 -0.0708  0.1738 -0.0896
 2648TIP3    H1 7905   7.132   1.598   3.120  1.4132 -0.0092 -0.8873
 2648TIP3    H2 7906   7.073   1.736   3.096  0.2604 -0.6355 -1.7842
 2649TIP3   OH2 7907   1.388   0.129   3.198  0.1428 -0.2122 -0.6284
 2649TIP3    H1 7908   1.324   0.191   3.164  1.4060  2.5561  1.6790
 2649TIP3    H2 7909   1.471   0.178   3.198  1.2843 -2.0131  0.9597
 2650TIP3   OH2 7910   3.153   6.590   5.495  0.1572 -0.1570  0.0398
 2650TIP3    H1 7911   3.106   6.673   5.485  1.7250  0.9066  1.0362
 2650TIP3    H2 7912   3.085   6.527   5.518 -1.0525  0.8722 -0.5581
 2651TIP3   OH2 7913   6.221   3.592   0.282  0.2863 -0.6742  0.6994
 2651TIP3    H1 7914   6.254   3.654   0.217 -0.2980 -0.0595  0.9682
 2651TIP3    H2 7915   6.197   3.648   0.357  0.6321 -1.3268  1.3133
 2652TIP3   OH2 7916   4.607   6.385   5.339 -0.9661  0.0395  0.2644
 2652TIP3    H1 7917   4.584   6.298   5.304 -0.8613  0.1042  0.0322
 2652TIP3    H2 7918   4.524   6.431   5.346 -0.8663  0.4846 -1.1388
 2653TIP3   OH2 7919   4.573   3.223   4.304  1.3148  0.1382  0.3876
 2653TIP3    H1 7920   4.579   3.129   4.287 -0.4871  0.1851 -0.9269
 2653TIP3    H2 7921   4.642   3.262   4.250  0.9713 -0.3507 -0.4395
 2654TIP3   OH2 7922   5.055   2.715   0.863 -0.4017 -0.0910 -0.0471
 2654TIP3    H1 7923   5.125   2.772   0.896  0.9166 -0.8999 -1.2996
 2654TIP3    H2 7924   5.101   2.635   0.834 -1.5698  0.0717 -2.6227
 2655TIP3   OH2 7925   3.804   5.269   5.857 -0.7704 -0.1773  0.4860
 2655TIP3    H1 7926   3.822   5.205   5.925  1.8347  0.3875  0.4541
 2655TIP3    H2 7927   3.855   5.239   5.781  0.1782  1.6168  0.3347
 2656TIP3   OH2 7928   1.214   6.866   2.601  0.1433  0.5223 -0.0945
 2656TIP3    H1 7929   1.274   6.796   2.626 -1.0569 -0.4290  0.2836
 2656TIP3    H2 7930   1.267   6.928   2.553  1.2185 -0.7769 -0.6431
 2657TIP3   OH2 7931   5.063   0.765   1.900  0.7570 -0.2176  0.1285
 2657TIP3    H1 7932   5.065   0.819   1.978  1.4330  2.3563 -1.5591
 2657TIP3    H2 7933   5.153   0.765   1.868  0.1782  0.3640 -1.6301
 2658TIP3   OH2 7934   1.720   3.815   6.028  0.4028  0.4689  0.2051
 2658TIP3    H1 7935   1.755   3.876   6.094 -0.8354  0.0869  1.2630
 2658TIP3    H2 7936   1.713   3.732   6.074  1.9432 -0.4987 -1.1900
 2659TIP3   OH2 7937   7.039   0.315   2.833  0.7989  0.9216  0.4601
 2659TIP3    H1 7938   7.097   0.239   2.836 -1.4763 -0.8757  2.1976
 2659TIP3    H2 7939   7.051   0.357   2.918 -0.8726  0.1169  1.1353
 2660TIP3   OH2 7940   2.921   1.176   3.894 -0.1285  0.1888  0.6429
 2660TIP3    H1 7941   2.981   1.145   3.826  0.6748 -0.8012  1.7609
 2660TIP3    H2 7942   2.931   1.113   3.966 -1.6559  0.6617  1.3209
 2661TIP3   OH2 7943   4.127   1.261   4.645  0.1105 -0.0619  0.4634
 2661TIP3    H1 7944   4.109   1.180   4.693  0.8621 -0.0372  0.8181
 2661TIP3    H2 7945   4.186   1.234   4.575  1.0342  0.2936  1.0822
 2662TIP3   OH2 7946   6.711   0.759   3.803 -0.1813  0.1137  0.5545
 2662TIP3    H1 7947   6.711   0.847   3.767  0.1917  1.0365  2.6557
 2662TIP3    H2 7948   6.757   0.767   3.887  1.1638 -2.3570  0.1815
 2663TIP3   OH2 7949   3.230   3.726   4.829 -0.4755  0.2088 -0.0489
 2663TIP3    H1 7950   3.148   3.775   4.826 -1.2977 -1.1313 -0.1348
 2663TIP3    H2 7951   3.219   3.654   4.767  0.9667  0.2818 -0.4450
 2664TIP3   OH2 7952   0.416   5.382   0.178 -0.4324 -0.3531 -0.1062
 2664TIP3    H1 7953   0.456   5.318   0.237 -3.1523  1.1219  3.7799
 2664TIP3    H2 7954   0.344   5.335   0.137  1.3818 -1.3453 -2.3732
 2665TIP3   OH2 7955   6.726   2.633   4.592  0.0174  0.2071 -0.2025
 2665TIP3    H1 7956   6.642   2.591   4.608 -0.1912 -0.2211 -2.1862
 2665TIP3    H2 7957   6.708   2.700   4.527  1.0467  0.7901  0.0803
 2666TIP3   OH2 7958   4.905   1.140   3.617 -0.2840 -0.0360  0.2244
 2666TIP3    H1 7959   4.829   1.122   3.561 -0.8049  1.8396  0.2780
 2666TIP3    H2 7960   4.952   1.056   3.620 -1.5486 -0.8437 -1.0080
 2667TIP3   OH2 7961   6.878   3.812   3.752  0.1100  0.7596  0.3686
 2667TIP3    H1 7962   6.801   3.757   3.738 -0.3589  1.2617  0.9017
 2667TIP3    H2 7963   6.868   3.883   3.689  0.7081  0.2661 -0.3093
 2668TIP3   OH2 7964   3.085   1.284   4.205  0.7072 -0.0407 -0.1961
 2668TIP3    H1 7965   3.022   1.313   4.271  0.7906 -0.7588  0.2021
 2668TIP3    H2 7966   3.090   1.358   4.144  1.1204  0.9042  0.9369
 2669TIP3   OH2 7967   1.692   0.406   4.902 -0.2902 -0.4618 -0.4144
 2669TIP3    H1 7968   1.603   0.439   4.885 -1.3771 -2.9845 -0.1333
 2669TIP3    H2 7969   1.725   0.381   4.817 -1.3358 -2.8299 -0.1931
 2670TIP3   OH2 7970   2.884   1.133   4.554 -0.2670 -0.1132 -0.2550
 2670TIP3    H1 7971   2.832   1.083   4.491  0.0911  0.4142 -0.9998
 2670TIP3    H2 7972   2.969   1.142   4.511  0.0062  0.2028  0.3462
 2671TIP3   OH2 7973   7.581   1.827   3.197  0.0146  0.1294 -0.3148
 2671TIP3    H1 7974   7.519   1.785   3.138  1.3579 -0.3863 -1.4044
 2671TIP3    H2 7975   7.602   1.910   3.155  2.3052 -0.9829 -1.5570
 2672TIP3   OH2 7976   1.501   6.098   3.037 -0.0402 -0.2071  0.1197
 2672TIP3    H1 7977   1.570   6.138   2.985 -0.1288  2.3090  1.7464
 2672TIP3    H2 7978   1.546   6.060   3.112 -0.1771 -1.2721 -0.3203
 2673TIP3   OH2 7979   2.169   5.331   1.402 -0.3196  0.1348  0.2474
 2673TIP3    H1 7980   2.257   5.333   1.439 -0.2672 -1.4348  0.2568
 2673TIP3    H2 7981   2.182   5.345   1.308 -0.1543  0.7727  0.3593
 2674TIP3   OH2 7982   6.146   3.919   4.911 -0.0496  0.2996 -0.1006
 2674TIP3    H1 7983   6.148   3.865   4.833  1.3014 -0.2553  0.2986
 2674TIP3    H2 7984   6.142   3.857   4.984 -2.0286  0.8065  0.3065
 2675TIP3   OH2 7985   3.193   1.778   3.341  0.1753  0.0619 -0.4498
 2675TIP3    H1 7986   3.145   1.714   3.394  1.5073 -0.9766 -0.4267
 2675TIP3    H2 7987   3.174   1.862   3.381  0.2518 -0.5855  1.0105
 2676TIP3   OH2 7988   5.369   0.591   2.566 -0.2099  0.3314 -0.0127
 2676TIP3    H1 7989   5.435   0.628   2.508 -0.1699  0.5220  0.1560
 2676TIP3    H2 7990   5.354   0.502   2.532  0.4036  0.1537  0.1710
 2677TIP3   OH2 7991   0.391   4.325   3.766  0.8725  0.2546  0.4555
 2677TIP3    H1 7992   0.395   4.323   3.862  0.2372 -1.6474  0.4765
 2677TIP3    H2 7993   0.297   4.323   3.746  1.0219 -0.4704 -0.2004
 2678TIP3   OH2 7994   0.312   0.458   0.032  0.0068 -0.3870  0.9951
 2678TIP3    H1 7995   0.231   0.422  -0.005  0.5935 -1.3103  0.5574
 2678TIP3    H2 7996   0.295   0.551   0.041 -1.0570 -0.5410  0.7777
 2679TIP3   OH2 7997   1.873   4.826   5.649  0.0850  0.4303 -0.0936
 2679TIP3    H1 7998   1.811   4.900   5.641 -0.6790  0.1742  2.5146
 2679TIP3    H2 7999   1.859   4.793   5.738  1.5350 -1.8910 -0.6514
 2680TIP3   OH2 8000   6.371   4.942   3.572 -0.2469 -0.6234 -0.2787
 2680TIP3    H1 8001   6.336   4.956   3.484  0.3472  1.3415 -0.2479
 2680TIP3    H2 8002   6.320   5.003   3.627  1.5181  0.5203  0.1648
 2681TIP3   OH2 8003   2.036   2.469   1.577  0.6279  0.0982 -0.1099
 2681TIP3    H1 8004   2.019   2.558   1.549 -0.7575  0.2693  1.1257
 2681TIP3    H2 8005   1.981   2.457   1.655  0.5481 -1.9311 -0.4144
 2682TIP3   OH2 8006   7.248   4.985   4.567  0.5955 -0.0493 -0.1147
 2682TIP3    H1 8007   7.164   5.004   4.608  0.5785 -1.3239  0.4831
 2682TIP3    H2 8008   7.306   5.054   4.600  0.0055  0.3258  0.1606
 2683TIP3   OH2 8009   2.625   4.520   1.788  0.0156  0.5668  0.0550
 2683TIP3    H1 8010   2.697   4.461   1.764 -0.8688 -0.6372  0.2513
 2683TIP3    H2 8011   2.646   4.602   1.743  0.4065 -0.4220 -1.6926
 2684TIP3   OH2 8012   1.288   6.196   5.513 -0.9106 -0.4204 -0.2359
 2684TIP3    H1 8013   1.244   6.265   5.563 -1.7990 -0.7457 -0.5465
 2684TIP3    H2 8014   1.361   6.169   5.569 -1.1877  0.0380  0.3579
 2685TIP3   OH2 8015   0.348   2.353   4.062  0.1762  0.3180  0.0501
 2685TIP3    H1 8016   0.334   2.263   4.032 -0.4460 -0.1899  1.7696
 2685TIP3    H2 8017   0.368   2.402   3.982 -0.9998 -1.0376 -1.1237
 2686TIP3   OH2 8018   2.255   0.764   1.643  0.5081 -0.3461 -0.0194
 2686TIP3    H1 8019   2.280   0.857   1.647  1.7811 -0.6506 -0.5405
 2686TIP3    H2 8020   2.227   0.752   1.552 -1.9497  0.0589  0.6140
 2687TIP3   OH2 8021   2.871   1.879   0.868 -0.1300  0.0451  0.1646
 2687TIP3    H1 8022   2.857   1.820   0.794 -0.8032  0.0159  0.3095
 2687TIP3    H2 8023   2.783   1.900   0.899  0.1557 -0.8812  1.7002
 2688TIP3   OH2 8024   0.422   0.044   3.443 -0.3538 -0.1287 -0.2254
 2688TIP3    H1 8025   0.407   0.134   3.471 -0.6369 -0.1591 -0.2763
 2688TIP3    H2 8026   0.432   0.050   3.348  0.4663 -0.0433 -0.1420
 2689TIP3   OH2 8027   4.238   6.913   0.227  0.1499  0.6517 -0.2969
 2689TIP3    H1 8028   4.272   6.949   0.309  0.2415 -1.2265  0.5388
 2689TIP3    H2 8029   4.174   6.978   0.197 -1.2534  0.5809  2.2548
 2690TIP3   OH2 8030   1.500   3.033   5.282 -0.0007  0.5331  0.1171
 2690TIP3    H1 8031   1.488   3.096   5.211  1.0375 -1.5901 -2.0787
 2690TIP3    H2 8032   1.414   3.025   5.322 -0.7981  1.2493 -1.3781
 2691TIP3   OH2 8033   5.365   6.356   5.529 -0.4778 -0.0187 -0.4550
 2691TIP3    H1 8034   5.433   6.383   5.591  1.0003 -0.1506 -1.9562
 2691TIP3    H2 8035   5.345   6.266   5.554  0.2097 -0.1246 -0.2542
 2692TIP3   OH2 8036   5.267   1.265   4.578  0.6276  0.3900 -0.6693
 2692TIP3    H1 8037   5.256   1.171   4.563 -0.3424  0.6328 -1.6681
 2692TIP3    H2 8038   5.357   1.274   4.609  0.7070 -0.8730 -0.4619
 2693TIP3   OH2 8039   1.631   0.570   1.536 -0.0306  0.2872  0.2994
 2693TIP3    H1 8040   1.590   0.492   1.499  1.2638 -0.0981 -0.3570
 2693TIP3    H2 8041   1.572   0.641   1.510  0.0634 -0.1621 -1.2421
 2694TIP3   OH2 8042   2.967   0.719   4.771 -0.2578  0.0685  0.1269
 2694TIP3    H1 8043   3.009   0.681   4.848  2.5682 -0.3882 -1.5076
 2694TIP3    H2 8044   2.904   0.653   4.743 -1.0157  0.0624  1.7621
 2695TIP3   OH2 8045   1.863   4.190   5.755  0.6127  0.2956 -0.6427
 2695TIP3    H1 8046   1.810   4.114   5.728  1.0484 -0.3460  0.2715
 2695TIP3    H2 8047   1.950   4.170   5.722  0.2038  1.6639 -2.7424
 2696TIP3   OH2 8048   3.050   6.560   3.823  0.0298  0.5418 -0.0619
 2696TIP3    H1 8049   3.015   6.647   3.804  0.6195  0.9108  0.4877
 2696TIP3    H2 8050   3.024   6.542   3.913 -4.1710 -1.8868 -1.4894
 2697TIP3   OH2 8051   0.216   0.462   3.545  0.2151 -0.2147 -1.0590
 2697TIP3    H1 8052   0.269   0.462   3.625 -1.8173  2.5131  0.4564
 2697TIP3    H2 8053   0.153   0.392   3.557  0.2748 -0.1793 -0.5278
 2698TIP3   OH2 8054   1.033   4.419   5.470 -0.0695  0.6627  0.3554
 2698TIP3    H1 8055   1.025   4.514   5.470  0.5865  0.7207  1.0039
 2698TIP3    H2 8056   1.112   4.401   5.520 -0.0747 -0.2170  0.0643
 2699TIP3   OH2 8057   1.154   5.552   3.828  0.9934 -0.4790 -0.1035
 2699TIP3    H1 8058   1.083   5.611   3.853  0.9288 -0.2861 -0.7310
 2699TIP3    H2 8059   1.227   5.576   3.886  1.1274  0.5503 -0.6850
 2700TIP3   OH2 8060   2.755   1.848   1.509 -0.2403 -0.5820  0.0325
 2700TIP3    H1 8061   2.694   1.879   1.442  1.1430 -0.9862 -1.4694
 2700TIP3    H2 8062   2.821   1.798   1.461  1.0228 -0.5599  1.6489
 2701TIP3   OH2 8063   3.114   1.761   0.665 -0.3521  0.0780 -0.2994
 2701TIP3    H1 8064   3.173   1.705   0.613 -1.3750 -1.7937  0.4585
 2701TIP3    H2 8065   3.158   1.769   0.749  0.0518  0.9203 -0.5767
 2702TIP3   OH2 8066   1.519   4.911   1.374 -0.4686 -0.0526  0.5567
 2702TIP3    H1 8067   1.457   4.918   1.446 -0.6907  3.0670  0.2042
 2702TIP3    H2 8068   1.486   4.972   1.308  1.0784 -0.9618 -1.1608
 2703TIP3   OH2 8069   6.915   4.428   4.072  0.4023 -0.0755 -0.0224
 2703TIP3    H1 8070   6.828   4.466   4.081  0.3265  0.1202 -1.3564
 2703TIP3    H2 8071   6.917   4.393   3.983  2.0680  0.9806 -0.4535
 2704TIP3   OH2 8072   5.086   6.760   1.391 -0.1673 -0.2069 -0.4748
 2704TIP3    H1 8073   5.080   6.669   1.420 -1.8953  0.3177  1.0202
 2704TIP3    H2 8074   5.140   6.802   1.458 -0.0935  0.0434 -0.6915
 2705TIP3   OH2 8075   6.553   4.820   3.282  0.3558  0.4162  0.0167
 2705TIP3    H1 8076   6.507   4.741   3.310 -0.2972  0.9194  0.3933
 2705TIP3    H2 8077   6.642   4.809   3.316  0.4688 -0.4586 -0.5198
 2706TIP3   OH2 8078   0.136   3.964   4.827 -0.0062 -0.2199  0.1933
 2706TIP3    H1 8079   0.154   3.916   4.747  1.3772 -1.6056  1.2878
 2706TIP3    H2 8080   0.222   3.989   4.860 -0.6254  2.0235  0.3050
 2707TIP3   OH2 8081   2.824   2.950   5.493  0.4830  0.4935 -0.7694
 2707TIP3    H1 8082   2.917   2.936   5.507  0.2555  0.3192  0.6958
 2707TIP3    H2 8083   2.781   2.874   5.532 -0.3873  1.8247  1.0350
 2708TIP3   OH2 8084   7.156   7.134   2.276 -0.0527 -0.0111 -0.0694
 2708TIP3    H1 8085   7.104   7.073   2.224 -0.3341 -1.0563  1.3843
 2708TIP3    H2 8086   7.109   7.141   2.359  1.2464  0.3070  0.6682
 2709TIP3   OH2 8087   0.356   4.719   0.965  0.3923 -0.5474  0.1605
 2709TIP3    H1 8088   0.451   4.712   0.956  0.0979 -2.9998 -3.6865
 2709TIP3    H2 8089   0.334   4.660   1.037  1.7327  0.3430  1.3530
 2710TIP3   OH2 8090   3.261   0.975   3.083 -0.3474  0.5778 -0.1511
 2710TIP3    H1 8091   3.306   1.057   3.103 -0.0410  0.8768 -1.9450
 2710TIP3    H2 8092   3.309   0.939   3.008 -0.7818 -1.0015  0.2942
 2711TIP3   OH2 8093   2.627   7.087   1.993  0.2276  0.0425  0.6634
 2711TIP3    H1 8094   2.632   7.109   1.900  1.2399 -0.3513  0.6166
 2711TIP3    H2 8095   2.621   7.172   2.037 -2.1833  0.2030  0.1766
 2712TIP3   OH2 8096   7.368   6.214   1.064 -0.3793  0.4769 -0.7456
 2712TIP3    H1 8097   7.390   6.193   0.973  1.3491  1.5564 -0.6341
 2712TIP3    H2 8098   7.448   6.256   1.098 -1.0556  0.2384  1.2198
 2713TIP3   OH2 8099   1.428   0.626   4.131 -0.2163  0.9513  0.0064
 2713TIP3    H1 8100   1.460   0.670   4.210 -0.7044  0.5681  0.4238
 2713TIP3    H2 8101   1.361   0.685   4.096 -1.9075 -0.0481  1.3542
 2714TIP3   OH2 8102   6.416   1.788   5.791 -0.1194  0.4399  0.0179
 2714TIP3    H1 8103   6.387   1.858   5.849 -0.5462 -0.3714  0.8204
 2714TIP3    H2 8104   6.403   1.708   5.842  3.5704 -0.0433  0.5072
 2715TIP3   OH2 8105   2.968   4.412   4.227 -0.0267 -0.2990 -0.6217
 2715TIP3    H1 8106   2.953   4.501   4.256  0.8118  0.4613 -2.3502
 2715TIP3    H2 8107   3.061   4.409   4.204  0.3247 -2.0633  0.7608
 2716TIP3   OH2 8108   2.414   6.433   4.596  0.4202  0.3497 -0.0404
 2716TIP3    H1 8109   2.483   6.483   4.551 -1.1682  1.7524 -1.0612
 2716TIP3    H2 8110   2.333   6.477   4.571 -0.8844 -1.3553  0.9677
 2717TIP3   OH2 8111   0.726   1.984   2.660 -0.3406  0.2434 -0.2198
 2717TIP3    H1 8112   0.694   2.016   2.576  2.3655  0.6945 -1.1840
 2717TIP3    H2 8113   0.715   1.889   2.656  1.4885  0.0499 -1.9431
 2718TIP3   OH2 8114   3.348   4.180   2.922 -0.0732 -0.4696 -0.0952
 2718TIP3    H1 8115   3.259   4.147   2.932 -0.6679  0.5715 -1.6329
 2718TIP3    H2 8116   3.390   4.161   3.006 -1.7710 -0.8621  0.7076
 2719TIP3   OH2 8117   4.110   2.501   6.019  0.2256  0.2824  0.4197
 2719TIP3    H1 8118   4.068   2.584   5.996  0.3417  0.8678  2.1666
 2719TIP3    H2 8119   4.189   2.499   5.965 -0.0666  1.0281 -0.0633
 2720TIP3   OH2 8120   4.397   1.776   0.388 -0.2246  0.2115  0.0819
 2720TIP3    H1 8121   4.460   1.845   0.369  0.3430  0.1173  1.4941
 2720TIP3    H2 8122   4.387   1.728   0.306  0.4389  1.1158 -0.5343
 2721TIP3   OH2 8123   5.776   0.794   1.110 -0.1360  0.4003  0.2052
 2721TIP3    H1 8124   5.830   0.872   1.098  0.4814 -0.0957 -0.3725
 2721TIP3    H2 8125   5.815   0.729   1.051  1.0746 -1.2105  2.5599
 2722TIP3   OH2 8126   2.616   1.942   5.091  0.0842  0.6804  0.2324
 2722TIP3    H1 8127   2.558   1.898   5.029  0.9489  0.6636 -0.5826
 2722TIP3    H2 8128   2.686   1.879   5.106 -1.0703 -0.1383  2.7823
 2723TIP3   OH2 8129   4.668   4.006   0.162  0.0565  0.3972 -0.3334
 2723TIP3    H1 8130   4.634   3.977   0.077 -0.6816  2.6183 -0.8615
 2723TIP3    H2 8131   4.757   4.037   0.143  0.5401 -0.6661  0.0772
 2724TIP3   OH2 8132   4.227   2.334   2.666 -0.5840  0.0025 -0.4194
 2724TIP3    H1 8133   4.266   2.255   2.629  0.2265  0.7088 -1.1532
 2724TIP3    H2 8134   4.238   2.325   2.760  1.1876  0.0365 -0.5722
 2725TIP3   OH2 8135   4.457   4.586   4.545 -0.0659 -0.7303  0.4801
 2725TIP3    H1 8136   4.399   4.510   4.541 -0.6174 -0.2987  0.0944
 2725TIP3    H2 8137   4.530   4.564   4.487 -0.3339 -0.8791  0.1958
 2726TIP3   OH2 8138   3.205   6.381   4.770  0.0731 -0.0559  0.3180
 2726TIP3    H1 8139   3.196   6.458   4.825  1.8260  0.7864 -0.5157
 2726TIP3    H2 8140   3.226   6.415   4.684 -1.4448 -1.4063 -0.6508
 2727TIP3   OH2 8141   0.681   3.756   1.370 -0.0067  0.0636  0.5064
 2727TIP3    H1 8142   0.596   3.722   1.399 -0.3032  0.2173 -0.1571
 2727TIP3    H2 8143   0.734   3.758   1.449 -0.0360 -1.7787  0.6079
 2728TIP3   OH2 8144   4.499   0.459   2.022  0.0662  0.1231  0.2052
 2728TIP3    H1 8145   4.497   0.418   2.109 -0.0269 -0.3241 -0.0011
 2728TIP3    H2 8146   4.566   0.527   2.029 -1.0499  1.1667  1.0870
 2729TIP3   OH2 8147   4.560   7.109   5.184  0.2393 -0.6608 -0.0908
 2729TIP3    H1 8148   4.533   7.109   5.092  0.3952  1.8106 -0.2115
 2729TIP3    H2 8149   4.655   7.118   5.181  0.1573  0.6246  0.2472
 2730TIP3   OH2 8150   5.451   5.915   3.655 -0.3496 -0.3827  0.8048
 2730TIP3    H1 8151   5.531   5.871   3.624  0.2386  2.1564 -1.7975
 2730TIP3    H2 8152   5.380   5.856   3.630  0.5722 -2.0019  1.8009
 2731TIP3   OH2 8153   2.179   1.040   4.514 -0.0664  0.1311  0.5543
 2731TIP3    H1 8154   2.129   1.121   4.500  0.2813  0.3972  0.8260
 2731TIP3    H2 8155   2.259   1.069   4.556  0.3014 -0.2999  0.1628
 2732TIP3   OH2 8156   6.351   2.134   4.333  0.4828 -0.6536 -0.0849
 2732TIP3    H1 8157   6.272   2.183   4.311  2.0953  0.4421 -4.6713
 2732TIP3    H2 8158   6.320   2.046   4.354 -1.9996 -0.1159 -1.1085
 2733TIP3   OH2 8159   1.084   1.639   1.593 -0.1304 -0.2745  1.0877
 2733TIP3    H1 8160   1.070   1.549   1.565 -0.3883  0.5280 -1.5791
 2733TIP3    H2 8161   1.178   1.654   1.583 -0.6252  1.1242 -3.4250
 2734TIP3   OH2 8162   7.308   2.422   1.716  0.3080 -0.0757 -0.0416
 2734TIP3    H1 8163   7.404   2.417   1.709  0.3495  0.3963  0.1014
 2734TIP3    H2 8164   7.285   2.495   1.658 -0.0431 -0.6897 -0.6788
 2735TIP3   OH2 8165   4.044   3.390   4.987  0.3842  0.1854  0.4506
 2735TIP3    H1 8166   4.095   3.457   5.031 -0.2963  0.4878  0.8034
 2735TIP3    H2 8167   4.086   3.307   5.010 -0.3295  0.2779  2.2165
 2736TIP3   OH2 8168   0.600   3.392   4.995 -0.4219  0.3659 -0.7457
 2736TIP3    H1 8169   0.532   3.441   4.948 -1.6471  1.1317  1.6426
 2736TIP3    H2 8170   0.575   3.300   4.982 -1.8893  0.6309 -0.0067
 2737TIP3   OH2 8171   5.685   4.816   3.145 -0.8849 -0.2079  0.1854
 2737TIP3    H1 8172   5.639   4.756   3.086  0.6299 -0.7562 -0.4751
 2737TIP3    H2 8173   5.721   4.760   3.213 -1.3097  0.2404  0.7950
 2738TIP3   OH2 8174   5.476   5.736   3.217  0.3479  0.0755 -0.2336
 2738TIP3    H1 8175   5.536   5.697   3.281 -0.7450 -0.1746  0.6671
 2738TIP3    H2 8176   5.414   5.785   3.270 -1.6130 -1.5260 -0.9308
 2739TIP3   OH2 8177   5.520   4.988   3.319 -0.5271  0.7357 -0.4166
 2739TIP3    H1 8178   5.442   4.938   3.294 -0.4049  1.0843 -1.5701
 2739TIP3    H2 8179   5.591   4.947   3.270 -0.1597  1.0403 -0.1410
 2740TIP3   OH2 8180   2.832   2.611   1.561 -0.3025 -0.1907  0.5124
 2740TIP3    H1 8181   2.862   2.672   1.494 -1.0965 -0.2436  0.0969
 2740TIP3    H2 8182   2.766   2.557   1.517  1.8407 -2.7858  0.2417
 2741TIP3   OH2 8183   3.035   6.504   2.247 -0.1478  0.2277  0.1022
 2741TIP3    H1 8184   3.124   6.538   2.240 -0.0105 -0.2001 -0.2063
 2741TIP3    H2 8185   2.999   6.510   2.159 -0.3625  0.2172  0.1864
 2742TIP3   OH2 8186   6.153   0.569   5.392  0.0643  0.6404 -0.3965
 2742TIP3    H1 8187   6.070   0.562   5.345  0.0416 -0.4404 -0.2156
 2742TIP3    H2 8188   6.151   0.497   5.455  0.5103  1.4760  0.6078
 2743TIP3   OH2 8189   6.728   3.531   5.897 -0.5474 -0.3152  0.4738
 2743TIP3    H1 8190   6.708   3.470   5.826  1.9286 -0.3780 -0.2367
 2743TIP3    H2 8191   6.648   3.533   5.950 -1.4240 -2.5507 -0.6529
 2744TIP3   OH2 8192   5.032   5.531   5.386 -0.7354 -0.3997  0.2002
 2744TIP3    H1 8193   5.043   5.546   5.480 -1.0353 -1.7701  0.4826
 2744TIP3    H2 8194   4.956   5.473   5.380 -1.3823  0.5314 -0.9809
 2745TIP3   OH2 8195   3.252   6.913   5.348  0.3687 -0.0382 -0.1041
 2745TIP3    H1 8196   3.235   6.896   5.441  1.1146 -1.7548 -0.2603
 2745TIP3    H2 8197   3.165   6.910   5.307  0.0628  0.4886  0.4780
 2746TIP3   OH2 8198   6.031   6.512   1.553  0.4049 -0.1131 -0.3024
 2746TIP3    H1 8199   5.961   6.452   1.579  0.1933  0.8995  1.7327
 2746TIP3    H2 8200   6.066   6.544   1.636  0.1410  2.9826 -1.2603
 2747TIP3   OH2 8201   2.493   5.217   0.805 -0.6648  0.0185 -0.1465
 2747TIP3    H1 8202   2.555   5.153   0.841 -0.0151 -0.3406 -1.7785
 2747TIP3    H2 8203   2.548   5.291   0.778 -0.9672 -0.1181 -1.2121
 2748TIP3   OH2 8204   2.390   1.398   5.215 -0.7858 -0.3406 -0.2996
 2748TIP3    H1 8205   2.482   1.382   5.193 -0.3669  0.9704  0.4001
 2748TIP3    H2 8206   2.341   1.343   5.154  0.4630 -2.0783  0.1695
 2749TIP3   OH2 8207   1.659   3.195   3.589  0.3511  0.3941  0.1719
 2749TIP3    H1 8208   1.742   3.149   3.603  0.5238  0.7642  0.3757
 2749TIP3    H2 8209   1.638   3.180   3.497  0.7739  0.5121  0.0535
 2750TIP3   OH2 8210   5.118   2.861   4.228  0.0846  0.1795 -0.4891
 2750TIP3    H1 8211   5.057   2.935   4.233 -0.5740 -0.4145  0.6190
 2750TIP3    H2 8212   5.061   2.784   4.221  0.7614 -0.2227 -2.1555
 2751TIP3   OH2 8213   5.783   3.711   2.423  0.1772  0.2609 -0.0176
 2751TIP3    H1 8214   5.857   3.661   2.389 -0.7393 -0.1732 -1.4931
 2751TIP3    H2 8215   5.735   3.648   2.477 -0.0795  0.0243 -0.5205
 2752TIP3   OH2 8216   0.027   3.819   2.450  0.2986  0.5557  0.2265
 2752TIP3    H1 8217   0.012   3.908   2.482 -3.1436  0.1459  0.0825
 2752TIP3    H2 8218  -0.003   3.762   2.521 -0.5780 -0.4286 -0.8980
 2753TIP3   OH2 8219   0.804   6.272   4.519  0.0778  0.6486  0.1731
 2753TIP3    H1 8220   0.832   6.319   4.441  0.8298  0.9530  0.6154
 2753TIP3    H2 8221   0.834   6.327   4.592  0.6574 -0.3409  0.6918
 2754TIP3   OH2 8222   7.493   3.560   5.762  0.8109  0.1685 -0.2016
 2754TIP3    H1 8223   7.558   3.497   5.792  2.0184  0.8359 -1.3349
 2754TIP3    H2 8224   7.465   3.528   5.676  0.0941  0.2324 -0.0015
 2755TIP3   OH2 8225   2.845   1.626   1.918  0.0643  0.4959  0.7027
 2755TIP3    H1 8226   2.789   1.619   1.841  0.7120  1.6652  0.0938
 2755TIP3    H2 8227   2.790   1.597   1.991 -0.3870 -1.1204 -0.2524
 2756TIP3   OH2 8228   3.000   2.065   4.474 -0.5265  0.6978 -0.2558
 2756TIP3    H1 8229   2.936   2.122   4.431  1.3338  2.6581 -0.6011
 2756TIP3    H2 8230   3.073   2.123   4.496  1.1945 -1.4402  0.0180
 2757TIP3   OH2 8231   6.821   4.924   5.783 -0.0798 -0.1068 -0.1887
 2757TIP3    H1 8232   6.848   4.990   5.847  1.6835 -1.1200  0.1951
 2757TIP3    H2 8233   6.725   4.928   5.783 -0.0390  1.9519  0.3018
 2758TIP3   OH2 8234   3.439   4.799   4.088 -0.7174 -0.1961 -0.5322
 2758TIP3    H1 8235   3.522   4.845   4.076 -0.6102  0.2706  1.6957
 2758TIP3    H2 8236   3.459   4.708   4.065  0.5819 -0.2123  0.5627
 2759TIP3   OH2 8237   5.396   3.393   2.536  0.2065 -0.7417 -0.2889
 2759TIP3    H1 8238   5.384   3.351   2.621  1.1888 -0.8639 -0.1991
 2759TIP3    H2 8239   5.491   3.394   2.523  0.3180  2.1786  0.0958
 2760TIP3   OH2 8240   1.645   0.254   1.666  0.2650  0.7740  0.5308
 2760TIP3    H1 8241   1.736   0.253   1.636  0.4935 -1.7503  1.0661
 2760TIP3    H2 8242   1.652   0.258   1.761 -0.2775  2.6311  0.5139
 2761TIP3   OH2 8243   6.267   2.192   6.117 -0.1312 -0.0183  0.1007
 2761TIP3    H1 8244   6.322   2.266   6.091  0.8334 -0.0385  1.9454
 2761TIP3    H2 8245   6.184   2.231   6.143  0.5853  0.5370  1.6801
 2762TIP3   OH2 8246   4.470   4.387   0.318 -0.7364 -0.0146 -0.2355
 2762TIP3    H1 8247   4.412   4.433   0.258 -0.1138  0.7150 -0.2864
 2762TIP3    H2 8248   4.421   4.309   0.343 -2.2693  1.1923  0.7009
 2763TIP3   OH2 8249   2.585   5.417   0.064  0.1724 -0.1599  0.0297
 2763TIP3    H1 8250   2.632   5.375  -0.009 -2.0760 -2.2308 -0.3692
 2763TIP3    H2 8251   2.496   5.427   0.031 -0.9961 -1.4167  2.5279
 2764TIP3   OH2 8252   2.902   7.048   3.827  0.1259  0.4432 -0.0787
 2764TIP3    H1 8253   2.834   7.068   3.761 -1.9489 -1.2661  1.4042
 2764TIP3    H2 8254   2.975   7.105   3.804 -0.2728 -0.3631 -4.1465
 2765TIP3   OH2 8255   3.862   4.789   3.317  1.2020 -0.3382 -0.0520
 2765TIP3    H1 8256   3.919   4.857   3.281  0.7105  0.2331  0.2322
 2765TIP3    H2 8257   3.781   4.796   3.267  1.7727 -1.9414 -1.2682
 2766TIP3   OH2 8258   2.227   5.410   3.509  0.4011  0.3603 -0.2565
 2766TIP3    H1 8259   2.144   5.443   3.476 -0.8934 -0.6429  1.7956
 2766TIP3    H2 8260   2.251   5.470   3.579 -0.2527 -1.0664  1.2523
 2767TIP3   OH2 8261   6.541   2.041   5.696  0.2351  0.3291  0.5207
 2767TIP3    H1 8262   6.526   1.952   5.729 -0.2565  1.0825  2.4621
 2767TIP3    H2 8263   6.469   2.056   5.635  0.9529 -0.9692 -0.7205
 2768TIP3   OH2 8264   5.731   2.664   0.465 -0.0933 -0.3688  0.0546
 2768TIP3    H1 8265   5.736   2.705   0.378 -0.2491  1.5064  0.8801
 2768TIP3    H2 8266   5.810   2.610   0.470 -0.5161 -1.2158 -1.5630
 2769TIP3   OH2 8267   3.591   5.706   4.595  0.5657  0.1757  0.0042
 2769TIP3    H1 8268   3.576   5.644   4.667  0.9398  0.1609  0.0753
 2769TIP3    H2 8269   3.550   5.788   4.625 -1.7452 -0.5577 -0.9607
 2770TIP3   OH2 8270   1.326   5.570   0.482  0.3298 -0.1770  0.2821
 2770TIP3    H1 8271   1.338   5.624   0.560  0.7587  0.1200  0.0113
 2770TIP3    H2 8272   1.333   5.631   0.408 -0.6367 -0.3577  0.0171
 2771TIP3   OH2 8273   1.166   4.547   2.254 -0.0311  0.3827 -0.3813
 2771TIP3    H1 8274   1.139   4.455   2.253 -3.4653  1.2787 -0.6583
 2771TIP3    H2 8275   1.095   4.594   2.212  1.0304  3.3384  0.8424
 2772TIP3   OH2 8276   2.606   2.701   1.217 -0.1839 -0.5351  0.4474
 2772TIP3    H1 8277   2.535   2.641   1.194  0.0290 -0.8552  0.6159
 2772TIP3    H2 8278   2.661   2.651   1.277  0.5249 -0.5155 -0.1579
 2773TIP3   OH2 8279   1.957   3.274   3.314  0.3996 -0.2511  0.0690
 2773TIP3    H1 8280   1.996   3.194   3.350 -0.9176 -1.2750 -0.6699
 2773TIP3    H2 8281   1.929   3.249   3.227 -2.3795  0.2253  0.7401
 2774TIP3   OH2 8282   4.284   4.275   0.025  0.0633 -0.2326 -0.7198
 2774TIP3    H1 8283   4.311   4.287   0.116  0.5165 -1.4439 -0.6648
 2774TIP3    H2 8284   4.224   4.201   0.028 -1.6741  1.1050 -1.1404
 2775TIP3   OH2 8285   3.412   5.382   0.742 -0.5616  0.6343  0.4224
 2775TIP3    H1 8286   3.455   5.430   0.671  1.2984 -0.7339  0.5424
 2775TIP3    H2 8287   3.443   5.424   0.822  0.8940 -0.5275  0.5199
 2776TIP3   OH2 8288   5.985   4.864   6.081  0.0973  0.4339  0.9234
 2776TIP3    H1 8289   5.910   4.810   6.055  0.4939  0.4373 -0.3302
 2776TIP3    H2 8290   5.974   4.945   6.030  0.6492  0.6555  1.1529
 2777TIP3   OH2 8291   0.475   0.228   5.848  0.1753 -0.0652 -0.3812
 2777TIP3    H1 8292   0.446   0.256   5.761 -2.1628 -1.2034 -0.0458
 2777TIP3    H2 8293   0.431   0.145   5.863 -0.8096  0.8283  2.5007
 2778TIP3   OH2 8294   0.087   6.258   4.866 -0.2359 -0.1979  0.1443
 2778TIP3    H1 8295   0.116   6.240   4.777 -0.7076  3.0793 -0.8046
 2778TIP3    H2 8296   0.168   6.269   4.916  0.1046  0.7836 -0.5885
 2779TIP3   OH2 8297   0.848   4.238   0.020  0.1407 -0.3134 -0.0335
 2779TIP3    H1 8298   0.882   4.244   0.110 -0.0290 -1.6680  0.1427
 2779TIP3    H2 8299   0.788   4.313   0.012 -0.7721 -0.8507  1.4016
 2780TIP3   OH2 8300   4.744   4.347   1.060 -0.7941  0.5786  0.5899
 2780TIP3    H1 8301   4.664   4.390   1.029 -0.8549  0.5229  0.6690
 2780TIP3    H2 8302   4.811   4.374   0.997 -1.3780 -1.4014 -0.9900
 2781TIP3   OH2 8303   3.397   6.961   2.061  0.5781 -0.7737 -0.0680
 2781TIP3    H1 8304   3.445   7.022   2.116 -0.5797 -0.5534  0.7299
 2781TIP3    H2 8305   3.447   6.957   1.979  1.4219  0.1564  0.3970
 2782TIP3   OH2 8306   7.364   6.967   4.888  0.0796 -0.1025 -0.3253
 2782TIP3    H1 8307   7.448   6.949   4.846  0.8084 -1.8994  1.7255
 2782TIP3    H2 8308   7.302   6.911   4.842  0.7865 -1.7110  0.5638
 2783TIP3   OH2 8309   4.264   5.697   2.293  0.6780 -0.0891  0.5822
 2783TIP3    H1 8310   4.297   5.771   2.242  0.1451 -0.3839 -0.2193
 2783TIP3    H2 8311   4.323   5.625   2.273 -0.9090 -0.8854 -1.6230
 2784TIP3   OH2 8312   4.903   4.446   6.033 -0.3263  0.2293 -0.5977
 2784TIP3    H1 8313   4.931   4.401   5.953 -2.1815 -2.8718  0.3331
 2784TIP3    H2 8314   4.814   4.476   6.014 -0.3731  0.4516 -0.0462
 2785TIP3   OH2 8315   1.587   7.043   2.616 -0.1748 -0.2007  0.0146
 2785TIP3    H1 8316   1.507   7.011   2.574  0.0956 -1.3597  0.3614
 2785TIP3    H2 8317   1.649   7.055   2.544 -0.8361  1.3235 -0.3400
 2786TIP3   OH2 8318   2.739   5.277   0.293  0.4150  0.0653  0.7300
 2786TIP3    H1 8319   2.680   5.353   0.290  1.3013  0.7332 -0.1901
 2786TIP3    H2 8320   2.702   5.216   0.230  0.2730  0.1486  0.7316
 2787TIP3   OH2 8321   6.503   4.968   4.464 -0.4815  0.3439 -0.1411
 2787TIP3    H1 8322   6.572   4.919   4.420 -2.4530 -2.5066 -0.2735
 2787TIP3    H2 8323   6.541   4.990   4.550  0.6603 -0.9514 -0.2887
 2788TIP3   OH2 8324   2.340   3.180   2.034 -0.1760 -0.0805 -0.0761
 2788TIP3    H1 8325   2.280   3.249   2.063  1.1162  1.1662 -0.2657
 2788TIP3    H2 8326   2.342   3.188   1.939  1.1934  0.7187 -0.0103
 2789TIP3   OH2 8327   0.702   2.467   4.394  0.5735 -0.3425 -0.0207
 2789TIP3    H1 8328   0.675   2.443   4.482 -0.5686 -0.7326 -0.4609
 2789TIP3    H2 8329   0.628   2.443   4.338  1.2364 -0.0260 -1.0783
 2790TIP3   OH2 8330   2.621   1.726   0.110 -0.0488 -0.1338 -0.1710
 2790TIP3    H1 8331   2.575   1.805   0.138 -1.4969 -1.0833  0.2526
 2790TIP3    H2 8332   2.713   1.745   0.125 -0.5544  0.3959  2.8260
 2791TIP3   OH2 8333   5.367   5.505   3.338 -0.2208 -0.4165 -0.0568
 2791TIP3    H1 8334   5.295   5.559   3.305  0.2626 -0.5980 -1.4687
 2791TIP3    H2 8335   5.375   5.435   3.274  0.3984 -1.1067  0.7627
 2792TIP3   OH2 8336   4.422   0.221   3.998 -0.1039 -0.2741  0.5838
 2792TIP3    H1 8337   4.462   0.150   3.948 -1.7646 -1.1953  0.5126
 2792TIP3    H2 8338   4.453   0.208   4.087  0.2420 -0.5849  0.4211
 2793TIP3   OH2 8339   1.063   6.495   0.181  0.1934 -0.3953 -0.0947
 2793TIP3    H1 8340   1.010   6.443   0.120  0.2438 -1.9062  1.0978
 2793TIP3    H2 8341   1.004   6.564   0.210 -0.5787 -1.0108 -0.1380
 2794TIP3   OH2 8342   4.296   3.497   2.413 -0.2071  0.8051 -0.2430
 2794TIP3    H1 8343   4.306   3.590   2.392 -0.7330  1.4649  2.1820
 2794TIP3    H2 8344   4.345   3.485   2.495  0.3928 -1.2242 -0.8264
 2795TIP3   OH2 8345   0.595   4.640   3.079 -0.4403 -0.3605  0.5573
 2795TIP3    H1 8346   0.619   4.725   3.043 -1.1159 -0.7573 -0.9661
 2795TIP3    H2 8347   0.668   4.615   3.134  1.3314 -0.2376 -1.5885
 2796TIP3   OH2 8348   2.422   1.394   2.336 -0.5488  0.1168  0.8974
 2796TIP3    H1 8349   2.352   1.440   2.290 -1.3436 -2.4328 -0.6875
 2796TIP3    H2 8350   2.384   1.373   2.422 -1.1523  0.1546  0.6464
 2797TIP3   OH2 8351   0.978   0.842   3.441  0.7609  0.1007 -0.4705
 2797TIP3    H1 8352   0.910   0.850   3.509 -0.0521 -3.4577 -0.6896
 2797TIP3    H2 8353   0.954   0.908   3.376 -0.7990  0.8477  0.7872
 2798TIP3   OH2 8354   7.018   2.172   5.957  0.1614  0.1280 -0.1849
 2798TIP3    H1 8355   6.986   2.260   5.976 -0.9791 -0.4140  0.5045
 2798TIP3    H2 8356   7.036   2.134   6.043 -1.3406 -1.0124 -0.3254
 2799TIP3   OH2 8357   4.938   4.769   0.554  0.3337 -0.0796 -0.2751
 2799TIP3    H1 8358   4.918   4.684   0.515 -1.6407  0.6622 -1.0130
 2799TIP3    H2 8359   5.011   4.802   0.502  2.1030 -1.8586  0.9197
 2800TIP3   OH2 8360   7.496   3.431   0.041  0.6844  0.2129  0.1386
 2800TIP3    H1 8361   7.579   3.441  -0.005  0.3751  0.8216 -0.2938
 2800TIP3    H2 8362   7.502   3.345   0.083  1.8231  0.5556  0.7109
 2801TIP3   OH2 8363   5.886   5.641   5.198  0.2105  0.0419  0.1055
 2801TIP3    H1 8364   5.968   5.619   5.241  0.6226  0.1884 -0.5986
 2801TIP3    H2 8365   5.874   5.734   5.214 -0.3759 -0.1945  1.1298
 2802TIP3   OH2 8366   1.217   6.173   5.836 -0.4527  0.7211  0.9524
 2802TIP3    H1 8367   1.283   6.121   5.791 -0.2978  1.4115  0.3778
 2802TIP3    H2 8368   1.182   6.114   5.903  0.6438  0.3079  1.1816
 2803TIP3   OH2 8369   4.593   1.275   3.016  0.4347 -0.5883  0.5670
 2803TIP3    H1 8370   4.504   1.267   3.048 -0.0625 -0.6078 -0.7646
 2803TIP3    H2 8371   4.645   1.222   3.076 -0.8439 -2.7767 -0.1461
 2804TIP3   OH2 8372   6.986   5.259   1.111  0.6490 -0.3250  0.3161
 2804TIP3    H1 8373   7.047   5.192   1.142 -0.1760 -1.0337  0.4521
 2804TIP3    H2 8374   6.968   5.312   1.188  1.0549 -0.1359  0.2848
 2805TIP3   OH2 8375   1.879   1.288   0.739  0.0030  0.3305 -0.4304
 2805TIP3    H1 8376   1.967   1.303   0.774  0.5671 -0.4638 -1.4548
 2805TIP3    H2 8377   1.856   1.371   0.698  1.0495  0.0086 -1.7444
 2806TIP3   OH2 8378   6.752   7.060   1.428 -0.1975 -0.1130  0.1480
 2806TIP3    H1 8379   6.773   6.968   1.412 -0.1014 -0.1650  0.5513
 2806TIP3    H2 8380   6.837   7.105   1.425 -0.2324 -0.0527  0.0520
 2807TIP3   OH2 8381   7.129   1.853   5.725 -0.1978 -0.4162  0.1742
 2807TIP3    H1 8382   7.169   1.778   5.768  1.3852  0.4888  0.3717
 2807TIP3    H2 8383   7.176   1.929   5.760 -1.3748  0.6296 -0.4179
 2808TIP3   OH2 8384   3.786   5.849   5.108 -0.0524  0.2818  0.0103
 2808TIP3    H1 8385   3.833   5.788   5.051  0.2798  0.0122  0.5733
 2808TIP3    H2 8386   3.693   5.833   5.088 -0.0036 -0.9049  0.6531
 2809TIP3   OH2 8387   1.057   3.229   1.481  0.5663  0.0111  0.2830
 2809TIP3    H1 8388   1.103   3.296   1.431 -1.1592  0.7301 -0.3737
 2809TIP3    H2 8389   1.026   3.167   1.415 -0.2256  0.0417  0.6165
 2810TIP3   OH2 8390   4.727   3.346   0.376  0.0446  0.0830  0.2317
 2810TIP3    H1 8391   4.769   3.406   0.315 -0.8587 -0.7242 -1.2655
 2810TIP3    H2 8392   4.772   3.263   0.363  0.3351  0.0753  1.2327
 2811TIP3   OH2 8393   3.611   4.641   3.864  0.0370  0.3644 -0.2606
 2811TIP3    H1 8394   3.633   4.553   3.896 -0.7813  0.8886  1.9803
 2811TIP3    H2 8395   3.518   4.637   3.844 -0.1715  0.8544  0.5288
 2812TIP3   OH2 8396   5.834   1.083   4.690  0.5622 -0.1061  0.1111
 2812TIP3    H1 8397   5.819   0.998   4.649  0.8072  0.3805 -1.0131
 2812TIP3    H2 8398   5.873   1.137   4.621 -0.5760  1.2504  0.4776
 2813TIP3   OH2 8399   6.941   6.653   2.668 -0.3270 -0.4160 -0.6883
 2813TIP3    H1 8400   7.035   6.637   2.669 -0.3077 -0.6457  1.8900
 2813TIP3    H2 8401   6.933   6.749   2.666  0.0631 -0.3158  1.0210
 2814TIP3   OH2 8402   5.147   0.465   5.379 -0.1165 -0.5846 -0.0641
 2814TIP3    H1 8403   5.146   0.554   5.414  0.1034 -0.1436 -1.1330
 2814TIP3    H2 8404   5.163   0.477   5.285 -1.7410 -1.6460 -0.5223
 2815TIP3   OH2 8405   7.130   1.717   1.261 -0.8857  0.4024 -0.3294
 2815TIP3    H1 8406   7.155   1.739   1.350  1.1724 -0.6543 -0.5752
 2815TIP3    H2 8407   7.203   1.748   1.207  0.5772 -3.6301 -1.0112
 2816TIP3   OH2 8408   0.845   2.965   4.828 -0.8003  0.2506  0.2668
 2816TIP3    H1 8409   0.792   3.002   4.899 -0.0623 -0.6246  1.2985
 2816TIP3    H2 8410   0.912   2.913   4.872 -0.3991 -0.4206 -1.0769
 2817TIP3   OH2 8411   2.538   2.322   4.407  0.2088  0.5770 -0.0087
 2817TIP3    H1 8412   2.528   2.362   4.493  1.3902  0.2440  0.3026
 2817TIP3    H2 8413   2.590   2.243   4.423 -0.4762 -0.0782 -0.8809
 2818TIP3   OH2 8414   1.577   3.518   2.919  0.7617  0.0678 -0.0573
 2818TIP3    H1 8415   1.622   3.453   2.865  0.5728  0.2659 -0.4618
 2818TIP3    H2 8416   1.484   3.509   2.895  0.8661  1.3262 -1.0566
 2819TIP3   OH2 8417   3.673   6.710   0.251  0.7173 -0.6281 -0.1147
 2819TIP3    H1 8418   3.664   6.781   0.316  0.9435 -1.2536  0.6144
 2819TIP3    H2 8419   3.584   6.678   0.238  0.5587  0.0489 -0.7516
 2820TIP3   OH2 8420   0.953   3.390   0.754  0.1799  0.6814  0.6687
 2820TIP3    H1 8421   0.999   3.347   0.682  0.4403  0.2724  1.0779
 2820TIP3    H2 8422   0.889   3.325   0.784  0.0679  0.8536  0.8034
 2821TIP3   OH2 8423   7.385   5.304   0.982 -0.0699  0.6816  0.2468
 2821TIP3    H1 8424   7.367   5.210   0.990 -0.2727  0.7119  0.1522
 2821TIP3    H2 8425   7.434   5.312   0.900  0.9753  0.5146  0.8389
 2822TIP3   OH2 8426   7.059   5.676   5.092  0.0671  0.4139 -0.3567
 2822TIP3    H1 8427   7.119   5.610   5.127 -1.0455 -0.1221  0.6128
 2822TIP3    H2 8428   7.072   5.752   5.150  0.8658  0.8429 -1.0672
 2823TIP3   OH2 8429   0.455   1.965   1.850 -0.8351 -0.2644 -0.2716
 2823TIP3    H1 8430   0.388   1.955   1.917 -0.2503 -1.4412  0.1580
 2823TIP3    H2 8431   0.535   1.930   1.890 -0.2274  0.0228 -1.1911
 2824TIP3   OH2 8432   1.820   5.095   4.209 -0.0038  0.4545  0.2647
 2824TIP3    H1 8433   1.784   5.007   4.216  0.4718  0.2341  0.0098
 2824TIP3    H2 8434   1.889   5.099   4.275  0.2358  0.5040  0.0146
 2825TIP3   OH2 8435   3.515   6.873   0.507  0.2917  0.2036  0.1262
 2825TIP3    H1 8436   3.473   6.949   0.548  2.0599  1.3157 -0.0337
 2825TIP3    H2 8437   3.460   6.852   0.432  0.4530  2.1621 -0.5897
 2826TIP3   OH2 8438   0.406   0.551   2.251  0.5979 -0.2954  0.5446
 2826TIP3    H1 8439   0.481   0.526   2.197 -1.1868  0.4314 -2.5323
 2826TIP3    H2 8440   0.402   0.646   2.245 -1.2749 -0.3904 -0.4823
 2827TIP3   OH2 8441   1.848   4.100   1.039  0.8106  0.0517 -0.2417
 2827TIP3    H1 8442   1.757   4.116   1.013  0.9305  0.3217 -0.5042
 2827TIP3    H2 8443   1.897   4.170   0.996  1.4093 -1.2379 -1.7016
 2828TIP3   OH2 8444   4.831   1.686   1.983  0.2973  0.3915 -0.2376
 2828TIP3    H1 8445   4.757   1.637   2.020 -0.0782  1.1673  0.0509
 2828TIP3    H2 8446   4.894   1.693   2.055  1.0775 -1.0653 -0.7384
 2829TIP3   OH2 8447   4.831   0.366   3.512  0.3943  0.0623 -1.0386
 2829TIP3    H1 8448   4.927   0.371   3.510  0.5555 -2.0955 -1.7499
 2829TIP3    H2 8449   4.810   0.285   3.465 -1.6501 -0.7013  0.9915
 2830TIP3   OH2 8450   4.527   0.981   2.780  0.9070 -0.1000  0.0217
 2830TIP3    H1 8451   4.443   0.960   2.739  1.1695 -0.2766 -0.4380
 2830TIP3    H2 8452   4.531   0.926   2.858  0.0483  0.8097  0.7322
 2831TIP3   OH2 8453   4.310   1.897   5.561 -0.6945 -0.0019  0.0469
 2831TIP3    H1 8454   4.335   1.986   5.583  1.1960 -0.6855  0.9458
 2831TIP3    H2 8455   4.266   1.904   5.477 -1.8843  1.9205  0.7667
 2832TIP3   OH2 8456   6.854   6.976   3.086  0.0280 -0.1310 -0.2089
 2832TIP3    H1 8457   6.810   6.945   3.166  0.0773 -1.0114 -0.5090
 2832TIP3    H2 8458   6.879   6.896   3.041  1.3056  0.3486 -0.3972
 2833TIP3   OH2 8459   4.183   4.877   0.269  0.4934  0.0540 -0.1274
 2833TIP3    H1 8460   4.192   4.840   0.182  0.4743  1.6305 -0.8303
 2833TIP3    H2 8461   4.180   4.801   0.327  2.7615 -1.0149 -1.2632
 2834TIP3   OH2 8462   2.064   6.886   2.211  0.3002 -0.1829 -0.2086
 2834TIP3    H1 8463   2.067   6.800   2.171  1.0686  0.5168 -1.7132
 2834TIP3    H2 8464   2.141   6.890   2.267  1.2191  0.1260 -1.4612
 2835TIP3   OH2 8465   6.180   6.080   4.161  0.4101  0.4788  0.4631
 2835TIP3    H1 8466   6.276   6.086   4.164  0.5859 -1.1886 -0.5917
 2835TIP3    H2 8467   6.152   6.094   4.251  1.7251  0.0384  0.9616
 2836TIP3   OH2 8468   3.665   0.392   3.100 -0.0067  0.6076  0.2373
 2836TIP3    H1 8469   3.720   0.349   3.165  1.6832  1.6182 -0.4496
 2836TIP3    H2 8470   3.583   0.411   3.146  0.2655 -0.7674  1.3520
 2837TIP3   OH2 8471   4.898   0.480   3.791  0.2280  0.1716  0.0468
 2837TIP3    H1 8472   4.876   0.465   3.700  0.8574 -0.4444 -0.0112
 2837TIP3    H2 8473   4.923   0.394   3.825 -0.1568  0.3631  0.8469
 2838TIP3   OH2 8474   7.173   4.151   0.203 -0.1320 -0.0591  0.1207
 2838TIP3    H1 8475   7.100   4.187   0.154 -0.7499 -0.8049  0.4672
 2838TIP3    H2 8476   7.227   4.226   0.226 -0.4486  0.4247 -0.6910
 2839TIP3   OH2 8477   1.182   3.146   0.293 -0.2731  0.0720 -0.6256
 2839TIP3    H1 8478   1.271   3.135   0.326  0.1926  0.7992 -1.5911
 2839TIP3    H2 8479   1.126   3.130   0.369  0.6611 -0.6807 -0.0768
 2840TIP3   OH2 8480   4.360   0.704   3.774  0.4250  0.1777  0.4664
 2840TIP3    H1 8481   4.384   0.618   3.808  0.5907 -0.4511 -1.1423
 2840TIP3    H2 8482   4.442   0.753   3.770  0.2544  0.6459  1.8932
 2841TIP3   OH2 8483   4.082   4.510   5.282  0.7126 -0.5111 -0.6098
 2841TIP3    H1 8484   4.104   4.505   5.375 -0.9529  1.8470  0.0038
 2841TIP3    H2 8485   3.990   4.484   5.278  0.7689 -0.5903 -1.5996
 2842TIP3   OH2 8486   2.102   5.323   2.423 -0.3483 -0.9350 -0.0080
 2842TIP3    H1 8487   2.116   5.231   2.400  0.2031 -0.9394  0.3175
 2842TIP3    H2 8488   2.167   5.371   2.373 -0.7689 -0.6976 -0.3314
 2843TIP3   OH2 8489   3.141   6.206   1.000  0.5333 -0.2544 -0.5416
 2843TIP3    H1 8490   3.052   6.174   1.012  0.0099  1.2114 -0.2522
 2843TIP3    H2 8491   3.141   6.292   1.042  1.8821  0.0758 -1.1721
 2844TIP3   OH2 8492   2.329   4.275   5.807  0.3239  0.3551  0.6597
 2844TIP3    H1 8493   2.265   4.308   5.870  0.0825 -0.3413  0.7867
 2844TIP3    H2 8494   2.279   4.259   5.728  0.7181  1.7273  0.0915
 2845TIP3   OH2 8495   4.966   2.774   5.679  0.1005 -0.1993 -0.0002
 2845TIP3    H1 8496   4.913   2.698   5.704 -1.4369  0.5829 -0.7336
 2845TIP3    H2 8497   4.979   2.822   5.761 -1.1360  0.0729  0.0553
 2846TIP3   OH2 8498   0.714   1.971   3.349 -0.2491 -0.0553  0.1169
 2846TIP3    H1 8499   0.735   1.921   3.270  1.8092  0.2759  0.4019
 2846TIP3    H2 8500   0.675   2.051   3.316  0.3369 -0.0348 -0.5752
 2847TIP3   OH2 8501   6.653   2.173   1.228 -0.0304  0.0395 -0.2736
 2847TIP3    H1 8502   6.733   2.126   1.205  0.2616  0.3526  0.0845
 2847TIP3    H2 8503   6.644   2.241   1.161  1.1028  1.2860  0.7730
 2848TIP3   OH2 8504   3.951   6.638   0.112  0.1355  0.3091  0.3002
 2848TIP3    H1 8505   3.876   6.678   0.066 -0.3605 -1.8942 -0.9672
 2848TIP3    H2 8506   3.971   6.699   0.182 -0.1243  3.0841 -1.8656
 2849TIP3   OH2 8507   1.838   5.477   3.796  0.0636  0.0846  0.2486
 2849TIP3    H1 8508   1.823   5.398   3.744 -1.5980 -0.3224  1.2794
 2849TIP3    H2 8509   1.886   5.535   3.737  1.2843 -1.6478 -0.5547
 2850TIP3   OH2 8510   7.149   6.526   1.464 -0.1093  0.3865  0.5599
 2850TIP3    H1 8511   7.106   6.444   1.439 -0.8622  1.1239 -0.7097
 2850TIP3    H2 8512   7.222   6.535   1.404 -1.8208  2.0869 -1.4137
 2851TIP3   OH2 8513   5.928   5.740   0.172 -0.6378  0.2837  0.4003
 2851TIP3    H1 8514   5.951   5.830   0.195  0.8727 -0.3666  1.5472
 2851TIP3    H2 8515   5.963   5.686   0.243 -1.5162 -1.2281 -0.2502
 2852TIP3   OH2 8516   3.408   0.543   2.896 -0.1155 -0.0227  0.6907
 2852TIP3    H1 8517   3.432   0.558   2.987 -1.3991 -2.1657  1.4577
 2852TIP3    H2 8518   3.312   0.536   2.897 -0.1652  0.0414 -0.8505
 2853TIP3   OH2 8519   2.465   2.346   4.133 -0.2319 -0.6667  0.1619
 2853TIP3    H1 8520   2.511   2.309   4.208 -0.6363 -1.3229  0.0998
 2853TIP3    H2 8521   2.528   2.405   4.092 -0.8179  1.8635  2.5402
 2854TIP3   OH2 8522   0.454   2.128   1.209 -0.1129  0.1237 -0.3718
 2854TIP3    H1 8523   0.413   2.202   1.166 -0.5785 -0.1686 -0.4295
 2854TIP3    H2 8524   0.450   2.150   1.302  2.0034  1.3430 -0.4822
 2855TIP3   OH2 8525   2.312   3.539   5.124 -0.0248 -0.9922  0.0120
 2855TIP3    H1 8526   2.230   3.511   5.083 -1.1467  1.6399  0.2149
 2855TIP3    H2 8527   2.377   3.531   5.055 -1.0141 -0.6998 -0.9979
 2856TIP3   OH2 8528   4.744   6.393   2.051  0.1685 -0.0331 -0.2891
 2856TIP3    H1 8529   4.682   6.321   2.039 -1.9402  1.7936 -1.1007
 2856TIP3    H2 8530   4.812   6.378   1.985 -0.2944 -1.2058 -0.5090
 2857TIP3   OH2 8531   2.356   3.691   3.689 -0.3162 -0.1287 -0.2774
 2857TIP3    H1 8532   2.285   3.685   3.752  0.0612  0.1105  0.1855
 2857TIP3    H2 8533   2.330   3.635   3.617 -1.0482  0.0923 -0.1866
 2858TIP3   OH2 8534   1.696   1.388   3.199 -0.2005  0.4882  0.6586
 2858TIP3    H1 8535   1.639   1.311   3.197 -0.8075  0.8568  2.3265
 2858TIP3    H2 8536   1.767   1.367   3.138 -1.7081 -0.2807 -0.9076
 2859TIP3   OH2 8537   0.044   7.003   2.786  0.7482 -0.4929 -0.4422
 2859TIP3    H1 8538   0.095   7.002   2.867  0.0096 -0.1661  0.0310
 2859TIP3    H2 8539   0.023   7.095   2.772  1.2741 -0.4838 -1.2744
 2860TIP3   OH2 8540   5.013   7.132   1.403 -0.7638 -0.6357  0.1713
 2860TIP3    H1 8541   5.074   7.058   1.410  0.2595  0.0873 -0.8350
 2860TIP3    H2 8542   4.935   7.102   1.450 -0.2977 -2.2710 -0.0143
 2861TIP3   OH2 8543   5.210   2.319   5.128  0.3460 -0.2213  0.8258
 2861TIP3    H1 8544   5.138   2.380   5.112  1.4325  1.0324  0.5301
 2861TIP3    H2 8545   5.174   2.253   5.188 -0.9538  0.5263  0.8874
 2862TIP3   OH2 8546   4.051   3.335   0.401  0.1713  0.6576 -0.2657
 2862TIP3    H1 8547   4.052   3.301   0.490  0.5489  0.1227 -0.4635
 2862TIP3    H2 8548   4.049   3.256   0.346  0.6577  0.9671 -0.7344
 2863TIP3   OH2 8549   1.048   6.400   1.659 -0.2672 -0.0558  0.1752
 2863TIP3    H1 8550   0.958   6.428   1.676 -0.7434 -0.8225 -0.9805
 2863TIP3    H2 8551   1.066   6.335   1.726 -1.0684 -0.8733 -0.3696
 2864TIP3   OH2 8552   6.514   5.581   3.125 -0.0250 -0.0703 -0.4452
 2864TIP3    H1 8553   6.516   5.485   3.123  0.3697 -0.0842  0.3800
 2864TIP3    H2 8554   6.441   5.602   3.183 -1.2218  0.1645 -1.9589
 2865TIP3   OH2 8555   4.653   5.385   3.548  0.1596  0.3476 -0.1574
 2865TIP3    H1 8556   4.583   5.368   3.611  0.2900 -1.1870 -0.3807
 2865TIP3    H2 8557   4.654   5.480   3.537 -0.6737  0.5387  1.2203
 2866TIP3   OH2 8558   6.556   3.324   5.835 -0.0265  0.2401  0.0449
 2866TIP3    H1 8559   6.471   3.357   5.807  1.0473  2.2179 -1.1743
 2866TIP3    H2 8560   6.553   3.328   5.930 -1.4049 -0.0393  0.0281
 2867TIP3   OH2 8561   3.365   5.811   2.526  1.0369  0.0906 -0.3606
 2867TIP3    H1 8562   3.371   5.787   2.434 -0.3374  0.3000 -0.5196
 2867TIP3    H2 8563   3.320   5.895   2.527  0.4315 -0.2285  0.5337
 2868TIP3   OH2 8564   1.044   5.101   6.087 -0.1314 -0.1176 -0.1482
 2868TIP3    H1 8565   1.013   5.039   6.153 -1.1545  1.1990  0.6567
 2868TIP3    H2 8566   1.133   5.072   6.067  0.6901  0.1743  2.7630
 2869TIP3   OH2 8567   3.525   5.511   2.568 -0.7346  0.3030  0.0990
 2869TIP3    H1 8568   3.533   5.417   2.582  1.1761  0.2152 -1.2262
 2869TIP3    H2 8569   3.432   5.526   2.552 -1.3599 -1.0549  2.1222
 2870TIP3   OH2 8570   1.344   6.046   1.451  0.7702 -0.3265  0.0035
 2870TIP3    H1 8571   1.293   6.057   1.532  0.2552  0.1214 -0.3700
 2870TIP3    H2 8572   1.363   5.953   1.447 -0.2075 -0.5474  0.0625
 2871TIP3   OH2 8573   0.240   7.033   0.111 -0.5495 -0.1340 -0.2590
 2871TIP3    H1 8574   0.252   7.002   0.021 -0.1279 -1.4198  0.2135
 2871TIP3    H2 8575   0.233   7.128   0.103 -1.5293 -0.2883 -1.7475
 2872TIP3   OH2 8576   5.822   3.868   0.223  0.5615  0.8815 -0.2811
 2872TIP3    H1 8577   5.916   3.856   0.209  0.6730 -0.2511  1.1739
 2872TIP3    H2 8578   5.795   3.788   0.269 -0.6458  2.1537  1.3267
 2873TIP3   OH2 8579   1.046   2.932   4.325 -0.1358  0.7011  0.5394
 2873TIP3    H1 8580   1.063   2.898   4.413 -1.9996  0.5795  0.8812
 2873TIP3    H2 8581   0.983   3.003   4.338  1.1590  2.1098 -0.5151
 2874TIP3   OH2 8582   1.568   0.635   3.903 -0.4194  0.3030  0.0212
 2874TIP3    H1 8583   1.525   0.610   3.984 -2.2483 -0.8419 -1.2437
 2874TIP3    H2 8584   1.655   0.596   3.909 -0.2703  0.7886  1.6652
 2875TIP3   OH2 8585   2.681   3.815   0.996  0.0266 -0.1975  0.1154
 2875TIP3    H1 8586   2.603   3.809   1.050 -1.4570  0.7962 -1.8149
 2875TIP3    H2 8587   2.691   3.908   0.978 -1.2090 -0.6166 -3.5220
 2876TIP3   OH2 8588   1.176   5.916   0.569  0.2312  0.2196 -0.6089
 2876TIP3    H1 8589   1.139   5.953   0.488  1.4054 -0.7641 -1.6360
 2876TIP3    H2 8590   1.105   5.864   0.606  0.0070 -0.2323 -1.6271
 2877TIP3   OH2 8591   6.515   5.294   5.805  0.1718  0.2901  0.3772
 2877TIP3    H1 8592   6.603   5.262   5.783  0.1354  0.4313  0.0259
 2877TIP3    H2 8593   6.502   5.266   5.896  1.0206  1.2097  0.8065
 2878TIP3   OH2 8594   7.466   3.793   5.513 -0.4954 -0.0531  0.1901
 2878TIP3    H1 8595   7.374   3.794   5.541 -1.2491  0.2299 -2.0946
 2878TIP3    H2 8596   7.472   3.718   5.454  0.9766 -0.5477  0.9194
 2879TIP3   OH2 8597   1.232   5.100   1.196  0.0123  0.7020 -0.1305
 2879TIP3    H1 8598   1.318   5.143   1.201 -0.7089  2.2119 -0.3034
 2879TIP3    H2 8599   1.182   5.136   1.269 -0.3492 -0.4930  0.2283
 2880TIP3   OH2 8600   5.045   0.694   4.440 -0.0431 -0.0225  0.2692
 2880TIP3    H1 8601   5.070   0.602   4.432 -0.3997 -0.1684  0.8252
 2880TIP3    H2 8602   4.996   0.699   4.522 -0.3482  0.5903  0.0542
 2881TIP3   OH2 8603   2.325   1.527   0.111 -0.0640 -0.9031 -0.1373
 2881TIP3    H1 8604   2.384   1.460   0.076  0.0253 -0.7883 -0.2058
 2881TIP3    H2 8605   2.277   1.482   0.180 -1.5116 -1.6700 -1.5592
 2882TIP3   OH2 8606   1.486   1.389   1.688 -0.3314  0.1612 -0.1381
 2882TIP3    H1 8607   1.516   1.315   1.741  0.6932  1.0116  0.5071
 2882TIP3    H2 8608   1.517   1.466   1.735 -0.8915  0.9965 -1.0966
 2883TIP3   OH2 8609   3.424   6.497   5.904  0.0503  0.3110 -0.3255
 2883TIP3    H1 8610   3.385   6.434   5.843  0.6517  0.0464 -0.4482
 2883TIP3    H2 8611   3.456   6.443   5.976  0.4006  0.4975 -0.3402
 2884TIP3   OH2 8612   5.423   5.303   2.112 -0.0489  0.6814 -0.6308
 2884TIP3    H1 8613   5.359   5.231   2.117  1.7093 -0.8852  0.4320
 2884TIP3    H2 8614   5.442   5.325   2.203  1.2114  0.8437 -0.9189
 2885TIP3   OH2 8615   0.793   1.656   4.878 -0.0174  0.3472 -0.2392
 2885TIP3    H1 8616   0.778   1.665   4.972 -0.0445 -2.6916  0.1435
 2885TIP3    H2 8617   0.886   1.677   4.867  0.4109 -0.9164  0.7806
 2886TIP3   OH2 8618   0.080   2.152   2.211 -0.4032  0.0619  0.0734
 2886TIP3    H1 8619   0.011   2.086   2.218  0.2520 -0.6061  0.3255
 2886TIP3    H2 8620   0.034   2.232   2.185 -1.3035 -0.3174  0.4526
 2887TIP3   OH2 8621   5.781   3.148   4.706  0.0855  0.0650  0.2954
 2887TIP3    H1 8622   5.860   3.095   4.703  0.6103  0.8112  0.5170
 2887TIP3    H2 8623   5.776   3.180   4.796 -0.3226  0.2315  0.2198
 2888TIP3   OH2 8624   4.785   4.802   0.236 -0.1593 -0.3974 -0.9657
 2888TIP3    H1 8625   4.870   4.774   0.202  1.4416  1.0312  1.5537
 2888TIP3    H2 8626   4.751   4.726   0.284  0.0264 -0.7252 -1.3488
 2889TIP3   OH2 8627   6.282   1.027   5.578 -0.1370  0.1865  0.8584
 2889TIP3    H1 8628   6.238   1.045   5.495 -1.6668  0.1596  1.6370
 2889TIP3    H2 8629   6.213   1.031   5.644  1.0899  0.4778  2.1811
 2890TIP3   OH2 8630   2.292   1.180   2.891 -0.2428  0.0766  0.1010
 2890TIP3    H1 8631   2.353   1.207   2.960 -1.0446 -0.6712  1.1338
 2890TIP3    H2 8632   2.258   1.263   2.856  0.2315  0.4711  0.5543
 2891TIP3   OH2 8633   1.755   0.479   2.996 -0.0289  0.1628 -0.2609
 2891TIP3    H1 8634   1.827   0.484   3.059  1.5858  0.5115 -2.0535
 2891TIP3    H2 8635   1.785   0.417   2.930 -1.0205  0.9523 -1.4925
 2892TIP3   OH2 8636   6.012   2.975   5.435 -0.3218  0.4348  0.2600
 2892TIP3    H1 8637   6.036   2.961   5.526 -0.4569 -0.0639  0.2205
 2892TIP3    H2 8638   5.953   2.902   5.414 -2.4833  2.0057  0.5697
 2893TIP3   OH2 8639   6.921   5.214   0.217  0.3029  0.1733  0.1103
 2893TIP3    H1 8640   6.908   5.222   0.312  1.0560 -0.8198  0.3142
 2893TIP3    H2 8641   6.846   5.260   0.179  0.0669  0.7170  1.1828
 2894TIP3   OH2 8642   4.636   2.672   3.331  0.0192  0.5440  0.1316
 2894TIP3    H1 8643   4.633   2.660   3.236  0.4451 -0.5382  0.2455
 2894TIP3    H2 8644   4.729   2.686   3.350 -0.3017  3.2893  0.1288
 2895TIP3   OH2 8645   7.376   3.149   3.827 -0.4439 -0.1401 -0.2302
 2895TIP3    H1 8646   7.364   3.244   3.818 -0.0763 -0.0583  0.1156
 2895TIP3    H2 8647   7.314   3.111   3.765 -0.2445  0.3416 -0.7409
 2896TIP3   OH2 8648   0.299   5.036   2.009 -0.3603 -0.1104  0.1143
 2896TIP3    H1 8649   0.363   5.086   2.059 -1.4326  0.1415  1.2707
 2896TIP3    H2 8650   0.239   5.000   2.074 -1.4509 -0.2747 -0.9339
 2897TIP3   OH2 8651   1.275   1.394   4.432 -0.2682 -0.0930 -0.3668
 2897TIP3    H1 8652   1.283   1.347   4.514 -0.4158 -2.1784 -1.4954
 2897TIP3    H2 8653   1.339   1.354   4.374 -1.8943 -0.4262 -2.0399
 2898TIP3   OH2 8654   7.013   3.300   5.190  0.3045 -0.2563 -0.2717
 2898TIP3    H1 8655   6.952   3.369   5.215 -1.0915 -1.1814 -0.9721
 2898TIP3    H2 8656   7.002   3.233   5.258  0.7005 -0.3295 -0.2812
 2899TIP3   OH2 8657   2.521   0.199   2.474 -0.6069  0.2006  0.0104
 2899TIP3    H1 8658   2.443   0.226   2.426  0.1116  0.7707 -0.8743
 2899TIP3    H2 8659   2.517   0.103   2.476 -1.2726  0.2261 -0.1271
 2900TIP3   OH2 8660   3.704   4.121   5.057  0.0011 -0.4502 -0.3589
 2900TIP3    H1 8661   3.754   4.149   5.134 -0.0983  0.5180 -0.6396
 2900TIP3    H2 8662   3.695   4.026   5.069  2.0798 -0.7036 -0.4258
 2901TIP3   OH2 8663   1.989   5.821   2.487  0.0579 -0.4564  0.4397
 2901TIP3    H1 8664   2.076   5.790   2.464  0.6676  1.7428 -0.4408
 2901TIP3    H2 8665   2.003   5.879   2.562 -0.7554 -0.6809  0.7802
 2902TIP3   OH2 8666   3.696   6.377   5.132  0.0492 -0.3051 -0.2166
 2902TIP3    H1 8667   3.663   6.467   5.133 -1.0834 -0.6687 -1.4416
 2902TIP3    H2 8668   3.716   6.358   5.224  0.4619  1.2269  0.0473
 2903TIP3   OH2 8669   2.018   0.063   1.135 -0.1074  0.2148  0.0916
 2903TIP3    H1 8670   2.100   0.025   1.168  0.2514  0.7340 -0.1942
 2903TIP3    H2 8671   2.030   0.066   1.040 -1.9880 -3.3217 -0.4327
 2904TIP3   OH2 8672   1.606   3.866   1.356  0.3294 -0.3899 -0.1546
 2904TIP3    H1 8673   1.660   3.791   1.329 -0.1791  0.0714 -2.6940
 2904TIP3    H2 8674   1.668   3.939   1.362  1.0650 -1.0648  3.5266
 2905TIP3   OH2 8675   4.341   5.544   1.282  0.3418  0.0097  0.0986
 2905TIP3    H1 8676   4.428   5.521   1.249  0.1714 -0.7263  0.1456
 2905TIP3    H2 8677   4.286   5.547   1.204  0.0710 -1.1236  0.2299
 2906TIP3   OH2 8678   5.960   6.186   4.644  0.0094 -0.4200  0.1134
 2906TIP3    H1 8679   5.940   6.131   4.720  1.6852  0.6950  1.4291
 2906TIP3    H2 8680   5.874   6.202   4.604 -1.0408 -0.4330  2.2028
 2907TIP3   OH2 8681   7.503   6.146   0.547 -0.1645  0.0112  0.2854
 2907TIP3    H1 8682   7.462   6.066   0.578  0.8063 -0.9902 -0.9142
 2907TIP3    H2 8683   7.521   6.131   0.454  3.1495  0.2085  0.7597
 2908TIP3   OH2 8684   1.896   5.194   0.174 -0.3785 -0.2385 -0.2566
 2908TIP3    H1 8685   1.962   5.128   0.197 -0.1016 -0.0876 -0.5971
 2908TIP3    H2 8686   1.830   5.188   0.243 -0.1498 -0.5898 -0.0657
 2909TIP3   OH2 8687   5.000   0.478   0.509  0.0487  0.0028 -0.0164
 2909TIP3    H1 8688   5.093   0.495   0.524  0.2000 -0.0691 -0.8057
 2909TIP3    H2 8689   4.977   0.534   0.434 -0.7879  0.7581  0.7757
 2910TIP3   OH2 8690   6.588   0.622   5.995  0.1202 -0.1178 -0.0685
 2910TIP3    H1 8691   6.570   0.704   6.040 -2.1660 -0.0342 -0.9991
 2910TIP3    H2 8692   6.525   0.560   6.032  1.0003 -1.1479 -0.2412
 2911TIP3   OH2 8693   7.100   7.137   4.395  0.7160  0.2598  0.0586
 2911TIP3    H1 8694   7.146   7.108   4.316 -0.0447 -2.3123  0.4704
 2911TIP3    H2 8695   7.125   7.073   4.462 -2.2218 -0.3757  0.6826
 2912TIP3   OH2 8696   5.980   6.229   0.195 -0.1682  0.7309  0.1028
 2912TIP3    H1 8697   6.056   6.287   0.198 -1.8700  3.0404  0.9803
 2912TIP3    H2 8698   5.976   6.189   0.282 -0.6703  1.6370  0.5123
 2913TIP3   OH2 8699   1.759   5.187   3.936 -0.3302 -0.0305 -0.3132
 2913TIP3    H1 8700   1.746   5.281   3.922 -0.4791  0.0156  0.1257
 2913TIP3    H2 8701   1.786   5.180   4.028 -1.1041 -0.4916 -0.1163
 2914TIP3   OH2 8702   1.689   1.505   0.639 -0.2074  0.0815 -0.4977
 2914TIP3    H1 8703   1.685   1.548   0.725 -0.2357  0.5546 -0.7322
 2914TIP3    H2 8704   1.600   1.513   0.604 -0.1040  0.2192 -0.7303
 2915TIP3   OH2 8705   4.815   1.094   2.834  0.2067 -0.2902 -0.0113
 2915TIP3    H1 8706   4.755   1.021   2.849  1.2894 -1.2804 -0.3484
 2915TIP3    H2 8707   4.760   1.163   2.798 -0.8612 -0.9124  0.3891
 2916TIP3   OH2 8708   0.352   6.102   0.136 -0.2723  0.1098 -0.0392
 2916TIP3    H1 8709   0.382   6.074   0.049  0.2711  0.8582 -0.1004
 2916TIP3    H2 8710   0.288   6.036   0.161 -0.4374 -0.1211 -1.0150
 2917TIP3   OH2 8711   0.105   1.003   0.414  0.3128 -0.5631 -0.3739
 2917TIP3    H1 8712   0.082   1.036   0.501  2.5258  1.0097 -0.2933
 2917TIP3    H2 8713   0.125   0.910   0.429 -0.3090 -0.5575  0.5768
 2918TIP3   OH2 8714   2.271   4.485   2.294 -0.5629  0.0119  0.5460
 2918TIP3    H1 8715   2.179   4.509   2.285 -0.0657  2.2003  0.7338
 2918TIP3    H2 8716   2.315   4.532   2.223  0.4508 -0.7183  0.6773
 2919TIP3   OH2 8717   7.556   1.149   0.221 -0.2165 -0.0350 -0.0788
 2919TIP3    H1 8718   7.530   1.169   0.311  0.9806  0.1054  0.2476
 2919TIP3    H2 8719   7.585   1.059   0.224  1.5479  0.5088  0.0890
 2920TIP3   OH2 8720   3.258   0.575   5.582  0.2932  0.2888  0.2246
 2920TIP3    H1 8721   3.243   0.483   5.602 -0.6522  0.0541 -1.3623
 2920TIP3    H2 8722   3.333   0.575   5.524 -0.3020  0.3986 -0.5650
 2921TIP3   OH2 8723   0.251   4.262   5.757 -0.4042 -0.3233  0.2697
 2921TIP3    H1 8724   0.206   4.202   5.698  1.6592 -1.8020  0.1057
 2921TIP3    H2 8725   0.294   4.325   5.699 -1.5572  0.6120  0.3957
 2922TIP3   OH2 8726   3.201   3.101   3.809 -0.5632  0.2892  0.2777
 2922TIP3    H1 8727   3.199   3.103   3.713 -0.5089 -2.7471  0.1110
 2922TIP3    H2 8728   3.129   3.158   3.835 -2.4387 -0.9877 -1.7017
 2923TIP3   OH2 8729   3.493   2.796   5.869 -0.5987 -0.8160 -0.2856
 2923TIP3    H1 8730   3.541   2.864   5.821  0.2190 -0.4455  1.0197
 2923TIP3    H2 8731   3.401   2.819   5.856 -0.3431  0.7035  0.3081
 2924TIP3   OH2 8732   2.310   3.197   1.748  0.6514  0.0190 -0.1253
 2924TIP3    H1 8733   2.380   3.170   1.689  1.8629  0.2211  1.1795
 2924TIP3    H2 8734   2.322   3.292   1.758  1.4479 -0.2331  1.6375
 2925TIP3   OH2 8735   1.883   0.297   0.777 -0.2211  0.0169  0.0672
 2925TIP3    H1 8736   1.830   0.334   0.847  0.0995  0.8478 -0.1097
 2925TIP3    H2 8737   1.820   0.275   0.708 -0.5264 -0.7309  0.5769
 2926TIP3   OH2 8738   2.957   3.907   5.894 -0.1422  0.2955 -0.4520
 2926TIP3    H1 8739   3.049   3.930   5.907 -0.0083 -0.9689  1.2696
 2926TIP3    H2 8740   2.944   3.829   5.948 -2.2078  0.3773 -0.7407
 2927TIP3   OH2 8741   7.167   1.164   3.590 -0.3684 -0.4006  0.4049
 2927TIP3    H1 8742   7.191   1.225   3.520 -1.1571 -1.2671 -0.6577
 2927TIP3    H2 8743   7.161   1.219   3.669  0.6736  0.5708 -0.1586
 2928TIP3   OH2 8744   1.467   0.582   2.493  1.2399  0.3509  0.4924
 2928TIP3    H1 8745   1.518   0.592   2.413  2.3144  2.2858  1.3395
 2928TIP3    H2 8746   1.449   0.671   2.521  0.5047 -0.2806  2.1587
 2929TIP3   OH2 8747   4.912   2.109   0.882 -0.1721  0.4402 -0.0997
 2929TIP3    H1 8748   4.863   2.188   0.906 -0.6863  0.3166 -0.7345
 2929TIP3    H2 8749   4.864   2.072   0.809  0.3377 -0.2099 -0.1131
 2930TIP3   OH2 8750   2.831   4.306   1.853  0.1549  0.2170 -0.5883
 2930TIP3    H1 8751   2.767   4.331   1.920  0.2288  1.9326 -1.1155
 2930TIP3    H2 8752   2.810   4.215   1.832 -0.0114 -0.3053  1.5913
 2931TIP3   OH2 8753   1.270   6.197   0.063  0.3875  0.2830  0.0616
 2931TIP3    H1 8754   1.308   6.282   0.041 -0.6443  0.0493 -3.1580
 2931TIP3    H2 8755   1.180   6.216   0.088  0.0875  0.1387 -0.8887
 2932TIP3   OH2 8756   2.318   3.742   1.685  0.1805  0.0918  0.2746
 2932TIP3    H1 8757   2.228   3.708   1.689  0.8649 -1.7369  1.4134
 2932TIP3    H2 8758   2.326   3.778   1.597 -2.0176  1.3700  0.5265
 2933TIP3   OH2 8759   7.341   1.626   2.188 -0.2592 -0.0991  0.2649
 2933TIP3    H1 8760   7.329   1.717   2.159  0.8037  0.1259  0.4966
 2933TIP3    H2 8761   7.253   1.589   2.186 -0.9309  1.3028  1.3902
 2934TIP3   OH2 8762   1.335   5.633   4.032 -0.2813 -0.5534  0.3373
 2934TIP3    H1 8763   1.320   5.576   4.107  0.0307 -2.8982 -1.2902
 2934TIP3    H2 8764   1.430   5.641   4.027 -0.3281  0.9937  1.1046
 2935TIP3   OH2 8765   5.985   1.438   4.930  0.3215 -0.5067 -0.0310
 2935TIP3    H1 8766   5.959   1.348   4.909  0.4727 -0.3855 -0.7474
 2935TIP3    H2 8767   6.075   1.445   4.899  0.0215  0.1575 -0.7862
 2936TIP3   OH2 8768   2.277   4.880   5.885  0.3791  0.7142  0.1223
 2936TIP3    H1 8769   2.351   4.932   5.853  1.5584 -0.0819  1.4371
 2936TIP3    H2 8770   2.258   4.819   5.813  2.4450 -0.4987  0.5099
 2937TIP3   OH2 8771   4.381   4.790   3.073  0.5177  0.0022  0.2186
 2937TIP3    H1 8772   4.439   4.748   3.009  2.7327  1.6247  1.0645
 2937TIP3    H2 8773   4.362   4.876   3.036  2.7875  1.4436  2.1507
 2938TIP3   OH2 8774   6.920   4.701   4.704 -0.0857 -0.3158  0.4985
 2938TIP3    H1 8775   6.963   4.623   4.670  1.0373  0.1774  0.7367
 2938TIP3    H2 8776   6.854   4.668   4.766  0.0078 -1.0798  0.1968
 2939TIP3   OH2 8777   0.236   2.242   0.947 -0.0735 -0.2256 -0.0324
 2939TIP3    H1 8778   0.244   2.304   1.020 -1.3119  2.5565 -2.0610
 2939TIP3    H2 8779   0.158   2.271   0.900  1.2440 -1.1642 -3.0429
 2940TIP3   OH2 8780   3.689   1.100   3.446 -0.1610  0.1737  0.2703
 2940TIP3    H1 8781   3.756   1.138   3.390 -1.2064  2.9215  0.7308
 2940TIP3    H2 8782   3.731   1.093   3.532 -0.0646  0.6962  0.2693
 2941TIP3   OH2 8783   7.558   3.025   0.504  0.1397  0.2225 -0.0532
 2941TIP3    H1 8784   7.577   3.096   0.442  1.0874  0.3213  0.3335
 2941TIP3    H2 8785   7.490   2.974   0.462 -0.8897  1.6121 -0.1589
 2942TIP3   OH2 8786   4.651   4.891   5.320 -0.0853  0.7600  0.4113
 2942TIP3    H1 8787   4.737   4.867   5.285 -0.4426  0.6286 -0.4105
 2942TIP3    H2 8788   4.602   4.922   5.243 -0.9344  0.3662  0.7791
 2943TIP3   OH2 8789   4.367   7.096   3.557 -0.0482 -0.0997  0.4575
 2943TIP3    H1 8790   4.440   7.094   3.495  0.6134 -1.5354  1.2296
 2943TIP3    H2 8791   4.372   7.183   3.597 -0.2275  0.6868 -1.1748
 2944TIP3   OH2 8792   5.080   0.639   2.550  0.1971 -0.2208 -0.0033
 2944TIP3    H1 8793   5.170   0.605   2.539  0.7148  0.7297  1.0935
 2944TIP3    H2 8794   5.092   0.733   2.565 -0.9884 -0.0834  0.1099
 2945TIP3   OH2 8795   5.449   4.743   2.884  0.1222 -0.5193 -0.4383
 2945TIP3    H1 8796   5.402   4.748   2.967 -1.1954  0.3253 -1.2131
 2945TIP3    H2 8797   5.513   4.815   2.888 -1.6938  1.2245 -1.1705
 2946TIP3   OH2 8798   3.038   2.464   2.983  0.3486 -0.2302 -0.0359
 2946TIP3    H1 8799   2.951   2.448   3.020 -0.4116  0.5258 -1.3902
 2946TIP3    H2 8800   3.021   2.480   2.890  1.9812 -0.3556 -0.3821
 2947TIP3   OH2 8801   3.087   6.566   5.131  0.0141 -0.2050  0.1201
 2947TIP3    H1 8802   3.054   6.533   5.047  0.7690 -0.7873  0.0465
 2947TIP3    H2 8803   3.087   6.490   5.189 -1.5711  0.4169  1.0121
 2948TIP3   OH2 8804   6.864   1.468   1.113 -0.5405  0.5994  0.1584
 2948TIP3    H1 8805   6.950   1.435   1.138  0.0724  1.2421 -0.9927
 2948TIP3    H2 8806   6.809   1.455   1.190  1.0529  1.8734  1.5791
 2949TIP3   OH2 8807   2.790   3.462   5.007 -0.4200 -0.0025 -0.2280
 2949TIP3    H1 8808   2.848   3.411   5.064 -0.6654  0.3066  0.2978
 2949TIP3    H2 8809   2.796   3.417   4.922  0.1402 -0.3149 -0.0317
 2950TIP3   OH2 8810   7.337   4.919   2.667  0.5343  0.0982  0.3663
 2950TIP3    H1 8811   7.271   4.949   2.729 -1.2758 -1.5288 -0.6579
 2950TIP3    H2 8812   7.298   4.934   2.581  0.0633 -3.5979 -0.2452
 2951TIP3   OH2 8813   1.838   6.369   0.199 -0.2040 -0.5511  0.3597
 2951TIP3    H1 8814   1.845   6.441   0.138  0.2406 -0.3006  0.6999
 2951TIP3    H2 8815   1.802   6.297   0.148  1.0987 -0.6514 -0.4485
 2952TIP3   OH2 8816   6.020   4.092   4.184 -0.4360 -0.3752 -0.2110
 2952TIP3    H1 8817   6.079   4.021   4.158 -0.8382 -1.3399  1.3511
 2952TIP3    H2 8818   6.065   4.134   4.258 -0.7829  0.1884 -0.3145
 2953TIP3   OH2 8819   4.098   6.371   2.719  0.7399  0.2477 -0.2464
 2953TIP3    H1 8820   4.138   6.291   2.686 -0.4588 -1.1715  1.4773
 2953TIP3    H2 8821   4.037   6.398   2.650  0.3159 -1.0298 -0.4027
 2954TIP3   OH2 8822   4.534   4.222   2.339 -0.0882 -0.0175  0.2370
 2954TIP3    H1 8823   4.542   4.231   2.433  0.8407 -0.6740  0.2375
 2954TIP3    H2 8824   4.606   4.164   2.314  0.7922  1.5662 -1.1148
 2955TIP3   OH2 8825   1.543   6.600   1.266  0.2117 -0.2230 -0.2240
 2955TIP3    H1 8826   1.540   6.576   1.173  1.2931 -1.0753 -0.0564
 2955TIP3    H2 8827   1.619   6.658   1.273 -0.5574  0.7971 -0.0611
 2956TIP3   OH2 8828   5.108   5.165   6.090  0.0317  0.2819  0.1057
 2956TIP3    H1 8829   5.116   5.222   6.167  2.5056 -0.0420  0.1758
 2956TIP3    H2 8830   5.116   5.076   6.125 -1.7291 -0.0532 -0.2465
 2957TIP3   OH2 8831   4.130   4.488   5.968  0.2016 -0.9659 -0.2232
 2957TIP3    H1 8832   4.059   4.496   5.904  0.1284 -0.0524 -0.0414
 2957TIP3    H2 8833   4.166   4.576   5.975  2.0809 -1.6142 -1.1117
 2958TIP3   OH2 8834   2.597   3.870   6.167  0.3806 -0.3195 -0.0259
 2958TIP3    H1 8835   2.508   3.876   6.202  0.4135  0.2982 -0.0278
 2958TIP3    H2 8836   2.591   3.805   6.097  0.3832 -1.8203  1.3084
 2959TIP3   OH2 8837   5.114   1.392   2.587  0.1216 -0.4024  0.2141
 2959TIP3    H1 8838   5.091   1.389   2.680  1.1922  1.0180  0.5603
 2959TIP3    H2 8839   5.032   1.410   2.542 -0.0999  0.9006  1.0834
 2960TIP3   OH2 8840   2.807   6.069   3.848 -0.4158  0.0352  0.7797
 2960TIP3    H1 8841   2.850   6.003   3.902 -0.3545 -0.2110  0.4361
 2960TIP3    H2 8842   2.856   6.150   3.866  1.1240 -0.5168 -0.6433
 2961TIP3   OH2 8843   3.973   3.762   2.365 -0.0912 -0.7457  0.4333
 2961TIP3    H1 8844   3.992   3.679   2.321 -0.9237 -1.0727  0.6861
 2961TIP3    H2 8845   4.005   3.749   2.454  0.9487 -0.3313  0.1370
 2962TIP3   OH2 8846   5.450   3.747   0.997 -0.0892  0.2818 -0.9269
 2962TIP3    H1 8847   5.406   3.715   1.076 -0.5661  1.7921 -0.5402
 2962TIP3    H2 8848   5.417   3.691   0.927 -0.9676 -0.0048 -0.3029
 2963TIP3   OH2 8849   4.508   4.195   4.852 -0.2206  0.3860  0.3298
 2963TIP3    H1 8850   4.438   4.136   4.823 -0.7400  1.1747 -0.0335
 2963TIP3    H2 8851   4.523   4.253   4.778  2.5841 -1.3246 -0.5959
 2964TIP3   OH2 8852   6.971   1.013   3.403  0.1412  0.2921  0.0932
 2964TIP3    H1 8853   7.007   1.009   3.491  0.7317 -1.2396 -0.1821
 2964TIP3    H2 8854   7.040   1.053   3.350  0.8159 -1.0916 -0.1172
 2965TIP3   OH2 8855   0.287   2.865   5.224  0.3381  0.6987 -0.0957
 2965TIP3    H1 8856   0.361   2.852   5.284  0.2671 -2.3117 -0.5135
 2965TIP3    H2 8857   0.285   2.959   5.208  2.3600  1.1927  2.0832
 2966TIP3   OH2 8858   5.640   2.887   5.831  0.2140  0.2486  0.0253
 2966TIP3    H1 8859   5.656   2.939   5.910  0.0550  0.2045  0.0859
 2966TIP3    H2 8860   5.560   2.839   5.850 -0.2242  0.7815 -0.4363
 2967TIP3   OH2 8861   4.115   6.774   5.757  0.6999 -0.1243 -0.4622
 2967TIP3    H1 8862   4.126   6.834   5.830 -2.7194  0.8100 -0.5440
 2967TIP3    H2 8863   4.160   6.816   5.684  0.7893  0.9295  0.1792
 2968TIP3   OH2 8864   0.678   5.561   0.826  0.1679  0.0255  0.5713
 2968TIP3    H1 8865   0.651   5.540   0.737 -1.6737 -1.6510  1.4702
 2968TIP3    H2 8866   0.774   5.567   0.821  0.0250  2.0494 -1.8851
 2969TIP3   OH2 8867   2.030   0.109   5.754  0.0412 -0.2925  0.0312
 2969TIP3    H1 8868   1.935   0.101   5.746  0.1769 -1.6545 -0.4480
 2969TIP3    H2 8869   2.042   0.176   5.822 -1.2138  1.9522 -1.7912
 2970TIP3   OH2 8870   7.520   6.454   2.297 -0.3756  0.2015  1.0220
 2970TIP3    H1 8871   7.608   6.452   2.334 -1.2474  0.0194  3.3051
 2970TIP3    H2 8872   7.469   6.397   2.355 -1.7963 -0.5405 -0.8494
 2971TIP3   OH2 8873   1.671   5.963   2.016  0.1470 -0.0351 -0.3017
 2971TIP3    H1 8874   1.763   5.936   2.013  0.1326 -0.6011  1.9965
 2971TIP3    H2 8875   1.672   6.042   2.070 -0.6489  0.3202 -0.8055
 2972TIP3   OH2 8876   3.400   6.611   0.268 -0.5613  0.7564 -0.4231
 2972TIP3    H1 8877   3.306   6.607   0.250 -0.2778 -0.0775 -1.8910
 2972TIP3    H2 8878   3.410   6.568   0.353 -1.2778 -1.4523 -1.3787
 2973TIP3   OH2 8879   0.102   1.257   0.757 -0.4820  0.0991 -0.3710
 2973TIP3    H1 8880   0.039   1.306   0.810 -0.3763 -0.6025  0.4170
 2973TIP3    H2 8881   0.082   1.165   0.774 -0.5771 -0.1466 -1.7239
 2974TIP3   OH2 8882   4.625   6.126   1.087  0.0188 -0.4404 -0.1278
 2974TIP3    H1 8883   4.639   6.217   1.060  1.2663 -0.9597 -1.3699
 2974TIP3    H2 8884   4.613   6.078   1.005  0.4625 -1.5512  0.4289
 2975TIP3   OH2 8885   6.901   5.071   3.041 -0.3528 -0.7923  0.2734
 2975TIP3    H1 8886   6.882   4.992   2.991 -2.3155  0.8701 -1.8483
 2975TIP3    H2 8887   6.933   5.133   2.976 -0.9083  0.8058  1.4633
 2976TIP3   OH2 8888   6.217   4.636   5.808  0.1865 -0.1985  0.8342
 2976TIP3    H1 8889   6.250   4.546   5.805  1.7968  0.3553  1.3455
 2976TIP3    H2 8890   6.192   4.649   5.899 -2.1423 -0.7996  0.3620
 2977TIP3   OH2 8891   2.605   3.803   3.279 -0.1722  0.2744 -0.8077
 2977TIP3    H1 8892   2.620   3.874   3.341 -0.2107 -0.7303  0.3786
 2977TIP3    H2 8893   2.651   3.728   3.316 -2.3552 -1.0552 -0.5832
 2978TIP3   OH2 8894   7.370   1.871   4.642 -0.0369 -0.3346 -0.3994
 2978TIP3    H1 8895   7.344   1.929   4.714  0.2147 -0.7089  0.0022
 2978TIP3    H2 8896   7.399   1.930   4.573 -2.4903  0.1408 -1.1141
 2979TIP3   OH2 8897   2.648   5.407   3.989  0.0886 -0.0731  1.2477
 2979TIP3    H1 8898   2.622   5.329   4.038 -1.5814 -0.6606 -0.4566
 2979TIP3    H2 8899   2.580   5.471   4.007  0.3180  0.2619  0.9495
 2980TIP3   OH2 8900   2.173   6.211   4.693 -0.3306 -0.2767 -0.1625
 2980TIP3    H1 8901   2.190   6.192   4.785  0.4688 -0.3231 -0.3112
 2980TIP3    H2 8902   2.187   6.306   4.685 -0.6961 -0.2230 -0.1731
 2981TIP3   OH2 8903   2.130   3.383   2.783  0.2008 -0.2111  0.2662
 2981TIP3    H1 8904   2.096   3.456   2.834  1.6242  0.4761  0.2972
 2981TIP3    H2 8905   2.052   3.337   2.751 -0.8174  2.2443 -1.1018
 2982TIP3   OH2 8906   4.064   3.542   2.254 -0.8429  0.1610  0.2012
 2982TIP3    H1 8907   4.028   3.480   2.190 -1.2288 -0.6191  1.1610
 2982TIP3    H2 8908   4.145   3.501   2.284 -0.5246  0.6535  0.0208
 2983TIP3   OH2 8909   1.935   2.692   5.725  0.1989 -0.9674  0.8104
 2983TIP3    H1 8910   1.974   2.775   5.699 -0.8433  0.4898  3.4236
 2983TIP3    H2 8911   1.858   2.683   5.668  0.1496  0.0384  0.6919
 2984TIP3   OH2 8912   6.773   5.744   3.698  0.3975  0.0374  0.2422
 2984TIP3    H1 8913   6.852   5.785   3.734  1.3668 -1.5404 -0.0267
 2984TIP3    H2 8914   6.748   5.678   3.762 -0.6181  0.3740  0.2235
 2985TIP3   OH2 8915   0.041   0.066   4.979  0.3292  0.0055 -0.9803
 2985TIP3    H1 8916   0.051  -0.008   5.039  1.3834  0.4871 -0.5355
 2985TIP3    H2 8917   0.014   0.026   4.896 -0.7272 -0.7050 -0.3069
 2986TIP3   OH2 8918   7.078   4.920   1.095  0.2382 -0.0666 -0.0324
 2986TIP3    H1 8919   7.042   4.922   1.184 -0.3192  0.7454 -0.2593
 2986TIP3    H2 8920   7.010   4.878   1.043  0.3788 -0.1429 -0.1540
 2987TIP3   OH2 8921   6.822   1.267   1.960 -0.0115 -0.3882 -0.0530
 2987TIP3    H1 8922   6.761   1.335   1.931  0.4394 -0.6370 -1.7476
 2987TIP3    H2 8923   6.909   1.307   1.950  0.1540  0.1072  2.7175
 2988TIP3   OH2 8924   3.820   5.272   2.586  0.0466  0.3922 -0.1473
 2988TIP3    H1 8925   3.839   5.316   2.668  0.3049 -1.9306  1.1183
 2988TIP3    H2 8926   3.727   5.289   2.570  0.7886  4.1484 -1.5684
 2989TIP3   OH2 8927   1.138   7.091   0.095 -0.0562 -0.3455 -0.0882
 2989TIP3    H1 8928   1.169   7.022   0.154 -0.6467 -0.9023 -0.4141
 2989TIP3    H2 8929   1.065   7.132   0.142 -0.3897 -0.6495 -0.3313
 2990TIP3   OH2 8930   6.739   5.691   2.372  0.0280 -0.6560  0.0349
 2990TIP3    H1 8931   6.829   5.690   2.405  0.1985  0.3843 -0.3832
 2990TIP3    H2 8932   6.691   5.746   2.433  0.5303  2.0303 -1.7985
 2991TIP3   OH2 8933   6.626   2.576   0.382  0.7520  0.9424  0.6153
 2991TIP3    H1 8934   6.553   2.607   0.328  1.2478 -1.1586 -1.4762
 2991TIP3    H2 8935   6.699   2.634   0.360  0.1054  2.1808  1.6456
 2992TIP3   OH2 8936   2.214   5.042   1.293 -0.3924  0.5023 -0.7598
 2992TIP3    H1 8937   2.219   4.951   1.321  1.0447  0.5413 -0.8292
 2992TIP3    H2 8938   2.238   5.093   1.370 -2.5252  0.9413 -0.2986
 2993TIP3   OH2 8939   3.360   2.803   4.793  0.0707 -0.4333 -0.9838
 2993TIP3    H1 8940   3.331   2.797   4.884  2.3953 -1.9473 -0.2585
 2993TIP3    H2 8941   3.285   2.838   4.746 -1.5241 -0.5241  1.3523
 2994TIP3   OH2 8942   0.061   3.073   3.695  0.6730  0.4289  0.0794
 2994TIP3    H1 8943   0.095   3.163   3.696  0.8610  0.4555 -2.4604
 2994TIP3    H2 8944  -0.032   3.082   3.713  0.5097  1.2613 -1.0923
 2995TIP3   OH2 8945   2.226   0.657   5.433 -0.6902  0.4268 -0.6026
 2995TIP3    H1 8946   2.313   0.696   5.425 -0.6376  0.6627  0.8611
 2995TIP3    H2 8947   2.169   0.716   5.383  0.1343 -0.4346 -2.7069
 2996TIP3   OH2 8948   6.163   5.331   1.687  0.1909 -0.2940 -0.4848
 2996TIP3    H1 8949   6.102   5.370   1.750  0.2381 -1.6693  0.4606
 2996TIP3    H2 8950   6.112   5.264   1.641  0.8896 -1.2927  0.1421
 2997TIP3   OH2 8951   2.718   3.259   3.240 -0.3009  0.0469  0.5784
 2997TIP3    H1 8952   2.652   3.264   3.309 -0.1590 -0.2119  0.7344
 2997TIP3    H2 8953   2.691   3.325   3.177  0.7854  1.8968  1.9390
 2998TIP3   OH2 8954   1.208   2.379   4.130  0.2726 -0.3392 -0.0487
 2998TIP3    H1 8955   1.117   2.409   4.133  0.2261 -0.5515  0.9028
 2998TIP3    H2 8956   1.201   2.284   4.119  0.3717 -0.3800  0.2278
 2999TIP3   OH2 8957   5.919   6.695   3.602 -0.0736 -0.0124  0.5126
 2999TIP3    H1 8958   5.884   6.642   3.531  1.3441 -1.0591  0.5548
 2999TIP3    H2 8959   5.858   6.681   3.675  0.4086 -1.8325  0.6105
 3000TIP3   OH2 8960   3.857   5.527   0.746  0.1972 -0.0495 -0.4756
 3000TIP3    H1 8961   3.919   5.463   0.781 -0.8610 -1.0138 -0.3022
 3000TIP3    H2 8962   3.786   5.528   0.809  0.5475  1.9211 -0.0560
 3001TIP3   OH2 8963   3.706   3.427   3.533 -0.5920  0.4290  0.1272
 3001TIP3    H1 8964   3.625   3.383   3.506 -0.3303  0.6800 -1.1637
 3001TIP3    H2 8965   3.773   3.359   3.530 -0.6862  0.3005  0.8517
 3002TIP3   OH2 8966   1.721   0.371   1.006 -0.2242 -0.6563  0.0339
 3002TIP3    H1 8967   1.708   0.419   1.088  0.5110 -2.4073  1.2352
 3002TIP3    H2 8968   1.713   0.278   1.031  1.8990 -1.3288 -1.4746
 3003TIP3   OH2 8969   4.327   5.582   2.751 -0.6439 -0.3793 -0.0996
 3003TIP3    H1 8970   4.311   5.612   2.661 -0.2287  1.2734  0.3539
 3003TIP3    H2 8971   4.314   5.659   2.805  1.8224 -0.6123  0.9781
 3004TIP3   OH2 8972   7.481   3.773   3.200 -0.2012 -0.2630  0.6972
 3004TIP3    H1 8973   7.484   3.854   3.250 -2.1062  0.2844  0.0263
 3004TIP3    H2 8974   7.572   3.752   3.181  0.4465  0.5121  2.7464
 3005TIP3   OH2 8975   5.978   7.110   5.477 -0.1693 -0.2144 -0.3914
 3005TIP3    H1 8976   5.921   7.054   5.530 -0.0525  0.2688  0.2646
 3005TIP3    H2 8977   5.920   7.180   5.446 -0.1079 -0.1658 -0.3962
 3006TIP3   OH2 8978   3.584   2.730   0.307 -0.2889 -0.0295  0.1091
 3006TIP3    H1 8979   3.557   2.785   0.380 -0.7834  1.1813 -0.9435
 3006TIP3    H2 8980   3.671   2.761   0.283 -0.2030 -0.2924  0.0813
 3007TIP3   OH2 8981   6.004   4.702   5.163  0.0847 -0.3097 -0.5060
 3007TIP3    H1 8982   6.086   4.654   5.158 -0.0185 -0.3848 -1.5777
 3007TIP3    H2 8983   5.964   4.692   5.077 -0.7389  0.2811 -0.2087
 3008TIP3   OH2 8984   2.787   1.827   3.809 -0.1005  0.0614 -0.3821
 3008TIP3    H1 8985   2.865   1.788   3.850  1.0857 -0.3801 -2.8473
 3008TIP3    H2 8986   2.720   1.759   3.816  0.3337 -0.3326  0.0199
 3009TIP3   OH2 8987   3.338   0.899   4.235 -1.0632 -0.5275 -0.0221
 3009TIP3    H1 8988   3.341   0.995   4.230  2.6162 -0.5180 -1.0050
 3009TIP3    H2 8989   3.346   0.871   4.144 -2.5162 -1.8075  0.2229
 3010TIP3   OH2 8990   5.574   6.703   1.020 -0.3288  0.1960  0.0400
 3010TIP3    H1 8991   5.603   6.704   1.111  1.4158  1.2156 -0.4730
 3010TIP3    H2 8992   5.571   6.611   0.997  1.3537 -0.0239  0.5357
 3011TIP3   OH2 8993   3.951   3.883   5.416 -0.2123  0.0895 -0.1336
 3011TIP3    H1 8994   4.011   3.948   5.379 -0.6925  0.4309 -0.3321
 3011TIP3    H2 8995   3.924   3.830   5.340 -1.6086  1.1205 -0.4014
 3012TIP3   OH2 8996   1.439   1.838   0.039  0.0508  0.1438  0.2921
 3012TIP3    H1 8997   1.470   1.750   0.019  0.4511  0.3737 -0.1086
 3012TIP3    H2 8998   1.393   1.828   0.123  0.2889 -0.3998  0.3658
 3013TIP3   OH2 8999   4.323   1.403   2.569  0.3927 -0.2678  0.3243
 3013TIP3    H1 9000   4.250   1.351   2.604  0.9994 -1.5491 -0.2369
 3013TIP3    H2 9001   4.395   1.340   2.561  0.8765  0.4436 -1.2860
 3014TIP3   OH2 9002   1.030   4.457   0.484  0.3825 -0.2649  0.1490
 3014TIP3    H1 9003   1.088   4.442   0.559  0.5152  0.3701  0.1814
 3014TIP3    H2 9004   1.089   4.480   0.413  0.3484 -1.9716 -0.4698
 3015TIP3   OH2 9005   3.671   6.904   1.501  0.1245  0.2312 -0.7676
 3015TIP3    H1 9006   3.767   6.908   1.502  0.0751  1.5658 -0.7951
 3015TIP3    H2 9007   3.652   6.812   1.482  1.3931 -0.1590 -0.2632
 3016TIP3   OH2 9008   1.759   5.119   1.886 -0.3534 -0.1183 -0.5811
 3016TIP3    H1 9009   1.664   5.131   1.885 -0.2557  1.0231  0.6403
 3016TIP3    H2 9010   1.795   5.207   1.890  0.6239 -0.5301  2.2499
 3017TIP3   OH2 9011   5.992   3.400   4.565  0.4507 -0.2760  0.1451
 3017TIP3    H1 9012   6.065   3.419   4.506 -0.9297 -0.0148 -1.5761
 3017TIP3    H2 9013   5.935   3.342   4.515 -1.2537  0.7095  0.8337
 3018TIP3   OH2 9014   0.752   7.092   3.375 -0.5383 -0.0059 -0.3820
 3018TIP3    H1 9015   0.734   7.182   3.403  1.2558 -0.3823  2.3675
 3018TIP3    H2 9016   0.838   7.096   3.335 -0.5859 -0.4548 -0.5343
 3019TIP3   OH2 9017   3.460   2.343   3.413  0.0816  0.5584 -0.1415
 3019TIP3    H1 9018   3.468   2.311   3.504 -0.5400 -0.8559 -0.5500
 3019TIP3    H2 9019   3.367   2.364   3.404 -0.2610 -1.1724 -1.0018
 3020TIP3   OH2 9020   0.254   6.853   4.407 -0.4301  0.1293  0.0264
 3020TIP3    H1 9021   0.209   6.823   4.328  2.5310 -2.5538 -0.9044
 3020TIP3    H2 9022   0.218   6.799   4.477 -0.7169  0.0783 -0.1598
 3021TIP3   OH2 9023   0.249   4.859   4.986  0.0155 -0.2102 -0.2853
 3021TIP3    H1 9024   0.343   4.843   4.973  0.8264  0.7836  3.2121
 3021TIP3    H2 9025   0.236   4.949   4.956  0.6893  0.3398  0.9828
 3022TIP3   OH2 9026   1.395   4.348   4.652  0.5025  0.1567 -0.2226
 3022TIP3    H1 9027   1.394   4.257   4.623  1.5826  0.2340 -0.5327
 3022TIP3    H2 9028   1.431   4.397   4.578  0.2209  0.8008  0.0541
 3023TIP3   OH2 9029   2.469   2.643   2.537 -0.4702 -0.2610  0.4325
 3023TIP3    H1 9030   2.558   2.612   2.553 -0.3820 -0.6404 -0.7432
 3023TIP3    H2 9031   2.433   2.584   2.471 -0.9786  0.9355 -0.4099
 3024TIP3   OH2 9032   5.281   5.896   3.331  0.0745 -0.1049 -0.5260
 3024TIP3    H1 9033   5.187   5.885   3.314  0.2678 -0.7508 -1.1680
 3024TIP3    H2 9034   5.288   5.986   3.364 -1.0014 -0.5785  1.1815
 3025TIP3   OH2 9035   7.226   1.632   5.906 -0.2036 -0.6551  0.4974
 3025TIP3    H1 9036   7.160   1.610   5.972 -0.2009 -1.8097  0.1325
 3025TIP3    H2 9037   7.247   1.549   5.864  1.0090 -0.2014  0.1605
 3026TIP3   OH2 9038   0.540   3.090   2.969  0.4609  0.4500 -0.5813
 3026TIP3    H1 9039   0.555   3.118   3.060 -0.6989 -0.3612 -0.1197
 3026TIP3    H2 9040   0.551   2.995   2.970  0.1241  0.3954 -1.2127
 3027TIP3   OH2 9041   5.328   1.517   0.027  0.2932  0.1466  0.1252
 3027TIP3    H1 9042   5.422   1.531   0.014  0.6247 -1.0646  0.9870
 3027TIP3    H2 9043   5.324   1.451   0.096 -1.2373  1.5302  1.4234
 3028TIP3   OH2 9044   0.098   4.140   5.572 -0.4117  0.4149 -0.0080
 3028TIP3    H1 9045   0.079   4.230   5.544  0.0575  0.3774 -0.4638
 3028TIP3    H2 9046   0.013   4.104   5.597 -0.9459  0.2922 -1.8555
 3029TIP3   OH2 9047   0.948   5.626   1.215  0.5822  0.1932 -0.1076
 3029TIP3    H1 9048   0.921   5.718   1.206 -0.8810 -0.0058  1.6633
 3029TIP3    H2 9049   1.038   5.631   1.245  0.1386  1.1323  1.1810
 3030TIP3   OH2 9050   7.411   1.911   6.118  0.0854  0.4313  0.3665
 3030TIP3    H1 9051   7.387   2.004   6.115 -0.2828  0.3683  1.0818
 3030TIP3    H2 9052   7.347   1.872   6.177 -1.3187 -0.7697 -1.8494
 3031TIP3   OH2 9053   6.399   1.705   0.264 -0.4402  0.7092 -1.0352
 3031TIP3    H1 9054   6.315   1.733   0.301 -0.2053 -0.2972  0.3125
 3031TIP3    H2 9055   6.465   1.734   0.327  0.2373  1.2355 -1.9404
 3032TIP3   OH2 9056   4.390   0.170   2.039 -0.2820  0.4785 -0.2954
 3032TIP3    H1 9057   4.443   0.249   2.051  0.1121  0.2703 -0.6621
 3032TIP3    H2 9058   4.356   0.177   1.950 -0.1686  0.1941 -0.3630
 3033TIP3   OH2 9059   5.715   2.934   6.097 -0.3839  0.5450 -0.6585
 3033TIP3    H1 9060   5.672   2.849   6.096  0.2131  0.2482 -1.0648
 3033TIP3    H2 9061   5.809   2.914   6.099 -0.2329  1.1594  1.5505
 3034TIP3   OH2 9062   7.394   5.365   3.292 -0.4773  0.1038 -0.1363
 3034TIP3    H1 9063   7.401   5.271   3.306 -1.7981  0.0254  0.1501
 3034TIP3    H2 9064   7.353   5.374   3.206  0.2873  0.4342 -0.4707
 3035TIP3   OH2 9065   7.378   5.950   3.825  0.5026  0.3192 -0.4478
 3035TIP3    H1 9066   7.355   6.039   3.850  1.6021  0.0441  1.7451
 3035TIP3    H2 9067   7.389   5.954   3.730 -1.2991  2.0574 -0.6547
 3036TIP3   OH2 9068   4.493   2.353   3.434 -0.1707 -0.0044 -0.2845
 3036TIP3    H1 9069   4.504   2.446   3.450 -1.0526 -0.0359  0.6112
 3036TIP3    H2 9070   4.577   2.314   3.459 -0.1270  0.4424  0.2851
 3037TIP3   OH2 9071   3.046   3.944   5.068  0.4856  0.1140 -0.3537
 3037TIP3    H1 9072   2.996   3.870   5.032  0.3907  0.6274 -1.2888
 3037TIP3    H2 9073   3.098   3.905   5.139  0.9921 -1.0005 -1.3028
 3038TIP3   OH2 9074   7.250   4.558   2.292  0.3260  0.0416 -0.7474
 3038TIP3    H1 9075   7.249   4.568   2.388  0.6256 -0.7826 -0.6501
 3038TIP3    H2 9076   7.168   4.513   2.272  0.9310 -1.1143 -0.7074
 3039TIP3   OH2 9077   0.098   1.639   0.182 -0.1014  0.2531 -0.0880
 3039TIP3    H1 9078   0.022   1.645   0.125  0.4268  1.5978 -0.6963
 3039TIP3    H2 9079   0.168   1.604   0.126 -0.0196 -0.0820  0.2153
 3040TIP3   OH2 9080   2.091   4.963   0.218 -0.4717  0.2324 -0.2667
 3040TIP3    H1 9081   2.140   4.962   0.136 -1.8026  1.2181 -1.1134
 3040TIP3    H2 9082   2.127   4.890   0.268  2.8608  1.7035 -0.2214
 3041TIP3   OH2 9083   4.618   0.734   2.018 -0.1898 -0.3403  0.6614
 3041TIP3    H1 9084   4.533   0.740   1.973  0.5885 -2.1988 -1.2672
 3041TIP3    H2 9085   4.659   0.819   2.002 -2.0436  1.0134  2.5718
 3042TIP3   OH2 9086   1.044   6.503   6.108 -0.1959  0.2351  0.4045
 3042TIP3    H1 9087   0.953   6.478   6.119 -0.7043  2.2935  1.4991
 3042TIP3    H2 9088   1.087   6.474   6.189  0.2078 -0.9370 -0.2055
 3043TIP3   OH2 9089   1.175   4.725   6.067  0.3312  0.2847  0.1162
 3043TIP3    H1 9090   1.215   4.811   6.059  0.6742  0.0575 -0.8085
 3043TIP3    H2 9091   1.153   4.716   6.160  0.2613  1.3737  0.2098
 3044TIP3   OH2 9092   6.168   0.556   6.080  0.2670  0.1642  0.5390
 3044TIP3    H1 9093   6.097   0.607   6.119  1.5717  1.5017  1.3174
 3044TIP3    H2 9094   6.246   0.584   6.129  1.3820 -0.9639 -0.5292
 3045TIP3   OH2 9095   0.569   3.488   4.198 -0.1729 -0.0525 -0.2508
 3045TIP3    H1 9096   0.631   3.499   4.271  0.6149 -1.6416 -0.6393
 3045TIP3    H2 9097   0.597   3.553   4.133  0.9661 -0.5766 -0.3204
 3046TIP3   OH2 9098   3.586   4.373   5.157  0.2650 -0.1446  0.3494
 3046TIP3    H1 9099   3.619   4.306   5.096 -0.8838 -0.1187 -0.3204
 3046TIP3    H2 9100   3.519   4.328   5.207  0.7231  0.0338  1.1414
 3047TIP3   OH2 9101   2.292   3.357   1.071 -0.5206  0.0014 -0.1294
 3047TIP3    H1 9102   2.344   3.278   1.085 -1.8483 -1.1062 -1.0585
 3047TIP3    H2 9103   2.354   3.422   1.040  0.8413 -0.2389  1.9458
 3048TIP3   OH2 9104   4.974   6.406   4.616 -0.4392 -0.0976 -0.3606
 3048TIP3    H1 9105   5.068   6.418   4.631  0.0362 -2.7513 -0.5893
 3048TIP3    H2 9106   4.969   6.369   4.528 -1.6773 -0.2580 -0.2387
 3049TIP3   OH2 9107   0.994   2.522   4.375  0.1096  0.0255  0.0744
 3049TIP3    H1 9108   0.917   2.489   4.421 -1.0589  1.0639 -1.0499
 3049TIP3    H2 9109   1.011   2.457   4.307 -1.3652  0.9813 -1.2800
 3050TIP3   OH2 9110   3.745   2.149   6.182 -0.1942 -0.2165 -0.6535
 3050TIP3    H1 9111   3.680   2.081   6.163 -0.1883  0.1852 -2.2600
 3050TIP3    H2 9112   3.827   2.115   6.146  0.1232  0.0255 -0.1733
 3051TIP3   OH2 9113   0.173   4.681   5.798  0.5580 -0.1705  0.2722
 3051TIP3    H1 9114   0.086   4.711   5.774 -0.1199 -1.4562  1.0037
 3051TIP3    H2 9115   0.170   4.671   5.893  2.3117  2.1688  0.6802
 3052TIP3   OH2 9116   2.320   5.794   0.766 -0.0402  0.2320  0.4655
 3052TIP3    H1 9117   2.405   5.763   0.734 -0.3840  0.1835 -0.4172
 3052TIP3    H2 9118   2.294   5.861   0.703 -0.6965  0.1942  0.6910
 3053TIP3   OH2 9119   0.433   2.627   2.514 -0.4208 -0.1458  0.7138
 3053TIP3    H1 9120   0.423   2.646   2.608  1.2872  1.5087  0.6199
 3053TIP3    H2 9121   0.510   2.678   2.488 -1.7132  0.5860 -1.9427
 3054TIP3   OH2 9122   2.735   1.195   0.454  0.1675  0.1871  0.1453
 3054TIP3    H1 9123   2.752   1.277   0.407  0.2872 -0.0005 -0.1435
 3054TIP3    H2 9124   2.644   1.174   0.436  0.5918 -0.6480 -1.2341
 3055TIP3   OH2 9125   5.198   6.291   4.148 -0.4248 -0.4444 -0.3181
 3055TIP3    H1 9126   5.256   6.218   4.171 -1.1772 -1.0903 -0.4310
 3055TIP3    H2 9127   5.145   6.258   4.076 -1.4288 -0.1130  0.2511
 3056TIP3   OH2 9128   5.461   6.704   1.418 -0.0522 -0.0535 -0.1629
 3056TIP3    H1 9129   5.500   6.768   1.358  2.1545 -1.0071  0.1556
 3056TIP3    H2 9130   5.535   6.669   1.468 -1.6098 -0.4657  2.0139
 3057TIP3   OH2 9131   6.359   3.248   4.283 -0.0017  0.1995 -0.0574
 3057TIP3    H1 9132   6.300   3.216   4.215 -0.4187  0.4295  0.1898
 3057TIP3    H2 9133   6.447   3.243   4.244  0.0956 -2.1729  0.3124
 3058TIP3   OH2 9134   1.568   2.072   0.358 -0.5421  0.5561 -0.4744
 3058TIP3    H1 9135   1.630   2.070   0.285  0.3309  1.2753  0.2167
 3058TIP3    H2 9136   1.616   2.117   0.428 -2.0182  1.6097 -0.0896
 3059TIP3   OH2 9137   2.577   5.096   3.619  1.1777  0.0252  0.8211
 3059TIP3    H1 9138   2.566   5.143   3.702 -0.6414  0.5971  0.2976
 3059TIP3    H2 9139   2.551   5.006   3.639  0.1134  0.3031  0.7418
 3060TIP3   OH2 9140   3.611   6.427   3.998  0.4825 -0.0461  0.1327
 3060TIP3    H1 9141   3.633   6.454   4.088 -0.6033  1.7024 -0.0786
 3060TIP3    H2 9142   3.529   6.473   3.979  1.5658  1.0114 -2.3619
 3061TIP3   OH2 9143   6.189   4.551   1.577  0.1250  0.1306  0.5734
 3061TIP3    H1 9144   6.213   4.461   1.554  0.4258 -0.1068  1.7260
 3061TIP3    H2 9145   6.217   4.604   1.503 -0.0462 -0.7280 -0.1169
 3062TIP3   OH2 9146   6.579   3.530   4.602 -0.2455  0.2379 -0.3623
 3062TIP3    H1 9147   6.645   3.543   4.534  0.6866  2.9049  0.9066
 3062TIP3    H2 9148   6.524   3.459   4.569  2.2156 -0.9518 -2.2560
 3063TIP3   OH2 9149   0.603   1.458   2.716  0.6552 -0.1772  0.3570
 3063TIP3    H1 9150   0.595   1.415   2.802  0.6324 -0.9068 -0.0009
 3063TIP3    H2 9151   0.611   1.551   2.737 -3.3237  0.1913  1.0735
 3064TIP3   OH2 9152   0.953   2.948   3.168 -0.6384  0.0555 -0.3956
 3064TIP3    H1 9153   0.897   3.009   3.216 -0.7196 -0.3139 -0.0089
 3064TIP3    H2 9154   1.042   2.970   3.197 -0.7697 -0.9763  0.9101
 3065TIP3   OH2 9155   6.858   1.412   4.075  0.4988  0.4622 -0.0861
 3065TIP3    H1 9156   6.912   1.456   4.009  1.2792  2.1440  1.5524
 3065TIP3    H2 9157   6.853   1.321   4.047  1.2506  1.0119 -2.1368
 3066TIP3   OH2 9158   1.080   5.844   2.744 -0.0197  0.3575 -0.7132
 3066TIP3    H1 9159   1.022   5.920   2.743 -0.2997  0.1476 -1.1999
 3066TIP3    H2 9160   1.083   5.816   2.652  0.1015 -0.1978 -0.5415
 3067TIP3   OH2 9161   3.338   1.985   3.643  0.3486  0.6989 -0.2491
 3067TIP3    H1 9162   3.411   1.981   3.705  0.1857 -1.4058 -0.1311
 3067TIP3    H2 9163   3.379   2.013   3.560  1.2688 -0.1986 -0.1232
 3068TIP3   OH2 9164   1.151   3.816   0.456  0.1725  0.3057  0.3879
 3068TIP3    H1 9165   1.076   3.757   0.461  0.6268 -0.4313 -0.8921
 3068TIP3    H2 9166   1.223   3.765   0.493  0.3711  0.3872  0.1201
 3069TIP3   OH2 9167   0.228   4.489   4.438  0.1551  0.3234  0.0558
 3069TIP3    H1 9168   0.300   4.446   4.485 -0.0262 -0.2604 -0.1933
 3069TIP3    H2 9169   0.160   4.501   4.504 -0.5435 -1.5182 -0.2723
 3070TIP3   OH2 9170   3.091   6.848   3.782  0.2741 -0.4767  0.1360
 3070TIP3    H1 9171   3.016   6.896   3.817 -0.6272 -1.8639  0.1977
 3070TIP3    H2 9172   3.127   6.802   3.858  1.0333 -0.0379  0.0529
 3071TIP3   OH2 9173   4.671   3.446   3.488  0.1858  0.1667 -0.7332
 3071TIP3    H1 9174   4.583   3.416   3.512 -0.8862  1.6176 -2.4797
 3071TIP3    H2 9175   4.680   3.420   3.396  1.6270 -0.0026 -0.5619
 3072TIP3   OH2 9176   6.292   3.312   2.984  0.4500 -0.9652  0.5294
 3072TIP3    H1 9177   6.309   3.220   3.002  2.3995 -0.5117  1.2660
 3072TIP3    H2 9178   6.297   3.320   2.889 -0.9779 -1.8093  0.3634
 3073TIP3   OH2 9179   7.582   2.838   1.826  0.2666  0.4437  0.8678
 3073TIP3    H1 9180   7.539   2.865   1.744  1.2613  0.5635  0.3718
 3073TIP3    H2 9181   7.672   2.868   1.817  0.7025 -0.6238  1.4891
 3074TIP3   OH2 9182   7.614   0.513   2.358 -0.2548 -0.2894 -0.0637
 3074TIP3    H1 9183   7.585   0.586   2.413 -1.3525  0.9705 -2.1772
 3074TIP3    H2 9184   7.533   0.470   2.332  0.3244 -1.5860  0.2134
 3075TIP3   OH2 9185   0.080   1.070   4.801 -0.6023 -0.3017 -0.3357
 3075TIP3    H1 9186   0.058   1.102   4.713 -0.0890  1.4034  0.1302
 3075TIP3    H2 9187   0.037   1.131   4.860  1.2671  0.1627  0.5928
 3076TIP3   OH2 9188   2.590   0.784   5.866 -0.3149  0.2104  0.4254
 3076TIP3    H1 9189   2.675   0.778   5.909 -0.0895  1.1965  0.1558
 3076TIP3    H2 9190   2.599   0.733   5.786  0.2867  0.9471  0.0114
 3077TIP3   OH2 9191   2.592   1.354   4.110 -0.5859 -0.2674 -0.6683
 3077TIP3    H1 9192   2.513   1.313   4.073 -0.0024 -0.8570 -1.2866
 3077TIP3    H2 9193   2.664   1.316   4.059  0.2000 -0.6595  0.6928
 3078TIP3   OH2 9194   1.953   1.141   5.815  0.6182 -0.0271  0.0128
 3078TIP3    H1 9195   2.042   1.108   5.807  0.5535  0.1117 -1.4913
 3078TIP3    H2 9196   1.959   1.233   5.791 -0.0829 -0.2555 -1.1261
 3079TIP3   OH2 9197   6.023   2.416   5.277 -0.4160  0.3293 -0.3476
 3079TIP3    H1 9198   5.931   2.445   5.280 -0.6160 -0.3328  0.4853
 3079TIP3    H2 9199   6.065   2.476   5.217 -0.9948  1.8018  0.6541
 3080TIP3   OH2 9200   4.911   3.794   1.941  0.7336  0.0825 -0.6842
 3080TIP3    H1 9201   4.943   3.879   1.971 -0.2142 -0.2782  1.5190
 3080TIP3    H2 9202   4.973   3.731   1.976  0.0836 -0.2930 -0.1880
 3081TIP3   OH2 9203   4.875   6.325   0.144 -0.4950 -0.1382  0.1639
 3081TIP3    H1 9204   4.967   6.316   0.119 -1.0669  0.8432 -2.6734
 3081TIP3    H2 9205   4.827   6.316   0.062 -2.8592  0.7664  1.3560
 3082TIP3   OH2 9206   5.167   2.258   0.243  0.6506 -0.0733  0.2693
 3082TIP3    H1 9207   5.258   2.262   0.215  0.9835 -0.8395  1.1777
 3082TIP3    H2 9208   5.166   2.192   0.313 -0.3346  0.9080  1.2346
 3083TIP3   OH2 9209   2.978   0.462   4.613  0.5427  0.4226 -0.2478
 3083TIP3    H1 9210   2.905   0.451   4.674  0.0996 -0.0675 -0.8568
 3083TIP3    H2 9211   3.048   0.408   4.650  0.6751  1.0405  0.4392
 3084TIP3   OH2 9212   4.608   4.340   4.238  0.5868 -0.0134  0.3537
 3084TIP3    H1 9213   4.530   4.310   4.284 -0.0372  0.4594 -0.3789
 3084TIP3    H2 9214   4.643   4.410   4.293 -1.0839  1.6915 -0.6399
 3085TIP3   OH2 9215   5.507   6.754   2.688  0.1812  0.2323 -0.1034
 3085TIP3    H1 9216   5.589   6.747   2.640 -0.7229 -0.6163 -1.6236
 3085TIP3    H2 9217   5.467   6.667   2.679 -1.4929  1.0122 -0.5836
 3086TIP3   OH2 9218   3.601   1.076   1.824  1.1301 -0.1120 -0.0801
 3086TIP3    H1 9219   3.600   1.124   1.907  1.2257  0.3807 -0.3552
 3086TIP3    H2 9220   3.593   0.984   1.849  1.1922  0.0281  0.4753
 3087TIP3   OH2 9221   0.851   4.857   5.158 -0.1353 -0.1501  0.2016
 3087TIP3    H1 9222   0.934   4.888   5.122 -0.5923  1.9130  0.8018
 3087TIP3    H2 9223   0.785   4.892   5.099 -0.6595 -0.7016  0.4532
 3088TIP3   OH2 9224   5.218   0.219   0.662  0.2297 -0.5125  0.4648
 3088TIP3    H1 9225   5.171   0.174   0.592 -1.2482 -1.1538  1.8143
 3088TIP3    H2 9226   5.263   0.291   0.617 -0.6489 -0.9012 -1.1394
 3089TIP3   OH2 9227   3.799   4.640   4.300  0.8254 -0.3456  0.0804
 3089TIP3    H1 9228   3.890   4.616   4.280  0.1359 -1.5813 -1.9898
 3089TIP3    H2 9229   3.766   4.565   4.349  1.3832  0.9324  2.5454
 3090TIP3   OH2 9230   6.251   6.666   5.473  0.0542  0.1723 -0.5695
 3090TIP3    H1 9231   6.345   6.651   5.480 -0.0882 -0.6851 -0.4047
 3090TIP3    H2 9232   6.237   6.752   5.513  0.5454 -0.4101  0.8914
 3091TIP3   OH2 9233   6.834   4.503   3.375  0.4857  0.2345 -0.1195
 3091TIP3    H1 9234   6.851   4.578   3.432 -0.5789 -0.0916  0.6416
 3091TIP3    H2 9235   6.812   4.542   3.290  1.6789  0.7305 -0.2170
 3092TIP3   OH2 9236   1.894   5.821   0.574 -0.5055  0.1389 -0.9405
 3092TIP3    H1 9237   1.806   5.809   0.612  0.6117 -1.0432  1.4829
 3092TIP3    H2 9238   1.907   5.916   0.576 -1.2553  0.2447 -0.1016
 3093TIP3   OH2 9239   2.394   5.580   0.915  0.1095  0.0101 -0.2058
 3093TIP3    H1 9240   2.358   5.492   0.903  0.4178 -0.0297 -0.8659
 3093TIP3    H2 9241   2.358   5.631   0.843  1.1927  0.0281 -0.7495
 3094TIP3   OH2 9242   0.131   1.855   0.879  0.1838 -0.3094 -0.0550
 3094TIP3    H1 9243   0.115   1.925   0.816  1.0388 -0.7747 -0.8137
 3094TIP3    H2 9244   0.225   1.840   0.876  0.6097  1.0641  2.8946
 3095TIP3   OH2 9245   0.406   0.400   4.714  0.0214 -0.4026 -0.2389
 3095TIP3    H1 9246   0.359   0.409   4.631 -0.1918 -0.0746 -0.0878
 3095TIP3    H2 9247   0.366   0.466   4.771 -0.0804 -0.8641  0.2386
 3096TIP3   OH2 9248   7.238   6.063   4.717 -0.3329 -0.2005  0.2403
 3096TIP3    H1 9249   7.288   6.130   4.764 -0.4289 -0.8266  1.2799
 3096TIP3    H2 9250   7.258   5.982   4.764 -0.0587 -0.9461 -1.1239
 3097TIP3   OH2 9251   3.865   4.782   1.597 -0.1522 -0.1248  0.2656
 3097TIP3    H1 9252   3.804   4.851   1.625  0.6783  0.3497  0.9275
 3097TIP3    H2 9253   3.817   4.700   1.612 -0.2005  0.1873  1.9007
 3098TIP3   OH2 9254   6.939   6.069   5.047 -0.5622 -0.0424 -0.0306
 3098TIP3    H1 9255   6.926   6.019   4.966  2.7614  0.8276 -1.2655
 3098TIP3    H2 9256   6.995   6.014   5.101  2.1311  1.6266 -0.9112
 3099TIP3   OH2 9257   4.015   4.679   3.817  0.0383  0.8383  0.1750
 3099TIP3    H1 9258   3.937   4.693   3.871 -0.8038 -2.6060  0.0690
 3099TIP3    H2 9259   4.074   4.630   3.874  0.7471  0.5103 -0.8308
 3100TIP3   OH2 9260   2.372   4.340   2.682 -0.3804  0.1823  0.0246
 3100TIP3    H1 9261   2.286   4.300   2.669 -0.7157  1.4201 -1.9636
 3100TIP3    H2 9262   2.357   4.434   2.666  1.7029  0.1673 -2.6656
 3101TIP3   OH2 9263   0.981   0.380   3.389  0.1159  0.4982 -0.4738
 3101TIP3    H1 9264   0.889   0.384   3.363  0.2632  0.2307 -1.0598
 3101TIP3    H2 9265   1.019   0.460   3.352  0.0731  0.7257 -0.0315
 3102TIP3   OH2 9266   4.882   1.362   5.616 -0.8122  0.0869 -0.8599
 3102TIP3    H1 9267   4.941   1.287   5.626  0.6424  1.3136  0.2051
 3102TIP3    H2 9268   4.924   1.417   5.550 -1.3701  0.4343 -0.9362
 3103TIP3   OH2 9269   5.720   6.010   2.772  0.1816  0.2507 -0.4862
 3103TIP3    H1 9270   5.670   5.952   2.830  1.3160 -0.4633 -0.2008
 3103TIP3    H2 9271   5.664   6.022   2.695 -1.7678  1.9342  1.0725
 3104TIP3   OH2 9272   1.862   2.899   2.393 -0.4754 -0.3998 -0.3075
 3104TIP3    H1 9273   1.904   2.814   2.380  2.9844  1.1355 -0.4540
 3104TIP3    H2 9274   1.819   2.892   2.478  0.9674 -1.9094  0.3566
 3105TIP3   OH2 9275   1.764   4.629   2.557 -0.2740 -0.3989  0.2956
 3105TIP3    H1 9276   1.793   4.713   2.522 -2.3477  0.6266  0.8530
 3105TIP3    H2 9277   1.693   4.602   2.499 -1.0903 -0.6512  1.3714
 3106TIP3   OH2 9278   7.205   3.789   0.845 -0.3178 -0.3343  0.1950
 3106TIP3    H1 9279   7.130   3.796   0.786  1.8778 -1.0693 -2.9540
 3106TIP3    H2 9280   7.243   3.877   0.845  0.0455 -0.4895 -0.0292
 3107TIP3   OH2 9281   7.361   6.918   0.236  0.0595 -0.1837  0.3149
 3107TIP3    H1 9282   7.357   6.841   0.293  1.5132  0.6105  1.5644
 3107TIP3    H2 9283   7.270   6.941   0.220 -0.4106 -2.0650  0.0232
 3108TIP3   OH2 9284   6.082   0.774   2.413 -0.6091  0.1003 -0.0307
 3108TIP3    H1 9285   6.039   0.805   2.334  0.3865  0.6986 -0.3680
 3108TIP3    H2 9286   6.174   0.766   2.388 -0.5089 -1.1035  0.6666
 3109TIP3   OH2 9287   6.521   0.206   0.169  0.0211  0.5512 -0.4169
 3109TIP3    H1 9288   6.560   0.120   0.187 -0.6746  0.7059  2.2133
 3109TIP3    H2 9289   6.441   0.186   0.121 -0.1793 -0.3138  0.2458
 3110TIP3   OH2 9290   5.536   6.548   3.108 -0.1425  0.2964  0.2410
 3110TIP3    H1 9291   5.463   6.490   3.087 -0.9791  1.7332 -1.0024
 3110TIP3    H2 9292   5.509   6.595   3.186 -1.6658  2.5386 -1.5262
 3111TIP3   OH2 9293   7.588   1.696   5.392  0.5134  0.6270 -0.0182
 3111TIP3    H1 9294   7.520   1.760   5.372  0.7275  1.3920  1.6014
 3111TIP3    H2 9295   7.670   1.743   5.378  0.6847  0.3814  0.1573
 3112TIP3   OH2 9296   1.992   3.339   3.767 -0.7713  0.0104 -0.1012
 3112TIP3    H1 9297   1.929   3.396   3.723 -0.0151  0.7455 -0.2638
 3112TIP3    H2 9298   2.005   3.266   3.706 -0.6680  0.4010 -0.5564
 3113TIP3   OH2 9299   5.677   1.281   4.125 -0.7545  0.6223  0.1754
 3113TIP3    H1 9300   5.676   1.296   4.031 -2.5501  1.0632  0.2316
 3113TIP3    H2 9301   5.676   1.369   4.163 -1.1431  0.4392  0.5926
 3114TIP3   OH2 9302   1.285   5.263   1.980 -0.2946  1.1279  0.2876
 3114TIP3    H1 9303   1.244   5.331   2.034 -2.4301  1.1627 -1.2327
 3114TIP3    H2 9304   1.211   5.220   1.936  1.1909 -0.3654 -0.8670
 3115TIP3   OH2 9305   1.731   0.592   0.696  0.1314  0.0062 -0.2190
 3115TIP3    H1 9306   1.802   0.626   0.750  1.2445 -0.7416 -1.1562
 3115TIP3    H2 9307   1.653   0.597   0.752  0.6212  2.1526  0.3569
 3116TIP3   OH2 9308   4.662   4.007   4.668  0.0075 -0.3271 -0.1782
 3116TIP3    H1 9309   4.594   3.947   4.636 -0.7817 -0.2776  1.3080
 3116TIP3    H2 9310   4.616   4.063   4.730  0.9063  1.3187 -0.9345
 3117TIP3   OH2 9311   0.413   6.313   1.331 -0.2184  0.1864 -0.0236
 3117TIP3    H1 9312   0.492   6.364   1.346  1.4982 -1.7246 -1.8946
 3117TIP3    H2 9313   0.440   6.245   1.269 -3.8103  0.6444 -2.3821
 3118TIP3   OH2 9314   2.340   3.286   2.641  0.0340  0.2904  0.2818
 3118TIP3    H1 9315   2.261   3.323   2.681  0.5215  0.5925  0.9836
 3118TIP3    H2 9316   2.367   3.218   2.702  0.0766 -0.1101 -0.1783
 3119TIP3   OH2 9317   5.505   2.158   2.467 -0.5877  0.2510 -0.0874
 3119TIP3    H1 9318   5.449   2.234   2.478 -1.0934  0.0160 -0.9484
 3119TIP3    H2 9319   5.546   2.145   2.552 -0.3036  1.6354  0.0055
 3120TIP3   OH2 9320   6.774   0.669   4.933 -0.4147  0.2544 -0.0591
 3120TIP3    H1 9321   6.682   0.688   4.912  0.2978  2.0491 -1.8269
 3120TIP3    H2 9322   6.824   0.718   4.868  1.8568  0.6715  1.8864
 3121TIP3   OH2 9323   3.826   2.112   3.908 -0.6181 -0.2685 -0.0116
 3121TIP3    H1 9324   3.920   2.093   3.904  0.0363  2.7333 -1.1790
 3121TIP3    H2 9325   3.805   2.106   4.001  1.0738  0.3672  0.4601
 3122TIP3   OH2 9326   1.273   4.028   5.450  0.0097 -0.2353 -0.3742
 3122TIP3    H1 9327   1.316   4.101   5.404  1.2404  0.2037  1.3383
 3122TIP3    H2 9328   1.181   4.054   5.456  0.2452  0.7190 -0.6808
 3123TIP3   OH2 9329   3.466   6.749   3.993  0.4885 -0.7443 -0.1877
 3123TIP3    H1 9330   3.443   6.818   3.931 -0.8159  0.1029  1.1621
 3123TIP3    H2 9331   3.491   6.796   4.073 -0.4922 -1.8051  0.7872
 3124TIP3   OH2 9332   1.657   3.469   1.815 -0.1352  0.2919 -0.2891
 3124TIP3    H1 9333   1.597   3.525   1.864 -0.8318 -1.5951  1.1577
 3124TIP3    H2 9334   1.704   3.420   1.883 -0.4993 -1.7927 -1.4611
 3125TIP3   OH2 9335   1.917   6.895   1.026  0.2250 -0.3489  0.6253
 3125TIP3    H1 9336   1.925   6.900   0.930 -0.6773 -1.2762  0.4799
 3125TIP3    H2 9337   2.006   6.877   1.056  0.3309 -1.1671 -0.1380
 3126TIP3   OH2 9338   2.877   0.125   4.965 -0.3325  0.1156  0.1773
 3126TIP3    H1 9339   2.948   0.083   5.014  0.3957 -0.5532 -1.3641
 3126TIP3    H2 9340   2.799   0.075   4.988 -0.1792  0.3599  1.2888
 3127TIP3   OH2 9341   7.475   5.713   4.596 -0.1988 -0.4104  0.2758
 3127TIP3    H1 9342   7.473   5.721   4.501 -1.1299  1.0972  0.3919
 3127TIP3    H2 9343   7.507   5.798   4.627  0.0004 -0.8453  1.3260
 3128TIP3   OH2 9344   5.676   5.765   3.764 -0.6224  0.1135  0.7415
 3128TIP3    H1 9345   5.590   5.750   3.801 -2.0253 -0.7919 -2.5138
 3128TIP3    H2 9346   5.707   5.846   3.804 -2.3922 -0.2033  2.8952
 3129TIP3   OH2 9347   5.208   1.425   6.022  0.4696  0.0333  0.3977
 3129TIP3    H1 9348   5.275   1.359   6.039 -0.4619 -0.4004  2.8472
 3129TIP3    H2 9349   5.230   1.497   6.081 -0.1853  0.6500 -0.1038
 3130TIP3   OH2 9350   7.213   5.901   6.131 -0.0792 -0.1783  0.1743
 3130TIP3    H1 9351   7.300   5.890   6.169  0.6384  2.7240 -0.3861
 3130TIP3    H2 9352   7.168   5.960   6.192 -0.9392 -0.0021 -0.6138
 3131TIP3   OH2 9353   4.413   3.502   6.056  0.2436  0.5178 -0.5458
 3131TIP3    H1 9354   4.456   3.581   6.024 -0.3924  1.1867  0.2155
 3131TIP3    H2 9355   4.484   3.439   6.069  0.7364  0.9084 -1.2852
 3132TIP3   OH2 9356   4.304   2.263   2.970  0.3075 -0.2115 -0.3718
 3132TIP3    H1 9357   4.348   2.232   3.049  0.3213 -0.6626 -0.5526
 3132TIP3    H2 9358   4.211   2.250   2.988  0.2461  0.5497 -0.0711
 3133TIP3   OH2 9359   3.825   2.453   4.426 -0.0865 -0.2516 -0.4120
 3133TIP3    H1 9360   3.823   2.533   4.374 -0.0328 -0.4236 -0.6791
 3133TIP3    H2 9361   3.800   2.481   4.514 -0.7106 -0.0549 -0.6488
 3134TIP3   OH2 9362   2.124   5.834   4.727 -0.1096  0.5893  0.2906
 3134TIP3    H1 9363   2.075   5.839   4.644  1.9299  3.2557 -0.9097
 3134TIP3    H2 9364   2.074   5.888   4.787 -0.4053  0.5305  0.1019
 3135TIP3   OH2 9365   5.010   2.107   2.941  0.0130  0.2614  0.0023
 3135TIP3    H1 9366   4.943   2.150   2.994  0.3099 -0.3285  0.8702
 3135TIP3    H2 9367   5.013   2.159   2.861 -0.8227  0.8480  0.3312
 3136TIP3   OH2 9368   7.483   4.661   6.146 -1.1172  0.3736  0.0700
 3136TIP3    H1 9369   7.444   4.684   6.061 -0.8355  0.7833  0.0493
 3136TIP3    H2 9370   7.435   4.583   6.173 -2.4205  1.2379  0.3565
 3137TIP3   OH2 9371   5.899   5.447   6.106  0.8829 -0.3060 -0.4529
 3137TIP3    H1 9372   5.842   5.523   6.113  0.5340 -0.5957 -0.1630
 3137TIP3    H2 9373   5.846   5.380   6.063  1.3614 -0.2159 -1.2085
 3138TIP3   OH2 9374   3.004   3.290   3.881 -0.3163  0.1198  0.2701
 3138TIP3    H1 9375   2.952   3.322   3.808 -0.8624 -0.3788  0.4323
 3138TIP3    H2 9376   2.944   3.293   3.956  0.2028  0.5159  0.6788
 3139TIP3   OH2 9377   3.546   2.719   3.049 -0.0016  0.4006 -0.2503
 3139TIP3    H1 9378   3.568   2.715   3.142  1.0224 -2.2134 -0.5146
 3139TIP3    H2 9379   3.470   2.661   3.040  0.2189  0.2268 -1.0891
 3140TIP3   OH2 9380   1.879   2.449   5.130 -0.4155  0.1968 -0.4010
 3140TIP3    H1 9381   1.900   2.494   5.048 -1.6925  1.9991  0.2038
 3140TIP3    H2 9382   1.797   2.404   5.112 -0.1520 -0.2765 -0.4223
 3141TIP3   OH2 9383   1.897   6.559   2.575 -0.0789 -0.3377 -0.0167
 3141TIP3    H1 9384   1.973   6.521   2.618  0.6881 -0.8403 -1.7061
 3141TIP3    H2 9385   1.868   6.628   2.633  0.4639 -1.4180  1.6029
 3142TIP3   OH2 9386   7.527   0.203   4.496 -0.0662 -0.2273  0.3170
 3142TIP3    H1 9387   7.506   0.295   4.477 -0.7869 -0.8237 -2.2518
 3142TIP3    H2 9388   7.619   0.205   4.523 -0.0671  1.2518  0.3258
 3143TIP3   OH2 9389   7.107   4.755   3.455 -0.3529 -0.0733  0.2094
 3143TIP3    H1 9390   7.152   4.801   3.526  1.7202  0.7958 -1.5485
 3143TIP3    H2 9391   7.033   4.712   3.498  0.6453  0.5943  2.8339
 3144TIP3   OH2 9392   3.848   3.837   3.847 -0.3115 -0.1735 -0.1553
 3144TIP3    H1 9393   3.891   3.777   3.787 -1.3575 -1.1070  0.0056
 3144TIP3    H2 9394   3.754   3.821   3.835 -0.5692 -1.6373  2.8817
 3145TIP3   OH2 9395   7.069   0.758   3.092  0.9709  0.1245  0.3542
 3145TIP3    H1 9396   6.991   0.731   3.140 -0.1866 -1.6174 -2.2542
 3145TIP3    H2 9397   7.070   0.853   3.098 -0.8940  0.1308  1.1010
 3146TIP3   OH2 9398   3.424   4.390   1.193 -0.2493  0.3808 -0.3858
 3146TIP3    H1 9399   3.340   4.355   1.224  0.6185 -0.7027  0.8753
 3146TIP3    H2 9400   3.417   4.485   1.208 -0.2340  0.0195  2.4668
 3147TIP3   OH2 9401   3.554   5.054   0.341  0.4235  0.3230 -0.1872
 3147TIP3    H1 9402   3.620   5.120   0.363 -0.0967  0.3791  1.3222
 3147TIP3    H2 9403   3.471   5.093   0.369 -0.0643 -0.3960 -0.6102
 3148TIP3   OH2 9404   6.157   6.027   2.427  0.2523  0.0494  0.4634
 3148TIP3    H1 9405   6.252   6.032   2.420  0.2477 -1.0319 -0.6500
 3148TIP3    H2 9406   6.130   5.972   2.353 -1.2318  0.2951  0.7913
 3149TIP3   OH2 9407   7.322   0.848   1.956  0.3879 -0.0949  0.2797
 3149TIP3    H1 9408   7.374   0.837   1.876 -0.8934  0.3757 -0.6448
 3149TIP3    H2 9409   7.263   0.920   1.937 -1.1754 -1.1342  0.9825
 3150TIP3   OH2 9410   4.460   1.607   4.640  0.2531 -0.1375 -0.0636
 3150TIP3    H1 9411   4.430   1.601   4.549 -0.5746  0.9274  0.1231
 3150TIP3    H2 9412   4.414   1.536   4.685 -0.6206  0.3447 -0.1613
 3151TIP3   OH2 9413   1.448   4.368   0.626  0.1376  1.0819  0.2712
 3151TIP3    H1 9414   1.542   4.356   0.642  0.2547  1.4541 -0.1190
 3151TIP3    H2 9415   1.444   4.418   0.544 -0.4159  0.5996  0.0017
 3152TIP3   OH2 9416   0.151   6.967   1.308  0.5280  0.1724  0.7222
 3152TIP3    H1 9417   0.207   6.998   1.237  1.3132 -1.0567  0.7868
 3152TIP3    H2 9418   0.205   6.905   1.357 -0.7552 -0.7612  1.0096
 3153TIP3   OH2 9419   7.566   3.254   4.405  0.0693 -0.3225  0.6322
 3153TIP3    H1 9420   7.494   3.204   4.443 -1.1351  1.0807  0.2974
 3153TIP3    H2 9421   7.539   3.270   4.314  2.2388 -2.3778 -0.4875
 3154TIP3   OH2 9422   1.660   3.115   3.866 -0.6693  0.3360 -0.1022
 3154TIP3    H1 9423   1.674   3.137   3.774  1.5517 -0.6380 -0.0483
 3154TIP3    H2 9424   1.599   3.041   3.863 -1.8697  1.3155 -0.6782
 3155TIP3   OH2 9425   2.771   2.029   2.963 -0.0134  0.0781  0.4669
 3155TIP3    H1 9426   2.735   1.986   2.886 -0.5527 -0.4314  0.9879
 3155TIP3    H2 9427   2.719   2.109   2.972 -1.7868 -1.1230  1.7807
 3156TIP3   OH2 9428   7.466   6.674   5.303  0.2160  0.0225  0.2917
 3156TIP3    H1 9429   7.471   6.644   5.212 -0.9500  0.5410  0.0395
 3156TIP3    H2 9430   7.413   6.607   5.347 -2.2238  1.5052 -0.2277
 3157TIP3   OH2 9431   3.618   6.586   3.184 -0.1802  0.3723  0.3386
 3157TIP3    H1 9432   3.685   6.572   3.251  0.3268  2.3045  0.2991
 3157TIP3    H2 9433   3.652   6.658   3.131 -1.6649  0.4679 -0.5459
 3158TIP3   OH2 9434   0.563   2.117   1.660  0.0454 -0.0029 -0.0879
 3158TIP3    H1 9435   0.527   2.061   1.728  1.5065  0.7415  1.3660
 3158TIP3    H2 9436   0.638   2.068   1.625  1.1342  0.8529  0.9684
 3159TIP3   OH2 9437   4.529   2.838   0.839 -0.3011 -0.3576  0.1729
 3159TIP3    H1 9438   4.437   2.828   0.814  0.0287 -1.0676 -0.7891
 3159TIP3    H2 9439   4.578   2.809   0.763  0.7374  1.0384  0.2705
 3160TIP3   OH2 9440   0.016   1.408   2.522 -0.0211 -0.9796 -0.3967
 3160TIP3    H1 9441  -0.026   1.468   2.462  1.5629 -0.2149 -0.8042
 3160TIP3    H2 9442   0.101   1.449   2.541 -0.1134 -1.6273  1.6602
 3161TIP3   OH2 9443   5.463   0.000   0.541 -0.0912 -0.0794 -0.1871
 3161TIP3    H1 9444   5.473   0.077   0.597  0.2740  0.1407 -0.5446
 3161TIP3    H2 9445   5.552  -0.035   0.532 -0.2948 -0.6937  0.1807
 3162TIP3   OH2 9446   6.103   4.524   4.509 -0.0110  0.6283 -0.4527
 3162TIP3    H1 9447   6.085   4.613   4.479  0.9470  0.8173 -0.4912
 3162TIP3    H2 9448   6.199   4.520   4.516 -0.1049  0.0086  0.7768
 3163TIP3   OH2 9449   1.797   6.181   3.875 -0.2059  0.5149  0.1571
 3163TIP3    H1 9450   1.793   6.250   3.941 -1.0730  0.9151 -0.2985
 3163TIP3    H2 9451   1.705   6.159   3.858  0.0484 -0.5438  0.0788
 3164TIP3   OH2 9452   4.114   0.597   5.095  0.3733  0.2897 -0.6736
 3164TIP3    H1 9453   4.107   0.628   5.005 -1.3164  0.7000 -0.4406
 3164TIP3    H2 9454   4.106   0.677   5.148 -1.2510 -0.2002 -0.1280
 3165TIP3   OH2 9455   5.747   1.446   2.907  0.7656 -0.4883 -0.3646
 3165TIP3    H1 9456   5.841   1.452   2.922  0.5205 -1.1537  1.7170
 3165TIP3    H2 9457   5.720   1.536   2.889  1.6605 -0.1553 -0.1051
 3166TIP3   OH2 9458   0.494   3.338   6.174  0.4231  0.2451 -0.0792
 3166TIP3    H1 9459   0.463   3.331   6.084  0.1070  0.6948 -0.0095
 3166TIP3    H2 9460   0.448   3.414   6.209 -0.0424 -0.3820  0.7033
 3167TIP3   OH2 9461   0.664   1.434   3.119  0.2456  0.1060 -0.9399
 3167TIP3    H1 9462   0.671   1.345   3.085 -1.0118 -0.7009  0.7944
 3167TIP3    H2 9463   0.571   1.454   3.118  0.1350  0.0679  1.8104
 3168TIP3   OH2 9464   0.698   1.405   1.613  0.4683 -0.0724 -0.1654
 3168TIP3    H1 9465   0.661   1.333   1.664  1.1172 -0.7403 -0.6155
 3168TIP3    H2 9466   0.793   1.390   1.617  0.5018 -0.7383 -2.4290
 3169TIP3   OH2 9467   3.615   5.391   4.351  0.3737  0.2468 -0.0517
 3169TIP3    H1 9468   3.678   5.330   4.312 -0.5880 -1.2474  0.6507
 3169TIP3    H2 9469   3.644   5.477   4.320  0.7473 -0.6746 -2.5683
 3170TIP3   OH2 9470   6.757   5.240   5.727 -0.4242  0.2268 -0.0797
 3170TIP3    H1 9471   6.819   5.297   5.682  0.3936  0.7828  1.6624
 3170TIP3    H2 9472   6.803   5.212   5.806 -1.7995 -0.7005  0.4324
 3171TIP3   OH2 9473   5.008   1.435   4.613 -0.6371  0.5950  0.7566
 3171TIP3    H1 9474   5.093   1.404   4.644 -0.0881  1.4419  0.1219
 3171TIP3    H2 9475   5.028   1.499   4.545 -1.7791  1.0088  0.7814
 3172TIP3   OH2 9476   3.004   0.000   1.463  0.3651  0.3383 -0.6762
 3172TIP3    H1 9477   2.967   0.067   1.521  1.1958 -0.2606  0.5805
 3172TIP3    H2 9478   2.953   0.008   1.382 -4.1740 -2.0003  1.6328
 3173TIP3   OH2 9479   4.389   1.844   0.834 -0.8092 -0.2446  0.4209
 3173TIP3    H1 9480   4.470   1.896   0.839 -1.1657  0.5386 -1.2694
 3173TIP3    H2 9481   4.416   1.756   0.860  0.6448 -0.0365 -0.2493
 3174TIP3   OH2 9482   4.297   2.336   0.032 -0.5209 -0.5941 -0.3897
 3174TIP3    H1 9483   4.344   2.419   0.040 -1.0340 -0.2922 -0.3919
 3174TIP3    H2 9484   4.347   2.274   0.084 -1.5251  0.3311  1.8478
 3175TIP3   OH2 9485   0.437   2.253   5.314 -0.2491 -0.1477 -0.1006
 3175TIP3    H1 9486   0.416   2.252   5.408  0.5065 -1.0462  0.0820
 3175TIP3    H2 9487   0.389   2.327   5.279 -0.5670  0.1859  1.0016
 3176TIP3   OH2 9488   0.088   6.668   2.497 -0.1047 -0.0499 -0.4005
 3176TIP3    H1 9489   0.021   6.639   2.559 -0.7607  1.1466 -0.5249
 3176TIP3    H2 9490   0.167   6.620   2.523 -0.6598 -0.4488  0.6134
 3177TIP3   OH2 9491   1.340   3.310   1.532 -0.5022  0.2360 -0.3830
 3177TIP3    H1 9492   1.324   3.381   1.595  1.4584  0.2404  0.1787
 3177TIP3    H2 9493   1.307   3.344   1.449 -2.1545  0.6565  0.4042
 3178TIP3   OH2 9494   3.014   4.677   0.850  0.1105 -0.3317 -0.0166
 3178TIP3    H1 9495   2.965   4.598   0.876  0.4665 -0.4917  0.1726
 3178TIP3    H2 9496   3.076   4.690   0.921 -0.8596  0.9124  0.6513
 3179TIP3   OH2 9497   7.180   2.721   5.135 -0.0995 -0.6500 -0.3941
 3179TIP3    H1 9498   7.272   2.736   5.157 -0.0539 -0.4701 -0.7085
 3179TIP3    H2 9499   7.143   2.680   5.214  0.2458 -0.7141 -0.2653
 3180TIP3   OH2 9500   4.709   3.626   3.715  0.0397  0.0717  0.2513
 3180TIP3    H1 9501   4.684   3.584   3.632 -0.5835  0.4340  0.2490
 3180TIP3    H2 9502   4.702   3.556   3.780 -0.8422  0.1159  0.2224
 3181TIP3   OH2 9503   4.364   6.941   0.537  0.2127  0.3150  0.4959
 3181TIP3    H1 9504   4.428   6.877   0.569  1.0126  0.5733 -0.5626
 3181TIP3    H2 9505   4.280   6.905   0.564  0.5240 -1.9072 -1.2030
 3182TIP3   OH2 9506   4.344   4.847   2.629 -0.0426  0.5946  0.1955
 3182TIP3    H1 9507   4.350   4.753   2.644 -1.2461  0.4255 -0.2107
 3182TIP3    H2 9508   4.350   4.857   2.534  0.2160  0.9349  0.2468
 3183TIP3   OH2 9509   3.486   2.349   0.545  0.2042  0.1928 -0.2413
 3183TIP3    H1 9510   3.437   2.408   0.602 -0.3542  1.0911 -1.6279
 3183TIP3    H2 9511   3.554   2.404   0.506  1.6660 -0.7943  0.8140
 3184TIP3   OH2 9512   0.083   2.766   4.869 -0.2428 -0.0128 -0.2706
 3184TIP3    H1 9513   0.152   2.825   4.900 -0.5265 -0.2775  0.9349
 3184TIP3    H2 9514   0.129   2.685   4.848 -0.3612 -0.9539  2.6335
 3185TIP3   OH2 9515   5.830   0.166   1.067  0.0225  0.2279 -0.0449
 3185TIP3    H1 9516   5.829   0.088   1.012  0.3054  0.4707 -0.4007
 3185TIP3    H2 9517   5.812   0.134   1.155  1.9390 -0.4953  0.1284
 3186TIP3   OH2 9518   3.404   3.376   3.905 -0.0593  0.3034  0.5767
 3186TIP3    H1 9519   3.347   3.338   3.839 -0.0614 -2.5253  2.0362
 3186TIP3    H2 9520   3.472   3.421   3.856 -0.4502 -1.0915 -1.3477
 3187TIP3   OH2 9521   6.647   0.344   0.877  0.0455  0.9174 -0.1072
 3187TIP3    H1 9522   6.583   0.279   0.906 -0.2602  0.4744 -1.6911
 3187TIP3    H2 9523   6.596   0.422   0.858  0.2943  1.3360  0.8649
 3188TIP3   OH2 9524   2.062   7.043   4.570 -0.4527 -0.7575  0.5264
 3188TIP3    H1 9525   2.132   7.043   4.505  0.2504 -0.2846  1.2678
 3188TIP3    H2 9526   2.105   7.067   4.652 -1.9171  2.7422  0.4806
 3189TIP3   OH2 9527   1.448   2.425   3.591 -0.3481 -0.3201 -0.4464
 3189TIP3    H1 9528   1.451   2.424   3.686  0.5762  0.4055 -0.4529
 3189TIP3    H2 9529   1.413   2.339   3.567 -1.3716 -0.2060  0.5589
 3190TIP3   OH2 9530   4.158   1.855   1.655  0.6405 -0.3890  0.2857
 3190TIP3    H1 9531   4.180   1.858   1.562  0.2236  3.1934  0.1731
 3190TIP3    H2 9532   4.233   1.812   1.696  1.5961 -0.5218 -1.5098
 3191TIP3   OH2 9533   0.711   0.760   4.646  0.4512 -0.2804  0.0114
 3191TIP3    H1 9534   0.642   0.744   4.710  0.2123  1.3767  0.2206
 3191TIP3    H2 9535   0.780   0.698   4.669  0.2278  0.0359  1.6908
 3192TIP3   OH2 9536   2.037   2.644   4.568 -0.4165  0.7158 -0.7951
 3192TIP3    H1 9537   2.060   2.556   4.597 -1.6182 -0.4516 -3.0513
 3192TIP3    H2 9538   2.117   2.695   4.580 -0.2528 -0.0639  2.4713
 3193TIP3   OH2 9539   4.136   4.006   2.284 -0.3477 -0.3584 -0.0794
 3193TIP3    H1 9540   4.104   4.085   2.240  1.1637  0.6142  0.4691
 3193TIP3    H2 9541   4.103   4.014   2.374  0.2629 -0.0553  0.1221
 3194TIP3   OH2 9542   0.052   0.964   3.076  0.1327  0.0034  0.0123
 3194TIP3    H1 9543   0.026   0.889   3.023  0.5044  0.3077 -0.6129
 3194TIP3    H2 9544   0.086   1.028   3.013  1.0029  0.1992  0.6632
 3195TIP3   OH2 9545   6.277   3.269   3.363 -0.4121 -0.2215  0.1976
 3195TIP3    H1 9546   6.296   3.221   3.443  0.9454  1.7332  1.1305
 3195TIP3    H2 9547   6.362   3.300   3.333 -0.9261 -0.6436 -1.8750
 3196TIP3   OH2 9548   6.484   4.740   2.176 -0.1175  0.0767 -0.2408
 3196TIP3    H1 9549   6.472   4.828   2.139 -0.3532  0.5187  0.8457
 3196TIP3    H2 9550   6.427   4.738   2.253  1.6275 -0.1955  1.0991
 3197TIP3   OH2 9551   3.770   7.015   4.726 -0.1327  0.7924  0.3061
 3197TIP3    H1 9552   3.717   7.088   4.694 -0.8632 -0.1194 -0.6298
 3197TIP3    H2 9553   3.710   6.963   4.780  0.0743  0.2843  0.0565
 3198TIP3   OH2 9554   4.637   5.109   3.407  0.1228  0.3715  0.2719
 3198TIP3    H1 9555   4.684   5.054   3.469 -1.0503  0.6478  1.4633
 3198TIP3    H2 9556   4.624   5.192   3.453  1.5289  1.5567 -1.3506
 3199TIP3   OH2 9557   5.665   6.424   2.140  0.3109  0.3124 -0.2640
 3199TIP3    H1 9558   5.619   6.500   2.105  0.7731  0.0781 -1.4102
 3199TIP3    H2 9559   5.596   6.368   2.176 -0.1450  0.6698 -0.5807
 3200TIP3   OH2 9560   3.773   4.128   3.867 -0.2453  0.4968 -0.0782
 3200TIP3    H1 9561   3.761   4.058   3.930  1.2701  2.0589  2.0677
 3200TIP3    H2 9562   3.865   4.124   3.841 -1.0951 -0.9864 -3.4288
 3201TIP3   OH2 9563   5.044   5.525   2.282  0.4372  0.3700  0.3212
 3201TIP3    H1 9564   5.126   5.560   2.318 -0.5235  1.6148  1.3435
 3201TIP3    H2 9565   5.034   5.569   2.198  0.9284  0.0307  0.0791
 3202TIP3   OH2 9566   6.666   1.366   5.466 -0.2581 -0.1275  0.7402
 3202TIP3    H1 9567   6.612   1.404   5.535 -1.1747 -0.2890  0.1332
 3202TIP3    H2 9568   6.606   1.357   5.392  0.7715  0.2744 -0.1539
 3203TIP3   OH2 9569   3.022   3.770   3.431  0.6810  0.4393  0.1907
 3203TIP3    H1 9570   2.964   3.813   3.493 -1.7556 -0.1971 -1.5129
 3203TIP3    H2 9571   3.008   3.816   3.348  0.7702 -1.2231 -0.8128
 3204TIP3   OH2 9572   4.149   5.746   4.726 -0.7773  0.3351  0.2284
 3204TIP3    H1 9573   4.138   5.653   4.703  0.2485  0.0678  0.7793
 3204TIP3    H2 9574   4.194   5.784   4.651  1.8656 -0.3709  1.3334
 3205TIP3   OH2 9575   0.061   5.849   5.135 -0.1078 -0.5241 -0.3155
 3205TIP3    H1 9576   0.120   5.922   5.116  0.5450 -1.4168 -1.9512
 3205TIP3    H2 9577   0.037   5.860   5.227  2.6951 -0.1637  0.4581
 3206TIP3   OH2 9578   7.590   2.512   4.013  0.2928  0.2419  0.0073
 3206TIP3    H1 9579   7.653   2.506   3.942  0.5024  0.2272  0.1932
 3206TIP3    H2 9580   7.508   2.539   3.970  0.4685  0.4416 -0.2107
 3207TIP3   OH2 9581   2.334   3.328   5.774 -0.5310  0.2051 -0.7353
 3207TIP3    H1 9582   2.410   3.279   5.805 -0.6979 -0.8773 -1.9592
 3207TIP3    H2 9583   2.317   3.392   5.843  0.2189 -0.8888  0.5086
 3208TIP3   OH2 9584   1.321   4.861   3.251 -0.0589 -0.2544 -0.3567
 3208TIP3    H1 9585   1.251   4.915   3.214  0.1084 -0.4827 -1.0149
 3208TIP3    H2 9586   1.355   4.913   3.324  0.0625  0.5183 -0.9500
 3209TIP3   OH2 9587   2.864   0.116   1.268  0.0693 -0.6377  0.0112
 3209TIP3    H1 9588   2.798   0.105   1.336  0.3743 -1.9912  0.1219
 3209TIP3    H2 9589   2.815   0.148   1.192 -0.1585  1.5687  1.0351
 3210TIP3   OH2 9590   6.068   6.976   2.996 -0.0573  0.0529  0.0249
 3210TIP3    H1 9591   6.021   7.059   2.990 -0.5386 -0.2525 -0.5254
 3210TIP3    H2 9592   6.159   7.001   3.011 -0.0122  0.7183 -1.2149
 3211TIP3   OH2 9593   5.964   7.139   4.438  0.2381  0.4553 -0.5320
 3211TIP3    H1 9594   6.016   7.064   4.410  1.3648  1.1167 -0.3144
 3211TIP3    H2 9595   5.874   7.108   4.440  0.7325 -1.0272  0.0145
 3212TIP3   OH2 9596   4.193   2.606   1.426 -0.0785  0.1174 -0.3003
 3212TIP3    H1 9597   4.110   2.633   1.386  1.1360  0.5126 -2.7576
 3212TIP3    H2 9598   4.172   2.593   1.518 -2.8194  0.3741 -0.8014
 3213TIP3   OH2 9599   5.138   4.968   1.820  0.0832  0.4435  0.4225
 3213TIP3    H1 9600   5.089   4.997   1.897 -1.2096  0.8460 -0.5206
 3213TIP3    H2 9601   5.092   5.007   1.746  0.5365 -0.9830 -0.6495
 3214TIP3   OH2 9602   2.514   5.871   5.678 -0.3613  0.5724 -0.2669
 3214TIP3    H1 9603   2.549   5.783   5.666 -0.1762  0.4642  0.9387
 3214TIP3    H2 9604   2.498   5.903   5.589  1.3991  0.0775 -0.7868
 3215TIP3   OH2 9605   7.049   3.511   0.877  0.3179  0.3109  0.0833
 3215TIP3    H1 9606   6.972   3.538   0.928  0.7144  0.8090  0.4313
 3215TIP3    H2 9607   7.057   3.578   0.810  0.0003 -0.1609 -0.4369
 3216TIP3   OH2 9608   5.488   2.361   2.041  0.5923 -0.2286 -0.3889
 3216TIP3    H1 9609   5.504   2.439   2.094 -0.4827 -1.5056  1.9568
 3216TIP3    H2 9610   5.420   2.387   1.980  4.0575  2.2571 -3.6634
 3217TIP3   OH2 9611   0.311   2.382   1.190  0.6253 -0.2706 -0.3518
 3217TIP3    H1 9612   0.262   2.438   1.249  1.7931  3.2737 -2.4759
 3217TIP3    H2 9613   0.397   2.422   1.183  1.1885 -1.6500 -2.8802
 3218TIP3   OH2 9614   4.506   1.562   3.107 -0.3169 -0.1760  0.3569
 3218TIP3    H1 9615   4.544   1.474   3.116 -0.5978 -0.1727  1.8381
 3218TIP3    H2 9616   4.448   1.555   3.031 -0.1295 -1.1999  0.2910
 3219TIP3   OH2 9617   2.959   3.822   2.853 -0.7545  0.2012  0.0520
 3219TIP3    H1 9618   2.932   3.739   2.815 -0.9352 -0.2391  1.1091
 3219TIP3    H2 9619   2.922   3.889   2.794 -1.6197 -0.4374 -0.1467
 3220TIP3   OH2 9620   1.456   2.574   5.275 -0.8735  0.4018  0.3848
 3220TIP3    H1 9621   1.464   2.530   5.360  0.2758  1.9852  1.1361
 3220TIP3    H2 9622   1.544   2.603   5.254 -1.6786  3.1578  0.4067
 3221TIP3   OH2 9623   5.107   0.561   2.953 -0.2069  0.0195  0.9395
 3221TIP3    H1 9624   5.038   0.549   2.888  0.7713 -2.4466  0.2406
 3221TIP3    H2 9625   5.175   0.610   2.907 -0.6361  0.6421  0.9671
 3222TIP3   OH2 9626   4.073   2.392   0.623  0.4564  0.3885  0.4241
 3222TIP3    H1 9627   4.011   2.465   0.622  0.4468  0.3879 -1.1771
 3222TIP3    H2 9628   4.122   2.401   0.541  2.3949  0.2151  1.4960
 3223TIP3   OH2 9629   4.803   1.065   2.486  0.1352  0.2380 -0.3956
 3223TIP3    H1 9630   4.742   1.058   2.413  0.1256 -1.5813 -0.2503
 3223TIP3    H2 9631   4.750   1.045   2.563  0.4290  0.9082 -0.0041
 3224TIP3   OH2 9632   6.464   4.754   6.166 -0.2169  0.6590 -0.0155
 3224TIP3    H1 9633   6.448   4.728   6.257 -0.0855  0.8465  0.0637
 3224TIP3    H2 9634   6.538   4.700   6.139 -2.2010 -1.6957 -1.0490
 3225TIP3   OH2 9635   0.670   3.181   2.395 -0.3254 -0.2826 -0.3641
 3225TIP3    H1 9636   0.630   3.103   2.434 -0.2565 -0.4379 -0.6036
 3225TIP3    H2 9637   0.763   3.160   2.389 -0.1476  0.2129  0.5140
 3226TIP3   OH2 9638   4.258   3.726   4.264 -0.1114 -0.2130 -0.0004
 3226TIP3    H1 9639   4.297   3.683   4.340  2.0538 -0.9184 -1.3887
 3226TIP3    H2 9640   4.264   3.819   4.283 -0.2818 -0.3974  0.9880
 3227TIP3   OH2 9641   2.265   6.220   0.109  0.1116  0.3296 -0.3481
 3227TIP3    H1 9642   2.223   6.177   0.184  1.0344 -1.8403 -1.0153
 3227TIP3    H2 9643   2.350   6.178   0.102 -0.3698 -0.3412 -3.3107
 3228TIP3   OH2 9644   3.915   4.449   1.910 -0.1979  0.2976  0.2459
 3228TIP3    H1 9645   3.965   4.411   1.837  3.0755 -0.9841  2.9241
 3228TIP3    H2 9646   3.847   4.384   1.929 -0.9242  0.5212 -1.3890
 3229TIP3   OH2 9647   3.500   6.416   0.092 -0.1688 -0.5405 -0.0773
 3229TIP3    H1 9648   3.484   6.347   0.156 -0.2108 -1.4534 -1.0396
 3229TIP3    H2 9649   3.495   6.497   0.142  0.7147 -1.2681  1.2441
 3230TIP3   OH2 9650   7.587   5.344   3.787  0.1653 -0.4274  0.3682
 3230TIP3    H1 9651   7.530   5.269   3.802 -1.1955  0.3865 -0.5975
 3230TIP3    H2 9652   7.567   5.373   3.699  0.5614  1.1588  0.7654
 3231TIP3   OH2 9653   1.132   1.848   5.957 -0.0823  0.0527 -0.0506
 3231TIP3    H1 9654   1.190   1.912   5.916  0.3439 -0.3940 -0.1632
 3231TIP3    H2 9655   1.044   1.879   5.938  0.1085  0.1023 -0.9216
 3232TIP3   OH2 9656   6.684   2.876   5.332 -0.1228  0.8458  0.5879
 3232TIP3    H1 9657   6.765   2.927   5.337  0.7160 -0.4219  0.3095
 3232TIP3    H2 9658   6.694   2.823   5.253 -2.5084  2.7448 -1.1510
 3233TIP3   OH2 9659   7.079   2.744   3.311  0.4729 -0.4065 -0.7826
 3233TIP3    H1 9660   7.121   2.809   3.254  2.0889 -0.8759 -0.1789
 3233TIP3    H2 9661   7.124   2.662   3.292 -0.4246 -1.0246 -0.3390
 3234TIP3   OH2 9662   7.346   6.152   1.568 -0.5998  0.0300 -0.5132
 3234TIP3    H1 9663   7.272   6.190   1.615 -0.4456 -0.5111  0.1906
 3234TIP3    H2 9664   7.372   6.077   1.622  2.3727  1.9074  0.9102
 3235TIP3   OH2 9665   2.571   4.035   4.303 -0.2688 -0.0136 -0.5919
 3235TIP3    H1 9666   2.570   4.055   4.209 -1.6694  0.8032 -0.4215
 3235TIP3    H2 9667   2.664   4.033   4.326  0.1525 -1.3850 -2.2192
 3236TIP3   OH2 9668   6.166   0.757   0.869  0.8433  0.4484  0.2685
 3236TIP3    H1 9669   6.206   0.699   0.934  1.3868  1.5175  0.9125
 3236TIP3    H2 9670   6.119   0.698   0.810  0.4670 -0.5636  1.5398
 3237TIP3   OH2 9671   5.178   6.345   6.105  0.1020 -0.3587 -0.5427
 3237TIP3    H1 9672   5.190   6.257   6.070  0.6129  0.1773 -1.7639
 3237TIP3    H2 9673   5.215   6.341   6.193  2.3195 -0.7618 -1.4316
 3238TIP3   OH2 9674   5.834   2.529   2.353  0.2313 -0.0440 -0.3450
 3238TIP3    H1 9675   5.758   2.583   2.374 -1.6778 -1.7824 -2.3609
 3238TIP3    H2 9676   5.909   2.580   2.384 -1.7400  1.3554  2.5320
 3239TIP3   OH2 9677   1.193   6.767   0.978  0.4926  0.4344  0.3219
 3239TIP3    H1 9678   1.230   6.854   0.964 -0.1844  0.7166  0.2214
 3239TIP3    H2 9679   1.265   6.707   0.962  0.8255  0.9545 -0.1599
 3240TIP3   OH2 9680   4.405   4.995   4.853  0.1582 -0.5748  0.0497
 3240TIP3    H1 9681   4.311   5.003   4.835  0.5358  1.1178 -1.4111
 3240TIP3    H2 9682   4.440   4.946   4.778  0.7355  0.6256 -0.4848
 3241TIP3   OH2 9683   5.581   6.188   5.818 -0.2809  0.8462  0.7063
 3241TIP3    H1 9684   5.675   6.177   5.803 -0.7547  0.2113 -2.4941
 3241TIP3    H2 9685   5.544   6.102   5.802 -1.5781  1.4658  0.2417
 3242TIP3   OH2 9686   4.515   0.833   0.547  0.2941 -0.3016 -0.5622
 3242TIP3    H1 9687   4.538   0.896   0.480  1.4718 -0.6428 -0.4881
 3242TIP3    H2 9688   4.421   0.848   0.563  0.1028  0.0885 -1.9371
 3243TIP3   OH2 9689   7.544   2.310   4.645 -0.4597  0.6526 -0.2719
 3243TIP3    H1 9690   7.591   2.294   4.727  0.3922 -1.2267 -1.0718
 3243TIP3    H2 9691   7.519   2.402   4.650  0.0596  0.7422  1.8339
 3244TIP3   OH2 9692   2.972   7.071   1.011  0.1180 -0.3128  0.2426
 3244TIP3    H1 9693   3.029   7.030   0.947  0.3167 -0.1352  0.3056
 3244TIP3    H2 9694   2.884   7.066   0.972  0.4580  1.3818 -0.8637
 3245TIP3   OH2 9695   0.709   5.859   5.129 -0.2828  0.0540  0.0196
 3245TIP3    H1 9696   0.759   5.897   5.201 -0.5019 -1.3764  0.9649
 3245TIP3    H2 9697   0.770   5.857   5.056  1.5236 -2.6191  1.4218
 3246TIP3   OH2 9698   0.448   0.167   5.252 -0.2903  0.1569 -0.0396
 3246TIP3    H1 9699   0.471   0.087   5.207  0.4223 -0.0422  0.6602
 3246TIP3    H2 9700   0.357   0.184   5.227  0.2377  0.3645 -1.9795
 3247TIP3   OH2 9701   0.926   2.903   2.191 -0.6513  0.6961  0.2757
 3247TIP3    H1 9702   0.905   2.951   2.272 -0.1336 -0.1900  0.9486
 3247TIP3    H2 9703   0.841   2.881   2.154 -0.9013  0.8139  0.7653
 3248TIP3   OH2 9704   6.809   4.229   2.437  0.1450 -0.1877  0.1437
 3248TIP3    H1 9705   6.855   4.183   2.368  0.1192 -1.5017  0.9630
 3248TIP3    H2 9706   6.722   4.190   2.439 -0.1289  0.4162  0.3670
 3249TIP3   OH2 9707   7.027   1.014   5.429  0.2236 -0.3309 -0.4470
 3249TIP3    H1 9708   7.046   1.062   5.509  1.2672 -0.6805 -0.4633
 3249TIP3    H2 9709   6.935   1.032   5.411  0.0837  0.0786  0.6024
 3250TIP3   OH2 9710   3.860   2.321   3.371  0.2821  0.0772 -0.0561
 3250TIP3    H1 9711   3.804   2.248   3.345 -0.5047  1.2593 -1.9244
 3250TIP3    H2 9712   3.942   2.280   3.399 -0.5482 -1.5520  0.1136
 3251TIP3   OH2 9713   1.734   6.178   4.967 -0.5378  0.3562 -0.0775
 3251TIP3    H1 9714   1.736   6.228   5.049  2.0560  1.2678 -0.5990
 3251TIP3    H2 9715   1.733   6.245   4.898  1.9803 -0.2203 -0.7872
 3252TIP3   OH2 9716   0.341   2.688   4.462  0.4356  0.0111 -0.1295
 3252TIP3    H1 9717   0.271   2.654   4.406  0.9137 -0.3606 -0.5056
 3252TIP3    H2 9718   0.300   2.761   4.509  0.1328  0.6008 -1.2654
 3253TIP3   OH2 9719   1.968   2.962   2.139 -0.1915  0.2647  0.1771
 3253TIP3    H1 9720   1.980   2.868   2.128 -0.9916 -0.0742  1.8079
 3253TIP3    H2 9721   1.905   2.970   2.211  2.3819  2.0376  2.4906
 3254TIP3   OH2 9722   4.355   5.766   2.540 -0.0805  0.3179  0.4141
 3254TIP3    H1 9723   4.430   5.717   2.507 -0.1262  1.3745 -1.3627
 3254TIP3    H2 9724   4.282   5.737   2.485 -0.2499  1.7867 -0.1855
 3255TIP3   OH2 9725   0.311   1.782   5.703 -0.5726 -0.0928  0.0066
 3255TIP3    H1 9726   0.371   1.710   5.684  0.3275  0.9189 -1.1595
 3255TIP3    H2 9727   0.348   1.857   5.656 -2.3404  0.7482 -0.1264
 3256TIP3   OH2 9728   2.587   5.036   6.129 -0.1807  0.4376 -0.2929
 3256TIP3    H1 9729   2.511   5.071   6.176 -0.2339  1.4901 -1.1368
 3256TIP3    H2 9730   2.572   5.059   6.037  1.7184  1.7746 -0.3427
 3257TIP3   OH2 9731   1.458   7.068   6.060 -0.1560 -0.2339 -0.5042
 3257TIP3    H1 9732   1.457   7.010   6.136 -0.3182 -1.0426 -1.1069
 3257TIP3    H2 9733   1.445   7.009   5.985 -0.2252  0.5714 -1.1378
 3258TIP3   OH2 9734   7.171   4.972   4.257  0.1477 -0.7599  0.4094
 3258TIP3    H1 9735   7.079   4.997   4.270 -0.1447 -1.8199  0.5025
 3258TIP3    H2 9736   7.177   4.885   4.296  1.0266 -0.9977 -0.2402
 3259TIP3   OH2 9737   3.619   4.071   5.905 -0.2631  0.4145  0.4847
 3259TIP3    H1 9738   3.538   4.037   5.868 -1.0734  1.6790  1.0124
 3259TIP3    H2 9739   3.687   4.011   5.875 -1.6280 -1.8081  1.6162
 3260TIP3   OH2 9740   3.736   5.522   5.698 -0.1561 -0.4150  0.2172
 3260TIP3    H1 9741   3.750   5.444   5.752 -1.3898  0.1908  1.4891
 3260TIP3    H2 9742   3.823   5.547   5.669  0.2078 -2.7760 -1.0157
 3261TIP3   OH2 9743   6.156   0.007   2.068  0.4189 -0.6456 -0.2115
 3261TIP3    H1 9744   6.229   0.068   2.055  0.0099 -0.3099 -1.0008
 3261TIP3    H2 9745   6.161  -0.053   1.994 -0.1132 -0.6135 -0.2793
 3262TIP3   OH2 9746   4.461   0.474   3.901 -0.0751 -0.0397 -0.1057
 3262TIP3    H1 9747   4.464   0.505   3.991 -0.9133  1.0083 -0.4208
 3262TIP3    H2 9748   4.484   0.381   3.907 -1.1890 -0.2568  1.3092
 3263TIP3   OH2 9749   4.951   4.745   2.305 -0.3108 -0.1335 -0.7448
 3263TIP3    H1 9750   4.950   4.765   2.211  1.0978 -0.1408 -0.7810
 3263TIP3    H2 9751   4.915   4.656   2.311  0.0173 -0.3103 -1.3298
 3264TIP3   OH2 9752   0.643   6.612   4.445 -0.7129 -0.4419  0.0584
 3264TIP3    H1 9753   0.599   6.686   4.401 -1.4213 -1.3518 -0.8250
 3264TIP3    H2 9754   0.653   6.641   4.536 -0.8894  0.7732 -0.2842
 3265TIP3   OH2 9755   1.566   0.602   1.117  0.5286  0.7379 -0.3335
 3265TIP3    H1 9756   1.482   0.616   1.161 -0.0625 -0.0141 -1.1918
 3265TIP3    H2 9757   1.545   0.603   1.024  1.2391 -0.7887 -0.5372
 3266TIP3   OH2 9758   5.819   5.597   2.635 -0.0799 -0.0549 -0.2326
 3266TIP3    H1 9759   5.892   5.614   2.576 -1.7269  1.9112 -1.8382
 3266TIP3    H2 9760   5.853   5.619   2.722  1.2236  0.8914 -0.9475
 3267TIP3   OH2 9761   0.354   2.740   1.374 -0.3184  0.4472 -0.5745
 3267TIP3    H1 9762   0.397   2.795   1.440 -0.6365  0.9798 -0.8018
 3267TIP3    H2 9763   0.316   2.668   1.425  2.2335 -0.9753 -0.5498
 3268TIP3   OH2 9764   0.540   1.752   4.745 -0.1041 -0.6314  0.2084
 3268TIP3    H1 9765   0.475   1.699   4.792 -0.8785 -0.7602 -0.9790
 3268TIP3    H2 9766   0.502   1.765   4.658  0.3090  1.4252  0.2950
 3269TIP3   OH2 9767   6.031   2.758   2.111  0.0287  0.0991 -0.5517
 3269TIP3    H1 9768   6.042   2.789   2.021  2.5573  0.3012 -0.2318
 3269TIP3    H2 9769   6.085   2.817   2.163 -0.8196 -0.4715  1.0376
 3270TIP3   OH2 9770   6.602   1.688   5.589 -0.1803 -0.3272  0.3355
 3270TIP3    H1 9771   6.521   1.728   5.621  1.1048  0.4362  2.9834
 3270TIP3    H2 9772   6.667   1.758   5.594  0.9537 -1.2897 -0.3779
 3271TIP3   OH2 9773   4.306   5.491   1.896 -0.5260 -0.0760  0.3489
 3271TIP3    H1 9774   4.353   5.473   1.814  0.1883  0.0024  0.7265
 3271TIP3    H2 9775   4.259   5.410   1.915  0.5115 -0.6307  0.6371
 3272TIP3   OH2 9776   4.234   3.727   3.862  0.0988 -0.7117  0.6629
 3272TIP3    H1 9777   4.275   3.767   3.938 -2.1438  1.2949  0.9299
 3272TIP3    H2 9778   4.153   3.689   3.896  0.7109 -2.8828 -0.1606
 3273TIP3   OH2 9779   7.263   3.027   4.210  0.1478 -0.2796  0.1590
 3273TIP3    H1 9780   7.196   2.977   4.164 -0.6434  0.0038  0.9868
 3273TIP3    H2 9781   7.333   3.038   4.145 -0.1787 -1.4119 -0.4049
 3274TIP3   OH2 9782   3.837   6.873   1.763  0.0276 -0.0585  0.3214
 3274TIP3    H1 9783   3.860   6.896   1.673 -0.1638  0.3454  0.3735
 3274TIP3    H2 9784   3.842   6.777   1.765  1.2608 -0.0049  0.2227
 3275TIP3   OH2 9785   5.682   6.962   4.916 -0.0014 -0.2098 -0.3184
 3275TIP3    H1 9786   5.741   6.926   4.849  0.8507 -0.2587  0.4353
 3275TIP3    H2 9787   5.736   6.966   4.995 -0.2403  2.1633 -0.2162
 3276TIP3   OH2 9788   0.201   6.185   1.739 -0.0592  0.0069  0.3924
 3276TIP3    H1 9789   0.188   6.094   1.710 -1.3418 -0.1716  1.4415
 3276TIP3    H2 9790   0.144   6.195   1.815  0.2859  1.6203  0.4846
 3277TIP3   OH2 9791   6.562   4.371   0.142 -0.1039 -0.0996  0.2180
 3277TIP3    H1 9792   6.516   4.293   0.174 -0.2159 -2.3134 -4.3556
 3277TIP3    H2 9793   6.650   4.364   0.179 -0.9468 -0.6660  2.2561
 3278TIP3   OH2 9794   2.941   2.554   0.600 -0.1766  0.4626 -0.2285
 3278TIP3    H1 9795   2.870   2.557   0.664 -1.4895 -0.0754 -1.5989
 3278TIP3    H2 9796   2.910   2.492   0.534  1.0597  1.1363 -1.4707
 3279TIP3   OH2 9797   1.986   0.085   4.063  0.2150  0.3758 -0.2421
 3279TIP3    H1 9798   2.049   0.039   4.008  2.6865  0.6245  2.1391
 3279TIP3    H2 9799   2.023   0.172   4.075 -1.6780  1.2509 -0.3782
 3280TIP3   OH2 9800   2.443   6.599   4.207  0.0682  0.1201  0.4818
 3280TIP3    H1 9801   2.409   6.604   4.118 -0.5446  0.7360  0.7374
 3280TIP3    H2 9802   2.386   6.657   4.257  0.8227  0.3061  1.1454
 3281TIP3   OH2 9803   7.054   6.889   4.222 -0.1003 -0.1749  0.3217
 3281TIP3    H1 9804   7.023   6.817   4.278 -0.3138 -0.6455 -0.3907
 3281TIP3    H2 9805   6.979   6.909   4.166 -0.5224  1.5444  1.4095
 3282TIP3   OH2 9806   5.659   2.034   3.873  0.2099 -0.3839 -0.6354
 3282TIP3    H1 9807   5.618   2.109   3.915  0.8078  0.1787 -1.0467
 3282TIP3    H2 9808   5.747   2.031   3.910 -0.1317 -1.4951  0.1326
 3283TIP3   OH2 9809   1.317   6.637   4.318  0.0753  0.1070 -0.6006
 3283TIP3    H1 9810   1.265   6.713   4.342 -2.6685 -1.8191  0.0385
 3283TIP3    H2 9811   1.382   6.671   4.256 -3.5055  2.3757 -3.5547
 3284TIP3   OH2 9812   2.158   6.219   4.965  0.0368 -0.6148 -0.3234
 3284TIP3    H1 9813   2.112   6.220   5.050  0.3015  0.8748 -0.1697
 3284TIP3    H2 9814   2.237   6.270   4.981  0.8427 -1.5838 -1.0961
 3285TIP3   OH2 9815   2.546   1.130   0.989  0.2310  0.5675  0.1467
 3285TIP3    H1 9816   2.605   1.146   1.063  0.7680  1.2751 -0.4168
 3285TIP3    H2 9817   2.593   1.162   0.913 -0.5531  0.3852 -0.4355
 3286TIP3   OH2 9818   3.672   5.012   2.849  0.6242  0.1613  0.5481
 3286TIP3    H1 9819   3.687   5.091   2.900 -1.4499  0.4061  0.8948
 3286TIP3    H2 9820   3.595   4.971   2.890 -0.9570  0.2101 -2.1197
 3287TIP3   OH2 9821   0.723   4.640   6.008 -0.5762  0.1423 -0.2351
 3287TIP3    H1 9822   0.653   4.619   5.946 -1.7053 -1.0596  1.3957
 3287TIP3    H2 9823   0.749   4.556   6.044  0.3027  0.7963  0.6927
 3288TIP3   OH2 9824   2.542   4.153   5.331 -0.7792  0.4960  0.4949
 3288TIP3    H1 9825   2.537   4.058   5.338  0.8608 -0.0421 -3.2246
 3288TIP3    H2 9826   2.628   4.175   5.369 -0.2039  0.1492 -0.5609
 3289TIP3   OH2 9827   2.763   4.778   5.290  0.3289 -0.0679  0.1673
 3289TIP3    H1 9828   2.742   4.715   5.358  1.5407 -1.4474 -0.6563
 3289TIP3    H2 9829   2.679   4.813   5.261 -0.3075 -0.7383  1.1810
 3290TIP3   OH2 9830   1.793   6.360   4.049 -0.1328  0.1733  0.0572
 3290TIP3    H1 9831   1.727   6.376   4.116  1.5250  1.6246  1.4268
 3290TIP3    H2 9832   1.870   6.329   4.097  0.4533 -0.7495 -1.4107
 3291TIP3   OH2 9833   5.879   4.308   3.750 -0.3476 -0.3231 -0.5340
 3291TIP3    H1 9834   5.864   4.319   3.844 -0.1160 -0.6799 -0.4508
 3291TIP3    H2 9835   5.803   4.348   3.708 -0.9692 -1.0695 -0.1568
 3292TIP3   OH2 9836   7.133   4.212   5.451 -0.2301  0.7037  0.5009
 3292TIP3    H1 9837   7.123   4.194   5.544 -1.1157  0.0113  0.2875
 3292TIP3    H2 9838   7.071   4.282   5.433 -1.1098 -0.1368  0.1670
 3293TIP3   OH2 9839   3.459   1.256   1.667  0.5560 -0.0437  0.1433
 3293TIP3    H1 9840   3.505   1.183   1.708  1.3514  0.0188 -0.6118
 3293TIP3    H2 9841   3.497   1.334   1.707  0.3724 -0.0118  0.2598
 3294TIP3   OH2 9842   3.467   6.905   2.823  0.7200  0.1584  0.1850
 3294TIP3    H1 9843   3.518   6.844   2.770 -0.3079  0.2619 -0.9714
 3294TIP3    H2 9844   3.429   6.850   2.892  0.0263 -0.4933 -0.6844
 3295TIP3   OH2 9845   3.959   0.349   4.126 -0.8141  0.3555  0.1432
 3295TIP3    H1 9846   4.043   0.373   4.088 -1.1551  0.1015 -0.8062
 3295TIP3    H2 9847   3.901   0.422   4.106 -0.9004  0.3902  0.5147
 3296TIP3   OH2 9848   6.209   1.740   3.388  0.0178  0.2435 -0.2271
 3296TIP3    H1 9849   6.122   1.749   3.426  0.7543 -1.1129  1.9037
 3296TIP3    H2 9850   6.239   1.654   3.415  2.1265  0.7737 -0.7007
 3297TIP3   OH2 9851   5.223   6.904   2.124 -0.1539  0.4153  0.0055
 3297TIP3    H1 9852   5.276   6.905   2.204 -0.2158  0.1806  0.0511
 3297TIP3    H2 9853   5.189   6.814   2.119  1.2472 -0.0777 -1.2119
 3298TIP3   OH2 9854   2.660   1.169   2.322  0.5024 -0.4856  0.3498
 3298TIP3    H1 9855   2.579   1.131   2.356 -0.3328  0.3607 -0.6139
 3298TIP3    H2 9856   2.693   1.222   2.395  0.1834 -0.8224  0.7459
 3299TIP3   OH2 9857   0.323   0.947   6.198 -0.5264  0.2303  0.4408
 3299TIP3    H1 9858   0.251   0.912   6.251 -1.9238  0.7880 -1.0125
 3299TIP3    H2 9859   0.282   1.015   6.144  1.3959  1.6328  0.6326
 3300TIP3   OH2 9860   1.488   1.853   2.970 -0.4494 -0.6729  0.0917
 3300TIP3    H1 9861   1.431   1.777   2.976  0.3074 -1.3398 -0.7831
 3300TIP3    H2 9862   1.532   1.844   2.885  1.3179 -0.4669  0.9199
 3301TIP3   OH2 9863   5.685   6.387   1.066 -0.1107  0.3484 -0.0081
 3301TIP3    H1 9864   5.735   6.311   1.034  0.5981 -0.0864  1.9990
 3301TIP3    H2 9865   5.594   6.361   1.056  0.0712  0.1916 -1.5034
 3302TIP3   OH2 9866   0.892   5.918   0.158 -0.0023 -0.5031  0.2207
 3302TIP3    H1 9867   0.913   5.902   0.066 -0.6168 -0.3133  0.0461
 3302TIP3    H2 9868   0.806   5.960   0.156 -0.2990 -1.0735  0.9197
 3303TIP3   OH2 9869   5.167   5.375   4.631 -0.4094 -0.1717  0.2044
 3303TIP3    H1 9870   5.199   5.285   4.627  0.4396  0.0771  0.9481
 3303TIP3    H2 9871   5.102   5.381   4.562 -1.7782 -1.8686  1.2785
 3304TIP3   OH2 9872   3.364   6.067   4.777 -0.2528  0.2645 -0.4568
 3304TIP3    H1 9873   3.306   6.055   4.852 -0.8049  0.5040 -0.8301
 3304TIP3    H2 9874   3.440   6.113   4.812 -0.5700  0.4977 -0.0652
 3305TIP3   OH2 9875   0.480   5.775   1.835 -0.2764  0.7593 -0.3587
 3305TIP3    H1 9876   0.475   5.853   1.780  0.1239  0.6619 -0.5379
 3305TIP3    H2 9877   0.427   5.796   1.912  1.5188  2.0342  0.6050
 3306TIP3   OH2 9878   6.692   2.327   5.933 -0.3626  0.8810 -0.0622
 3306TIP3    H1 9879   6.686   2.245   5.983  1.6522  1.3205  1.0316
 3306TIP3    H2 9880   6.749   2.305   5.859 -0.8332  0.9880 -0.4550
 3307TIP3   OH2 9881   4.264   4.711   3.298 -0.2113 -0.0920  0.2317
 3307TIP3    H1 9882   4.331   4.718   3.366  1.0452 -0.9371 -0.8651
 3307TIP3    H2 9883   4.313   4.718   3.216 -1.6519  0.6225 -0.5913
 3308TIP3   OH2 9884   6.481   0.075   4.108 -0.1832  0.1142 -0.4943
 3308TIP3    H1 9885   6.550   0.121   4.060 -0.3572  1.0311  0.0998
 3308TIP3    H2 9886   6.500  -0.018   4.096 -0.1132  0.3282 -2.1499
 3309TIP3   OH2 9887   3.484   3.544   2.986  0.4951 -0.3937 -0.1626
 3309TIP3    H1 9888   3.513   3.467   2.936 -0.8378 -2.3983  1.9786
 3309TIP3    H2 9889   3.394   3.558   2.957  0.4944 -0.0846 -0.0130
 3310TIP3   OH2 9890   7.001   4.141   1.177 -0.4585  0.1792  0.4624
 3310TIP3    H1 9891   6.969   4.115   1.263 -1.9458 -0.3644 -0.2260
 3310TIP3    H2 9892   7.040   4.228   1.191 -2.1885  0.8542  1.3768
 3311TIP3   OH2 9893   1.094   1.715   5.573  0.2518 -0.0897  0.0096
 3311TIP3    H1 9894   1.006   1.747   5.555  0.5276  0.4118 -0.4995
 3311TIP3    H2 9895   1.149   1.794   5.569  0.7688 -0.4500 -0.0523
 3312TIP3   OH2 9896   2.167   0.524   0.132  0.1695  0.0722  0.1228
 3312TIP3    H1 9897   2.131   0.492   0.050  2.3437 -0.6080 -0.6354
 3312TIP3    H2 9898   2.190   0.615   0.115 -2.9111  1.1779  1.2450
 3313TIP3   OH2 9899   7.501   6.922   5.162 -0.3375 -0.5222 -0.0937
 3313TIP3    H1 9900   7.457   6.932   5.078  0.6263 -1.8244 -0.8040
 3313TIP3    H2 9901   7.589   6.957   5.148  0.1575 -1.6570  0.0426
 3314TIP3   OH2 9902   5.987   6.215   5.481 -0.9406  0.1539 -0.0770
 3314TIP3    H1 9903   6.031   6.277   5.540 -1.7655 -0.0426  0.7816
 3314TIP3    H2 9904   5.901   6.255   5.465  0.3886  1.8995 -3.9271
 3315TIP3   OH2 9905   5.078   0.148   2.118  0.0411 -0.1003  0.0373
 3315TIP3    H1 9906   5.050   0.197   2.196 -1.8844  0.7935 -1.1452
 3315TIP3    H2 9907   5.036   0.192   2.045  0.4228 -1.9346 -1.3732
 3316TIP3   OH2 9908   1.096   1.027   5.234 -0.6857  0.3682 -0.1959
 3316TIP3    H1 9909   1.002   1.025   5.248 -0.8263 -3.1852 -0.6445
 3316TIP3    H2 9910   1.133   1.049   5.320 -1.8844  1.2419  0.1098
 3317TIP3   OH2 9911   2.232   4.418   2.942  0.5170  0.2174  0.1464
 3317TIP3    H1 9912   2.312   4.445   2.897  1.4810 -0.7376  1.2299
 3317TIP3    H2 9913   2.246   4.326   2.963 -0.4788  0.2817  1.1692
 3318TIP3   OH2 9914   1.216   1.232   1.232  0.2363  0.3008 -0.1740
 3318TIP3    H1 9915   1.143   1.279   1.191 -1.2368 -0.9247  0.9055
 3318TIP3    H2 9916   1.278   1.300   1.256 -0.4953  1.3818 -1.2228
 3319TIP3   OH2 9917   5.656   1.576   5.339  0.5955  0.2905  0.0439
 3319TIP3    H1 9918   5.721   1.522   5.295 -1.5636 -2.7057  0.2398
 3319TIP3    H2 9919   5.684   1.576   5.431 -0.7419 -3.0508  0.6083
 3320TIP3   OH2 9920   3.869   4.484   4.661 -0.3555 -0.0549  0.2915
 3320TIP3    H1 9921   3.909   4.566   4.631 -0.6104  0.6009  1.6623
 3320TIP3    H2 9922   3.938   4.418   4.651 -0.6408 -0.0653 -2.3665
 3321TIP3   OH2 9923   0.305   3.157   3.499  0.2828  0.7354 -0.0041
 3321TIP3    H1 9924   0.236   3.091   3.490 -0.6447  1.6391  0.2202
 3321TIP3    H2 9925   0.316   3.167   3.594  1.4876 -0.1576 -0.0338
 3322TIP3   OH2 9926   2.759   4.026   5.097  0.5712 -0.2345 -0.3883
 3322TIP3    H1 9927   2.852   4.036   5.119  0.1789  0.1178  1.1980
 3322TIP3    H2 9928   2.733   3.945   5.140  0.3054 -0.7756 -1.5078
 3323TIP3   OH2 9929   0.703   7.056   1.522  0.2807 -0.0866  0.0827
 3323TIP3    H1 9930   0.670   7.004   1.595  0.5516 -0.0223  0.2503
 3323TIP3    H2 9931   0.628   7.106   1.492  0.2711  0.1927  0.5749
 3324TIP3   OH2 9932   4.174   6.804   3.162  0.1414  0.3190 -0.1201
 3324TIP3    H1 9933   4.084   6.834   3.151 -0.4208 -1.2713 -0.0638
 3324TIP3    H2 9934   4.228   6.881   3.142 -1.2532  2.0071  2.0775
 3325TIP3   OH2 9935   5.684   6.180   1.352  0.2233 -0.3623  0.4331
 3325TIP3    H1 9936   5.647   6.100   1.388  0.2509  0.1660  1.6893
 3325TIP3    H2 9937   5.611   6.225   1.311  0.4641 -1.6647 -1.5496
 3326TIP3   OH2 9938   0.042   5.971   0.352 -0.3033 -0.3276  0.2664
 3326TIP3    H1 9939   0.126   5.957   0.309 -0.7728 -0.1048 -0.7442
 3326TIP3    H2 9940  -0.022   5.928   0.295 -1.0365  0.6754  0.3039
 3327TIP3   OH2 9941   2.900   0.915   5.260  0.3576 -0.1219  0.0316
 3327TIP3    H1 9942   2.874   0.823   5.273  0.5885 -0.0807  0.8330
 3327TIP3    H2 9943   2.837   0.949   5.197  0.3666 -0.8810 -0.3953
 3328TIP3   OH2 9944   5.684   4.122   2.301  0.2572 -0.1139  0.5343
 3328TIP3    H1 9945   5.775   4.097   2.320 -0.2412 -1.5942  1.0857
 3328TIP3    H2 9946   5.684   4.218   2.307  1.8373 -0.0620  0.2500
 3329TIP3   OH2 9947   1.829   1.003   3.135 -1.1946  0.0549  0.1262
 3329TIP3    H1 9948   1.856   0.972   3.222 -1.1457 -1.6511 -0.4655
 3329TIP3    H2 9949   1.911   1.028   3.092 -1.2973  1.8154  0.8615
 3330TIP3   OH2 9950   2.945   1.103   2.734 -0.7946  0.4273  0.2108
 3330TIP3    H1 9951   3.032   1.065   2.746  0.2907  2.5171 -0.4806
 3330TIP3    H2 9952   2.895   1.037   2.686  0.3981 -0.8099  0.6419
 3331TIP3   OH2 9953   2.371   1.169   4.080 -0.4060 -0.7307  0.6107
 3331TIP3    H1 9954   2.403   1.085   4.049 -0.3707 -0.4601 -0.1117
 3331TIP3    H2 9955   2.310   1.147   4.151 -0.3431 -1.3561  0.4748
 3332TIP3   OH2 9956   2.262   6.595   5.185 -0.2669 -0.4081  0.5392
 3332TIP3    H1 9957   2.343   6.645   5.173 -0.2335 -0.6238 -0.2633
 3332TIP3    H2 9958   2.219   6.636   5.259 -2.6472  4.1417 -2.8285
 3333TIP3   OH2 9959   0.612   4.840   3.948  0.2114  0.3541 -0.2808
 3333TIP3    H1 9960   0.702   4.872   3.944  0.3053  0.0562 -0.6709
 3333TIP3    H2 9961   0.597   4.801   3.861 -0.6895  1.4795 -0.6566
 3334TIP3   OH2 9962   6.997   2.926   2.904 -0.4120  0.1819 -0.2002
 3334TIP3    H1 9963   7.087   2.909   2.874 -0.6869 -0.7072 -0.5512
 3334TIP3    H2 9964   6.964   2.993   2.844 -0.6288 -0.8881 -1.3330
 3335TIP3   OH2 9965   1.368   2.454   2.163  0.3085  0.6639 -0.8571
 3335TIP3    H1 9966   1.378   2.505   2.243 -2.2422 -1.2274  0.7974
 3335TIP3    H2 9967   1.415   2.372   2.180  1.9141  1.1812 -2.3801
 3336TIP3   OH2 9968   2.331   2.071   4.201  0.0814  0.5864  0.0671
 3336TIP3    H1 9969   2.371   2.158   4.209 -1.1785  1.1223  0.7195
 3336TIP3    H2 9970   2.393   2.012   4.245  0.4940  1.2845  0.4397
 3337TIP3   OH2 9971   6.574   4.707   2.503 -0.4417 -0.2287  0.3560
 3337TIP3    H1 9972   6.490   4.729   2.462 -0.9977 -0.0986  1.5214
 3337TIP3    H2 9973   6.587   4.615   2.483 -0.4704 -0.0554 -0.4990
 3338TIP3   OH2 9974   0.681   1.698   2.521 -0.9741 -0.5717  0.0896
 3338TIP3    H1 9975   0.633   1.694   2.604 -1.5326 -0.6479 -0.2299
 3338TIP3    H2 9976   0.612   1.693   2.454 -0.5670 -0.0230 -0.3725
 3339TIP3   OH2 9977   7.271   2.892   0.987  0.1766  0.0469  0.5932
 3339TIP3    H1 9978   7.216   2.946   0.931 -1.3623 -1.1300  0.9013
 3339TIP3    H2 9979   7.255   2.925   1.075 -1.3656 -1.2882  0.8798
 3340TIP3   OH2 9980   7.078   6.920   6.111  0.5747  0.0406 -0.8329
 3340TIP3    H1 9981   7.033   6.863   6.173 -2.3031  0.1006 -2.6975
 3340TIP3    H2 9982   7.156   6.870   6.086  0.3021 -1.2213  0.6662
 3341TIP3   OH2 9983   4.897   4.097   2.984  0.0423  0.1537  0.0893
 3341TIP3    H1 9984   4.872   4.176   3.034 -0.7066  0.4217 -0.6829
 3341TIP3    H2 9985   4.956   4.050   3.043  0.2008  1.1003  0.7237
 3342TIP3   OH2 9986   1.993   5.827   4.272  0.4871 -0.4169 -0.3047
 3342TIP3    H1 9987   1.909   5.788   4.249  0.7530 -0.6621 -0.8769
 3342TIP3    H2 9988   1.993   5.829   4.368  0.4910 -1.8947 -0.2538
 3343TIP3   OH2 9989   5.766   7.007   5.881 -0.4344  0.2319  0.5406
 3343TIP3    H1 9990   5.712   7.014   5.802  1.0607  0.8181 -0.4697
 3343TIP3    H2 9991   5.751   6.918   5.912  1.3920 -1.2073 -2.2878
 3344TIP3   OH2 9992   0.728   3.842   0.889  0.2356 -0.8024  0.6255
 3344TIP3    H1 9993   0.766   3.835   0.977  0.2875 -1.8173  0.5315
 3344TIP3    H2 9994   0.795   3.808   0.831  1.0222  1.6801 -0.0723
 3345TIP3   OH2 9995   0.020   6.588   3.383 -0.1701 -0.5770 -0.2142
 3345TIP3    H1 9996   0.086   6.555   3.444 -0.7459 -0.7527  0.3145
 3345TIP3    H2 9997  -0.034   6.647   3.434  0.3560  0.5997 -0.9655
 3346TIP3   OH2 9998   4.164   6.578   4.120 -0.2964 -0.0138  0.0472
 3346TIP3    H1 9999   4.226   6.511   4.094 -0.1501  0.1939 -0.1398
 3346TIP3    H210000   4.216   6.658   4.125 -0.4536  0.0744  0.3417
 3347TIP3   OH210001   2.511   3.511   1.015 -0.3982 -0.6761  0.3788
 3347TIP3    H110002   2.547   3.434   0.971  0.4262 -2.2789  3.5222
 3347TIP3    H210003   2.587   3.556   1.051 -1.0934 -0.8638  2.2091
 3348TIP3   OH210004   7.291   4.086   6.037 -0.1328  0.5587  0.0181
 3348TIP3    H110005   7.292   3.994   6.062 -0.1677  0.1995 -1.2376
 3348TIP3    H210006   7.207   4.099   5.994 -0.6757  1.5105  1.2862
 3349TIP3   OH210007   4.219   5.023   5.166 -0.8918 -0.2023  0.0240
 3349TIP3    H110008   4.232   4.929   5.160  1.1302  0.0604 -0.4916
 3349TIP3    H210009   4.209   5.040   5.259  0.4852 -0.7751  0.3099
 3350TIP3   OH210010   5.284   3.308   0.342  0.0623  0.1546 -0.2456
 3350TIP3    H110011   5.249   3.219   0.329 -1.8515  0.6203  1.2463
 3350TIP3    H210012   5.212   3.356   0.383  1.2225  2.2902 -0.5865
 3351TIP3   OH210013   7.013   4.530   1.898 -0.6697  0.5028 -0.3600
 3351TIP3    H110014   7.092   4.574   1.931 -0.0534 -1.2486  0.6125
 3351TIP3    H210015   6.969   4.597   1.845  1.9617  1.2525 -1.7798
 3352TIP3   OH210016   5.580   0.718   1.934  0.3517 -0.0893 -0.5085
 3352TIP3    H110017   5.526   0.786   1.894  0.8861  1.6643  1.5438
 3352TIP3    H210018   5.604   0.660   1.862  1.3193  2.8658 -2.7582
 3353TIP3   OH210019   0.532   0.562   4.404  0.2635 -0.0034 -0.6807
 3353TIP3    H110020   0.621   0.525   4.404 -0.1460 -1.0237 -0.5314
 3353TIP3    H210021   0.476   0.488   4.426 -0.4215  1.1515  1.8187
 3354TIP3   OH210022   1.080   2.906   5.040 -0.1782 -0.6796  0.4420
 3354TIP3    H110023   1.155   2.856   5.071  0.7102 -0.1305 -0.7478
 3354TIP3    H210024   1.105   2.997   5.054 -0.6683 -0.4918  0.1118
 3355TIP3   OH210025   5.012   3.649   3.866 -0.7317 -0.3733  0.4579
 3355TIP3    H110026   5.018   3.598   3.947  2.6126  0.5420  0.9387
 3355TIP3    H210027   5.078   3.611   3.808  0.7230  2.2004  0.2402
 3356TIP3   OH210028   3.343   0.531   1.509  0.4351 -0.0600 -0.1651
 3356TIP3    H110029   3.301   0.446   1.516  1.3667 -0.4620  0.9945
 3356TIP3    H210030   3.278   0.587   1.468 -1.2316 -0.6566  1.5010
 3357TIP3   OH210031   3.095   5.875   2.044 -0.6724 -0.3682  0.4653
 3357TIP3    H110032   3.047   5.793   2.034  0.0721 -0.7669  0.1299
 3357TIP3    H210033   3.186   5.852   2.030 -0.5160  0.6464 -0.3350
 3358TIP3   OH210034   4.000   0.610   4.745  0.1382  0.2713 -0.0562
 3358TIP3    H110035   3.946   0.666   4.800 -0.4053 -0.5121  0.2268
 3358TIP3    H210036   4.011   0.659   4.664  0.2328  1.0694  0.4226
 3359TIP3   OH210037   2.203   3.072   3.092 -0.7122  0.3525 -0.0208
 3359TIP3    H110038   2.145   3.144   3.116 -1.1367 -0.2603  0.8042
 3359TIP3    H210039   2.145   3.001   3.066 -0.2927  0.3375 -0.9653
 3360TIP3   OH210040   6.543   6.031   3.715  0.1264 -0.0956 -0.5583
 3360TIP3    H110041   6.452   6.036   3.684 -0.1861  0.3217  0.3822
 3360TIP3    H210042   6.580   6.117   3.694  0.3496 -0.3042 -1.0440
 3361TIP3   OH210043   4.434   0.362   0.894  0.0870 -0.7887  0.0788
 3361TIP3    H110044   4.435   0.453   0.865  0.1101 -0.8914 -0.2403
 3361TIP3    H210045   4.367   0.320   0.840 -0.1882 -0.8774  0.4823
 3362TIP3   OH210046   0.188   6.482   5.737  0.4431  0.2274  0.2872
 3362TIP3    H110047   0.223   6.400   5.772  0.4528  0.2000  0.2131
 3362TIP3    H210048   0.094   6.477   5.752  0.5483  0.6415  1.2032
 3363TIP3   OH210049   0.642   0.293   3.551  0.8899 -0.0702  0.4095
 3363TIP3    H110050   0.700   0.363   3.522 -1.1749  1.4639 -0.2611
 3363TIP3    H210051   0.608   0.322   3.636  0.8293 -0.7737  0.6365
 3364TIP3   OH210052   6.414   5.527   4.158 -0.2847  0.2682  0.2218
 3364TIP3    H110053   6.451   5.605   4.202  0.0368  0.4279 -0.3226
 3364TIP3    H210054   6.471   5.514   4.082 -0.1232 -0.7143  0.4992
 3365TIP3   OH210055   0.710   4.460   2.857  0.0627 -0.2157  0.2662
 3365TIP3    H110056   0.701   4.452   2.952 -1.9808 -1.1612  0.0364
 3365TIP3    H210057   0.796   4.421   2.839  0.8815  0.7493  1.7688
 3366TIP3   OH210058   5.376   7.167   1.811  0.3989  0.1786 -0.1078
 3366TIP3    H110059   5.318   7.090   1.818 -0.8561  1.0764 -0.3064
 3366TIP3    H210060   5.359   7.217   1.891  2.3369 -0.4609  0.7701
 3367TIP3   OH210061   2.656   2.937   0.164  0.0666 -0.0529  0.2176
 3367TIP3    H110062   2.643   3.032   0.174  2.0662  0.2372  0.6337
 3367TIP3    H210063   2.569   2.900   0.171 -0.6697  1.6932  1.0045
 3368TIP3   OH210064   3.100   7.106   5.617 -0.0473 -0.2085  0.0156
 3368TIP3    H110065   3.181   7.066   5.649 -0.5144  0.2658  1.9111
 3368TIP3    H210066   3.042   7.108   5.693 -2.5575 -2.1623 -1.6396
 3369TIP3   OH210067   0.713   1.414   0.091  0.2368  0.4219 -0.1197
 3369TIP3    H110068   0.693   1.442   0.002 -2.8951 -0.0041  0.3399
 3369TIP3    H210069   0.648   1.346   0.111  4.1182 -3.5254  0.6998
 3370TIP3   OH210070   7.168   4.313   5.006  0.3483 -0.1019  0.1478
 3370TIP3    H110071   7.165   4.408   4.991  1.2326 -0.1318 -0.2609
 3370TIP3    H210072   7.149   4.303   5.099 -2.0867  0.3057 -0.2467
 3371TIP3   OH210073   2.403   6.046   3.512  0.3972  0.7856 -0.6264
 3371TIP3    H110074   2.390   6.128   3.464 -1.0640  1.4174  0.7906
 3371TIP3    H210075   2.354   5.981   3.461 -1.2853  1.4817  0.0409
 3372TIP3   OH210076   4.058   1.595   1.428 -0.8196  0.5625 -0.2062
 3372TIP3    H110077   4.043   1.642   1.346 -0.5648  1.2805  0.1576
 3372TIP3    H210078   3.971   1.583   1.465 -1.0117 -0.4007 -0.9171
 3373TIP3   OH210079   6.201   1.069   3.994 -0.2101  0.0820  0.1508
 3373TIP3    H110080   6.241   1.052   3.909 -0.6027 -0.0284 -0.0139
 3373TIP3    H210081   6.249   1.144   4.029 -1.7567  1.8688 -1.3374
 3374TIP3   OH210082   5.846   4.591   6.054 -0.3561 -0.7727 -0.7687
 3374TIP3    H110083   5.884   4.547   5.978  0.0952  1.1373 -1.6954
 3374TIP3    H210084   5.906   4.571   6.126  0.7747 -0.2977 -1.5489
 3375TIP3   OH210085   4.745   6.345   3.097 -0.0735 -0.6818  0.4963
 3375TIP3    H110086   4.805   6.416   3.117  0.2624 -1.2958  1.7760
 3375TIP3    H210087   4.755   6.331   3.002  2.5916 -1.4319  0.8022
 3376TIP3   OH210088   5.957   1.790   3.484  0.0019 -0.2039  0.2461
 3376TIP3    H110089   5.953   1.867   3.541  0.1337  1.1979 -1.5375
 3376TIP3    H210090   5.865   1.764   3.472  0.0115 -0.8749  1.5370
 3377TIP3   OH210091   2.869   4.569   5.151  0.1066 -0.1812  0.4068
 3377TIP3    H110092   2.831   4.645   5.195 -0.0231  0.0532 -0.0962
 3377TIP3    H210093   2.810   4.497   5.171 -1.1795  0.3657 -1.1436
 3378TIP3   OH210094   2.789   0.951   4.378 -0.3528  0.1631 -0.0248
 3378TIP3    H110095   2.730   0.875   4.383  0.6263 -0.9106 -2.7543
 3378TIP3    H210096   2.874   0.917   4.404 -0.4427  1.1824  1.7830
 3379TIP3   OH210097   6.883   3.041   5.434  0.1160  0.4429  0.3887
 3379TIP3    H110098   6.946   3.002   5.495  0.6415 -0.7743 -0.8790
 3379TIP3    H210099   6.888   3.135   5.451 -0.3254  0.1212  2.7349
 3380TIP3   OH210100   4.369   0.567   2.714  0.1262  0.2545 -0.1205
 3380TIP3    H110101   4.399   0.655   2.691 -0.3684  0.4921  0.1348
 3380TIP3    H210102   4.438   0.532   2.770 -0.1453  0.8696  0.6189
 3381TIP3   OH210103   3.735   5.826   5.816 -0.1557  0.0189  0.2709
 3381TIP3    H110104   3.774   5.814   5.903 -0.2514  0.5096  0.3877
 3381TIP3    H210105   3.693   5.742   5.796  2.6269 -1.2335 -0.7414
 3382TIP3   OH210106   6.802   5.039   1.170 -0.1955  0.0855 -0.0310
 3382TIP3    H110107   6.741   4.996   1.110  0.3937  1.3446 -1.6008
 3382TIP3    H210108   6.836   5.114   1.121  0.8581  0.7683  1.6391
 3383TIP3   OH210109   1.501   3.429   5.535 -0.1111  0.4721 -0.2505
 3383TIP3    H110110   1.529   3.521   5.544 -1.0871  0.7777 -0.2459
 3383TIP3    H210111   1.531   3.388   5.616  1.6547  0.4146 -0.8894
 3384TIP3   OH210112   4.284   4.177   0.331 -0.0455 -0.4998  0.3817
 3384TIP3    H110113   4.216   4.112   0.315  0.8600 -1.2320 -0.6748
 3384TIP3    H210114   4.362   4.126   0.351  0.5206  0.2733  0.2197
 3385TIP3   OH210115   6.591   3.507   1.702  0.0984 -0.7032  0.2034
 3385TIP3    H110116   6.672   3.537   1.661  0.0080  0.9403  1.1203
 3385TIP3    H210117   6.524   3.521   1.635  0.3838 -0.8466 -0.1145
 3386TIP3   OH210118   1.495   4.211   2.848  0.1508 -0.8957  0.3089
 3386TIP3    H110119   1.526   4.218   2.758 -0.1128 -1.4300  0.1731
 3386TIP3    H210120   1.510   4.298   2.885  0.4773 -0.7370 -0.1780
 3387TIP3   OH210121   5.829   4.574   2.766 -0.1396  0.1835  0.1547
 3387TIP3    H110122   5.851   4.512   2.836  2.3702 -1.4912 -1.8975
 3387TIP3    H210123   5.762   4.529   2.715  0.4055 -0.0614 -0.3478
 3388TIP3   OH210124   4.229   5.043   0.912  0.3855  0.1258 -0.1358
 3388TIP3    H110125   4.173   5.120   0.901  1.8736  0.9270 -2.9887
 3388TIP3    H210126   4.209   4.988   0.837 -0.0833 -2.0089  1.4501
 3389TIP3   OH210127   1.312   7.051   0.920  0.7192 -0.0595 -0.3338
 3389TIP3    H110128   1.369   7.107   0.972 -3.4664  2.8028  1.8121
 3389TIP3    H210129   1.259   7.112   0.868 -0.9684 -2.3453 -1.4942
 3390TIP3   OH210130   2.395   7.088   5.724  0.6957 -0.9548 -0.4063
 3390TIP3    H110131   2.472   7.145   5.728  0.0024 -0.0358  0.3137
 3390TIP3    H210132   2.353   7.098   5.810 -1.6447  0.6161 -1.6271
 3391TIP3   OH210133   1.550   3.395   0.119  0.3832  0.2150 -0.0041
 3391TIP3    H110134   1.554   3.379   0.213  0.7115  0.2860 -0.0048
 3391TIP3    H210135   1.458   3.381   0.096  0.3934 -0.2704  0.2409
 3392TIP3   OH210136   3.282   0.569   4.028 -0.0742 -0.4323 -0.3146
 3392TIP3    H110137   3.210   0.630   4.010  0.7584  1.6820  2.6879
 3392TIP3    H210138   3.245   0.508   4.092  0.0850 -0.9964 -0.7534
 3393TIP3   OH210139   5.309   5.893   4.830 -0.3048 -0.4375 -0.6722
 3393TIP3    H110140   5.306   5.862   4.920 -0.1600 -1.2897 -0.9498
 3393TIP3    H210141   5.305   5.814   4.777  0.4351 -0.0121 -1.4034
 3394TIP3   OH210142   7.601   1.704   4.801  0.1759  0.1654  0.1655
 3394TIP3    H110143   7.610   1.745   4.714  0.1771 -1.5788 -0.7028
 3394TIP3    H210144   7.550   1.625   4.785 -0.8039  0.3806  1.9726
 3395TIP3   OH210145   7.079   2.668   3.821  0.2428  0.4058  0.0704
 3395TIP3    H110146   7.130   2.681   3.741  0.6006  1.7915  0.5046
 3395TIP3    H210147   7.028   2.588   3.804  2.6922 -1.1908 -0.2925
 3396TIP3   OH210148   0.073   2.737   2.503  0.2676  0.1738 -0.3399
 3396TIP3    H110149   0.062   2.759   2.410 -0.6005 -0.1621 -0.3272
 3396TIP3    H210150   0.005   2.787   2.548  1.2758  1.0620  0.2408
 3397TIP3   OH210151   3.525   3.013   0.761 -0.0965  0.1170  0.1060
 3397TIP3    H110152   3.604   2.980   0.804  0.4136  0.1003 -0.8261
 3397TIP3    H210153   3.468   3.040   0.833  1.0641  0.8501  0.7773
 3398TIP3   OH210154   3.316   0.301   6.033  0.2171  0.0474  0.5340
 3398TIP3    H110155   3.367   0.222   6.011  0.8559  0.0721  1.8381
 3398TIP3    H210156   3.240   0.267   6.079  0.1262  0.1467  0.4554
 3399TIP3   OH210157   0.987   4.429   4.179 -0.2262  0.0042 -0.3283
 3399TIP3    H110158   0.964   4.386   4.097  0.5372  0.2280 -0.6693
 3399TIP3    H210159   0.903   4.453   4.218 -0.6095 -0.5256 -0.8152
 3400TIP3   OH210160   6.471   1.869   1.110  0.1569  0.1616  0.0991
 3400TIP3    H110161   6.556   1.873   1.065  0.5050 -2.5033  0.3655
 3400TIP3    H210162   6.485   1.917   1.191  2.1470 -1.9307  1.1084
 3401TIP3   OH210163   6.964   3.081   1.770 -0.7116  0.2583  0.1000
 3401TIP3    H110164   6.997   3.044   1.688  0.5983  1.7016 -0.0789
 3401TIP3    H210165   6.905   3.151   1.742 -0.2239  0.7858  0.3626
 3402TIP3   OH210166   0.772   1.606   5.172 -0.1674  0.1370  0.5309
 3402TIP3    H110167   0.745   1.558   5.250  0.5791 -0.2968  0.5389
 3402TIP3    H210168   0.868   1.605   5.176  0.1002  4.9772  2.6399
 3403TIP3   OH210169   6.167   6.342   0.644 -0.2665  0.1135 -0.3933
 3403TIP3    H110170   6.081   6.335   0.602 -1.0469  0.4476  1.0772
 3403TIP3    H210171   6.195   6.252   0.658 -0.5946 -0.0014 -0.4747
 3404TIP3   OH210172   6.434   5.324   1.674 -0.6008 -0.0264 -0.1207
 3404TIP3    H110173   6.471   5.401   1.632  0.4491  0.0896  0.9851
 3404TIP3    H210174   6.340   5.343   1.680 -0.5309  0.6364 -0.9374
 3405TIP3   OH210175   6.076   3.889   2.805  0.5927 -0.4184 -0.6493
 3405TIP3    H110176   6.010   3.830   2.843  0.4715 -0.2454 -0.5911
 3405TIP3    H210177   6.063   3.972   2.850 -0.3026  0.1272 -1.8707
 3406TIP3   OH210178   0.988   3.537   0.965 -0.0881 -0.2101  0.3629
 3406TIP3    H110179   0.933   3.495   1.031 -1.2172 -1.5749 -1.3451
 3406TIP3    H210180   0.957   3.501   0.882  0.9345  1.8011 -0.9771
 3407TIP3   OH210181   3.791   1.124   5.595  0.1581  0.4508  0.1600
 3407TIP3    H110182   3.724   1.163   5.539 -1.3514 -1.5039  0.5097
 3407TIP3    H210183   3.856   1.194   5.606 -2.1945  2.7388  0.5358
 3408TIP3   OH210184   5.678   1.300   0.132 -0.2709 -0.1574  0.0076
 3408TIP3    H110185   5.732   1.366   0.175  0.3516 -0.7646  0.1668
 3408TIP3    H210186   5.737   1.226   0.117 -1.3874 -1.4011  1.4539
 3409TIP3   OH210187   2.751   2.175   3.254 -0.0382 -0.0167  0.1509
 3409TIP3    H110188   2.808   2.099   3.243 -0.2184 -0.1677  0.2587
 3409TIP3    H210189   2.662   2.141   3.246 -0.1205  0.6787 -2.9971
 3410TIP3   OH210190   1.388   0.385   4.448 -0.6438 -0.1188 -0.1588
 3410TIP3    H110191   1.414   0.318   4.385  0.4620  1.1405 -1.1114
 3410TIP3    H210192   1.470   0.425   4.476 -1.2907  1.1181  0.0603
 3411TIP3   OH210193   0.681   1.324   3.458 -0.2671  0.3812 -0.3343
 3411TIP3    H110194   0.629   1.310   3.537  0.1964  0.5261  0.0014
 3411TIP3    H210195   0.617   1.332   3.388 -0.7346  1.2505  0.1738
 3412TIP3   OH210196   5.142   1.276   0.533 -0.4052 -0.3186  0.1486
 3412TIP3    H110197   5.066   1.331   0.514  0.5381  1.1262  0.3625
 3412TIP3    H210198   5.169   1.242   0.447 -2.0327 -1.9238  0.2251
 3413TIP3   OH210199   0.975   1.950   1.747  0.3112  0.1448  0.0128
 3413TIP3    H110200   0.924   1.873   1.772 -0.2811  1.2893  2.7527
 3413TIP3    H210201   1.058   1.915   1.714 -1.0438 -1.6752 -1.7307
 3414TIP3   OH210202   4.172   6.294   3.288  0.0552 -0.1182 -0.1779
 3414TIP3    H110203   4.103   6.312   3.224  0.4271 -1.2735 -0.9282
 3414TIP3    H210204   4.253   6.318   3.243  0.2670 -0.2896  0.1118
 3415TIP3   OH210205   2.678   3.752   1.261 -0.5800  0.8565  0.4895
 3415TIP3    H110206   2.599   3.795   1.228 -1.0841 -0.0095  0.5335
 3415TIP3    H210207   2.684   3.781   1.353  0.2478  2.4420 -0.0205
 3416TIP3   OH210208   6.167   2.163   3.937 -0.0586  0.3080 -0.6266
 3416TIP3    H110209   6.168   2.141   3.844  0.8753  0.7307 -0.7332
 3416TIP3    H210210   6.203   2.086   3.981 -1.6453 -0.3851 -0.4712
 3417TIP3   OH210211   5.648   5.741   0.072 -0.9145  0.2929  0.0000
 3417TIP3    H110212   5.657   5.802  -0.001 -0.2234  0.2462  0.0421
 3417TIP3    H210213   5.720   5.762   0.131  0.0561 -1.3191 -0.5389
 3418TIP3   OH210214   5.666   2.206   4.478  1.0746  0.1891 -0.1061
 3418TIP3    H110215   5.619   2.123   4.466  3.2207 -1.4103  1.6973
 3418TIP3    H210216   5.682   2.238   4.389 -1.7593 -0.0593 -0.8159
 3419TIP3   OH210217   6.902   0.400   0.822  0.1736 -0.1518 -0.4618
 3419TIP3    H110218   6.810   0.381   0.801 -0.2431  1.7291 -0.5547
 3419TIP3    H210219   6.902   0.416   0.916  0.3534  0.0489 -0.4954
 3420TIP3   OH210220   0.587   4.185   4.762  0.3229  0.3173  0.5835
 3420TIP3    H110221   0.581   4.234   4.845  1.9435 -0.4030  1.1817
 3420TIP3    H210222   0.575   4.252   4.694 -0.2741  1.0621  1.3953
 3421TIP3   OH210223   2.895   4.183   5.984 -0.2364  0.3530  0.1484
 3421TIP3    H110224   2.850   4.123   5.924  1.0031  0.7499 -1.2198
 3421TIP3    H210225   2.956   4.128   6.032 -1.7198 -0.0912  1.6182
 3422TIP3   OH210226   0.643   6.941   4.590  0.3016  0.0625 -0.1364
 3422TIP3    H110227   0.599   6.946   4.504 -1.9850 -0.4091  0.9267
 3422TIP3    H210228   0.587   6.884   4.642  1.4663  0.5939  1.7925
 3423TIP3   OH210229   6.922   3.666   1.699  0.1885 -0.3167  0.6682
 3423TIP3    H110230   6.936   3.634   1.788 -0.4843 -0.3457  0.7754
 3423TIP3    H210231   7.005   3.650   1.654  0.5563 -0.2355  1.3068
 3424TIP3   OH210232   3.261   0.948   5.716 -0.3779 -0.0272 -0.1286
 3424TIP3    H110233   3.224   0.923   5.632 -0.0989  0.6390 -0.4617
 3424TIP3    H210234   3.186   0.957   5.775 -0.4205 -2.6688  0.3182
 3425TIP3   OH210235   1.810   3.652   3.630  0.0630  0.0210 -0.3546
 3425TIP3    H110236   1.802   3.699   3.547  1.4092  0.0399 -0.5055
 3425TIP3    H210237   1.816   3.559   3.604 -0.8789 -0.1041 -0.1705
 3426TIP3   OH210238   2.130   4.254   2.088 -0.5909  0.0759 -0.1403
 3426TIP3    H110239   2.039   4.261   2.058 -1.0036 -0.0776  1.0155
 3426TIP3    H210240   2.123   4.214   2.175  0.6393 -0.6822 -0.3708
 3427TIP3   OH210241   2.184   2.269   2.791  0.4862  0.2494  0.1921
 3427TIP3    H110242   2.133   2.277   2.710 -0.4112  0.7830  0.7968
 3427TIP3    H210243   2.274   2.256   2.761 -0.0628 -1.4025 -0.9118
 3428TIP3   OH210244   2.287   4.788   1.415 -0.0556 -0.2057 -0.1994
 3428TIP3    H110245   2.367   4.786   1.467 -0.3750 -2.5332  0.2830
 3428TIP3    H210246   2.216   4.776   1.478 -0.4979 -2.3552 -1.0302
 3429TIP3   OH210247   5.713   0.934   5.663 -0.0671 -0.3974 -0.3053
 3429TIP3    H110248   5.774   0.981   5.606 -0.0341 -1.1002 -0.8597
 3429TIP3    H210249   5.635   0.920   5.609  0.3294 -1.9284 -0.5373
 3430TIP3   OH210250   4.105   5.283   1.927 -0.2337 -0.7348  0.1136
 3430TIP3    H110251   4.076   5.279   2.019 -0.7839 -2.4379 -0.0918
 3430TIP3    H210252   4.083   5.196   1.892 -2.7934  0.7832 -2.4918
 3431TIP3   OH210253   3.970   6.128   1.200  0.2517 -0.3388 -0.0840
 3431TIP3    H110254   3.884   6.089   1.188  0.2619 -0.1812 -0.7109
 3431TIP3    H210255   4.030   6.053   1.199  0.1466 -0.4268  0.1070
 3432TIP3   OH210256   6.622   3.090   5.694  0.0656 -0.1988  0.7090
 3432TIP3    H110257   6.702   3.070   5.646  0.5955 -0.2320  1.5801
 3432TIP3    H210258   6.647   3.162   5.753 -0.3981 -0.5438  1.3441
 3433TIP3   OH210259   4.467   1.390   5.412 -0.2790 -0.2284  0.1907
 3433TIP3    H110260   4.509   1.420   5.492 -0.1162  0.3979 -0.1218
 3433TIP3    H210261   4.455   1.296   5.425  0.1647 -0.2117  0.7604
 3434TIP3   OH210262   5.865   2.183   4.239  0.1538 -0.0976 -0.0763
 3434TIP3    H110263   5.912   2.118   4.186  0.5744 -0.2781  0.5119
 3434TIP3    H210264   5.932   2.226   4.291 -0.3099 -0.2777  0.6903
 3435TIP3   OH210265   4.423   4.681   2.037 -0.0125 -0.0502  0.3021
 3435TIP3    H110266   4.375   4.761   2.015 -0.5365 -0.6504 -0.8850
 3435TIP3    H210267   4.445   4.642   1.952  1.9824 -0.1687  0.8267
 3436TIP3   OH210268   2.032   3.357   5.150 -0.5117  0.2031  0.2664
 3436TIP3    H110269   1.939   3.339   5.136 -0.1085 -1.1582 -0.8644
 3436TIP3    H210270   2.034   3.444   5.189 -2.2440  0.3864  0.0040
 3437TIP3   OH210271   5.321   4.146   3.102  0.4587 -0.6162  0.4676
 3437TIP3    H110272   5.325   4.180   3.013  0.5327 -1.5061  0.1188
 3437TIP3    H210273   5.352   4.218   3.157 -1.6833  0.7284  0.0172
 3438TIP3   OH210274   0.507   4.983   0.839  0.5282  0.2674 -0.3614
 3438TIP3    H110275   0.440   5.035   0.883  0.6100  0.2258 -0.1900
 3438TIP3    H210276   0.459   4.909   0.801  0.6589 -0.4635  0.8571
 3439TIP3   OH210277   4.695   5.400   4.065  0.5147  0.6978  0.4964
 3439TIP3    H110278   4.674   5.452   4.143 -2.1481  1.1265 -0.4031
 3439TIP3    H210279   4.610   5.378   4.027  1.6950 -0.6987 -1.5363
 3440TIP3   OH210280   3.104   6.961   0.795 -0.3458 -0.4792 -0.2857
 3440TIP3    H110281   3.053   6.891   0.836  1.2419 -1.0040  0.8877
 3440TIP3    H210282   3.172   6.916   0.746  0.0456  0.2122 -0.3995
 3441TIP3   OH210283   7.192   4.964   6.177  0.6837 -0.0229 -0.2203
 3441TIP3    H110284   7.150   5.050   6.182  1.2470  0.1803  1.6289
 3441TIP3    H210285   7.270   4.972   6.232 -0.4036 -2.3426  1.8668
 3442TIP3   OH210286   3.025   6.470   0.448 -0.4526 -0.5627  0.0857
 3442TIP3    H110287   2.968   6.474   0.372 -1.0598 -0.1363  0.5525
 3442TIP3    H210288   3.100   6.417   0.420  0.5716  1.6223 -1.6299
 3443TIP3   OH210289   5.845   5.604   3.614 -0.3714  0.0153 -0.3974
 3443TIP3    H110290   5.809   5.629   3.529  0.2892  0.5490 -0.5198
 3443TIP3    H210291   5.785   5.643   3.678  0.2272  1.2900 -0.5959
 3444TIP3   OH210292   4.715   3.670   0.571  0.1836 -0.0935  0.1276
 3444TIP3    H110293   4.729   3.576   0.586  1.2228 -0.6892 -3.5104
 3444TIP3    H210294   4.620   3.680   0.570  0.0515 -1.1749  0.3179
 3445TIP3   OH210295   4.337   3.294   5.318 -0.2767 -0.3778 -0.1967
 3445TIP3    H110296   4.409   3.327   5.371 -0.3346  1.5972 -1.2349
 3445TIP3    H210297   4.258   3.323   5.364 -0.3726 -0.7338 -0.1341
 3446TIP3   OH210298   7.365   2.486   5.208 -0.3945 -0.1974 -0.4827
 3446TIP3    H110299   7.302   2.523   5.270  2.1211  0.9062  1.6097
 3446TIP3    H210300   7.393   2.561   5.154 -0.3145 -0.5045 -0.8725
 3447TIP3   OH210301   2.581   1.170   4.329  0.4732  0.6279  0.2532
 3447TIP3    H110302   2.626   1.087   4.315 -1.0565 -0.1863 -0.0221
 3447TIP3    H210303   2.578   1.211   4.243 -0.2204  0.1937  0.0637
 3448TIP3   OH210304   7.393   5.679   2.482 -0.1509  0.0429  0.4224
 3448TIP3    H110305   7.417   5.697   2.573 -0.8234 -1.0281  0.8346
 3448TIP3    H210306   7.301   5.705   2.476 -0.4582 -1.0150  0.3940
 3449TIP3   OH210307   6.158   4.786   2.781  0.4090 -0.3682  0.3237
 3449TIP3    H110308   6.082   4.811   2.834  0.5783 -1.0659  0.9231
 3449TIP3    H210309   6.229   4.842   2.812  0.2799 -0.1230  0.1758
 3450TIP3   OH210310   5.239   2.244   5.451 -0.1601 -0.3552  0.0002
 3450TIP3    H110311   5.249   2.227   5.545  0.1417 -0.8954 -0.1257
 3450TIP3    H210312   5.300   2.316   5.434  2.7169 -2.6853 -0.4739
 3451TIP3   OH210313   0.696   4.021   1.644  0.0266 -0.2415  0.1249
 3451TIP3    H110314   0.745   4.083   1.698 -2.1280  1.0947  0.6927
 3451TIP3    H210315   0.611   4.014   1.688 -0.3291 -2.4436 -0.7943
 3452TIP3   OH210316   3.538   5.456   3.498 -0.1213 -0.5427 -0.1363
 3452TIP3    H110317   3.582   5.499   3.425 -0.0571  2.2441  1.3955
 3452TIP3    H210318   3.607   5.407   3.543  0.7938  1.1364  0.3774
 3453TIP3   OH210319   1.852   6.511   3.790 -0.6956 -0.7849 -0.1288
 3453TIP3    H110320   1.835   6.444   3.856 -1.1856 -0.5212  0.0209
 3453TIP3    H210321   1.768   6.525   3.747 -0.9576  0.7107  0.7820
 3454TIP3   OH210322   5.426   0.126   1.436 -0.2680 -0.3031 -0.1605
 3454TIP3    H110323   5.337   0.142   1.406  0.3584  0.5842 -1.6326
 3454TIP3    H210324   5.463   0.066   1.372  0.3276 -0.3417  0.2080
 3455TIP3   OH210325   0.322   1.006   1.830  0.0467 -0.0643  0.5498
 3455TIP3    H110326   0.262   1.070   1.791  1.3063  0.7055 -0.1956
 3455TIP3    H210327   0.348   0.951   1.756  1.4847  0.6202  0.5188
 3456TIP3   OH210328   6.560   5.797   1.353  0.2817 -0.3758 -0.0067
 3456TIP3    H110329   6.550   5.891   1.335 -0.1115 -0.3959  0.1140
 3456TIP3    H210330   6.607   5.764   1.276  1.9363  0.2151  0.6873
 3457TIP3   OH210331   0.156   3.728   3.116 -0.2931  0.5628 -0.3727
 3457TIP3    H110332   0.241   3.691   3.140 -0.1970 -0.3878 -2.0430
 3457TIP3    H210333   0.167   3.823   3.127  0.0969  0.3085  2.0025
 3458TIP3   OH210334   2.952   4.693   5.847  0.1646 -0.0998  0.1063
 3458TIP3    H110335   3.047   4.703   5.842  0.3467 -0.0484  2.4632
 3458TIP3    H210336   2.917   4.780   5.830  0.5469 -0.0246 -0.3208
 3459TIP3   OH210337   5.202   5.752   1.560  0.1320 -0.4000 -0.4026
 3459TIP3    H110338   5.167   5.826   1.510 -2.4152 -2.3936 -1.7788
 3459TIP3    H210339   5.238   5.792   1.639  0.1439  2.4237 -1.7097
 3460TIP3   OH210340   4.738   6.789   4.248 -0.3672  0.4373 -0.0701
 3460TIP3    H110341   4.770   6.713   4.199 -0.8973  1.1166 -1.5503
 3460TIP3    H210342   4.734   6.759   4.339  2.1435 -0.4036 -0.1591
 3461TIP3   OH210343   6.329   7.112   1.745 -0.5212 -0.1356 -0.6196
 3461TIP3    H110344   6.400   7.156   1.698  1.5089 -2.7231 -0.2065
 3461TIP3    H210345   6.361   7.104   1.835 -1.3912 -1.2234 -0.3886
 3462TIP3   OH210346   3.469   2.635   2.003  0.2187  0.0378 -0.4118
 3462TIP3    H110347   3.504   2.641   1.914  2.7094 -1.4285  0.3688
 3462TIP3    H210348   3.525   2.693   2.055 -1.0330  0.6651  0.2865
 3463TIP3   OH210349   1.312   0.075   3.821 -0.1437  0.0068 -0.3175
 3463TIP3    H110350   1.361   0.125   3.886 -1.0443 -0.8777  1.0799
 3463TIP3    H210351   1.338  -0.016   3.834 -0.9751 -0.2877 -0.6016
 3464TIP3   OH210352   1.236   1.212   3.525  0.2177 -0.0150  0.5278
 3464TIP3    H110353   1.146   1.244   3.516  0.4051  0.4030  0.0545
 3464TIP3    H210354   1.246   1.194   3.618 -0.6315 -0.8983  0.4703
 3465TIP3   OH210355   1.912   0.780   4.105 -0.5049 -0.0457 -0.3914
 3465TIP3    H110356   1.959   0.748   4.028 -0.0803 -1.2983  0.3495
 3465TIP3    H210357   1.943   0.724   4.176  0.5850  2.2901  1.0940
 3466TIP3   OH210358   6.544   6.375   4.895 -0.0275  0.4310  0.3444
 3466TIP3    H110359   6.560   6.288   4.932 -0.2871  1.0671  2.0777
 3466TIP3    H210360   6.481   6.360   4.824  1.6825 -1.0412 -0.9467
 3467TIP3   OH210361   4.398   0.461   4.304  0.0323  0.5623 -0.6401
 3467TIP3    H110362   4.385   0.551   4.333 -0.2750  0.6212 -0.9576
 3467TIP3    H210363   4.489   0.457   4.274  0.0764  0.7384 -0.5264
 3468TIP3   OH210364   6.880   5.607   1.675 -0.1696 -0.2328 -0.0222
 3468TIP3    H110365   6.911   5.520   1.698 -1.1608 -0.9189 -1.2082
 3468TIP3    H210366   6.939   5.636   1.606 -2.0961 -1.5979 -2.3835
 3469TIP3   OH210367   3.247   3.181   0.589 -0.3266 -0.1549  0.5903
 3469TIP3    H110368   3.171   3.176   0.531 -0.7718 -1.1628  1.2421
 3469TIP3    H210369   3.249   3.097   0.634  0.1295  0.5262  1.8987
 3470TIP3   OH210370   6.606   1.467   4.153  0.6200 -0.4370  0.0991
 3470TIP3    H110371   6.598   1.431   4.241  1.2746 -1.2091 -0.1416
 3470TIP3    H210372   6.694   1.442   4.125 -0.0109 -1.2924 -1.2345
 3471TIP3   OH210373   4.597   7.060   5.573 -0.2687 -0.0861 -0.2933
 3471TIP3    H110374   4.509   7.057   5.536 -0.2106  1.4162 -0.6436
 3471TIP3    H210375   4.654   7.033   5.501 -0.3395  0.3861 -0.5282
 3472TIP3   OH210376   7.130   5.705   1.753  0.3368 -0.6301  0.5488
 3472TIP3    H110377   7.168   5.782   1.794 -0.7572  0.7976 -1.0083
 3472TIP3    H210378   7.036   5.713   1.769 -0.0142 -0.5261 -1.3203
 3473TIP3   OH210379   4.988   6.775   0.605  0.0214  0.0076 -0.0109
 3473TIP3    H110380   4.917   6.769   0.669 -0.2823 -1.1158 -0.4359
 3473TIP3    H210381   4.963   6.714   0.536  2.2850 -1.9090  0.7176
 3474TIP3   OH210382   4.277   2.946   3.519 -0.5389  0.0443 -0.1040
 3474TIP3    H110383   4.352   2.922   3.573 -0.4329 -1.0737 -0.7105
 3474TIP3    H210384   4.276   2.881   3.448 -0.8822  1.2557 -1.2531
 3475TIP3   OH210385   2.888   6.780   1.190 -0.0419 -0.4322 -0.5360
 3475TIP3    H110386   2.887   6.804   1.283  2.2701  1.2982 -0.8653
 3475TIP3    H210387   2.797   6.782   1.164 -0.5822  0.9290  1.2587
 3476TIP3   OH210388   5.820   1.350   5.182  0.2751 -0.3807 -0.3716
 3476TIP3    H110389   5.842   1.263   5.148  0.8009  0.8230 -3.5667
 3476TIP3    H210390   5.905   1.390   5.203  0.0663 -0.4992  0.7267
 3477TIP3   OH210391   3.986   6.117   5.559 -0.2754  0.1873  0.5180
 3477TIP3    H110392   4.060   6.057   5.570 -0.8484 -0.3105  1.9188
 3477TIP3    H210393   3.915   6.061   5.529 -0.1692  0.6165 -0.5584
 3478TIP3   OH210394   5.504   4.403   4.274  0.5844  0.1611 -0.6590
 3478TIP3    H110395   5.564   4.333   4.249 -2.2290 -1.8487 -2.3400
 3478TIP3    H210396   5.485   4.386   4.366  0.5835 -0.8095 -0.8257
 3479TIP3   OH210397   1.501   0.177   2.909 -0.1136 -0.6019 -0.5081
 3479TIP3    H110398   1.418   0.207   2.946  0.6581  1.7993 -0.5581
 3479TIP3    H210399   1.555   0.157   2.986 -0.7836 -2.4751 -0.4761
 3480TIP3   OH210400   0.412   3.428   3.664 -0.6273  0.4841  0.4411
 3480TIP3    H110401   0.455   3.511   3.644 -0.3463  0.3123  0.3192
 3480TIP3    H210402   0.481   3.375   3.705 -0.9757  0.5350  1.0976
 3481TIP3   OH210403   2.757   5.348   3.024 -0.3785 -0.8030  0.1846
 3481TIP3    H110404   2.793   5.406   2.958 -0.7252 -0.6962  0.0902
 3481TIP3    H210405   2.733   5.405   3.097 -2.7925 -0.4949 -0.7569
 3482TIP3   OH210406   5.433   5.711   5.620 -0.1765 -0.4386  0.4363
 3482TIP3    H110407   5.370   5.723   5.548 -0.1232  0.7309  0.5727
 3482TIP3    H210408   5.485   5.636   5.593 -0.1329  0.0015 -0.7806
 3483TIP3   OH210409   0.857   1.565   6.025  0.3381 -0.4905  0.0179
 3483TIP3    H110410   0.840   1.654   6.056  0.0025  0.0136 -1.5148
 3483TIP3    H210411   0.773   1.520   6.035  0.2492 -0.3516 -0.0959
 3484TIP3   OH210412   7.518   1.264   4.887  0.2348 -0.2488 -0.0009
 3484TIP3    H110413   7.511   1.344   4.938  0.6355 -0.4483  0.3745
 3484TIP3    H210414   7.441   1.212   4.911 -0.2118  0.1649 -0.5070
 3485TIP3   OH210415   4.375   2.646   4.788  0.0157  0.1861  0.4601
 3485TIP3    H110416   4.311   2.630   4.858  0.0015  1.3100  0.7408
 3485TIP3    H210417   4.323   2.660   4.710  0.0667 -2.0599 -0.0299
 3486TIP3   OH210418   3.844   7.042   1.155 -0.4718  0.1012 -0.2036
 3486TIP3    H110419   3.901   7.014   1.227  1.2306 -2.9591 -2.5004
 3486TIP3    H210420   3.756   7.017   1.183  0.0997 -0.6539  1.0152
 3487TIP3   OH210421   2.523   6.465   4.848 -0.4542  0.2947 -0.5650
 3487TIP3    H110422   2.474   6.435   4.771 -0.1220  0.4069 -0.8268
 3487TIP3    H210423   2.529   6.560   4.836  1.3589  0.1073 -1.4733
 3488TIP3   OH210424   5.222   5.950   4.411  0.2211  0.0801 -0.3467
 3488TIP3    H110425   5.142   5.974   4.458  0.6925 -1.1973  1.2026
 3488TIP3    H210426   5.207   5.860   4.382  0.7584  0.1317 -0.8048
 3489TIP3   OH210427   5.495   3.881   1.658  0.2010 -0.0158  0.0858
 3489TIP3    H110428   5.433   3.950   1.685  1.4902  1.0801  0.3623
 3489TIP3    H210429   5.439   3.807   1.635 -1.1712  0.4366  1.6904
 3490TIP3   OH210430   5.144   1.809   3.284 -0.3959 -0.4592  0.6411
 3490TIP3    H110431   5.181   1.744   3.225  1.2461  0.3154  0.7531
 3490TIP3    H210432   5.150   1.892   3.236  0.8904  0.1737  1.7979
 3491TIP3   OH210433   7.172   3.800   5.428 -0.1688 -0.6585 -0.3167
 3491TIP3    H110434   7.098   3.771   5.375  0.9567  0.9957 -2.9816
 3491TIP3    H210435   7.169   3.895   5.425  2.3261 -0.5268 -0.9913
 3492TIP3   OH210436   4.799   1.905   5.873  0.1727  0.1851 -0.1658
 3492TIP3    H110437   4.828   1.850   5.800 -0.0325 -0.5349  0.2911
 3492TIP3    H210438   4.841   1.868   5.950  0.4023  0.9575  0.0837
 3493TIP3   OH210439   0.103   4.203   0.523  0.2476  0.2290  0.4054
 3493TIP3    H110440   0.114   4.254   0.603  2.9776  0.4453 -0.0346
 3493TIP3    H210441   0.187   4.158   0.511 -0.5221 -0.7964 -1.6658
 3494TIP3   OH210442   5.754   2.509   5.296 -0.5322  0.3006 -0.1833
 3494TIP3    H110443   5.698   2.443   5.336 -1.3960 -0.4492 -2.4779
 3494TIP3    H210444   5.709   2.535   5.217  0.6446  2.4147 -0.2486
 3495TIP3   OH210445   1.665   2.204   4.563  0.2548  0.0951 -0.2938
 3495TIP3    H110446   1.755   2.235   4.563  0.7488 -1.2260  0.9978
 3495TIP3    H210447   1.628   2.238   4.481  1.0559  3.0155  0.4281
 3496TIP3   OH210448   7.265   4.848   5.852 -0.1161 -0.6351  0.7001
 3496TIP3    H110449   7.281   4.929   5.902  0.5719 -1.6390  2.1617
 3496TIP3    H210450   7.187   4.810   5.893 -1.4364  0.0410 -1.0333
 3497TIP3   OH210451   4.390   5.912   2.165  0.2086  0.1346  0.3070
 3497TIP3    H110452   4.337   5.992   2.164 -1.2430 -0.7895 -0.6355
 3497TIP3    H210453   4.398   5.888   2.072  0.4974 -0.8731  0.5806
 3498TIP3   OH210454   5.876   1.664   0.142  0.4263 -0.0989 -0.2311
 3498TIP3    H110455   5.783   1.643   0.129  0.0886 -0.3782  2.2012
 3498TIP3    H210456   5.903   1.609   0.215  2.8198 -0.7421 -1.5260
 3499TIP3   OH210457   2.004   2.724   2.019  0.2628 -1.3271  0.0494
 3499TIP3    H110458   2.094   2.714   1.989  0.0726 -2.3669 -0.1900
 3499TIP3    H210459   1.955   2.751   1.941  0.5556  0.4414  0.4321
 3500TIP3   OH210460   0.263   1.147   1.005  0.7254  0.1791  0.2718
 3500TIP3    H110461   0.356   1.126   0.998  1.1757  1.5363  1.7079
 3500TIP3    H210462   0.260   1.235   1.043 -1.1463  0.0903  0.4486
 3501TIP3   OH210463   2.126   6.858   3.707  0.4913 -0.1459  0.4749
 3501TIP3    H110464   2.213   6.857   3.746  0.9660  0.9172 -0.5104
 3501TIP3    H210465   2.112   6.767   3.679  0.7025 -0.6201  1.8258
 3502TIP3   OH210466   1.470   2.397   3.223 -0.3096 -0.4352  0.9481
 3502TIP3    H110467   1.422   2.369   3.145 -2.4922  2.2129  1.1866
 3502TIP3    H210468   1.424   2.355   3.296 -0.9791  0.3867  1.0247
 3503TIP3   OH210469   1.142   1.256   0.212  0.4548  0.2141 -0.0073
 3503TIP3    H110470   1.104   1.286   0.129 -2.1026 -1.7550  0.3363
 3503TIP3    H210471   1.167   1.165   0.195 -0.4989 -0.3546  1.4419
 3504TIP3   OH210472   4.353   1.149   2.329 -0.3583  0.2344  0.1831
 3504TIP3    H110473   4.337   1.243   2.319  2.3744  0.8240  0.5768
 3504TIP3    H210474   4.401   1.142   2.412 -1.9540 -1.7523  1.0388
 3505TIP3   OH210475   5.397   1.497   4.422  0.0602  0.0285 -0.3301
 3505TIP3    H110476   5.356   1.411   4.414 -4.1877  1.5190  1.9232
 3505TIP3    H210477   5.390   1.535   4.335 -0.8234 -0.8726 -0.6792
 3506TIP3   OH210478   2.505   4.747   1.558 -0.5956 -0.4990  0.5349
 3506TIP3    H110479   2.589   4.776   1.596  0.0752  2.4569 -2.6258
 3506TIP3    H210480   2.530   4.681   1.494 -0.8544 -0.6846  0.6292
 3507TIP3   OH210481   0.588   0.739   0.167  0.6109  0.2497  0.0212
 3507TIP3    H110482   0.525   0.798   0.125  0.6358  1.0821  1.1160
 3507TIP3    H210483   0.551   0.721   0.253  0.0267 -2.3031 -0.6647
 3508TIP3   OH210484   4.227   2.436   5.274  0.0812  0.4383 -0.4376
 3508TIP3    H110485   4.156   2.494   5.301  0.7075  0.6547  0.8659
 3508TIP3    H210486   4.238   2.376   5.348  0.4931 -0.3233 -1.0997
 3509TIP3   OH210487   3.192   3.120   6.103 -0.1099  0.1383  0.5759
 3509TIP3    H110488   3.098   3.106   6.102 -0.2167  0.6382 -1.6691
 3509TIP3    H210489   3.226   3.051   6.161 -1.7957 -0.3417  1.0368
 3510TIP3   OH210490   6.825   6.147   6.056  0.0589  0.2281  0.4830
 3510TIP3    H110491   6.804   6.237   6.031 -1.5436 -0.6017 -1.4920
 3510TIP3    H210492   6.747   6.116   6.102 -0.0254 -0.5933 -0.1817
 3511TIP3   OH210493   7.550   0.311   5.066 -0.0148 -0.2810 -0.2873
 3511TIP3    H110494   7.548   0.227   5.019  1.3134 -0.2306 -0.4770
 3511TIP3    H210495   7.606   0.294   5.142 -0.0945  0.3170 -0.0918
 3512TIP3   OH210496   6.934   4.040   4.464 -0.0641 -0.1808  0.3412
 3512TIP3    H110497   6.927   4.105   4.394  0.7142  0.6632  1.0086
 3512TIP3    H210498   6.951   4.092   4.543 -0.9028 -1.1069  1.1606
 3513TIP3   OH210499   7.516   3.161   1.078  0.5000 -0.6201  0.1764
 3513TIP3    H110500   7.543   3.079   1.120  1.0237  0.5510  2.3037
 3513TIP3    H210501   7.422   3.166   1.093  0.3710 -1.0905 -0.4593
 3514TIP3   OH210502   4.281   2.275   0.972  0.5489  0.0935 -0.2582
 3514TIP3    H110503   4.354   2.258   1.031 -0.1060 -2.8642 -0.1479
 3514TIP3    H210504   4.212   2.217   1.002  0.0894 -1.3665 -3.6834
 3515TIP3   OH210505   4.951   5.977   0.318 -0.3304 -0.3468 -0.1167
 3515TIP3    H110506   4.973   5.888   0.290 -1.1179 -0.2842 -0.9768
 3515TIP3    H210507   4.965   6.031   0.239  1.1071  0.4777  0.6442
 3516TIP3   OH210508   6.391   2.140   1.754  0.2795 -0.1442  0.0772
 3516TIP3    H110509   6.428   2.217   1.797  1.5831 -0.6369 -0.1124
 3516TIP3    H210510   6.302   2.134   1.788 -0.8569  2.9713 -1.9215
 3517TIP3   OH210511   6.939   0.804   5.112  0.4673 -0.5930 -0.3749
 3517TIP3    H110512   6.883   0.758   5.049  1.7593 -1.6625 -0.8008
 3517TIP3    H210513   6.893   0.797   5.195 -1.6791  1.5439 -1.2642
 3518TIP3   OH210514   3.022   2.664   4.532  0.7794 -0.2716 -0.0860
 3518TIP3    H110515   2.985   2.746   4.501  0.6177  0.1443  1.1758
 3518TIP3    H210516   3.116   2.680   4.539  0.9175 -0.5925 -1.0069
 3519TIP3   OH210517   0.410   6.680   5.701  0.1688  0.3996 -0.0829
 3519TIP3    H110518   0.335   6.628   5.728  0.7294 -0.0440  0.6397
 3519TIP3    H210519   0.425   6.740   5.774  2.1205 -1.2620  0.9784
 3520TIP3   OH210520   2.529   1.336   0.020 -0.5337  0.0633  0.1235
 3520TIP3    H110521   2.584   1.267   0.058  1.9622  1.1086 -1.3132
 3520TIP3    H210522   2.483   1.293  -0.053 -1.6239 -0.8078  1.2844
 3521TIP3   OH210523   1.702   6.211   2.871 -0.5028 -0.0585  0.1355
 3521TIP3    H110524   1.763   6.219   2.944 -0.0165 -0.6304 -0.2032
 3521TIP3    H210525   1.705   6.296   2.827  0.9760 -0.4611 -0.5961
 3522TIP3   OH210526   2.292   5.054   5.583  0.0525 -0.5972  0.2641
 3522TIP3    H110527   2.242   4.972   5.592  0.9595 -1.0249  1.8664
 3522TIP3    H210528   2.373   5.037   5.631  1.1338  0.5798 -1.0662
 3523TIP3   OH210529   1.967   6.845   6.029 -0.4644  0.4037  0.4888
 3523TIP3    H110530   1.876   6.817   6.017 -0.7280  1.4686 -0.1568
 3523TIP3    H210531   1.973   6.927   5.980  1.6119 -1.0333 -1.9527
 3524TIP3   OH210532   0.148   4.831   3.207  0.1352 -0.2329  0.2570
 3524TIP3    H110533   0.085   4.761   3.225  0.8524 -1.5365 -1.8767
 3524TIP3    H210534   0.130   4.898   3.272 -3.7883 -0.3043 -0.5316
 3525TIP3   OH210535   2.188   6.922   5.629 -0.4583 -0.1435 -0.1917
 3525TIP3    H110536   2.254   6.991   5.634 -1.9836  1.3162  1.5120
 3525TIP3    H210537   2.209   6.865   5.703 -1.1816  0.4387  0.4789
 3526TIP3   OH210538   6.583   3.336   6.137 -0.4680  0.1765  0.3117
 3526TIP3    H110539   6.548   3.420   6.168  0.7575  1.7375 -2.2190
 3526TIP3    H210540   6.675   3.337   6.162  0.3521  1.1214 -2.3413
 3527TIP3   OH210541   5.963   2.074   2.217 -0.0377  0.1352  0.3371
 3527TIP3    H110542   6.026   2.003   2.202  0.1252  0.5574 -1.1848
 3527TIP3    H210543   5.899   2.064   2.146 -1.6439 -0.1924  1.7750
 3528TIP3   OH210544   3.198   3.398   5.045 -0.2600  0.1473 -0.0209
 3528TIP3    H110545   3.221   3.367   5.132 -0.1289  1.7436  0.5603
 3528TIP3    H210546   3.203   3.494   5.052  0.0154  0.3042 -1.8526
 3529TIP3   OH210547   7.456   4.802   3.735  1.1545 -0.6339  0.0578
 3529TIP3    H110548   7.547   4.813   3.761  1.4629  2.0185 -1.7623
 3529TIP3    H210549   7.406   4.819   3.815  2.2058  0.6605  0.4695
 3530TIP3   OH210550   4.177   1.794   3.047 -0.6081 -0.0001  0.4143
 3530TIP3    H110551   4.193   1.723   3.109 -0.8208  0.5624  1.1305
 3530TIP3    H210552   4.193   1.874   3.098  1.2276  0.4591 -0.8124
 3531TIP3   OH210553   0.852   3.171   4.305  0.0859  0.1138 -0.2002
 3531TIP3    H110554   0.912   3.241   4.279 -0.0343  0.4400  0.3842
 3531TIP3    H210555   0.804   3.150   4.225  1.9346 -1.1437 -1.0598
 3532TIP3   OH210556   6.278   5.194   0.300 -0.6233 -0.3123 -0.3537
 3532TIP3    H110557   6.367   5.192   0.266 -1.2490 -1.7340 -2.0449
 3532TIP3    H210558   6.272   5.116   0.355 -0.5068  0.4222  0.7465
 3533TIP3   OH210559   2.152   3.693   2.649 -0.2139  0.4548  0.3276
 3533TIP3    H110560   2.110   3.660   2.570  0.5226 -0.3098  0.2463
 3533TIP3    H210561   2.232   3.642   2.657 -0.3961  0.3558  1.7109
 3534TIP3   OH210562   3.287   4.992   3.952 -0.1706 -0.2223  0.4040
 3534TIP3    H110563   3.194   4.998   3.975  0.1416  0.0822  1.6862
 3534TIP3    H210564   3.316   4.911   3.993  0.2352 -0.0700  0.4197
 3535TIP3   OH210565   4.016   5.958   0.932  0.1600  0.2507  0.4872
 3535TIP3    H110566   4.080   5.982   0.999 -1.1806 -0.3289  2.0491
 3535TIP3    H210567   4.065   5.904   0.870  1.6684  1.6307  0.4361
 3536TIP3   OH210568   6.238   0.309   5.047  0.1689 -0.0265 -0.3792
 3536TIP3    H110569   6.229   0.242   5.115 -1.8113  0.6183  0.0779
 3536TIP3    H210570   6.302   0.273   4.986 -0.5672 -2.1729  0.0279
 3537TIP3   OH210571   2.892   6.811   2.972 -0.4595 -0.1246 -0.7414
 3537TIP3    H110572   2.961   6.852   2.920  0.4541  0.6312  0.9847
 3537TIP3    H210573   2.817   6.870   2.963 -0.0355  0.4552 -0.5493
 3538TIP3   OH210574   4.801   2.400   6.020  0.1460 -0.1005 -0.2620
 3538TIP3    H110575   4.838   2.331   5.964  0.6129 -0.7556  0.8270
 3538TIP3    H210576   4.735   2.354   6.073  0.4114  0.3098  0.4257
 3539TIP3   OH210577   5.519   2.396   1.038 -0.2933 -0.8550 -0.0994
 3539TIP3    H110578   5.530   2.326   1.102  0.6169 -0.4229  0.2275
 3539TIP3    H210579   5.430   2.426   1.051 -1.0869 -2.6516 -0.9629
 3540TIP3   OH210580   4.051   1.606   2.524 -0.4003  0.0233  0.0022
 3540TIP3    H110581   4.043   1.521   2.567 -1.3678  0.7718  1.4142
 3540TIP3    H210582   4.119   1.652   2.575 -2.6703  1.5142  1.9359
 3541TIP3   OH210583   6.048   5.414   0.622 -0.4953  0.0298 -0.3148
 3541TIP3    H110584   6.103   5.438   0.697 -2.6480  2.2001  0.7413
 3541TIP3    H210585   6.049   5.492   0.566 -0.8566 -0.6723 -1.3265
 3542TIP3   OH210586   0.708   6.557   0.424  0.6894  0.2016  0.5886
 3542TIP3    H110587   0.757   6.552   0.342  1.1154 -1.0233  0.8920
 3542TIP3    H210588   0.770   6.596   0.486  0.9944 -0.5262  0.7538
 3543TIP3   OH210589   2.757   5.466   5.222 -0.0468  0.4206 -0.0278
 3543TIP3    H110590   2.704   5.438   5.147  0.2035  0.4611 -0.2212
 3543TIP3    H210591   2.736   5.402   5.291 -0.0376  0.1927 -0.2335
 3544TIP3   OH210592   2.363   2.082   1.560 -0.2515  0.1107  0.5270
 3544TIP3    H110593   2.353   2.176   1.574  0.9709  0.0755  1.8172
 3544TIP3    H210594   2.278   2.045   1.584 -1.6403  1.0541 -2.4020
 3545TIP3   OH210595   4.116   5.097   5.418 -0.8248  0.7252  0.0449
 3545TIP3    H110596   4.055   5.024   5.428 -1.2174  1.0701  0.2142
 3545TIP3    H210597   4.156   5.107   5.505  0.3205 -0.2248 -0.3494
 3546TIP3   OH210598   6.723   0.533   2.644  0.4263  0.3267  0.0296
 3546TIP3    H110599   6.728   0.441   2.669  0.7755  0.5789  0.9454
 3546TIP3    H210600   6.745   0.581   2.724  0.2187  1.2075 -0.4238
 3547TIP3   OH210601   6.910   3.262   4.190 -0.1570  0.4764 -0.3562
 3547TIP3    H110602   6.942   3.202   4.122 -2.1477  0.9869 -1.8582
 3547TIP3    H210603   6.899   3.345   4.144 -0.7925  1.0517  0.8182
 3548TIP3   OH210604   2.632   1.908   6.072 -0.0522  0.2067  0.2182
 3548TIP3    H110605   2.701   1.846   6.050 -1.4483 -1.0912 -0.6777
 3548TIP3    H210606   2.628   1.908   6.167  0.6704 -0.2639  0.2550
 3549TIP3   OH210607   4.423   5.309   3.992 -0.2119  0.6138  0.0656
 3549TIP3    H110608   4.432   5.404   3.993  0.1066  0.6011 -0.7785
 3549TIP3    H210609   4.359   5.290   4.061 -1.9842  1.6270 -1.2014
 3550TIP3   OH210610   0.178   3.131   2.091  0.3063  0.0610  0.4235
 3550TIP3    H110611   0.091   3.093   2.081  0.1723  0.3100  0.6350
 3550TIP3    H210612   0.216   3.086   2.166  0.4833 -0.2706  0.1402
 3551TIP3   OH210613   2.207   4.977   3.711 -0.2193 -0.0300 -0.3953
 3551TIP3    H110614   2.184   5.005   3.800 -0.1266  0.5780 -0.5623
 3551TIP3    H210615   2.302   4.972   3.711 -0.2439 -0.6387 -0.2838
 3552TIP3   OH210616   5.112   4.282   1.803 -0.5203 -0.1776  0.0071
 3552TIP3    H110617   5.159   4.303   1.723 -1.9824  3.5195 -0.0514
 3552TIP3    H210618   5.022   4.265   1.775 -0.9556  0.7475  0.7704
 3553TIP3   OH210619   6.591   5.799   5.847 -0.5665  0.6368  0.3186
 3553TIP3    H110620   6.603   5.760   5.933 -1.4181 -1.4369 -0.4516
 3553TIP3    H210621   6.529   5.871   5.863  0.2353  1.0910  1.5987
 3554TIP3   OH210622   2.251   1.820   2.844  0.0311  0.2531 -0.0653
 3554TIP3    H110623   2.280   1.879   2.775  2.1644 -0.9923 -0.3393
 3554TIP3    H210624   2.301   1.846   2.921  2.0712 -1.9454 -0.5371
 3555TIP3   OH210625   6.404   6.167   2.727  0.2724 -0.2634  0.1257
 3555TIP3    H110626   6.319   6.202   2.750 -0.0064 -0.1248 -1.0585
 3555TIP3    H210627   6.424   6.104   2.797 -0.3352  0.4193  0.9340
 3556TIP3   OH210628   3.786   3.934   0.204 -0.1036  0.1855 -0.1082
 3556TIP3    H110629   3.810   3.985   0.127 -1.3260  2.9038  1.1820
 3556TIP3    H210630   3.725   3.868   0.171  3.3295 -2.2605 -2.2323
 3557TIP3   OH210631   6.206   2.168   2.725  0.2957  0.7129 -0.3189
 3557TIP3    H110632   6.265   2.114   2.672  1.9079  1.4972  0.6061
 3557TIP3    H210633   6.165   2.228   2.662  2.6338  2.0496 -0.7019
 3558TIP3   OH210634   3.773   6.457   0.289 -0.4767 -0.1513 -0.4624
 3558TIP3    H110635   3.785   6.398   0.214  0.5894 -0.3355 -0.1690
 3558TIP3    H210636   3.756   6.543   0.250 -0.2668 -0.3141 -0.9200
 3559TIP3   OH210637   3.588   7.001   1.849  0.1062  0.3016  0.0054
 3559TIP3    H110638   3.659   6.941   1.825  0.8572  1.8787 -2.0503
 3559TIP3    H210639   3.539   7.013   1.767 -1.5411  0.5618  0.9893
 3560TIP3   OH210640   3.421   5.103   5.139 -0.6012 -0.3049 -0.1257
 3560TIP3    H110641   3.477   5.180   5.149 -0.5358 -0.3287 -0.3060
 3560TIP3    H210642   3.406   5.073   5.229 -1.3651  0.4416  0.0052
 3561TIP3   OH210643   3.895   4.735   0.398 -0.8019 -0.4247 -0.3552
 3561TIP3    H110644   3.868   4.751   0.308 -1.7892 -1.7339 -0.3324
 3561TIP3    H210645   3.843   4.796   0.450 -1.4847 -0.8216 -0.5571
 3562TIP3   OH210646   6.039   1.747   5.961 -0.4355  0.0636  0.0574
 3562TIP3    H110647   6.037   1.653   5.947  0.9324 -0.2712  1.7212
 3562TIP3    H210648   6.111   1.761   6.023 -1.5546  2.0275  1.0339
 3563TIP3   OH210649   5.774   1.810   4.711 -0.1712  0.1626 -0.1885
 3563TIP3    H110650   5.720   1.756   4.768  2.2776 -1.6708  0.5622
 3563TIP3    H210651   5.745   1.900   4.727 -1.7343 -0.5907  1.4916
 3564TIP3   OH210652   7.048   3.032   1.512 -0.6950  0.1948 -0.4436
 3564TIP3    H110653   7.006   3.003   1.431  0.1558  0.3302 -0.9444
 3564TIP3    H210654   7.123   2.973   1.522  0.0498  1.1007 -0.5506
 3565TIP3   OH210655   1.351   3.934   4.852 -0.1009 -0.1685  0.3720
 3565TIP3    H110656   1.348   3.953   4.946  0.7962  1.6193  0.0889
 3565TIP3    H210657   1.437   3.964   4.823 -0.1387 -1.2006 -0.9396
 3566TIP3   OH210658   4.023   0.008   3.106  0.4031 -0.0853 -0.4994
 3566TIP3    H110659   3.933   0.005   3.137  0.7782  0.8574  0.7438
 3566TIP3    H210660   4.035   0.097   3.073  1.0546 -0.0194 -0.1055
 3567TIP3   OH210661   0.613   4.511   3.714 -0.1042 -0.4872  0.1421
 3567TIP3    H110662   0.540   4.451   3.723  0.0603 -0.6162  0.6224
 3567TIP3    H210663   0.612   4.536   3.621 -2.5163  1.7610  0.6435
 3568TIP3   OH210664   3.276   5.759   4.847 -0.0313  0.2673 -0.6488
 3568TIP3    H110665   3.296   5.665   4.851  0.7511  0.4506  0.6043
 3568TIP3    H210666   3.238   5.778   4.933 -0.3465  1.0682 -0.9599
 3569TIP3   OH210667   0.668   3.188   0.800  0.8667 -0.2703 -0.1842
 3569TIP3    H110668   0.667   3.270   0.750  1.2410 -0.3706 -0.3611
 3569TIP3    H210669   0.589   3.193   0.855  1.2820  0.5557  0.3656
 3570TIP3   OH210670   5.753   2.188   6.005  0.1799  0.4539  0.4290
 3570TIP3    H110671   5.803   2.107   5.994 -0.2966  0.1020  0.8340
 3570TIP3    H210672   5.725   2.188   6.096  0.3185  1.1656  0.4817
 3571TIP3   OH210673   2.196   5.786   1.176  0.2232 -0.3327  0.1569
 3571TIP3    H110674   2.128   5.834   1.225 -0.6597 -0.1200 -1.2262
 3571TIP3    H210675   2.159   5.775   1.088  1.6088 -1.0451 -0.3629
 3572TIP3   OH210676   1.633   0.905   2.807 -0.0759  0.3141  0.3462
 3572TIP3    H110677   1.679   0.985   2.834 -1.2582  1.3809 -0.7132
 3572TIP3    H210678   1.610   0.863   2.890 -0.7886  1.8753  0.9884
 3573TIP3   OH210679   3.721   0.577   0.826 -0.0023  0.2509 -0.3779
 3573TIP3    H110680   3.676   0.644   0.878 -2.6306 -1.1386 -0.7010
 3573TIP3    H210681   3.740   0.507   0.889  2.0277  0.9208 -0.1980
 3574TIP3   OH210682   1.394   2.571   4.937 -0.4237 -0.1096  0.1844
 3574TIP3    H110683   1.452   2.624   4.991 -0.0879  0.8574 -1.0814
 3574TIP3    H210684   1.452   2.524   4.877 -0.8014 -0.9821  0.4908
 3575TIP3   OH210685   5.758   6.821   2.136 -0.6383  0.0951  0.3732
 3575TIP3    H110686   5.715   6.906   2.145 -0.5602  0.1975 -0.1489
 3575TIP3    H210687   5.700   6.770   2.079 -0.1183  0.2148 -0.2854
 3576TIP3   OH210688   3.731   2.061   4.163 -0.1129  0.0106 -0.2049
 3576TIP3    H110689   3.769   2.111   4.235 -0.1482  0.8205 -0.7413
 3576TIP3    H210690   3.638   2.084   4.163  0.0121  0.5694 -0.9396
 3577TIP3   OH210691   5.728   2.215   3.566 -0.2875  0.1542  0.3405
 3577TIP3    H110692   5.802   2.212   3.627  0.9419  1.3728 -1.0227
 3577TIP3    H210693   5.684   2.298   3.585  0.1595  0.5885 -0.4619
 3578TIP3   OH210694   4.905   0.306   1.964  0.5352  0.2584 -0.3634
 3578TIP3    H110695   4.902   0.310   1.868  1.6265  0.7023 -0.3975
 3578TIP3    H210696   4.945   0.388   1.990 -1.9531  1.2212  0.6593
 3579TIP3   OH210697   5.319   0.698   2.812 -0.0105  0.0430 -0.0464
 3579TIP3    H110698   5.367   0.670   2.735  1.7739  1.1365  0.6107
 3579TIP3    H210699   5.362   0.655   2.886 -1.0312 -0.1679  0.4520
 3580TIP3   OH210700   3.446   6.781   3.541  0.0487 -0.3922  0.3340
 3580TIP3    H110701   3.471   6.688   3.541  1.4374 -0.0397  0.2060
 3580TIP3    H210702   3.442   6.805   3.448 -0.1049 -0.2685  0.3721
 3581TIP3   OH210703   4.017   6.814   2.093  0.2090 -0.2624 -0.2972
 3581TIP3    H110704   3.972   6.739   2.133  0.3308  0.0813  0.5181
 3581TIP3    H210705   4.066   6.777   2.021 -2.2820 -0.4984 -1.9936
 3582TIP3   OH210706   3.045   1.482   0.470  0.0069 -0.0091 -0.2964
 3582TIP3    H110707   2.972   1.514   0.418  0.7141 -1.5464 -2.3821
 3582TIP3    H210708   3.109   1.554   0.471  0.0843 -0.0312 -1.8284
 3583TIP3   OH210709   7.455   3.858   2.814 -0.1490  0.1530  0.1238
 3583TIP3    H110710   7.463   3.806   2.734  0.1441 -1.1121  0.9499
 3583TIP3    H210711   7.485   3.945   2.789 -0.3633 -0.1362 -1.2185
 3584TIP3   OH210712   3.597   3.197   5.211 -0.1689  0.0121 -0.1440
 3584TIP3    H110713   3.535   3.167   5.145 -1.0402  3.1301 -0.9326
 3584TIP3    H210714   3.677   3.215   5.162  0.3705 -1.0551  0.3232
 3585TIP3   OH210715   6.767   0.193   1.079 -0.1059 -0.4762 -0.0691
 3585TIP3    H110716   6.789   0.258   1.012  2.2522 -0.8386  0.2934
 3585TIP3    H210717   6.687   0.151   1.045  0.5124 -0.0566 -2.2169
 3586TIP3   OH210718   0.174   2.849   0.425  0.3649  0.1267 -0.0132
 3586TIP3    H110719   0.161   2.800   0.343 -1.1723 -1.1521  0.9434
 3586TIP3    H210720   0.087   2.882   0.446  0.7149  0.3042  1.1829
 3587TIP3   OH210721   3.671   4.859   0.938 -0.3120  0.5936  0.3470
 3587TIP3    H110722   3.594   4.911   0.964  1.1759  2.6031  1.0554
 3587TIP3    H210723   3.734   4.875   1.008  0.6528 -1.2772 -0.0585
 3588TIP3   OH210724   6.876   1.396   2.976 -0.3317  0.1019 -0.0615
 3588TIP3    H110725   6.848   1.475   2.932  0.9057 -0.7169 -2.4986
 3588TIP3    H210726   6.844   1.324   2.921  1.3280 -0.9881  0.3069
 3589TIP3   OH210727   1.077   6.558   0.820 -0.3015  0.6634  0.8169
 3589TIP3    H110728   1.093   6.638   0.869 -0.5697  1.1521  0.1265
 3589TIP3    H210729   1.117   6.574   0.734  0.5970 -0.3665  1.0278
 3590TIP3   OH210730   6.923   5.408   3.650 -0.1966 -0.5392  0.0642
 3590TIP3    H110731   6.882   5.441   3.729  0.9747 -1.8353  1.2609
 3590TIP3    H210732   6.992   5.472   3.630  0.4235 -0.9082  0.9342
 3591TIP3   OH210733   7.408   1.857  -0.003  0.2668 -0.0590 -0.0998
 3591TIP3    H110734   7.316   1.831  -0.005  0.6411 -1.4927 -1.6843
 3591TIP3    H210735   7.435   1.844   0.088 -0.6922 -1.1998  0.0489
 3592TIP3   OH210736   4.930   4.216   3.960  0.2034 -0.1015  0.3911
 3592TIP3    H110737   4.932   4.165   3.879  0.1252  1.5525 -0.6970
 3592TIP3    H210738   5.023   4.225   3.984  0.2368 -0.4632  0.4133
 3593TIP3   OH210739   6.710   4.046   0.402 -0.3928  0.2064  0.0623
 3593TIP3    H110740   6.764   3.975   0.436 -2.1773 -1.6807 -0.8833
 3593TIP3    H210741   6.769   4.097   0.347  0.5026 -1.6922 -0.8173
 3594TIP3   OH210742   3.250   1.609   5.111  0.0846 -0.6342 -0.0884
 3594TIP3    H110743   3.326   1.629   5.056 -0.1959  3.0933  0.6189
 3594TIP3    H210744   3.286   1.588   5.196  0.3540 -0.4718 -0.1629
 3595TIP3   OH210745   4.797   0.224   6.045 -0.2060  0.1176  0.2824
 3595TIP3    H110746   4.814   0.299   6.102  0.6417 -0.2577  0.5494
 3595TIP3    H210747   4.884   0.188   6.026 -0.6396 -1.5676  1.2216
 3596TIP3   OH210748   6.293   0.448   2.888  0.1460 -0.2942  0.2611
 3596TIP3    H110749   6.209   0.416   2.920 -0.1296  0.7850  0.6830
 3596TIP3    H210750   6.280   0.543   2.878  1.3651 -0.0718  0.5600
 3597TIP3   OH210751   0.403   1.526   3.099 -0.3854 -0.4666 -0.1131
 3597TIP3    H110752   0.380   1.593   3.033 -0.0880 -0.8195 -0.5825
 3597TIP3    H210753   0.408   1.575   3.181 -1.0252 -0.0641 -0.3053
 3598TIP3   OH210754   7.469   1.171   3.196 -0.7226  0.9873 -0.2283
 3598TIP3    H110755   7.512   1.087   3.178 -1.6361  0.6419 -0.8104
 3598TIP3    H210756   7.532   1.217   3.252 -1.1418 -0.9615  1.9939
 3599TIP3   OH210757   0.574   1.710   1.388  0.4175 -0.2005  0.1724
 3599TIP3    H110758   0.571   1.615   1.373  0.4971  0.0999 -2.1402
 3599TIP3    H210759   0.656   1.724   1.435  1.7565 -1.0552 -1.7737
 3600TIP3   OH210760   1.774   6.628   3.051  0.7542  0.2128 -0.1486
 3600TIP3    H110761   1.868   6.643   3.063  0.7275  1.5653 -1.3706
 3600TIP3    H210762   1.732   6.698   3.102  0.4736  0.6721 -0.9847
 3601TIP3   OH210763   2.174   4.801   5.093  0.7194 -0.1529 -0.1091
 3601TIP3    H110764   2.231   4.750   5.151  1.0105 -0.0642 -0.3165
 3601TIP3    H210765   2.091   4.806   5.140  1.6049  1.8755  1.3783
 3602TIP3   OH210766   0.646   2.765   2.440 -0.3348 -0.5846  0.2378
 3602TIP3    H110767   0.642   2.792   2.349 -0.0348 -1.1185  0.0651
 3602TIP3    H210768   0.732   2.794   2.471 -0.3917 -0.5007  0.3174
 3603TIP3   OH210769   3.948   2.942   5.665  0.0754 -0.0348 -0.1762
 3603TIP3    H110770   3.895   3.018   5.691  0.2007 -0.3237  0.9764
 3603TIP3    H210771   4.038   2.972   5.671  0.0957 -0.0096 -0.6016
 3604TIP3   OH210772   4.739   5.204   2.392  0.1890  0.8099  0.0822
 3604TIP3    H110773   4.722   5.113   2.415 -0.1766  1.2704  1.7662
 3604TIP3    H210774   4.710   5.254   2.469  1.7904  2.2189 -0.1723
 3605TIP3   OH210775   1.860   3.063   4.042  0.2408 -0.0254  0.2339
 3605TIP3    H110776   1.793   3.098   3.984  1.5085  0.6881 -0.8708
 3605TIP3    H210777   1.935   3.121   4.028  1.0676 -0.7728  1.4563
 3606TIP3   OH210778   3.839   5.968   5.345  0.7984  0.1600  0.6678
 3606TIP3    H110779   3.803   5.907   5.409 -0.5118  0.3416  0.1426
 3606TIP3    H210780   3.814   5.930   5.260  2.2973  0.0394  0.2451
 3607TIP3   OH210781   7.032   1.292   4.609  0.2522  0.1147 -0.4544
 3607TIP3    H110782   7.028   1.386   4.589 -3.0102  0.3565  0.7528
 3607TIP3    H210783   7.041   1.250   4.524 -0.9677  1.4900 -1.3229
 3608TIP3   OH210784   2.681   6.880   2.332  0.0638  0.2296  0.1135
 3608TIP3    H110785   2.611   6.822   2.303  0.6103  0.3202 -1.5222
 3608TIP3    H210786   2.750   6.822   2.363 -0.3901  0.1139  0.9329
 3609TIP3   OH210787   3.113   6.287   1.931 -0.2933  0.5201 -0.6389
 3609TIP3    H110788   3.113   6.207   1.984 -1.0337 -0.1573 -1.6269
 3609TIP3    H210789   3.201   6.289   1.892 -0.2980  0.1373 -0.6754
 3610TIP3   OH210790   0.291   0.718   0.132 -0.3040  0.1149  0.0673
 3610TIP3    H110791   0.311   0.811   0.141 -4.4333  1.1317  0.8586
 3610TIP3    H210792   0.260   0.691   0.219  1.5382 -2.3271  0.0875
 3611TIP3   OH210793   1.792   3.173   5.457 -0.0219  0.2427 -0.6071
 3611TIP3    H110794   1.749   3.256   5.479 -3.6088 -1.7993  0.9878
 3611TIP3    H210795   1.789   3.168   5.361 -1.8676  1.0025 -0.6251
 3612TIP3   OH210796   2.648   6.213   5.303  0.3955  0.3895  0.6983
 3612TIP3    H110797   2.602   6.289   5.269  1.6208  0.5560 -0.7231
 3612TIP3    H210798   2.673   6.237   5.392 -1.2578  0.7015  1.1006
 3613TIP3   OH210799   3.971   3.245   4.487  0.2939  0.3595 -0.2335
 3613TIP3    H110800   3.929   3.280   4.566  0.4314  0.1809 -0.0801
 3613TIP3    H210801   3.948   3.307   4.418 -1.7223 -0.6548 -0.5432
 3614TIP3   OH210802   1.495   5.662   1.177 -0.0167  0.4676  0.4067
 3614TIP3    H110803   1.578   5.705   1.198  0.8877 -0.8625 -0.2652
 3614TIP3    H210804   1.481   5.601   1.249 -0.2770  0.5048  0.3881
 3615TIP3   OH210805   1.723   0.929   4.645  0.1617 -0.0628  0.7958
 3615TIP3    H110806   1.654   0.868   4.617  0.3181 -0.2293  0.7745
 3615TIP3    H210807   1.793   0.917   4.581 -0.2888  1.0279  0.0530
 3616TIP3   OH210808   0.610   3.492   3.187 -0.3107 -0.4963 -0.3169
 3616TIP3    H110809   0.626   3.399   3.167 -0.2033 -0.7565  0.9377
 3616TIP3    H210810   0.651   3.506   3.272 -1.1361  0.4874 -0.0671
 3617TIP3   OH210811   6.441   3.075   0.662 -0.0157  1.0558  0.0177
 3617TIP3    H110812   6.523   3.027   0.651 -0.1206  0.6385  0.9404
 3617TIP3    H210813   6.437   3.134   0.587  0.8959  0.7481 -0.2842
 3618TIP3   OH210814   2.805   0.914   2.872 -0.0771 -0.5202  0.5470
 3618TIP3    H110815   2.862   0.926   2.947 -1.2504 -0.5074  1.4736
 3618TIP3    H210816   2.719   0.945   2.902 -0.9504 -2.0404 -0.2504
 3619TIP3   OH210817   5.852   7.036   1.452  1.1320  0.7264 -0.4327
 3619TIP3    H110818   5.813   7.070   1.533  0.2318 -0.8850 -0.1530
 3619TIP3    H210819   5.907   6.963   1.481 -0.5316 -0.9791 -1.3629
 3620TIP3   OH210820   6.883   4.400   4.979  0.1077 -0.7906 -0.0232
 3620TIP3    H110821   6.817   4.465   4.952 -0.6188 -0.6538  1.9277
 3620TIP3    H210822   6.945   4.398   4.906 -1.1183  0.3484 -1.1746
 3621TIP3   OH210823   4.195   2.330   0.372  0.2147  0.2026  0.0623
 3621TIP3    H110824   4.269   2.275   0.397 -0.0176 -0.3036 -0.3444
 3621TIP3    H210825   4.149   2.279   0.306 -2.0179 -0.7094  2.1523
 3622TIP3   OH210826   5.738   3.741   5.097  0.4613 -0.1384 -0.3484
 3622TIP3    H110827   5.675   3.683   5.140  0.3698 -1.5031 -2.1853
 3622TIP3    H210828   5.702   3.829   5.108 -0.0598 -0.5422  1.4291
 3623TIP3   OH210829   0.524   4.487   1.205  0.3925 -0.0342 -0.3983
 3623TIP3    H110830   0.501   4.451   1.291  0.3886 -0.7938 -0.7074
 3623TIP3    H210831   0.607   4.445   1.183  1.2581  1.4247 -0.0345
 3624TIP3   OH210832   4.750   3.946   0.540  0.1188  0.3693  0.3517
 3624TIP3    H110833   4.742   3.850   0.536 -1.1951  0.4872 -0.3237
 3624TIP3    H210834   4.814   3.967   0.473 -1.2266  0.1060 -1.0698
 3625TIP3   OH210835   3.993   6.891   4.775  0.0706  0.2242 -0.2255
 3625TIP3    H110836   3.979   6.814   4.720  0.6674  0.8214 -1.2413
 3625TIP3    H210837   3.916   6.946   4.759 -0.6573 -0.4082  0.9683
 3626TIP3   OH210838   5.508   5.387   3.556 -0.4543  0.9342 -0.1640
 3626TIP3    H110839   5.456   5.321   3.509 -0.5625 -0.1914  1.4451
 3626TIP3    H210840   5.515   5.460   3.495  1.9366 -1.5037 -3.2175
 3627TIP3   OH210841   2.572   5.803   3.923  0.0930  0.3866  0.1835
 3627TIP3    H110842   2.588   5.811   4.017  0.9081 -1.7220  0.2650
 3627TIP3    H210843   2.478   5.787   3.916  0.1791 -0.4013  0.7264
 3628TIP3   OH210844   2.781   4.910   5.581 -0.1123  0.3148 -0.3057
 3628TIP3    H110845   2.838   4.836   5.559 -3.4163 -3.3797  2.1800
 3628TIP3    H210846   2.716   4.913   5.510 -2.1336 -1.8568  1.2882
 3629TIP3   OH210847   1.474   4.719   4.009 -0.1506 -1.1587  0.0488
 3629TIP3    H110848   1.408   4.781   3.977  2.5102  1.8537 -0.1624
 3629TIP3    H210849   1.511   4.679   3.930 -0.8616 -1.9250  0.0949
 3630TIP3   OH210850   6.531   4.373   4.831  0.2945  0.1621 -0.2230
 3630TIP3    H110851   6.579   4.410   4.757  1.5323 -1.3161 -0.2085
 3630TIP3    H210852   6.547   4.434   4.903  1.4689  0.1310 -0.4457
 3631TIP3   OH210853   7.493   2.422   6.005 -0.6295  0.3998 -0.0267
 3631TIP3    H110854   7.486   2.402   5.912 -0.7348 -0.2109  0.1082
 3631TIP3    H210855   7.403   2.434   6.034 -0.9177 -2.6575  0.6755
 3632TIP3   OH210856   4.078   6.548   3.133 -0.2399 -0.2656  0.0900
 3632TIP3    H110857   4.099   6.641   3.125  1.9744 -0.6468  0.7630
 3632TIP3    H210858   4.012   6.544   3.203 -0.1155  0.7734  0.2805
 3633TIP3   OH210859   7.576   2.559   1.111  0.0241 -0.5415  0.0719
 3633TIP3    H110860   7.545   2.541   1.200 -1.7704  0.3008 -0.3224
 3633TIP3    H210861   7.652   2.615   1.122 -0.3143 -0.2634  1.0777
 3634TIP3   OH210862   0.383   4.850   5.706  0.6199  0.7090 -0.0288
 3634TIP3    H110863   0.330   4.794   5.762 -0.2496  1.4274 -0.1220
 3634TIP3    H210864   0.449   4.887   5.765  0.7905  0.1235  0.1593
 3635TIP3   OH210865   4.077   4.527   3.234  0.1026 -0.2952 -0.2130
 3635TIP3    H110866   4.153   4.584   3.245  0.8956 -1.2981 -0.3596
 3635TIP3    H210867   4.036   4.524   3.320 -0.1070  0.6906 -0.2642
 3636TIP3   OH210868   4.805   0.745   4.697 -0.3931 -0.1530  0.4217
 3636TIP3    H110869   4.817   0.816   4.634  1.0459  1.0769  1.9575
 3636TIP3    H210870   4.722   0.766   4.741 -0.5107 -0.0127  0.1331
 3637TIP3   OH210871   4.141   3.095   0.242 -0.2557  0.2596 -0.4468
 3637TIP3    H110872   4.049   3.092   0.268 -0.3491 -1.6492 -0.8081
 3637TIP3    H210873   4.144   3.045   0.160  1.3127 -1.0289  0.3373
 3638TIP3   OH210874   7.575   7.071   0.204 -0.3752  0.0998 -0.1474
 3638TIP3    H110875   7.665   7.039   0.195 -0.2400  0.5300 -0.3293
 3638TIP3    H210876   7.524   6.993   0.227 -0.2710 -0.5004 -1.8209
 3639TIP3   OH210877   4.571   3.671   0.310  0.2871 -0.3191  0.1747
 3639TIP3    H110878   4.510   3.733   0.350 -0.9248 -0.3668 -1.5103
 3639TIP3    H210879   4.527   3.586   0.318  1.2859 -0.7677  1.1712
 3640TIP3   OH210880   3.884   3.193   3.526  0.2332 -0.3876  0.4493
 3640TIP3    H110881   3.976   3.177   3.505 -0.0341  1.0273 -2.2016
 3640TIP3    H210882   3.835   3.137   3.466 -0.5948  0.8929 -0.1289
 3641TIP3   OH210883   5.759   5.853   1.138 -0.2119  0.0577 -0.9289
 3641TIP3    H110884   5.722   5.774   1.176 -1.6190  0.5750 -1.1598
 3641TIP3    H210885   5.806   5.895   1.211 -0.3031 -0.4842 -0.5554
 3642TIP3   OH210886   6.377   1.992   5.003 -0.1561 -0.3316 -0.1911
 3642TIP3    H110887   6.288   1.960   4.988 -0.9134 -0.0955  3.0647
 3642TIP3    H210888   6.370   2.045   5.081  2.4816  1.7246 -1.2264
 3643TIP3   OH210889   7.394   2.191   3.250  0.2749  0.0633  0.2570
 3643TIP3    H110890   7.464   2.256   3.249 -0.5035  0.9107 -0.4807
 3643TIP3    H210891   7.314   2.241   3.235 -0.5630 -0.8224  1.6146
 3644TIP3   OH210892   6.345   5.893   3.151  0.0466 -0.3265 -0.3155
 3644TIP3    H110893   6.277   5.933   3.097  0.1047 -0.3588 -0.4124
 3644TIP3    H210894   6.400   5.967   3.179  0.2039 -0.3493 -0.5643
 3645TIP3   OH210895   0.018   6.110   1.973 -0.0496  0.4661 -0.5309
 3645TIP3    H110896  -0.060   6.157   2.002 -2.0206 -2.5547 -0.4951
 3645TIP3    H210897   0.068   6.095   2.052 -1.3689 -0.7775  0.1113
 3646TIP3   OH210898   0.944   3.855   5.999 -0.0885  0.1276 -0.0692
 3646TIP3    H110899   0.979   3.927   6.051 -0.1020  0.6614 -0.7707
 3646TIP3    H210900   0.903   3.796   6.062  2.0866 -0.5482  0.8148
 3647TIP3   OH210901   2.056   2.051   2.226 -0.2886  0.1660 -0.1918
 3647TIP3    H110902   1.962   2.043   2.242 -0.2859 -3.6097 -1.1191
 3647TIP3    H210903   2.097   2.015   2.305  0.3673  0.9676 -0.1593
 3648TIP3   OH210904   2.445   6.426   1.637 -0.1276 -0.3043 -0.2124
 3648TIP3    H110905   2.485   6.358   1.584  0.2785  0.0376 -0.3520
 3648TIP3    H210906   2.477   6.508   1.600 -0.9216 -0.0178 -0.2985
 3649TIP3   OH210907   6.609   4.275   2.960  0.7453 -0.3031  0.2700
 3649TIP3    H110908   6.685   4.255   2.905  0.3588 -0.6250 -0.1625
 3649TIP3    H210909   6.601   4.370   2.955 -1.3562 -0.4770 -3.1474
 3650TIP3   OH210910   3.802   0.681   4.420 -0.0217 -0.6215  0.0125
 3650TIP3    H110911   3.749   0.672   4.499 -0.8615  0.3143 -0.4293
 3650TIP3    H210912   3.766   0.757   4.375  1.1661 -0.4716 -0.7248
 3651TIP3   OH210913   5.795   4.079   4.778 -0.3297 -0.0014  0.1120
 3651TIP3    H110914   5.885   4.112   4.781 -0.0078 -0.8540 -0.0037
 3651TIP3    H210915   5.741   4.158   4.786  0.4080  0.3890  2.0458
 3652TIP3   OH210916   0.104   2.176   2.479  0.0738 -0.0915 -0.5302
 3652TIP3    H110917   0.114   2.182   2.384  3.6192 -1.3893 -0.3956
 3652TIP3    H210918   0.141   2.258   2.512  2.4418 -1.1791 -0.2597
 3653TIP3   OH210919   7.164   5.134   2.828  0.3066 -0.3804 -0.0193
 3653TIP3    H110920   7.125   5.123   2.741  3.1051 -0.6425 -1.3616
 3653TIP3    H210921   7.121   5.212   2.863 -0.4769  0.1171 -1.9284
 3654TIP3   OH210922   7.574   3.300   3.354 -0.3182  0.0733  0.2067
 3654TIP3    H110923   7.618   3.380   3.382  0.0293  1.2146 -3.1181
 3654TIP3    H210924   7.490   3.302   3.399  0.1949  1.6338  1.1831
 3655TIP3   OH210925   5.881   6.900   1.122 -0.1952  0.4132 -0.3315
 3655TIP3    H110926   5.852   6.981   1.164 -1.2438  0.3353 -0.8655
 3655TIP3    H210927   5.824   6.832   1.156  1.8565 -0.4986  1.5296
 3656TIP3   OH210928   3.170   3.769   1.731  0.5283 -0.4638 -0.1115
 3656TIP3    H110929   3.198   3.818   1.808 -2.5225  1.7095 -0.1852
 3656TIP3    H210930   3.151   3.681   1.764 -1.0333  0.5060  1.7752
 3657TIP3   OH210931   1.295   1.714   5.116 -0.1034 -0.2124  0.3918
 3657TIP3    H110932   1.342   1.692   5.036  2.2147 -0.9126  1.8595
 3657TIP3    H210933   1.312   1.807   5.130  0.6449 -0.3997  0.7684
 3658TIP3   OH210934   2.083   1.042   2.990  0.0759 -0.6402  0.6306
 3658TIP3    H110935   2.144   1.098   2.943 -2.5321  2.0906  0.2261
 3658TIP3    H210936   2.067   0.968   2.931  0.5443  0.2622 -0.6517
 3659TIP3   OH210937   6.884   5.998   0.304  0.2288  0.4568 -0.3275
 3659TIP3    H110938   6.877   5.915   0.257 -1.5924  0.9526 -0.9941
 3659TIP3    H210939   6.946   5.980   0.375  0.6731 -1.1573 -1.0798
 3660TIP3   OH210940   1.336   4.552   4.236  0.1122  0.5105 -0.1573
 3660TIP3    H110941   1.404   4.556   4.170 -1.0957 -1.1081 -1.6024
 3660TIP3    H210942   1.291   4.636   4.230 -0.3119  0.1906 -1.8119
 3661TIP3   OH210943   1.687   6.789   6.076 -0.4681 -0.4290  0.2615
 3661TIP3    H110944   1.611   6.771   6.132 -1.2975 -3.4647 -1.5571
 3661TIP3    H210945   1.651   6.841   6.004 -0.3809 -0.1589  0.4148
 3662TIP3   OH210946   1.614   2.942   1.718 -0.1753  0.8716 -0.9114
 3662TIP3    H110947   1.527   2.953   1.757  0.2291 -1.0949  0.7179
 3662TIP3    H210948   1.596   2.927   1.625 -1.5203  1.2420 -0.7392
 3663TIP3   OH210949   2.828   4.140   4.672 -0.4802  0.0752 -0.0917
 3663TIP3    H110950   2.760   4.086   4.713  0.7660 -1.9686 -0.6027
 3663TIP3    H210951   2.892   4.155   4.741  0.6221 -1.6532 -0.6951
 3664TIP3   OH210952   3.713   2.160   5.548  0.3124 -0.5393  0.1403
 3664TIP3    H110953   3.797   2.206   5.556 -0.2895  0.4475  1.1023
 3664TIP3    H210954   3.734   2.081   5.498  1.6161  0.1733 -0.5047
 3665TIP3   OH210955   5.704   1.960   2.353  0.1675 -0.4115 -0.1731
 3665TIP3    H110956   5.767   2.028   2.332  0.7798 -0.2839  1.8660
 3665TIP3    H210957   5.620   2.006   2.360  0.0889 -0.3405 -1.4327
 3666TIP3   OH210958   3.350   4.550   3.392  0.3335  0.2743  0.1451
 3666TIP3    H110959   3.443   4.560   3.371  0.1636 -0.7310 -1.2325
 3666TIP3    H210960   3.308   4.540   3.307 -0.9167 -0.2847  0.8058
 3667TIP3   OH210961   4.443   5.273   1.010 -0.1615  0.6365 -0.2914
 3667TIP3    H110962   4.374   5.207   0.998 -0.6605  0.4045  2.8391
 3667TIP3    H210963   4.395   5.355   1.019 -0.3187  0.3365  2.9872
 3668TIP3   OH210964   7.096   6.836   3.889 -0.2518  0.6132 -0.2700
 3668TIP3    H110965   7.005   6.842   3.860  0.0534  0.8146 -1.1940
 3668TIP3    H210966   7.109   6.743   3.908 -0.2247  0.3447 -1.5467
 3669TIP3   OH210967   2.141   2.299   3.390 -0.2535  0.1792 -0.0083
 3669TIP3    H110968   2.064   2.272   3.439  1.5017 -2.5351  1.5104
 3669TIP3    H210969   2.128   2.263   3.302 -1.4226  1.2286 -0.2918
 3670TIP3   OH210970   5.031   1.130   6.144  0.1902 -0.3600 -0.3855
 3670TIP3    H110971   5.123   1.115   6.121 -0.1454 -1.7239 -0.9222
 3670TIP3    H210972   4.982   1.103   6.066 -0.6616  0.7451 -0.2645
 3671TIP3   OH210973   5.427   4.576   1.670 -0.0742  0.0332  0.2653
 3671TIP3    H110974   5.355   4.611   1.723 -0.7282  0.7394 -1.0329
 3671TIP3    H210975   5.475   4.654   1.642 -0.1321 -0.2741 -0.7149
 3672TIP3   OH210976   1.149   1.341   0.760  0.1071 -0.0307  0.1840
 3672TIP3    H110977   1.096   1.421   0.766  0.9517  0.7320 -1.8216
 3672TIP3    H210978   1.200   1.352   0.680  0.3441 -2.5422 -0.0728
 3673TIP3   OH210979   5.599   0.297   5.168  0.5110 -0.7061 -0.6567
 3673TIP3    H110980   5.609   0.382   5.126  0.5464 -0.2357  0.2739
 3673TIP3    H210981   5.573   0.238   5.098 -0.2437  0.2289 -1.1826
 3674TIP3   OH210982   3.555   0.408   3.397 -0.1103  0.0222 -0.2988
 3674TIP3    H110983   3.461   0.424   3.393 -0.2571 -0.0960  1.6649
 3674TIP3    H210984   3.578   0.418   3.490  1.7196 -0.4637 -0.6431
 3675TIP3   OH210985   2.297   1.292   0.523  0.1154 -0.0473  0.4564
 3675TIP3    H110986   2.270   1.380   0.498 -0.1281 -0.0251  0.7977
 3675TIP3    H210987   2.244   1.271   0.599 -0.6560 -0.9392 -0.3012
 3676TIP3   OH210988   3.768   2.340   1.748 -0.5256  0.2715 -0.3012
 3676TIP3    H110989   3.847   2.287   1.759 -1.3310 -0.6704  1.2191
 3676TIP3    H210990   3.701   2.296   1.801 -2.2930  0.6373 -2.1033
 3677TIP3   OH210991   0.806   2.803   3.628  0.2161  0.1052  0.4246
 3677TIP3    H110992   0.889   2.811   3.583 -0.2136  1.1453 -0.2045
 3677TIP3    H210993   0.742   2.789   3.558 -0.4576  1.7255  0.6722
 3678TIP3   OH210994   0.194   3.482   4.280 -0.4385 -0.1749  0.0504
 3678TIP3    H110995   0.231   3.440   4.202 -0.7968 -0.0963 -0.1696
 3678TIP3    H210996   0.243   3.446   4.353 -0.0594 -0.2115 -0.2175
 3679TIP3   OH210997   0.468   1.979   5.236  0.5304 -0.4064 -0.2110
 3679TIP3    H110998   0.421   2.058   5.262 -1.4277 -1.5097 -0.1644
 3679TIP3    H210999   0.472   1.984   5.140 -0.3439 -0.6244 -0.2690
 3680TIP3   OH211000   6.367   0.926   0.647 -0.3766 -0.0370 -0.0951
 3680TIP3    H111001   6.451   0.881   0.651 -0.4287 -0.6065 -3.0159
 3680TIP3    H211002   6.302   0.859   0.668 -0.2302 -0.3621 -0.6533
 3681TIP3   OH211003   4.970   1.212   1.014 -0.2497 -0.4136  0.2560
 3681TIP3    H111004   4.876   1.230   1.016 -0.0007  1.2721 -1.3973
 3681TIP3    H211005   5.011   1.298   1.007  1.5102 -1.0268  2.0508
 3682TIP3   OH211006   0.575   5.323   1.801 -0.5027  0.1865  0.1010
 3682TIP3    H111007   0.559   5.348   1.893  0.6018  0.2793  0.2826
 3682TIP3    H211008   0.572   5.406   1.753 -1.1397  0.1312  0.0327
 3683TIP3   OH211009   3.678   3.997   1.803  0.0783  0.0625  0.3759
 3683TIP3    H111010   3.681   3.940   1.880  1.8743 -0.6196 -0.1551
 3683TIP3    H211011   3.604   3.965   1.753 -0.4288 -0.2113  1.2710
 3684TIP3   OH211012   0.663   0.511   2.903 -0.1759  0.2178  0.6569
 3684TIP3    H111013   0.716   0.583   2.937  1.9969 -1.0436  0.1128
 3684TIP3    H211014   0.645   0.534   2.812 -0.9488  0.8364  0.9552
 3685TIP3   OH211015   2.939   3.989   2.313 -0.0564 -0.4353  0.3621
 3685TIP3    H111016   2.907   3.899   2.307  2.3019 -1.4989  2.0812
 3685TIP3    H211017   3.003   3.997   2.242 -1.8343  0.7469 -1.2444
 3686TIP3   OH211018   4.706   0.734   5.170 -0.0769  0.2406 -0.0388
 3686TIP3    H111019   4.670   0.821   5.156  0.9383  0.8501  0.9710
 3686TIP3    H211020   4.777   0.747   5.233  0.9235 -1.1239 -0.8200
 3687TIP3   OH211021   5.126   4.610   3.546 -0.3636  0.6425 -0.2892
 3687TIP3    H111022   5.118   4.516   3.532 -1.0656  0.6576 -0.0404
 3687TIP3    H211023   5.206   4.635   3.500  0.1594 -0.1763  0.1543
 3688TIP3   OH211024   6.966   0.138   0.689  0.7049  0.3327  0.6360
 3688TIP3    H111025   6.998   0.154   0.600 -0.1934  0.8172  0.3855
 3688TIP3    H211026   6.924   0.221   0.714  0.7364  0.1189  1.4206
 3689TIP3   OH211027   6.772   2.182   5.689 -0.1058 -0.0302  0.5049
 3689TIP3    H111028   6.753   2.257   5.632  0.5863 -1.3194 -1.5306
 3689TIP3    H211029   6.689   2.136   5.698 -0.2428  0.2449  0.6515
 3690TIP3   OH211030   0.107   3.265   1.409  0.2171 -0.0679  0.3141
 3690TIP3    H111031   0.089   3.331   1.342  1.6565 -0.7608 -0.8149
 3690TIP3    H211032   0.144   3.315   1.482 -1.5289  0.7146  0.7184
 3691TIP3   OH211033   6.733   2.073   2.692 -0.2597 -0.0687  0.2237
 3691TIP3    H111034   6.738   2.032   2.605 -0.5788 -2.0923  1.1133
 3691TIP3    H211035   6.664   2.138   2.684 -2.5185 -2.3667 -0.2676
 3692TIP3   OH211036   1.516   4.529   3.602  0.5898 -0.6917  0.3868
 3692TIP3    H111037   1.552   4.579   3.529  0.3587  2.0450  2.0018
 3692TIP3    H211038   1.521   4.438   3.574  0.9007  0.1983 -2.8324
 3693TIP3   OH211039   6.752   5.123   3.708  0.1579 -0.5464  0.3400
 3693TIP3    H111040   6.832   5.153   3.666 -0.5059  0.6157 -0.1357
 3693TIP3    H211041   6.699   5.202   3.719 -1.0729 -1.3400  0.3162
 3694TIP3   OH211042   0.210   2.423   4.479  0.7235  0.0389  0.2984
 3694TIP3    H111043   0.177   2.390   4.562 -0.5929 -2.4891 -1.1086
 3694TIP3    H211044   0.278   2.485   4.503 -1.5459  1.6041  3.2653
 3695TIP3   OH211045   5.699   0.015   4.368 -0.0507  0.2812 -0.1527
 3695TIP3    H111046   5.745   0.023   4.284  0.5895 -0.8417  0.0695
 3695TIP3    H211047   5.763   0.046   4.433 -0.7817  1.7776 -0.1299
 3696TIP3   OH211048   2.380   5.595   4.389  0.9502  0.2714 -0.6627
 3696TIP3    H111049   2.378   5.614   4.483 -0.7906  0.1465 -0.6489
 3696TIP3    H211050   2.427   5.512   4.382  1.5154  0.5212  0.0331
 3697TIP3   OH211051   2.878   6.737   4.614 -0.0035  0.0002  0.3729
 3697TIP3    H111052   2.893   6.832   4.620  1.5347 -0.2099  0.2297
 3697TIP3    H211053   2.882   6.718   4.520 -0.4215 -0.2002  0.3933
 3698TIP3   OH211054   0.929   2.410   4.109 -0.0725 -0.3586  0.3284
 3698TIP3    H111055   0.889   2.364   4.035  0.0009  0.5930 -0.3156
 3698TIP3    H211056   0.874   2.487   4.122  1.1426  0.6306 -0.1549
 3699TIP3   OH211057   4.736   3.568   0.861  0.2956 -0.7946  0.2852
 3699TIP3    H111058   4.741   3.659   0.832 -0.1279 -0.9405 -0.2834
 3699TIP3    H211059   4.749   3.517   0.781  0.4243 -1.2345  0.5806
 3700TIP3   OH211060   4.599   1.232   1.333  0.6164 -0.8357  0.1525
 3700TIP3    H111061   4.552   1.202   1.411 -0.5266 -0.6332 -0.4209
 3700TIP3    H211062   4.656   1.302   1.365  0.4972 -1.0612  0.8810
 3701TIP3   OH211063   0.923   6.401   4.311 -0.2465  0.0021 -0.1216
 3701TIP3    H111064   0.980   6.325   4.302  1.4253  1.1658  0.1961
 3701TIP3    H211065   0.849   6.383   4.253  0.4446 -1.5465 -0.5672
 3702TIP3   OH211066   3.782   0.533   4.193  0.1339 -0.0703  0.0895
 3702TIP3    H111067   3.810   0.576   4.274 -1.9023 -1.0705  1.3994
 3702TIP3    H211068   3.687   0.538   4.194  0.0525  0.6926 -2.7526
 3703TIP3   OH211069   1.072   0.815   0.118  0.1029 -0.6165 -0.0050
 3703TIP3    H111070   0.990   0.805   0.165 -0.4907  1.7305 -0.4004
 3703TIP3    H211071   1.056   0.777   0.032 -0.4425 -0.4671  0.0318
 3704TIP3   OH211072   1.066   4.017   6.211  0.6731  0.7857  0.8961
 3704TIP3    H111073   1.161   4.029   6.213  0.8901 -0.2644 -1.0103
 3704TIP3    H211074   1.034   4.090   6.159  0.4126  1.1524  1.5570
 3705TIP3   OH211075   6.120   6.730   3.436 -0.0696  0.0018 -0.3974
 3705TIP3    H111076   6.050   6.682   3.481  0.5705 -1.8266 -1.2283
 3705TIP3    H211077   6.197   6.674   3.445  1.1319  1.6391 -0.1249
 3706TIP3   OH211078   0.757   4.043   1.363 -0.0335  0.6874 -0.1341
 3706TIP3    H111079   0.723   4.051   1.453 -0.2873  2.5214 -0.3663
 3706TIP3    H211080   0.764   3.948   1.349  1.8411  0.3166  2.4982
 3707TIP3   OH211081   6.695   6.975   2.476 -0.4514 -0.1806  0.2599
 3707TIP3    H111082   6.644   7.046   2.437 -0.6807 -0.0751  0.7478
 3707TIP3    H211083   6.685   6.902   2.414 -1.4816 -0.2764  0.5196
 3708TIP3   OH211084   5.499   3.264   1.399 -0.0811 -0.7559  0.1552
 3708TIP3    H111085   5.504   3.201   1.471  0.7315 -1.6005 -0.6089
 3708TIP3    H211086   5.479   3.211   1.322 -3.6536  0.4104  0.0916
 3709TIP3   OH211087   7.301   0.193   5.077  0.1658 -0.4711 -0.1709
 3709TIP3    H111088   7.364   0.258   5.108 -0.8499  2.0235 -2.9078
 3709TIP3    H211089   7.353   0.112   5.069  1.6136  0.0258  2.7759
 3710TIP3   OH211090   2.744   2.541   2.549  0.7225  0.3217 -0.1341
 3710TIP3    H111091   2.770   2.499   2.631 -2.2793 -1.3524  0.0938
 3710TIP3    H211092   2.787   2.489   2.481 -0.1722 -1.0225  0.2844
 3711TIP3   OH211093   7.410   6.276   2.056 -0.2340 -0.1272  0.0903
 3711TIP3    H111094   7.461   6.353   2.081  0.5249 -0.1480 -1.2695
 3711TIP3    H211095   7.370   6.300   1.973 -0.4768 -0.9806 -0.0477
 3712TIP3   OH211096   1.745   3.720   3.973  0.0680 -0.6724 -0.7152
 3712TIP3    H111097   1.734   3.628   3.946 -1.5364 -0.7744  0.1589
 3712TIP3    H211098   1.815   3.718   4.037  0.4236 -1.2014 -1.1121
 3713TIP3   OH211099   6.575   1.665   4.593 -0.3347  0.3081  0.9767
 3713TIP3    H111100   6.564   1.753   4.556  1.2644 -0.1257 -0.6605
 3713TIP3    H211101   6.659   1.669   4.640  1.2821 -1.0527 -1.5929
 3714TIP3   OH211102   3.844   4.539   5.060 -0.2446 -0.1384  0.0391
 3714TIP3    H111103   3.915   4.538   4.995  1.0791  0.0513  1.4054
 3714TIP3    H211104   3.789   4.465   5.037  0.0133  0.1202 -1.4812
 3715TIP3   OH211105   4.708   0.570   4.487  0.1150 -0.2630  0.3185
 3715TIP3    H111106   4.714   0.628   4.411  0.1115 -1.1798 -0.3974
 3715TIP3    H211107   4.744   0.621   4.560  0.1220  0.6248 -0.2994
 3716TIP3   OH211108   4.061   2.139   1.035 -0.0122  0.3642  0.0008
 3716TIP3    H111109   3.988   2.144   0.973  0.8162 -0.3583 -1.0624
 3716TIP3    H211110   4.023   2.166   1.119 -1.4595  0.1594 -0.5632
 3717TIP3   OH211111   2.338   6.304   2.391  0.3543  0.3038 -1.1300
 3717TIP3    H111112   2.322   6.253   2.471  1.6461  0.7089 -0.5862
 3717TIP3    H211113   2.258   6.355   2.379 -0.0570 -0.1467 -0.3842
 3718TIP3   OH211114   0.612   4.816   2.444 -0.4289  0.0816  0.0034
 3718TIP3    H111115   0.522   4.785   2.453 -0.7609  0.4954 -1.5646
 3718TIP3    H211116   0.627   4.869   2.522 -0.4442 -2.5028  1.8775
 3719TIP3   OH211117   2.316   2.727   5.854 -0.3890 -0.5151  0.1001
 3719TIP3    H111118   2.319   2.632   5.856 -0.4204 -0.5088  1.0584
 3719TIP3    H211119   2.374   2.755   5.925 -1.5248  0.1376  0.8081
 3720TIP3   OH211120   1.123   5.028   3.107  0.5067  0.3640  0.5559
 3720TIP3    H111121   1.081   4.973   3.040 -0.0611 -0.6336  1.6811
 3720TIP3    H211122   1.077   5.112   3.102  2.0324  1.1471 -1.8440
 3721TIP3   OH211123   2.167   3.616   4.141  0.0170  0.0265  0.4868
 3721TIP3    H111124   2.136   3.614   4.051  0.7227  0.3927  0.2314
 3721TIP3    H211125   2.088   3.600   4.194 -0.8274  1.8773 -0.1156
 3722TIP3   OH211126   0.096   0.171   3.222  0.3373 -0.0095 -0.9656
 3722TIP3    H111127   0.014   0.132   3.252 -0.3104  2.3668  0.6240
 3722TIP3    H211128   0.073   0.218   3.142  0.9136 -1.9290 -2.3341
 3723TIP3   OH211129   4.951  -0.007   4.960  0.4506  0.2862  0.3241
 3723TIP3    H111130   5.022  -0.061   4.994  1.9971  0.7892 -1.8671
 3723TIP3    H211131   4.976   0.082   4.985 -0.2088  0.3404  0.8119
 3724TIP3   OH211132   5.083   6.129   2.464 -0.0064  0.0986  0.2629
 3724TIP3    H111133   5.012   6.177   2.505 -0.1272  0.5125 -0.4060
 3724TIP3    H211134   5.151   6.123   2.531  0.0981  1.4068  0.2949
 3725TIP3   OH211135   6.030   0.869   5.553 -0.2980 -0.5670  0.4203
 3725TIP3    H111136   5.972   0.891   5.480  0.6076  1.7453  0.3059
 3725TIP3    H211137   6.106   0.828   5.512 -0.3838 -0.5223  0.2172
 3726TIP3   OH211138   1.711   0.121   2.666  0.5061  0.1956 -0.3807
 3726TIP3    H111139   1.713   0.059   2.739  0.8553 -0.4218 -0.8985
 3726TIP3    H211140   1.637   0.179   2.685 -2.4107 -2.7556 -1.7474
 3727TIP3   OH211141   3.521   0.542   4.172 -0.5906 -0.5127 -0.1801
 3727TIP3    H111142   3.460   0.563   4.102 -1.5138 -1.5219  0.2945
 3727TIP3    H211143   3.477   0.573   4.252  0.0535 -0.1614  0.0418
 3728TIP3   OH211144   1.968   5.490   5.849  0.2951 -0.0615  0.2169
 3728TIP3    H111145   2.052   5.530   5.870  0.8810 -1.8091  1.4448
 3728TIP3    H211146   1.913   5.564   5.822  2.1095  1.1627 -0.3539
 3729TIP3   OH211147   1.375   3.965   0.948  0.3943  0.4962 -0.3247
 3729TIP3    H111148   1.326   4.047   0.939  0.1896  0.3173 -0.8581
 3729TIP3    H211149   1.465   3.988   0.922  0.1857  0.3895 -1.1365
 3730TIP3   OH211150   6.659   3.632   0.475 -0.5927  0.0397 -0.0998
 3730TIP3    H111151   6.708   3.709   0.447 -1.0981  0.1110 -0.8161
 3730TIP3    H211152   6.658   3.637   0.571 -0.8124  1.0377 -0.1432
 3731TIP3   OH211153   2.300   2.863   1.117  0.0595  0.1017 -0.3332
 3731TIP3    H111154   2.343   2.816   1.046 -0.7048 -1.3480  0.1269
 3731TIP3    H211155   2.209   2.837   1.111 -0.9422  3.3855 -1.5104
 3732TIP3   OH211156   2.264   0.642   2.366  0.7262 -0.8925 -0.3333
 3732TIP3    H111157   2.253   0.591   2.286 -0.4872 -2.7530  0.9247
 3732TIP3    H211158   2.176   0.675   2.386  1.0915 -0.1183  0.0324
 3733TIP3   OH211159   3.239   2.092   1.796  0.1899 -0.2255  0.1250
 3733TIP3    H111160   3.265   2.180   1.826 -2.0499 -0.0403  1.9132
 3733TIP3    H211161   3.201   2.107   1.710  3.8765 -0.2399 -1.6730
 3734TIP3   OH211162   6.457   3.763   0.295  0.5157 -0.1639 -0.0701
 3734TIP3    H111163   6.495   3.817   0.225  0.5549 -0.1588 -0.0449
 3734TIP3    H211164   6.519   3.691   0.307  1.4349  0.7941  1.1954
 3735TIP3   OH211165   7.049   0.412   3.095 -0.6710  0.1862 -0.3469
 3735TIP3    H111166   7.076   0.440   3.182 -0.0303  1.4948 -0.9463
 3735TIP3    H211167   6.983   0.476   3.068 -0.4238  0.1415 -1.0760
 3736TIP3   OH211168   5.169   5.271   2.549  0.5460  0.3548  0.4951
 3736TIP3    H111169   5.115   5.201   2.511  0.1077 -0.8224  3.0342
 3736TIP3    H211170   5.107   5.341   2.570  0.5982  0.5162  0.1111
 3737TIP3   OH211171   0.214   0.874   4.013 -0.2414 -0.0219  0.4477
 3737TIP3    H111172   0.183   0.963   4.001  0.3772 -0.0556 -2.1528
 3737TIP3    H211173   0.209   0.858   4.107 -2.1685  2.0593  0.7718
 3738TIP3   OH211174   1.206   3.740   2.488  0.0662 -0.1230  0.2230
 3738TIP3    H111175   1.225   3.701   2.403 -1.4613 -0.0815 -0.1570
 3738TIP3    H211176   1.287   3.785   2.511  1.4802 -2.4366  0.1152
 3739TIP3   OH211177   5.919   6.321   5.222 -0.3056 -0.8078 -0.0815
 3739TIP3    H111178   5.842   6.335   5.278 -0.0875  0.9228 -0.1494
 3739TIP3    H211179   5.975   6.263   5.273 -0.4945  0.0356  1.1453
 3740TIP3   OH211180   6.205   3.919   4.087 -0.1598  0.2557 -0.0051
 3740TIP3    H111181   6.298   3.936   4.081  0.3508 -2.2049 -0.2004
 3740TIP3    H211182   6.177   3.906   3.997 -0.2826 -0.7130  0.1535
 3741TIP3   OH211183   5.137   0.832   3.032 -0.1678  0.7730  0.3709
 3741TIP3    H111184   5.116   0.772   2.960  0.5677 -0.0131  0.7918
 3741TIP3    H211185   5.158   0.775   3.106 -0.8124  1.5698  1.1917
 3742TIP3   OH211186   2.465   4.667   2.034  0.1395  0.8306 -0.7371
 3742TIP3    H111187   2.461   4.732   1.964  0.1018  0.8680 -0.7006
 3742TIP3    H211188   2.407   4.597   2.004  0.7631  0.4748 -1.1175
 3743TIP3   OH211189   3.773   3.380   5.972 -0.4671 -0.4638 -0.4979
 3743TIP3    H111190   3.725   3.309   6.014 -0.4346  0.3332  0.9722
 3743TIP3    H211191   3.804   3.434   6.045 -0.9097  1.3318 -1.5684
 3744TIP3   OH211192   1.145   1.843   2.933  0.4440  0.1527 -0.4633
 3744TIP3    H111193   1.139   1.814   2.842 -1.2495  2.6977 -1.2623
 3744TIP3    H211194   1.102   1.774   2.984  2.5619 -1.9525 -1.3304
 3745TIP3   OH211195   4.185   4.629   2.975  0.2901 -0.7616 -0.7019
 3745TIP3    H111196   4.107   4.680   2.996 -0.0849 -1.1502 -1.1342
 3745TIP3    H211197   4.257   4.680   3.012 -0.0720  0.0817 -1.1374
 3746TIP3   OH211198   0.967   0.365   3.756 -0.5534  0.8003  0.0831
 3746TIP3    H111199   0.897   0.326   3.809 -1.0598  2.5363  0.7459
 3746TIP3    H211200   1.011   0.290   3.717 -1.8477 -0.4110  0.8393
 3747TIP3   OH211201   3.113   1.428   3.839  0.3502  0.2306 -0.0154
 3747TIP3    H111202   3.044   1.363   3.827  1.2875 -0.6638 -0.8223
 3747TIP3    H211203   3.071   1.500   3.886 -2.0025  1.1563 -3.2135
 3748TIP3   OH211204   0.222   3.121   5.096 -0.4281 -0.9432  0.4158
 3748TIP3    H111205   0.256   3.211   5.103 -2.8336  0.4711 -2.9295
 3748TIP3    H211206   0.274   3.081   5.026 -1.6361 -0.7900 -0.6276
 3749TIP3   OH211207   0.309   5.640   1.675  0.2129  0.1619 -0.4414
 3749TIP3    H111208   0.371   5.664   1.744 -3.3291  2.2799  2.3056
 3749TIP3    H211209   0.259   5.567   1.711  0.1095 -0.5863 -2.0115
 3750TIP3   OH211210   1.851   5.425   6.094 -0.0710  0.0465 -0.4268
 3750TIP3    H111211   1.849   5.331   6.111 -2.1455  0.0325 -0.4124
 3750TIP3    H211212   1.874   5.433   6.002 -1.2881 -0.5898 -0.8114
 3751TIP3   OH211213   0.749   4.655   2.081 -0.3677  0.0186  0.4158
 3751TIP3    H111214   0.740   4.562   2.102 -0.1024 -0.3727 -1.0531
 3751TIP3    H211215   0.659   4.686   2.071 -0.4624 -0.0153  1.1608
 3752TIP3   OH211216   1.509   2.172   2.821  0.0687  0.0598  0.1196
 3752TIP3    H111217   1.435   2.113   2.805  0.3737  0.0146 -1.2399
 3752TIP3    H211218   1.476   2.259   2.796  0.7424 -0.0993 -1.4407
 3753TIP3   OH211219   5.013   3.967   1.742 -0.0603  0.2683  0.3287
 3753TIP3    H111220   4.951   3.894   1.743  0.0566  0.1287 -0.9661
 3753TIP3    H211221   5.016   3.997   1.833 -1.8562  0.1353  0.4678
 3754TIP3   OH211222   3.974   3.405   2.022 -0.3524 -0.5169  0.0282
 3754TIP3    H111223   3.882   3.411   1.996 -0.6416 -1.3227  0.8157
 3754TIP3    H211224   4.021   3.458   1.957 -1.5571  1.4449  0.6543
 3755TIP3   OH211225   5.997   1.587   4.116 -0.1041  0.0667  0.0099
 3755TIP3    H111226   5.986   1.556   4.026 -0.0584  0.2103 -0.0446
 3755TIP3    H211227   6.033   1.511   4.163  1.7066  0.5558 -0.5186
 3756TIP3   OH211228   2.333   7.003   0.705 -0.3616 -0.4982  0.0865
 3756TIP3    H111229   2.418   7.043   0.684 -1.0662  1.2132  0.3125
 3756TIP3    H211230   2.355   6.930   0.763  0.9699 -0.1728  0.0318
 3757TIP3   OH211231   2.324   2.784   3.973 -0.1440 -0.1472 -0.1979
 3757TIP3    H111232   2.277   2.703   3.952 -0.2206 -0.3008  0.5381
 3757TIP3    H211233   2.285   2.813   4.055 -1.3458  1.5715 -1.2816
 3758TIP3   OH211234   0.734   5.973   4.102 -0.5155 -0.7203  0.4224
 3758TIP3    H111235   0.692   5.889   4.083 -0.8371 -0.5329  0.2825
 3758TIP3    H211236   0.735   5.978   4.198 -2.7151  0.1678  0.4743
 3759TIP3   OH211237   5.992   3.314   5.074 -0.3282 -0.5812  0.0510
 3759TIP3    H111238   5.964   3.396   5.033  1.1163 -0.2458 -0.3200
 3759TIP3    H211239   6.032   3.264   5.003 -0.5187 -1.2883  0.4372
 3760TIP3   OH211240   3.084   3.529   0.940  0.2526 -0.2388  0.0597
 3760TIP3    H111241   3.002   3.573   0.918  0.6516  0.3001 -0.3874
 3760TIP3    H211242   3.088   3.532   1.036 -1.2924 -2.2250  0.2415
 3761TIP3   OH211243   7.537   4.795   5.801 -0.1383 -0.2633 -0.8195
 3761TIP3    H111244   7.451   4.834   5.817  0.5022  1.1802 -0.7149
 3761TIP3    H211245   7.599   4.855   5.842  0.9575 -1.0695 -1.2322
 3762TIP3   OH211246   0.283   2.115   4.683 -0.0078  0.6889 -0.1133
 3762TIP3    H111247   0.302   2.094   4.591 -2.9640  1.4828 -1.0399
 3762TIP3    H211248   0.271   2.031   4.726  3.1246  0.2451  0.0566
 3763TIP3   OH211249   7.276   5.427   4.410 -0.0989  0.0001  0.5387
 3763TIP3    H111250   7.251   5.477   4.332  0.1737 -0.7845 -0.0643
 3763TIP3    H211251   7.363   5.393   4.390  0.1002  0.0301  1.3104
 3764TIP3   OH211252   6.736   3.976   3.355 -0.2436 -0.0354  0.4177
 3764TIP3    H111253   6.739   3.898   3.300  0.5657  1.7174 -2.1960
 3764TIP3    H211254   6.644   3.984   3.381 -1.0194 -0.0622 -2.1061
 3765TIP3   OH211255   6.766   1.016   5.842  0.4632  0.2122 -0.2783
 3765TIP3    H111256   6.844   1.031   5.896  0.3298 -2.8776  1.0302
 3765TIP3    H211257   6.706   0.970   5.901  0.4309 -3.7074 -2.9982
 3766TIP3   OH211258   3.598   3.102   4.255  0.1664  0.1867  0.3556
 3766TIP3    H111259   3.527   3.152   4.213  0.0842  0.3211  0.6529
 3766TIP3    H211260   3.617   3.150   4.335 -0.2758 -0.5352  0.9192
 3767TIP3   OH211261   7.329   5.208   4.741  0.3202  0.2552  0.3524
 3767TIP3    H111262   7.313   5.223   4.834 -0.0311  1.4453  0.1095
 3767TIP3    H211263   7.344   5.295   4.705 -0.8984 -0.0408 -0.9511
 3768TIP3   OH211264   0.361   6.234   0.834  0.0289  0.2541 -0.5223
 3768TIP3    H111265   0.345   6.262   0.744 -0.3020 -0.5024 -0.7068
 3768TIP3    H211266   0.323   6.304   0.888 -0.3596  0.3916 -0.9655
 3769TIP3   OH211267   1.810   2.896   3.256  0.6596  0.0699 -0.3100
 3769TIP3    H111268   1.806   2.917   3.350 -0.6502 -0.8424 -0.1251
 3769TIP3    H211269   1.843   2.806   3.253  0.0039 -0.1681 -0.6614
 3770TIP3   OH211270   4.012   5.492   5.088 -0.3361  0.1955  0.6250
 3770TIP3    H111271   4.062   5.429   5.140 -1.1094 -0.4424  0.6337
 3770TIP3    H211272   3.929   5.447   5.071 -0.7588  1.0744  0.3061
 3771TIP3   OH211273   4.413   3.515   3.964 -0.3675  0.2207 -0.1875
 3771TIP3    H111274   4.473   3.589   3.971 -0.7817  0.4480  1.1856
 3771TIP3    H211275   4.327   3.550   3.989 -0.8269 -0.4227 -0.7891
 3772TIP3   OH211276   2.977   7.110   5.869 -0.4647  0.0691  0.0537
 3772TIP3    H111277   3.041   7.077   5.932 -0.7108  0.1540  0.3562
 3772TIP3    H211278   2.927   7.176   5.918  0.3575  1.2766 -0.6855
 3773TIP3   OH211279   6.000   2.202   0.950  0.3977  0.0769  0.3733
 3773TIP3    H111280   6.077   2.251   0.922 -1.2907  2.9619  0.3501
 3773TIP3    H211281   6.031   2.146   1.021  2.7025  0.2531 -0.4194
 3774TIP3   OH211282   4.078   4.075   0.639  0.4458  1.0594  0.6584
 3774TIP3    H111283   4.076   4.114   0.726 -1.3121 -0.3577  1.3195
 3774TIP3    H211284   4.129   3.994   0.651 -1.0469  0.0849  0.8007
 3775TIP3   OH211285   3.868   1.243   2.418  0.0184  0.1725 -0.5422
 3775TIP3    H111286   3.785   1.206   2.446  1.0527 -0.8665  1.3241
 3775TIP3    H211287   3.885   1.202   2.333  0.1458 -2.1652  0.5408
 3776TIP3   OH211288   5.807   4.477   4.082  0.2052  0.6060  0.2228
 3776TIP3    H111289   5.821   4.463   4.176 -0.0745 -1.8347 -0.0324
 3776TIP3    H211290   5.810   4.389   4.044 -1.8949  1.2914 -1.7478
 3777TIP3   OH211291   4.253   7.030   5.804 -0.5731  0.8363  0.2319
 3777TIP3    H111292   4.314   7.104   5.797  1.0314 -0.3792  0.8345
 3777TIP3    H211293   4.278   6.971   5.734  0.6494 -0.8356  1.9761
 3778TIP3   OH211294   4.273   4.078   5.067 -0.2341  0.2732 -0.2472
 3778TIP3    H111295   4.323   4.160   5.073  0.2192  0.0010 -0.3072
 3778TIP3    H211296   4.182   4.106   5.070 -0.0811  0.7298  0.4934
 3779TIP3   OH211297   3.875   3.112   0.290 -0.1819  0.0970  0.1457
 3779TIP3    H111298   3.808   3.174   0.261 -0.9189 -0.4337  0.6874
 3779TIP3    H211299   3.846   3.084   0.377 -0.1298 -1.3910 -0.2966
 3780TIP3   OH211300   4.374   6.882   3.795 -1.3018 -0.2353 -0.1312
 3780TIP3    H111301   4.393   6.853   3.705 -1.3911 -0.2513 -0.1451
 3780TIP3    H211302   4.352   6.801   3.842  2.4269 -0.8490  0.8973
 3781TIP3   OH211303   1.981   2.409   0.978 -0.0139  1.0820  0.2300
 3781TIP3    H111304   1.903   2.465   0.983 -0.6267  0.6890 -2.8228
 3781TIP3    H211305   2.032   2.445   0.905  0.8951 -0.7416 -0.0937
 3782TIP3   OH211306   1.015   6.758   4.915  0.1509  0.4036 -0.0780
 3782TIP3    H111307   0.919   6.763   4.918  0.1483 -0.2301  1.4124
 3782TIP3    H211308   1.044   6.844   4.944  0.0309  0.3605  0.1746
 3783TIP3   OH211309   5.635   0.879   1.323 -0.1062  0.2115  0.3854
 3783TIP3    H111310   5.702   0.844   1.263  0.1928  1.1401  0.1609
 3783TIP3    H211311   5.553   0.872   1.274 -0.1208 -0.5970  0.5216
 3784TIP3   OH211312   1.459   3.708   4.039  0.1522 -0.1525 -0.2694
 3784TIP3    H111313   1.522   3.761   3.992 -0.9974  1.1492 -0.4046
 3784TIP3    H211314   1.496   3.696   4.126  0.5406  0.6511 -0.3259
 3785TIP3   OH211315   4.759   5.036   4.683 -0.2146 -0.0293 -0.5737
 3785TIP3    H111316   4.751   5.026   4.588  0.1874 -0.9197 -0.5274
 3785TIP3    H211317   4.776   4.948   4.715  2.6487  0.6095  0.0063
 3786TIP3   OH211318   7.417   5.437   1.843  0.1725  0.1796 -0.6428
 3786TIP3    H111319   7.380   5.488   1.914 -0.0431 -0.4898 -0.2668
 3786TIP3    H211320   7.432   5.501   1.773  2.1223  1.2061  0.6184
 3787TIP3   OH211321   1.083   4.080   2.785 -0.0034  0.3870  0.1795
 3787TIP3    H111322   1.046   4.017   2.724 -0.1275  0.0039  0.6465
 3787TIP3    H211323   1.151   4.126   2.734 -0.2483  0.2197 -0.3031
 3788TIP3   OH211324   0.081   5.224   1.581 -0.1222  0.8156  0.3247
 3788TIP3    H111325   0.018   5.273   1.528  0.7381 -0.0025 -1.5965
 3788TIP3    H211326   0.063   5.132   1.561  0.0156  0.4465  1.7781
 3789TIP3   OH211327   1.304   4.458   1.192  0.1428 -0.1812 -0.2211
 3789TIP3    H111328   1.325   4.549   1.214 -0.1318 -0.3544  0.8251
 3789TIP3    H211329   1.389   4.413   1.193  0.2351 -0.0134 -0.3764
 3790TIP3   OH211330   5.897   0.550   5.264  0.2012 -0.1507 -0.2405
 3790TIP3    H111331   5.889   0.534   5.170  1.4738  1.2290 -0.6212
 3790TIP3    H211332   5.858   0.473   5.305 -1.3648 -0.2879 -1.8800
 3791TIP3   OH211333   5.308   4.454   1.933  0.1171  0.1566  0.4475
 3791TIP3    H111334   5.232   4.491   1.888 -0.6122  0.1707  1.6512
 3791TIP3    H211335   5.272   4.385   1.988  1.2100 -0.9832 -0.2096
 3792TIP3   OH211336   1.898   4.478   5.778 -0.7544 -0.8637 -0.3028
 3792TIP3    H111337   1.907   4.383   5.771 -0.9087 -0.9181  0.1855
 3792TIP3    H211338   1.809   4.496   5.749 -0.6499 -0.8412 -0.6132
 3793TIP3   OH211339   7.312   4.003   0.008 -0.6956  0.8191 -0.1896
 3793TIP3    H111340   7.277   4.052   0.082  0.6018  0.7402  0.5100
 3793TIP3    H211341   7.268   4.041  -0.069 -3.4781 -0.3398  0.6950
 3794TIP3   OH211342   6.351   3.045   5.537 -0.2647 -0.2767 -0.2388
 3794TIP3    H111343   6.273   3.082   5.579 -0.0624  0.4288 -0.4703
 3794TIP3    H211344   6.416   3.039   5.608  0.3754  1.7627 -0.5961
 3795TIP3   OH211345   4.997   5.976   4.625  0.0812  0.2662 -0.2408
 3795TIP3    H111346   4.995   5.991   4.719 -0.2699 -0.3175 -0.1478
 3795TIP3    H211347   4.972   6.060   4.586 -0.6478  0.2663  0.2138
 3796TIP3   OH211348   2.207   4.662   1.797 -0.2101  0.1507 -0.1971
 3796TIP3    H111349   2.200   4.597   1.867  1.0640 -2.7901 -2.5880
 3796TIP3    H211350   2.116   4.689   1.781 -0.8543 -1.3618  0.6294
 3797TIP3   OH211351   4.032   7.012   4.360 -0.3973  0.0128  0.4230
 3797TIP3    H111352   4.070   6.934   4.401  2.0123  1.6263  1.4921
 3797TIP3    H211353   4.043   6.998   4.266 -1.7436 -1.7044  0.4787
 3798TIP3   OH211354   3.998   6.442   5.094 -0.0758 -0.4834 -0.5919
 3798TIP3    H111355   4.057   6.398   5.154 -0.1811  2.7396  2.1257
 3798TIP3    H211356   3.919   6.388   5.095  0.3972 -1.2154  1.2013
 3799TIP3   OH211357   1.715   4.192   0.137  0.1336  0.2825 -0.2358
 3799TIP3    H111358   1.708   4.249   0.060  2.1094  0.8217 -0.0753
 3799TIP3    H211359   1.733   4.105   0.101  2.2539  0.7412 -0.4392
 3800TIP3   OH211360   7.492   0.652   2.564  0.4583  0.2745 -0.1398
 3800TIP3    H111361   7.543   0.597   2.624 -0.4953 -1.2290 -0.6592
 3800TIP3    H211362   7.485   0.736   2.609 -0.3445 -0.8444  1.9597
 3801TIP3   OH211363   0.346   3.410   1.598 -0.3437 -0.2643 -0.0281
 3801TIP3    H111364   0.344   3.320   1.563 -1.9223  0.0934 -0.9461
 3801TIP3    H211365   0.288   3.407   1.674 -1.5302  0.2802 -0.8907
 3802TIP3   OH211366   5.604   3.978   5.128 -0.3912  0.0486  0.2476
 3802TIP3    H111367   5.673   4.041   5.107 -0.4289  0.3266  0.9181
 3802TIP3    H211368   5.534   4.031   5.165 -0.4961 -0.3718  0.6565
 3803TIP3   OH211369   7.062   2.103   0.857  0.1938  0.2344  0.0748
 3803TIP3    H111370   7.140   2.141   0.817  0.3389 -0.3679 -0.2207
 3803TIP3    H211371   7.057   2.015   0.821  0.2553 -0.2758  1.2739
 3804TIP3   OH211372   6.693   3.650   0.743 -0.2727 -0.1915 -0.0097
 3804TIP3    H111373   6.633   3.715   0.706 -1.6307 -1.4866 -0.1824
 3804TIP3    H211374   6.644   3.609   0.814  0.2576 -1.5469 -0.3922
 3805TIP3   OH211375   4.991   2.804   3.938  0.1954  0.4405 -0.5463
 3805TIP3    H111376   5.014   2.711   3.946  0.3231  0.4599 -0.6723
 3805TIP3    H211377   5.073   2.850   3.958  0.9399  0.4663 -3.2486
 3806TIP3   OH211378   3.095   6.029   4.177 -0.7607  0.2561 -0.0245
 3806TIP3    H111379   3.138   6.113   4.165  0.0973 -0.3864 -1.9799
 3806TIP3    H211380   3.008   6.051   4.212  0.1556  1.7644  1.4051
 3807TIP3   OH211381   4.419   5.864   2.822  0.0569 -0.0770 -0.3974
 3807TIP3    H111382   4.419   5.955   2.849  2.6776  0.0934 -0.6240
 3807TIP3    H211383   4.423   5.867   2.726 -0.2591 -0.4445 -0.4256
 3808TIP3   OH211384   2.612   4.320   2.816 -0.4088 -0.6405 -0.2285
 3808TIP3    H111385   2.620   4.335   2.910  0.8698  1.5652 -0.6223
 3808TIP3    H211386   2.519   4.333   2.797 -0.6153 -0.7565  0.6528
 3809TIP3   OH211387   5.197   1.883   1.136  0.1866  0.2018 -0.3264
 3809TIP3    H111388   5.122   1.839   1.176  0.3098  0.1208 -0.1838
 3809TIP3    H211389   5.265   1.816   1.134  0.3495  0.3641 -0.1833
 3810TIP3   OH211390   6.973   5.179   3.544  0.4946  0.1441 -0.8301
 3810TIP3    H111391   6.929   5.262   3.557 -0.7856 -0.4644 -1.1096
 3810TIP3    H211392   6.949   5.153   3.455 -1.4052 -1.7862  0.1466
 3811TIP3   OH211393   0.222   3.689   6.045  0.0271  0.6010 -0.6648
 3811TIP3    H111394   0.193   3.618   6.103  1.6962 -0.9731 -1.6368
 3811TIP3    H211395   0.154   3.755   6.052 -0.8795 -0.4546  1.4275
 3812TIP3   OH211396   0.766   2.258   0.595 -0.5406 -0.2329  0.1163
 3812TIP3    H111397   0.838   2.261   0.658  1.9474  0.0690 -2.5139
 3812TIP3    H211398   0.695   2.307   0.637  1.1492  0.4452  2.4034
 3813TIP3   OH211399   6.673   3.366   0.559 -0.2512  0.3589  0.7696
 3813TIP3    H111400   6.756   3.329   0.588  0.6555 -1.2860 -3.2720
 3813TIP3    H211401   6.695   3.456   0.533  0.9389 -0.6653 -2.1885
 3814TIP3   OH211402   5.758   4.789   2.601  0.4155 -0.5016  0.5758
 3814TIP3    H111403   5.831   4.767   2.659  0.7259  0.9963  0.7906
 3814TIP3    H211404   5.797   4.840   2.530 -0.0750 -1.7153 -0.6049
 3815TIP3   OH211405   4.029   0.814   5.275  0.1504  0.1969 -0.6897
 3815TIP3    H111406   4.075   0.895   5.255  0.0721  0.2970 -0.4641
 3815TIP3    H211407   3.985   0.831   5.358  2.1333 -0.8889  0.6529
 3816TIP3   OH211408   7.214   2.677   2.902 -0.0425  0.1233  0.2318
 3816TIP3    H111409   7.247   2.618   2.969 -1.0770 -0.5801  0.1437
 3816TIP3    H211410   7.293   2.708   2.857  0.5169 -1.5527 -0.0176
 3817TIP3   OH211411   0.803   5.335   2.011  0.0754  0.6684 -0.5204
 3817TIP3    H111412   0.726   5.391   2.018 -0.8373 -0.5663 -0.4053
 3817TIP3    H211413   0.829   5.318   2.102 -2.2850 -2.5457 -0.2676
 3818TIP3   OH211414   5.365   2.009   4.065  0.0518 -0.2684 -0.0454
 3818TIP3    H111415   5.361   1.953   4.143 -2.5608  2.2294  1.8261
 3818TIP3    H211416   5.403   2.091   4.096  0.2498  0.3237 -1.7542
 3819TIP3   OH211417   6.147   1.765   0.360 -0.2693 -0.3937 -0.2889
 3819TIP3    H111418   6.164   1.775   0.453 -0.2619  0.4570 -0.3772
 3819TIP3    H211419   6.085   1.834   0.339 -1.6810 -1.6946 -0.5595
 3820TIP3   OH211420   7.400   1.756   2.998  0.2649 -0.1867  0.3631
 3820TIP3    H111421   7.368   1.846   3.008  0.8268  0.2433 -1.3701
 3820TIP3    H211422   7.328   1.701   3.030  0.0466  0.8527  1.7894
 3821TIP3   OH211423   2.981   2.007   3.105  0.1749  0.3563  0.0019
 3821TIP3    H111424   2.969   1.914   3.124 -2.6687  0.6274  0.0128
 3821TIP3    H211425   2.905   2.029   3.051 -0.8950  3.2967  2.4527
 3822TIP3   OH211426   0.584   1.988   2.330 -0.3176 -0.1053  0.3025
 3822TIP3    H111427   0.631   2.071   2.342  0.4657 -0.4220 -0.4635
 3822TIP3    H211428   0.650   1.929   2.292 -1.7173 -0.1041 -2.3520
 3823TIP3   OH211429   4.893   0.526   4.178 -0.2063 -0.2779 -0.6933
 3823TIP3    H111430   4.924   0.613   4.205 -1.6722 -0.1000  0.5225
 3823TIP3    H211431   4.971   0.484   4.141  0.5066  1.5866 -1.4336
 3824TIP3   OH211432   0.718   5.359   4.392  0.2475  0.1856  0.3508
 3824TIP3    H111433   0.720   5.300   4.318 -0.0778  1.1141 -0.4203
 3824TIP3    H211434   0.808   5.392   4.399  0.1494  0.5427 -0.0132
 3825TIP3   OH211435   2.257   3.234   3.638 -0.4825  0.0524 -0.7075
 3825TIP3    H111436   2.249   3.232   3.734  1.8583 -0.0386 -0.4541
 3825TIP3    H211437   2.246   3.326   3.616  1.3973  0.4896 -0.0255
 3826TIP3   OH211438   0.744   6.769   4.907 -0.2353  0.5397 -0.1453
 3826TIP3    H111439   0.706   6.681   4.916 -0.0811  0.4583 -0.2978
 3826TIP3    H211440   0.677   6.819   4.860 -0.2332  0.4459 -0.2496
 3827TIP3   OH211441   3.640   3.172   6.091 -0.1112  0.0580  0.2379
 3827TIP3    H111442   3.553   3.211   6.104 -0.5083 -0.2178 -1.3887
 3827TIP3    H211443   3.625   3.078   6.101 -0.4672 -0.1844 -2.0522
 3828TIP3   OH211444   1.793   2.209   0.470  0.1950  0.7541  0.4388
 3828TIP3    H111445   1.863   2.148   0.493  0.6168 -0.2455 -2.9340
 3828TIP3    H211446   1.808   2.285   0.526  2.4201 -0.4424  1.5995
 3829TIP3   OH211447   1.262   4.594   3.203  0.2220  0.3868 -0.2542
 3829TIP3    H111448   1.314   4.671   3.223  0.3098  0.3718 -0.4226
 3829TIP3    H211449   1.217   4.573   3.285  0.8460  0.1179  0.0250
 3830TIP3   OH211450   5.999   0.988   0.821 -0.5711  0.0323  0.5221
 3830TIP3    H111451   6.053   0.910   0.837 -3.4135 -1.8218  1.8943
 3830TIP3    H211452   5.950   0.967   0.741 -1.2170  0.4686  0.7907
 3831TIP3   OH211453   2.037   4.632   4.144 -0.0507 -0.6206  0.5191
 3831TIP3    H111454   1.968   4.645   4.209 -0.1874  0.3360  0.1931
 3831TIP3    H211455   2.009   4.554   4.095 -1.1068 -0.0360  0.1439
 3832TIP3   OH211456   2.286   1.795   0.059 -0.0755  0.7268 -0.1643
 3832TIP3    H111457   2.314   1.704   0.055 -2.4122 -0.0933  0.4125
 3832TIP3    H211458   2.223   1.804  -0.013 -0.4007  1.6791  0.2202
 3833TIP3   OH211459   4.585   6.816   3.249  0.0463 -0.1374  0.2439
 3833TIP3    H111460   4.517   6.864   3.204  0.0589 -0.8568 -0.5646
 3833TIP3    H211461   4.543   6.784   3.329 -1.5806 -3.1883 -1.6314
 3834TIP3   OH211462   6.502   4.065   5.363 -0.2337 -0.3631  0.2545
 3834TIP3    H111463   6.580   4.095   5.317 -0.0305  0.0371  0.8466
 3834TIP3    H211464   6.454   4.014   5.298  0.7363 -0.9928  0.0023
 3835TIP3   OH211465   2.628   0.540   2.254 -0.2815 -0.1750  0.3313
 3835TIP3    H111466   2.585   0.605   2.198 -0.0159  0.5568  0.9610
 3835TIP3    H211467   2.602   0.455   2.217 -2.4825  0.2215  0.8553
 3836TIP3   OH211468   2.547   6.115   2.345 -0.2772 -0.4917 -0.1685
 3836TIP3    H111469   2.461   6.142   2.378 -0.3134 -0.6573 -0.1254
 3836TIP3    H211470   2.546   6.141   2.253  0.3612  1.2637  0.2815
 3837TIP3   OH211471   4.646   5.200   1.149 -0.0158  0.1402 -0.2031
 3837TIP3    H111472   4.576   5.234   1.094  0.2958  0.7462 -0.2338
 3837TIP3    H211473   4.656   5.266   1.218 -0.8807 -0.9339  0.9924
 3838TIP3   OH211474   2.046   1.198   4.732  0.2834  0.4894 -0.7173
 3838TIP3    H111475   2.008   1.204   4.820  1.4198 -0.0641 -0.1671
 3838TIP3    H211476   2.044   1.105   4.711 -1.1836  0.7438 -1.8555
 3839TIP3   OH211477   5.367   5.100   0.144  0.2456 -0.1974 -0.2778
 3839TIP3    H111478   5.417   5.025   0.113  1.1853  0.5305 -0.6054
 3839TIP3    H211479   5.278   5.068   0.154  1.0053 -1.8780  1.5984
 3840TIP3   OH211480   1.130   4.646   1.924 -0.1233 -0.0456  0.5581
 3840TIP3    H111481   1.046   4.641   1.877 -0.5395 -0.4422  1.3210
 3840TIP3    H211482   1.107   4.679   2.011  0.6864  1.0218  0.3855
 3841TIP3   OH211483   3.539   1.299   3.759 -0.1683  0.0098  0.0704
 3841TIP3    H111484   3.621   1.343   3.735  0.0787 -0.3734  0.2247
 3841TIP3    H211485   3.475   1.336   3.698  0.2352 -0.1199 -0.4403
 3842TIP3   OH211486   2.835   1.188   4.996 -0.1062 -0.1834 -0.0392
 3842TIP3    H111487   2.906   1.250   5.015  0.1035 -0.8504  1.5194
 3842TIP3    H211488   2.876   1.120   4.942 -0.0733  0.4737 -0.8513
 3843TIP3   OH211489   4.055   4.175   5.735 -0.1466 -0.3482  0.4342
 3843TIP3    H111490   4.093   4.250   5.688 -0.0955 -0.0693  0.9078
 3843TIP3    H211491   3.964   4.199   5.748  0.2274  0.3429  1.9603
 3844TIP3   OH211492   1.911   7.094   5.293 -0.1898  0.5638 -0.0584
 3844TIP3    H111493   1.830   7.050   5.265 -0.6485  1.4491 -0.1544
 3844TIP3    H211494   1.905   7.096   5.389 -2.2358  4.0658 -0.0807
 3845TIP3   OH211495   6.226   2.490   0.133  0.2207 -0.1576 -0.1244
 3845TIP3    H111496   6.303   2.502   0.079  0.4926 -2.2745 -0.3234
 3845TIP3    H211497   6.183   2.411   0.097 -2.5138  1.3820 -0.5433
 3846TIP3   OH211498   0.517   3.856   4.483  0.6458  0.0194 -0.6234
 3846TIP3    H111499   0.459   3.860   4.559  1.0515 -1.9161 -0.1605
 3846TIP3    H211500   0.490   3.930   4.429 -1.7478 -0.3710 -0.0864
 3847TIP3   OH211501   0.956   7.138   0.837  0.2522  0.8958 -0.2165
 3847TIP3    H111502   0.976   7.072   0.903  0.2508  0.7274 -0.3836
 3847TIP3    H211503   1.036   7.147   0.786  0.1057  0.6880 -0.4830
 3848TIP3   OH211504   3.327   2.030   5.429 -0.2223 -0.3390 -0.3168
 3848TIP3    H111505   3.285   2.001   5.348 -0.0967  0.6875 -0.7626
 3848TIP3    H211506   3.377   1.954   5.459  1.6303 -0.0732 -2.4452
 3849TIP3   OH211507   6.742   4.456   2.259  0.1303  0.9227  0.0828
 3849TIP3    H111508   6.754   4.488   2.349 -0.3058  0.6399  0.2465
 3849TIP3    H211509   6.665   4.400   2.264  0.6292  0.1847 -0.2883
 3850TIP3   OH211510   0.424   2.792   1.840 -0.5442  0.3453  0.0555
 3850TIP3    H111511   0.512   2.830   1.841  0.3948 -1.7147 -0.7664
 3850TIP3    H211512   0.423   2.732   1.914 -1.4301  0.6710  0.3225
 3851TIP3   OH211513   5.503   4.994   3.718  0.4517 -0.3815 -0.2771
 3851TIP3    H111514   5.575   5.017   3.658  0.7729 -2.0452 -0.5984
 3851TIP3    H211515   5.491   4.899   3.705 -1.7579 -0.1692 -0.1613
 3852TIP3   OH211516   3.100   1.045   5.927 -0.1452 -0.2230  0.3956
 3852TIP3    H111517   3.083   0.984   5.999 -1.0901 -0.6608 -0.1869
 3852TIP3    H211518   3.131   1.125   5.971 -0.4358 -0.5773  1.2734
 3853TIP3   OH211519   3.763   3.538   4.077  0.1966 -0.0502 -0.7837
 3853TIP3    H111520   3.755   3.626   4.114  1.0410  0.5239 -1.9342
 3853TIP3    H211521   3.830   3.546   4.009  0.1578 -1.5448 -1.0299
 3854TIP3   OH211522   7.477   6.793   3.520  0.4455 -0.2002 -0.5954
 3854TIP3    H111523   7.397   6.815   3.472  0.7360  0.8452 -0.6197
 3854TIP3    H211524   7.478   6.853   3.595  1.9890  0.9175 -1.4551
 3855TIP3   OH211525   6.543   6.386   1.475 -0.6232 -0.4179 -0.1007
 3855TIP3    H111526   6.520   6.317   1.413 -2.6729 -1.1480  1.3868
 3855TIP3    H211527   6.472   6.450   1.467 -0.6161 -0.2462  1.0601
 3856TIP3   OH211528   4.066   2.494  -0.015 -0.1527 -0.0222  0.1444
 3856TIP3    H111529   4.121   2.422   0.018  0.1417 -0.2003 -0.6937
 3856TIP3    H211530   3.984   2.486   0.034  0.2333 -0.3325  0.7498
 3857TIP3   OH211531   5.551   4.458   2.051  0.7258 -0.1317  0.1110
 3857TIP3    H111532   5.612   4.500   1.990 -0.5008  2.6732  0.6219
 3857TIP3    H211533   5.471   4.445   2.000  0.6270 -0.4775  0.3547
 3858TIP3   OH211534   4.391   2.049   6.188  0.0274 -0.0274 -0.8236
 3858TIP3    H111535   4.415   2.027   6.098 -0.9986 -0.8283 -0.9230
 3858TIP3    H211536   4.330   1.980   6.214 -0.7506  0.9401  0.0137
 3859TIP3   OH211537   5.769   5.350   0.376 -0.0507 -0.0278  0.4900
 3859TIP3    H111538   5.840   5.290   0.399  1.1574  1.7549  1.6314
 3859TIP3    H211539   5.724   5.306   0.304  2.3051 -1.1611 -0.4196
 3860TIP3   OH211540   1.246   2.698   1.190 -0.1440 -0.2555  0.3304
 3860TIP3    H111541   1.240   2.792   1.170 -0.0433 -0.5140 -1.0514
 3860TIP3    H211542   1.278   2.694   1.280  2.0567  1.0486 -0.3308
 3861TIP3   OH211543   5.024   4.702   5.547 -0.0730  0.1362  0.0199
 3861TIP3    H111544   5.066   4.685   5.632 -0.1408 -1.0825 -0.1659
 3861TIP3    H211545   5.078   4.770   5.507 -0.1603  0.8819  1.1164
 3862TIP3   OH211546   0.277   1.482   2.484  0.3911  0.3539  0.3670
 3862TIP3    H111547   0.308   1.572   2.487 -0.0749  0.6663 -2.0457
 3862TIP3    H211548   0.352   1.432   2.453  0.6293 -0.1117  1.6385
 3863TIP3   OH211549   1.254   0.854   2.406  0.2907 -0.4364  0.3736
 3863TIP3    H111550   1.292   0.913   2.341  0.1666 -0.0369  0.6568
 3863TIP3    H211551   1.315   0.856   2.479 -0.2242  0.1497  0.7998
 3864TIP3   OH211552   5.608   6.596   1.843  0.1825 -0.5448 -0.1573
 3864TIP3    H111553   5.555   6.670   1.814  0.0539 -0.9765 -1.0602
 3864TIP3    H211554   5.564   6.563   1.920  0.8764  1.0306  0.9721
 3865TIP3   OH211555   7.377   2.085   4.461  0.2372  0.1260  0.0741
 3865TIP3    H111556   7.304   2.130   4.417 -0.3359  0.3003  1.1834
 3865TIP3    H211557   7.455   2.130   4.428 -0.2808  1.5231  0.6623
 3866TIP3   OH211558   5.280   3.671   1.213  0.3600 -0.1246  0.3724
 3866TIP3    H111559   5.307   3.611   1.283 -0.0085 -0.0247  0.6034
 3866TIP3    H211560   5.275   3.757   1.255 -0.3086 -0.1388  0.3394
 3867TIP3   OH211561   2.204   2.442   0.770 -0.2110 -0.5075 -0.0441
 3867TIP3    H111562   2.256   2.467   0.694  1.6157  1.7975  1.8037
 3867TIP3    H211563   2.262   2.385   0.821 -1.2484 -1.6548 -0.0990
 3868TIP3   OH211564   4.617   1.854   5.016 -0.5484  0.0526  0.1871
 3868TIP3    H111565   4.606   1.767   4.978 -1.9765 -0.1355  0.9319
 3868TIP3    H211566   4.670   1.901   4.953 -0.1557 -1.2142 -0.4675
 3869TIP3   OH211567   7.437   5.971   1.778 -0.2714  0.4745  0.2868
 3869TIP3    H111568   7.507   5.972   1.844 -0.0857 -0.0233  0.1080
 3869TIP3    H211569   7.357   5.956   1.828 -0.4241  2.2582  0.6275
 3870TIP3   OH211570   1.004   0.561   3.049  0.3177  0.1400 -0.2023
 3870TIP3    H111571   1.054   0.610   3.113 -1.1015 -0.3241  1.3118
 3870TIP3    H211572   0.954   0.627   3.001  0.4527  0.3774 -0.0156
 3871TIP3   OH211573   1.039   4.141   5.390  0.2741  0.1153 -0.6834
 3871TIP3    H111574   1.045   4.225   5.435  2.2695  0.1933 -0.9845
 3871TIP3    H211575   0.979   4.156   5.318  0.0476  1.0741 -0.3059
 3872TIP3   OH211576   3.644   0.030   2.643  0.1733  0.2985  0.1329
 3872TIP3    H111577   3.555   0.064   2.638  0.0260 -0.2707 -1.8453
 3872TIP3    H211578   3.669   0.013   2.552  1.0507 -2.8030  0.8242
 3873TIP3   OH211579   7.424   4.769   1.332 -0.2532  0.2170  0.0298
 3873TIP3    H111580   7.374   4.755   1.413  0.5626 -0.7977  0.3853
 3873TIP3    H211581   7.372   4.726   1.264 -0.8600  0.9319  0.0278
 3874TIP3   OH211582   4.472   0.594   5.895 -0.3455  0.2179 -0.3463
 3874TIP3    H111583   4.478   0.577   5.801 -2.0229  2.3642 -0.9041
 3874TIP3    H211584   4.470   0.689   5.903  0.1174  0.0981  1.9156
 3875TIP3   OH211585   6.537   5.700   5.286  0.0937  0.4681  0.4449
 3875TIP3    H111586   6.611   5.726   5.230 -0.7106  0.6176 -0.5704
 3875TIP3    H211587   6.577   5.648   5.356  1.2071  0.8692  0.1280
 3876TIP3   OH211588   2.132   2.470   5.686 -0.1409  0.3129 -0.2274
 3876TIP3    H111589   2.077   2.415   5.631  0.6410  0.8619 -1.5905
 3876TIP3    H211590   2.090   2.556   5.685 -1.5357 -0.2544  2.1532
 3877TIP3   OH211591   1.432   0.427   2.704  0.0690 -0.0535 -0.5232
 3877TIP3    H111592   1.468   0.480   2.776 -0.8254  0.6030 -0.5380
 3877TIP3    H211593   1.456   0.475   2.625  0.3106 -0.3214 -0.6123
 3878TIP3   OH211594   6.972   5.317   2.888  0.8832  0.2555 -0.1124
 3878TIP3    H111595   6.976   5.351   2.799  2.5124  1.0382  0.2206
 3878TIP3    H211596   6.924   5.384   2.937  2.0320  0.9907  0.0528
 3879TIP3   OH211597   1.996   2.256   0.678 -0.4569  0.6982 -0.4027
 3879TIP3    H111598   2.058   2.194   0.639 -0.5014 -0.3015  1.0117
 3879TIP3    H211599   2.051   2.328   0.709 -0.2500  0.7789 -0.9485
 3880TIP3   OH211600   1.579   4.503   5.467 -0.3353 -0.5092  0.7038
 3880TIP3    H111601   1.605   4.517   5.558 -2.2595 -0.5841  1.3041
 3880TIP3    H211602   1.572   4.591   5.429 -0.3829 -0.4380  0.8802
 3881TIP3   OH211603   3.064   2.688   5.609  0.5099 -0.8312  0.3660
 3881TIP3    H111604   2.983   2.647   5.579 -0.4026  0.2903  1.1767
 3881TIP3    H211605   3.088   2.639   5.688 -0.1408 -0.3287  0.8889
 3882TIP3   OH211606   5.671   7.008   5.197  0.2268 -0.0282  0.5206
 3882TIP3    H111607   5.676   6.912   5.204 -1.4203 -0.1597  0.3527
 3882TIP3    H211608   5.593   7.031   5.248 -0.8067  0.9650 -1.4085
 3883TIP3   OH211609   2.188   2.795   3.235  0.2218  0.4041  0.4750
 3883TIP3    H111610   2.174   2.700   3.236  0.5245  0.3462 -0.1789
 3883TIP3    H211611   2.282   2.805   3.225  0.0320  0.7449 -1.4560
 3884TIP3   OH211612   6.873   1.321   0.513 -0.1296 -0.6822 -0.2453
 3884TIP3    H111613   6.841   1.407   0.539 -1.9103 -0.7455 -2.0061
 3884TIP3    H211614   6.813   1.259   0.554  0.7721 -1.1009  0.5016
 3885TIP3   OH211615   1.132   4.778   0.761  0.3774  0.8908  0.0036
 3885TIP3    H111616   1.075   4.852   0.783 -0.8238 -0.2822  1.0236
 3885TIP3    H211617   1.194   4.774   0.834 -0.1110  0.3984  0.4101
 3886TIP3   OH211618   5.084   5.096   4.688  0.3692  0.3254  0.4046
 3886TIP3    H111619   5.076   5.073   4.595  0.5449  1.1229  0.1762
 3886TIP3    H211620   4.995   5.121   4.714  0.6466  1.9424 -0.0858
 3887TIP3   OH211621   6.870   0.686   1.382  0.3109  0.3133  0.2822
 3887TIP3    H111622   6.917   0.603   1.391  1.2477  0.9850  2.2029
 3887TIP3    H211623   6.938   0.751   1.369 -0.0142  1.2726  2.8200
 3888TIP3   OH211624   7.604   2.795   2.227  0.0943 -0.7081  0.5803
 3888TIP3    H111625   7.628   2.719   2.174 -0.6040 -1.5277  1.3880
 3888TIP3    H211626   7.553   2.851   2.168  0.0676 -1.1784  0.1512
 3889TIP3   OH211627   4.891   1.935   1.275 -0.2536 -0.2570  0.0070
 3889TIP3    H111628   4.946   2.002   1.316  0.8841 -0.7060 -0.7552
 3889TIP3    H211629   4.935   1.853   1.293 -2.7946 -1.1755  2.9277
 3890TIP3   OH211630   2.080   0.680   4.540 -0.1453  0.6162  0.1161
 3890TIP3    H111631   2.069   0.645   4.452 -0.5789  1.9130 -0.3783
 3890TIP3    H211632   2.036   0.765   4.537  1.3048  1.4388  1.0856
 3891TIP3   OH211633   2.230   0.410   5.298 -0.6615  0.1174  0.3552
 3891TIP3    H111634   2.244   0.493   5.345  1.8531 -0.8459  1.4326
 3891TIP3    H211635   2.235   0.343   5.366 -2.1504 -0.9964 -0.5837
 3892TIP3   OH211636   1.534   4.093   1.808  0.1176 -0.0397  0.3097
 3892TIP3    H111637   1.512   4.162   1.746  0.1587 -0.5664 -0.2994
 3892TIP3    H211638   1.620   4.061   1.780 -0.4047 -1.1249 -0.1433
 3893TIP3   OH211639   0.194   0.640   3.838  0.3266  1.1371  0.3050
 3893TIP3    H111640   0.185   0.709   3.904  1.8092  1.1116  0.5674
 3893TIP3    H211641   0.152   0.677   3.760 -2.2959  0.7985  1.4600
 3894TIP3   OH211642   3.670   4.859   0.546 -0.2640 -0.4316  0.4274
 3894TIP3    H111643   3.609   4.786   0.556  2.1787 -2.3985  2.1001
 3894TIP3    H211644   3.646   4.898   0.462 -3.2876 -1.5183  0.6537
 3895TIP3   OH211645   3.321   2.982   1.518 -0.0118  0.4355  0.0911
 3895TIP3    H111646   3.392   2.918   1.524  1.2235  1.9154  2.1755
 3895TIP3    H211647   3.246   2.938   1.559 -0.4434 -1.1653 -2.1945
 3896TIP3   OH211648   7.107   0.619   2.717  0.1497  0.3425 -0.0713
 3896TIP3    H111649   7.067   0.537   2.746  0.6278  0.2746  0.4103
 3896TIP3    H211650   7.111   0.673   2.796  0.9448  0.3719 -0.1253
 3897TIP3   OH211651   2.235   2.417   1.973 -0.2149  0.4311 -0.3876
 3897TIP3    H111652   2.145   2.418   1.938 -0.9246 -2.0018  1.1122
 3897TIP3    H211653   2.284   2.363   1.911  0.1425  1.4247 -0.9886
 3898TIP3   OH211654   7.532   6.240   3.987  0.7236 -0.3132  0.1573
 3898TIP3    H111655   7.514   6.301   4.059  1.8569 -0.0254  0.2095
 3898TIP3    H211656   7.591   6.175   4.025 -0.8535 -1.7768  0.2518
 3899TIP3   OH211657   6.239   5.163   0.671 -0.0400 -0.0122  0.6320
 3899TIP3    H111658   6.185   5.226   0.718  0.1044  1.1564 -0.6980
 3899TIP3    H211659   6.327   5.202   0.672 -0.1045  0.2585 -0.8898
 3900TIP3   OH211660   2.800   4.493   3.016 -0.4096 -0.9552  0.4118
 3900TIP3    H111661   2.721   4.521   3.063 -0.1339  0.1540  0.2593
 3900TIP3    H211662   2.868   4.551   3.049 -0.1856 -0.1793 -1.2994
 3901TIP3   OH211663   0.957   4.922   1.031  0.3157 -0.4766 -0.3202
 3901TIP3    H111664   0.878   4.867   1.034 -0.7120  0.8191 -1.9617
 3901TIP3    H211665   0.933   5.002   1.077  1.1461 -0.5873  0.3365
 3902TIP3   OH211666   6.384   7.128   1.185 -0.3130  0.4388  0.0297
 3902TIP3    H111667   6.395   7.217   1.150 -2.1929  0.5965 -0.3107
 3902TIP3    H211668   6.290   7.122   1.203  0.0448 -0.9155  1.6507
 3903TIP3   OH211669   0.375   7.129   5.206  0.1581 -0.3260 -0.4283
 3903TIP3    H111670   0.459   7.167   5.179 -0.5049  0.6588 -1.1635
 3903TIP3    H211671   0.354   7.174   5.288  0.2649 -0.4631 -0.3244
 3904TIP3   OH211672   0.562   5.599   4.334 -0.0360 -0.8164  0.7059
 3904TIP3    H111673   0.549   5.620   4.242  0.7339 -1.4723  0.4417
 3904TIP3    H211674   0.575   5.504   4.336 -1.2730 -0.9957  1.6317
 3905TIP3   OH211675   6.778   1.737   5.355  0.5805 -0.1613 -0.4840
 3905TIP3    H111676   6.752   1.686   5.432  1.4946 -0.7003 -0.5199
 3905TIP3    H211677   6.822   1.814   5.392 -1.4078  0.9992 -0.4078
 3906TIP3   OH211678   4.293   0.479   2.469  0.5983  0.1906  0.0491
 3906TIP3    H111679   4.209   0.512   2.435  0.9552  1.7303  0.5848
 3906TIP3    H211680   4.310   0.533   2.546  3.1490  1.4194 -1.2835
 3907TIP3   OH211681   3.968   0.322   2.564  0.3327 -0.2976  0.0407
 3907TIP3    H111682   3.998   0.336   2.653 -1.1100 -3.1877  1.1154
 3907TIP3    H211683   3.872   0.329   2.569  0.2630  0.6312 -1.5677
 3908TIP3   OH211684   6.782   2.249   3.243  0.0600 -0.4203  0.2703
 3908TIP3    H111685   6.873   2.239   3.217  0.8164 -2.5473  3.2276
 3908TIP3    H211686   6.786   2.299   3.325 -1.6122  0.8976 -0.3983
 3909TIP3   OH211687   6.573   2.139   3.067 -0.0217  0.3146 -0.3035
 3909TIP3    H111688   6.494   2.189   3.046 -0.7558 -0.8011 -0.3044
 3909TIP3    H211689   6.618   2.191   3.133 -0.4919  1.2193 -0.6769
 3910TIP3   OH211690   7.080   3.165   4.816 -0.0676  0.5546 -0.0618
 3910TIP3    H111691   7.018   3.167   4.889  0.6422  0.1976  0.5678
 3910TIP3    H211692   7.125   3.081   4.826 -0.1517  0.3804 -1.0758
 3911TIP3   OH211693   4.800   3.771   5.953 -0.0648  0.6003  0.0725
 3911TIP3    H111694   4.847   3.781   6.036  1.2874  0.6797 -0.6710
 3911TIP3    H211695   4.743   3.696   5.966 -0.5113  1.1336  1.3508
 3912TIP3   OH211696   4.069   4.554   4.886 -0.0137 -0.2938  0.1083
 3912TIP3    H111697   4.135   4.616   4.915  1.1873 -2.2280  1.8067
 3912TIP3    H211698   4.093   4.535   4.795  0.7554  0.2854  0.1780
 3913TIP3   OH211699   0.752   6.913   3.154  0.0306  0.5398 -0.2674
 3913TIP3    H111700   0.714   6.943   3.237 -0.9114  0.7361 -0.7683
 3913TIP3    H211701   0.776   6.993   3.108 -2.3715  0.5965 -1.5504
 3914TIP3   OH211702   6.970   0.516   0.244  0.4903 -0.3246 -0.2135
 3914TIP3    H111703   6.954   0.594   0.191 -2.4413  0.2460  1.2969
 3914TIP3    H211704   6.973   0.547   0.334  1.4010 -1.7386  0.2807
 3915TIP3   OH211705   5.666   1.612   1.639 -0.3193 -0.3457  0.4643
 3915TIP3    H111706   5.605   1.681   1.612 -0.8160 -0.6505  0.7791
 3915TIP3    H211707   5.619   1.566   1.709  0.6078 -0.0765  1.2747
 3916TIP3   OH211708   4.457   1.780   1.268 -0.4384 -0.3108  0.1891
 3916TIP3    H111709   4.492   1.788   1.180  0.4957  2.0277  0.7006
 3916TIP3    H211710   4.533   1.790   1.325 -1.2270 -0.3225  1.2676
 3917TIP3   OH211711   2.043   6.656   3.126  0.0181  0.3106  0.1506
 3917TIP3    H111712   2.078   6.722   3.066 -0.3090  0.3090 -0.0452
 3917TIP3    H211713   2.026   6.704   3.207 -0.5573  0.5517 -0.1038
 3918TIP3   OH211714   2.696   6.452   3.807  0.0560 -0.0508  0.4398
 3918TIP3    H111715   2.758   6.405   3.752 -0.4009  0.2022 -0.3041
 3918TIP3    H211716   2.610   6.418   3.780 -0.3754  1.8649 -0.8016
 3919TIP3   OH211717   4.636   2.877   2.114 -0.3668  0.1214  0.1785
 3919TIP3    H111718   4.624   2.828   2.196 -0.0644 -1.1707 -0.5330
 3919TIP3    H211719   4.557   2.859   2.064 -0.7382  1.2482  0.3312
 3920TIP3   OH211720   5.687   6.747   5.839  0.2105  0.1977 -0.2349
 3920TIP3    H111721   5.696   6.677   5.775 -1.7752 -0.4187  0.1215
 3920TIP3    H211722   5.679   6.703   5.923  1.1275  0.9518  0.2773
 3921TIP3   OH211723   4.259   6.047   5.070  0.3413 -0.3148  0.0874
 3921TIP3    H111724   4.166   6.064   5.058  0.8224  3.0053 -0.0025
 3921TIP3    H211725   4.266   6.008   5.158 -1.2270 -2.7883 -0.8006
 3922TIP3   OH211726   0.446   3.203   0.198 -0.4454  0.2369 -0.8174
 3922TIP3    H111727   0.386   3.272   0.169  0.2646  0.4458 -1.8285
 3922TIP3    H211728   0.509   3.195   0.127  1.0328  0.3551  0.4509
 3923TIP3   OH211729   4.634   0.989   5.115 -0.2473  0.2154 -0.2978
 3923TIP3    H111730   4.722   1.023   5.098 -0.8100  0.7078 -2.7427
 3923TIP3    H211731   4.582   1.067   5.136 -0.0181 -0.1534  1.8428
 3924TIP3   OH211732   3.369   7.093   1.559  0.5908 -0.0598  0.0046
 3924TIP3    H111733   3.317   7.124   1.485  0.4444 -0.1915  0.0497
 3924TIP3    H211734   3.307   7.091   1.633  1.1011  1.5504  0.5144
 3925TIP3   OH211735   6.101   3.855   2.538  0.0449  0.4558  0.1102
 3925TIP3    H111736   6.094   3.864   2.633  1.2053  0.8600  0.1748
 3925TIP3    H211737   6.149   3.933   2.510 -0.9285  0.7192 -0.9048
 3926TIP3   OH211738   0.449   0.074   4.339  0.0146 -0.2249 -0.6794
 3926TIP3    H111739   0.360   0.086   4.307 -0.0923 -0.3351 -0.4232
 3926TIP3    H211740   0.442   0.083   4.434  0.5836  1.7142 -0.7672
 3927TIP3   OH211741   6.363   4.884   5.903 -0.0640  0.4835 -0.3269
 3927TIP3    H111742   6.378   4.974   5.933  0.3217  0.5985 -0.8561
 3927TIP3    H211743   6.400   4.829   5.972 -0.9588  0.7094  0.3577
 3928TIP3   OH211744   5.415   2.536   3.969 -0.1494 -0.0800 -0.1731
 3928TIP3    H111745   5.426   2.608   4.031  0.9248 -0.1194 -0.3038
 3928TIP3    H211746   5.392   2.579   3.886  0.8327  0.1556 -0.3391
 3929TIP3   OH211747   5.288   7.057   0.733  0.6246 -0.1369  0.1885
 3929TIP3    H111748   5.284   7.003   0.812  0.2281  1.6792  1.4884
 3929TIP3    H211749   5.341   7.132   0.759  1.5573 -0.0933 -1.6944
 3930TIP3   OH211750   4.271   6.318   1.936 -0.3417 -0.4813  0.3202
 3930TIP3    H111751   4.184   6.331   1.900 -0.9419 -0.6316  1.6516
 3930TIP3    H211752   4.331   6.348   1.867 -1.3955 -1.2922 -0.9949
 3931TIP3   OH211753   2.686   2.663   0.667  0.1930  0.7206 -0.4156
 3931TIP3    H111754   2.629   2.595   0.703  1.0154  0.3951  0.3258
 3931TIP3    H211755   2.666   2.665   0.574 -2.0986  1.6648  0.0340
 3932TIP3   OH211756   7.361   0.954   4.908 -0.5988  0.3124  0.0604
 3932TIP3    H111757   7.308   0.875   4.900 -2.1939  1.3571 -0.2450
 3932TIP3    H211758   7.304   1.024   4.875  1.0615  1.4729 -0.4765
 3933TIP3   OH211759   0.732   2.753   1.104 -0.1636 -1.0279  0.0011
 3933TIP3    H111760   0.821   2.717   1.101  0.9222  1.3572  0.7640
 3933TIP3    H211761   0.697   2.727   1.189  0.0844 -1.3938 -0.0108
 3934TIP3   OH211762   5.267   5.543   3.936  0.7091  0.5272  0.0762
 3934TIP3    H111763   5.222   5.569   3.856  0.1143 -2.3724 -0.6478
 3934TIP3    H211764   5.324   5.470   3.910  0.7133 -0.3246  2.2015
 3935TIP3   OH211765   2.701   6.393   2.061 -0.6803 -0.7035 -0.2273
 3935TIP3    H111766   2.659   6.402   2.146 -0.6790 -1.1795 -0.1726
 3935TIP3    H211767   2.794   6.411   2.078 -0.8621  0.4224 -0.3639
 3936TIP3   OH211768   0.618   2.393   2.299  0.2218 -0.1839  0.2110
 3936TIP3    H111769   0.667   2.392   2.217  2.1151  0.2018  1.2848
 3936TIP3    H211770   0.527   2.379   2.273  0.8853 -0.9471 -1.8608
 3937TIP3   OH211771   1.896   1.502   2.153  0.4388  0.6415 -0.0717
 3937TIP3    H111772   1.853   1.441   2.213  3.6502 -0.3446  1.4632
 3937TIP3    H211773   1.884   1.464   2.066  2.6926 -2.6406  0.8539
 3938TIP3   OH211774   6.954   6.392   2.756  0.0829 -0.3055  0.2396
 3938TIP3    H111775   6.920   6.473   2.718  0.1463 -0.8727 -1.0980
 3938TIP3    H211776   7.038   6.416   2.794  0.4939  0.1144 -0.8846
 3939TIP3   OH211777   6.973   1.833   2.313 -0.2322  0.4496  0.1383
 3939TIP3    H111778   6.961   1.771   2.240  0.7798  0.9591 -0.4846
 3939TIP3    H211779   7.068   1.836   2.326 -0.4413 -1.0148  2.7185
 3940TIP3   OH211780   1.992   6.061   0.694 -0.0517 -0.3654  0.6692
 3940TIP3    H111781   2.085   6.082   0.693  0.2551 -1.5487 -0.8108
 3940TIP3    H211782   1.953   6.122   0.631  0.0022 -0.8378  0.1620
 3941TIP3   OH211783   2.917   5.486   3.828 -0.1157 -0.5335 -0.2229
 3941TIP3    H111784   3.001   5.532   3.836  1.4013 -2.6302 -2.6599
 3941TIP3    H211785   2.866   5.540   3.768  0.5764 -0.6089 -0.8921
 3942TIP3   OH211786   2.588   1.089   3.032  0.0108  0.0619 -0.3971
 3942TIP3    H111787   2.556   1.138   3.108  1.1689  0.3888 -0.0992
 3942TIP3    H211788   2.603   1.156   2.966  0.8510  0.0134 -0.2571
 3943TIP3   OH211789   1.543   3.967   0.588 -0.7067 -0.1091  0.1548
 3943TIP3    H111790   1.558   3.911   0.512 -1.6628 -0.0338 -0.0955
 3943TIP3    H211791   1.535   3.906   0.661 -1.2005 -0.2684 -0.0303
 3944TIP3   OH211792   5.455   1.962   0.944 -0.3264 -0.4535  0.4829
 3944TIP3    H111793   5.522   1.989   0.882  0.7152 -1.5411  1.1002
 3944TIP3    H211794   5.474   2.012   1.024  0.1597 -1.2409  0.8674
 3945TIP3   OH211795   0.611   5.777   0.061  0.3086  0.4587 -0.0157
 3945TIP3    H111796   0.656   5.722   0.125 -0.1440 -0.3792 -0.3947
 3945TIP3    H211797   0.572   5.848   0.112  1.8009  1.0449  0.3509
 3946TIP3   OH211798   0.240   3.409   2.150  0.2962 -0.6334 -0.2795
 3946TIP3    H111799   0.318   3.377   2.196  0.6763  0.2015 -0.3362
 3946TIP3    H211800   0.173   3.342   2.167  0.5944 -0.6254  1.0019
 3947TIP3   OH211801   7.449   6.990   4.534  0.0499 -0.4523 -0.3257
 3947TIP3    H111802   7.527   7.032   4.500  0.2001  0.0830  0.6558
 3947TIP3    H211803   7.482   6.926   4.597 -0.2960 -0.3908 -0.0828
 3948TIP3   OH211804   0.158   3.330   3.774  0.2964 -0.0364 -0.1597
 3948TIP3    H111805   0.228   3.375   3.727  0.1564 -0.0272 -0.3614
 3948TIP3    H211806   0.078   3.376   3.747  0.2483  0.1864  0.3448
 3949TIP3   OH211807   3.849   5.227   3.255  0.9738  0.3656  0.0042
 3949TIP3    H111808   3.829   5.234   3.348 -0.0026 -0.2618 -0.1407
 3949TIP3    H211809   3.926   5.282   3.242  1.4389  0.0367  1.2747
 3950TIP3   OH211810   2.351   0.477   1.199  0.6606 -0.2459 -0.2324
 3950TIP3    H111811   2.427   0.430   1.165  0.6248 -0.8984  0.5467
 3950TIP3    H211812   2.379   0.507   1.286  0.9340  1.8261 -0.9878
 3951TIP3   OH211813   5.488   3.520   5.989 -0.3047  0.1870  0.2607
 3951TIP3    H111814   5.564   3.474   6.026 -0.5274  0.2113  0.7563
 3951TIP3    H211815   5.433   3.451   5.953 -0.6175  0.0636  0.9633
 3952TIP3   OH211816   1.057   3.658   5.368 -0.0046 -0.4122  0.3494
 3952TIP3    H111817   1.076   3.653   5.462  1.3681  0.4143  0.1402
 3952TIP3    H211818   0.985   3.596   5.355 -0.7194  0.0035  2.0628
 3953TIP3   OH211819   6.999   1.755   4.191 -0.1235 -0.5133  0.3918
 3953TIP3    H111820   7.010   1.660   4.200 -0.3626 -0.7308 -1.3329
 3953TIP3    H211821   6.931   1.776   4.256  0.8503 -1.2749  1.7224
 3954TIP3   OH211822   5.628   5.030   3.953 -0.2734  0.0952 -0.4301
 3954TIP3    H111823   5.590   5.047   3.866 -1.1293  2.5319  0.3325
 3954TIP3    H211824   5.594   5.101   4.007  3.7408  1.2505  0.8480
 3955TIP3   OH211825   2.149   4.825   5.650  0.0273 -0.2404  0.0176
 3955TIP3    H111826   2.181   4.738   5.626  1.2850 -0.0505  0.9027
 3955TIP3    H211827   2.055   4.822   5.633 -0.3782 -2.5151  2.0707
 3956TIP3   OH211828   3.466   0.943   0.077 -0.1542  0.0244 -0.2096
 3956TIP3    H111829   3.506   0.968   0.160  0.3900  3.0778 -1.2611
 3956TIP3    H211830   3.376   0.921   0.099  0.6387 -1.9586  1.4750
 3957TIP3   OH211831   2.015   5.144   1.766  0.3469  0.3481  0.3961
 3957TIP3    H111832   2.047   5.213   1.824 -1.5864  2.5348 -0.9388
 3957TIP3    H211833   1.947   5.100   1.817  1.2602 -0.3043  1.0851
 3958TIP3   OH211834   1.371   5.425   4.219 -0.2405 -0.2955  0.2289
 3958TIP3    H111835   1.321   5.347   4.239  1.4300 -1.8323 -1.1958
 3958TIP3    H211836   1.459   5.407   4.252  0.0426  1.2558  0.4359
 3959TIP3   OH211837   0.798   0.995   2.625 -0.2235  0.1607 -0.6307
 3959TIP3    H111838   0.846   1.059   2.677 -0.8573 -0.8472  1.3204
 3959TIP3    H211839   0.866   0.938   2.589  0.2455  1.0076 -1.1239
 3960TIP3   OH211840   0.068   0.460   1.580  0.0572  0.0199 -0.5547
 3960TIP3    H111841   0.135   0.525   1.602 -0.3509 -0.1743  1.5103
 3960TIP3    H211842   0.117   0.381   1.560  0.4910  0.3392 -0.7808
 3961TIP3   OH211843   6.363   2.008   3.407  0.1135  0.0015 -0.2653
 3961TIP3    H111844   6.298   1.940   3.387  1.4076 -1.1486 -0.6912
 3961TIP3    H211845   6.429   1.963   3.461  1.1456  0.8446 -0.7928
 3962TIP3   OH211846   5.920   6.570   2.442 -0.1116 -0.7326  0.3792
 3962TIP3    H111847   5.940   6.621   2.364  0.0296  1.2308  1.6271
 3962TIP3    H211848   6.006   6.540   2.473  0.0667  0.3746  0.9864
 3963TIP3   OH211849   1.310   2.370   1.135 -0.2342 -0.3037  0.2047
 3963TIP3    H111850   1.287   2.446   1.082 -1.6393 -1.4908 -0.9903
 3963TIP3    H211851   1.405   2.373   1.140 -0.2508  1.4723  0.1260
 3964TIP3   OH211852   0.828   1.606   3.267 -0.1082  0.6396  0.3785
 3964TIP3    H111853   0.781   1.536   3.222  1.0589  1.2837 -2.0245
 3964TIP3    H211854   0.782   1.615   3.351 -2.0742 -1.0372 -0.4069
 3965TIP3   OH211855   0.995   3.445   1.686  0.1500  0.2165  0.5067
 3965TIP3    H111856   1.023   3.356   1.662  3.6771  1.0820  0.8586
 3965TIP3    H211857   0.928   3.467   1.622 -0.5916 -2.5489  0.2020
 3966TIP3   OH211858   4.343   7.112   2.152  0.2989 -0.3593 -0.0285
 3966TIP3    H111859   4.378   7.046   2.094 -1.0569 -0.6535 -0.5479
 3966TIP3    H211860   4.354   7.195   2.105  0.9720 -0.3473  0.1429
 3967TIP3   OH211861   2.595   1.650   1.158 -0.3570 -0.0325 -0.6608
 3967TIP3    H111862   2.684   1.618   1.148 -1.0795 -2.5669  0.2694
 3967TIP3    H211863   2.599   1.714   1.229  0.6879 -0.2318 -0.5322
 3968TIP3   OH211864   0.937   4.612   5.285 -0.5500  0.8875  0.1560
 3968TIP3    H111865   0.877   4.587   5.356 -1.0251  1.9915  0.1760
 3968TIP3    H211866   0.901   4.695   5.253  0.2607  0.9227 -0.6818
 3969TIP3   OH211867   5.007   6.028   4.047  0.1945  0.4903  0.0698
 3969TIP3    H111868   4.998   6.111   4.000  1.7280 -0.0735 -1.2986
 3969TIP3    H211869   5.049   5.969   3.985 -1.1114 -1.4251  0.9128
 3970TIP3   OH211870   4.323   1.419   2.243 -0.0988  0.4265  0.3793
 3970TIP3    H111871   4.265   1.495   2.253 -1.4423  0.3590 -4.2975
 3970TIP3    H211872   4.402   1.454   2.203  1.7450 -0.0209  3.3576
 3971TIP3   OH211873   6.754   6.544   4.629  0.0590 -0.2415 -0.0865
 3971TIP3    H111874   6.834   6.501   4.599 -1.0204 -1.5329 -1.2531
 3971TIP3    H211875   6.684   6.500   4.582 -1.2072  2.2508 -0.7079
 3972TIP3   OH211876   4.606   3.313   6.115 -0.4064  0.3178  0.4782
 3972TIP3    H111877   4.626   3.359   6.196 -1.3182  1.0274  0.3143
 3972TIP3    H211878   4.586   3.223   6.142 -3.0150  1.0759  1.3670
 3973TIP3   OH211879   4.731   6.550   0.216  0.1049 -0.0062 -0.5455
 3973TIP3    H111880   4.648   6.543   0.263  2.0444  0.6453  3.4039
 3973TIP3    H211881   4.770   6.462   0.222  0.9329  0.3991  0.2859
 3974TIP3   OH211882   5.543   0.577   0.101  0.0392 -0.4730 -0.0478
 3974TIP3    H111883   5.589   0.568   0.184  1.3080 -0.4862 -0.7322
 3974TIP3    H211884   5.485   0.652   0.114  0.5710 -0.1840  0.6988
 3975TIP3   OH211885   2.093   1.338   3.491  0.0377  0.4019  0.6125
 3975TIP3    H111886   2.019   1.281   3.470  0.5639 -0.0607 -0.0316
 3975TIP3    H211887   2.114   1.382   3.409  1.8882 -1.1468  0.1639
 3976TIP3   OH211888   6.926   3.755   4.552  0.9877  0.1017 -0.6547
 3976TIP3    H111889   6.939   3.845   4.519 -1.4954  1.0537  0.7027
 3976TIP3    H211890   7.014   3.725   4.574  1.7343  3.1446  1.1393
 3977TIP3   OH211891   0.414   5.726   0.581  0.2472  0.1678  0.0310
 3977TIP3    H111892   0.440   5.636   0.602 -0.0414  0.0102 -0.2910
 3977TIP3    H211893   0.395   5.765   0.666  0.8134  0.0656  0.2125
 3978TIP3   OH211894   2.452   4.764   0.503  0.2920  0.0916 -0.4958
 3978TIP3    H111895   2.372   4.816   0.507  0.3375  0.1175  0.2266
 3978TIP3    H211896   2.486   4.765   0.593  1.9783  1.4189 -1.0862
 3979TIP3   OH211897   3.139   5.010   5.117  0.1933 -0.0607 -0.1367
 3979TIP3    H111898   3.163   5.100   5.095 -0.3955  0.0295 -0.4284
 3979TIP3    H211899   3.209   4.979   5.174  0.3971  0.5848 -0.0364
 3980TIP3   OH211900   3.501   1.828   5.478  0.0198  0.3894 -0.0997
 3980TIP3    H111901   3.589   1.853   5.506  0.7800  1.8521 -3.2874
 3980TIP3    H211902   3.498   1.734   5.490  2.2303  0.2388 -0.2897
 3981TIP3   OH211903   2.995   5.946   3.668  0.8831  0.2024 -0.1279
 3981TIP3    H111904   3.041   5.931   3.750 -0.6220  2.1398  1.1602
 3981TIP3    H211905   2.953   6.031   3.679  1.8064  1.2431 -3.4862
 3982TIP3   OH211906   1.798   5.319   3.568 -0.4254 -0.4690 -0.2686
 3982TIP3    H111907   1.790   5.239   3.516  1.8788 -1.7643  1.1868
 3982TIP3    H211908   1.862   5.372   3.522  0.9445 -1.2245  0.6935
 3983TIP3   OH211909   6.024   4.034   3.068 -0.0285 -0.1648 -0.0788
 3983TIP3    H111910   5.940   4.011   3.107  0.6896 -2.4719  0.3047
 3983TIP3    H211911   6.089   4.001   3.131  1.1623  0.6027 -0.8640
 3984TIP3   OH211912   6.217   5.842   6.011 -0.8569 -0.5760 -0.1366
 3984TIP3    H111913   6.261   5.763   6.041  1.0094 -0.0273 -1.2734
 3984TIP3    H211914   6.288   5.902   5.989 -2.2178  1.1807  0.0317
 3985TIP3   OH211915   2.295   4.254   4.555 -0.1687 -0.2153  0.3703
 3985TIP3    H111916   2.258   4.325   4.607 -1.0177 -1.0431  0.9416
 3985TIP3    H211917   2.257   4.175   4.593  2.7066 -1.2032  1.4206
 3986TIP3   OH211918   2.604   5.859   1.868 -0.1187 -0.3730 -0.1415
 3986TIP3    H111919   2.680   5.910   1.896  0.2204 -0.4440 -0.8912
 3986TIP3    H211920   2.588   5.797   1.939 -0.1668  0.3863  0.5133
 3987TIP3   OH211921   5.893   3.712   2.915 -0.5807 -0.1803 -0.3896
 3987TIP3    H111922   5.906   3.619   2.894 -0.4107 -0.1422 -0.4534
 3987TIP3    H211923   5.862   3.712   3.005 -0.0292 -0.2654 -0.1959
 3988TIP3   OH211924   3.098   2.997   5.235  0.0633  0.1084 -0.2104
 3988TIP3    H111925   3.106   2.962   5.324 -1.5598 -1.3997 -0.5856
 3988TIP3    H211926   3.126   3.088   5.241  0.3758 -0.0896  1.7453
 3989TIP3   OH211927   1.779   0.460   3.923 -0.4182  0.3600 -0.0261
 3989TIP3    H111928   1.864   0.478   3.963 -1.4150  0.1675  2.3850
 3989TIP3    H211929   1.770   0.364   3.926 -1.0787  0.4280  0.6308
 3990TIP3   OH211930   6.693   3.898   5.856 -0.0536  0.5038  0.2887
 3990TIP3    H111931   6.706   3.923   5.764 -0.4658 -0.4156 -0.0324
 3990TIP3    H211932   6.672   3.804   5.852 -1.1939  0.7029  1.2275
 3991TIP3   OH211933   2.469   1.333   6.115 -0.2596 -0.4831 -0.4280
 3991TIP3    H111934   2.457   1.412   6.062 -1.8284  0.1011  0.7340
 3991TIP3    H211935   2.384   1.318   6.156  0.6685 -1.3892  1.2546
 3992TIP3   OH211936   5.037   5.735   0.221 -0.3850 -0.6132 -0.2974
 3992TIP3    H111937   5.028   5.707   0.312  0.0521 -1.4527 -0.5079
 3992TIP3    H211938   5.129   5.720   0.199 -0.0943  1.0653 -0.4065
 3993TIP3   OH211939   0.714   5.736   1.403 -0.2559  0.4540 -0.6282
 3993TIP3    H111940   0.641   5.726   1.343  0.0169 -0.2356 -0.8617
 3993TIP3    H211941   0.776   5.668   1.377  0.3268  0.8155 -0.2294
 3994TIP3   OH211942   2.998   6.552   1.706  0.2232 -0.2875 -0.1173
 3994TIP3    H111943   3.059   6.540   1.634  0.7715  1.1986  0.0683
 3994TIP3    H211944   2.919   6.506   1.678  0.4903  0.0831 -1.5814
 3995TIP3   OH211945   4.977   1.423   5.080 -0.2739  0.0105  0.0004
 3995TIP3    H111946   5.023   1.504   5.102  0.4736  0.0561 -1.5908
 3995TIP3    H211947   5.035   1.379   5.018 -0.3338 -2.1097  1.3835
 3996TIP3   OH211948   2.989   1.641   3.960 -0.3964  0.1318 -0.1144
 3996TIP3    H111949   3.057   1.706   3.945  1.4935 -2.0495 -1.7199
 3996TIP3    H211950   2.943   1.671   4.038  1.5662  2.3823  0.2783
 3997TIP3   OH211951   5.588   3.892   5.911  0.5170  0.1681  0.8054
 3997TIP3    H111952   5.641   3.852   5.842 -1.0472 -0.3841 -0.1155
 3997TIP3    H211953   5.511   3.836   5.917 -0.2181  1.2540  1.7464
 3998TIP3   OH211954   1.867   2.622   3.204 -0.9788  0.0133  0.2311
 3998TIP3    H111955   1.800   2.576   3.154 -3.6697  0.8761  2.7314
 3998TIP3    H211956   1.950   2.586   3.172 -2.6748 -2.6319 -1.6222
 3999TIP3   OH211957   2.516   0.049   2.175 -0.2658  0.1975 -0.0204
 3999TIP3    H111958   2.466  -0.029   2.198  0.8673 -0.1449  1.4183
 3999TIP3    H211959   2.607   0.024   2.186  0.3746  0.5267 -3.4622
 4000TIP3   OH211960   3.463   1.128   4.444 -0.1305  0.1168  0.4420
 4000TIP3    H111961   3.436   1.145   4.354 -1.5342 -0.9282  0.6248
 4000TIP3    H211962   3.510   1.207   4.471  0.7789  0.2413 -1.3606
 4001TIP3   OH211963   3.154   3.417   5.956 -0.1809  0.0120 -0.3316
 4001TIP3    H111964   3.142   3.379   5.869 -1.2173  0.2876 -0.3238
 4001TIP3    H211965   3.114   3.353   6.016  2.3752 -1.2279  0.2073
 4002TIP3   OH211966   5.727   5.307   0.788  0.3887  0.0643 -0.2193
 4002TIP3    H111967   5.746   5.365   0.862  1.0824 -0.5256  0.0882
 4002TIP3    H211968   5.649   5.259   0.816 -0.4018  1.0968 -0.6320
 4003TIP3   OH211969   2.765   2.604   2.833 -0.1281 -0.0229  0.2494
 4003TIP3    H111970   2.850   2.608   2.788 -0.9158  0.2744 -1.3044
 4003TIP3    H211971   2.746   2.694   2.856 -0.4349  0.0439 -0.2480
 4004TIP3   OH211972   5.378   2.709   4.206 -0.1473  0.0538  0.1843
 4004TIP3    H111973   5.300   2.764   4.194 -0.7656 -1.1552 -1.8335
 4004TIP3    H211974   5.369   2.673   4.294 -1.3465  0.7209  0.3578
 4005TIP3   OH211975   0.750   4.213   1.823  0.0752  0.4685  0.0872
 4005TIP3    H111976   0.816   4.246   1.883 -0.6996 -1.8685  2.4013
 4005TIP3    H211977   0.667   4.245   1.858 -0.2951  0.2685 -0.5878
 4006TIP3   OH211978   6.830   6.326   2.980 -0.5567  0.1313 -0.0809
 4006TIP3    H111979   6.789   6.240   2.991  0.6765 -0.5947 -0.9016
 4006TIP3    H211980   6.858   6.328   2.888  1.2488  0.5527  0.4246
 4007TIP3   OH211981   5.286   6.702   0.240  0.0212 -0.2152  0.5061
 4007TIP3    H111982   5.368   6.748   0.222 -1.2031  1.5908 -0.9235
 4007TIP3    H211983   5.256   6.737   0.323  0.4204 -0.4729  0.7615
 4008TIP3   OH211984   5.617   3.594   0.178 -0.5385  0.3812 -0.0170
 4008TIP3    H111985   5.544   3.568   0.235 -1.1902  0.6415 -0.7210
 4008TIP3    H211986   5.682   3.525   0.189 -2.1361 -1.5060 -1.7004
 4009TIP3   OH211987   3.896   2.621   1.279 -0.3808 -0.0583  0.4651
 4009TIP3    H111988   3.870   2.570   1.356 -0.6713  1.3288  1.3191
 4009TIP3    H211989   3.841   2.699   1.283  0.2947  0.4879 -0.6222
 4010TIP3   OH211990   5.652   2.028   0.135 -0.1731 -0.2663 -0.4007
 4010TIP3    H111991   5.679   2.053   0.224  0.9544 -1.2250 -0.4564
 4010TIP3    H211992   5.704   2.084   0.078 -0.7775  0.2335 -0.4694
 4011TIP3   OH211993   6.731   1.051   5.325  0.1611  0.0590 -0.5010
 4011TIP3    H111994   6.771   0.967   5.349  0.5324  0.7669  1.6700
 4011TIP3    H211995   6.637   1.038   5.339  0.2510  0.0759  0.1773
 4012TIP3   OH211996   0.894   5.718   3.054 -0.5569  0.2366  0.7076
 4012TIP3    H111997   0.926   5.664   2.981  0.0683 -0.0346  1.1789
 4012TIP3    H211998   0.804   5.741   3.029 -0.6443 -0.5717  0.2510
 4013TIP3   OH211999   4.143   5.124   5.704  0.1266 -0.0999 -0.1446
 4013TIP3    H112000   4.061   5.160   5.669 -0.3256  0.1763  1.1581
 4013TIP3    H212001   4.146   5.153   5.795  0.8596 -1.4657  0.3064
 4014TIP3   OH212002   3.936   2.774   3.311  0.5951 -0.0606 -0.1071
 4014TIP3    H112003   3.912   2.683   3.295 -2.5247  0.8490 -1.3830
 4014TIP3    H212004   3.877   2.803   3.380  0.2723  1.4538 -0.9714
 4015TIP3   OH212005   6.712   5.147   1.577  0.2017  0.2567  0.6569
 4015TIP3    H112006   6.782   5.086   1.598 -0.9021 -1.9278 -1.5085
 4015TIP3    H212007   6.635   5.091   1.563 -1.7388  2.4449  1.7671
 4016TIP3   OH212008   5.662   1.111   4.914  0.8873 -0.4925  0.3794
 4016TIP3    H112009   5.677   1.026   4.955  0.6229 -0.7912 -0.1270
 4016TIP3    H212010   5.723   1.113   4.840  0.9912 -0.1854  0.4753
 4017TIP3   OH212011   3.941   2.638   0.826  0.5582  0.2269 -0.6408
 4017TIP3    H112012   3.850   2.622   0.848  0.2295  0.3104 -1.8342
 4017TIP3    H212013   3.980   2.675   0.905 -0.4135  0.0928 -0.0912
 4018TIP3   OH212014   4.517   3.497   2.947 -0.1343 -0.3036  0.2235
 4018TIP3    H112015   4.516   3.419   2.891  1.4316 -0.6831  0.6706
 4018TIP3    H212016   4.450   3.480   3.013 -1.3369 -0.2744 -0.9399
 4019TIP3   OH212017   1.646   5.348   4.316  0.0277  0.2897 -0.2385
 4019TIP3    H112018   1.681   5.259   4.310 -0.3790  0.1435 -0.4549
 4019TIP3    H212019   1.674   5.379   4.403 -0.3418 -0.2677  0.0793
 4020TIP3   OH212020   6.310   1.974   5.957 -0.3516 -0.1491 -0.0459
 4020TIP3    H112021   6.310   1.911   6.029  3.5527 -0.2129  0.1481
 4020TIP3    H212022   6.302   2.060   6.000 -1.7148 -0.3255  0.0718
 4021TIP3   OH212023   2.666   2.184   2.320 -0.3160 -0.3340 -0.1057
 4021TIP3    H112024   2.631   2.163   2.406  1.4077 -0.0922  0.6998
 4021TIP3    H212025   2.623   2.266   2.296 -0.6786 -0.3057  0.6061
 4022TIP3   OH212026   3.330   1.713   3.987  0.7784  0.1503 -0.2731
 4022TIP3    H112027   3.292   1.642   4.039 -2.1532 -0.8248 -3.4152
 4022TIP3    H212028   3.302   1.793   4.032 -0.0852 -0.6288  0.6132
 4023TIP3   OH212029   7.187   5.141   1.290 -0.6611  0.0722  0.3193
 4023TIP3    H112030   7.278   5.146   1.319 -0.9335 -0.1537  1.2587
 4023TIP3    H212031   7.150   5.069   1.341 -1.3191  0.0389 -0.1915
 4024TIP3   OH212032   6.088   5.636   3.254  0.2755  0.0878  0.5354
 4024TIP3    H112033   6.039   5.705   3.209  0.4420  0.0665  0.3207
 4024TIP3    H212034   6.052   5.555   3.220  1.5427  0.0658 -0.8240
 4025TIP3   OH212035   6.786   0.979   1.296 -0.3620  0.4631  0.4624
 4025TIP3    H112036   6.799   0.885   1.314 -0.4999  0.5114  0.8211
 4025TIP3    H212037   6.692   0.987   1.280 -0.1326  0.2702 -1.2055
 4026TIP3   OH212038   1.246   4.457   5.290 -0.3685  0.6273 -0.3324
 4026TIP3    H112039   1.153   4.447   5.311  0.0583 -0.6945  1.1797
 4026TIP3    H212040   1.273   4.370   5.262  0.1289  1.3290 -2.1287
 4027TIP3   OH212041   4.852   3.828   5.184  0.1378  0.0792 -0.1444
 4027TIP3    H112042   4.802   3.830   5.103 -0.9170  0.2970  0.5013
 4027TIP3    H212043   4.852   3.919   5.215  1.3846  0.1815 -0.3984
 4028TIP3   OH212044   1.216   6.656   2.210  0.0751  0.3558  0.6069
 4028TIP3    H112045   1.241   6.741   2.174  2.1871 -0.5179 -0.2180
 4028TIP3    H212046   1.283   6.637   2.276  0.5880 -1.2940 -0.3103
 4029TIP3   OH212047   4.168   0.509   6.111 -0.4537  0.3083  0.5768
 4029TIP3    H112048   4.219   0.449   6.058 -2.2323 -0.5808 -0.2052
 4029TIP3    H212049   4.182   0.595   6.071 -0.7460 -0.1585 -0.5486
 4030TIP3   OH212050   3.189   3.554   4.608  0.4366 -0.1423 -0.2041
 4030TIP3    H112051   3.155   3.619   4.547  1.1792  2.3497  1.8778
 4030TIP3    H212052   3.273   3.528   4.570 -0.3674 -0.8218 -1.6268
 4031TIP3   OH212053   4.374   1.314   5.797 -0.7146  0.7476 -0.3180
 4031TIP3    H112054   4.295   1.310   5.744 -0.7581 -1.4845 -0.1521
 4031TIP3    H212055   4.445   1.330   5.735 -1.1787  1.9292 -0.5623
 4032TIP3   OH212056   6.274   6.340   4.349  0.1066  0.0688 -0.5067
 4032TIP3    H112057   6.362   6.308   4.331  0.3897  0.4807  0.1412
 4032TIP3    H212058   6.221   6.261   4.361  0.3028 -0.1858 -1.2333
 4033TIP3   OH212059   0.065   2.070   4.347 -0.6405  0.0063  0.1052
 4033TIP3    H112060   0.157   2.068   4.371 -0.9141  1.0454  1.3447
 4033TIP3    H212061   0.052   2.156   4.306 -1.5640  0.9705  2.2725
 4034TIP3   OH212062   0.567   4.233   3.024 -0.4797 -0.2773  0.0637
 4034TIP3    H112063   0.584   4.169   2.955  1.7160  0.7557 -0.4073
 4034TIP3    H212064   0.476   4.259   3.010 -0.0937 -0.0627 -2.4711
 4035TIP3   OH212065   5.972   1.660   5.480  0.1175  0.1306 -0.5263
 4035TIP3    H112066   5.896   1.635   5.532  0.2911 -0.2689 -0.4621
 4035TIP3    H212067   6.043   1.669   5.544  0.2564 -0.0469 -0.6578
 4036TIP3   OH212068   4.974   6.540   3.840 -0.3808  0.2503  0.1719
 4036TIP3    H112069   5.069   6.540   3.842 -0.3440 -1.9456  0.9319
 4036TIP3    H212070   4.951   6.575   3.753  1.1089  0.1976 -0.2617
 4037TIP3   OH212071   2.742   0.129   5.862 -0.3340 -0.1628  0.1198
 4037TIP3    H112072   2.737   0.086   5.947 -2.5193  1.3245  0.8107
 4037TIP3    H212073   2.744   0.057   5.799 -0.4537 -1.2645  1.3403
 4038TIP3   OH212074   6.043   3.931   6.115 -0.1293  0.2141 -0.1312
 4038TIP3    H112075   5.970   3.916   6.055  0.6772 -0.9462 -0.8843
 4038TIP3    H212076   6.120   3.938   6.058  0.7156 -1.2495  0.7370
 4039TIP3   OH212077   7.554   6.243   5.977 -0.2082 -0.2187 -0.3782
 4039TIP3    H112078   7.596   6.328   5.983 -1.2044  0.3622 -1.3648
 4039TIP3    H212079   7.529   6.223   6.067 -1.5713  1.3829 -0.3545
 4040TIP3   OH212080   3.302   0.261   1.729  0.3222 -0.9126 -0.7269
 4040TIP3    H112081   3.278   0.171   1.749 -2.3015 -0.7751 -2.7988
 4040TIP3    H212082   3.302   0.266   1.633  2.1101  0.8987 -0.7050
 4041TIP3   OH212083   2.711   0.338   3.062  0.2236  0.0303 -0.1787
 4041TIP3    H112084   2.674   0.376   2.982 -2.0657  0.2424  0.8922
 4041TIP3    H212085   2.701   0.244   3.051  1.2647 -0.0289 -0.7260
 4042TIP3   OH212086   3.162   2.785   2.692 -0.3856 -0.6284  0.3605
 4042TIP3    H112087   3.241   2.749   2.734 -0.8836 -0.2817  1.6310
 4042TIP3    H212088   3.097   2.789   2.762 -0.3924  2.6719  0.3172
 4043TIP3   OH212089   3.392   0.575   3.753  0.1457  0.6117  0.1840
 4043TIP3    H112090   3.398   0.563   3.848 -0.0349  0.2607  0.1528
 4043TIP3    H212091   3.382   0.487   3.718  0.0173  0.7563 -0.1496
 4044TIP3   OH212092   2.428   4.576   3.715 -0.4445 -0.6691 -0.4181
 4044TIP3    H112093   2.429   4.620   3.630  2.7259  1.6353  0.6330
 4044TIP3    H212094   2.448   4.484   3.695 -0.8681 -0.3932 -2.2249
 4045TIP3   OH212095   1.255   3.980   3.488  1.0947 -0.3904 -0.6726
 4045TIP3    H112096   1.171   3.961   3.445  1.2859 -1.6543 -0.5276
 4045TIP3    H212097   1.243   4.067   3.525 -0.7864 -1.2061  0.8253
 4046TIP3   OH212098   3.855   5.597   3.456 -0.0983  0.0124 -0.1838
 4046TIP3    H112099   3.767   5.606   3.420  0.0797  0.8731 -0.4328
 4046TIP3    H212100   3.885   5.511   3.426  0.1095  0.7562 -2.2942
 4047TIP3   OH212101   7.064   1.762   3.923 -0.0109 -0.1434  0.4066
 4047TIP3    H112102   7.055   1.765   4.018  0.1711 -1.1396  0.4602
 4047TIP3    H212103   7.127   1.831   3.903 -0.2994  0.2958  0.9693
 4048TIP3   OH212104   0.607   3.841   2.057 -0.7648 -0.0682 -0.4664
 4048TIP3    H112105   0.606   3.818   2.150 -0.7796 -2.0539 -0.9061
 4048TIP3    H212106   0.517   3.829   2.028 -1.3466  2.9713 -0.2798
 4049TIP3   OH212107   1.849   5.911   3.773 -0.0985 -0.4855  0.0566
 4049TIP3    H112108   1.772   5.896   3.827  1.3381 -1.5667  1.9443
 4049TIP3    H212109   1.897   5.981   3.818 -0.1859  0.5520 -1.3788
 4050TIP3   OH212110   3.682   3.836   5.119  0.4889  0.3648 -0.2419
 4050TIP3    H112111   3.640   3.767   5.169 -0.1549  1.5184  0.8724
 4050TIP3    H212112   3.726   3.791   5.047 -0.0587 -1.1634  0.3519
 4051TIP3   OH212113   0.382   4.201   0.847  0.2027 -0.1571 -0.2967
 4051TIP3    H112114   0.457   4.154   0.809  0.0970 -0.2557 -0.3858
 4051TIP3    H212115   0.362   4.269   0.783  0.4633  0.1162 -0.0861
 4052TIP3   OH212116   7.182   5.283   1.596  0.2968  0.1784 -0.4252
 4052TIP3    H112117   7.201   5.283   1.690  0.6516  1.0125 -0.4923
 4052TIP3    H212118   7.238   5.214   1.560 -0.9510 -1.1985  0.1784
 4053TIP3   OH212119   0.340   3.096   0.559 -0.1013 -0.7594 -0.3328
 4053TIP3    H112120   0.320   3.181   0.598 -0.4537 -1.6727  1.6017
 4053TIP3    H212121   0.276   3.036   0.598 -1.5081 -1.5589 -3.4752
 4054TIP3   OH212122   0.738   2.179   2.072  0.2477  0.2825 -0.1632
 4054TIP3    H112123   0.802   2.126   2.120  0.2332 -0.3274 -0.8073
 4054TIP3    H212124   0.733   2.138   1.986 -1.4132  0.0123  0.0466
 4055TIP3   OH212125   6.830   2.053   0.311 -0.0151  0.5236  0.4711
 4055TIP3    H112126   6.818   2.075   0.403 -0.8544 -1.4957  0.8982
 4055TIP3    H212127   6.919   2.018   0.306 -0.8057 -1.7447  1.0926
 4056TIP3   OH212128   3.934   5.009   5.112 -0.2951  0.2715  0.2472
 4056TIP3    H112129   4.028   4.991   5.111 -0.5106 -1.5031  2.6443
 4056TIP3    H212130   3.893   4.922   5.105 -1.7252  0.8708  0.8180
 4057TIP3   OH212131   1.520   3.697   3.646  0.8549  0.4141 -0.3233
 4057TIP3    H112132   1.487   3.658   3.565 -0.9891  2.5465 -0.6841
 4057TIP3    H212133   1.610   3.664   3.654  0.0727 -2.2716 -1.5599
 4058TIP3   OH212134   4.575   2.566   2.567 -0.4173 -0.1826 -0.4610
 4058TIP3    H112135   4.630   2.517   2.628  1.0010  1.0419 -0.7120
 4058TIP3    H212136   4.497   2.588   2.618 -0.2597 -1.1007  0.2036
 4059TIP3   OH212137   5.295   5.315   0.358  0.1963 -0.1105 -0.2852
 4059TIP3    H112138   5.310   5.231   0.315  1.0220 -0.2696  0.2862
 4059TIP3    H212139   5.325   5.301   0.448 -0.6530  0.4844  0.1069
 4060TIP3   OH212140   4.332   6.878   5.541 -0.2493 -0.3497 -0.3050
 4060TIP3    H112141   4.383   6.850   5.465 -1.0922 -1.4353 -0.4974
 4060TIP3    H212142   4.270   6.942   5.506  0.1778  0.0810 -0.2880
 4061TIP3   OH212143   5.649   4.421   4.865  0.3329  0.2175  0.6309
 4061TIP3    H112144   5.679   4.511   4.872 -1.2736  0.9486 -0.9417
 4061TIP3    H212145   5.665   4.397   4.773 -1.2056 -0.3113  0.4697
 4062TIP3   OH212146   6.534   3.968   6.155  0.7608 -0.1983 -0.0842
 4062TIP3    H112147   6.472   3.897   6.176  1.5633 -1.6908 -2.4233
 4062TIP3    H212148   6.482   4.048   6.167 -1.0065 -1.2907  0.0467
 4063TIP3   OH212149   1.483   6.874   1.143  0.5006 -0.9575  0.2093
 4063TIP3    H112150   1.563   6.827   1.165  1.0810  1.0382  2.9601
 4063TIP3    H212151   1.469   6.934   1.217 -4.1724 -1.9545  0.4552
 4064TIP3   OH212152   2.388   6.854   1.916 -0.3315 -0.2312 -0.3112
 4064TIP3    H112153   2.346   6.915   1.855 -1.7815 -0.9677 -0.1003
 4064TIP3    H212154   2.387   6.899   2.000 -0.7592 -0.2662 -0.2970
 4065TIP3   OH212155   5.832   3.820   1.315  0.0922 -0.0946 -0.5870
 4065TIP3    H112156   5.779   3.889   1.274  0.8480  0.1574 -1.1593
 4065TIP3    H212157   5.808   3.824   1.408 -1.6969 -0.7136 -0.9885
 4066TIP3   OH212158   3.778   1.507   2.406  0.0737  0.0059  0.0685
 4066TIP3    H112159   3.814   1.419   2.403  0.6926  0.2768 -0.9465
 4066TIP3    H212160   3.695   1.500   2.359  0.7014  0.2020 -1.1109
 4067TIP3   OH212161   3.093   6.884   1.686 -0.2451 -0.1514  0.0460
 4067TIP3    H112162   3.120   6.972   1.712  3.7043 -0.8521 -0.9534
 4067TIP3    H212163   3.125   6.828   1.756 -1.3684 -0.9121 -0.0427
 4068TIP3   OH212164   3.874   6.636   2.289  0.2669 -0.0473 -0.6166
 4068TIP3    H112165   3.821   6.617   2.212 -0.4811 -0.7520  0.0559
 4068TIP3    H212166   3.865   6.731   2.301 -0.9668 -0.1738 -0.4345
 4069TIP3   OH212167   6.313   6.532   1.444  0.1236  0.1336  0.1954
 4069TIP3    H112168   6.315   6.605   1.383  1.5789  0.7169  0.8821
 4069TIP3    H212169   6.223   6.531   1.478  0.0151  1.4297 -0.0244
 4070TIP3   OH212170   0.757   6.388   0.661  0.3147 -0.1530 -0.0263
 4070TIP3    H112171   0.710   6.434   0.592 -0.2644 -1.3230 -0.4499
 4070TIP3    H212172   0.846   6.378   0.628  0.1143 -0.4525 -0.4859
 4071TIP3   OH212173   0.846   2.777   5.134 -0.0843 -0.3311 -0.0398
 4071TIP3    H112174   0.934   2.808   5.113 -0.0556 -0.9156 -0.8236
 4071TIP3    H212175   0.830   2.706   5.071 -0.9423 -0.5219  0.3817
 4072TIP3   OH212176   6.671   5.720   6.130 -0.0672  0.2935  0.0975
 4072TIP3    H112177   6.627   5.713   6.215 -0.8707  2.4209 -0.0744
 4072TIP3    H212178   6.745   5.779   6.147 -0.8060  1.5300 -0.8523
 4073TIP3   OH212179   4.707   3.252   0.977  0.1175 -0.2629  0.1951
 4073TIP3    H112180   4.704   3.276   1.070  0.2228  1.8063 -0.2705
 4073TIP3    H212181   4.798   3.269   0.951  0.2210 -1.3301 -0.1860
 4074TIP3   OH212182   1.961   2.095   4.778 -0.2793  0.2291 -0.9179
 4074TIP3    H112183   1.934   2.043   4.702 -0.5088 -0.2437 -0.5233
 4074TIP3    H212184   1.888   2.089   4.839 -0.1040  0.6140 -0.6630
 4075TIP3   OH212185   3.903   4.187   2.836  0.2335  0.6872 -0.1731
 4075TIP3    H112186   3.844   4.240   2.782  0.6096  0.7798 -0.4979
 4075TIP3    H212187   3.930   4.247   2.906 -0.9934  0.2850  0.6717
 4076TIP3   OH212188   2.049   6.239   2.076 -0.1663  0.4409  0.2051
 4076TIP3    H112189   2.092   6.156   2.059 -0.7002  0.4510 -1.3363
 4076TIP3    H212190   1.971   6.237   2.020 -0.7783  1.5070  0.9874
 4077TIP3   OH212191   1.014   0.945   2.390  0.1931  0.0892 -0.2345
 4077TIP3    H112192   0.998   1.002   2.465 -2.9074 -3.0478  1.8054
 4077TIP3    H212193   1.090   0.892   2.415  0.3538  0.3511 -0.1702
 4078TIP3   OH212194   4.839   4.643   5.029  0.3568  0.3366 -0.8020
 4078TIP3    H112195   4.782   4.566   5.034  0.6357  0.0784 -1.5083
 4078TIP3    H212196   4.820   4.692   5.109 -0.0657 -0.2971 -0.5056
 4079TIP3   OH212197   0.031   5.870   2.721 -0.1391  0.0755 -0.9704
 4079TIP3    H112198   0.077   5.865   2.805 -0.9980 -1.6096 -0.5448
 4079TIP3    H212199  -0.014   5.785   2.713 -0.0607  0.1724 -3.1500
 4080TIP3   OH212200   1.892   2.516   3.466  0.2582 -0.6358  0.3496
 4080TIP3    H112201   1.902   2.424   3.440  2.5471 -0.1875 -0.5885
 4080TIP3    H212202   1.887   2.564   3.384 -2.1911  0.0335  0.8268
 4081TIP3   OH212203   3.215   3.948   5.851 -0.6458 -0.2231  0.9743
 4081TIP3    H112204   3.263   3.923   5.930  0.5256  0.1398  0.4144
 4081TIP3    H212205   3.265   3.906   5.780 -2.4417 -1.6766  0.5017
 4082TIP3   OH212206   4.242   5.312   5.916 -0.5002  0.1382  0.2151
 4082TIP3    H112207   4.264   5.370   5.989  0.8621  0.8217 -0.6806
 4082TIP3    H212208   4.311   5.246   5.916 -0.5291  0.1040 -0.3943
 4083TIP3   OH212209   7.436   5.082   4.227 -0.1470  0.3514  0.2544
 4083TIP3    H112210   7.432   5.122   4.314 -1.3475  3.0330 -0.8880
 4083TIP3    H212211   7.358   5.027   4.222 -0.0391  0.1377  0.9105
 4084TIP3   OH212212   0.677   4.201   3.933  0.3332  0.0387 -0.1144
 4084TIP3    H112213   0.614   4.267   3.960 -0.8002 -1.0896  0.0726
 4084TIP3    H212214   0.762   4.240   3.954 -0.3779  0.4771  2.2395
 4085TIP3   OH212215   0.892   5.582   4.153 -0.0179  0.3154 -0.2450
 4085TIP3    H112216   0.929   5.613   4.071  0.1556  1.3575  0.2075
 4085TIP3    H212217   0.865   5.662   4.199 -0.4592 -0.2694  0.5441
 4086TIP3   OH212218   0.123   5.914   1.590 -0.3543  0.1315 -0.4072
 4086TIP3    H112219   0.176   5.861   1.531  0.6899  1.3984 -0.6331
 4086TIP3    H212220   0.037   5.917   1.548 -0.0355 -0.2038 -1.1065
 4087TIP3   OH212221   0.692   5.573   1.714 -0.7343 -0.2178 -0.6634
 4087TIP3    H112222   0.673   5.667   1.715  0.5816  0.1128 -2.0978
 4087TIP3    H212223   0.787   5.569   1.725 -0.8020 -1.4078 -0.4258
 4088TIP3   OH212224   6.951   4.945   2.679  0.1479  0.0262 -0.1855
 4088TIP3    H112225   6.860   4.940   2.649  0.7845 -2.0376 -2.0782
 4088TIP3    H212226   6.993   5.006   2.619  0.1792  0.5190  0.3212
 4089TIP3   OH212227   4.439   6.325   3.592 -0.0852  0.2553  0.2164
 4089TIP3    H112228   4.414   6.239   3.559 -1.9047  0.4544  0.9460
 4089TIP3    H212229   4.520   6.309   3.641  0.2492 -0.8017 -0.6392
 4090TIP3   OH212230   7.079   4.938   3.684  0.0302  0.3179  0.0372
 4090TIP3    H112231   7.077   4.992   3.764 -0.2777 -0.4395  0.5513
 4090TIP3    H212232   7.028   4.989   3.620 -0.0264  0.7627  0.4288
 4091TIP3   OH212233   7.365   2.455   4.183  0.0789  0.0127 -0.2902
 4091TIP3    H112234   7.305   2.475   4.254 -0.6227 -1.4540 -0.4229
 4091TIP3    H212235   7.435   2.405   4.224  1.0375  1.3704 -0.2097
 4092TIP3   OH212236   0.438   6.830   5.482  0.2789 -0.4437 -0.5214
 4092TIP3    H112237   0.421   6.756   5.540  0.4958  0.2336  0.4279
 4092TIP3    H212238   0.366   6.828   5.419 -0.0672 -1.0772 -0.1178
 4093TIP3   OH212239   4.299   7.119   1.835  0.1430 -0.0600  0.0631
 4093TIP3    H112240   4.288   7.031   1.799 -0.9890  0.2496 -0.3810
 4093TIP3    H212241   4.378   7.153   1.792  0.5864 -0.8449  0.2369
 4094TIP3   OH212242   3.372   3.579   0.946 -0.5939 -0.1116 -0.1586
 4094TIP3    H112243   3.346   3.580   1.038 -1.7579  0.0482 -0.4720
 4094TIP3    H212244   3.423   3.659   0.934 -1.5782  0.5626  0.0453
 4095TIP3   OH212245   0.331   6.061   5.320 -0.3366  0.3428  0.2844
 4095TIP3    H112246   0.273   6.079   5.394  1.5000  2.5720  1.3635
 4095TIP3    H212247   0.374   5.978   5.342  2.3886  2.3207  3.4915
 4096TIP3   OH212248   5.834   6.414   0.770  0.1570  0.3685 -0.0349
 4096TIP3    H112249   5.739   6.409   0.758  0.1600  0.4169 -0.0809
 4096TIP3    H212250   5.866   6.450   0.687  0.4321 -1.5949 -0.8470
 4097TIP3   OH212251   0.561   4.925   5.939 -0.3248 -0.3758 -0.0656
 4097TIP3    H112252   0.654   4.932   5.963 -0.5517 -0.1523  0.7700
 4097TIP3    H212253   0.519   4.888   6.017 -1.2881  1.5329  0.3841
 4098TIP3   OH212254   6.795   4.304   4.542 -0.2140  0.0206  0.3002
 4098TIP3    H112255   6.816   4.292   4.450  0.2115  2.2707  0.0381
 4098TIP3    H212256   6.879   4.324   4.583 -0.6478  0.8742  0.8058
 4099TIP3   OH212257   1.256   0.336   3.080  0.0808  0.1221 -0.2156
 4099TIP3    H112258   1.232   0.273   3.012 -0.1174 -0.7498  0.6478
 4099TIP3    H212259   1.187   0.401   3.078  0.4519  0.5071 -1.3381
 4100TIP3   OH212260   5.019   0.887   3.645  0.4240 -0.5930  0.0228
 4100TIP3    H112261   5.022   0.820   3.713  1.9456 -0.9950 -0.4139
 4100TIP3    H212262   5.014   0.838   3.563 -0.0171 -0.1367 -0.2304
 4101TIP3   OH212263   2.639   1.368   2.925 -0.2946  0.6407 -0.1689
 4101TIP3    H112264   2.558   1.409   2.955 -0.3999  0.2959  0.0272
 4101TIP3    H212265   2.652   1.402   2.837 -0.7893  0.4935 -0.2992
 4102TIP3   OH212266   1.439   1.204   2.731  0.4172  0.3054  0.5041
 4102TIP3    H112267   1.427   1.210   2.826  1.3169  1.9004  0.5472
 4102TIP3    H212268   1.482   1.120   2.718 -0.4382 -0.2983  1.4146
 4103TIP3   OH212269   6.456   6.660   2.105  0.6408  0.4218  0.0586
 4103TIP3    H112270   6.411   6.674   2.022  0.1601  1.2361  0.4425
 4103TIP3    H212271   6.549   6.663   2.082  0.5169  1.2627 -0.3625
 4104TIP3   OH212272   6.852   1.634   5.105  0.2634  0.7673  0.1136
 4104TIP3    H112273   6.821   1.687   5.179  0.8511  0.0260  0.9104
 4104TIP3    H212274   6.879   1.551   5.145 -1.7467 -0.6190 -1.2541
 4105TIP3   OH212275   6.066   5.449   4.555  0.1002 -0.5451  0.2770
 4105TIP3    H112276   6.104   5.491   4.478 -0.4882 -0.7112 -0.1095
 4105TIP3    H212277   5.988   5.501   4.575 -0.2402 -1.0303  0.2232
 4106TIP3   OH212278   4.680   2.352   4.491 -0.7094  0.4016  0.2239
 4106TIP3    H112279   4.672   2.357   4.395  0.7848  0.8317  0.0984
 4106TIP3    H212280   4.759   2.301   4.506 -1.1848 -0.0596  1.2581
 4107TIP3   OH212281   4.622   4.180   5.465  0.2567  0.2000 -0.0209
 4107TIP3    H112282   4.527   4.180   5.453  0.1427 -1.0766  0.6347
 4107TIP3    H212283   4.649   4.093   5.436  0.7572 -0.7249  2.9050
 4108TIP3   OH212284   7.576   5.716   3.530  0.1181 -0.4110 -0.2344
 4108TIP3    H112285   7.524   5.761   3.464 -0.7578  0.6415  1.1307
 4108TIP3    H212286   7.512   5.669   3.584  0.5759  0.5357  1.1879
 4109TIP3   OH212287   7.380   2.726   1.999 -0.1548 -0.0241 -0.2656
 4109TIP3    H112288   7.448   2.746   1.934 -1.8654  1.1306 -1.7980
 4109TIP3    H212289   7.304   2.778   1.972 -1.7330 -1.3817  1.2734
 4110TIP3   OH212290   6.515   3.438   1.963  0.2527  0.1605  0.3825
 4110TIP3    H112291   6.577   3.375   1.999  0.6126  1.0587  1.4128
 4110TIP3    H212292   6.529   3.434   1.869  0.0824 -1.4629  0.4106
 4111TIP3   OH212293   6.133   4.167   2.057 -0.2262 -0.4396 -0.0191
 4111TIP3    H112294   6.130   4.249   2.007 -2.4117  0.5468  1.5567
 4111TIP3    H212295   6.062   4.114   2.020  1.4959 -1.9616 -1.3872
 4112TIP3   OH212296   5.563   2.856   1.774 -0.2302  0.6749 -0.1942
 4112TIP3    H112297   5.471   2.865   1.747  0.1295  0.4108 -1.5814
 4112TIP3    H212298   5.562   2.786   1.839 -1.3436  2.3435  1.7030
 4113TIP3   OH212299   2.482   2.557   0.861  0.1116 -0.2160 -0.1333
 4113TIP3    H112300   2.494   2.647   0.891  0.7388  0.1257 -1.3131
 4113TIP3    H212301   2.526   2.503   0.927 -0.0830  0.3553  0.4751
 4114TIP3   OH212302   2.482   1.008   5.240  0.4163  0.2843  0.5188
 4114TIP3    H112303   2.415   1.040   5.180 -1.5511 -1.2716  1.7261
 4114TIP3    H212304   2.502   0.920   5.208  1.4150  0.4826  0.5699
 4115TIP3   OH212305   2.255   1.676   5.467 -0.4294 -0.3355  0.5134
 4115TIP3    H112306   2.276   1.766   5.493  0.9327 -1.2137  2.7978
 4115TIP3    H212307   2.296   1.665   5.382  0.1163  0.9546  0.5882
 4116TIP3   OH212308   4.809   0.632   1.143 -0.2727 -0.0323  0.0795
 4116TIP3    H112309   4.767   0.614   1.059 -1.5459 -2.6922  1.1442
 4116TIP3    H212310   4.901   0.612   1.129 -0.0467  1.7173 -1.1990
 4117TIP3   OH212311   1.932   0.030   2.547  0.3236 -0.3066  0.0827
 4117TIP3    H112312   1.841   0.035   2.576  0.5398  0.6595  0.6438
 4117TIP3    H212313   1.966  -0.050   2.588  0.3995  0.6177  1.9121
 4118TIP3   OH212314   1.782   0.316   4.655 -0.6122  0.3333 -0.6467
 4118TIP3    H112315   1.829   0.396   4.630 -0.9757  0.5437 -0.6706
 4118TIP3    H212316   1.851   0.250   4.666 -0.3838  0.4325 -1.4334
 4119TIP3   OH212317   5.454   1.306   1.331 -0.5969 -0.0126 -0.3926
 4119TIP3    H112318   5.478   1.321   1.240  0.1748  0.0937 -0.1734
 4119TIP3    H212319   5.474   1.388   1.376 -0.9280 -0.0797 -0.1174
 4120TIP3   OH212320   6.522   1.648   6.108 -0.4120  0.0143 -0.4871
 4120TIP3    H112321   6.588   1.626   6.175 -1.2160  1.3855  0.8000
 4120TIP3    H212322   6.572   1.652   6.026  0.9863  0.3798  0.3530
 4121TIP3   OH212323   7.615   3.560   0.623 -0.3794 -0.3002  0.2548
 4121TIP3    H112324   7.628   3.477   0.669  1.3686  0.7262  1.7218
 4121TIP3    H212325   7.551   3.607   0.676  0.4569  0.2443  0.8083
 4122TIP3   OH212326   1.181   4.898   3.630  0.4178  0.2372 -0.2124
 4122TIP3    H112327   1.259   4.850   3.659  0.0483 -0.0713  0.2783
 4122TIP3    H212328   1.156   4.952   3.705 -1.9303 -2.3138  1.0123
 4123TIP3   OH212329   0.118   3.462   0.375 -0.4038  0.4275 -0.3679
 4123TIP3    H112330   0.086   3.523   0.308  0.5895  1.3929 -0.0035
 4123TIP3    H212331   0.121   3.515   0.455 -1.0911 -0.5731  0.3370
 4124TIP3   OH212332   0.712   1.078   5.905 -0.4635 -0.0960 -0.2442
 4124TIP3    H112333   0.668   1.164   5.904 -1.5011 -0.6041  0.1548
 4124TIP3    H212334   0.805   1.099   5.902 -0.6750  1.0800  0.5364
 4125TIP3   OH212335   6.178   2.566   4.148  0.5333 -0.4841  0.5932
 4125TIP3    H112336   6.235   2.602   4.216 -2.2594  2.2868  1.6992
 4125TIP3    H212337   6.202   2.616   4.069  1.1366 -0.9361  0.4847
 4126TIP3   OH212338   0.859   0.083   4.080  0.6250  0.3517  0.1884
 4126TIP3    H112339   0.946   0.064   4.046 -0.2349 -3.1204 -0.4717
 4126TIP3    H212340   0.807   0.103   4.003  0.4513  0.6658  0.3846
 4127TIP3   OH212341   5.083   0.879   5.166  0.0975  0.4425 -0.3687
 4127TIP3    H112342   5.084   0.791   5.205  2.1676  0.8742  0.6998
 4127TIP3    H212343   5.018   0.927   5.216 -0.3110 -0.1916 -0.2798
 4128TIP3   OH212344   3.784   4.777   5.201 -0.2443  0.0450 -0.4410
 4128TIP3    H112345   3.807   4.687   5.174 -0.5156  0.3807 -1.9030
 4128TIP3    H212346   3.695   4.790   5.169 -0.3024  0.7442 -0.0100
 4129TIP3   OH212347   0.073   2.228   5.725  0.3653  0.4797  0.1318
 4129TIP3    H112348   0.122   2.157   5.684 -1.5477 -1.3544  0.8847
 4129TIP3    H212349  -0.018   2.210   5.705 -0.3366  1.6367  1.9934
 4130TIP3   OH212350   5.364   0.370   0.467 -0.1674 -0.1788  0.2317
 4130TIP3    H112351   5.385   0.451   0.421  1.2254 -0.5170  0.2111
 4130TIP3    H212352   5.412   0.302   0.419  0.2393 -0.7272  1.3625
 4131TIP3   OH212353   3.224   4.577   1.052  0.3284 -0.1217 -0.2880
 4131TIP3    H112354   3.271   4.608   1.130 -0.1630 -1.3501  0.5280
 4131TIP3    H212355   3.293   4.567   0.986  0.4915  2.7796 -0.6743
 4132TIP3   OH212356   6.218   0.998   1.049  0.0921 -0.3491  0.4637
 4132TIP3    H112357   6.228   0.916   1.001 -0.2273 -0.4598  0.5792
 4132TIP3    H212358   6.154   0.977   1.118 -2.6660  0.8532 -1.5456
 4133TIP3   OH212359   1.350   3.422   4.929  0.1803 -0.0952 -0.5118
 4133TIP3    H112360   1.334   3.387   4.841 -1.0807  0.5992 -0.5909
 4133TIP3    H212361   1.265   3.457   4.956  0.2023 -1.4197  1.5111
 4134TIP3   OH212362   3.697   1.476   2.696  0.0662 -0.1778  0.1477
 4134TIP3    H112363   3.696   1.568   2.722  2.6866 -0.4175  1.4786
 4134TIP3    H212364   3.748   1.474   2.615  0.3483 -0.4945  0.3314
 4135TIP3   OH212365   0.664   4.603   4.915 -0.3903 -0.3123  0.0874
 4135TIP3    H112366   0.635   4.653   4.991 -1.0954 -2.3692  1.2544
 4135TIP3    H212367   0.597   4.618   4.849 -1.0984 -0.4525  0.7576
 4136TIP3   OH212368   4.874   4.836   3.002  0.0992  0.2215 -0.6916
 4136TIP3    H112369   4.917   4.887   2.934  0.9060 -0.0462 -0.3874
 4136TIP3    H212370   4.877   4.892   3.080 -0.0589  0.1819 -0.6566
 4137TIP3   OH212371   1.389   1.066   6.193 -0.3221 -0.3874  0.0751
 4137TIP3    H112372   1.332   1.045   6.119  0.8426  0.8068 -1.1867
 4137TIP3    H212373   1.413   0.980   6.229  0.3572 -1.0743 -1.8960
 4138TIP3   OH212374   5.450   2.869   5.558 -0.3600  0.5402 -0.2214
 4138TIP3    H112375   5.461   2.857   5.652 -1.3942 -0.3431 -0.1931
 4138TIP3    H212376   5.520   2.929   5.533  0.4633  0.0989  0.9549
 4139TIP3   OH212377   6.203   2.226   4.828  0.1486 -0.2134 -0.0533
 4139TIP3    H112378   6.130   2.178   4.790 -0.2925 -1.3570  2.1000
 4139TIP3    H212379   6.275   2.211   4.767 -1.2478  0.5633 -1.9811
 4140TIP3   OH212380   3.776   6.480   3.767 -0.3285 -0.3245 -1.0726
 4140TIP3    H112381   3.826   6.401   3.785  0.4262  0.0591 -1.4358
 4140TIP3    H212382   3.699   6.473   3.823  1.3503  0.2807  1.4975
 4141TIP3   OH212383   4.029   5.838   3.699  0.9153  0.4487  0.3005
 4141TIP3    H112384   4.020   5.826   3.605  0.6930 -0.6499  0.4489
 4141TIP3    H212385   3.956   5.895   3.723  1.5194  1.5156 -0.3150
 4142TIP3   OH212386   3.774   2.907   0.817 -0.1166  0.1363  0.0725
 4142TIP3    H112387   3.723   2.835   0.856 -1.4117  3.3532  5.1966
 4142TIP3    H212388   3.858   2.904   0.861  0.5786  0.6351 -1.1699
 4143TIP3   OH212389   0.145  -0.013   3.497  0.0213 -0.1319 -0.2290
 4143TIP3    H112390   0.228  -0.010   3.544  0.5798 -0.0928 -1.1792
 4143TIP3    H212391   0.110   0.076   3.505  0.8303  0.2833 -1.1141
 4144TIP3   OH212392   0.657   6.114   3.076 -0.1858 -0.4582 -0.0344
 4144TIP3    H112393   0.672   6.169   2.999  0.7258  0.6873  0.9066
 4144TIP3    H212394   0.720   6.147   3.141 -0.9446 -1.3602  1.2011
 4145TIP3   OH212395   6.025   5.919   3.979 -0.2008 -0.1027  0.2617
 4145TIP3    H112396   5.986   5.863   4.047 -1.7021  1.9483  1.2234
 4145TIP3    H212397   6.090   5.971   4.026 -0.4772  0.5650 -0.0798
 4146TIP3   OH212398   2.606   2.437   2.208 -0.7025 -0.3013  0.4054
 4146TIP3    H112399   2.584   2.442   2.115 -0.8780 -0.6901  0.4258
 4146TIP3    H212400   2.682   2.495   2.217 -0.6466 -0.3068  0.0084
 4147TIP3   OH212401   3.523   1.675   1.424 -0.5151  0.8134 -0.0388
 4147TIP3    H112402   3.491   1.585   1.420  0.1484  0.5892 -0.7848
 4147TIP3    H212403   3.487   1.710   1.505 -1.0540 -0.0206  0.0983
 4148TIP3   OH212404   4.828   2.597   4.578  0.7239  0.0121 -0.1451
 4148TIP3    H112405   4.923   2.594   4.577  0.7062 -0.7180 -1.3035
 4148TIP3    H212406   4.800   2.507   4.557 -0.2101  0.2990 -0.1991
 4149TIP3   OH212407   1.280   0.440   6.136 -0.1756 -0.6219 -0.1430
 4149TIP3    H112408   1.333   0.370   6.096  0.0236 -1.8041  2.0299
 4149TIP3    H212409   1.326   0.521   6.113  1.6270 -1.4887  0.2433
 4150TIP3   OH212410   7.466   4.015   1.157 -0.4346  0.4827 -0.2965
 4150TIP3    H112411   7.518   4.083   1.199 -0.4712  0.5399 -0.3432
 4150TIP3    H212412   7.484   4.025   1.063  0.0539  0.0163 -0.2538
 4151TIP3   OH212413   1.943   6.008   0.969 -0.3812  0.7077 -0.5420
 4151TIP3    H112414   1.894   6.069   1.024 -0.2357  1.8828 -1.6820
 4151TIP3    H212415   1.922   6.034   0.880  0.9283  0.0845 -1.0520
 4152TIP3   OH212416   1.146   3.573   4.921 -0.5450  0.4598  0.4294
 4152TIP3    H112417   1.109   3.658   4.943 -0.4125  0.8932 -0.9288
 4152TIP3    H212418   1.154   3.574   4.825 -0.8510 -1.2010  0.3477
 4153TIP3   OH212419   5.775   3.155   1.781  0.5223 -0.7509 -0.1449
 4153TIP3    H112420   5.759   3.164   1.687  0.8667  2.6046  0.0059
 4153TIP3    H212421   5.868   3.175   1.792 -0.1918  2.4816  1.1454
 4154TIP3   OH212422   4.273   5.971   3.190  0.8696  0.2221 -0.0218
 4154TIP3    H112423   4.183   5.949   3.165  0.5548  2.1711 -0.8120
 4154TIP3    H212424   4.310   6.011   3.111  2.1186  0.3063  0.5875
 4155TIP3   OH212425   0.793   3.471   3.712 -0.1628  0.3720 -0.2199
 4155TIP3    H112426   0.754   3.512   3.789 -0.8993  1.2117 -1.0139
 4155TIP3    H212427   0.883   3.502   3.711  0.2749 -0.7483  1.0506
 4156TIP3   OH212428   4.972   5.755   3.394 -0.1071  0.6381  0.3378
 4156TIP3    H112429   4.881   5.726   3.388 -0.1841  0.8822  0.3482
 4156TIP3    H212430   4.969   5.849   3.378  0.1970  0.5742 -0.1093
 4157TIP3   OH212431   6.425   3.924   5.595 -0.5342 -0.1273  0.1740
 4157TIP3    H112432   6.427   3.987   5.666  4.2340 -0.4136  0.6101
 4157TIP3    H212433   6.438   3.976   5.516  0.2786 -0.2728  0.2042
 4158TIP3   OH212434   6.425   6.670   0.079  0.3302 -0.4067  0.2884
 4158TIP3    H112435   6.352   6.717   0.039 -0.8681 -1.2217  1.4212
 4158TIP3    H212436   6.466   6.734   0.137 -0.0244 -0.1799  0.2874
 4159TIP3   OH212437   0.193   6.990   5.445  0.4875  0.3859 -0.0056
 4159TIP3    H112438   0.179   6.972   5.352  0.1805  0.3579  0.0452
 4159TIP3    H212439   0.186   7.085   5.453 -1.6216  0.2621  0.3211
 4160TIP3   OH212440   3.685   3.998   0.451  0.3392  0.2427  0.1978
 4160TIP3    H112441   3.658   4.083   0.415  0.2823 -0.7188 -2.2185
 4160TIP3    H212442   3.713   3.948   0.375  0.1464 -2.0044  1.5215
 4161TIP3   OH212443   1.623   3.985   2.764 -0.0869  0.3830 -0.4502
 4161TIP3    H112444   1.657   4.053   2.822 -1.2002  0.5312  0.0519
 4161TIP3    H212445   1.700   3.953   2.717  1.1015 -0.6397  2.0028
 4162TIP3   OH212446   7.112   5.234   6.177 -0.5015  0.2376 -0.4552
 4162TIP3    H112447   7.081   5.324   6.165  2.4042  1.0845 -2.8456
 4162TIP3    H212448   7.172   5.219   6.104  0.7660 -2.9316  1.0265
 4163TIP3   OH212449   1.026   2.149   0.797 -0.4446 -0.0371  0.6098
 4163TIP3    H112450   0.932   2.133   0.791 -0.4510  0.4929 -1.6055
 4163TIP3    H212451   1.065   2.087   0.736  0.6877 -0.3880  1.6477
 4164TIP3   OH212452   2.272   2.335   1.565  0.2600 -0.2279  0.4146
 4164TIP3    H112453   2.290   2.357   1.473  0.3983  2.3111  0.9743
 4164TIP3    H212454   2.184   2.367   1.580 -0.1928 -1.6474  0.9084
 4165TIP3   OH212455   4.155   3.943   5.848 -0.1222 -0.7157  0.2684
 4165TIP3    H112456   4.198   3.874   5.797 -0.1043 -0.2746 -0.3205
 4165TIP3    H212457   4.092   3.982   5.788  0.7438  0.6301  0.1808
 4166TIP3   OH212458   0.323   0.783   2.872  0.0921 -0.5269 -0.0160
 4166TIP3    H112459   0.373   0.702   2.885 -1.1122 -1.1108  1.2628
 4166TIP3    H212460   0.301   0.812   2.961  1.7600  2.0701 -0.3157
 4167TIP3   OH212461   1.822   4.026   4.328  0.4063  0.5834 -0.5749
 4167TIP3    H112462   1.771   4.050   4.406 -0.5083 -0.7260 -0.7328
 4167TIP3    H212463   1.878   4.102   4.311 -1.1618  1.9053 -0.1042
 4168TIP3   OH212464   2.681   5.672   5.953  0.1450 -0.5630 -0.1398
 4168TIP3    H112465   2.598   5.666   6.001  0.2775  0.9748  0.3484
 4168TIP3    H212466   2.671   5.750   5.898  0.4939 -1.5570 -1.6741
 4169TIP3   OH212467   7.195   6.398   3.636 -0.0643 -0.7284  0.2897
 4169TIP3    H112468   7.129   6.366   3.574 -1.1407 -0.3973  1.2215
 4169TIP3    H212469   7.254   6.452   3.583 -1.5375  0.3575 -0.3136
 4170TIP3   OH212470   4.678   1.900   1.639 -0.3135  1.1427  0.0114
 4170TIP3    H112471   4.739   1.913   1.712  0.6044 -1.8486 -0.1046
 4170TIP3    H212472   4.610   1.843   1.675 -0.8058  1.0719 -1.0047
 4171TIP3   OH212473   3.445   4.256   0.118 -0.0389  0.4044 -0.2218
 4171TIP3    H112474   3.482   4.260   0.030 -0.6536  1.8405 -0.4413
 4171TIP3    H212475   3.401   4.171   0.123 -0.0692  0.3520 -1.3179
 4172TIP3   OH212476   0.600   2.113   4.489  0.1012 -0.2498  0.4144
 4172TIP3    H112477   0.645   2.094   4.572 -1.4806 -0.5079  1.2423
 4172TIP3    H212478   0.657   2.176   4.445  0.2892  1.0161  2.3571
 4173TIP3   OH212479   2.782   5.915   1.280  0.6452 -0.1533 -0.3078
 4173TIP3    H112480   2.691   5.921   1.250  0.4864  0.8844  0.3300
 4173TIP3    H212481   2.781   5.955   1.367  1.6209 -0.5960 -0.0816
 4174TIP3   OH212482   6.921   6.744   2.972 -0.7177  0.1854  0.3130
 4174TIP3    H112483   6.897   6.668   3.025  0.4731 -0.9551 -0.6957
 4174TIP3    H212484   6.886   6.724   2.885  1.2897 -0.1992 -0.4707
 4175TIP3   OH212485   2.587   4.509   0.101 -0.7248 -0.0280  0.1807
 4175TIP3    H112486   2.493   4.496   0.112 -0.4532 -3.2231 -0.4633
 4175TIP3    H212487   2.601   4.510   0.007 -0.1134  0.8434  0.2622
 4176TIP3   OH212488   1.012   4.846   1.654 -0.0860  0.8668 -0.1196
 4176TIP3    H112489   0.938   4.901   1.682 -1.3419 -0.0790 -1.4470
 4176TIP3    H212490   0.971   4.766   1.621  1.6562 -0.4349  0.7278
 4177TIP3   OH212491   0.275   0.519   2.488  0.5746  0.1707 -0.0118
 4177TIP3    H112492   0.191   0.506   2.445  0.2740 -0.0759  0.6277
 4177TIP3    H212493   0.340   0.496   2.422  0.1481  0.7532 -0.6365
 4178TIP3   OH212494   0.517   3.130   4.910  0.0987 -0.4149 -0.0729
 4178TIP3    H112495   0.576   3.081   4.968  0.1719 -0.2749 -0.0285
 4178TIP3    H212496   0.478   3.063   4.854  0.6831 -0.4563 -0.4428
 4179TIP3   OH212497   0.781   6.244   1.075  0.1091 -0.0989 -0.0366
 4179TIP3    H112498   0.764   6.199   1.158  0.9343 -1.0218 -0.3519
 4179TIP3    H212499   0.846   6.311   1.098  0.4999 -0.4952  0.0339
 4180TIP3   OH212500   3.777   1.666   5.209  0.2288 -0.0017 -0.6685
 4180TIP3    H112501   3.844   1.732   5.192  1.5470 -0.7428  1.2921
 4180TIP3    H212502   3.826   1.587   5.233 -1.2580 -0.2888  1.8769
 4181TIP3   OH212503   1.608   6.058   0.602 -0.6545  0.3087 -0.0621
 4181TIP3    H112504   1.601   5.989   0.668 -0.6070  2.0706  1.8846
 4181TIP3    H212505   1.531   6.113   0.615  0.7535  2.2770  0.4889
 4182TIP3   OH212506   4.278   5.797   3.827  0.0528  0.0601  0.1304
 4182TIP3    H112507   4.266   5.817   3.919  0.8201  1.3020 -0.0139
 4182TIP3    H212508   4.190   5.793   3.791 -0.2186  0.6068  0.7181
 4183TIP3   OH212509   1.082   2.842   1.512 -0.6884  0.1960 -0.3353
 4183TIP3    H112510   1.113   2.809   1.596 -0.0962  0.4040 -0.4691
 4183TIP3    H212511   1.125   2.926   1.502 -2.4531  1.2134  0.1659
 4184TIP3   OH212512   5.078   1.112   2.980  0.1287  0.2015 -0.5298
 4184TIP3    H112513   5.129   1.032   2.979  0.7814  0.6137 -0.6848
 4184TIP3    H212514   5.014   1.101   2.909  0.9640  0.2949 -1.3147
 4185TIP3   OH212515   0.145   0.433   0.333  0.4634  0.2459 -0.9963
 4185TIP3    H112516   0.103   0.488   0.266  1.7414 -0.2874 -2.2929
 4185TIP3    H212517   0.072   0.397   0.383 -0.4593  2.1542 -0.8559
 4186TIP3   OH212518   1.033   0.943   1.975  0.1797  0.0938  0.1887
 4186TIP3    H112519   1.105   0.882   1.965  0.4919  0.6068 -0.8564
 4186TIP3    H212520   1.064   1.008   2.038  0.3696 -0.0589  0.2507
 4187TIP3   OH212521   4.598   4.941   2.689 -0.0822  0.4210  0.5065
 4187TIP3    H112522   4.508   4.918   2.667  0.7253 -2.1315 -0.4903
 4187TIP3    H212523   4.590   5.001   2.763 -2.5888  0.1086  0.5684
 4188TIP3   OH212524   4.713   2.257   4.004 -0.0086  0.2689  0.4520
 4188TIP3    H112525   4.800   2.264   3.965 -0.2451  0.2300 -0.0860
 4188TIP3    H212526   4.694   2.163   4.004 -0.9012  0.4107 -1.3405
 4189TIP3   OH212527   6.278   0.470   1.873 -0.6722  0.2545 -0.1870
 4189TIP3    H112528   6.231   0.389   1.853  0.8759 -1.0598  1.1844
 4189TIP3    H212529   6.309   0.458   1.963  2.0976  1.1187 -0.9452
 4190TIP3   OH212530   1.068   3.990   5.781  0.0942  0.1124  0.4704
 4190TIP3    H112531   1.042   3.925   5.846  1.2144 -0.4078  0.4339
 4190TIP3    H212532   0.993   3.998   5.722 -1.1667  1.0259  2.1368
 4191TIP3   OH212533   4.982   5.095   2.075  0.4523  0.3114 -0.3090
 4191TIP3    H112534   5.047   5.148   2.119  0.9828  0.5217 -1.3259
 4191TIP3    H212535   4.952   5.033   2.142  2.2573 -0.3051 -0.0286
 4192TIP3   OH212536   5.578   0.976   0.340  0.0985 -0.4574 -0.1024
 4192TIP3    H112537   5.504   0.991   0.399 -0.3059 -2.3495 -0.0817
 4192TIP3    H212538   5.650   0.951   0.396  0.1572 -0.7228 -0.2958
 4193TIP3   OH212539   2.208   7.155   4.243  0.1222 -0.8075 -0.3323
 4193TIP3    H112540   2.258   7.182   4.320 -1.7436  0.7728  0.4113
 4193TIP3    H212541   2.268   7.098   4.194  1.6453 -1.1946  1.8433
 4194TIP3   OH212542   1.694   6.940   5.238  0.2158  0.4263  0.8527
 4194TIP3    H112543   1.638   6.885   5.293 -0.6954  0.4054 -0.0645
 4194TIP3    H212544   1.754   6.878   5.196  1.7976  0.5764  2.7734
 4195TIP3   OH212545   2.122   2.085   0.479 -0.1174 -0.1592  0.3539
 4195TIP3    H112546   2.088   2.040   0.402 -1.6252  1.7598 -0.1717
 4195TIP3    H212547   2.170   2.017   0.527  0.4253 -1.5207 -1.9747
 4196TIP3   OH212548   4.215   5.070   0.481  0.1261 -0.0338 -0.4165
 4196TIP3    H112549   4.211   5.001   0.547 -0.0649 -0.9530 -1.3746
 4196TIP3    H212550   4.197   5.026   0.398 -0.4507  1.2407 -0.9993
 4197TIP3   OH212551   0.057   0.793   4.896  0.5055  0.6631  0.2930
 4197TIP3    H112552  -0.031   0.829   4.885 -0.1582 -0.7085  0.9331
 4197TIP3    H212553   0.115   0.860   4.859 -0.8538  1.1467 -1.0783
 4198TIP3   OH212554   0.244   0.514   5.140 -0.3222  0.0817 -0.0989
 4198TIP3    H112555   0.237   0.420   5.123  2.1884  0.0280 -1.3190
 4198TIP3    H212556   0.257   0.521   5.235 -1.7659 -0.6569  0.1775
 4199TIP3   OH212557   4.317   4.950   1.321  0.4353  0.1088 -0.0512
 4199TIP3    H112558   4.318   5.046   1.316  2.1010  0.1185  0.0343
 4199TIP3    H212559   4.289   4.923   1.233 -3.8310  0.6377  0.9424
 4200TIP3   OH212560   6.271   4.995   3.329  0.4777 -0.1133  0.2091
 4200TIP3    H112561   6.339   4.983   3.263 -0.4718 -1.1583 -0.6242
 4200TIP3    H212562   6.196   5.030   3.280  0.0078 -0.1704  0.8690
 4201TIP3   OH212563   1.391   1.307   2.077 -0.1792 -0.6227 -0.0545
 4201TIP3    H112564   1.422   1.225   2.037 -0.7333 -0.7471 -0.2288
 4201TIP3    H212565   1.447   1.374   2.039  0.3527 -0.9288  0.1674
 4202TIP3   OH212566   4.856   5.350   5.221 -0.3390 -0.0583  0.3688
 4202TIP3    H112567   4.848   5.415   5.152 -0.2704 -1.5835 -1.1275
 4202TIP3    H212568   4.792   5.377   5.287  0.0875  1.8172  0.0781
 4203TIP3   OH212569   5.789   3.947   3.193 -0.4161  0.2136 -0.5884
 4203TIP3    H112570   5.775   3.857   3.222  1.2765  0.0558 -0.1201
 4203TIP3    H212571   5.702   3.980   3.171 -0.9831 -1.8310 -1.6598
 4204TIP3   OH212572   2.777   6.493   1.251  0.1399 -0.0966 -0.3245
 4204TIP3    H112573   2.685   6.519   1.248 -0.1008 -0.9702 -1.3129
 4204TIP3    H212574   2.774   6.398   1.267  0.8873 -0.0061  0.3626
 4205TIP3   OH212575   2.829   4.500   5.696 -0.2098 -0.2512  0.1399
 4205TIP3    H112576   2.883   4.558   5.749 -0.4152 -0.1749  0.2679
 4205TIP3    H212577   2.769   4.458   5.758 -1.4519  0.9528 -0.1876
 4206TIP3   OH212578   2.027   4.564   2.830 -0.2950  0.3014 -0.3755
 4206TIP3    H112579   2.081   4.496   2.870  1.7043  1.4766 -0.9502
 4206TIP3    H212580   1.977   4.518   2.762 -0.3015 -0.8792  0.4049
 4207TIP3   OH212581   7.224   4.860   0.068  0.0763 -0.0392 -0.5932
 4207TIP3    H112582   7.224   4.773   0.108  0.1299 -0.3617 -1.2821
 4207TIP3    H212583   7.150   4.858   0.008 -0.3082  0.6119 -0.1524
 4208TIP3   OH212584   6.859   1.515   5.712  0.2078  0.4627 -0.3257
 4208TIP3    H112585   6.881   1.473   5.628 -2.4887  0.0182 -0.9089
 4208TIP3    H212586   6.818   1.598   5.687 -2.3822 -0.5136  0.3692
 4209TIP3   OH212587   6.830   2.468   5.069 -0.0747 -0.5241  0.4323
 4209TIP3    H112588   6.830   2.375   5.047 -2.5503 -0.8994  1.7282
 4209TIP3    H212589   6.748   2.502   5.033  0.2030  0.8860  1.0577
 4210TIP3   OH212590   7.504   5.769   0.187  0.2602 -0.3349  0.2049
 4210TIP3    H112591   7.484   5.709   0.115 -0.4996  0.3518 -0.1801
 4210TIP3    H212592   7.535   5.713   0.258 -0.6200 -1.1990 -0.0789
 4211TIP3   OH212593   0.864   3.652   2.271  0.5622 -0.2976  0.0665
 4211TIP3    H112594   0.956   3.635   2.294  0.8333  1.4589  0.4339
 4211TIP3    H212595   0.856   3.748   2.276 -0.3504 -0.0709 -3.5376
 4212TIP3   OH212596   1.817   0.702   3.684 -0.1556 -0.3851  0.2484
 4212TIP3    H112597   1.810   0.607   3.678 -1.4675 -0.2747 -0.4588
 4212TIP3    H212598   1.736   0.734   3.644  1.1771  1.0963 -1.4062
 4213TIP3   OH212599   2.853   4.006   4.413  0.2315 -0.2886 -0.8080
 4213TIP3    H112600   2.894   4.043   4.491 -3.7904  1.1354  0.8585
 4213TIP3    H212601   2.886   3.916   4.409  3.5133  0.7177  0.1540
 4214TIP3   OH212602   5.327   6.431   3.428 -0.1985 -0.0133 -0.2893
 4214TIP3    H112603   5.243   6.477   3.428  0.5467  1.4182 -0.6451
 4214TIP3    H212604   5.392   6.500   3.415  0.8629 -1.3714 -3.1230
 4215TIP3   OH212605   6.858   1.922   3.372  0.1614 -0.0503 -0.1856
 4215TIP3    H112606   6.806   1.849   3.339 -0.7126 -0.5035  1.9771
 4215TIP3    H212607   6.832   1.930   3.464  1.6660  1.7450  0.1541
 4216TIP3   OH212608   0.281   2.570   2.289 -0.3768  0.3739  0.2972
 4216TIP3    H112609   0.278   2.477   2.269  2.1672  0.7024 -2.3099
 4216TIP3    H212610   0.322   2.575   2.375 -0.1169 -0.9134  0.2627
 4217TIP3   OH212611   5.674   6.052   0.973 -0.3295 -0.2537  0.1415
 4217TIP3    H112612   5.757   6.093   0.950 -0.3480  1.4035  2.6671
 4217TIP3    H212613   5.699   5.975   1.024 -0.3672 -1.8098 -2.0353
 4218TIP3   OH212614   4.783   0.433   1.623 -0.2590 -0.0744  0.3711
 4218TIP3    H112615   4.806   0.489   1.697 -0.6507  0.3958  0.1397
 4218TIP3    H212616   4.691   0.411   1.636  0.1012 -1.3708  0.9100
 4219TIP3   OH212617   1.813   1.949   3.903 -0.3135 -0.1740  0.0939
 4219TIP3    H112618   1.903   1.948   3.873 -0.1093  0.6602  0.6608
 4219TIP3    H212619   1.761   1.928   3.825  0.2884  0.5757 -0.5161
 4220TIP3   OH212620   1.606   5.160   2.337 -0.2154  0.0279 -0.1397
 4220TIP3    H112621   1.599   5.156   2.433  0.2553 -0.6748 -0.1317
 4220TIP3    H212622   1.602   5.069   2.308 -2.2444  0.3280 -0.9536
 4221TIP3   OH212623   2.534   5.007   5.734 -0.0481  0.1879 -0.1980
 4221TIP3    H112624   2.611   4.988   5.680  1.5902 -0.2467  2.1653
 4221TIP3    H212625   2.553   5.090   5.776 -0.3948 -0.4159  1.2043
 4222TIP3   OH212626   7.545   5.297   0.226 -0.0561 -0.3104  0.7075
 4222TIP3    H112627   7.626   5.245   0.223  0.6533  0.7429  1.1674
 4222TIP3    H212628   7.538   5.335   0.138  0.3867  0.2451  0.9105
 4223TIP3   OH212629   0.384   6.543   3.312  0.1897  0.2251  0.4177
 4223TIP3    H112630   0.479   6.537   3.300  0.0806 -0.9199  0.0531
 4223TIP3    H212631   0.366   6.486   3.386 -0.3515 -0.4634 -0.2384
 4224TIP3   OH212632   4.649   0.990   4.746  0.2600  0.1600  0.3144
 4224TIP3    H112633   4.604   0.997   4.830 -1.1519  0.1683 -0.4059
 4224TIP3    H212634   4.729   1.041   4.757 -0.2936  0.8349  1.3921
 4225TIP3   OH212635   2.576   3.424   4.625  0.3356 -0.3967 -0.2498
 4225TIP3    H112636   2.637   3.496   4.606 -0.2550  0.3709  0.6549
 4225TIP3    H212637   2.625   3.367   4.685 -0.1704  0.8267  1.4279
 4226TIP3   OH212638   7.207   1.438   0.330 -0.0749 -0.1955  0.4988
 4226TIP3    H112639   7.202   1.359   0.384 -0.8415 -0.8420 -0.4834
 4226TIP3    H212640   7.195   1.407   0.240  3.7774  0.4628 -0.4401
 4227TIP3   OH212641   4.748   3.566   5.274 -0.2347 -0.3840  0.3141
 4227TIP3    H112642   4.814   3.634   5.287 -0.3137 -0.0277 -1.0026
 4227TIP3    H212643   4.732   3.531   5.361  0.1707  0.9480  0.9474
 4228TIP3   OH212644   5.853   5.315   3.623  0.0512 -0.5067  0.3052
 4228TIP3    H112645   5.846   5.404   3.588  2.0641 -0.1853  0.6014
 4228TIP3    H212646   5.819   5.322   3.712  1.9454  0.4626  1.0083
 4229TIP3   OH212647   0.373   4.183   1.118  0.0799 -0.5691  0.0028
 4229TIP3    H112648   0.369   4.095   1.155  0.8848 -0.6874 -0.1874
 4229TIP3    H212649   0.380   4.170   1.024  0.4424 -0.3107 -0.0095
 4230TIP3   OH212650   6.237   4.938   1.594  0.0958  0.6379 -0.2471
 4230TIP3    H112651   6.178   4.964   1.664 -0.4646  0.0974 -0.5053
 4230TIP3    H212652   6.180   4.901   1.527  0.7951 -0.7045 -0.1400
 4231TIP3   OH212653   4.026   4.208   3.837 -0.4702 -0.3803  0.1255
 4231TIP3    H112654   4.107   4.173   3.800 -0.7437 -2.0415  0.9875
 4231TIP3    H212655   4.054   4.278   3.896  0.1112  0.8676 -1.5693
 4232TIP3   OH212656   1.009   6.644   1.481  0.0884  0.2210  0.3352
 4232TIP3    H112657   1.070   6.590   1.531  1.2982  1.7665  0.5861
 4232TIP3    H212658   0.999   6.598   1.397  0.5566 -0.7101  0.7737
 4233TIP3   OH212659   4.144   1.057   5.240  0.6486  0.6761 -0.6077
 4233TIP3    H112660   4.209   1.127   5.237 -0.2357  1.6393  1.0106
 4233TIP3    H212661   4.070   1.091   5.191  0.6302  0.4232 -0.7521
 4234TIP3   OH212662   3.101   4.512   2.103 -0.0258  0.3157  0.5451
 4234TIP3    H112663   3.137   4.544   2.186  0.4099  2.9029 -0.5360
 4234TIP3    H212664   3.178   4.484   2.053 -0.3097 -1.4807  1.0521
 4235TIP3   OH212665   2.921   0.987   0.441 -0.5673  0.0045  0.1391
 4235TIP3    H112666   2.861   0.943   0.381  1.0725 -0.0674 -1.5472
 4235TIP3    H212667   2.875   1.068   0.465 -2.4161 -1.2478  1.0335
 4236TIP3   OH212668   5.654   6.453   3.897  0.0033 -0.4003 -0.1316
 4236TIP3    H112669   5.606   6.400   3.961  0.4255  1.0672  1.4670
 4236TIP3    H212670   5.738   6.409   3.886  0.2376 -0.2377  0.9617
 4237TIP3   OH212671   0.289   2.867   3.211 -0.1591 -0.1711  0.2900
 4237TIP3    H112672   0.364   2.862   3.151 -1.1186 -1.2504 -0.8878
 4237TIP3    H212673   0.256   2.956   3.199 -0.3807 -0.3877 -0.8895
 4238TIP3   OH212674   2.393   0.150   0.999 -0.0936  0.5778 -1.1275
 4238TIP3    H112675   2.357   0.072   1.043 -1.1475  1.0779 -1.0666
 4238TIP3    H212676   2.428   0.117   0.917  1.8927 -0.3801  0.0167
 4239TIP3   OH212677   2.780   4.521   0.674 -0.0368 -0.4680  0.0627
 4239TIP3    H112678   2.734   4.462   0.734  0.1834 -1.8649 -1.0772
 4239TIP3    H212679   2.867   4.483   0.665 -0.0740 -0.3029 -1.1375
 4240TIP3   OH212680   2.469   4.914   4.293 -0.3102 -0.3060  0.3212
 4240TIP3    H112681   2.492   4.824   4.314 -0.3059 -0.2486  0.5674
 4240TIP3    H212682   2.377   4.922   4.319  0.1159  0.2124  1.8218
 4241TIP3   OH212683   0.926   4.099   4.626  0.4464  0.2775 -0.2462
 4241TIP3    H112684   0.839   4.137   4.637 -0.8774 -2.7323  0.6681
 4241TIP3    H212685   0.964   4.148   4.554 -1.5002  2.4870  0.0949
 4242TIP3   OH212686   0.908   1.335   4.986 -0.6170 -0.4030  0.5065
 4242TIP3    H112687   0.934   1.245   5.005  0.6244 -0.2831 -0.5142
 4242TIP3    H212688   0.935   1.385   5.063 -3.1559 -1.1636  2.0072
 4243TIP3   OH212689   7.489   4.996   6.103 -0.7691  0.3838  0.0902
 4243TIP3    H112690   7.536   5.078   6.119  0.1820  0.2271 -1.6299
 4243TIP3    H212691   7.400   5.024   6.079 -0.6255  0.8867  0.1215
 4244TIP3   OH212692   1.114   2.728   2.067 -0.1999 -0.3483 -0.5364
 4244TIP3    H112693   1.042   2.765   2.118 -1.6121 -0.7914 -2.1176
 4244TIP3    H212694   1.184   2.715   2.130 -0.9217  1.6206  0.7496
 4245TIP3   OH212695   2.224   3.501   3.553 -0.6274 -0.1005 -0.3717
 4245TIP3    H112696   2.264   3.453   3.480 -0.4240  0.1851 -0.4459
 4245TIP3    H212697   2.172   3.569   3.511 -2.1896 -1.2200 -0.3346
 4246TIP3   OH212698   2.475   3.440   5.563  0.1810 -0.0205  0.3107
 4246TIP3    H112699   2.412   3.391   5.617  0.4482  1.0930  1.6802
 4246TIP3    H212700   2.424   3.470   5.488 -0.6691 -0.0374  0.8688
 4247TIP3   OH212701   2.142   2.842   3.702 -0.1556  0.0813  0.2674
 4247TIP3    H112702   2.094   2.875   3.778  0.8861 -0.2074  1.0745
 4247TIP3    H212703   2.107   2.755   3.687  0.7454 -0.5127  1.4578
 4248TIP3   OH212704   1.577   0.232   2.430 -0.4965 -0.0254 -0.0638
 4248TIP3    H112705   1.624   0.167   2.482 -1.8739 -0.8807  0.1831
 4248TIP3    H212706   1.629   0.312   2.437 -0.0030 -0.4662  1.6104
 4249TIP3   OH212707   6.565   5.282   0.925  0.0526 -0.6422 -0.5548
 4249TIP3    H112708   6.521   5.293   0.840  1.5874 -1.8805 -1.5682
 4249TIP3    H212709   6.652   5.252   0.902  0.4922 -1.0353  1.5074
 4250TIP3   OH212710   0.863   1.572   0.285  0.1879 -0.7125 -0.2430
 4250TIP3    H112711   0.897   1.511   0.350  0.5438 -1.1955 -0.8652
 4250TIP3    H212712   0.785   1.529   0.250  0.6440 -0.9899 -0.9407
 4251TIP3   OH212713   3.057   4.595   4.787 -0.3831 -0.1364  0.3413
 4251TIP3    H112714   3.137   4.543   4.792 -0.4697 -0.6062 -2.1909
 4251TIP3    H212715   3.081   4.679   4.825  0.7298 -0.8962  1.3952
 4252TIP3   OH212716   5.964   4.762   4.372 -0.0607  0.3166 -0.0566
 4252TIP3    H112717   5.878   4.720   4.364 -1.2137  2.7440 -2.2551
 4252TIP3    H212718   5.946   4.843   4.419  1.3493  0.1660  0.7700
 4253TIP3   OH212719   3.016   6.808   5.860 -0.3373 -0.1320  0.0858
 4253TIP3    H112720   2.988   6.719   5.838 -0.9200 -0.3789  1.6388
 4253TIP3    H212721   3.097   6.822   5.811 -0.0741 -1.6401  0.0610
 4254TIP3   OH212722   1.744   2.385   2.823  0.6058 -0.2660  0.0310
 4254TIP3    H112723   1.706   2.410   2.738 -1.4421 -1.2948  0.5745
 4254TIP3    H212724   1.771   2.294   2.811  0.0495 -0.5026  0.5600
 4255TIP3   OH212725   2.705   1.158   1.242  0.1801  0.3736 -0.0300
 4255TIP3    H112726   2.667   1.070   1.252 -2.6256  1.4811 -0.1243
 4255TIP3    H212727   2.719   1.188   1.331 -0.9777  0.6596  0.0655
 4256TIP3   OH212728   1.167   6.852   4.487  0.3394  0.0633  0.1004
 4256TIP3    H112729   1.167   6.936   4.441 -0.6627 -0.0073 -0.0356
 4256TIP3    H212730   1.075   6.834   4.507  0.5367 -0.9865  0.1585
 4257TIP3   OH212731   1.550   3.035   2.013 -0.4357 -0.2741 -0.4584
 4257TIP3    H112732   1.580   3.000   2.097 -0.1344  0.3059 -0.3218
 4257TIP3    H212733   1.487   2.970   1.982  0.6285 -1.3059 -0.5466
 4258TIP3   OH212734   7.143   4.130   2.370 -0.2761 -0.5417  0.1072
 4258TIP3    H112735   7.202   4.108   2.442  1.2691  1.3794 -0.4826
 4258TIP3    H212736   7.130   4.046   2.324 -1.3584 -1.8190  2.5795
 4259TIP3   OH212737   2.122   2.644   5.077 -0.0895 -0.0155  0.3489
 4259TIP3    H112738   2.126   2.739   5.061 -0.5379 -0.0131  0.2263
 4259TIP3    H212739   2.121   2.606   4.989  1.1151 -0.1865  0.4053
 4260TIP3   OH212740   7.122   4.442   4.368  0.0666  0.4690  0.0784
 4260TIP3    H112741   7.198   4.499   4.357  1.5293 -1.1769  0.9619
 4260TIP3    H212742   7.046   4.500   4.363  1.4412  2.3888  0.5983
 4261TIP3   OH212743   2.089   2.585   5.360  0.7368  0.1116 -0.8033
 4261TIP3    H112744   2.005   2.622   5.385  0.2643 -2.0994  1.2624
 4261TIP3    H212745   2.080   2.564   5.267 -0.3747  1.4170 -1.0064
 4262TIP3   OH212746   0.118   6.382   3.830  0.5668  0.3294  0.2514
 4262TIP3    H112747   0.187   6.366   3.895  0.9702  2.6584  0.4575
 4262TIP3    H212748   0.041   6.337   3.865  1.4020 -0.5151  1.0783
 4263TIP3   OH212749   1.523   3.608   5.106  0.0033 -0.1846  0.1096
 4263TIP3    H112750   1.516   3.543   5.036  0.0354  1.0378 -1.0765
 4263TIP3    H212751   1.435   3.613   5.143  0.2467 -1.6882  0.9926
 4264TIP3   OH212752   5.978   5.758   4.170  0.1890  0.7257 -0.3363
 4264TIP3    H112753   6.004   5.724   4.256 -1.7496  1.5409  0.6455
 4264TIP3    H212754   5.909   5.699   4.141  1.2769  0.0770 -1.6789
 4265TIP3   OH212755   0.446   0.845   1.642 -0.2823  0.9242 -0.6304
 4265TIP3    H112756   0.538   0.852   1.667 -0.3510  1.3556 -0.4894
 4265TIP3    H212757   0.445   0.857   1.547 -0.0963 -0.0190 -0.7636
 4266TIP3   OH212758   3.121   0.041   0.278  0.4994  0.0978  0.2782
 4266TIP3    H112759   3.204   0.088   0.265  0.6130 -0.0982  0.2898
 4266TIP3    H212760   3.072   0.056   0.197 -0.0775  1.4544  0.8349
 4267TIP3   OH212761   3.042   1.260   3.450 -0.0469  0.4928  0.2174
 4267TIP3    H112762   3.033   1.252   3.545  0.5719  0.0191  0.2380
 4267TIP3    H212763   2.951   1.258   3.418 -0.2465 -2.8791  0.5478
 4268TIP3   OH212764   2.511   0.066   4.385  0.1661  0.0297 -0.0786
 4268TIP3    H112765   2.578   0.100   4.445  0.3471 -0.2458 -0.1198
 4268TIP3    H212766   2.561   0.015   4.321 -0.1528 -0.8797  0.3717
 4269TIP3   OH212767   5.781   3.204   1.506 -0.1255 -0.4149  0.0879
 4269TIP3    H112768   5.704   3.240   1.461 -0.8260 -1.2080  0.6257
 4269TIP3    H212769   5.852   3.215   1.443 -0.9931 -1.0831 -1.0688
 4270TIP3   OH212770   4.833   7.120   2.691 -0.3022  0.1563 -0.1885
 4270TIP3    H112771   4.819   7.120   2.785 -1.6145 -0.4872 -0.3681
 4270TIP3    H212772   4.866   7.208   2.672  0.1423  0.2357  0.8832
 4271TIP3   OH212773   1.672   2.505   3.043  0.0496  0.4581  0.1802
 4271TIP3    H112774   1.622   2.440   3.093 -0.1604  0.5616  0.1055
 4271TIP3    H212775   1.694   2.461   2.962 -0.4626  0.6205 -0.0528
 4272TIP3   OH212776   3.120   5.387   2.729  0.0476  0.1270  0.0572
 4272TIP3    H112777   3.182   5.451   2.763 -0.4821  1.2939 -1.0623
 4272TIP3    H212778   3.034   5.419   2.757 -0.1030 -1.9409  2.3557
 4273TIP3   OH212779   3.969   1.020   4.476 -0.6320  0.6789 -0.0459
 4273TIP3    H112780   3.970   1.100   4.422  0.3944  0.1486 -0.8508
 4273TIP3    H212781   3.916   1.043   4.551  0.1091  2.3305  0.0285
 4274TIP3   OH212782   5.235   0.064   3.490 -0.1877 -0.3794  0.3368
 4274TIP3    H112783   5.173   0.049   3.561 -1.6087 -0.5805 -0.8792
 4274TIP3    H212784   5.287  -0.017   3.487 -2.9199 -2.2711 -1.4539
 4275TIP3   OH212785   4.165   6.048   1.792  0.0119  0.2768 -0.0903
 4275TIP3    H112786   4.251   6.088   1.777 -0.0309  0.0663 -0.9390
 4275TIP3    H212787   4.141   6.075   1.881  1.3426 -0.3852  0.4897
 4276TIP3   OH212788   2.738   2.333   3.726 -0.3494 -0.4399  0.5288
 4276TIP3    H112789   2.647   2.305   3.715 -0.6111  0.8218 -0.8631
 4276TIP3    H212790   2.771   2.343   3.636  1.1062 -0.6771  1.0096
 4277TIP3   OH212791   1.037   2.462   5.557 -0.4302  0.3213 -0.8676
 4277TIP3    H112792   0.966   2.451   5.494 -1.9706  2.9774  0.2763
 4277TIP3    H212793   1.097   2.524   5.515  0.7226 -1.0833 -1.3752
 4278TIP3   OH212794   2.120   2.538   2.862  0.0004  0.2147  0.1671
 4278TIP3    H112795   2.119   2.585   2.779 -0.7175 -1.5770 -0.9127
 4278TIP3    H212796   2.162   2.455   2.842 -0.4248 -0.3639  1.5352
 4279TIP3   OH212797   7.262   4.660   1.914  0.1273 -0.4014 -0.2028
 4279TIP3    H112798   7.351   4.637   1.885  0.8724  1.4464  0.4615
 4279TIP3    H212799   7.271   4.748   1.949 -1.1210 -1.6336  3.6857
 4280TIP3   OH212800   7.420   3.223   5.316  0.2685  0.0535 -0.6680
 4280TIP3    H112801   7.482   3.296   5.310  0.4278 -0.1560 -1.8538
 4280TIP3    H212802   7.461   3.152   5.266 -0.2265 -0.5986 -0.1647
 4281TIP3   OH212803   1.427   4.213   3.965 -0.1618  0.0837 -0.2258
 4281TIP3    H112804   1.439   4.222   3.870  1.5524  1.2144  0.0541
 4281TIP3    H212805   1.453   4.122   3.983  0.5510  0.1775 -0.7163
 4282TIP3   OH212806   5.811   1.463   4.686 -0.1250 -0.2312  0.4977
 4282TIP3    H112807   5.881   1.410   4.648 -0.8829 -1.6639  0.9980
 4282TIP3    H212808   5.846   1.492   4.771  0.2012 -0.1590  0.3394
 4283TIP3   OH212809   4.229   5.486   2.473  0.5721 -0.0261  0.0790
 4283TIP3    H112810   4.290   5.428   2.427  0.4444  1.4566 -2.1207
 4283TIP3    H212811   4.148   5.481   2.423 -0.7861 -1.0246  2.2563
 4284TIP3   OH212812   4.119   4.939   4.802  0.2462  0.2686 -0.1299
 4284TIP3    H112813   4.047   4.940   4.865  1.5633 -4.0161  1.8162
 4284TIP3    H212814   4.078   4.912   4.719 -0.8900  1.7018 -0.0579
 4285TIP3   OH212815   6.873   1.774   3.039  0.0997 -0.2523  0.0655
 4285TIP3    H112816   6.821   1.770   3.119 -1.4292  0.1033 -0.8687
 4285TIP3    H212817   6.841   1.851   2.993  0.5813 -0.7447 -1.1434
 4286TIP3   OH212818   3.765   4.213   1.946  0.0030 -0.4658  0.3742
 4286TIP3    H112819   3.733   4.192   2.033  0.1166 -0.0353  0.5253
 4286TIP3    H212820   3.716   4.156   1.887 -2.0660  1.0786  0.4581
 4287TIP3   OH212821   6.688   4.638   0.749 -0.1866  0.1493  0.4563
 4287TIP3    H112822   6.770   4.629   0.798 -0.5992 -0.0531  1.1270
 4287TIP3    H212823   6.620   4.615   0.812 -0.7178 -0.3861 -0.2990
 4288TIP3   OH212824   5.777   6.322   2.369  0.4785 -0.0217  0.5780
 4288TIP3    H112825   5.796   6.339   2.277 -0.6555 -1.3828  0.0428
 4288TIP3    H212826   5.825   6.389   2.417 -1.1053  2.5215 -1.1370
 4289TIP3   OH212827   3.909   2.192   0.744  0.2331  0.6552  0.2786
 4289TIP3    H112828   3.879   2.283   0.750  1.1179  1.0990 -1.4587
 4289TIP3    H212829   3.988   2.196   0.691 -0.5107 -1.2836 -1.0764
 4290TIP3   OH212830   6.622   2.860   3.252  0.1342  0.6151 -0.4213
 4290TIP3    H112831   6.679   2.936   3.239  0.0032  0.8487  0.2961
 4290TIP3    H212832   6.681   2.785   3.244  0.1893  0.7687 -1.5238
 4291TIP3   OH212833   3.206   2.494   3.425 -0.0600  0.4539 -0.5577
 4291TIP3    H112834   3.182   2.569   3.370 -1.4542 -0.2977 -1.0371
 4291TIP3    H212835   3.138   2.491   3.492  0.6063  0.2584  0.1245
 4292TIP3   OH212836   1.311   5.744   3.287 -0.0200 -0.6228  0.6055
 4292TIP3    H112837   1.380   5.713   3.228 -2.2366 -0.1017 -2.4846
 4292TIP3    H212838   1.238   5.685   3.273 -1.3154  0.7322  1.3338
 4293TIP3   OH212839   5.135   1.466   5.520 -0.7352 -0.1524 -0.1135
 4293TIP3    H112840   5.094   1.544   5.482  0.4615 -0.5331 -2.3182
 4293TIP3    H212841   5.182   1.426   5.447  2.9087 -0.1941  2.0427
 4294TIP3   OH212842   0.987   2.992   1.308 -0.0110 -0.7488 -0.0814
 4294TIP3    H112843   0.964   2.903   1.333 -0.0968 -1.3277 -2.0663
 4294TIP3    H212844   1.049   2.982   1.236 -0.9618  0.7945 -1.1768
 4295TIP3   OH212845   4.641   5.032   0.324 -0.0642  0.4637  0.1672
 4295TIP3    H112846   4.598   5.061   0.243 -1.6970 -0.5950  0.6008
 4295TIP3    H212847   4.696   4.958   0.296  0.5669  1.0604 -0.1995
 4296TIP3   OH212848   5.680   3.010   5.599  0.0921  0.4272  0.2387
 4296TIP3    H112849   5.741   3.084   5.600 -1.3103  1.6953  3.1671
 4296TIP3    H212850   5.668   2.988   5.692 -2.0863 -1.3156 -0.3797
 4297TIP3   OH212851   7.105   1.014   3.116  0.0186  0.7427 -0.1088
 4297TIP3    H112852   7.060   1.086   3.071 -0.3454  1.3522  1.1778
 4297TIP3    H212853   7.136   1.053   3.198 -1.2852 -0.8779  1.2096
 4298TIP3   OH212854   0.648   6.884   1.068 -0.2669  0.4850  0.5284
 4298TIP3    H112855   0.640   6.888   0.973 -3.1651  0.2583  0.6805
 4298TIP3    H212856   0.707   6.956   1.090 -0.6267  1.4084 -1.3403
 4299TIP3   OH212857   2.446   1.365   2.022  0.0787  0.3889 -0.1483
 4299TIP3    H112858   2.376   1.344   1.960  1.4259 -2.4902 -0.8897
 4299TIP3    H212859   2.431   1.307   2.096  0.4425  1.3228  0.6748
 4300TIP3   OH212860   3.229   0.322   4.971  0.0606 -0.1838  0.2516
 4300TIP3    H112861   3.270   0.375   4.902  0.4786 -0.1315  0.5383
 4300TIP3    H212862   3.173   0.260   4.923 -2.1066  1.8507 -0.0294
 4301TIP3   OH212863   3.581   7.083   5.017  0.3878  0.5535 -0.1341
 4301TIP3    H112864   3.629   7.049   4.941  1.0946 -0.4156  0.7086
 4301TIP3    H212865   3.593   7.016   5.084 -0.7961  1.0682  0.6263
 4302TIP3   OH212866   1.006   0.110   5.783  0.6314 -0.1243 -0.5947
 4302TIP3    H112867   1.100   0.116   5.800  0.5285 -0.6701  0.2655
 4302TIP3    H212868   0.993   0.152   5.698  1.5176  0.8037 -0.2932
 4303TIP3   OH212869   3.359   1.019   0.959  0.7014 -0.2154 -0.3403
 4303TIP3    H112870   3.397   1.031   0.872  2.5938  1.1495  0.6007
 4303TIP3    H212871   3.419   1.066   1.018  0.0850 -2.0103  1.8470
 4304TIP3   OH212872   0.357   6.084   0.494 -0.4644 -0.0328  0.0761
 4304TIP3    H112873   0.441   6.097   0.539 -0.0529  0.2312 -0.7544
 4304TIP3    H212874   0.301   6.153   0.530 -0.1811  0.0955  0.2841
 4305TIP3   OH212875   0.311   5.190   1.773  0.8213 -0.0009  0.1397
 4305TIP3    H112876   0.406   5.199   1.768  0.6783  2.7855  0.9161
 4305TIP3    H212877   0.295   5.156   1.861  1.0839 -0.3717  0.0460
 4306TIP3   OH212878   2.420   1.230   3.221  0.3731 -0.0346  0.4330
 4306TIP3    H112879   2.328   1.211   3.240  0.2832 -1.1968 -1.0048
 4306TIP3    H212880   2.467   1.200   3.299 -0.2322 -2.1081  0.0733
 4307TIP3   OH212881   3.076   1.089   3.689 -0.2049 -0.8681  0.2691
 4307TIP3    H112882   3.021   1.052   3.620 -0.8985  1.3668 -0.4536
 4307TIP3    H212883   3.155   1.033   3.688 -1.0070 -2.0579 -0.9929
 4308TIP3   OH212884   1.219   5.947   3.484 -0.0452  0.4736 -0.2325
 4308TIP3    H112885   1.238   5.921   3.394  0.3640  3.2310 -1.0379
 4308TIP3    H212886   1.290   5.910   3.536  0.3903 -0.1243 -1.2227
 4309TIP3   OH212887   0.245   4.630   1.809  0.1037  0.1621  0.6733
 4309TIP3    H112888   0.151   4.643   1.818  0.1742  0.1492  1.4583
 4309TIP3    H212889   0.275   4.709   1.763 -0.2032  0.4559  0.9648
 4310TIP3   OH212890   4.625   1.676   3.310  0.3809  0.0445 -0.0423
 4310TIP3    H112891   4.595   1.622   3.237 -1.0683  0.2643  0.3666
 4310TIP3    H212892   4.714   1.702   3.286 -0.4448  1.0545 -2.2611
 4311TIP3   OH212893   3.907   1.593   2.167 -0.1509 -0.3034 -0.2264
 4311TIP3    H112894   3.849   1.654   2.123  0.5729 -0.1170 -0.9570
 4311TIP3    H212895   3.863   1.572   2.249 -0.7907  0.5596 -0.3384
 4312TIP3   OH212896   7.197   4.779   1.498 -0.0305  0.4565 -0.2941
 4312TIP3    H112897   7.181   4.845   1.565 -0.3932  0.4541 -0.3770
 4312TIP3    H212898   7.113   4.770   1.452 -1.0932 -2.5783  1.9297
 4313TIP3   OH212899   3.089   5.154   3.767  0.5988  0.1832  0.2900
 4313TIP3    H112900   3.173   5.108   3.770  0.3709 -0.2338  0.3293
 4313TIP3    H212901   3.024   5.085   3.770  0.2555  0.4239 -0.8977
 4314TIP3   OH212902   7.557   5.896   5.404 -0.3658  0.2091 -0.3150
 4314TIP3    H112903   7.468   5.883   5.437 -0.2064 -0.5163 -0.1658
 4314TIP3    H212904   7.593   5.965   5.460 -0.7379  0.3169 -0.2027
 4315TIP3   OH212905   0.658   3.486   2.077  0.2793  0.6296  0.3275
 4315TIP3    H112906   0.665   3.416   2.142  2.3586 -0.2297 -0.6981
 4315TIP3    H212907   0.710   3.558   2.114 -1.7503  1.6543  1.3224
 4316TIP3   OH212908   6.509   1.901   3.599  0.1911  0.2754 -0.6560
 4316TIP3    H112909   6.504   1.920   3.692  1.2020 -1.4900 -0.1835
 4316TIP3    H212910   6.582   1.840   3.591 -2.6283 -3.3487 -1.8727
 4317TIP3   OH212911   3.537   3.092   4.832 -0.1246 -0.7097  0.0177
 4317TIP3    H112912   3.531   3.084   4.927 -0.1755  1.2177  0.2173
 4317TIP3    H212913   3.508   3.007   4.799 -0.7662 -1.1827  1.6911
 4318TIP3   OH212914   5.795   3.044   4.066  0.0016  0.1819 -0.3783
 4318TIP3    H112915   5.771   3.136   4.053  0.6906  0.5584  0.8162
 4318TIP3    H212916   5.711   2.999   4.077 -0.3753  0.5418 -1.5932
 4319TIP3   OH212917   1.260   0.687   2.790  0.1445  0.5852  0.3298
 4319TIP3    H112918   1.211   0.604   2.797 -0.0230  0.6359 -0.1688
 4319TIP3    H212919   1.306   0.695   2.873  1.2532 -0.7053 -0.1158
 4320TIP3   OH212920   2.856   3.645   0.886 -0.4265 -0.3835  0.4322
 4320TIP3    H112921   2.865   3.682   0.798 -0.4772 -1.3630  0.0084
 4320TIP3    H212922   2.797   3.705   0.932  0.5426  0.7984  0.1928
 4321TIP3   OH212923   3.414   3.305   6.139  0.4530 -0.8676  0.5893
 4321TIP3    H112924   3.332   3.264   6.169 -0.3564 -0.1644 -0.5612
 4321TIP3    H212925   3.393   3.398   6.133  0.3112 -0.9733 -2.6150
 4322TIP3   OH212926   1.904   0.906   2.436  0.5047 -0.3297 -0.0542
 4322TIP3    H112927   1.904   0.996   2.404  0.4147 -0.3460 -0.0999
 4322TIP3    H212928   1.919   0.914   2.531 -1.6635 -0.1259  0.3256
 4323TIP3   OH212929   4.436   5.142   5.809  0.1664  0.1066  0.4433
 4323TIP3    H112930   4.392   5.071   5.762 -0.7941  1.7376 -1.2200
 4323TIP3    H212931   4.529   5.126   5.794 -0.0493 -0.5823 -0.2435
 4324TIP3   OH212932   7.336   4.362   5.714 -1.0254  0.2159 -0.6780
 4324TIP3    H112933   7.336   4.266   5.720 -1.5987  0.0903 -2.0517
 4324TIP3    H212934   7.267   4.390   5.774 -0.5244 -0.1837  0.1017
 4325TIP3   OH212935   1.251   0.527   5.525 -0.2337 -0.1573  0.0995
 4325TIP3    H112936   1.198   0.545   5.448  1.3820  2.7734 -0.4610
 4325TIP3    H212937   1.227   0.595   5.587  0.8212 -0.5237  0.9409
 4326TIP3   OH212938   4.823   1.151   0.371  0.8257  0.4911  0.4116
 4326TIP3    H112939   4.902   1.132   0.320 -0.0410  1.3449 -1.3230
 4326TIP3    H212940   4.857   1.188   0.452  2.2285  0.5507 -0.1618
 4327TIP3   OH212941   6.827   4.591   3.794  0.3037  0.2835  0.2986
 4327TIP3    H112942   6.753   4.649   3.810 -0.2342 -0.0614 -0.8487
 4327TIP3    H212943   6.791   4.503   3.799  0.7033  0.1034  0.0891
 4328TIP3   OH212944   6.269   1.757   6.139  0.3079  0.1618  0.1177
 4328TIP3    H112945   6.355   1.715   6.129  1.0331  1.4040  0.9570
 4328TIP3    H212946   6.243   1.736   6.228  0.0298  0.3132  0.0712
 4329TIP3   OH212947   6.882   3.805   1.096 -0.2292  0.3617 -0.2301
 4329TIP3    H112948   6.871   3.711   1.079  0.7905  0.4539 -1.6230
 4329TIP3    H212949   6.816   3.847   1.039  1.1968  0.5638 -1.8077
 4330TIP3   OH212950   2.677   5.307   5.551 -0.4206  0.1291 -0.1732
 4330TIP3    H112951   2.666   5.325   5.645 -1.3548 -2.6814  0.3797
 4330TIP3    H212952   2.594   5.335   5.512 -1.4818 -1.7983  0.5086
 4331TIP3   OH212953   1.639   3.280   1.606  0.2831  0.5378 -0.5309
 4331TIP3    H112954   1.547   3.255   1.605  0.3312  0.1853  1.1964
 4331TIP3    H212955   1.650   3.327   1.688  1.3386  1.8684 -1.3929
 4332TIP3   OH212956   1.006   6.510   3.838  0.6374  0.3214  0.1913
 4332TIP3    H112957   0.935   6.546   3.890 -0.2640 -1.7210  0.4950
 4332TIP3    H212958   1.067   6.473   3.902  0.9329  0.2685 -0.1163
 4333TIP3   OH212959   6.180   6.906   5.148  0.5147  0.1709 -0.2463
 4333TIP3    H112960   6.114   6.893   5.216  0.7703  1.8931  0.3881
 4333TIP3    H212961   6.234   6.827   5.150 -1.8746 -1.5953 -1.2384
 4334TIP3   OH212962   1.338   5.254   4.869  0.1470  0.1137  0.0304
 4334TIP3    H112963   1.256   5.218   4.835  0.0147  1.0285 -0.6562
 4334TIP3    H212964   1.313   5.336   4.911  0.4673 -0.4831  1.4704
 4335TIP3   OH212965   6.613   3.404   2.335 -0.2424  0.4160  0.2822
 4335TIP3    H112966   6.633   3.329   2.279  1.3978  1.6203 -0.8759
 4335TIP3    H212967   6.620   3.370   2.424  3.4170 -0.2739 -0.1082
 4336TIP3   OH212968   1.387   2.536   0.891 -0.1282  0.2670  0.7829
 4336TIP3    H112969   1.309   2.488   0.864 -0.3558  0.5742  0.8914
 4336TIP3    H212970   1.444   2.534   0.814 -0.8926  1.3929  0.1594
 4337TIP3   OH212971   2.123   2.422   5.954  0.0003  0.2495  0.0581
 4337TIP3    H112972   2.148   2.450   5.865 -0.8697  0.2734 -0.1886
 4337TIP3    H212973   2.029   2.440   5.959 -0.5158 -2.2270  0.0625
 4338TIP3   OH212974   0.091   5.955   2.975 -0.2920 -0.2427 -0.0761
 4338TIP3    H112975   0.172   5.937   3.022 -0.2286 -1.2944 -0.5563
 4338TIP3    H212976   0.077   6.049   2.985  0.1818 -0.3032  1.2992
 4339TIP3   OH212977   4.686   2.014   2.739 -0.3149 -0.5240 -0.3548
 4339TIP3    H112978   4.650   2.102   2.747  0.0845 -0.3530 -0.3777
 4339TIP3    H212979   4.684   1.978   2.828  0.0047 -0.2942 -0.2529
 4340TIP3   OH212980   5.526   1.799   3.931 -0.3201 -0.5709 -0.1253
 4340TIP3    H112981   5.586   1.759   3.994 -0.9411  2.2040  2.4659
 4340TIP3    H212982   5.564   1.885   3.913 -1.9650  0.0560 -0.7722
 4341TIP3   OH212983   4.044   4.198   0.928 -0.1806 -0.2257 -0.2309
 4341TIP3    H112984   3.994   4.272   0.893  0.1369 -0.1390 -0.4964
 4341TIP3    H212985   4.004   4.181   1.013 -0.2557  0.2493 -0.1688
 4342TIP3   OH212986   3.722   4.380   4.854  0.3312 -0.1188 -0.1480
 4342TIP3    H112987   3.670   4.305   4.827  1.2029 -0.4976 -0.8150
 4342TIP3    H212988   3.761   4.413   4.773  2.9834 -1.2648  0.5646
 4343TIP3   OH212989   6.766   1.935   4.558 -0.6486  0.2337 -0.3888
 4343TIP3    H112990   6.803   2.022   4.572 -2.0629  0.9695 -1.0235
 4343TIP3    H212991   6.753   1.899   4.646  0.2786  0.4998 -0.1327
 4344TIP3   OH212992   3.313   3.005   3.292 -0.3330 -0.4281  0.3285
 4344TIP3    H112993   3.395   3.042   3.260  0.5715 -1.7264  1.1003
 4344TIP3    H212994   3.258   2.999   3.213 -0.0034  1.1943 -0.0537
 4345TIP3   OH212995   7.384   1.333   4.497  0.2996  0.1581  0.3313
 4345TIP3    H112996   7.399   1.425   4.475 -0.1763  0.6494  1.9073
 4345TIP3    H212997   7.448   1.314   4.566  0.6582 -0.8170 -0.2546
 4346TIP3   OH212998   2.210   5.991   2.183 -0.6024 -0.1249  0.2411
 4346TIP3    H112999   2.131   5.955   2.223 -0.0085 -1.0431  0.5979
 4346TIP3    H213000   2.269   5.917   2.174  0.0805  0.4758 -0.3934
 4347TIP3   OH213001   5.126   5.246   1.421 -0.3738 -0.0880 -0.0415
 4347TIP3    H113002   5.181   5.292   1.485  2.8394 -0.8996 -2.0077
 4347TIP3    H213003   5.037   5.273   1.443  0.9012  2.9455  2.1311
 4348TIP3   OH213004   1.247   1.125   5.537 -0.8251 -0.1884 -0.2770
 4348TIP3    H113005   1.251   1.203   5.591 -0.9654  0.0164 -0.5571
 4348TIP3    H213006   1.330   1.080   5.551 -0.8573 -0.1332  0.0972
 4349TIP3   OH213007   5.007   6.026   3.389 -0.0345  0.2835  0.1045
 4349TIP3    H113008   5.032   6.077   3.312  0.2836 -0.0263  0.0030
 4349TIP3    H213009   4.938   6.078   3.430  0.2020  0.7393 -0.0667
 4350TIP3   OH213010   3.136   6.413   4.331 -0.0349 -0.6793 -0.1201
 4350TIP3    H113011   3.207   6.455   4.380 -1.7311  1.1263  0.9405
 4350TIP3    H213012   3.125   6.327   4.373  2.2648 -1.5356 -1.1083
 4351TIP3   OH213013   6.469   2.797   3.483 -0.1702 -0.0009 -0.3191
 4351TIP3    H113014   6.530   2.739   3.530  0.2053  1.2213  0.7809
 4351TIP3    H213015   6.516   2.821   3.403  0.1261 -0.3707 -0.2586
 4352TIP3   OH213016   6.688   1.110   3.340  0.1113 -0.4174 -0.4509
 4352TIP3    H113017   6.689   1.044   3.271  1.6548 -2.1750  1.1488
 4352TIP3    H213018   6.771   1.156   3.331  0.3867 -0.7522  0.3090
 4353TIP3   OH213019   3.069   0.205   4.792 -0.4204  0.2135  0.4026
 4353TIP3    H113020   3.099   0.142   4.726  1.6457  0.3931  1.1126
 4353TIP3    H213021   3.004   0.157   4.843 -2.0317  0.0479 -1.6856
 4354TIP3   OH213022   4.404   6.283   4.869  0.5621 -0.2741 -0.4352
 4354TIP3    H113023   4.371   6.336   4.941  0.2848  0.8813 -1.3654
 4354TIP3    H213024   4.453   6.213   4.911 -2.6234 -1.8407  0.9959
 4355TIP3   OH213025   5.532   3.201   0.007 -0.2941 -0.2269 -0.1547
 4355TIP3    H113026   5.467   3.269  -0.012 -0.2361 -0.3814 -0.9374
 4355TIP3    H213027   5.609   3.249   0.037 -0.7604 -0.0421  0.7971
 4356TIP3   OH213028   3.668   1.400   1.821 -0.0905  0.5855  0.8918
 4356TIP3    H113029   3.666   1.368   1.912 -0.0225  1.1294  1.0880
 4356TIP3    H213030   3.755   1.376   1.789 -0.9521 -1.8666  0.1250
 4357TIP3   OH213031   1.177   2.392   0.760 -0.2311  0.2842 -0.2082
 4357TIP3    H113032   1.168   2.355   0.673  1.1826  1.1549 -0.7584
 4357TIP3    H213033   1.126   2.333   0.816 -1.0675 -0.3536 -1.5801
 4358TIP3   OH213034   7.504   3.169   0.208  0.0957 -0.7022 -0.0992
 4358TIP3    H113035   7.589   3.137   0.238 -0.0120 -1.0395 -0.1533
 4358TIP3    H213036   7.473   3.102   0.148 -0.7364 -1.1545  0.8043
 4359TIP3   OH213037   4.168   4.218   3.335  0.2657 -0.5372 -0.1509
 4359TIP3    H113038   4.088   4.176   3.303  0.9211 -0.7811 -1.5193
 4359TIP3    H213039   4.137   4.289   3.391 -0.8813 -1.6701  0.7155
 4360TIP3   OH213040   1.737   5.701   2.449  0.5418  0.1375 -0.0370
 4360TIP3    H113041   1.832   5.704   2.453  0.5495  0.0203 -0.1355
 4360TIP3    H213042   1.712   5.783   2.406  0.6705 -0.4486 -1.2563
 4361TIP3   OH213043   0.793   7.093   1.159 -0.1157  0.2688  0.3951
 4361TIP3    H113044   0.861   7.047   1.110 -1.3524 -2.4537  1.0733
 4361TIP3    H213045   0.842   7.150   1.219  1.4947 -0.1129 -0.4929
 4362TIP3   OH213046   7.133   5.326   0.842  0.4671  0.1708  0.2612
 4362TIP3    H113047   7.213   5.356   0.885  0.4399 -0.6865  0.9354
 4362TIP3    H213048   7.068   5.323   0.912  0.0441  0.1370 -0.1313
 4363TIP3   OH213049   6.092   4.846   1.365  0.2422  0.5777 -0.2811
 4363TIP3    H113050   6.057   4.757   1.357  0.1328  0.6576 -0.7045
 4363TIP3    H213051   6.038   4.898   1.305 -1.0635  1.3298  1.4670
 4364TIP3   OH213052   0.121   5.783   3.977 -0.0552  0.2745  0.2845
 4364TIP3    H113053   0.119   5.811   3.885 -2.1218  0.6259  0.3775
 4364TIP3    H213054   0.198   5.826   4.014  0.2894  0.8612 -1.0746
 4365TIP3   OH213055   7.097   2.754   5.978  0.5412 -0.5844 -0.2308
 4365TIP3    H113056   7.021   2.773   6.033  0.5783  0.8601 -0.6336
 4365TIP3    H213057   7.063   2.697   5.910  0.0434 -0.7578  0.1535
 4366TIP3   OH213058   2.292   5.813   3.878  0.3983 -0.0167  0.1721
 4366TIP3    H113059   2.274   5.896   3.833  0.2055 -1.5448 -2.8257
 4366TIP3    H213060   2.215   5.799   3.934  0.4153  1.7561  0.6911
 4367TIP3   OH213061   3.154   7.059   0.446  0.1966 -0.4392 -0.4629
 4367TIP3    H113062   3.177   7.029   0.359  1.4283 -0.2596 -0.2218
 4367TIP3    H213063   3.164   6.982   0.502  1.3778 -0.0984 -0.1736
 4368TIP3   OH213064   6.588   5.894   2.555  0.1704  0.3623  0.5224
 4368TIP3    H113065   6.627   5.927   2.636  0.8276  1.6175 -0.2834
 4368TIP3    H213066   6.558   5.972   2.508 -0.8239 -0.3897 -0.1574
 4369TIP3   OH213067   4.437   3.512   0.771  0.0144 -1.0167 -0.6091
 4369TIP3    H113068   4.456   3.420   0.785  0.7964 -1.0054 -1.4788
 4369TIP3    H213069   4.455   3.553   0.856  1.6994 -1.3754 -0.7453
 4370TIP3   OH213070   0.488   4.814   3.646  1.1430 -0.2809  0.3223
 4370TIP3    H113071   0.493   4.811   3.550  2.4344 -1.6006  0.4020
 4370TIP3    H213072   0.414   4.757   3.668  1.3209 -0.5837  0.1384
 4371TIP3   OH213073   4.484   1.275   6.109  0.5115 -0.0987  0.1472
 4371TIP3    H113074   4.446   1.361   6.091 -1.6212 -1.0985 -0.6042
 4371TIP3    H213075   4.437   1.216   6.049  1.5006 -1.8624  1.0238
 4372TIP3   OH213076   4.107   5.668   1.118 -0.2011 -0.0778 -0.1229
 4372TIP3    H113077   4.044   5.703   1.180  0.0845 -0.1509  0.2111
 4372TIP3    H213078   4.190   5.710   1.141 -0.4627  1.4040 -1.7022
 4373TIP3   OH213079   7.229   1.426   4.976  0.3207 -0.1952  0.1454
 4373TIP3    H113080   7.307   1.481   4.970 -0.6446  1.2891  0.3775
 4373TIP3    H213081   7.158   1.482   4.943 -0.8443 -1.0470  1.1077
 4374TIP3   OH213082   4.460   6.251   2.536  0.2510 -0.0097  0.0321
 4374TIP3    H113083   4.519   6.189   2.492  0.3243  0.3247 -0.3395
 4374TIP3    H213084   4.421   6.302   2.465 -2.1815 -1.6799  0.0412
 4375TIP3   OH213085   5.093   4.066   0.792 -0.3419  0.5184 -0.5171
 4375TIP3    H113086   5.104   3.981   0.749  0.0452  0.5002 -0.3883
 4375TIP3    H213087   5.182   4.095   0.811 -0.5021  0.4631  0.3829
 4376TIP3   OH213088   3.555   3.841   3.283  0.0603 -0.7776 -0.9825
 4376TIP3    H113089   3.600   3.757   3.290  1.9780  0.1540 -1.5065
 4376TIP3    H213090   3.471   3.820   3.243  0.1121 -2.5485 -0.2426
 4377TIP3   OH213091   1.953   2.484   2.218 -0.5820  0.3550  0.5340
 4377TIP3    H113092   1.923   2.432   2.293 -2.7985  0.5187 -0.1840
 4377TIP3    H213093   2.022   2.540   2.254 -0.1110 -1.0655  1.9539
 4378TIP3   OH213094   4.618   2.043   3.363 -0.5268  0.4624  0.2788
 4378TIP3    H113095   4.708   2.042   3.397 -0.4359  1.3135  0.0772
 4378TIP3    H213096   4.588   1.953   3.373  1.1336 -0.3977 -1.7486
 4379TIP3   OH213097   5.533   4.160   4.038 -0.3379 -0.0460  0.1849
 4379TIP3    H113098   5.514   4.117   4.121 -0.7142  2.4996  1.5284
 4379TIP3    H213099   5.479   4.114   3.974 -0.9422 -1.3331  1.5619
 4380TIP3   OH213100   1.342   5.270   6.177 -0.2239 -0.2481  0.0521
 4380TIP3    H113101   1.337   5.250   6.271  2.5421  0.0687  0.3415
 4380TIP3    H213102   1.271   5.334   6.164 -1.0340 -0.7087  1.7801
 4381TIP3   OH213103   1.649   5.768   0.701  0.3441  0.5573 -0.2235
 4381TIP3    H113104   1.569   5.717   0.706 -0.1465  1.3119 -0.1442
 4381TIP3    H213105   1.656   5.811   0.786 -0.2401  2.0308 -0.8712
 4382TIP3   OH213106   4.982   4.329   0.733 -0.1177 -0.1236  0.0584
 4382TIP3    H113107   5.015   4.244   0.762 -0.4200 -1.0822 -2.1865
 4382TIP3    H213108   5.000   4.388   0.807  0.2317 -2.0700  1.6312
 4383TIP3   OH213109   7.018   3.131   3.194  0.3891 -0.0278  0.6123
 4383TIP3    H113110   7.073   3.145   3.117  2.2651  0.6226  1.9888
 4383TIP3    H213111   7.078   3.099   3.261 -0.7223  1.4775  2.4368
 4384TIP3   OH213112   4.087   5.969   5.897  0.4900  0.5089  0.2153
 4384TIP3    H113113   4.177   5.939   5.903  0.4654  0.4927  0.5133
 4384TIP3    H213114   4.034   5.889   5.907  0.4502  0.0254 -2.7420
 4385TIP3   OH213115   4.860   1.007   3.906  0.3437  0.6113  0.1834
 4385TIP3    H113116   4.821   1.094   3.897  0.9573  1.2493  2.8388
 4385TIP3    H213117   4.799   0.948   3.862  0.8674  2.4929 -3.4779
 4386TIP3   OH213118   5.883   2.492   4.257  0.2461 -0.1238 -0.2512
 4386TIP3    H113119   5.901   2.568   4.312  3.2629 -0.7050 -0.2818
 4386TIP3    H213120   5.905   2.417   4.312 -1.6020 -0.9784 -0.6040
 4387TIP3   OH213121   0.437   1.239   4.746  0.4228 -1.0295 -0.1338
 4387TIP3    H113122   0.514   1.290   4.770 -0.3094 -0.3959  0.9905
 4387TIP3    H213123   0.366   1.278   4.797 -0.1861 -3.0936  0.7001
 4388TIP3   OH213124   2.411   4.277   3.784  0.3663 -0.6928  0.1873
 4388TIP3    H113125   2.481   4.213   3.774  0.6029 -0.2875 -0.9962
 4388TIP3    H213126   2.390   4.276   3.877  1.1331 -1.6704  0.3663
 4389TIP3   OH213127   7.287   6.957   1.464  0.4028 -0.3807 -0.0143
 4389TIP3    H113128   7.366   6.905   1.451  0.3921 -0.0366 -1.6578
 4389TIP3    H213129   7.286   6.976   1.558  0.6210 -2.9352  0.5745
 4390TIP3   OH213130   6.492   6.037   1.126 -0.6098  0.6238 -0.4427
 4390TIP3    H113131   6.448   6.038   1.042 -1.1459  0.2301 -0.1790
 4390TIP3    H213132   6.431   6.081   1.186 -0.0313  1.3190 -0.3510
 4391TIP3   OH213133   1.684   2.440   5.601  0.4585  0.6780 -0.2336
 4391TIP3    H113134   1.607   2.400   5.643  0.9013 -2.6752 -2.2717
 4391TIP3    H213135   1.652   2.470   5.516  1.0330  1.0188 -0.3329
 4392TIP3   OH213136   5.604   4.099   2.029 -0.2627  0.2596  0.7578
 4392TIP3    H113137   5.656   4.138   2.100  0.8873  0.4240 -0.1482
 4392TIP3    H213138   5.637   4.010   2.022 -0.1432  0.3416  0.2274
 4393TIP3   OH213139   7.156   3.582   1.579 -0.0273  0.0776 -0.2262
 4393TIP3    H113140   7.138   3.490   1.559 -0.7404  0.0108  0.7055
 4393TIP3    H213141   7.250   3.592   1.561  0.1419 -0.9314  0.0371
 4394TIP3   OH213142   7.337   6.817   4.260 -0.2011 -0.5223 -0.1735
 4394TIP3    H113143   7.243   6.835   4.263 -0.0480  0.2002  0.7537
 4394TIP3    H213144   7.378   6.901   4.243  0.2874 -0.8298 -0.5519
 4395TIP3   OH213145   2.855   5.554   2.585 -0.2025 -0.1607  0.3301
 4395TIP3    H113146   2.867   5.644   2.616 -2.2208  0.2854 -0.0474
 4395TIP3    H213147   2.910   5.548   2.507 -1.2463  1.2866 -0.5699
 4396TIP3   OH213148   3.501   6.434   0.974 -0.0333 -0.1418  0.2113
 4396TIP3    H113149   3.531   6.431   0.883  0.2841 -0.7175  0.3263
 4396TIP3    H213150   3.570   6.482   1.020 -0.2241  0.2037  0.1374
 4397TIP3   OH213151   3.419   1.182   5.667  0.1418 -0.3372  0.3559
 4397TIP3    H113152   3.403   1.255   5.727 -1.0207 -0.4148  0.1611
 4397TIP3    H213153   3.351   1.118   5.688  0.1461 -0.6671 -0.5692
 4398TIP3   OH213154   5.014   6.627   4.860  0.1723 -0.5038  0.5601
 4398TIP3    H113155   5.055   6.543   4.878  1.2638 -0.2685 -0.6533
 4398TIP3    H213156   4.938   6.606   4.807  0.3145 -0.7414  0.4496
 4399TIP3   OH213157   4.319   3.601   5.374 -0.4261  0.2531 -0.0494
 4399TIP3    H113158   4.364   3.540   5.432  0.7836 -0.3596 -1.5721
 4399TIP3    H213159   4.357   3.686   5.394 -1.0278  0.2888  1.0110
 4400TIP3   OH213160   6.492   0.347   4.574 -0.1738  0.1591 -0.2300
 4400TIP3    H113161   6.505   0.261   4.534 -1.1587 -0.4007  0.5940
 4400TIP3    H213162   6.578   0.369   4.610  0.4664  0.2177 -1.7192
 4401TIP3   OH213163   5.300   6.580   4.388  0.1721  0.5056 -0.1670
 4401TIP3    H113164   5.256   6.555   4.470  0.3237  1.3508  0.1906
 4401TIP3    H213165   5.258   6.662   4.363 -0.9486 -0.5045 -1.7946
 4402TIP3   OH213166   3.347   0.130   2.575 -0.5465  0.0791 -0.1262
 4402TIP3    H113167   3.359   0.208   2.522 -0.1780  0.6446  0.7684
 4402TIP3    H213168   3.316   0.163   2.660 -0.6806 -0.7628  0.1638
 4403TIP3   OH213169   5.712   2.090   3.331 -0.2771  0.6575 -0.5930
 4403TIP3    H113170   5.774   2.021   3.308 -0.1949  0.1361  1.0167
 4403TIP3    H213171   5.751   2.133   3.407  0.0966  3.1157 -2.0772
 4404TIP3   OH213172   4.771   5.661   5.325 -0.3039 -0.0138 -0.1819
 4404TIP3    H113173   4.719   5.646   5.404 -1.5457 -0.5219 -1.0715
 4404TIP3    H213174   4.710   5.647   5.253  0.8595  0.2417 -1.2477
 4405TIP3   OH213175   5.550   5.721   2.543 -0.5919 -0.0970 -0.5280
 4405TIP3    H113176   5.525   5.778   2.616 -1.6259 -0.9554 -0.1842
 4405TIP3    H213177   5.636   5.689   2.567 -0.8797 -0.2979  0.2840
 4406TIP3   OH213178   1.576   1.302   4.763 -0.3432 -0.1058 -0.1139
 4406TIP3    H113179   1.523   1.269   4.690 -0.6626 -0.3685  0.2335
 4406TIP3    H213180   1.526   1.280   4.841  0.4147 -0.6360  0.2372
 4407TIP3   OH213181   6.282   2.466   4.415  0.2701  0.4393 -0.0373
 4407TIP3    H113182   6.276   2.461   4.511  0.1728 -0.4753 -0.0803
 4407TIP3    H213183   6.324   2.550   4.398  0.3246  0.5953  0.8159
 4408TIP3   OH213184   2.628   3.441   2.233  0.1966 -0.0644  0.4151
 4408TIP3    H113185   2.704   3.482   2.275  0.3082 -0.0493  0.1956
 4408TIP3    H213186   2.580   3.401   2.306  0.5844 -0.3556  0.5165
 4409TIP3   OH213187   1.590   6.661   4.810 -0.2150  0.1683 -0.3181
 4409TIP3    H113188   1.531   6.601   4.855 -0.5932  2.0833  1.9591
 4409TIP3    H213189   1.536   6.737   4.790  1.0442  1.2827  0.3303
 4410TIP3   OH213190   6.030   1.480   2.926  0.0160  0.4981  0.1426
 4410TIP3    H113191   6.055   1.550   2.865 -0.5194  0.5814  0.0138
 4410TIP3    H213192   6.064   1.508   3.010  1.6665 -0.1041 -0.2964
 4411TIP3   OH213193   3.861   4.500   1.188  0.6573 -0.5719  0.5841
 4411TIP3    H113194   3.946   4.457   1.185  0.6578 -0.5169 -0.8363
 4411TIP3    H213195   3.813   4.453   1.256  1.5756 -1.0551  0.9161
 4412TIP3   OH213196   5.661   1.319   1.819 -0.3307  0.2694  0.0731
 4412TIP3    H113197   5.639   1.258   1.748 -0.2767  0.9154 -0.5149
 4412TIP3    H213198   5.714   1.268   1.880  0.0339 -0.1763 -0.6046
 4413TIP3   OH213199   0.511   6.532   4.226  0.6836 -0.1956  0.3767
 4413TIP3    H113200   0.564   6.542   4.305  1.5887 -1.3125 -0.0655
 4413TIP3    H213201   0.421   6.535   4.258  1.0206  0.1631  1.3416
 4414TIP3   OH213202   6.775   4.701   2.081  0.1882  0.8638  0.1533
 4414TIP3    H113203   6.680   4.701   2.095 -0.5618  0.8519 -3.8236
 4414TIP3    H213204   6.802   4.613   2.106 -1.4658 -0.1813 -1.4506
 4415TIP3   OH213205   2.545   3.201   3.460 -0.1420 -0.0642 -0.1029
 4415TIP3    H113206   2.551   3.150   3.541 -1.4299  0.0203  0.0602
 4415TIP3    H213207   2.508   3.140   3.396  0.2591  0.0675 -0.4663
 4416TIP3   OH213208   6.179   5.648   1.708  0.2605 -0.0136 -0.4192
 4416TIP3    H113209   6.258   5.625   1.758 -0.0416  0.0160  0.0845
 4416TIP3    H213210   6.146   5.726   1.751 -0.3582 -0.3515 -0.2641
 4417TIP3   OH213211   7.091   1.410   1.263  0.6963 -0.3480  0.2670
 4417TIP3    H113212   7.111   1.504   1.262  0.8688 -0.3407  1.9679
 4417TIP3    H213213   7.049   1.395   1.347  1.4166 -1.9556  0.3743
 4418TIP3   OH213214   2.618   6.471   2.978  0.1535 -0.1112 -0.8230
 4418TIP3    H113215   2.684   6.460   3.046 -0.6716  0.7381  0.1413
 4418TIP3    H213216   2.547   6.413   3.003 -0.4203  0.6731 -0.5898
 4419TIP3   OH213217   2.451   6.231   2.951 -0.1762  0.0369  0.6485
 4419TIP3    H113218   2.367   6.188   2.964  0.5535 -2.7489 -2.4638
 4419TIP3    H213219   2.516   6.168   2.983  0.8100  0.6961  0.0269
 4420TIP3   OH213220   4.034   5.211   1.045  0.2667 -0.3330 -0.4373
 4420TIP3    H113221   3.978   5.262   1.103  0.5967 -1.2950  0.7595
 4420TIP3    H213222   4.117   5.204   1.093  0.1762 -2.1112 -0.4959
 4421TIP3   OH213223   6.655   5.563   4.697 -0.3391  0.3575 -0.0343
 4421TIP3    H113224   6.732   5.572   4.754 -0.6252  0.7449  0.2939
 4421TIP3    H213225   6.584   5.606   4.745 -0.8884 -0.4630 -0.1003
 4422TIP3   OH213226   3.294   0.330   3.307 -0.4493  0.1235  0.0813
 4422TIP3    H113227   3.245   0.278   3.370 -0.4186  0.6695  0.5623
 4422TIP3    H213228   3.280   0.285   3.223 -0.8985 -0.3244  0.3884
 4423TIP3   OH213229   6.039   6.799   0.932 -0.3754 -0.5402 -0.0065
 4423TIP3    H113230   6.033   6.861   0.860  1.8580 -1.4551 -1.0644
 4423TIP3    H213231   5.981   6.835   1.000  0.3662  2.3489 -0.7883
 4424TIP3   OH213232   5.378   0.968   2.785 -0.8438  0.5928  0.2974
 4424TIP3    H113233   5.433   1.021   2.842 -0.0404  1.4603 -1.2164
 4424TIP3    H213234   5.404   0.878   2.804  1.5091  0.9965 -0.7144
 4425TIP3   OH213235   4.136   0.749   5.950  0.4425  0.4797  0.0045
 4425TIP3    H113236   4.064   0.758   5.887  0.3841 -0.2582 -0.0373
 4425TIP3    H213237   4.104   0.793   6.029 -1.3904 -2.5129  1.0972
 4426TIP3   OH213238   2.819   3.275   2.522  0.3370  0.4308  0.3883
 4426TIP3    H113239   2.876   3.235   2.456 -0.0510  0.2983  0.1259
 4426TIP3    H213240   2.831   3.220   2.600 -0.4507 -0.4306 -0.0683
 4427TIP3   OH213241   1.751   3.175   2.535  0.1749 -0.0697  0.0596
 4427TIP3    H113242   1.845   3.182   2.523 -0.0409 -0.6459 -2.3401
 4427TIP3    H213243   1.717   3.259   2.506 -0.0841  0.0311  0.6434
 4428TIP3   OH213244   0.477   5.828   5.281 -0.2350 -0.7849 -0.5032
 4428TIP3    H113245   0.556   5.864   5.241 -0.4198  1.2534  0.8517
 4428TIP3    H213246   0.449   5.760   5.220  0.8873  0.4808 -2.5575
 4429TIP3   OH213247   7.040   4.365   2.316 -0.1885 -0.2144 -0.4938
 4429TIP3    H113248   6.952   4.361   2.352  0.1865  0.5815  0.5857
 4429TIP3    H213249   7.083   4.286   2.348 -0.2797 -0.2142 -0.3715
 4430TIP3   OH213250   0.572   0.604   2.638 -0.2938 -0.3825 -0.2585
 4430TIP3    H113251   0.563   0.675   2.575  2.2413  0.4517  0.1900
 4430TIP3    H213252   0.515   0.535   2.605 -0.9015  0.9158 -2.0991
 4431TIP3   OH213253   1.265   0.261   5.496  0.0306 -0.0597  0.1189
 4431TIP3    H113254   1.271   0.356   5.506  0.7313 -0.0825 -0.0308
 4431TIP3    H213255   1.173   0.241   5.513  0.0349  0.5490  0.9273
 4432TIP3   OH213256   0.801   6.496   2.736 -0.2836  0.2150  0.7486
 4432TIP3    H113257   0.888   6.533   2.723  1.6122 -3.1882  2.4045
 4432TIP3    H213258   0.761   6.498   2.650  2.9574 -1.4015 -1.0039
 4433TIP3   OH213259   6.769   5.960   1.992  0.2955 -0.1946  0.0481
 4433TIP3    H113260   6.806   6.041   2.026  0.7323 -1.2826  2.3458
 4433TIP3    H213261   6.792   5.961   1.899  1.7411  1.5100  0.3624
 4434TIP3   OH213262   6.769   0.886   0.239  0.6943  0.3463  0.1120
 4434TIP3    H113263   6.751   0.937   0.160  1.9655  0.3586 -0.1917
 4434TIP3    H213264   6.683   0.863   0.273 -0.0562 -3.1364 -3.4947
 4435TIP3   OH213265   3.331   0.713   2.212 -0.6839 -0.1836 -0.2256
 4435TIP3    H113266   3.335   0.620   2.191 -0.4790 -0.2242 -0.0091
 4435TIP3    H213267   3.305   0.755   2.130 -2.2103 -0.5677  0.0394
 4436TIP3   OH213268   7.405   2.961   3.596 -0.1025  0.4670 -0.1802
 4436TIP3    H113269   7.417   2.912   3.678  0.9123  0.8886 -0.0686
 4436TIP3    H213270   7.425   2.897   3.528 -2.2003 -0.2680 -0.1867
 4437TIP3   OH213271   7.055   2.699   0.535  0.7633 -0.5185 -0.1488
 4437TIP3    H113272   7.150   2.683   0.530  1.1586  1.7028 -1.1518
 4437TIP3    H213273   7.042   2.738   0.621  1.2052  1.2517 -0.8241
 4438TIP3   OH213274   2.352   6.958   4.117  0.6794 -0.3718 -0.2133
 4438TIP3    H113275   2.300   6.979   4.040 -0.5064 -1.1240  0.3537
 4438TIP3    H213276   2.433   6.921   4.082  1.3104  1.7190 -1.1379
 4439TIP3   OH213277   2.984   0.714   0.123  0.2553  0.5671 -0.1220
 4439TIP3    H113278   2.919   0.762   0.072  0.6070  0.6174 -0.5293
 4439TIP3    H213279   2.985   0.626   0.084  0.6566  0.6599 -0.3283
 4440TIP3   OH213280   6.351   5.400   3.812  0.4648 -0.2220  0.3588
 4440TIP3    H113281   6.321   5.333   3.872  2.5918  0.7565  2.7136
 4440TIP3    H213282   6.334   5.483   3.857 -0.0314  0.7344 -1.4600
 4441TIP3   OH213283   2.159   0.275   5.940  0.0897 -0.2885  0.4741
 4441TIP3    H113284   2.131   0.259   6.030  1.9577 -0.6232  1.0270
 4441TIP3    H213285   2.205   0.358   5.943  0.9759 -0.7493  0.0211
 4442TIP3   OH213286   1.736   3.595   1.301 -0.2445  0.1329  0.4373
 4442TIP3    H113287   1.807   3.545   1.262 -1.3509 -1.0782 -0.0959
 4442TIP3    H213288   1.742   3.577   1.395 -0.3764 -0.6641  0.2936
 4443TIP3   OH213289   7.302   0.988   6.002 -0.1495 -0.2153 -0.1787
 4443TIP3    H113290   7.388   0.972   6.040 -0.5055 -1.0200  0.3078
 4443TIP3    H213291   7.321   1.012   5.911  0.5765 -0.4831 -0.1067
 4444TIP3   OH213292   1.579   4.115   4.881  0.6705  0.8800  0.8464
 4444TIP3    H113293   1.650   4.104   4.818  0.2953  1.2049  0.3633
 4444TIP3    H213294   1.622   4.150   4.959  0.9720  1.5697  0.3796
 4445TIP3   OH213295   6.042   6.449   3.145 -0.4674  0.2603 -0.2739
 4445TIP3    H113296   5.967   6.456   3.085 -0.0413  0.9235 -0.7384
 4445TIP3    H213297   6.088   6.533   3.136 -0.0827  0.1504  0.5677
 4446TIP3   OH213298   0.433   2.018   2.575 -0.4233  0.1499 -0.0478
 4446TIP3    H113299   0.477   2.000   2.492  1.7062 -1.5190  1.3630
 4446TIP3    H213300   0.433   2.114   2.581  1.1177  0.2563 -1.0933
 4447TIP3   OH213301   0.289   4.454   1.064  0.4436 -0.3675 -0.1312
 4447TIP3    H113302   0.276   4.364   1.095  0.9101 -0.9822 -1.6083
 4447TIP3    H213303   0.383   4.468   1.071  0.2912  0.2556  0.7188
 4448TIP3   OH213304   4.693   4.036   4.154  0.5743  0.6085 -0.3065
 4448TIP3    H113305   4.770   3.986   4.128  0.1442 -0.5430  0.5598
 4448TIP3    H213306   4.708   4.123   4.118  1.3388 -0.1212 -1.8783
 4449TIP3   OH213307   0.739   4.139   3.520 -0.8480  0.1095 -0.7523
 4449TIP3    H113308   0.658   4.188   3.508 -1.3777 -0.2236  1.1981
 4449TIP3    H213309   0.717   4.071   3.584  0.7103 -0.6209 -0.9564
 4450TIP3   OH213310   4.441   2.151   0.160 -0.4873 -0.1931 -0.1833
 4450TIP3    H113311   4.401   2.094   0.226 -2.1740  0.5700 -0.5090
 4450TIP3    H213312   4.518   2.187   0.204 -0.7919 -0.7742  0.8813
 4451TIP3   OH213313   4.919   3.234   1.188 -0.0589  0.3373  0.2558
 4451TIP3    H113314   4.882   3.321   1.176  3.2021  1.6234 -1.8708
 4451TIP3    H213315   4.986   3.245   1.256 -0.7829 -0.9963  1.2550
 4452TIP3   OH213316   5.355   1.038   3.859 -0.6022  0.4376  0.0811
 4452TIP3    H113317   5.375   0.947   3.883 -0.8065  0.6673  1.1647
 4452TIP3    H213318   5.391   1.047   3.771  0.2242 -0.4358  0.3020
 4453TIP3   OH213319   5.729   2.220   2.067  0.3981 -0.2860 -0.1778
 4453TIP3    H113320   5.757   2.232   2.158 -0.4541  1.3966 -0.0862
 4453TIP3    H213321   5.647   2.270   2.061  0.5315 -0.2095 -1.9074
 4454TIP3   OH213322   2.988   0.913   3.085  0.4353 -0.3606 -0.4365
 4454TIP3    H113323   3.015   0.832   3.128  3.1426  0.4693 -0.3635
 4454TIP3    H213324   3.070   0.963   3.075 -1.1243  2.4109 -0.3733
 4455TIP3   OH213325   3.719   2.062   3.336  0.1039 -0.0098  0.8381
 4455TIP3    H113326   3.778   2.021   3.272 -0.5081 -0.1580  0.3586
 4455TIP3    H213327   3.694   1.990   3.394 -1.6633 -0.5466 -0.5267
 4456TIP3   OH213328   5.698   2.740   0.903  0.1509  0.2157 -0.3941
 4456TIP3    H113329   5.720   2.652   0.932  1.7515  0.8354  0.3643
 4456TIP3    H213330   5.765   2.763   0.839 -0.6869  0.6217 -1.1618
 4457TIP3   OH213331   0.155   1.048   3.762  0.0354 -0.2621  0.5010
 4457TIP3    H113332   0.200   0.964   3.765 -1.3376 -0.9840  2.2410
 4457TIP3    H213333   0.165   1.084   3.850  1.0960  1.7210 -0.3638
 4458TIP3   OH213334   6.814   3.938   6.130 -0.0279  0.0991 -0.3855
 4458TIP3    H113335   6.719   3.931   6.118 -0.5108  3.1620  0.5770
 4458TIP3    H213336   6.847   3.966   6.044  0.1292 -1.4971 -0.8698
 4459TIP3   OH213337   5.291   3.545   4.192 -0.0493 -0.8731 -1.1862
 4459TIP3    H113338   5.321   3.582   4.275  0.8648 -0.5976 -1.6152
 4459TIP3    H213339   5.336   3.461   4.185 -2.1592 -2.1824 -0.1952
 4460TIP3   OH213340   6.210   0.960   4.775  0.6883 -0.6637 -0.0065
 4460TIP3    H113341   6.205   0.961   4.679  2.3525 -0.5954 -0.1169
 4460TIP3    H213342   6.303   0.971   4.794  0.2388  0.6744  1.6439
 4461TIP3   OH213343   5.393   5.138   2.933 -0.0076  0.1468  0.5300
 4461TIP3    H113344   5.402   5.225   2.972 -1.2158  0.7121 -0.3697
 4461TIP3    H213345   5.482   5.104   2.930  0.1921  0.0476  3.7065
 4462TIP3   OH213346   7.261   3.967   0.395 -0.1297 -0.1416  0.0592
 4462TIP3    H113347   7.323   4.024   0.440 -0.6226  1.4194 -1.1240
 4462TIP3    H213348   7.261   3.999   0.305 -2.3947 -0.3026 -0.0454
 4463TIP3   OH213349   4.464   6.833   4.493  0.7833 -0.4405 -0.4040
 4463TIP3    H113350   4.542   6.817   4.547  0.1137  1.4618  1.2414
 4463TIP3    H213351   4.498   6.873   4.414  1.5771 -0.8508 -0.2838
 4464TIP3   OH213352   7.594   3.976   5.345  0.2819 -0.4134  0.0724
 4464TIP3    H113353   7.629   3.922   5.275 -0.4828  0.1152 -0.7306
 4464TIP3    H213354   7.570   3.914   5.414  1.9035 -0.8619  0.2783
 4465TIP3   OH213355   7.242   0.779   3.338 -0.4051 -0.3226  0.4055
 4465TIP3    H113356   7.308   0.827   3.388 -0.6456  1.1924 -0.6733
 4465TIP3    H213357   7.244   0.818   3.251 -0.5571 -2.3684 -0.5714
 4466TIP3   OH213358   4.644   1.008   2.268 -0.0723  0.0507  0.0731
 4466TIP3    H113359   4.561   0.964   2.250 -0.2073  0.7043 -1.0311
 4466TIP3    H213360   4.638   1.090   2.219  1.5355 -0.2571 -0.7088
 4467TIP3   OH213361   3.025   2.728   0.094 -0.1674  0.2019 -0.0797
 4467TIP3    H113362   3.050   2.694   0.008 -0.5724  1.5388 -0.7509
 4467TIP3    H213363   3.103   2.774   0.125 -0.0061 -0.3191  0.3016
 4468TIP3   OH213364   1.193   0.601   2.353  0.2425  0.3160 -0.6537
 4468TIP3    H113365   1.218   0.693   2.358 -1.0297  0.6092  1.0060
 4468TIP3    H213366   1.149   0.583   2.436  2.0582 -2.3049 -0.1459
 4469TIP3   OH213367   0.644   5.814   3.000 -0.4984  0.3457  0.1679
 4469TIP3    H113368   0.619   5.819   2.908  2.6133  0.7835 -0.7700
 4469TIP3    H213369   0.658   5.904   3.027  2.9306  0.1200 -0.3945
 4470TIP3   OH213370   2.854   2.732   3.148  0.3058 -0.2358 -0.0967
 4470TIP3    H113371   2.863   2.765   3.238 -0.9861 -1.2136  0.4346
 4470TIP3    H213372   2.856   2.636   3.158  0.0173 -0.3522 -1.0841
 4471TIP3   OH213373   3.472   4.564   1.763  0.3143  0.1840 -0.1238
 4471TIP3    H113374   3.548   4.572   1.705  0.0217  1.0875 -0.4068
 4471TIP3    H213375   3.420   4.642   1.744 -0.9032 -0.6403 -0.2474
 4472TIP3   OH213376   2.318   0.327   0.205  0.1127  0.1899 -0.6497
 4472TIP3    H113377   2.269   0.380   0.143  0.2768  1.8246  0.5626
 4472TIP3    H213378   2.344   0.388   0.275  1.7224 -1.1325 -0.0121
 4473TIP3   OH213379   3.643   6.326   2.087  0.5310  0.3141 -0.9310
 4473TIP3    H113380   3.644   6.251   2.146  1.9187  0.6615 -0.4775
 4473TIP3    H213381   3.581   6.301   2.018  0.2914 -0.8647 -0.3253
 4474TIP3   OH213382   0.054   2.636   4.337 -0.7874 -0.0844 -0.3093
 4474TIP3    H113383  -0.005   2.562   4.324 -0.5592 -0.1414 -1.1031
 4474TIP3    H213384  -0.003   2.711   4.347 -1.0909 -0.5736  2.2684
 4475TIP3   OH213385   6.444   2.761   3.790  0.0881  0.5105 -0.4067
 4475TIP3    H113386   6.461   2.802   3.705 -0.6864  0.1791 -0.7257
 4475TIP3    H213387   6.358   2.793   3.815 -0.8091 -1.3529 -0.9415
 4476TIP3   OH213388   2.857   0.524   0.611  0.0137 -0.2989 -0.3800
 4476TIP3    H113389   2.766   0.498   0.624 -0.2955  1.0637  0.3554
 4476TIP3    H213390   2.865   0.536   0.516 -0.6583 -0.1489 -0.4230
 4477TIP3   OH213391   7.592   5.369   2.600  0.1549  0.4103  0.0981
 4477TIP3    H113392   7.497   5.378   2.604 -0.1800 -2.4232  0.5356
 4477TIP3    H213393   7.608   5.303   2.533  1.7995  0.6618  0.1931
 4478TIP3   OH213394   7.184   3.348   1.085  0.4465  0.0415  0.2040
 4478TIP3    H113395   7.229   3.389   1.160 -0.5214  1.2776  0.1343
 4478TIP3    H213396   7.121   3.414   1.056 -1.5818 -1.6968  0.4219
 4479TIP3   OH213397   5.586   2.197   1.674 -0.3867 -0.4718  0.4112
 4479TIP3    H113398   5.609   2.120   1.622  0.4676 -0.2184  0.3993
 4479TIP3    H213399   5.508   2.232   1.631 -0.1748 -0.7383 -0.2045
 4480TIP3   OH213400   1.330   2.338   5.209 -0.2280  0.4180  0.0720
 4480TIP3    H113401   1.359   2.419   5.251 -1.7832  0.4770  1.0811
 4480TIP3    H213402   1.384   2.333   5.130 -0.3119  2.6197 -0.2027
 4481TIP3   OH213403   3.938   5.945   1.681 -0.7355  0.0474 -0.0393
 4481TIP3    H113404   4.019   5.984   1.714 -0.6499  0.3433 -0.5867
 4481TIP3    H213405   3.921   5.872   1.740 -0.3056  0.2504  0.3421
 4482TIP3   OH213406   5.514   5.818   0.854 -0.2484  0.4568  0.2760
 4482TIP3    H113407   5.607   5.839   0.855  0.7380 -2.8477 -2.2169
 4482TIP3    H213408   5.497   5.777   0.938  0.7362  0.4816  0.4925
 4483TIP3   OH213409   5.925   1.080   5.152  0.0692  0.2303 -0.3812
 4483TIP3    H113410   5.963   1.080   5.064 -0.3599 -0.6459 -0.5850
 4483TIP3    H213411   5.849   1.022   5.145  0.5479 -0.5860  0.7848
 4484TIP3   OH213412   0.001   5.499   4.960  0.0390 -0.8866  0.0688
 4484TIP3    H113413  -0.028   5.585   4.932 -1.0212 -0.8768  1.1042
 4484TIP3    H213414   0.092   5.493   4.929 -0.1081  0.2891 -0.6546
 4485TIP3   OH213415   7.380   3.385   0.381 -0.0579  0.6525 -0.2239
 4485TIP3    H113416   7.466   3.398   0.421  0.1856  0.9668 -0.8464
 4485TIP3    H213417   7.393   3.316   0.316 -0.8649 -1.2433  1.4980
 4486TIP3   OH213418   2.056   4.869   2.076 -0.3047  0.0129 -0.3067
 4486TIP3    H113419   2.140   4.896   2.039  0.5144 -1.2959  0.5374
 4486TIP3    H213420   2.040   4.932   2.147 -0.8413  1.2195 -1.4448
 4487TIP3   OH213421   7.091   4.634   0.160 -0.0780  0.2060  0.0894
 4487TIP3    H113422   7.095   4.545   0.196 -2.2251 -0.4234 -1.0386
 4487TIP3    H213423   7.102   4.691   0.236 -0.8697 -1.0451  1.2042
 4488TIP3   OH213424   5.969   4.865   2.971  0.0413 -0.0791 -0.3930
 4488TIP3    H113425   5.878   4.887   2.992 -0.5381  2.1779 -4.2323
 4488TIP3    H213426   6.016   4.947   2.984  0.8270 -0.3385 -1.4986
 4489TIP3   OH213427   6.877   3.075   2.544 -0.6706  0.5176  0.0480
 4489TIP3    H113428   6.880   3.106   2.635 -1.7695  2.0395 -0.4006
 4489TIP3    H213429   6.815   3.001   2.547  1.7199 -1.5851  1.0646
 4490TIP3   OH213430   1.913   6.805   5.113  0.1819  0.2196 -0.5065
 4490TIP3    H113431   1.987   6.864   5.126 -0.0781  0.9626 -2.1449
 4490TIP3    H213432   1.953   6.719   5.101  0.7448  0.5225 -0.8395
 4491TIP3   OH213433   7.446   1.552   0.077  0.2727 -0.4061 -0.5061
 4491TIP3    H113434   7.404   1.522   0.158  0.3657  0.1937 -0.2345
 4491TIP3    H213435   7.375   1.594   0.028  0.4403  0.1443 -0.2788
 4492TIP3   OH213436   2.023   1.287   2.550  0.2700  0.0034 -0.3662
 4492TIP3    H113437   2.116   1.308   2.545  0.1452  0.4478 -0.9601
 4492TIP3    H213438   2.006   1.232   2.473  0.0663 -0.1591 -0.2059
 4493TIP3   OH213439   2.516   6.166   5.769 -0.7152  0.5289 -0.7837
 4493TIP3    H113440   2.558   6.080   5.768 -0.1783  0.6995  1.3390
 4493TIP3    H213441   2.428   6.150   5.735 -0.7412 -0.9501 -0.1217
 4494TIP3   OH213442   3.561   6.885   2.495 -0.1552 -0.1053 -0.4220
 4494TIP3    H113443   3.653   6.909   2.505  0.4464 -2.6144  1.3026
 4494TIP3    H213444   3.550   6.871   2.401  1.6095 -0.9853 -0.5525
 4495TIP3   OH213445   2.346   3.024   6.150 -0.1411  0.5714  0.1103
 4495TIP3    H113446   2.320   3.071   6.229  0.2882  0.8657  0.0762
 4495TIP3    H213447   2.318   3.080   6.078  0.6515  0.9321  0.0733
 4496TIP3   OH213448   4.531   4.923   4.408  0.5681  0.0887  0.9139
 4496TIP3    H113449   4.465   4.992   4.406  1.9473  1.4408  0.4893
 4496TIP3    H213450   4.530   4.891   4.498  0.6531  1.4185  1.4053
 4497TIP3   OH213451   6.207   1.671   4.477  0.1369  0.4056  0.5842
 4497TIP3    H113452   6.113   1.677   4.496  0.1520  0.1505  0.7456
 4497TIP3    H213453   6.222   1.736   4.409 -0.6727 -1.4102 -1.4436
 4498TIP3   OH213454   3.358   6.897   0.272 -0.2801  0.1814 -0.2104
 4498TIP3    H113455   3.412   6.947   0.212 -2.6425  1.2224 -1.6193
 4498TIP3    H213456   3.337   6.816   0.225  0.0308 -0.2075  0.3119
 4499TIP3   OH213457   3.619   4.829   3.190 -0.3471 -0.1964  0.4698
 4499TIP3    H113458   3.560   4.900   3.213 -1.1435 -1.0980  1.2974
 4499TIP3    H213459   3.603   4.813   3.097  0.4058  1.1858  0.0641
 4500TIP3   OH213460   2.997   0.902   3.507 -0.2160  0.7174 -0.4957
 4500TIP3    H113461   3.050   0.853   3.443 -1.9181 -2.7731  0.5171
 4500TIP3    H213462   2.907   0.895   3.473 -0.8175  0.9927  0.9768
 4501TIP3   OH213463   6.067   3.461   5.581 -0.5720 -0.0272  0.0945
 4501TIP3    H113464   6.058   3.405   5.504 -0.0802  0.1186 -0.0712
 4501TIP3    H213465   6.107   3.541   5.548  0.2934 -0.2367  0.6189
 4502TIP3   OH213466   1.240   2.361  -0.004 -0.0319  0.5228 -0.0690
 4502TIP3    H113467   1.266   2.273   0.021 -1.6274  0.1136  0.2627
 4502TIP3    H213468   1.322   2.409  -0.012  0.9162 -1.1642 -0.9662
 4503TIP3   OH213469   5.969   2.793   0.695 -0.4073  0.5406  0.0680
 4503TIP3    H113470   6.057   2.831   0.694 -0.5471  0.8982  0.8019
 4503TIP3    H213471   5.981   2.705   0.729 -0.4102  0.8242  0.8342
 4504TIP3   OH213472   5.460   6.624   2.085 -0.0704  0.2580  0.0824
 4504TIP3    H113473   5.407   6.553   2.121 -0.2414  0.5513  0.4263
 4504TIP3    H213474   5.456   6.693   2.152  0.3958  0.4478 -0.0794
 4505TIP3   OH213475   3.438   5.566   1.956 -0.0557  0.1142 -0.2228
 4505TIP3    H113476   3.360   5.613   1.925 -0.4924 -0.9108 -0.7049
 4505TIP3    H213477   3.422   5.475   1.932 -0.1146 -0.6547  2.4002
 4506TIP3   OH213478   2.672   2.975   1.246  0.8201  0.0820  0.3224
 4506TIP3    H113479   2.700   2.982   1.337 -1.2523  0.5420  0.9958
 4506TIP3    H213480   2.669   2.881   1.229 -0.7309 -0.1240  1.4571
 4507TIP3   OH213481   0.594   0.123   0.475  0.0305  0.4605 -0.3269
 4507TIP3    H113482   0.600   0.103   0.568 -0.3836 -2.6452 -0.8713
 4507TIP3    H213483   0.502   0.146   0.461 -0.0158  0.4474 -0.0449
 4508TIP3   OH213484   3.468   1.570   5.607  0.3314  0.1006 -0.1267
 4508TIP3    H113485   3.375   1.548   5.605  0.7593 -1.9503 -1.8904
 4508TIP3    H213486   3.501   1.532   5.688 -0.1167 -0.4265 -0.1867
 4509TIP3   OH213487   5.295   2.458   1.859 -0.3802 -0.9250 -0.4027
 4509TIP3    H113488   5.305   2.530   1.921 -0.0557 -2.6322  1.6924
 4509TIP3    H213489   5.279   2.499   1.775 -1.6629  1.5557  0.9567
 4510TIP3   OH213490   0.938   0.536   5.611 -0.6992  0.5208 -0.3047
 4510TIP3    H113491   0.860   0.552   5.665 -2.1601  2.5159 -2.7840
 4510TIP3    H213492   1.005   0.592   5.650 -0.3780 -1.2467  1.8865
 4511TIP3   OH213493   4.242   6.474   5.983  0.3711 -0.5245  0.4097
 4511TIP3    H113494   4.214   6.478   5.891  0.1789 -1.5230  0.4103
 4511TIP3    H213495   4.337   6.461   5.979  0.1606 -2.3071  0.2917
 4512TIP3   OH213496   2.008   3.108   4.832 -0.5526 -0.6737  0.3721
 4512TIP3    H113497   2.064   3.132   4.759  1.2818 -1.2628  1.5293
 4512TIP3    H213498   1.922   3.091   4.792  0.3240 -0.7329 -1.5817
 4513TIP3   OH213499   2.244   6.152   0.706 -0.2657  0.0560 -0.5318
 4513TIP3    H113500   2.308   6.088   0.675 -0.3130  0.6592 -1.9481
 4513TIP3    H213501   2.273   6.235   0.669 -0.2444  0.8717  1.2390
 4514TIP3   OH213502   3.284   4.938   3.669  0.3071  0.1736 -0.2060
 4514TIP3    H113503   3.368   4.929   3.625  0.2831  1.4028 -0.5595
 4514TIP3    H213504   3.305   4.939   3.762  0.4648 -1.4301 -0.1956
 4515TIP3   OH213505   1.223   2.181   5.414  0.0068  0.3340 -0.4716
 4515TIP3    H113506   1.129   2.190   5.429 -0.0517 -0.4628 -0.3358
 4515TIP3    H213507   1.239   2.231   5.334 -0.4915  0.6541 -0.3766
 4516TIP3   OH213508   0.111   2.602   2.039  0.0631 -0.4661 -0.2785
 4516TIP3    H113509   0.143   2.626   1.951  0.0458  1.9256  0.3007
 4516TIP3    H213510   0.185   2.623   2.097 -0.8347  0.5060  0.5444
 4517TIP3   OH213511   6.069   5.638   5.718  0.4364 -0.2175 -0.1538
 4517TIP3    H113512   6.144   5.633   5.776  0.5574  0.0840 -0.2829
 4517TIP3    H213513   6.073   5.557   5.666 -0.1986 -0.9452  0.8796
 4518TIP3   OH213514   2.648   6.139   0.721  0.0578 -0.4018 -0.1496
 4518TIP3    H113515   2.663   6.139   0.816 -1.3361 -0.1754  0.0910
 4518TIP3    H213516   2.707   6.206   0.688 -0.2603  0.3222  0.7071
 4519TIP3   OH213517   5.253   4.742   3.768 -0.0044 -0.6227 -0.4594
 4519TIP3    H113518   5.188   4.703   3.710 -0.9658  0.1809  0.0464
 4519TIP3    H213519   5.257   4.683   3.843  0.6411 -1.2254 -0.9455
 4520TIP3   OH213520   2.801   3.309   5.465  0.3521  0.0107  0.1196
 4520TIP3    H113521   2.765   3.356   5.540 -0.6565  1.3830 -1.1693
 4520TIP3    H213522   2.759   3.222   5.469 -3.2417  1.4986 -1.2813
 4521TIP3   OH213523   6.380   5.739   2.639  0.1884  0.4550  0.0408
 4521TIP3    H113524   6.440   5.696   2.700  0.9343  0.2677 -0.8031
 4521TIP3    H213525   6.434   5.802   2.592  0.3726 -1.4761 -2.5415
 4522TIP3   OH213526   3.056   2.039   0.489 -0.2614 -0.2637 -0.1229
 4522TIP3    H113527   3.103   1.963   0.522  0.6762  0.0238 -0.7570
 4522TIP3    H213528   3.025   2.084   0.568  1.0446 -0.1429  0.3398
 4523TIP3   OH213529   3.889   6.381   6.007  0.1909  0.0807 -0.4006
 4523TIP3    H113530   3.834   6.423   6.073 -1.5223  1.3748 -2.4955
 4523TIP3    H213531   3.867   6.288   6.013 -0.0599  0.2034  0.7120
 4524TIP3   OH213532   1.298   2.030   5.781  0.0919 -0.0131 -0.7752
 4524TIP3    H113533   1.214   2.066   5.750 -2.3963 -3.2930  1.4404
 4524TIP3    H213534   1.324   2.088   5.852 -1.5659 -0.1138 -0.0263
 4525TIP3   OH213535   4.025   2.735   1.066 -0.0496 -0.2433  0.0698
 4525TIP3    H113536   4.115   2.749   1.096 -0.1781  0.8063 -0.0179
 4525TIP3    H213537   3.986   2.680   1.133  0.4862 -0.2347  0.3972
 4526TIP3   OH213538   6.699   3.828   5.488 -0.1654 -0.3333  0.8979
 4526TIP3    H113539   6.714   3.897   5.553 -0.3558 -0.0472  0.6389
 4526TIP3    H213540   6.721   3.868   5.405 -0.3527 -0.5646  0.7360
 4527TIP3   OH213541   6.438   6.322   3.028  0.1595 -0.5832  0.9144
 4527TIP3    H113542   6.447   6.356   2.939  0.9073  0.2885  1.3050
 4527TIP3    H213543   6.418   6.230   3.017  0.8277 -0.6109 -0.1526
 4528TIP3   OH213544   5.579   4.505   2.973  0.2248 -0.5891  0.3856
 4528TIP3    H113545   5.656   4.449   2.964 -0.4856 -1.5957  0.4614
 4528TIP3    H213546   5.593   4.575   2.909  2.0026  0.2050  1.5596
 4529TIP3   OH213547   2.924   4.837   0.059  0.4883 -0.0086 -0.0950
 4529TIP3    H113548   2.887   4.801   0.139 -0.2961 -0.4562 -0.6387
 4529TIP3    H213549   3.008   4.793   0.048 -0.0488 -1.0145 -0.2658
 4530TIP3   OH213550   2.668   4.307   6.108 -0.0228  0.8143 -0.0883
 4530TIP3    H113551   2.742   4.300   6.048  0.5023 -1.5803  0.7112
 4530TIP3    H213552   2.707   4.326   6.193 -0.4085  0.5076  0.1619
 4531TIP3   OH213553   6.141   5.566   4.306  0.1489 -0.2054  0.5765
 4531TIP3    H113554   6.151   5.491   4.247 -0.9296  1.1175 -1.3723
 4531TIP3    H213555   6.212   5.626   4.281 -0.8993  0.7946 -0.1004
 4532TIP3   OH213556   0.750   2.870   4.039  0.0720  0.4366 -0.1420
 4532TIP3    H113557   0.772   2.802   4.103 -0.1422 -0.7725 -1.3027
 4532TIP3    H213558   0.658   2.889   4.055  0.0923  0.3375  0.0934
 4533TIP3   OH213559   0.677   5.850   4.760  0.0862 -0.1608  0.3054
 4533TIP3    H113560   0.766   5.828   4.786  0.3797  0.3388 -0.2537
 4533TIP3    H213561   0.682   5.864   4.665 -0.3929  0.7680  0.4092
 4534TIP3   OH213562   5.459   5.006   6.023 -0.1031  0.2802 -0.0826
 4534TIP3    H113563   5.382   4.959   5.990 -0.3162  0.6121 -0.0606
 4534TIP3    H213564   5.531   4.976   5.966 -0.5820  1.3227 -1.2797
 4535TIP3   OH213565   6.576   0.906   6.027 -0.6858  0.3858 -0.0769
 4535TIP3    H113566   6.530   0.916   6.110 -2.0220 -1.4764 -0.5401
 4535TIP3    H213567   6.507   0.912   5.961  0.3955  2.1725 -1.1323
 4536TIP3   OH213568   4.553   5.020   1.633 -0.0472  0.0790  0.5107
 4536TIP3    H113569   4.467   4.978   1.641  0.1526 -0.7433 -1.2572
 4536TIP3    H213570   4.533   5.114   1.626 -0.9566 -0.2094 -1.3609
 4537TIP3   OH213571   4.894   7.123   0.694  0.2098 -0.2442  0.0363
 4537TIP3    H113572   4.899   7.136   0.789  1.1704 -2.1817  0.2960
 4537TIP3    H213573   4.855   7.037   0.684 -1.3820  0.5762 -1.4117
 4538TIP3   OH213574   6.283   3.184   2.355  0.3319 -0.5942  1.0200
 4538TIP3    H113575   6.343   3.232   2.297  0.0074 -1.9349 -0.4876
 4538TIP3    H213576   6.230   3.252   2.397  1.7663  0.5146  1.1183
 4539TIP3   OH213577   4.355   5.878   5.939  0.0201 -0.3976 -0.2150
 4539TIP3    H113578   4.319   5.822   6.007 -1.0997 -0.8646 -1.1505
 4539TIP3    H213579   4.385   5.956   5.986 -0.8735 -0.6325  0.8032
 4540TIP3   OH213580   2.160   1.443   2.218  0.2716 -0.1809 -0.0970
 4540TIP3    H113581   2.074   1.484   2.228  0.1882 -0.6834  1.5367
 4540TIP3    H213582   2.144   1.367   2.161 -0.7430 -1.2401  1.5267
 4541TIP3   OH213583   6.098   1.017   5.805  0.4960  0.1905 -0.0332
 4541TIP3    H113584   6.042   0.967   5.747  0.3123  1.8312 -1.3136
 4541TIP3    H213585   6.062   1.105   5.805  1.7302  0.7344  0.9365
 4542TIP3   OH213586   3.665   2.041   0.780  0.4334  0.0922  0.5966
 4542TIP3    H113587   3.751   2.082   0.779 -0.4954  2.1943 -0.0444
 4542TIP3    H213588   3.641   2.038   0.872  1.1922 -0.5036  0.7771
 4543TIP3   OH213589   1.903   7.119   5.950 -0.2205  0.6852 -0.0014
 4543TIP3    H113590   1.966   7.184   5.918  0.1778 -0.2234 -1.1528
 4543TIP3    H213591   1.839   7.170   5.998  0.6370  1.8094  0.0035
 4544TIP3   OH213592   4.780   6.796   2.981  0.1281  0.1280  0.0328
 4544TIP3    H113593   4.684   6.794   2.972  0.1589  1.3918 -0.8925
 4544TIP3    H213594   4.812   6.770   2.895  0.6846 -1.9948  0.8120
 4545TIP3   OH213595   3.374   4.158   5.203 -0.7996 -0.0433  0.3569
 4545TIP3    H113596   3.334   4.076   5.174 -0.7727 -0.0792  0.4199
 4545TIP3    H213597   3.412   4.137   5.288  0.7357 -0.4370 -0.3900
 4546TIP3   OH213598   6.058   3.246   5.368  0.0647  0.3138 -0.3897
 4546TIP3    H113599   6.026   3.160   5.397 -0.8462  1.2655  1.5994
 4546TIP3    H213600   6.045   3.245   5.273 -1.6374 -1.0775 -0.2008
 4547TIP3   OH213601   7.164   2.216   5.121  0.2222 -0.1629 -0.5030
 4547TIP3    H113602   7.116   2.274   5.061  0.6817 -0.2415 -0.9607
 4547TIP3    H213603   7.172   2.266   5.202 -0.9583 -0.2980 -0.2802
 4548TIP3   OH213604   6.575   3.216   4.964  0.1748 -0.5833 -0.2131
 4548TIP3    H113605   6.588   3.310   4.970 -1.5406 -0.3107 -0.3542
 4548TIP3    H213606   6.664   3.179   4.969  0.8196  0.9847  0.4529
 4549TIP3   OH213607   3.752   4.787   3.680 -0.0607 -1.0246  0.3873
 4549TIP3    H113608   3.685   4.841   3.640  0.3508 -1.3186 -0.7401
 4549TIP3    H213609   3.704   4.728   3.739 -0.5693  0.1024  1.1398
 4550TIP3   OH213610   4.891   1.503   2.249  0.4035 -0.5128 -0.1101
 4550TIP3    H113611   4.801   1.495   2.216  0.0784 -0.0588  0.6293
 4550TIP3    H213612   4.897   1.437   2.317  0.2517  0.2170  0.6243
 4551TIP3   OH213613   0.542   2.548   1.223 -0.6725  0.3225 -0.0254
 4551TIP3    H113614   0.526   2.630   1.269  2.2998  2.0706 -1.8159
 4551TIP3    H213615   0.600   2.499   1.282 -1.2182  0.1565  0.3819
 4552TIP3   OH213616   4.513   2.407   5.244 -0.3600 -0.2767 -0.0898
 4552TIP3    H113617   4.419   2.408   5.266 -0.4610 -0.5468 -0.4898
 4552TIP3    H213618   4.515   2.415   5.149  0.0830  1.3628  0.0269
 4553TIP3   OH213619   3.136   1.024   5.334 -0.0457  0.2932  0.0470
 4553TIP3    H113620   3.069   0.991   5.274  0.7736  0.1051 -0.7941
 4553TIP3    H213621   3.157   0.949   5.390  0.5066 -0.0898 -0.6603
 4554TIP3   OH213622   6.390   3.755   1.789  0.2386  0.4850  0.1959
 4554TIP3    H113623   6.296   3.772   1.785 -0.2060 -1.8417 -0.0997
 4554TIP3    H213624   6.402   3.670   1.748  2.3922  0.3915  0.8760
 4555TIP3   OH213625   2.230   2.728   2.665 -0.3850  0.0776  0.2973
 4555TIP3    H113626   2.311   2.681   2.646 -0.8611  0.5362 -3.9552
 4555TIP3    H213627   2.230   2.801   2.602 -4.0133  0.1347  0.1323
 4556TIP3   OH213628   1.215   4.863   4.067 -0.0690  0.3243  0.8468
 4556TIP3    H113629   1.194   4.823   3.982 -1.2999  0.7471  0.9431
 4556TIP3    H213630   1.165   4.813   4.131  0.0975  0.6328  1.2226
 4557TIP3   OH213631   3.012   5.742   1.538  0.1482 -0.3312  0.3183
 4557TIP3    H113632   3.096   5.778   1.507 -0.3003  0.0530 -0.4823
 4557TIP3    H213633   2.971   5.816   1.584 -0.8841  0.3100 -1.5398
 4558TIP3   OH213634   2.231   4.024   1.185 -0.0334 -0.4213  0.3041
 4558TIP3    H113635   2.173   4.094   1.215  1.0460  0.6195  0.0284
 4558TIP3    H213636   2.209   4.013   1.092  0.4215  0.2033  0.1158
 4559TIP3   OH213637   0.870   0.802   5.078  0.1180 -0.1536  0.5166
 4559TIP3    H113638   0.958   0.796   5.115 -0.3179 -2.5702  1.3866
 4559TIP3    H213639   0.824   0.865   5.133  1.2400  1.0366  0.1282
 4560TIP3   OH213640   5.398   2.648   3.371 -0.2398 -0.2269  0.2890
 4560TIP3    H113641   5.310   2.685   3.378 -1.0191 -1.8174 -0.6057
 4560TIP3    H213642   5.418   2.652   3.277  0.3544 -0.5323  0.4007
 4561TIP3   OH213643   2.343   3.669   5.373 -0.4977 -0.2310  0.2240
 4561TIP3    H113644   2.262   3.624   5.399 -0.3499 -1.8721 -1.8699
 4561TIP3    H213645   2.378   3.615   5.302  1.7338  1.1985  0.1615
 4562TIP3   OH213646   5.565   5.478  -0.034  0.3714  0.0575  0.1380
 4562TIP3    H113647   5.546   5.560   0.012  0.6568  0.3527 -0.2571
 4562TIP3    H213648   5.587   5.416   0.035  0.4704  0.4018  0.4218
 4563TIP3   OH213649   4.441   5.689   3.143  0.1153 -0.1016  0.0286
 4563TIP3    H113650   4.369   5.713   3.084  0.5170  0.4247 -0.2646
 4563TIP3    H213651   4.459   5.597   3.123 -0.4657 -0.2353  0.1008
 4564TIP3   OH213652   7.422   0.188   1.507  0.0434 -0.1361  0.0045
 4564TIP3    H113653   7.476   0.184   1.586 -1.1445  0.8918  0.8877
 4564TIP3    H213654   7.354   0.123   1.521 -0.0249 -0.1298 -0.2908
 4565TIP3   OH213655   2.016   0.508   4.756  0.6357  0.1240 -0.2065
 4565TIP3    H113656   2.056   0.439   4.703 -1.6979 -0.3089 -1.5617
 4565TIP3    H213657   2.017   0.585   4.699  0.3512  0.3417  0.0836
 4566TIP3   OH213658   1.705   1.069   0.778 -0.1921 -0.1377 -0.2165
 4566TIP3    H113659   1.768   1.139   0.757 -2.4887  1.7179 -1.4353
 4566TIP3    H213660   1.735   0.994   0.727  2.0807  0.0538  0.7312
 4567TIP3   OH213661   1.893   3.864   3.787 -0.2413  0.4032  0.0416
 4567TIP3    H113662   1.822   3.875   3.850 -1.3709  1.9092 -1.3990
 4567TIP3    H213663   1.862   3.798   3.726  0.4391 -0.3480  0.4896
 4568TIP3   OH213664   1.064   0.986   5.674  0.1228  0.2438 -0.4823
 4568TIP3    H113665   1.048   1.049   5.744  2.2166 -0.4605  0.7271
 4568TIP3    H213666   1.120   1.033   5.612 -1.5219  0.7844 -1.6213
 4569TIP3   OH213667   1.705   6.735   1.711 -0.0749 -0.1432  0.4317
 4569TIP3    H113668   1.622   6.689   1.702 -0.5899  0.9382 -0.5414
 4569TIP3    H213669   1.754   6.683   1.775 -1.5723 -0.6818  1.1875
 4570TIP3   OH213670   3.951   5.761   5.984 -0.4797  0.0889  0.0410
 4570TIP3    H113671   3.910   5.734   6.066 -0.3172 -0.2474  0.0117
 4570TIP3    H213672   3.982   5.680   5.944  1.1589  0.4343  0.5672
 4571TIP3   OH213673   7.258   4.074   4.852 -0.5013 -0.9135  1.1892
 4571TIP3    H113674   7.210   4.115   4.924  0.0123  0.7329  0.6423
 4571TIP3    H213675   7.328   4.136   4.832  0.1504 -1.9564  0.1257
 4572TIP3   OH213676   7.042   4.165   4.689  0.6443  0.1033  0.3413
 4572TIP3    H113677   6.966   4.135   4.739  1.4908  0.9451  2.2393
 4572TIP3    H213678   7.115   4.113   4.724  1.1323  0.0205 -0.7456
 4573TIP3   OH213679   5.043   4.381   5.232 -0.4071 -0.5584  0.2573
 4573TIP3    H113680   5.125   4.332   5.242 -0.0061 -0.4487 -1.8802
 4573TIP3    H213681   4.999   4.338   5.158 -0.3855  1.7587 -1.2164
 4574TIP3   OH213682   3.012   1.898   2.261  0.5838 -0.1844 -0.5501
 4574TIP3    H113683   3.055   1.941   2.188 -0.0479  0.9528 -0.2756
 4574TIP3    H213684   2.955   1.832   2.221 -0.5579  1.1262 -1.1909
 4575TIP3   OH213685   6.743   1.908   4.053 -0.5048 -0.1405  0.3873
 4575TIP3    H113686   6.761   1.842   3.986  0.2748  0.4170  0.0323
 4575TIP3    H213687   6.780   1.871   4.133  0.6733  0.2097  0.0235
 4576TIP3   OH213688   4.321   3.054   2.959 -0.1157  0.1760  0.5614
 4576TIP3    H113689   4.313   2.981   3.020  0.4518 -1.2049 -0.9267
 4576TIP3    H213690   4.415   3.067   2.950 -0.1921  0.3323 -0.0408
 4577TIP3   OH213691   2.119   3.737   6.109 -0.2930  0.1988  0.3272
 4577TIP3    H113692   2.120   3.820   6.061 -2.9682  0.5186  0.6592
 4577TIP3    H213693   2.028   3.726   6.136 -0.1247 -3.0485 -0.0137
 4578TIP3   OH213694   4.925   1.473   3.305  0.3971 -0.0902 -0.2813
 4578TIP3    H113695   4.992   1.432   3.360 -0.5810  1.6866  2.4595
 4578TIP3    H213696   4.843   1.430   3.330 -0.1381  1.0982  0.1311
 4579TIP3   OH213697   5.411   2.200   0.139 -0.2077  0.0414 -0.0200
 4579TIP3    H113698   5.436   2.212   0.230  0.9823  1.7038 -0.5259
 4579TIP3    H213699   5.429   2.108   0.122  1.1322  0.0821  0.9793
 4580TIP3   OH213700   5.394   1.654   5.392  0.1978  0.9402  0.1033
 4580TIP3    H113701   5.337   1.611   5.456 -0.0821  0.1726 -0.6539
 4580TIP3    H213702   5.480   1.613   5.406  0.0157  0.3783 -0.3606
 4581TIP3   OH213703   7.211   3.385   5.017  0.0892  0.0004  0.2205
 4581TIP3    H113704   7.153   3.373   5.093 -0.0476 -1.6757 -0.0977
 4581TIP3    H213705   7.299   3.383   5.055 -0.0064  1.5087  0.5825
 4582TIP3   OH213706   4.649   4.185   0.664 -0.2818 -0.4048  0.2808
 4582TIP3    H113707   4.645   4.181   0.760  0.8816 -1.0135  0.3294
 4582TIP3    H213708   4.656   4.094   0.637  2.4874 -0.1420 -0.1659
 4583TIP3   OH213709   2.413   5.976   3.195  0.2586  0.2281 -0.5983
 4583TIP3    H113710   2.369   5.910   3.248 -0.2596 -0.9375 -2.3920
 4583TIP3    H213711   2.358   6.054   3.204 -0.7850 -0.4689 -0.8104
 4584TIP3   OH213712   2.934   4.115   2.048 -0.0645 -0.0213 -0.1736
 4584TIP3    H113713   2.932   4.183   1.980 -0.0606 -0.5978 -0.7569
 4584TIP3    H213714   2.918   4.163   2.130 -0.8642  0.5726 -0.6633
 4585TIP3   OH213715   1.366   6.637   4.009  0.3193 -0.2127  0.4584
 4585TIP3    H113716   1.309   6.713   4.022  0.0917 -0.1298 -0.8805
 4585TIP3    H213717   1.455   6.673   4.015  0.2343 -0.1680  1.5767
 4586TIP3   OH213718   3.100   4.048   2.976 -0.2208  0.4657  0.0905
 4586TIP3    H113719   3.051   4.123   3.011 -0.8513 -0.9647  2.4988
 4586TIP3    H213720   3.033   3.987   2.946  0.2122 -0.0286  0.1135
 4587TIP3   OH213721   3.154   0.344   2.607  0.1669 -0.2979  0.5067
 4587TIP3    H113722   3.092   0.414   2.587  1.2031  0.1848 -1.1277
 4587TIP3    H213723   3.126   0.270   2.553  0.6496 -0.2853  0.2397
 4588TIP3   OH213724   3.971   2.907   1.584 -0.5884 -0.2812  0.1263
 4588TIP3    H113725   4.041   2.939   1.527 -0.6100 -1.0487 -0.3410
 4588TIP3    H213726   4.015   2.889   1.667 -0.2929 -0.4539 -0.0650
 4589TIP3   OH213727   5.687   4.836   2.153  0.1800  0.4655 -0.4792
 4589TIP3    H113728   5.611   4.847   2.210 -0.7609 -0.9255 -1.3994
 4589TIP3    H213729   5.739   4.768   2.195  0.9667  1.4172  0.1507
 4590TIP3   OH213730   6.876   0.530   1.951  0.1788 -0.5553  0.2767
 4590TIP3    H113731   6.884   0.579   1.868 -0.4652  1.2018  1.1954
 4590TIP3    H213732   6.964   0.534   1.989  0.1085  0.0273  0.3962
 4591TIP3   OH213733   1.893   6.329   5.697  0.0072 -0.0800 -0.0284
 4591TIP3    H113734   1.803   6.296   5.697 -0.5430  1.3550 -0.1119
 4591TIP3    H213735   1.905   6.365   5.609  0.7692 -0.4889 -0.1005
 4592TIP3   OH213736   1.824   4.136   2.045  0.1383 -0.4469 -0.5168
 4592TIP3    H113737   1.742   4.185   2.050  1.2327  1.5117 -0.7049
 4592TIP3    H213738   1.831   4.109   1.954 -0.2337 -0.5329 -0.5202
 4593TIP3   OH213739   0.904   6.869   4.598  0.1232 -0.1803 -0.1201
 4593TIP3    H113740   0.810   6.889   4.594  0.4229  1.1482 -1.0948
 4593TIP3    H213741   0.942   6.939   4.649  0.8309  0.3479 -1.3264
 4594TIP3   OH213742   0.818   3.085   0.458 -0.4875 -0.0100  0.2476
 4594TIP3    H113743   0.779   3.163   0.419 -0.3163 -0.2027 -0.3332
 4594TIP3    H213744   0.749   3.018   0.450  0.7967 -1.1734 -3.4413
 4595TIP3   OH213745   6.603   0.124   1.789  0.8638 -0.6537 -0.2421
 4595TIP3    H113746   6.677   0.182   1.805  1.6418 -1.8381  0.6392
 4595TIP3    H213747   6.641   0.036   1.790 -0.7219 -1.3726  1.4191
 4596TIP3   OH213748   5.150   2.795   3.323  0.1747  0.5984 -0.0306
 4596TIP3    H113749   5.218   2.836   3.268  1.2387 -0.6619  0.3027
 4596TIP3    H213750   5.077   2.858   3.321  0.9505  1.5156 -1.2312
 4597TIP3   OH213751   5.729   2.675   0.133  0.7567 -0.0510 -0.5024
 4597TIP3    H113752   5.817   2.645   0.109  1.3539  1.3601 -0.1427
 4597TIP3    H213753   5.724   2.763   0.098 -0.6675 -0.2435 -0.8262
 4598TIP3   OH213754   5.831   0.538   1.275  0.2548 -0.4001  0.0525
 4598TIP3    H113755   5.796   0.490   1.350 -0.1471 -0.8811 -0.4258
 4598TIP3    H213756   5.808   0.629   1.291  0.3767 -0.4703  0.6261
 4599TIP3   OH213757   0.287   0.133   3.770 -0.1148  0.5552  0.5437
 4599TIP3    H113758   0.266   0.216   3.812 -0.3307  0.1747  1.1930
 4599TIP3    H213759   0.240   0.067   3.821  1.5553 -0.1821  1.2249
 4600TIP3   OH213760   3.594   4.539   5.435 -0.8115 -0.0937 -0.5115
 4600TIP3    H113761   3.531   4.539   5.363 -0.7985  0.1512 -0.5231
 4600TIP3    H213762   3.607   4.631   5.456  0.6085 -0.0684 -1.4375
 4601TIP3   OH213763   1.375   2.184   3.367  0.2379 -0.1930 -0.2181
 4601TIP3    H113764   1.340   2.151   3.284 -1.1346 -0.5894  0.4946
 4601TIP3    H213765   1.453   2.132   3.382 -0.3703 -1.2059 -0.4920
 4602TIP3   OH213766   4.664   2.642   4.834  0.8933  0.1793  0.0158
 4602TIP3    H113767   4.717   2.562   4.836  0.6244 -0.0701 -1.5187
 4602TIP3    H213768   4.590   2.620   4.777  0.7127  1.4507 -0.2664
 4603TIP3   OH213769   0.476   0.757   3.503  0.0940  0.1973 -0.7413
 4603TIP3    H113770   0.385   0.765   3.473  0.3161  0.7055 -1.3074
 4603TIP3    H213771   0.474   0.686   3.568 -0.6691  0.0778 -0.8851
 4604TIP3   OH213772   4.081   5.348   3.295  0.1340 -0.4744 -0.8989
 4604TIP3    H113773   4.169   5.376   3.270 -0.0138  1.8962  0.8756
 4604TIP3    H213774   4.094   5.292   3.371  0.1545 -1.1990 -1.4262
 4605TIP3   OH213775   3.230   2.893   5.019  0.1081 -0.2996 -0.3620
 4605TIP3    H113776   3.171   2.844   4.962  1.3498 -0.0302 -1.9502
 4605TIP3    H213777   3.180   2.908   5.099 -1.3450 -1.5472 -0.9994
 4606TIP3   OH213778   2.546   0.288   1.183 -0.5585 -0.1449  0.4239
 4606TIP3    H113779   2.493   0.239   1.120 -0.1381  0.3114 -0.2975
 4606TIP3    H213780   2.634   0.287   1.145 -0.5234  1.0617  0.4630
 4607TIP3   OH213781   1.915   0.377   3.454 -0.2079 -0.6669  0.2204
 4607TIP3    H113782   1.855   0.399   3.526 -0.3218 -0.8513  0.1821
 4607TIP3    H213783   1.993   0.343   3.498 -0.2897 -0.8095  0.2553
 4608TIP3   OH213784   1.489   6.458   4.612 -0.4539 -0.2569  0.4540
 4608TIP3    H113785   1.529   6.466   4.525  1.4644 -0.6765  1.2609
 4608TIP3    H213786   1.432   6.535   4.618  0.0249  0.2423 -0.8481
 4609TIP3   OH213787   1.886   0.722   2.081 -0.4492 -0.0721  0.6157
 4609TIP3    H113788   1.947   0.653   2.053  1.5061  1.8201 -0.1009
 4609TIP3    H213789   1.833   0.739   2.004 -0.1947 -0.0357  0.4464
 4610TIP3   OH213790   0.383   3.647   3.298  0.0012 -0.6331 -0.1808
 4610TIP3    H113791   0.441   3.571   3.305 -0.6952 -1.2029 -0.4120
 4610TIP3    H213792   0.442   3.722   3.296  0.7657 -1.2282 -1.0872
 4611TIP3   OH213793   1.386   2.967   4.892 -0.6145 -0.2373  0.8586
 4611TIP3    H113794   1.340   2.936   4.970 -1.3039  1.1684  1.0408
 4611TIP3    H213795   1.436   3.043   4.921  0.2810 -0.5637  0.2312
 4612TIP3   OH213796   2.996   0.651   5.759  0.1513 -0.1636 -0.1510
 4612TIP3    H113797   3.056   0.619   5.825  0.2266  0.6183  0.1695
 4612TIP3    H213798   3.043   0.643   5.676  1.1028  1.3531  0.1983
 4613TIP3   OH213799   7.338   3.984   3.026  0.1921 -0.0131  0.1133
 4613TIP3    H113800   7.377   3.928   2.959  0.3790  1.5272 -1.1227
 4613TIP3    H213801   7.413   4.032   3.064 -0.0124 -0.2648  0.8593
 4614TIP3   OH213802   7.340   4.396   2.075  0.1718  0.0054  0.0276
 4614TIP3    H113803   7.339   4.390   1.979 -1.7838  0.7442 -0.0478
 4614TIP3    H213804   7.294   4.478   2.094  0.8680  0.0513  1.5954
 4615TIP3   OH213805   0.092   0.555   2.730 -0.3249  0.0356  0.2256
 4615TIP3    H113806   0.110   0.517   2.815 -1.2050 -0.5541  0.1527
 4615TIP3    H213807   0.133   0.495   2.667 -1.4563 -0.6521  0.1277
 4616TIP3   OH213808   0.776   5.918   1.609 -0.2579  0.0839 -0.3169
 4616TIP3    H113809   0.793   5.862   1.685  0.4655 -0.3778 -0.8017
 4616TIP3    H213810   0.759   5.856   1.538 -0.6843  0.5077 -0.5871
 4617TIP3   OH213811   0.380   5.085   2.699 -0.1874  0.0134 -0.0418
 4617TIP3    H113812   0.391   5.006   2.646 -0.1565 -0.4839  0.6911
 4617TIP3    H213813   0.327   5.057   2.774  0.8884  0.3773  0.8880
 4618TIP3   OH213814   6.307   6.483   6.144 -0.2781 -0.3560 -0.2119
 4618TIP3    H113815   6.221   6.480   6.186  0.2433 -1.4500  0.8695
 4618TIP3    H213816   6.369   6.488   6.217  0.5748  3.1541 -0.9938
 4619TIP3   OH213817   5.636   0.462   3.503  0.0527  0.3679 -0.0450
 4619TIP3    H113818   5.680   0.478   3.586 -0.7736  0.2670  0.4136
 4619TIP3    H213819   5.576   0.389   3.521 -1.2746  1.3724 -0.3138
 4620TIP3   OH213820   3.275   1.029   1.631  0.5172  0.0145  0.7760
 4620TIP3    H113821   3.206   1.045   1.567  2.6540 -1.4117 -2.1488
 4620TIP3    H213822   3.326   1.111   1.632  0.5675 -0.0117  0.5016
 4621TIP3   OH213823   3.757   3.480   2.518 -0.2197  0.0501  1.0891
 4621TIP3    H113824   3.707   3.555   2.548 -0.0287 -0.4632  2.7821
 4621TIP3    H213825   3.718   3.405   2.562 -0.3936 -0.8853 -0.5557
 4622TIP3   OH213826   6.384   6.239   1.301  0.6168 -0.4980  0.0060
 4622TIP3    H113827   6.320   6.228   1.372  2.4156  0.0586  1.8399
 4622TIP3    H213828   6.367   6.327   1.267  0.0370 -0.5820  0.0793
 4623TIP3   OH213829   1.124   0.705   5.730 -0.4045  0.5819 -0.0273
 4623TIP3    H113830   1.129   0.685   5.823 -0.2988 -1.1801 -0.3719
 4623TIP3    H213831   1.109   0.799   5.726  1.8352  1.0834  1.7132
 4624TIP3   OH213832   3.494   6.243   6.015  0.0627 -0.2684  0.0094
 4624TIP3    H113833   3.494   6.175   6.083  0.1942 -2.0061 -1.6525
 4624TIP3    H213834   3.547   6.206   5.944 -2.8633 -0.0649 -2.4880
 4625TIP3   OH213835   4.840   4.126   5.300 -0.0756 -0.1134  0.2368
 4625TIP3    H113836   4.757   4.116   5.254 -0.4623  0.3758  0.8055
 4625TIP3    H213837   4.822   4.192   5.367  0.0824 -1.7169  1.9456
 4626TIP3   OH213838   5.937   4.158   5.741 -0.3033 -0.0291 -0.5492
 4626TIP3    H113839   5.883   4.194   5.671  0.1090 -0.4848 -1.1149
 4626TIP3    H213840   5.965   4.234   5.792  0.1207  0.4035 -1.4090
 4627TIP3   OH213841   0.843   0.744   2.893  0.2106  0.2850  0.3552
 4627TIP3    H113842   0.901   0.783   2.829 -0.9884  1.8114  0.1378
 4627TIP3    H213843   0.813   0.817   2.947  1.3460 -0.9566  2.8671
 4628TIP3   OH213844   0.719   3.155   1.463  0.2047  0.2616 -0.0081
 4628TIP3    H113845   0.771   3.081   1.433  2.6445  1.6484  0.4930
 4628TIP3    H213846   0.647   3.161   1.400 -0.2707 -2.6700  0.1508
 4629TIP3   OH213847   6.299   5.244   4.863 -0.4611 -0.5636 -0.4687
 4629TIP3    H113848   6.384   5.229   4.904 -0.6016  0.7007  0.3433
 4629TIP3    H213849   6.271   5.157   4.833  1.2468 -0.9631 -1.0533
 4630TIP3   OH213850   3.926   4.519   5.757 -0.2523  0.2557  0.2562
 4630TIP3    H113851   3.936   4.597   5.702 -1.8741  0.6602  0.4953
 4630TIP3    H213852   3.831   4.508   5.765 -0.1317  0.7985  3.8079
 4631TIP3   OH213853   1.865   2.507   5.921 -0.0788  0.2836  0.7989
 4631TIP3    H113854   1.855   2.580   5.861  1.1742 -1.2431 -1.4486
 4631TIP3    H213855   1.776   2.477   5.938 -0.4776 -0.1880 -1.6582
 4632TIP3   OH213856   2.095   0.247   4.884  0.8376  0.6855  0.1634
 4632TIP3    H113857   2.040   0.278   4.956 -0.6276  2.9336 -1.7998
 4632TIP3    H213858   2.035   0.201   4.826  1.5196  0.9292 -0.7519
 4633TIP3   OH213859   4.026   3.270   2.891 -0.0523  0.1756 -0.4286
 4633TIP3    H113860   4.028   3.242   2.800  1.3562  0.5310 -0.5375
 4633TIP3    H213861   3.936   3.298   2.906 -0.2943  0.1402 -1.7185
 4634TIP3   OH213862   0.188   2.490   1.425  0.2561 -0.1292 -0.7884
 4634TIP3    H113863   0.212   2.400   1.450  1.0707 -0.3681 -2.2766
 4634TIP3    H213864   0.094   2.495   1.440  0.4661 -0.7011  0.8449
 4635TIP3   OH213865   4.391   3.614   4.472  0.1004  0.6003 -0.1649
 4635TIP3    H113866   4.482   3.584   4.480  0.3429  1.3378 -0.0015
 4635TIP3    H213867   4.343   3.563   4.537  0.2088 -0.4702 -0.8986
 4636TIP3   OH213868   0.748   5.850   5.558  0.0613  0.9362  0.3197
 4636TIP3    H113869   0.834   5.888   5.576 -0.2158  1.4998  0.4891
 4636TIP3    H213870   0.767   5.763   5.522  0.6898  0.8962  0.7288
 4637TIP3   OH213871   0.978   0.929   4.870 -0.7207  0.1806 -1.0300
 4637TIP3    H113872   0.937   0.995   4.815 -1.2087  0.7138 -0.0657
 4637TIP3    H213873   0.907   0.900   4.929  0.1578  0.8611  0.4267
 4638TIP3   OH213874   2.614   3.203   3.757 -0.0633 -0.2155 -0.1438
 4638TIP3    H113875   2.672   3.278   3.774 -0.9063  0.1756  1.2555
 4638TIP3    H213876   2.667   3.126   3.778  0.9166 -0.0755 -1.8948
 4639TIP3   OH213877   5.938   6.272   0.506  0.1533 -0.4219 -0.1396
 4639TIP3    H113878   5.862   6.221   0.533 -0.2198  0.3180  0.2353
 4639TIP3    H213879   5.905   6.362   0.498  1.1687  0.0780  0.9216
 4640TIP3   OH213880   3.728   6.281   4.448  0.6386  0.7246 -0.2834
 4640TIP3    H113881   3.689   6.349   4.502  1.2645  0.3540  0.6615
 4640TIP3    H213882   3.700   6.199   4.488  0.7738  0.4343 -0.7691
 4641TIP3   OH213883   4.614   1.402   5.649  0.3754  0.4011 -0.1892
 4641TIP3    H113884   4.704   1.414   5.617  0.5524 -0.3442  0.0170
 4641TIP3    H213885   4.619   1.424   5.742  0.1518  1.2108 -0.3576
 4642TIP3   OH213886   6.412   6.072   5.248 -0.0774  0.0386 -0.0777
 4642TIP3    H113887   6.466   6.097   5.172 -0.8087 -0.4822 -0.7809
 4642TIP3    H213888   6.467   6.093   5.324  0.0546  2.0713 -0.6730
 4643TIP3   OH213889   7.188   6.373   4.092 -0.2657  0.3620  0.2719
 4643TIP3    H113890   7.277   6.389   4.125  0.0974  0.7563 -0.8550
 4643TIP3    H213891   7.131   6.402   4.164  0.4918 -1.9305  1.9144
 4644TIP3   OH213892   7.513   6.774   1.047  0.1347 -0.3761  0.2314
 4644TIP3    H113893   7.605   6.760   1.024  0.8495 -1.2329  3.2408
 4644TIP3    H213894   7.511   6.859   1.090 -0.9054  0.5667 -1.5563
 4645TIP3   OH213895   2.428   2.792   0.217 -0.0588  0.1137 -0.7309
 4645TIP3    H113896   2.415   2.745   0.300 -1.8959  1.3178 -0.3005
 4645TIP3    H213897   2.397   2.731   0.150 -0.9179  0.0912 -0.3162
 4646TIP3   OH213898   5.215   6.270   1.418 -0.0636 -0.0039  0.1826
 4646TIP3    H113899   5.243   6.248   1.507 -2.2776 -1.8244  0.5204
 4646TIP3    H213900   5.150   6.340   1.430 -2.2761 -1.9589  0.3569
 4647TIP3   OH213901   7.384   5.990   5.076  0.2163 -0.5757 -0.5639
 4647TIP3    H113902   7.313   5.929   5.095 -0.5926  0.3714 -0.4421
 4647TIP3    H213903   7.463   5.945   5.104 -0.6017 -0.5596  1.9798
 4648TIP3   OH213904   2.132   0.197   0.054 -0.5634 -0.4832  0.0379
 4648TIP3    H113905   2.140   0.232   0.142 -1.8279  0.4047 -0.1705
 4648TIP3    H213906   2.064   0.250   0.012  1.0753  0.1452 -2.0093
 4649TIP3   OH213907   4.243   6.582   6.236  0.1210 -0.2072 -0.2487
 4649TIP3    H113908   4.259   6.676   6.232 -0.6978 -0.0729 -0.4561
 4649TIP3    H213909   4.225   6.557   6.145 -0.9065 -0.3347 -0.0174
 4650TIP3   OH213910   0.488   1.665   2.062  0.9697  0.1225  0.4598
 4650TIP3    H113911   0.541   1.597   2.104 -0.0521 -1.1424 -0.2312
 4650TIP3    H213912   0.550   1.716   2.011  2.1662  1.3195  2.9192
 4651TIP3   OH213913   2.087   3.721   3.420  0.2327  0.2601  0.1014
 4651TIP3    H113914   2.066   3.814   3.419 -1.8779 -0.1552  0.5776
 4651TIP3    H213915   2.163   3.712   3.363  0.0905  2.1783 -0.4352
 4652TIP3   OH213916   4.438   5.481   2.150  0.2441 -0.3949  0.2193
 4652TIP3    H113917   4.393   5.415   2.204 -1.1317  1.5953  1.6341
 4652TIP3    H213918   4.416   5.457   2.060 -1.0057 -1.3271  0.7342
 4653TIP3   OH213919   4.694   2.661   4.054 -0.2488 -0.3096 -0.2231
 4653TIP3    H113920   4.663   2.570   4.058  0.6676 -0.6348 -0.1716
 4653TIP3    H213921   4.642   2.701   3.985 -0.2297 -1.0509 -0.6745
 4654TIP3   OH213922   4.158   6.779   0.619  0.4271  0.4012 -0.5048
 4654TIP3    H113923   4.196   6.709   0.565  1.3179  1.3149 -1.1036
 4654TIP3    H213924   4.147   6.739   0.705  0.7427 -0.5370 -0.8866
 4655TIP3   OH213925   6.180   3.201   3.880  0.0173 -0.8103 -0.2732
 4655TIP3    H113926   6.138   3.280   3.915  0.3478 -0.3132 -0.9725
 4655TIP3    H213927   6.143   3.192   3.792 -0.4019 -1.7351 -0.0146
 4656TIP3   OH213928   1.096   7.162   5.769 -0.4597  0.2471 -0.0944
 4656TIP3    H113929   1.176   7.214   5.766  0.6882 -1.2148  2.1518
 4656TIP3    H213930   1.096   7.113   5.687  0.0049  1.5069 -0.8815
 4657TIP3   OH213931   0.921   7.114   3.114 -0.0043  0.3294  0.3206
 4657TIP3    H113932   0.856   7.166   3.066 -0.0574  0.5086  0.5827
 4657TIP3    H213933   0.948   7.171   3.186 -0.6727 -0.3147  1.1023
 4658TIP3   OH213934   6.741   2.615   3.240 -0.7683  0.7785 -0.2808
 4658TIP3    H113935   6.787   2.628   3.156  1.5930  0.7484  0.9321
 4658TIP3    H213936   6.671   2.554   3.219  1.4662 -1.5134 -1.7641
 4659TIP3   OH213937   5.329   5.779   6.152  0.2911 -0.5766 -0.2956
 4659TIP3    H113938   5.241   5.742   6.157 -0.1273  0.3661 -0.4883
 4659TIP3    H213939   5.381   5.712   6.109 -0.0270 -1.6843  0.9756
 4660TIP3   OH213940   3.099   2.981   1.177 -0.4622 -0.1810 -0.5629
 4660TIP3    H113941   3.042   2.917   1.136 -1.3816  1.5411 -2.1360
 4660TIP3    H213942   3.045   3.061   1.183  1.1897  0.9808 -0.3808
 4661TIP3   OH213943   0.466   6.821   0.114 -0.2069 -0.5683  0.1880
 4661TIP3    H113944   0.422   6.890   0.163  0.0388 -0.4031  0.1820
 4661TIP3    H213945   0.460   6.743   0.169  1.0170 -0.1241  0.9893
 4662TIP3   OH213946   3.981   2.270   2.883  0.2039  0.3516  0.2607
 4662TIP3    H113947   3.980   2.180   2.852 -1.4669 -0.1835  1.6608
 4662TIP3    H213948   3.890   2.287   2.910 -0.1975  3.3686 -2.4182
 4663TIP3   OH213949   4.650   5.367   5.938  0.4017  0.1319  0.2639
 4663TIP3    H113950   4.659   5.276   5.966  0.3072 -0.0752 -0.3612
 4663TIP3    H213951   4.635   5.362   5.844  0.3635  0.7950  0.2277
 4664TIP3   OH213952   4.297   1.272   1.148  0.1239  0.3276 -0.5964
 4664TIP3    H113953   4.301   1.367   1.138  0.7547  0.5639  1.3192
 4664TIP3    H213954   4.266   1.259   1.238 -1.0348 -1.3113 -1.1787
 4665TIP3   OH213955   3.995   0.685   5.716 -0.3575 -0.4859  0.2973
 4665TIP3    H113956   4.058   0.615   5.701  0.1916  0.1838 -0.6176
 4665TIP3    H213957   3.910   0.645   5.697 -0.1878 -1.2745  1.1265
 4666TIP3   OH213958   3.027   4.698   3.802 -0.0842 -0.1236 -0.5590
 4666TIP3    H113959   3.090   4.651   3.748 -2.3813 -2.5082 -1.3590
 4666TIP3    H213960   2.987   4.762   3.742 -1.5328 -1.7089 -1.3617
 4667TIP3   OH213961   6.016   5.647   1.197  0.5928  0.0043 -0.1017
 4667TIP3    H113962   6.059   5.725   1.232  0.9173 -0.6686  1.0243
 4667TIP3    H213963   5.936   5.638   1.249  0.2649 -0.0973 -0.6143
 4668TIP3   OH213964   5.013   2.076   2.269  0.0571  0.0817  0.2580
 4668TIP3    H113965   5.063   2.084   2.187 -0.7505 -0.8296 -0.3378
 4668TIP3    H213966   5.080   2.078   2.338  0.8311 -0.1753 -0.4710
 4669TIP3   OH213967   1.016   1.363   1.532  0.5492 -0.0136 -0.0710
 4669TIP3    H113968   0.979   1.347   1.446  1.1995 -1.8176 -0.0474
 4669TIP3    H213969   1.107   1.386   1.515  0.6108 -0.1061  0.1382
 4670TIP3   OH213970   1.391   6.885   2.226 -0.6730 -0.0429  0.6560
 4670TIP3    H113971   1.465   6.923   2.179 -0.4451  0.2518  1.2383
 4670TIP3    H213972   1.431   6.825   2.289 -1.0330 -1.2971 -0.2755
 4671TIP3   OH213973   0.454   4.795   1.263 -0.0408 -0.2386 -0.2541
 4671TIP3    H113974   0.443   4.702   1.247  0.7142 -0.2662 -0.6611
 4671TIP3    H213975   0.418   4.809   1.350 -0.3362 -0.8715 -0.2690
 4672TIP3   OH213976   4.021   3.771   2.650 -0.1878 -0.3543 -0.3320
 4672TIP3    H113977   3.962   3.818   2.709  0.4040 -1.2152  1.0108
 4672TIP3    H213978   4.012   3.679   2.675  2.0691 -0.4812  0.3058
 4673TIP3   OH213979   2.242   0.661   5.737 -0.3437  0.4739 -0.3306
 4673TIP3    H113980   2.195   0.722   5.794 -0.2757  1.8743 -1.6982
 4673TIP3    H213981   2.212   0.682   5.649  2.9045  1.6043 -1.3274
 4674TIP3   OH213982   3.955   2.381   4.755 -0.3470 -0.4498 -0.1283
 4674TIP3    H113983   4.013   2.315   4.715  1.2385  0.2566  0.8890
 4674TIP3    H213984   3.970   2.460   4.703  0.6849  0.1017  0.9570
 4675TIP3   OH213985   5.648   4.821   4.199  0.2040  0.0213  0.0681
 4675TIP3    H113986   5.612   4.769   4.127  1.3683 -0.7176 -0.0032
 4675TIP3    H213987   5.653   4.910   4.164 -0.4598 -0.0795 -0.3016
 4676TIP3   OH213988   1.773   2.117   2.762  0.1633  0.6677  0.0000
 4676TIP3    H113989   1.820   2.035   2.774  2.7410  2.3738  3.5299
 4676TIP3    H213990   1.684   2.098   2.794  0.1215 -1.1522 -1.0705
 4677TIP3   OH213991   3.674   6.005   2.396  0.5234  0.0273 -0.2249
 4677TIP3    H113992   3.677   5.911   2.414  0.3607 -0.3572 -2.0620
 4677TIP3    H213993   3.700   6.014   2.305  2.9129  2.0186  0.5447
 4678TIP3   OH213994   7.580   0.047   5.854 -0.1846  0.6919 -0.1093
 4678TIP3    H113995   7.556  -0.022   5.917 -0.2453 -0.3233 -1.2121
 4678TIP3    H213996   7.501   0.059   5.801  0.5337 -0.0151 -1.3729
 4679TIP3   OH213997   4.845   5.860   1.717  0.0090  0.0354 -0.7182
 4679TIP3    H113998   4.860   5.772   1.682  1.0235 -0.2138  0.2539
 4679TIP3    H213999   4.832   5.915   1.640  2.2894 -0.4523 -1.5307
 4680TIP3   OH214000   0.357   3.958   0.168 -0.5960  0.4227 -0.1194
 4680TIP3    H114001   0.445   3.921   0.172 -0.8567 -0.1212  1.2219
 4680TIP3    H214002   0.370   4.052   0.176 -0.0265  0.5584 -2.0295
 4681TIP3   OH214003   1.865   5.218   5.002 -0.0457  0.0566 -0.6852
 4681TIP3    H114004   1.802   5.209   5.073 -0.0787 -1.1776 -0.8488
 4681TIP3    H214005   1.946   5.248   5.044 -0.3730  0.4036 -0.2981
 4682TIP3   OH214006   0.291   1.202   0.296  0.1137  0.1396 -0.1324
 4682TIP3    H114007   0.272   1.258   0.372  1.3271  0.9896 -0.4260
 4682TIP3    H214008   0.219   1.139   0.294 -1.2568  1.6229  0.2668
 4683TIP3   OH214009   2.835   5.090   2.569  0.3790  0.5497  0.0164
 4683TIP3    H114010   2.823   5.039   2.490  1.2751 -1.1409  0.9187
 4683TIP3    H214011   2.772   5.161   2.562 -0.8434 -0.6213 -1.3488
 4684TIP3   OH214012   3.304   4.759   1.730  0.1217  0.0606  0.5508
 4684TIP3    H114013   3.263   4.840   1.699  1.8037  0.5618 -0.4719
 4684TIP3    H214014   3.235   4.715   1.780 -1.3968  1.2503 -0.4026
 4685TIP3   OH214015   1.859   0.357   2.799  0.2729 -0.4589 -0.1374
 4685TIP3    H114016   1.928   0.369   2.734  0.7469  0.4235  0.5076
 4685TIP3    H214017   1.798   0.295   2.758  1.7217 -1.7217 -0.5003
 4686TIP3   OH214018   4.532   2.193   5.907  0.3588 -0.3737 -0.7007
 4686TIP3    H114019   4.552   2.256   5.976 -0.2871  0.5317 -1.3244
 4686TIP3    H214020   4.514   2.111   5.955  0.2210  0.1596  0.1857
 4687TIP3   OH214021   3.352   5.819   3.911 -0.2294 -0.1046 -0.2706
 4687TIP3    H114022   3.365   5.732   3.948 -2.6366 -0.9815 -1.2877
 4687TIP3    H214023   3.387   5.813   3.822 -1.6232 -0.4917 -0.8113
 4688TIP3   OH214024   7.001   7.117   1.386  0.4871 -0.3965  0.3908
 4688TIP3    H114025   7.032   7.033   1.421  1.9478  0.3341  0.9330
 4688TIP3    H214026   7.033   7.119   1.296 -0.7957 -1.0273 -0.0982
 4689TIP3   OH214027   3.796   3.263   5.024 -0.0627 -0.3740  0.9163
 4689TIP3    H114028   3.814   3.209   4.947 -0.7822  0.0152  0.4602
 4689TIP3    H214029   3.875   3.315   5.036  0.4838 -1.2357  1.1216
 4690TIP3   OH214030   7.570   4.532   4.576 -0.5344  0.3672 -0.3565
 4690TIP3    H114031   7.491   4.504   4.622 -0.4674 -1.5494 -1.2943
 4690TIP3    H214032   7.542   4.604   4.521 -1.0505  1.3631  1.1582
 4691TIP3   OH214033   6.411   1.242   4.334  0.2017 -0.0634 -0.2369
 4691TIP3    H114034   6.404   1.291   4.416  0.2892 -0.9152  0.2884
 4691TIP3    H214035   6.497   1.201   4.338  0.1309 -0.2559 -0.6823
 4692TIP3   OH214036   5.880   5.814   1.414  0.0450  0.4879 -0.7724
 4692TIP3    H114037   5.807   5.818   1.476  0.7867  0.1167  0.1515
 4692TIP3    H214038   5.920   5.901   1.418  1.0872 -0.0115  0.5475
 4693TIP3   OH214039   6.954   4.300   2.032  0.7982 -0.6624 -0.3853
 4693TIP3    H114040   6.978   4.375   1.977 -0.7570  0.5306  0.4969
 4693TIP3    H214041   6.974   4.328   2.121 -1.7035 -0.3959  0.1838
 4694TIP3   OH214042   4.943   4.328   4.340  0.3398  0.0376  0.2942
 4694TIP3    H114043   5.028   4.285   4.354  0.0026 -0.5781  0.4672
 4694TIP3    H214044   4.880   4.270   4.383 -0.3563 -0.2858 -1.1349
 4695TIP3   OH214045   3.800   3.328   2.269 -0.2085 -0.0727  0.2216
 4695TIP3    H114046   3.790   3.392   2.339  2.9968  0.7651  0.1220
 4695TIP3    H214047   3.779   3.244   2.309  1.0234  0.4400  2.1032
 4696TIP3   OH214048   4.213   3.410   4.592 -0.0560 -0.3043 -0.1184
 4696TIP3    H114049   4.260   3.327   4.588 -1.7150 -1.2834 -0.5034
 4696TIP3    H214050   4.146   3.402   4.524 -0.3308  1.3121 -0.0683
 4697TIP3   OH214051   5.524   4.154   2.531  0.3911  0.4627 -0.0102
 4697TIP3    H114052   5.433   4.172   2.508  0.2751  0.5118  0.4879
 4697TIP3    H214053   5.568   4.141   2.447  0.0999  1.2971 -0.3021
 4698TIP3   OH214054   5.550   4.355   0.386 -0.0623 -0.0763  0.8392
 4698TIP3    H114055   5.531   4.439   0.429 -0.9303  1.1868 -1.7942
 4698TIP3    H214056   5.639   4.366   0.352  1.2539 -1.6664  3.4529
 4699TIP3   OH214057   3.324   0.669   0.278  0.1642  0.0311 -0.4616
 4699TIP3    H114058   3.277   0.744   0.241 -0.1676  0.2902  0.4614
 4699TIP3    H214059   3.312   0.599   0.213 -1.6736  0.0246 -0.1874
 4700TIP3   OH214060   2.785   6.259   6.127 -0.4334  0.0834  0.3315
 4700TIP3    H114061   2.821   6.251   6.038 -1.2696 -0.0751  0.0050
 4700TIP3    H214062   2.750   6.348   6.131  1.9415  1.0649  1.4004
 4701TIP3   OH214063   0.103   4.900   2.162  1.1473  0.3374  0.0386
 4701TIP3    H114064   0.139   4.824   2.208  0.2672 -1.0219 -1.4071
 4701TIP3    H214065   0.008   4.890   2.171  1.0255  1.4080  0.0302
 4702TIP3   OH214066   4.967   5.837   4.287  0.1529  0.3144 -0.2581
 4702TIP3    H114067   4.964   5.872   4.198 -0.1983 -1.0424 -0.8086
 4702TIP3    H214068   4.900   5.886   4.335  1.0267  1.7464 -0.4608
 4703TIP3   OH214069   0.867   3.667   2.807  0.1105 -1.2264  0.1037
 4703TIP3    H114070   0.871   3.614   2.727 -1.5739 -1.4552  0.1368
 4703TIP3    H214071   0.794   3.630   2.857 -0.5989  0.5870  0.5029
 4704TIP3   OH214072   0.821   4.822   0.186 -0.1492 -0.0041  0.1219
 4704TIP3    H114073   0.731   4.792   0.196 -0.4938  0.9061 -0.1850
 4704TIP3    H214074   0.863   4.756   0.131 -0.0832 -1.4669  1.8233
 4705TIP3   OH214075   2.285   0.863   5.932 -0.8875  0.1352 -0.2297
 4705TIP3    H114076   2.377   0.839   5.923 -0.8184  1.0928 -2.9092
 4705TIP3    H214077   2.285   0.959   5.930 -1.8518  0.2327  1.6473
 4706TIP3   OH214078   1.108   3.109   3.858 -0.4964 -0.0287 -0.4873
 4706TIP3    H114079   1.111   3.053   3.936  0.5066  1.9051  0.9589
 4706TIP3    H214080   1.162   3.064   3.794 -1.3205 -1.6630 -0.0783
 4707TIP3   OH214081   5.233   5.861   3.936 -0.1955 -0.7381 -0.6049
 4707TIP3    H114082   5.193   5.800   3.874  0.2388 -4.6953  2.5647
 4707TIP3    H214083   5.315   5.818   3.962  1.3365  2.4065  0.2443
 4708TIP3   OH214084   6.789   6.559   1.428  0.3505 -0.1994  0.0353
 4708TIP3    H114085   6.723   6.492   1.442  0.9159 -0.4894  1.5419
 4708TIP3    H214086   6.775   6.622   1.499  0.6506  0.5814 -0.5898
 4709TIP3   OH214087   3.272   1.151   3.360 -0.1305  0.1344  0.2332
 4709TIP3    H114088   3.200   1.198   3.401  0.5593  0.5750  0.9718
 4709TIP3    H214089   3.235   1.066   3.337 -1.4549  1.0775 -1.3219
 4710TIP3   OH214090   2.863   1.628   2.532 -0.3121  0.1455  0.3043
 4710TIP3    H114091   2.892   1.716   2.510 -0.5302  0.4406  1.1293
 4710TIP3    H214092   2.938   1.572   2.511  0.4908  0.7557  1.4122
 4711TIP3   OH214093   7.592   0.544   3.234  0.4037 -0.1745 -0.1888
 4711TIP3    H114094   7.561   0.511   3.318  1.7128  0.1170  0.4384
 4711TIP3    H214095   7.623   0.633   3.253  1.1721 -0.2838 -0.8583
 4712TIP3   OH214096   6.598   0.420   2.412 -0.6722  0.6323  0.0461
 4712TIP3    H114097   6.679   0.397   2.365 -0.6624 -1.5423  1.0225
 4712TIP3    H214098   6.628   0.449   2.499 -0.9483 -2.1225  1.1405
 4713TIP3   OH214099   6.627   1.358   3.170  0.0360  0.0588  0.1237
 4713TIP3    H114100   6.552   1.323   3.121  0.3874 -1.2102  0.4513
 4713TIP3    H214101   6.697   1.366   3.104 -0.2231  0.7570 -0.0768
 4714TIP3   OH214102   3.453   1.692   3.436 -0.3346 -0.0745 -0.2921
 4714TIP3    H114103   3.375   1.707   3.382 -1.6291  5.7327  2.3970
 4714TIP3    H214104   3.418   1.682   3.525  1.9957 -1.4863  0.5570
 4715TIP3   OH214105   5.181   3.325   3.532  0.9500  0.1704 -0.0341
 4715TIP3    H114106   5.189   3.361   3.621 -2.3705 -1.8022  1.2635
 4715TIP3    H214107   5.107   3.371   3.494  2.6349  1.3371 -2.1001
 4716TIP3   OH214108   5.651   2.564   3.796 -0.2971  0.2376 -0.9137
 4716TIP3    H114109   5.608   2.628   3.852  0.4372  0.5789 -0.7212
 4716TIP3    H214110   5.677   2.493   3.856 -1.3521 -0.3790 -1.1701
 4717TIP3   OH214111   4.812   5.097   4.404 -0.1775 -0.3833 -0.2640
 4717TIP3    H114112   4.729   5.131   4.370 -1.0668 -1.9800  0.1853
 4717TIP3    H214113   4.857   5.061   4.328  0.8369  1.7922 -0.7686
 4718TIP3   OH214114   0.669   3.523   2.925 -0.4554 -0.3295  0.4280
 4718TIP3    H114115   0.641   3.505   3.015  0.7824 -2.9555  0.3759
 4718TIP3    H214116   0.629   3.453   2.873 -0.2215  0.4905 -0.9044
 4719TIP3   OH214117   5.119   0.971   2.062 -0.0880  0.0168  0.0783
 4719TIP3    H114118   5.102   1.014   1.978  1.8319 -1.7923 -1.3351
 4719TIP3    H214119   5.035   0.975   2.108 -1.0684  1.5008 -1.6953
 4720TIP3   OH214120   2.435   2.812   1.641 -0.5233 -0.0237 -0.7642
 4720TIP3    H114121   2.456   2.719   1.652 -1.8187 -0.3076 -0.4693
 4720TIP3    H214122   2.392   2.817   1.556 -2.8020 -0.1856  0.2963
 4721TIP3   OH214123   4.175   5.352   2.794  0.6447 -0.2715 -0.6986
 4721TIP3    H114124   4.207   5.433   2.753  1.3980 -0.4076 -0.4039
 4721TIP3    H214125   4.095   5.331   2.747 -0.2931  1.3630  0.0961
 4722TIP3   OH214126   7.018   4.952   4.735  0.3186  0.2071  0.1083
 4722TIP3    H114127   7.100   4.947   4.786  0.0007  0.3529  0.6440
 4722TIP3    H214128   6.975   4.868   4.752 -0.2922  0.6798  0.9571
 4723TIP3   OH214129   0.733   5.980   2.475  0.5918  0.0244  0.2655
 4723TIP3    H114130   0.642   6.007   2.472  0.8818  0.9741 -0.3303
 4723TIP3    H214131   0.730   5.884   2.472 -0.4039  0.0059  1.1843
 4724TIP3   OH214132   3.718   6.166   2.635 -0.1313 -0.1729 -0.7796
 4724TIP3    H114133   3.735   6.095   2.573 -0.6647 -0.4187 -0.6519
 4724TIP3    H214134   3.650   6.219   2.592  0.5352  0.4779 -1.0437
 4725TIP3   OH214135   5.073   3.235   0.028 -0.2068  0.2770  0.0059
 4725TIP3    H114136   5.049   3.327   0.021  0.0896  0.3820  0.3004
 4725TIP3    H214137   5.169   3.236   0.034 -0.2816  0.1137  2.1699
 4726TIP3   OH214138   3.162   2.316   6.065  0.0787 -0.1875 -0.0076
 4726TIP3    H114139   3.219   2.262   6.010 -0.4855 -0.2068 -0.5797
 4726TIP3    H214140   3.219   2.386   6.097 -0.1307  1.3935 -2.7556
 4727TIP3   OH214141   4.179   5.496   4.581  0.0890  0.2115  0.0321
 4727TIP3    H114142   4.113   5.430   4.602  0.2160  0.1289  0.1682
 4727TIP3    H214143   4.234   5.501   4.659 -0.7796  1.5073  0.5962
 4728TIP3   OH214144   4.479   5.255   1.860 -0.1281 -0.3158  0.0747
 4728TIP3    H114145   4.556   5.312   1.871  0.3357 -1.1020  1.0624
 4728TIP3    H214146   4.495   5.182   1.920 -2.5289  0.4047  1.7339
 4729TIP3   OH214147   5.111   0.150   1.435  0.1196 -0.2663  0.1311
 4729TIP3    H114148   5.120   0.214   1.364  1.2576 -0.1235  0.3875
 4729TIP3    H214149   5.056   0.194   1.499 -1.1654 -0.5057 -0.7679
 4730TIP3   OH214150   4.868   0.057   2.655  0.4440  0.0550 -0.1957
 4730TIP3    H114151   4.808  -0.013   2.629 -0.2010  1.0803 -1.6280
 4730TIP3    H214152   4.949   0.012   2.678 -0.4250 -1.2672  0.4385
 4731TIP3   OH214153   1.839   2.206   3.367  0.3327 -1.3197 -0.0392
 4731TIP3    H114154   1.852   2.185   3.275 -1.7487 -1.3392 -0.3699
 4731TIP3    H214155   1.775   2.142   3.398  0.2708 -0.7077  1.1786
 4732TIP3   OH214156   3.980   0.154   1.647  0.0364  0.1675  0.0765
 4732TIP3    H114157   3.995   0.239   1.606  3.4751  0.4907  1.6856
 4732TIP3    H214158   3.942   0.100   1.577 -0.2243  2.3883 -1.6087
 4733TIP3   OH214159   2.801   2.667   4.153  0.6044  0.0013 -0.2059
 4733TIP3    H114160   2.728   2.708   4.106  0.0237  0.4530  1.0593
 4733TIP3    H214161   2.770   2.658   4.243  2.0193 -0.0327  0.2976
 4734TIP3   OH214162   0.824   3.565   4.926 -0.0920  0.8349  0.7975
 4734TIP3    H114163   0.749   3.509   4.949 -1.4075  2.2617  0.1340
 4734TIP3    H214164   0.834   3.623   5.001 -0.5978  1.5939  0.2922
 4735TIP3   OH214165   3.194   1.874   1.287  0.5093  0.1540 -0.3260
 4735TIP3    H114166   3.123   1.908   1.342  0.6475 -0.5744  0.3146
 4735TIP3    H214167   3.160   1.883   1.197  0.7781  2.5137 -0.2578
 4736TIP3   OH214168   6.949   5.244   0.475  0.0612  0.0557 -0.2239
 4736TIP3    H114169   6.883   5.299   0.516  0.1728  1.0280 -1.3041
 4736TIP3    H214170   7.031   5.293   0.484  0.3848 -0.4783 -0.1744
 4737TIP3   OH214171   1.931   5.937   2.253  0.0973  0.5225 -0.8173
 4737TIP3    H114172   1.838   5.945   2.273  0.1152 -0.2387 -0.3911
 4737TIP3    H214173   1.967   5.887   2.327  0.7836  0.5361 -1.1371
 4738TIP3   OH214174   6.521   3.502   3.025  0.1657 -0.0197 -0.3591
 4738TIP3    H114175   6.468   3.576   3.055  0.5984  0.0661  0.2270
 4738TIP3    H214176   6.464   3.426   3.036  0.2009  0.0511  0.4243
 4739TIP3   OH214177   1.669   0.684   2.279 -0.5766 -0.3140 -0.1768
 4739TIP3    H114178   1.648   0.777   2.277 -1.0291 -0.4260 -1.4642
 4739TIP3    H214179   1.742   0.674   2.218 -0.3893 -0.7663  0.1164
 4740TIP3   OH214180   2.535   6.734   4.765 -0.0065 -0.1596  0.3996
 4740TIP3    H114181   2.446   6.763   4.746 -0.4827 -2.0847 -0.4972
 4740TIP3    H214182   2.587   6.762   4.690 -0.1109 -0.1686  0.3246
 4741TIP3   OH214183   6.158   6.939   4.370  0.0894  0.5833  0.0694
 4741TIP3    H114184   6.135   6.887   4.293 -1.9043  1.3680  0.0704
 4741TIP3    H214185   6.233   6.991   4.343  0.4877 -0.3841 -0.7646
 4742TIP3   OH214186   4.127   2.101   4.160  0.2417 -0.4549  0.1625
 4742TIP3    H114187   4.151   2.059   4.243 -0.0795 -0.4767  0.2478
 4742TIP3    H214188   4.038   2.134   4.175  1.1193  1.8178  0.6933
 4743TIP3   OH214189   3.239   5.328   5.798 -0.1808 -0.7388  0.2594
 4743TIP3    H114190   3.326   5.362   5.775 -0.5469 -1.0399 -1.7144
 4743TIP3    H214191   3.251   5.233   5.801 -0.3276 -0.7481  0.5419
 4744TIP3   OH214192   3.121   5.114   4.704  0.2035 -0.7096  0.3228
 4744TIP3    H114193   3.104   5.172   4.629  0.3710 -0.7433  0.2585
 4744TIP3    H214194   3.034   5.088   4.734 -0.0503  1.7883  2.0903
 4745TIP3   OH214195   7.161   2.399   0.502  0.6148  0.3662 -0.2111
 4745TIP3    H114196   7.210   2.376   0.581 -0.4247  1.7148  0.8711
 4745TIP3    H214197   7.102   2.325   0.488 -0.5440  0.9273  1.4353
 4746TIP3   OH214198   0.839   4.883   6.049 -0.1728 -0.3208  0.2791
 4746TIP3    H114199   0.878   4.880   6.137 -0.4765  0.1748  0.4358
 4746TIP3    H214200   0.812   4.793   6.032 -0.2046 -0.3997  0.7359
 4747TIP3   OH214201   6.211   2.916   0.680  0.2432 -0.4430 -0.2276
 4747TIP3    H114202   6.258   2.858   0.620 -0.2203 -0.0445 -0.9905
 4747TIP3    H214203   6.258   2.999   0.676 -0.5851  0.0063 -1.1126
 4748TIP3   OH214204   4.468   4.996   2.298  0.5512  0.1260 -0.3729
 4748TIP3    H114205   4.503   5.036   2.378  1.2074  0.7994 -0.9837
 4748TIP3    H214206   4.541   4.947   2.262  0.6727  0.9302 -1.2637
 4749TIP3   OH214207   6.308   4.209   2.688  0.7044 -0.2764 -0.0015
 4749TIP3    H114208   6.360   4.132   2.713 -0.4533 -0.4437  2.0611
 4749TIP3    H214209   6.323   4.272   2.758  0.3223  0.7520 -0.8263
 4750TIP3   OH214210   6.326   3.342   0.251 -0.7333  0.5779 -0.0298
 4750TIP3    H114211   6.302   3.433   0.268 -2.4133 -0.3558  3.6260
 4750TIP3    H214212   6.243   3.297   0.237 -0.2994 -0.9041  1.6835
 4751TIP3   OH214213   5.039   7.060   6.173  0.5910 -0.5365 -0.1637
 4751TIP3    H114214   5.131   7.036   6.166  1.0987  1.0420  0.6647
 4751TIP3    H214215   5.029   7.094   6.262 -0.9834 -1.3907  0.0278
 4752TIP3   OH214216   2.227   3.608   2.177 -0.3793  0.3497  0.0848
 4752TIP3    H114217   2.311   3.594   2.134  0.5522  0.1775  1.8947
 4752TIP3    H214218   2.167   3.548   2.132  0.2047  1.0979 -1.8187
 4753TIP3   OH214219   7.039   3.916   0.188  0.3755 -0.0542  0.3773
 4753TIP3    H114220   7.101   3.967   0.239  0.1980  0.2671  0.2755
 4753TIP3    H214221   6.980   3.981   0.150  1.3550 -0.1336 -1.4182
 4754TIP3   OH214222   5.056   3.846   6.119 -0.2645  0.1165  0.4262
 4754TIP3    H114223   5.096   3.819   6.036 -0.1964 -0.5527  0.6625
 4754TIP3    H214224   5.027   3.763   6.159  2.3547  0.0462  2.4349
 4755TIP3   OH214225   1.022   2.906   3.498  0.0407 -0.0002 -0.1127
 4755TIP3    H114226   1.070   2.921   3.579  1.0219  0.9679 -0.8373
 4755TIP3    H214227   1.083   2.855   3.444 -0.9080 -1.3338  0.0257
 4756TIP3   OH214228   6.593   1.173   0.437 -0.4489 -0.1029  0.6273
 4756TIP3    H114229   6.660   1.238   0.416 -1.3010  0.6131 -0.0047
 4756TIP3    H214230   6.598   1.163   0.532  0.5853 -0.1182  0.5830
 4757TIP3   OH214231   1.289   3.697   0.099 -0.0675  0.1238  0.8562
 4757TIP3    H114232   1.224   3.634   0.070  0.0294  0.2564  0.3490
 4757TIP3    H214233   1.248   3.782   0.085  1.0708  0.3391 -1.7188
 4758TIP3   OH214234   4.525   5.538   4.579 -0.2033  0.2551 -0.2984
 4758TIP3    H114235   4.599   5.536   4.639 -0.8112  0.0605  0.4586
 4758TIP3    H214236   4.521   5.450   4.542 -0.7478 -0.0854  0.5365
 4759TIP3   OH214237   2.840   0.257   2.023  0.1823 -0.6478 -0.2581
 4759TIP3    H114238   2.886   0.219   1.948 -2.6251 -0.3724 -2.2987
 4759TIP3    H214239   2.869   0.348   2.025  2.1434 -1.2434  0.6420
 4760TIP3   OH214240   6.880   0.946   2.035  0.2182  0.7229  0.0378
 4760TIP3    H114241   6.827   0.948   2.114  1.9790 -0.0841  1.3119
 4760TIP3    H214242   6.829   0.894   1.973 -0.4286 -0.1359  1.2562
 4761TIP3   OH214243   6.236   6.717   1.244 -0.4742 -0.1698  0.2707
 4761TIP3    H114244   6.238   6.811   1.229  2.3325 -0.2273 -0.4107
 4761TIP3    H214245   6.214   6.680   1.159 -1.0130 -0.1375  0.3969
 4762TIP3   OH214246   6.819   1.892   3.671  0.2649 -0.3097  0.1176
 4762TIP3    H114247   6.766   1.837   3.729  0.1154 -0.3563 -0.0632
 4762TIP3    H214248   6.899   1.840   3.656  0.4664 -0.1425  0.5719
 4763TIP3   OH214249   0.644   7.064   4.083 -0.0213 -0.1740 -0.4822
 4763TIP3    H114250   0.666   6.990   4.026 -1.4582 -0.7219 -0.3667
 4763TIP3    H214251   0.728   7.094   4.117  0.7173 -0.8685 -1.6138
 4764TIP3   OH214252   4.270   6.586   0.830 -0.1028  0.0423  0.1844
 4764TIP3    H114253   4.250   6.493   0.822 -0.3558 -0.3305  3.6083
 4764TIP3    H214254   4.348   6.589   0.885 -0.8310  1.8468  1.2075
 4765TIP3   OH214255   0.543   5.796   2.742  0.0529  1.0535 -0.3443
 4765TIP3    H114256   0.499   5.711   2.752  1.2814  0.4187 -0.1498
 4765TIP3    H214257   0.607   5.782   2.672  1.8531  1.1214  1.2095
 4766TIP3   OH214258   4.759   1.966   4.805 -0.4222 -0.2922  0.9258
 4766TIP3    H114259   4.834   1.908   4.790 -0.6850 -0.7679  1.4087
 4766TIP3    H214260   4.736   1.997   4.717 -0.9557 -1.7957  0.4974
 4767TIP3   OH214261   0.378   3.966   4.970  0.0033  0.1223 -0.0470
 4767TIP3    H114262   0.332   3.968   5.054 -1.7258 -0.8762 -0.9067
 4767TIP3    H214263   0.465   4.001   4.989 -0.1950 -0.4723  2.2372
 4768TIP3   OH214264   3.743   5.532   5.289  0.0141  0.1915 -0.2887
 4768TIP3    H114265   3.762   5.622   5.314 -1.0019  1.0002 -2.2033
 4768TIP3    H214266   3.726   5.536   5.195 -0.4376 -1.9432 -0.3538
 4769TIP3   OH214267   5.094   6.359   4.916 -0.0664  0.3704 -0.7402
 4769TIP3    H114268   5.170   6.314   4.881 -0.5119 -2.3424  1.3996
 4769TIP3    H214269   5.019   6.315   4.876 -0.5098 -0.3880  0.8302
 4770TIP3   OH214270   2.341   7.107   0.305  0.7582  0.3128  0.2106
 4770TIP3    H114271   2.340   7.011   0.308  1.2644  0.2952  3.1359
 4770TIP3    H214272   2.275   7.130   0.240 -0.3365 -2.0238  0.3868
 4771TIP3   OH214273   5.336   6.406   2.179 -0.1266 -0.2247  0.4395
 4771TIP3    H114274   5.381   6.365   2.253  0.6592 -0.8221 -0.3427
 4771TIP3    H214275   5.244   6.384   2.192  0.1709 -1.5688  0.4784
 4772TIP3   OH214276   1.863   5.068   3.415  0.2862  0.2164  0.2397
 4772TIP3    H114277   1.894   4.981   3.388  0.2944  0.4872 -0.6428
 4772TIP3    H214278   1.943   5.118   3.429  0.3201 -0.2387  1.9177
 4773TIP3   OH214279   3.836   4.524   0.539  0.0987 -0.3614  0.4730
 4773TIP3    H114280   3.782   4.578   0.596  2.1329 -0.6373  2.8007
 4773TIP3    H214281   3.855   4.580   0.464  0.5957  1.4914  1.9313
 4774TIP3   OH214282   3.202   5.137   1.032 -0.5425  0.2088 -0.0383
 4774TIP3    H114283   3.173   5.204   0.970 -1.1978 -0.0608 -0.0285
 4774TIP3    H214284   3.140   5.144   1.105 -0.7755 -0.5872 -0.1557
 4775TIP3   OH214285   5.066   6.151   0.549 -0.5102 -0.4907  0.1205
 4775TIP3    H114286   4.998   6.096   0.510 -1.2011 -0.4592  1.2283
 4775TIP3    H214287   5.069   6.229   0.493  0.3484 -1.5467 -1.3516
 4776TIP3   OH214288   3.196   1.815   2.750 -0.3964 -0.5281 -0.2484
 4776TIP3    H114289   3.158   1.733   2.782  0.8082 -1.4563 -1.1064
 4776TIP3    H214290   3.173   1.879   2.817 -0.9122 -1.6799  0.7219
 4777TIP3   OH214291   6.748   1.442   4.918  0.1089 -0.0756 -0.3709
 4777TIP3    H114292   6.719   1.385   4.989 -0.2110  1.2004  0.5670
 4777TIP3    H214293   6.803   1.507   4.961  0.4631  0.3199 -1.4074
 4778TIP3   OH214294   4.678   7.146   1.460 -0.7473 -0.7666  0.3721
 4778TIP3    H114295   4.655   7.169   1.369  2.6323 -0.1673 -0.4888
 4778TIP3    H214296   4.704   7.054   1.455  2.2426 -0.0165 -0.0613
 4779TIP3   OH214297   4.979   4.211   2.711 -0.8200 -0.3453  0.1921
 4779TIP3    H114298   4.957   4.218   2.804  1.7695  1.3862  0.7718
 4779TIP3    H214299   5.070   4.182   2.710 -0.6995  0.0104 -1.7992
 4780TIP3   OH214300   7.536   2.374   0.477 -0.5171  0.0798  0.1820
 4780TIP3    H114301   7.513   2.282   0.468  1.2841 -0.5983  1.9028
 4780TIP3    H214302   7.509   2.398   0.565  2.9606 -0.1390  1.4501
 4781TIP3   OH214303   0.988   3.243   1.966 -0.6368 -0.1600 -0.2332
 4781TIP3    H114304   1.035   3.232   1.884 -0.0712  0.7683 -0.0454
 4781TIP3    H214305   0.897   3.257   1.940 -0.8179 -1.8225 -0.6007
 4782TIP3   OH214306   6.951   0.070   0.099 -0.3140  0.1647  0.0964
 4782TIP3    H114307   6.978   0.020   0.176  0.5558 -0.4879 -0.6097
 4782TIP3    H214308   6.876   0.022   0.065  1.5093 -1.7636 -1.5485
 4783TIP3   OH214309   0.232   5.560   3.448  0.4813 -0.0618  0.4305
 4783TIP3    H114310   0.248   5.544   3.541 -0.1441 -2.8135  0.1426
 4783TIP3    H214311   0.150   5.609   3.447  0.9783  0.8401  1.3285
 4784TIP3   OH214312   3.923   1.703   6.127  0.0867 -0.3254 -0.3298
 4784TIP3    H114313   3.997   1.687   6.067  1.3927  1.4036  0.7329
 4784TIP3    H214314   3.877   1.778   6.089 -0.7252 -0.9417 -0.5955
 4785TIP3   OH214315   4.826   1.980   2.505  0.2362  0.4382 -0.0992
 4785TIP3    H114316   4.793   1.891   2.518 -1.7963  1.0950 -0.4637
 4785TIP3    H214317   4.830   2.017   2.594  0.1543  0.2983 -0.0363
 4786TIP3   OH214318   0.848   5.374   2.788  0.7696 -0.0117 -0.8708
 4786TIP3    H114319   0.815   5.388   2.699  0.2508  0.3599 -0.6276
 4786TIP3    H214320   0.901   5.451   2.807 -0.2508  0.5948 -0.3604
 4787TIP3   OH214321   0.126   5.873   4.426 -0.0929 -0.8874  0.4638
 4787TIP3    H114322   0.117   5.852   4.519 -0.6985  0.9185  0.8692
 4787TIP3    H214323   0.051   5.830   4.384 -0.9701 -0.0866  1.1592
 4788TIP3   OH214324   4.074   2.024   3.880 -0.3190 -0.3931 -0.1569
 4788TIP3    H114325   4.127   2.035   3.959  2.6743  0.7818 -2.1305
 4788TIP3    H214326   4.109   1.946   3.839 -0.7369 -0.1025 -1.0896
 4789TIP3   OH214327   5.472   4.851   4.903  0.8226  0.0917 -0.2379
 4789TIP3    H114328   5.401   4.911   4.878  1.0127  1.0467  1.3883
 4789TIP3    H214329   5.432   4.792   4.967  0.7423 -1.3323 -1.5458
 4790TIP3   OH214330   1.917   1.643   2.423  0.0627  0.1328 -0.0004
 4790TIP3    H114331   2.001   1.687   2.408  0.2263 -0.4437 -0.8794
 4790TIP3    H214332   1.892   1.609   2.337 -0.1696 -1.2858  0.5949
 4791TIP3   OH214333   0.726   1.481   5.407  0.0965 -0.3788 -0.1372
 4791TIP3    H114334   0.696   1.391   5.405  0.6272 -0.5455 -0.7159
 4791TIP3    H214335   0.813   1.477   5.447  0.4872 -0.2323 -0.9682
 4792TIP3   OH214336   3.595   3.686   0.215  0.4182 -0.3955  0.4969
 4792TIP3    H114337   3.517   3.631   0.211  1.1801 -1.5982  1.4116
 4792TIP3    H214338   3.646   3.660   0.138 -0.6235  1.3277 -0.8513
 4793TIP3   OH214339   1.670   5.925   2.324  0.0013 -0.1364  0.2662
 4793TIP3    H114340   1.670   6.014   2.359  0.2576  0.4118 -1.0666
 4793TIP3    H214341   1.578   5.900   2.323 -0.4632  1.3568 -2.2800
 4794TIP3   OH214342   0.288   2.994   2.296  0.4107  0.0530 -0.3479
 4794TIP3    H114343   0.275   2.899   2.295 -2.3465  0.3503 -0.4997
 4794TIP3    H214344   0.306   3.015   2.387 -2.8921 -0.2827  0.5007
 4795TIP3   OH214345   5.010   4.302   3.532 -0.0034  0.7495  0.0823
 4795TIP3    H114346   5.021   4.236   3.463 -0.7321  1.5417 -0.8223
 4795TIP3    H214347   4.925   4.284   3.570  0.3459  0.3913  0.7150
 4796TIP3   OH214348   3.493   6.102   1.842 -0.4785  0.1350  0.7386
 4796TIP3    H114349   3.471   6.190   1.811 -0.4883 -0.0608  0.1701
 4796TIP3    H214350   3.525   6.057   1.763 -0.4754 -0.3679  1.0264
 4797TIP3   OH214351   3.322   5.875   5.308  0.0925  0.0702 -0.4640
 4797TIP3    H114352   3.263   5.817   5.261 -1.5606  1.9591 -0.8815
 4797TIP3    H214353   3.316   5.847   5.399 -1.1335 -0.0633 -0.5734
 4798TIP3   OH214354   6.135   3.104   6.022 -0.2510  0.5812  0.3048
 4798TIP3    H114355   6.214   3.109   6.076 -0.7688 -0.6059  1.2269
 4798TIP3    H214356   6.102   3.194   6.019  0.9838  1.0500  0.1041
 4799TIP3   OH214357   3.486   6.508   3.547  0.5050  0.1195 -0.0487
 4799TIP3    H114358   3.457   6.422   3.515  1.1243 -0.4145  0.7669
 4799TIP3    H214359   3.449   6.514   3.635 -3.6182  2.7916 -1.6585
 4800TIP3   OH214360   0.247   5.412   3.748 -0.6498 -0.4811 -0.1305
 4800TIP3    H114361   0.176   5.374   3.800 -0.7710 -0.5843 -0.3705
 4800TIP3    H214362   0.274   5.342   3.688 -2.2821  0.4155 -2.0337
 4801TIP3   OH214363   4.552   5.723   0.052 -0.0863 -0.3442 -0.2105
 4801TIP3    H114364   4.544   5.813   0.021 -1.0229 -0.8504 -1.5626
 4801TIP3    H214365   4.646   5.705   0.050  0.2034  0.9097  1.0821
 4802TIP3   OH214366   3.314   0.791   6.138 -0.2360 -0.1276 -0.1264
 4802TIP3    H114367   3.361   0.821   6.216  0.3440 -0.1433 -0.4671
 4802TIP3    H214368   3.375   0.805   6.066 -1.2394  1.1791 -0.7868
 4803TIP3   OH214369   6.106   6.934   3.676  0.8936 -0.0501 -0.3445
 4803TIP3    H114370   6.089   6.874   3.604 -0.4552  1.3325 -1.2576
 4803TIP3    H214371   6.059   6.897   3.750 -0.4433  0.1439 -1.0601
 4804TIP3   OH214372   0.472   2.402   0.266  0.7427  0.5944  0.0498
 4804TIP3    H114373   0.424   2.436   0.191  2.5475  0.6615 -1.1353
 4804TIP3    H214374   0.406   2.355   0.318 -0.8028  1.6711 -0.8532
 4805TIP3   OH214375   6.044   2.887   4.107 -0.7363 -0.1248  0.1485
 4805TIP3    H114376   5.959   2.930   4.114 -0.7018 -0.2779  1.7669
 4805TIP3    H214377   6.035   2.808   4.159 -0.1166 -1.0213 -1.0642
 4806TIP3   OH214378   3.813   6.133   0.923 -0.6679 -0.8642  0.0475
 4806TIP3    H114379   3.894   6.082   0.917 -0.9761 -1.2816 -0.5507
 4806TIP3    H214380   3.842   6.224   0.919 -0.0841 -0.9528  1.4533
 4807TIP3   OH214381   4.412   6.399   5.132  0.3540  0.2192 -0.3485
 4807TIP3    H114382   4.396   6.492   5.150 -0.0294  0.0814  0.0352
 4807TIP3    H214383   4.337   6.354   5.171  0.5126 -0.2474 -0.5829
 4808TIP3   OH214384   2.775   5.612   2.312  0.9603  0.0473 -0.1107
 4808TIP3    H114385   2.729   5.696   2.314  1.4068  0.2971 -0.1411
 4808TIP3    H214386   2.712   5.549   2.346  0.2098  0.1872 -1.1844
 4809TIP3   OH214387   5.268   4.198   2.424  0.2278 -0.4608  0.6107
 4809TIP3    H114388   5.214   4.122   2.404 -1.0062  0.6504 -0.4756
 4809TIP3    H214389   5.230   4.269   2.372  2.8853  0.3379 -0.4082
 4810TIP3   OH214390   3.838   3.669   3.102  0.1262  0.5940 -0.0916
 4810TIP3    H114391   3.800   3.756   3.116  1.3068  0.9958  0.7568
 4810TIP3    H214392   3.782   3.611   3.153 -1.4772  0.6227 -1.7255
 4811TIP3   OH214393   5.905   3.204   2.092 -0.1642  0.5805  0.0093
 4811TIP3    H114394   5.856   3.283   2.113 -0.0820  0.1864  1.7725
 4811TIP3    H214395   5.899   3.197   1.996 -0.5233  2.4689 -0.1381
 4812TIP3   OH214396   6.018   2.477   2.157 -0.1238  0.4565 -0.5526
 4812TIP3    H114397   6.028   2.567   2.126 -2.5584  1.0888  0.2126
 4812TIP3    H214398   5.940   2.479   2.213  1.1766 -1.6441  1.5429
 4813TIP3   OH214399   5.292   5.465   1.187  0.0757 -0.4167 -0.3666
 4813TIP3    H114400   5.296   5.517   1.267 -1.5209 -0.3931 -0.2795
 4813TIP3    H214401   5.293   5.529   1.116 -1.9130 -0.2044 -0.2589
 4814TIP3   OH214402   6.542   3.958   4.910 -0.1204 -0.6587  0.7549
 4814TIP3    H114403   6.637   3.953   4.896  0.2099 -0.9432  2.7316
 4814TIP3    H214404   6.506   3.884   4.861  0.7998 -1.1530  0.8101
 4815TIP3   OH214405   5.845   3.654   0.815  0.3573  0.4792 -0.8929
 4815TIP3    H114406   5.882   3.677   0.900  0.1641 -1.6335 -0.1859
 4815TIP3    H214407   5.911   3.597   0.775 -0.3068  0.0630 -1.4191
 4816TIP3   OH214408   6.606   0.252   5.021 -0.1813  0.2876  0.1589
 4816TIP3    H114409   6.694   0.219   5.042 -0.4022  0.5824  1.6839
 4816TIP3    H214410   6.553   0.229   5.098 -1.0256  1.6582  0.0212
 4817TIP3   OH214411   2.701   3.813   0.463  0.4453  1.4668  0.0842
 4817TIP3    H114412   2.668   3.848   0.381 -1.3751  1.0897  0.6085
 4817TIP3    H214413   2.627   3.816   0.523  1.5783  1.2525  1.5804
 4818TIP3   OH214414   3.403   5.908   3.323  0.0603 -0.4558 -0.0134
 4818TIP3    H114415   3.320   5.944   3.291 -0.4531 -1.8655 -0.3740
 4818TIP3    H214416   3.417   5.952   3.407  0.7396  2.3179 -1.4573
 4819TIP3   OH214417   1.350   2.741   0.438  0.2651  0.0540  0.3080
 4819TIP3    H114418   1.403   2.821   0.437  1.6937 -0.7682 -2.9772
 4819TIP3    H214419   1.260   2.773   0.427  0.8289  1.2913 -1.1455
 4820TIP3   OH214420   3.975   0.510   0.266  0.4090 -0.2346  0.2104
 4820TIP3    H114421   4.031   0.441   0.231  0.2238  0.4810 -1.6270
 4820TIP3    H214422   3.886   0.483   0.244  0.3419  0.6148 -0.6676
 4821TIP3   OH214423   6.749   4.607   3.156 -0.0108  0.4529  0.6815
 4821TIP3    H114424   6.670   4.593   3.104  0.9285 -1.0442 -0.4325
 4821TIP3    H214425   6.785   4.690   3.123 -0.1214  0.1712 -0.1716
 4822TIP3   OH214426   1.466   3.555   2.632  0.0766 -0.2646 -0.4858
 4822TIP3    H114427   1.489   3.648   2.633 -2.8300  0.6324 -2.7427
 4822TIP3    H214428   1.371   3.554   2.644 -0.0832 -2.9093 -1.3513
 4823TIP3   OH214429   7.543   2.071   0.346 -0.4012 -0.0303 -0.5594
 4823TIP3    H114430   7.487   2.129   0.293 -0.8558 -0.3223 -0.4019
 4823TIP3    H214431   7.523   1.983   0.315 -0.9344 -0.2349  0.3366
 4824TIP3   OH214432   0.311   3.349   5.272  0.0042  0.1023 -0.2756
 4824TIP3    H114433   0.345   3.436   5.254  1.2789  0.0014  1.3973
 4824TIP3    H214434   0.379   3.308   5.326 -0.2785 -2.1447 -1.4936
 4825TIP3   OH214435   1.991   4.360   4.056 -0.2174  0.0134  0.6056
 4825TIP3    H114436   2.041   4.283   4.082 -0.7549 -0.1531  1.1684
 4825TIP3    H214437   1.905   4.349   4.097 -1.1671 -0.3192 -1.3196
 4826TIP3   OH214438   1.446   0.917   3.359 -0.0788  0.2781 -0.1096
 4826TIP3    H114439   1.367   0.876   3.393  0.2217 -0.2228 -0.0146
 4826TIP3    H214440   1.482   0.966   3.433  0.4168 -0.5734  0.2156
 4827TIP3   OH214441   0.829   0.950   3.068  0.0051 -0.0995 -0.0541
 4827TIP3    H114442   0.879   1.029   3.088 -1.0118  1.1308 -2.0269
 4827TIP3    H214443   0.778   0.932   3.147 -0.2098  1.5971  0.2134
 4828TIP3   OH214444   5.921   7.169   6.025 -0.2528  0.2784 -0.0834
 4828TIP3    H114445   5.862   7.132   5.959  0.8867 -0.4789 -0.6924
 4828TIP3    H214446   5.866   7.180   6.103 -1.2123 -0.3373 -0.6609
 4829TIP3   OH214447   3.298   5.911   2.980 -0.3074  0.0517  1.1420
 4829TIP3    H114448   3.356   5.867   2.919 -0.1660  0.9779  0.5862
 4829TIP3    H214449   3.279   5.845   3.047  1.4092 -0.2705  1.3706
 4830TIP3   OH214450   4.076   3.339   5.495 -0.4129  0.0682 -0.2700
 4830TIP3    H114451   4.055   3.413   5.553  0.9696 -0.5720  1.1142
 4830TIP3    H214452   3.991   3.315   5.457 -1.2123  1.1547  0.7177
 4831TIP3   OH214453   6.816   4.846   5.396 -0.4394 -0.0676  0.0770
 4831TIP3    H114454   6.856   4.840   5.309  0.3493 -1.9334  0.5136
 4831TIP3    H214455   6.889   4.863   5.455  0.4489 -5.8176  1.1963
 4832TIP3   OH214456   1.206   3.016   2.082  0.0609  0.2037  0.3488
 4832TIP3    H114457   1.263   2.946   2.113  0.2522  0.1079 -0.2092
 4832TIP3    H214458   1.120   2.994   2.118 -0.0923 -0.8498 -0.5756
 4833TIP3   OH214459   5.778   3.257   4.444  0.6083 -0.0981 -0.2835
 4833TIP3    H114460   5.703   3.294   4.397  1.7303  2.1281 -0.4777
 4833TIP3    H214461   5.742   3.227   4.527 -0.6669 -0.0288 -0.7855
 4834TIP3   OH214462   3.723   0.694   5.719 -0.3666 -0.5414 -0.4361
 4834TIP3    H114463   3.662   0.759   5.683 -0.3328 -0.2597  0.0107
 4834TIP3    H214464   3.715   0.704   5.813 -1.5179 -2.2339 -0.2987
 4835TIP3   OH214465   2.463   4.140   6.118 -0.5432 -0.0439 -0.4959
 4835TIP3    H114466   2.521   4.216   6.107  0.3499 -0.8081 -1.2069
 4835TIP3    H214467   2.471   4.117   6.210  0.0811  0.0252 -0.5298
 4836TIP3   OH214468   5.151   4.402   3.319  0.6891 -0.0007 -0.0864
 4836TIP3    H114469   5.094   4.465   3.274 -0.4179 -1.5397 -0.9346
 4836TIP3    H214470   5.110   4.391   3.405  0.6946  0.1832 -0.0594
 4837TIP3   OH214471   1.407   1.252   3.006  0.3357  0.0052 -0.0659
 4837TIP3    H114472   1.325   1.296   3.025  0.6322  0.4059  0.3197
 4837TIP3    H214473   1.439   1.222   3.091 -1.0033 -3.0952 -0.5320
 4838TIP3   OH214474   4.156   4.523   1.489  0.4755  0.0420  0.1335
 4838TIP3    H114475   4.145   4.496   1.398 -0.0586  1.9381 -0.4153
 4838TIP3    H214476   4.212   4.600   1.484 -0.4078  0.7948  1.2767
 4839TIP3   OH214477   5.834   4.256   1.579  0.2232  0.2499 -0.1537
 4839TIP3    H114478   5.844   4.172   1.622  1.2174  0.0592 -0.7195
 4839TIP3    H214479   5.741   4.276   1.586  0.3138  0.1271  1.8548
 4840TIP3   OH214480   6.934   3.684   5.856 -0.4178  0.0095  0.3694
 4840TIP3    H114481   6.974   3.653   5.774  0.2076 -1.1802  1.0865
 4840TIP3    H214482   6.850   3.638   5.861 -1.6285  1.9554 -0.7751
 4841TIP3   OH214483   1.660   4.555   3.839  0.5618 -0.2024 -0.4171
 4841TIP3    H114484   1.633   4.540   3.748  1.2385 -0.5824 -0.5578
 4841TIP3    H214485   1.755   4.547   3.838  0.6466  0.6410  0.1753
 4842TIP3   OH214486   0.028   0.173   4.000 -0.0346  0.4932  0.2741
 4842TIP3    H114487   0.074   0.090   3.989 -0.8077  0.0975 -0.0914
 4842TIP3    H214488  -0.045   0.152   4.058 -1.2418  0.4931 -1.1783
 4843TIP3   OH214489   2.698   3.565   5.356  0.0046  0.1173 -0.0074
 4843TIP3    H114490   2.712   3.472   5.337 -1.5923 -0.4054  1.1189
 4843TIP3    H214491   2.703   3.570   5.452  0.1101  1.2135 -0.0660
 4844TIP3   OH214492   6.070   2.088   3.104 -0.0422 -0.4856 -0.4373
 4844TIP3    H114493   6.028   2.022   3.159  2.2152 -2.7010 -1.1326
 4844TIP3    H214494   6.000   2.147   3.079 -2.0291 -2.0483  1.0645
 4845TIP3   OH214495   1.020   3.340   5.006  0.1616  0.0914 -0.1048
 4845TIP3    H114496   1.033   3.432   4.985 -0.4895  0.4066  0.7903
 4845TIP3    H214497   0.982   3.302   4.927 -0.1253  0.7241 -0.2760
 4846TIP3   OH214498   6.958   2.390   5.317  0.2918 -0.3632 -0.8428
 4846TIP3    H114499   6.935   2.453   5.249  0.1654  0.2940 -0.2122
 4846TIP3    H214500   6.881   2.389   5.375  1.9762  2.4533  1.7464
 4847TIP3   OH214501   1.808   6.527   1.383  1.1165 -0.1413 -0.3047
 4847TIP3    H114502   1.831   6.616   1.411  0.6061  0.6557 -2.2292
 4847TIP3    H214503   1.831   6.525   1.290 -0.6194 -1.4025 -0.7505
 4848TIP3   OH214504   6.649   2.632   3.607 -0.4830  0.2229 -0.0476
 4848TIP3    H114505   6.693   2.685   3.674  0.7054 -1.1282  0.2789
 4848TIP3    H214506   6.719   2.606   3.547 -0.8361 -1.7692  0.3365
 4849TIP3   OH214507   4.586   1.512   2.454  0.3440 -0.4432 -0.3053
 4849TIP3    H114508   4.497   1.522   2.486 -0.0979 -0.1707 -1.5451
 4849TIP3    H214509   4.576   1.503   2.359  1.6632 -0.0375 -0.5024
 4850TIP3   OH214510   2.186   6.994   2.681  0.1304  0.1223 -0.6550
 4850TIP3    H114511   2.170   7.011   2.774  1.0267 -0.0202 -0.4629
 4850TIP3    H214512   2.099   6.986   2.643 -0.2529  0.3525  0.1419
 4851TIP3   OH214513   3.590   2.070   2.816  0.8415 -0.6780 -0.4526
 4851TIP3    H114514   3.511   2.063   2.761  1.0951  0.8050 -1.0414
 4851TIP3    H214515   3.567   2.023   2.896 -0.8816  0.2621 -0.3487
 4852TIP3   OH214516   1.097   4.992   2.639  0.4255 -0.0695 -0.6417
 4852TIP3    H114517   1.186   4.956   2.641  0.6522  0.3755 -1.9481
 4852TIP3    H214518   1.055   4.955   2.717  1.3661 -1.2816 -0.6665
 4853TIP3   OH214519   1.835   4.564   0.410 -0.3018 -0.0334 -0.2201
 4853TIP3    H114520   1.802   4.477   0.388  2.8119 -1.3888 -0.1454
 4853TIP3    H214521   1.891   4.587   0.336  0.1330  1.2107  0.4642
 4854TIP3   OH214522   3.583   3.625   5.675  0.1528 -0.8270  0.9571
 4854TIP3    H114523   3.574   3.530   5.665  2.3114 -1.1277  1.5305
 4854TIP3    H214524   3.599   3.638   5.768 -0.9990  0.2202  1.0353
 4855TIP3   OH214525   1.311   6.083   3.877  0.1089 -0.2332  0.4700
 4855TIP3    H114526   1.300   6.077   3.972  0.4724 -1.4410  0.4531
 4855TIP3    H214527   1.229   6.047   3.841 -0.4151  1.0681  0.3036
 4856TIP3   OH214528   3.978   3.674   6.034 -0.1003 -0.0107 -0.0077
 4856TIP3    H114529   4.059   3.659   6.083 -0.0190  0.8222  0.1210
 4856TIP3    H214530   3.975   3.768   6.021  0.3983 -0.2580 -2.4830
 4857TIP3   OH214531   2.620   4.586   1.367  0.9655  0.3957 -0.4254
 4857TIP3    H114532   2.604   4.493   1.350 -2.0522  0.5824  0.7340
 4857TIP3    H214533   2.586   4.631   1.290  0.5827  0.5793 -0.1581
 4858TIP3   OH214534   4.976   4.039   0.395  0.0703 -0.4222  0.0273
 4858TIP3    H114535   5.057   4.076   0.431 -0.6041  1.3452 -0.1525
 4858TIP3    H214536   4.914   4.112   0.395 -0.7669 -1.0308 -2.2308
 4859TIP3   OH214537   3.300   5.542   3.612 -0.3107  0.0974 -0.2196
 4859TIP3    H114538   3.255   5.622   3.585 -1.8255 -0.9123 -0.8131
 4859TIP3    H214539   3.389   5.553   3.580 -1.0823  0.5696 -2.4100
 4860TIP3   OH214540   7.128   4.393   1.534  0.1645  0.6123 -0.0326
 4860TIP3    H114541   7.051   4.448   1.520  0.9035  1.6063 -0.3110
 4860TIP3    H214542   7.093   4.314   1.575 -0.8368  1.6135  1.1669
 4861TIP3   OH214543   5.793   7.087   0.325 -0.3653  0.0582  0.1014
 4861TIP3    H114544   5.797   7.127   0.238  1.4082  2.1684  1.0557
 4861TIP3    H214545   5.757   7.156   0.381  1.6522 -0.0224  1.6127
 4862TIP3   OH214546   3.501   5.919   0.251 -0.2219 -0.3544 -0.2849
 4862TIP3    H114547   3.550   5.982   0.304 -0.4137  0.3983 -0.9668
 4862TIP3    H214548   3.410   5.949   0.256 -1.4810 -3.8303  4.0565
 4863TIP3   OH214549   1.910   6.983   2.588  0.1090  0.1101 -0.0097
 4863TIP3    H114550   1.854   7.060   2.586  0.3517  0.3186  0.7541
 4863TIP3    H214551   1.902   6.945   2.501 -1.1045  0.2057  0.0431
 4864TIP3   OH214552   6.976   1.398   5.172 -0.2758 -0.1503  0.2293
 4864TIP3    H114553   7.061   1.390   5.128 -0.2748 -0.2378  0.2477
 4864TIP3    H214554   6.940   1.310   5.170 -0.2716 -0.1553  0.4140
 4865TIP3   OH214555   0.928   4.207   6.066  0.1321  0.3269  0.7716
 4865TIP3    H114556   0.865   4.156   6.016  0.2498  1.1707 -0.2707
 4865TIP3    H214557   0.940   4.287   6.015 -0.0630  1.4176  2.3674
 4866TIP3   OH214558   4.696   1.520   3.932 -0.0929  0.4031 -0.6470
 4866TIP3    H114559   4.709   1.612   3.908 -1.7474  1.8502  3.1702
 4866TIP3    H214560   4.731   1.513   4.020 -1.8892 -2.0587 -0.0171
 4867TIP3   OH214561   5.368   5.557   4.993 -0.0662  0.4702  0.3751
 4867TIP3    H114562   5.318   5.637   4.979  0.8697  1.2607  1.3288
 4867TIP3    H214563   5.348   5.532   5.083  0.7549  0.4613  0.5656
 4868TIP3   OH214564   5.622   5.403   2.611  0.4333 -0.5191 -0.7060
 4868TIP3    H114565   5.556   5.433   2.674  1.9182 -2.3399  1.9727
 4868TIP3    H214566   5.696   5.462   2.624  0.7279 -0.8732 -0.7495
 4869TIP3   OH214567   3.457   5.342   5.516 -0.2486 -0.0914 -0.2497
 4869TIP3    H114568   3.498   5.286   5.582  0.7600  0.6742 -0.2037
 4869TIP3    H214569   3.492   5.429   5.534 -2.2251  0.6864  0.0361
 4870TIP3   OH214570   3.497   3.481   1.507  0.2740 -0.1139 -1.2524
 4870TIP3    H114571   3.471   3.570   1.483  0.1110  0.2463  0.1488
 4870TIP3    H214572   3.592   3.482   1.502  0.7423  1.6579  3.2463
 4871TIP3   OH214573   6.473   1.153   3.515 -0.4276 -0.0862  0.3878
 4871TIP3    H114574   6.528   1.112   3.448 -0.5904 -0.2802  0.3704
 4871TIP3    H214575   6.463   1.244   3.485 -1.1049 -0.3607 -0.2481
 4872TIP3   OH214576   0.236   1.213   5.406 -0.2029 -0.0909 -0.2894
 4872TIP3    H114577   0.247   1.292   5.353  0.9443 -2.1430 -3.4149
 4872TIP3    H214578   0.169   1.163   5.360  2.7616 -3.2036 -1.6309
 4873TIP3   OH214579   6.632   5.676   1.719 -0.1157 -0.2318 -0.2467
 4873TIP3    H114580   6.726   5.670   1.705 -0.2590  1.9412 -2.9301
 4873TIP3    H214581   6.619   5.763   1.758 -0.9341 -1.1613  1.6958
 4874TIP3   OH214582   1.779   2.640   1.079 -0.3019  0.3542 -0.3533
 4874TIP3    H114583   1.749   2.727   1.103  2.8771  1.4736  0.0876
 4874TIP3    H214584   1.786   2.642   0.984  1.2970  1.2216 -0.2503
 4875TIP3   OH214585   1.480   1.390   3.507 -0.3740  0.0593 -0.1553
 4875TIP3    H114586   1.518   1.462   3.456 -0.6264 -0.1481 -0.6423
 4875TIP3    H214587   1.387   1.390   3.483 -0.5326  0.0679  0.4398
 4876TIP3   OH214588   2.076   3.276   5.678 -0.0501  0.0180  0.0820
 4876TIP3    H114589   2.031   3.360   5.669 -2.2750 -1.0259  0.7007
 4876TIP3    H214590   2.158   3.297   5.723 -1.3458  1.6711  1.8616
 4877TIP3   OH214591   7.156   0.751   5.489 -0.2204  0.1467  0.2710
 4877TIP3    H114592   7.249   0.753   5.467 -0.1343  0.4288  0.6322
 4877TIP3    H214593   7.122   0.835   5.458  0.0543  0.8550  1.7910
 4878TIP3   OH214594   5.859   6.552   3.379  0.1154 -0.3077  0.5571
 4878TIP3    H114595   5.910   6.483   3.337 -0.8248 -2.1199  2.2553
 4878TIP3    H214596   5.817   6.598   3.306 -1.8874 -3.6328 -0.5865
 4879TIP3   OH214597   2.916   1.727   3.525  0.1969  0.6462  0.2024
 4879TIP3    H114598   2.852   1.732   3.596 -1.6863  1.1090 -1.4107
 4879TIP3    H214599   2.974   1.802   3.538 -0.5878  1.1568  0.8420
 4880TIP3   OH214600   5.067   3.768   4.426  0.2554  0.0996  0.5008
 4880TIP3    H114601   5.156   3.761   4.461 -0.3562 -2.8164  1.7483
 4880TIP3    H214602   5.010   3.757   4.503 -1.1428 -1.4981 -0.6924
 4881TIP3   OH214603   4.356   6.631   3.015 -0.3846 -0.5220 -0.0507
 4881TIP3    H114604   4.378   6.541   3.040 -0.9618 -0.5984  0.1994
 4881TIP3    H214605   4.296   6.661   3.084  0.7840  0.4993  0.5660
 4882TIP3   OH214606   3.598   4.288   0.374  0.0117  0.2699  0.4302
 4882TIP3    H114607   3.530   4.292   0.307  0.2703 -1.2689  0.0282
 4882TIP3    H214608   3.681   4.295   0.327  0.1859 -0.4875  0.5980
 4883TIP3   OH214609   7.400   6.134   0.170 -0.0271 -0.1890 -0.0116
 4883TIP3    H114610   7.429   6.224   0.156 -1.0075  0.3400  1.2019
 4883TIP3    H214611   7.304   6.139   0.167 -0.1586 -0.8271  2.0381
 4884TIP3   OH214612   0.690   4.487   0.568 -0.0302  0.3324  0.7768
 4884TIP3    H114613   0.621   4.475   0.502  2.2888  0.2390 -1.8321
 4884TIP3    H214614   0.705   4.400   0.603  1.3998 -0.4687 -1.6021
 4885TIP3   OH214615   5.036   2.967  -0.001  0.4543  0.4369  0.3566
 4885TIP3    H114616   5.131   2.956  -0.000  0.8801  2.4317 -2.9284
 4885TIP3    H214617   5.023   3.062   0.006 -1.1739  0.3336 -0.7087
 4886TIP3   OH214618   6.673   6.369   0.782 -0.3757  0.1004 -0.0918
 4886TIP3    H114619   6.757   6.377   0.738 -0.9916  1.7765 -1.0402
 4886TIP3    H214620   6.642   6.282   0.757  0.8850 -0.3888 -0.0366
 4887TIP3   OH214621   7.254   0.611   2.967 -0.1964  0.1840  0.6047
 4887TIP3    H114622   7.178   0.635   3.020 -2.0559 -1.2189 -1.2782
 4887TIP3    H214623   7.287   0.531   3.007 -0.9027 -0.2586  0.3061
 4888TIP3   OH214624   2.058   6.792   1.721  0.3366  0.0366 -0.5758
 4888TIP3    H114625   2.043   6.882   1.690  0.6652  0.5199  0.6089
 4888TIP3    H214626   1.972   6.763   1.752  0.3956  0.2292 -0.2338
 4889TIP3   OH214627   4.585   5.675   1.470 -0.1669 -0.2531  0.1306
 4889TIP3    H114628   4.635   5.621   1.409  0.2862  0.9144 -0.5842
 4889TIP3    H214629   4.534   5.613   1.522  2.0837 -1.5224  0.9848
 4890TIP3   OH214630   2.464   4.871   3.752 -0.1587 -0.5534  0.0015
 4890TIP3    H114631   2.523   4.796   3.740 -0.3293 -0.7685  0.4718
 4890TIP3    H214632   2.454   4.878   3.847  1.7865  1.5832  0.1288
 4891TIP3   OH214633   2.810   0.472   4.411  0.2761 -0.1562 -0.0787
 4891TIP3    H114634   2.889   0.468   4.465  0.7327  1.0032 -0.6246
 4891TIP3    H214635   2.816   0.397   4.353  2.2103  1.1692 -1.7263
 4892TIP3   OH214636   1.493   0.171   2.172  0.3865  0.3383  0.0611
 4892TIP3    H114637   1.506   0.266   2.168 -0.0364  0.3934 -0.0754
 4892TIP3    H214638   1.500   0.150   2.265  1.5388  0.3419 -0.0143
 4893TIP3   OH214639   2.458   4.053   1.543  0.0761 -0.3342 -0.0076
 4893TIP3    H114640   2.399   3.982   1.516  2.3713 -2.7643  0.9689
 4893TIP3    H214641   2.508   4.073   1.464 -0.9005  0.6144 -0.4140
 4894TIP3   OH214642   1.904   4.962   4.855 -0.8340  0.2092 -0.1872
 4894TIP3    H114643   1.904   4.910   4.936  2.3823  1.9736  1.1203
 4894TIP3    H214644   1.909   5.053   4.884  0.2288  0.9220 -2.3334
 4895TIP3   OH214645   0.502   0.908   5.760  0.0663  0.3540  0.5499
 4895TIP3    H114646   0.439   0.914   5.688  0.2572  0.6393  0.4034
 4895TIP3    H214647   0.484   0.984   5.815 -0.1541  0.0738  0.8657
 4896TIP3   OH214648   0.376   3.975   3.616  0.0597  0.2564  0.2401
 4896TIP3    H114649   0.369   3.971   3.712 -0.0131  0.9773  0.2757
 4896TIP3    H214650   0.404   4.065   3.599 -0.4050  0.2758 -0.4373
 4897TIP3   OH214651   4.212   0.070   3.887 -0.0219 -0.6750 -0.0120
 4897TIP3    H114652   4.218   0.047   3.795 -0.3132  1.5727 -0.6441
 4897TIP3    H214653   4.274   0.141   3.898 -1.8240  0.8512  0.8887
 4898TIP3   OH214654   5.219   2.371   2.208  0.1158  0.4200 -0.2895
 4898TIP3    H114655   5.300   2.330   2.239  0.9041  1.2392 -1.1879
 4898TIP3    H214656   5.238   2.465   2.210 -0.0518  0.5571 -2.4353
 4899TIP3   OH214657   3.771   2.543   2.949  0.3397  0.2146  0.8857
 4899TIP3    H114658   3.707   2.579   3.011 -1.5183 -3.3430  1.2960
 4899TIP3    H214659   3.745   2.452   2.938  2.8744 -0.3120 -2.3006
 4900TIP3   OH214660   6.618   6.379   1.817  0.0136  0.5891 -0.2925
 4900TIP3    H114661   6.597   6.428   1.737 -1.7674  1.4175  0.6119
 4900TIP3    H214662   6.574   6.295   1.806  1.3831 -0.0707 -0.9728
 4901TIP3   OH214663   3.354   5.957   2.032  0.4287 -0.5083  0.0697
 4901TIP3    H114664   3.424   5.997   1.980 -0.6652  2.4926  0.6828
 4901TIP3    H214665   3.340   6.019   2.104 -2.8881 -0.9191 -0.0841
 4902TIP3   OH214666   5.972   1.023   2.741 -0.2134 -0.3902  0.1118
 4902TIP3    H114667   5.879   1.021   2.716  0.1678 -1.2049 -1.3631
 4902TIP3    H214668   6.019   1.025   2.658  1.1181 -1.1962  0.8135
 4903TIP3   OH214669   5.141   3.819   0.998 -0.3754  0.5790  0.1652
 4903TIP3    H114670   5.144   3.914   1.012 -2.1101  0.7942 -0.6299
 4903TIP3    H214671   5.067   3.790   1.053 -1.5068  0.1052 -1.5425
 4904TIP3   OH214672   3.270   2.522   4.670 -0.0847  0.2129 -0.2407
 4904TIP3    H114673   3.297   2.505   4.580 -1.4150  0.0095 -0.6183
 4904TIP3    H214674   3.309   2.607   4.692  1.4497 -0.3947 -0.4879
 4905TIP3   OH214675   6.929   2.218   2.836  0.7281 -0.3555  0.2031
 4905TIP3    H114676   6.895   2.133   2.864  0.0881  0.2178  1.2619
 4905TIP3    H214677   7.013   2.199   2.796  0.8043 -1.4411  0.8480
 4906TIP3   OH214678   1.252   3.445   3.549 -0.5838 -0.0097  0.0859
 4906TIP3    H114679   1.306   3.498   3.491  0.7701 -1.9586 -0.5244
 4906TIP3    H214680   1.256   3.490   3.634 -0.6387  1.5729 -0.7154
 4907TIP3   OH214681   1.902   2.733   4.323  0.0803 -0.4034  0.1170
 4907TIP3    H114682   1.943   2.714   4.408 -1.1843 -0.9002  0.6406
 4907TIP3    H214683   1.849   2.656   4.304 -0.0522 -0.0775 -0.8970
 4908TIP3   OH214684   5.619   5.924   1.460  0.5056 -0.3230 -0.0689
 4908TIP3    H114685   5.591   5.909   1.550 -1.8152 -0.5752 -0.7753
 4908TIP3    H214686   5.540   5.912   1.408  1.8836 -0.6373 -2.2070
 4909TIP3   OH214687   0.924   4.051   4.905 -0.3555 -0.2310 -0.4563
 4909TIP3    H114688   0.929   4.055   4.809  0.2124  1.4174 -0.3832
 4909TIP3    H214689   0.998   4.103   4.935 -1.3047  0.4075  0.8777
 4910TIP3   OH214690   7.488   3.964   5.015  0.1459 -0.1763  0.1762
 4910TIP3    H114691   7.439   3.993   4.938  0.2878 -2.4775 -0.8876
 4910TIP3    H214692   7.574   3.939   4.981  1.0778  1.0499  1.5331
 4911TIP3   OH214693   2.673   1.519   2.365  0.3742  0.1242 -0.5800
 4911TIP3    H114694   2.700   1.536   2.455  0.3088 -1.7806 -0.1535
 4911TIP3    H214695   2.579   1.501   2.372 -0.0696  1.8815 -1.3537
 4912TIP3   OH214696   2.124   0.419   0.725 -0.0620 -0.0048 -0.1059
 4912TIP3    H114697   2.203   0.369   0.704  0.7304  0.7450  0.9594
 4912TIP3    H214698   2.052   0.364   0.695  0.8278 -1.2268 -0.0801
 4913TIP3   OH214699   1.005   0.943   1.103  0.0928 -0.2507  0.1010
 4913TIP3    H114700   1.051   1.024   1.080  0.5812 -0.2288  1.1202
 4913TIP3    H214701   1.035   0.880   1.038 -0.8083  0.5299 -1.1308
 4914TIP3   OH214702   5.931   3.480   0.212  0.0690  0.3309 -0.0419
 4914TIP3    H114703   5.974   3.545   0.267 -0.3014 -0.1759  0.8747
 4914TIP3    H214704   5.995   3.410   0.201  0.4637  0.8268 -1.0187
 4915TIP3   OH214705   1.687   1.549   4.801  0.7278  0.0335  0.3965
 4915TIP3    H114706   1.609   1.599   4.778  0.6857  0.4660  1.4455
 4915TIP3    H214707   1.663   1.458   4.784  0.9633  0.3600 -1.9882
 4916TIP3   OH214708   6.073   2.241   1.487 -0.7131 -0.4649  0.1903
 4916TIP3    H114709   6.153   2.290   1.466  0.2271 -2.3427 -0.8222
 4916TIP3    H214710   6.102   2.170   1.543 -1.3112 -2.2328 -1.6170
 4917TIP3   OH214711   2.340   2.429   3.706  0.6923 -0.1683  0.5231
 4917TIP3    H114712   2.343   2.490   3.632 -2.9088 -1.0579 -0.5412
 4917TIP3    H214713   2.403   2.360   3.682  0.6076  0.2628 -1.0697
 4918TIP3   OH214714   3.191   0.100   5.460  0.4839  0.2570 -0.4710
 4918TIP3    H114715   3.096   0.104   5.446  0.4275 -0.5985 -0.4122
 4918TIP3    H214716   3.227   0.161   5.395 -0.0977  0.4654 -0.6065
 4919TIP3   OH214717   3.683   5.389   1.800 -0.5004  0.7178  0.4234
 4919TIP3    H114718   3.654   5.317   1.856  2.1641 -1.2431 -0.5211
 4919TIP3    H214719   3.677   5.355   1.711 -1.4417  2.5891 -0.2964
 4920TIP3   OH214720   0.993   5.602   4.705  0.3971 -0.4316 -0.4730
 4920TIP3    H114721   0.898   5.593   4.702  0.0739  2.0700  0.1219
 4920TIP3    H214722   1.020   5.554   4.783 -0.7303  1.0549  0.8726
 4921TIP3   OH214723   2.311   4.128   4.245 -0.1875 -0.0028 -0.1395
 4921TIP3    H114724   2.273   4.042   4.264 -3.4078  1.7557  2.2866
 4921TIP3    H214725   2.387   4.134   4.302  0.6128 -1.5038 -0.9895
 4922TIP3   OH214726   0.996   4.913   5.822 -0.4858  0.0418  0.1955
 4922TIP3    H114727   0.966   4.923   5.912 -0.9352 -0.0106  0.0522
 4922TIP3    H214728   1.024   4.821   5.816  0.3744  0.2734  0.5261
 4923TIP3   OH214729   5.669   6.416   3.522 -0.4923  0.3974 -0.8134
 4923TIP3    H114730   5.635   6.378   3.441 -0.0964 -1.6413 -0.0825
 4923TIP3    H214731   5.746   6.466   3.494  1.3191 -2.5023 -1.5193
 4924TIP3   OH214732   0.763   5.210   3.250  0.5748  0.1963  0.2594
 4924TIP3    H114733   0.738   5.136   3.194  2.9865 -0.5919  0.1262
 4924TIP3    H214734   0.691   5.272   3.241 -1.4199 -1.9912  0.1692
 4925TIP3   OH214735   3.699   6.015   1.267 -0.1489  0.3825  0.2454
 4925TIP3    H114736   3.677   5.941   1.211 -1.7530  0.6314  0.5094
 4925TIP3    H214737   3.625   6.075   1.259  1.0547  1.9507  0.0998
 4926TIP3   OH214738   5.047   5.826   0.722  0.4610 -0.0777  0.1031
 4926TIP3    H114739   4.985   5.893   0.695  1.5792  0.3742 -1.5105
 4926TIP3    H214740   5.013   5.793   0.805 -1.6540  0.4645 -0.4996
 4927TIP3   OH214741   5.435   0.282   5.387  0.1287 -0.0585  0.3411
 4927TIP3    H114742   5.419   0.190   5.411  0.1791 -0.1992 -0.1562
 4927TIP3    H214743   5.494   0.277   5.312 -0.4073  0.3565 -0.1179
 4928TIP3   OH214744   0.631   5.647   1.138 -0.4236  0.3636  0.2504
 4928TIP3    H114745   0.649   5.651   1.044 -0.7656 -0.8315  0.1140
 4928TIP3    H214746   0.560   5.583   1.146  0.4398 -0.5002  1.4340
 4929TIP3   OH214747   2.601   1.098   3.366  0.7075  0.4839  0.5469
 4929TIP3    H114748   2.663   1.164   3.334  1.2617 -0.8032 -1.2333
 4929TIP3    H214749   2.641   1.015   3.341 -1.1463 -0.4233  0.4747
 4930TIP3   OH214750   2.574   5.030   5.423 -0.7940 -0.1301 -0.4719
 4930TIP3    H114751   2.499   4.996   5.373 -1.2786  1.4864 -0.8936
 4930TIP3    H214752   2.609   5.101   5.369  0.5816 -0.3581  0.0837
 4931TIP3   OH214753   2.420   6.974   3.069  0.3126  0.2491  0.3938
 4931TIP3    H114754   2.476   6.915   3.020  0.7127  0.3722  0.7019
 4931TIP3    H214755   2.366   7.017   3.002  0.6621  0.2137  0.0893
 4932TIP3   OH214756   2.397   4.294   1.131  0.0545  0.3887 -0.2858
 4932TIP3    H114757   2.331   4.355   1.167  0.4546  1.6260 -1.5747
 4932TIP3    H214758   2.368   4.208   1.161 -1.4030  1.0440  0.2979
 4933TIP3   OH214759   7.264   2.475   1.283 -0.2217  0.5180 -0.0985
 4933TIP3    H114760   7.204   2.424   1.229  0.5841  0.0944 -0.6251
 4933TIP3    H214761   7.211   2.546   1.319 -0.8249  0.6989 -1.3065
 4934TIP3   OH214762   6.487   5.023   5.019  0.5577 -0.3183  0.7285
 4934TIP3    H114763   6.409   4.995   5.066  0.4682  1.0292  1.4322
 4934TIP3    H214764   6.549   5.048   5.087  1.7738 -1.7206  0.1917
 4935TIP3   OH214765   5.486   1.247   3.169  0.1658  0.6557 -0.3479
 4935TIP3    H114766   5.527   1.223   3.086 -0.8603  0.8684 -0.9313
 4935TIP3    H214767   5.392   1.242   3.151 -0.1057  3.1056  0.0883
 4936TIP3   OH214768   5.226   2.624   2.773 -0.0662 -0.0372  0.6737
 4936TIP3    H114769   5.302   2.672   2.740 -1.2167  0.7241 -0.9997
 4936TIP3    H214770   5.264   2.551   2.824  1.7526  0.5066  0.1826
 4937TIP3   OH214771   1.622   6.535   0.064  0.2755  0.8263 -0.2530
 4937TIP3    H114772   1.605   6.497   0.150  0.4507 -0.7752 -0.8945
 4937TIP3    H214773   1.539   6.526   0.017  0.8304 -0.5490 -1.0350
 4938TIP3   OH214774   6.530   6.441   4.480  0.4808  0.1595 -0.5686
 4938TIP3    H114775   6.513   6.445   4.386  0.7820 -0.2997 -0.6474
 4938TIP3    H214776   6.525   6.348   4.501  1.1256  0.1893 -0.2657
 4939TIP3   OH214777   5.569   1.359   4.581 -0.0064  0.4883 -0.1846
 4939TIP3    H114778   5.518   1.405   4.514 -1.1036 -1.8074 -1.0080
 4939TIP3    H214779   5.658   1.390   4.567 -0.2049  0.1886 -2.6948
 4940TIP3   OH214780   2.021   6.482   0.884  0.2809  0.2204 -0.3810
 4940TIP3    H114781   1.953   6.474   0.817  1.7817  1.6766 -2.1892
 4940TIP3    H214782   2.046   6.392   0.903 -1.5172 -0.3035 -0.3247
 4941TIP3   OH214783   3.910   2.629   0.545 -0.0646  0.2485  0.0516
 4941TIP3    H114784   3.894   2.642   0.639  1.7312 -0.9372  0.5741
 4941TIP3    H214785   3.969   2.700   0.521  0.0532  0.1394  0.0136
 4942TIP3   OH214786   5.405   5.196   1.100  0.6304  0.7190 -0.0467
 4942TIP3    H114787   5.431   5.211   1.191 -0.5474  1.8702  0.1245
 4942TIP3    H214788   5.362   5.277   1.073 -1.4231 -0.5287 -0.7629
 4943TIP3   OH214789   4.681   1.520   5.288  0.3966 -0.2650 -0.0258
 4943TIP3    H114790   4.636   1.458   5.346  0.6518 -0.0218  0.4361
 4943TIP3    H214791   4.681   1.476   5.203  0.0948 -0.6647  0.1731
 4944TIP3   OH214792   0.921   2.514   6.118  0.1428  0.6539  0.1236
 4944TIP3    H114793   0.979   2.447   6.156 -0.4642 -0.3039 -0.6046
 4944TIP3    H214794   0.979   2.568   6.064  0.2866 -0.7306 -1.1787
 4945TIP3   OH214795   1.549   2.346   4.767  0.5415  0.4435 -0.3200
 4945TIP3    H114796   1.582   2.293   4.695  0.1784  0.0185 -0.1714
 4945TIP3    H214797   1.594   2.430   4.757  0.8207  0.2403 -0.7819
 4946TIP3   OH214798   3.118   5.463   4.158  0.0504 -0.1340 -0.1334
 4946TIP3    H114799   3.106   5.373   4.129  1.3733  0.2597 -2.0902
 4946TIP3    H214800   3.195   5.461   4.213  0.6838 -0.0745 -0.9940
 4947TIP3   OH214801   7.436   0.175   3.294  0.3989 -0.0927  0.5280
 4947TIP3    H114802   7.421   0.086   3.326 -0.3897 -0.0503  0.2883
 4947TIP3    H214803   7.374   0.229   3.344  1.1261  0.3816  0.9408
 4948TIP3   OH214804   1.126   6.969   1.301  0.1091 -0.0311 -0.5776
 4948TIP3    H114805   1.171   6.890   1.330  1.9260  0.9797 -0.4698
 4948TIP3    H214806   1.190   7.039   1.313 -2.6386  2.2184  3.1995
 4949TIP3   OH214807   0.453   5.678   5.946  0.1808  0.0655 -0.1482
 4949TIP3    H114808   0.420   5.762   5.977  2.3214  1.3088 -1.0492
 4949TIP3    H214809   0.544   5.675   5.976  0.3469 -1.6381 -0.7089
 4950TIP3   OH214810   3.264   3.982   1.892 -0.2574 -0.3004 -0.2744
 4950TIP3    H114811   3.336   3.944   1.942 -1.6481  0.2505  2.2878
 4950TIP3    H214812   3.300   4.063   1.856 -0.0699  0.9867  2.6113
 4951TIP3   OH214813   7.487   6.946   2.244 -0.0368 -0.0740 -0.7194
 4951TIP3    H114814   7.435   6.891   2.302  0.6936 -0.6695 -0.6130
 4951TIP3    H214815   7.570   6.899   2.234  0.3493  0.6788 -1.1655
 4952TIP3   OH214816   6.136   2.952   3.376 -0.2384  0.7977  0.1920
 4952TIP3    H114817   6.219   2.990   3.347 -0.1235  0.4806  0.0976
 4952TIP3    H214818   6.090   2.929   3.295  0.2303 -0.4055  0.2407
 4953TIP3   OH214819   5.315   2.474   4.776 -0.5677 -0.2163 -0.6087
 4953TIP3    H114820   5.333   2.400   4.718 -0.7656 -0.5978 -0.1813
 4953TIP3    H214821   5.399   2.493   4.817 -0.1978  0.6452 -1.6828
 4954TIP3   OH214822   6.562   2.973   0.282 -0.0082  0.4091 -0.7867
 4954TIP3    H114823   6.507   3.036   0.329 -0.4757  0.6588 -1.6375
 4954TIP3    H214824   6.502   2.901   0.261  0.5196 -0.3246  0.1634
 4955TIP3   OH214825   0.562   2.457   3.448  0.8889 -0.2444 -0.0649
 4955TIP3    H114826   0.487   2.429   3.395  1.5377 -1.7208 -0.2572
 4955TIP3    H214827   0.565   2.392   3.519  1.2886  0.4947  0.6012
 4956TIP3   OH214828   6.711   6.895   3.305  0.3382  0.3257 -0.5512
 4956TIP3    H114829   6.648   6.949   3.351 -0.6008 -0.8551 -0.3926
 4956TIP3    H214830   6.737   6.828   3.368 -0.2179 -0.7241 -1.3902
 4957TIP3   OH214831   2.829   5.855   4.057 -0.0672 -0.4010  0.5192
 4957TIP3    H114832   2.748   5.881   4.101 -1.5621 -0.1597 -2.1966
 4957TIP3    H214833   2.831   5.759   4.065 -0.3803 -0.3776  0.9444
 4958TIP3   OH214834   7.338   4.036   1.843 -0.0253 -0.4478 -0.4201
 4958TIP3    H114835   7.269   4.099   1.862 -0.4480 -0.0011 -2.9990
 4958TIP3    H214836   7.296   3.950   1.853 -0.5083 -0.2121 -0.3960
 4959TIP3   OH214837   1.899   7.025   3.648 -0.5950  0.3560  0.2070
 4959TIP3    H114838   1.993   7.020   3.633 -0.6082  0.5950  0.0531
 4959TIP3    H214839   1.885   6.976   3.730 -0.5260 -0.9903 -0.5600
 4960TIP3   OH214840   6.425   6.003   5.873 -0.2402 -0.6735  0.5219
 4960TIP3    H114841   6.422   6.095   5.898 -0.6433 -0.2765 -0.9147
 4960TIP3    H214842   6.347   5.990   5.819  1.0051 -1.2605 -1.2203
 4961TIP3   OH214843   1.452   1.075   1.945 -0.0168  0.0986 -0.3453
 4961TIP3    H114844   1.395   1.066   1.869  0.3482 -1.1789 -0.4775
 4961TIP3    H214845   1.541   1.068   1.911  0.2037  0.9223  0.0222
 4962TIP3   OH214846   4.733   2.609   5.712 -0.0634 -0.4230 -0.3175
 4962TIP3    H114847   4.651   2.577   5.750 -0.5598  2.5645  1.4534
 4962TIP3    H214848   4.709   2.640   5.625 -0.6499 -0.3309 -0.1263
 4963TIP3   OH214849   4.754   1.365   4.578  0.2321 -0.2148  0.1862
 4963TIP3    H114850   4.731   1.391   4.667  1.8511  0.3202  0.4778
 4963TIP3    H214851   4.847   1.343   4.582  0.0261 -1.4999 -1.0931
 4964TIP3   OH214852   2.926   3.556   2.088 -1.1246  0.0169  0.2187
 4964TIP3    H114853   2.985   3.565   2.014 -0.7742 -1.3201  0.3057
 4964TIP3    H214854   2.915   3.461   2.099 -2.8779  0.2220  0.5299
 4965TIP3   OH214855   3.300   3.827   3.150 -0.6347  0.5602  0.4425
 4965TIP3    H114856   3.225   3.784   3.191  1.1444 -3.1881  0.1604
 4965TIP3    H214857   3.302   3.791   3.061  1.4935  0.4585  0.4793
 4966TIP3   OH214858   3.155   5.425   0.926  0.3652 -0.4422 -0.0202
 4966TIP3    H114859   3.166   5.520   0.922 -1.8058 -0.1290  0.3395
 4966TIP3    H214860   3.124   5.401   0.839  0.9667 -0.8583 -0.1292
 4967TIP3   OH214861   2.794   6.508   4.719 -0.0158 -0.4963  0.2537
 4967TIP3    H114862   2.810   6.597   4.689  0.8514 -0.3350  1.1758
 4967TIP3    H214863   2.705   6.510   4.755 -0.4219 -0.2913 -0.7045
 4968TIP3   OH214864   4.057   5.434   1.707 -0.2380  0.5713 -0.3810
 4968TIP3    H114865   4.045   5.522   1.741 -2.0425 -0.0229  0.6826
 4968TIP3    H214866   4.063   5.379   1.785  0.2845 -0.3155 -1.0274
 4969TIP3   OH214867   3.975   6.929   1.516 -0.1762  0.0048 -0.3918
 4969TIP3    H114868   4.042   6.862   1.503 -0.2056  0.2704 -2.0915
 4969TIP3    H214869   4.008   7.006   1.468  0.5483  1.7559  2.6223
 4970TIP3   OH214870   3.726   6.954   4.083  0.5941 -0.0528 -0.4311
 4970TIP3    H114871   3.712   7.047   4.064  1.1152 -0.1932 -1.6012
 4970TIP3    H214872   3.681   6.939   4.166 -0.7420  0.9012 -0.9611
 4971TIP3   OH214873   7.335   0.992   4.152 -0.1369 -0.4049  0.0112
 4971TIP3    H114874   7.402   0.931   4.181  1.5495  1.4266  0.1804
 4971TIP3    H214875   7.358   1.075   4.194 -1.4556  0.7249 -1.3717
 4972TIP3   OH214876   7.077   6.182   0.184 -0.3342  0.0029  0.4316
 4972TIP3    H114877   7.031   6.100   0.200 -0.1385 -0.6290 -1.9533
 4972TIP3    H214878   7.066   6.198   0.091  1.5877  1.5047  0.4046
 4973TIP3   OH214879   2.219   0.298   5.614  0.1941  0.0217 -0.1290
 4973TIP3    H114880   2.221   0.277   5.707 -1.8331  0.4747  0.0503
 4973TIP3    H214881   2.160   0.234   5.576 -1.3077  1.6124 -0.5849
 4974TIP3   OH214882   4.015   3.938   1.494  0.2319 -0.1302 -0.5418
 4974TIP3    H114883   3.939   3.975   1.538  0.2238  1.1946 -1.6127
 4974TIP3    H214884   4.073   4.013   1.478  1.0641 -0.8708 -1.1161
 4975TIP3   OH214885   4.409   3.046   0.999 -0.0395  0.2324  0.1465
 4975TIP3    H114886   4.327   3.013   1.033 -0.8071  0.9250 -0.9560
 4975TIP3    H214887   4.436   2.981   0.934 -0.4402  0.6748 -0.4756
 4976TIP3   OH214888   3.917   0.897   1.860  0.4316 -0.2302  0.0361
 4976TIP3    H114889   3.967   0.821   1.831 -1.5606 -1.0645 -1.4177
 4976TIP3    H214890   3.907   0.951   1.782  0.5828  0.8021  0.7161
 4977TIP3   OH214891   3.246   1.735   0.915 -0.1523  0.8476 -0.0881
 4977TIP3    H114892   3.337   1.733   0.946 -0.6493 -0.0763  1.4309
 4977TIP3    H214893   3.209   1.812   0.958 -1.0003 -0.7571  2.2359
 4978TIP3   OH214894   1.968   0.245   3.719 -0.0854 -0.5034 -0.0395
 4978TIP3    H114895   1.975   0.275   3.810 -1.1504 -2.6351  0.8247
 4978TIP3    H214896   2.058   0.242   3.688  0.6119 -2.4045  1.9271
 4979TIP3   OH214897   4.415   6.423   3.172  0.5980 -0.1908 -0.0148
 4979TIP3    H114898   4.502   6.392   3.147  0.3014  0.6092 -2.2892
 4979TIP3    H214899   4.431   6.483   3.245  1.9263 -0.2642 -0.2306
 4980TIP3   OH214900   0.520   0.613   5.173  0.1700 -0.5576 -0.2053
 4980TIP3    H114901   0.427   0.608   5.193  0.0407 -0.5779 -0.8020
 4980TIP3    H214902   0.547   0.700   5.201 -0.5344  0.3139 -2.1082
 4981TIP3   OH214903   4.568   6.975   2.564 -0.2353 -0.2594  0.3322
 4981TIP3    H114904   4.649   7.012   2.598 -0.3241  0.0401  0.2214
 4981TIP3    H214905   4.596   6.895   2.518  0.0858  0.2008 -0.2941
 4982TIP3   OH214906   7.130   1.893   5.343 -0.5442 -0.3067 -0.1307
 4982TIP3    H114907   7.038   1.908   5.362 -0.2392  1.9187 -0.0742
 4982TIP3    H214908   7.136   1.900   5.247 -0.4239 -0.3405 -0.1264
 4983TIP3   OH214909   5.747   1.597   5.614 -0.0030  0.9708 -0.1146
 4983TIP3    H114910   5.663   1.623   5.651 -0.9108 -0.9656 -0.6382
 4983TIP3    H214911   5.772   1.519   5.664  1.6662  1.6748  0.2322
 4984TIP3   OH214912   6.339   2.969   1.003  0.0450  0.4002  0.3420
 4984TIP3    H114913   6.349   3.005   1.091  1.0230  0.9056  0.0397
 4984TIP3    H214914   6.332   2.875   1.016  0.4738  0.4473  0.9374
 4985TIP3   OH214915   0.366   4.348   2.782  0.0257 -0.2322  0.0700
 4985TIP3    H114916   0.305   4.278   2.807  0.1291 -0.3564 -0.0265
 4985TIP3    H214917   0.435   4.304   2.733  0.9789 -0.3116  1.4503
 4986TIP3   OH214918   5.909   6.816   5.020 -0.2012  0.4050 -0.0521
 4986TIP3    H114919   5.866   6.787   5.100 -1.2098  1.7799 -0.0556
 4986TIP3    H214920   5.990   6.858   5.051 -1.0966  1.8896  0.3843
 4987TIP3   OH214921   1.641   1.868   3.700 -0.8335  0.1369  0.0983
 4987TIP3    H114922   1.559   1.894   3.742 -1.6897 -1.5513 -0.4485
 4987TIP3    H214923   1.647   1.774   3.716  0.5010  0.0570 -0.7424
 4988TIP3   OH214924   0.489   0.510   5.573 -0.2354  0.4098  0.4355
 4988TIP3    H114925   0.472   0.421   5.602  0.5769  0.4875  1.1845
 4988TIP3    H214926   0.479   0.563   5.652  1.4307  0.7032  0.4787
 4989TIP3   OH214927   4.160   5.277   4.946  0.2930  0.0018 -0.0597
 4989TIP3    H114928   4.222   5.222   4.993  1.2587  1.5119  0.4759
 4989TIP3    H214929   4.087   5.289   5.007  1.0340  1.0215  0.6646
 4990TIP3   OH214930   6.044   0.447   3.571 -0.0008 -0.8041  0.2741
 4990TIP3    H114931   6.068   0.420   3.483  1.2521 -0.9022  0.6243
 4990TIP3    H214932   6.127   0.470   3.613 -0.7274  0.8028  0.9275
 4991TIP3   OH214933   6.751   6.629   0.261 -0.0791  0.0484  0.6705
 4991TIP3    H114934   6.691   6.603   0.331  0.4837 -0.7610  0.8704
 4991TIP3    H214935   6.777   6.546   0.220 -0.8629  0.5383 -0.9008
 4992TIP3   OH214936   4.032   0.135   0.265  0.8582  0.0691 -0.5364
 4992TIP3    H114937   4.073   0.048   0.259  1.7929  0.5308 -1.0521
 4992TIP3    H214938   4.092   0.193   0.218  0.0609  0.9373 -0.5102
 4993TIP3   OH214939   5.452   0.534   1.551  0.0470 -0.3414 -0.5350
 4993TIP3    H114940   5.409   0.519   1.467 -0.8249 -0.8616 -0.0202
 4993TIP3    H214941   5.483   0.624   1.547 -0.4903 -0.1755 -1.1943
 4994TIP3   OH214942   4.870   4.478   2.890 -0.0358 -0.2161  0.3571
 4994TIP3    H114943   4.916   4.531   2.954  1.4294 -0.5202 -0.4008
 4994TIP3    H214944   4.794   4.443   2.937 -0.4917  1.7274  1.1317
 4995TIP3   OH214945   0.935   3.072   2.411  0.8581 -0.4041  0.1724
 4995TIP3    H114946   1.022   3.075   2.450  0.6702  1.9790  0.5738
 4995TIP3    H214947   0.935   3.143   2.346 -1.2141  0.7002  1.2672
 4996TIP3   OH214948   1.828   3.816   1.046  0.0403 -0.0842  0.2020
 4996TIP3    H114949   1.844   3.827   1.140  0.2289 -1.1848  0.3148
 4996TIP3    H214950   1.852   3.901   1.008  0.1956  0.2992  1.1147
 4997TIP3   OH214951   6.249   3.924   5.951 -0.4309  0.0916 -0.3308
 4997TIP3    H114952   6.301   3.996   5.916 -1.7261  1.7939  1.0899
 4997TIP3    H214953   6.197   3.893   5.876  1.7270 -0.9135 -1.4944
 4998TIP3   OH214954   6.363   7.059   2.991 -0.0793 -0.0467  0.5502
 4998TIP3    H114955   6.407   7.018   2.917 -3.3110 -1.6203 -0.7052
 4998TIP3    H214956   6.396   7.011   3.067  1.3666 -0.1640 -0.1136
 4999TIP3   OH214957   0.925   6.940   0.373 -0.5454 -0.2744 -0.1440
 4999TIP3    H114958   1.008   6.899   0.349 -1.2165 -1.0968 -1.1318
 4999TIP3    H214959   0.929   7.028   0.334 -0.7092 -0.8174 -1.4206
 5000TIP3   OH214960   4.193   1.297   1.400 -0.2928  0.2959  0.2501
 5000TIP3    H114961   4.229   1.370   1.448 -1.5245  1.7853 -0.9815
 5000TIP3    H214962   4.098   1.313   1.398 -0.7752 -2.0360  1.0799
 5001TIP3   OH214963   1.759   2.101   5.193 -0.1673  0.4730  0.1259
 5001TIP3    H114964   1.815   2.130   5.265  0.3179  2.8604 -1.1150
 5001TIP3    H214965   1.805   2.026   5.156  1.0841  1.0069  0.5190
 5002TIP3   OH214966   4.357   6.810   1.953 -0.4920 -0.5946  0.0471
 5002TIP3    H114967   4.381   6.821   1.861  1.3665 -1.3130  0.4012
 5002TIP3    H214968   4.281   6.752   1.951  0.0674 -1.3213 -1.0147
 5003TIP3   OH214969   4.646   7.139   3.701 -0.7643 -0.2974  0.1330
 5003TIP3    H114970   4.614   7.184   3.622  2.6912 -0.6102 -1.6342
 5003TIP3    H214971   4.669   7.051   3.670  1.3851 -0.1846  1.2441
 5004TIP3   OH214972   5.662   1.329   3.818  0.3997 -0.0798 -0.7407
 5004TIP3    H114973   5.656   1.243   3.775 -4.0302 -0.1072 -0.5279
 5004TIP3    H214974   5.625   1.389   3.754  0.2840  1.1031  0.4138
 5005TIP3   OH214975   6.881   5.623   5.684 -0.1331 -0.3421 -0.7440
 5005TIP3    H114976   6.867   5.701   5.738 -1.6826 -0.1029 -1.4333
 5005TIP3    H214977   6.965   5.639   5.640  0.1341  0.3898  0.0021
 5006TIP3   OH214978   5.320   5.724   3.540  0.1955  0.5324 -0.0810
 5006TIP3    H114979   5.299   5.788   3.471 -0.5567 -0.7821 -1.1023
 5006TIP3    H214980   5.334   5.642   3.493  1.7769  0.0416  1.1548
 5007TIP3   OH214981   6.233   1.033   2.306 -0.5024  0.0199 -0.1992
 5007TIP3    H114982   6.280   1.086   2.370 -1.9576  0.4540  0.5507
 5007TIP3    H214983   6.296   0.966   2.280  0.2971  0.1441  1.2868
 5008TIP3   OH214984   2.582   0.579   1.488  0.6349  0.2246 -0.0417
 5008TIP3    H114985   2.563   0.669   1.513 -2.0450 -0.1951 -0.1988
 5008TIP3    H214986   2.498   0.533   1.500  1.2029 -1.6544 -2.4836
 5009TIP3   OH214987   5.369   3.575   2.891 -0.2170  0.3529  0.0761
 5009TIP3    H114988   5.447   3.519   2.885 -0.7181 -0.2889 -0.8687
 5009TIP3    H214989   5.398   3.653   2.938  0.7198 -0.3389  0.6756
 5010TIP3   OH214990   1.247   5.769   5.856 -0.3121  0.3787  0.6109
 5010TIP3    H114991   1.284   5.716   5.927 -2.3196  1.2047  2.3979
 5010TIP3    H214992   1.218   5.704   5.792  1.8395 -0.3770  0.3378
 5011TIP3   OH214993   5.792   3.378   3.268 -0.1258  0.0073 -0.2740
 5011TIP3    H114994   5.790   3.429   3.349  2.2674  1.6796 -1.1710
 5011TIP3    H214995   5.870   3.323   3.276 -0.1115 -0.1378 -1.2460
 5012TIP3   OH214996   6.533   3.310   0.076 -0.1370 -0.7152  0.1471
 5012TIP3    H114997   6.618   3.339   0.110 -0.0346  0.4368 -1.0071
 5012TIP3    H214998   6.475   3.315   0.151  0.4353  0.2030  0.5530
 5013TIP3   OH214999   1.505   4.897   1.967 -0.0222 -0.3415 -0.3384
 5013TIP3    H115000   1.513   4.814   1.921 -0.7093  0.6481 -2.3806
 5013TIP3    H215001   1.430   4.940   1.927 -1.0300  0.4020  2.1483
 5014TIP3   OH215002   6.790   6.908   1.694  0.0985 -0.5696 -0.0672
 5014TIP3    H115003   6.827   6.994   1.677  0.5486 -1.0996 -2.0722
 5014TIP3    H215004   6.699   6.925   1.719  0.5755  0.5321  1.0157
 5015TIP3   OH215005   6.657   6.967   6.168  0.1691  0.3057 -0.1992
 5015TIP3    H115006   6.592   6.903   6.138 -1.0574  1.0763  0.7210
 5015TIP3    H215007   6.655   7.036   6.102 -0.4444  0.6340  0.1486
 5016TIP3   OH215008   6.831   0.783   6.131 -0.3487 -0.0689  0.2834
 5016TIP3    H115009   6.764   0.786   6.063 -1.6323  1.0016  1.5175
 5016TIP3    H215010   6.869   0.871   6.132  1.8793 -0.9328 -1.0848
 5017TIP3   OH215011   0.336   4.010   3.902 -0.2379  0.0176  0.1375
 5017TIP3    H115012   0.245   4.017   3.931 -0.6051 -0.3194 -0.8849
 5017TIP3    H215013   0.383   4.073   3.957 -0.9707 -0.2397  1.1056
 5018TIP3   OH215014   7.210   2.134   4.228 -0.5350 -0.0069 -0.1639
 5018TIP3    H115015   7.146   2.188   4.273  0.0912 -0.1055  0.8854
 5018TIP3    H215016   7.259   2.195   4.172 -0.7613  0.2656 -0.0631
 5019TIP3   OH215017   6.788   0.808   1.776 -0.0194 -0.6339 -0.1782
 5019TIP3    H115018   6.748   0.895   1.776 -1.5239 -1.2919  1.1148
 5019TIP3    H215019   6.716   0.747   1.791  0.9647 -2.1569 -1.2636
 5020TIP3   OH215020   7.039   2.124   5.591  1.0359  0.4886  0.1283
 5020TIP3    H115021   6.964   2.141   5.648  0.0843 -0.9575 -0.6320
 5020TIP3    H215022   7.109   2.099   5.650 -0.5499 -3.3105  0.7082
 5021TIP3   OH215023   4.745   6.771   1.836  0.1045  0.0164 -0.3341
 5021TIP3    H115024   4.670   6.729   1.877  0.7159 -1.2249 -0.4529
 5021TIP3    H215025   4.787   6.819   1.908  0.5021 -1.1798  0.2505
 5022TIP3   OH215026   3.470   6.951   4.216  0.1815  0.1399  0.1685
 5022TIP3    H115027   3.434   7.037   4.198 -0.2737 -0.2880 -1.0044
 5022TIP3    H215028   3.512   6.961   4.302 -0.1824  1.4168  0.2213
 5023TIP3   OH215029   3.303   0.923   4.665 -0.2356 -0.2740 -0.0447
 5023TIP3    H115030   3.262   0.983   4.603  0.3424 -0.7938 -0.9515
 5023TIP3    H215031   3.287   0.962   4.751 -0.0951  1.0416 -0.5947
 5024TIP3   OH215032   1.604   3.394   4.205 -0.0025 -0.0011 -0.5177
 5024TIP3    H115033   1.631   3.319   4.257  3.1480  0.3614 -1.4561
 5024TIP3    H215034   1.624   3.371   4.115  1.3573  2.0115 -0.8064
 5025TIP3   OH215035   2.652   3.756   3.012  0.8850  0.2281  0.5865
 5025TIP3    H115036   2.636   3.830   2.954 -0.4790  0.2945  1.0085
 5025TIP3    H215037   2.648   3.794   3.100  0.6091 -0.2687  0.7904
 5026TIP3   OH215038   3.184   1.388   2.765 -0.0644  0.6227 -0.0860
 5026TIP3    H115039   3.102   1.377   2.716  0.1335  1.4132 -0.6008
 5026TIP3    H215040   3.218   1.299   2.775 -1.9976 -0.0154  1.9254
 5027TIP3   OH215041   5.338   3.936   4.986  0.0892  0.5361 -0.1550
 5027TIP3    H115042   5.268   3.884   5.026 -0.5685  0.4402 -1.3771
 5027TIP3    H215043   5.347   4.013   5.043 -0.2021 -0.0170  0.6477
 5028TIP3   OH215044   3.980   2.743   5.944 -0.2934  0.2623  0.1991
 5028TIP3    H115045   3.993   2.834   5.974 -0.0016 -0.1178  1.2615
 5028TIP3    H215046   3.987   2.749   5.849  0.0974  1.3071  0.2712
 5029TIP3   OH215047   6.330   6.640   0.344 -0.5845  0.4960  0.1828
 5029TIP3    H115048   6.356   6.600   0.427  0.8619 -1.5491 -1.1567
 5029TIP3    H215049   6.412   6.652   0.296 -1.4369  1.0715 -1.1975
 5030TIP3   OH215050   3.694   6.623   0.576 -0.0624  0.3095  0.6216
 5030TIP3    H115051   3.773   6.674   0.557  0.3884 -0.6992 -0.3205
 5030TIP3    H215052   3.626   6.688   0.594  0.1855  1.2973 -1.7437
 5031TIP3   OH215053   5.285   2.055   3.818 -0.2657 -0.5509 -0.6055
 5031TIP3    H115054   5.293   1.979   3.761 -0.6089 -0.2356 -1.0856
 5031TIP3    H215055   5.330   2.030   3.899 -2.6494 -2.3161  0.3107
 5032TIP3   OH215056   2.147   3.381   1.332 -0.7518 -0.3005 -0.6796
 5032TIP3    H115057   2.155   3.286   1.324  0.6657 -0.2722  0.0437
 5032TIP3    H215058   2.215   3.416   1.273  0.5507  0.1640  1.0089
 5033TIP3   OH215059   0.316   3.967   5.229  0.1503 -0.4317  0.3772
 5033TIP3    H115060   0.397   3.939   5.272  0.3947  0.2231  0.3596
 5033TIP3    H215061   0.248   3.958   5.297  0.3672 -0.3177  0.6114
 5034TIP3   OH215062   7.050   2.378   4.938  0.3368  0.7158 -0.6239
 5034TIP3    H115063   6.977   2.433   4.965  1.9418  2.2692  0.7662
 5034TIP3    H215064   7.020   2.336   4.857 -1.9661  1.4865 -0.2213
 5035TIP3   OH215065   4.566   5.579   5.160 -0.0678 -0.1438 -0.2481
 5035TIP3    H115066   4.578   5.489   5.132 -2.3723 -1.1499  1.6414
 5035TIP3    H215067   4.492   5.611   5.108 -0.2296  0.1591  0.1636
 5036TIP3   OH215068   5.248   0.264   3.114 -0.4382  0.3253 -0.4164
 5036TIP3    H115069   5.240   0.329   3.045  1.7024  1.5564  0.4124
 5036TIP3    H215070   5.159   0.232   3.127 -0.9688  0.3292 -3.4262
 5037TIP3   OH215071   3.141   5.946   1.729 -0.0698 -0.0276  0.1254
 5037TIP3    H115072   3.131   6.001   1.806 -0.3898 -0.3403  0.3116
 5037TIP3    H215073   3.184   6.002   1.664 -1.9195  1.0122 -0.2715
 5038TIP3   OH215074   5.410   6.605   4.140 -0.1112 -0.2435 -0.1238
 5038TIP3    H115075   5.500   6.577   4.157  0.9335  1.6843 -1.9474
 5038TIP3    H215076   5.362   6.583   4.219  2.1395 -0.6740  1.1999
 5039TIP3   OH215077   7.544   0.839   3.895  0.2630  0.1746  0.1052
 5039TIP3    H115078   7.497   0.917   3.863 -0.4905 -0.4944 -0.4762
 5039TIP3    H215079   7.542   0.847   3.990  1.9654  1.8749  0.0599
 5040TIP3   OH215080   6.811   3.598   2.291  0.2744  1.0820 -0.3861
 5040TIP3    H115081   6.897   3.561   2.276  0.5333  0.9683  1.1973
 5040TIP3    H215082   6.752   3.523   2.298 -0.0384  1.1727 -1.8534
 5041TIP3   OH215083   4.039   4.722   2.595 -0.3069 -0.0743 -0.2408
 5041TIP3    H115084   3.987   4.779   2.652 -1.1749 -1.7125  0.6820
 5041TIP3    H215085   4.119   4.705   2.644 -1.2522 -1.8678  0.8189
 5042TIP3   OH215086   0.548   2.469   0.636 -0.2202 -0.4471  0.2753
 5042TIP3    H115087   0.484   2.533   0.607 -0.8271 -0.2494  1.9548
 5042TIP3    H215088   0.540   2.467   0.731  0.1226 -2.6608  0.3268
 5043TIP3   OH215089   3.727   5.493   4.755 -0.2275  0.5394  0.0382
 5043TIP3    H115090   3.722   5.403   4.723 -1.1492  0.7610 -0.4639
 5043TIP3    H215091   3.782   5.539   4.691 -0.3364  0.4990 -0.0828
 5044TIP3   OH215092   7.375   0.969   3.566 -0.0215 -0.1745 -0.3483
 5044TIP3    H115093   7.367   1.051   3.614 -1.2237  0.9235 -2.2994
 5044TIP3    H215094   7.320   0.907   3.613  1.6571 -0.2195  1.7148
 5045TIP3   OH215095   5.999   1.239   5.693 -0.1036  0.3682 -0.6218
 5045TIP3    H115096   5.921   1.205   5.649 -0.3551  0.5241 -0.2999
 5045TIP3    H215097   6.036   1.301   5.631  0.7784 -1.0122 -1.5365
 5046TIP3   OH215098   2.944   7.017   4.342 -0.4487 -0.7390  0.2461
 5046TIP3    H115099   3.031   7.055   4.336 -0.9595  0.5812  0.7024
 5046TIP3    H215100   2.924   6.986   4.254  0.2642 -0.5368  0.0115
 5047TIP3   OH215101   2.894   5.517   2.841  0.8427 -0.4485 -0.9241
 5047TIP3    H115102   2.865   5.529   2.751  0.8654  0.3208 -0.8356
 5047TIP3    H215103   2.913   5.606   2.872  0.5226 -0.6711 -0.0631
 5048TIP3   OH215104   6.043   2.931   3.137 -0.0618  0.0420 -0.1455
 5048TIP3    H115105   6.106   2.930   3.065  1.6573  0.3601  1.2861
 5048TIP3    H215106   5.958   2.917   3.095  1.0630 -1.7101 -2.0104
 5049TIP3   OH215107   4.224   0.161   0.838 -0.2483  0.2741  0.1173
 5049TIP3    H115108   4.181   0.099   0.780 -1.1091 -0.6086  1.6289
 5049TIP3    H215109   4.251   0.109   0.914  1.8009  1.1732  0.0820
 5050TIP3   OH215110   6.105   4.747   1.047 -0.1933 -0.1647 -0.3638
 5050TIP3    H115111   6.098   4.810   0.975  2.1313  2.1175  1.2138
 5050TIP3    H215112   6.016   4.744   1.084 -0.6957  1.0977 -1.3802
 5051TIP3   OH215113   1.045   3.159   4.516  0.1866 -0.3088 -0.1998
 5051TIP3    H115114   0.963   3.130   4.476  0.9072 -0.0478 -1.9717
 5051TIP3    H215115   1.089   3.078   4.543 -1.3339 -0.3974  2.3552
 5052TIP3   OH215116   4.650   0.602   0.905 -0.1518 -0.0551 -0.1966
 5052TIP3    H115117   4.672   0.695   0.907  0.0558 -0.1173  1.1938
 5052TIP3    H215118   4.578   0.596   0.842 -0.2681  1.0651 -0.1836
 5053TIP3   OH215119   4.151   0.055   2.836 -0.0505  0.5452 -0.4539
 5053TIP3    H115120   4.162   0.150   2.832  0.8520  0.4689  0.0252
 5053TIP3    H215121   4.145   0.027   2.744 -0.4692  1.0783 -0.5894
 5054TIP3   OH215122   7.320   4.446   6.148  0.2227  0.7163 -0.4120
 5054TIP3    H115123   7.397   4.390   6.139  0.3209  0.8712 -0.5347
 5054TIP3    H215124   7.251   4.400   6.099  0.2675  0.6353 -0.3991
 5055TIP3   OH215125   2.819   6.598   0.573  0.0637 -0.2959  0.0390
 5055TIP3    H115126   2.887   6.551   0.525 -1.8094 -2.6069 -0.5340
 5055TIP3    H215127   2.797   6.673   0.517  1.0397 -0.4086 -0.5087
 5056TIP3   OH215128   4.063   2.443   1.116 -0.0979  0.1079 -0.2235
 5056TIP3    H115129   4.005   2.489   1.177  0.7248 -0.3125  0.9166
 5056TIP3    H215130   4.044   2.481   1.030 -2.1109 -0.0845  0.1041
 5057TIP3   OH215131   1.664   1.092   4.952 -0.3524 -0.8196 -0.9591
 5057TIP3    H115132   1.695   1.142   4.876  1.0991 -2.1584 -1.3035
 5057TIP3    H215133   1.622   1.157   5.007  1.3846  0.8007 -1.4177
 5058TIP3   OH215134   4.679   0.638   6.060  0.1005 -0.0087  0.4626
 5058TIP3    H115135   4.660   0.728   6.086 -0.3154 -0.7461  2.9534
 5058TIP3    H215136   4.593   0.596   6.054  0.2909 -0.2854 -0.6519
 5059TIP3   OH215137   5.212   1.689   1.911  0.6414 -0.0927 -0.2059
 5059TIP3    H115138   5.148   1.735   1.857  1.9561  0.4318 -1.3771
 5059TIP3    H215139   5.179   1.599   1.917 -0.6763  0.3923  0.0306
 5060TIP3   OH215140   5.238   3.574   0.900 -0.6687 -0.4634  0.5544
 5060TIP3    H115141   5.190   3.636   0.955 -2.3779 -0.7655 -0.5174
 5060TIP3    H215142   5.232   3.491   0.948 -1.3010 -0.5113  0.4069
 5061TIP3   OH215143   2.276   2.801   4.290 -0.2697  0.0084 -0.2408
 5061TIP3    H115144   2.269   2.709   4.264  0.5286  0.2699 -1.5305
 5061TIP3    H215145   2.201   2.844   4.249  1.7585  0.6853 -3.6638
 5062TIP3   OH215146   4.910   6.302   3.403 -0.2274 -0.2265  0.3031
 5062TIP3    H115147   4.940   6.299   3.312 -1.6736 -0.5288 -0.2028
 5062TIP3    H215148   4.869   6.389   3.411  2.5107  1.0521  1.6084
 5063TIP3   OH215149   0.110   7.147   4.140  0.6650 -0.2677 -0.0826
 5063TIP3    H115150   0.206   7.140   4.144  0.6183 -0.8457  0.0475
 5063TIP3    H215151   0.091   7.153   4.046  0.8361 -0.0403 -0.1039
 5064TIP3   OH215152   3.758   1.857   4.559  0.0186 -0.4047 -0.0142
 5064TIP3    H115153   3.791   1.849   4.470  0.5517 -2.7304  0.3444
 5064TIP3    H215154   3.832   1.834   4.615 -1.0812 -1.8598  0.9136
 5065TIP3   OH215155   1.766   6.570   2.197  0.1385 -0.3389  0.3984
 5065TIP3    H115156   1.743   6.517   2.273 -0.8965  0.7373  0.8624
 5065TIP3    H215157   1.766   6.660   2.230 -1.1724  0.2288 -1.0439
 5066TIP3   OH215158   0.393   6.845   0.739  0.4497 -0.2629  0.5602
 5066TIP3    H115159   0.465   6.869   0.797  0.7903  2.5143 -0.8337
 5066TIP3    H215160   0.436   6.800   0.666  0.8076  1.2030 -0.1682
 5067TIP3   OH215161   6.802   6.840   4.603 -0.3203 -0.0092 -0.4376
 5067TIP3    H115162   6.761   6.834   4.517  1.4954 -0.3689 -1.3085
 5067TIP3    H215163   6.767   6.765   4.652 -0.5701 -0.4007 -1.2096
 5068TIP3   OH215164   5.032   2.319   3.539 -0.2521 -0.5655 -0.5686
 5068TIP3    H115165   5.078   2.399   3.567 -0.1187 -0.8202 -0.0557
 5068TIP3    H215166   5.069   2.300   3.453 -0.1584 -0.1713 -0.6181
 5069TIP3   OH215167   1.859   6.085   3.385 -0.0103 -0.2921 -0.0595
 5069TIP3    H115168   1.893   6.174   3.390  0.5295 -0.4473 -0.8777
 5069TIP3    H215169   1.807   6.075   3.465  0.5379  0.4956  0.4083
 5070TIP3   OH215170   1.684   6.175   2.427  0.5749  0.0438 -0.5333
 5070TIP3    H115171   1.775   6.201   2.410  0.3236  0.4403 -1.3043
 5070TIP3    H215172   1.635   6.207   2.351 -0.2806  0.1939  0.0675
 5071TIP3   OH215173   0.425   6.349   6.087  0.3088  0.7728 -0.1468
 5071TIP3    H115174   0.513   6.311   6.087 -0.3825 -0.9081  0.0727
 5071TIP3    H215175   0.404   6.360   5.994  0.7375  1.1922 -0.2011
 5072TIP3   OH215176   7.601   4.114   3.778  0.3504  0.6832 -0.0190
 5072TIP3    H115177   7.553   4.062   3.714  1.0714  0.8764 -0.7270
 5072TIP3    H215178   7.536   4.173   3.815 -0.6894 -1.2070  1.3944
 5073TIP3   OH215179   5.109   3.012   4.525 -0.1043 -0.0584 -0.1140
 5073TIP3    H115180   5.034   2.976   4.479 -0.1950  0.1886 -0.1582
 5073TIP3    H215181   5.081   3.018   4.616 -0.5438  1.1105 -0.3128
 5074TIP3   OH215182   2.960   2.984   2.491  0.6571  0.0070 -0.5091
 5074TIP3    H115183   2.928   2.897   2.467  2.2200 -0.5865 -0.5326
 5074TIP3    H215184   2.932   2.996   2.582 -2.0674  0.7355 -1.3382
 5075TIP3   OH215185   6.879   2.179   4.669 -0.2632  0.0385 -0.2199
 5075TIP3    H115186   6.811   2.211   4.730 -0.5101 -0.5117 -0.2015
 5075TIP3    H215187   6.927   2.258   4.644  1.5516  0.0123  2.7148
 5076TIP3   OH215188   4.490   1.175   1.877 -0.1314 -0.2017 -0.2743
 5076TIP3    H115189   4.499   1.213   1.789  2.8513 -1.0484 -0.4424
 5076TIP3    H215190   4.489   1.081   1.862  0.5856 -0.3598  0.5710
 5077TIP3   OH215191   0.763   4.525   4.289  0.4847  0.1297 -0.6228
 5077TIP3    H115192   0.672   4.550   4.307  1.0747  1.9538  0.0415
 5077TIP3    H215193   0.797   4.596   4.235  1.0738 -1.3640 -2.3216
 5078TIP3   OH215194   0.756  -0.010   1.214 -0.4222 -0.4334 -0.5972
 5078TIP3    H115195   0.727   0.081   1.227  0.2472 -0.3061  0.0353
 5078TIP3    H215196   0.777  -0.041   1.302  0.2823 -0.8901 -0.9255
 5079TIP3   OH215197   2.997   4.607   0.249 -0.2188 -0.0588 -0.6835
 5079TIP3    H115198   2.924   4.604   0.311  0.5149 -0.1837  0.1962
 5079TIP3    H215199   2.961   4.573   0.168 -0.4873 -2.7420  0.4519
 5080TIP3   OH215200   0.930   2.311   1.472 -0.0229 -0.1122 -0.2973
 5080TIP3    H115201   0.934   2.226   1.516 -0.3053 -1.0061 -1.8774
 5080TIP3    H215202   0.843   2.313   1.433 -0.1387  1.0654  0.0152
 5081TIP3   OH215203   6.277   5.795   4.226  0.0087  0.3714  0.4898
 5081TIP3    H115204   6.346   5.849   4.186 -0.8981  0.7317 -0.6394
 5081TIP3    H215205   6.223   5.857   4.275  0.6455  0.0416  1.6617
 5082TIP3   OH215206   2.689   2.728   5.560 -0.1524  0.7724  0.4730
 5082TIP3    H115207   2.688   2.670   5.636  0.5043 -0.2146 -0.2454
 5082TIP3    H215208   2.600   2.724   5.525  0.0099 -0.1946  0.1484
 5083TIP3   OH215209   7.555   5.607   5.833  0.1192 -0.1269 -0.2745
 5083TIP3    H115210   7.501   5.589   5.756  0.9846 -0.8454 -0.7352
 5083TIP3    H215211   7.644   5.611   5.799  0.3183  1.6021  0.3842
 5084TIP3   OH215212   6.606   4.424   2.544 -0.0040  0.2392 -0.2767
 5084TIP3    H115213   6.685   4.378   2.517  1.8990  3.1083 -0.0491
 5084TIP3    H215214   6.534   4.367   2.516  2.0763 -3.1193  0.6311
 5085TIP3   OH215215   3.537   2.557   0.063  0.1051 -0.1334 -0.1503
 5085TIP3    H115216   3.533   2.604   0.146  0.6010 -1.0361  0.3976
 5085TIP3    H215217   3.479   2.483   0.074  0.8674 -0.7673 -0.2661
 5086TIP3   OH215218   7.291   3.373   6.119  0.0330  0.2536  0.3801
 5086TIP3    H115219   7.285   3.395   6.026  1.5697 -1.4064 -0.1786
 5086TIP3    H215220   7.304   3.278   6.120 -1.0562  0.0657  2.3695
 5087TIP3   OH215221   6.102   5.442   5.538 -0.7608  0.1056 -0.0564
 5087TIP3    H115222   6.073   5.442   5.447 -1.1323  1.2672  0.0464
 5087TIP3    H215223   6.196   5.425   5.534 -0.7301  0.3989 -0.6742
 5088TIP3   OH215224   6.838   5.489   5.158  0.1214  0.0907  0.0926
 5088TIP3    H115225   6.920   5.539   5.151  1.3869 -1.9975 -0.7578
 5088TIP3    H215226   6.833   5.464   5.250 -0.2428  1.2407  0.4113
 5089TIP3   OH215227   0.559   3.551   1.590  0.4316  0.5872  0.0533
 5089TIP3    H115228   0.599   3.575   1.674  2.7774 -0.8436 -0.5588
 5089TIP3    H215229   0.484   3.497   1.614  0.2911  1.2765  1.2384
 5090TIP3   OH215230   2.580   0.856   1.520  0.0674 -0.2975 -0.3133
 5090TIP3    H115231   2.542   0.924   1.577  1.1127  0.1398 -0.1222
 5090TIP3    H215232   2.559   0.886   1.431 -0.2080 -0.1672 -0.2079
 5091TIP3   OH215233   4.896   3.950   3.230  0.3769  0.0059 -0.5079
 5091TIP3    H115234   4.971   3.986   3.278  1.5092 -3.1616  0.3316
 5091TIP3    H215235   4.820   3.994   3.268  1.5081  0.1000  1.8087
 5092TIP3   OH215236   4.562   3.137   4.972  0.0199  0.4005 -0.4940
 5092TIP3    H115237   4.538   3.097   5.055  1.4175  0.1966 -0.1649
 5092TIP3    H215238   4.531   3.074   4.906 -3.7792  1.9168 -0.3726
 5093TIP3   OH215239   2.703   4.330   4.168 -0.1484  0.3095  0.2446
 5093TIP3    H115240   2.797   4.344   4.174  0.0998 -1.5350  1.2553
 5093TIP3    H215241   2.667   4.374   4.245  0.1440 -0.8841  1.0725
 5094TIP3   OH215242   3.350   2.419   3.894  0.1687 -0.5587 -0.0867
 5094TIP3    H115243   3.332   2.406   3.987 -1.3974  0.7835 -0.1372
 5094TIP3    H215244   3.270   2.390   3.850  0.9513 -1.3269 -1.0486
 5095TIP3   OH215245   3.311   3.714   3.748 -0.3759 -0.4370  0.9638
 5095TIP3    H115246   3.330   3.729   3.841  1.0014  0.9687  0.5154
 5095TIP3    H215247   3.389   3.669   3.715 -0.4617 -0.1196  0.3141
 5096TIP3   OH215248   0.281   0.612   1.707  0.1621  0.2325 -0.3138
 5096TIP3    H115249   0.269   0.687   1.765  0.5494  2.9944 -3.5192
 5096TIP3    H215250   0.375   0.611   1.688  0.2741 -1.5541  0.1844
 5097TIP3   OH215251   5.884   1.558   1.191  0.6377  0.4493  0.1331
 5097TIP3    H115252   5.898   1.576   1.099 -0.8150  1.6185  0.1212
 5097TIP3    H215253   5.915   1.636   1.237 -0.6289  0.7929  0.4590
 5098TIP3   OH215254   2.318   2.526   0.108  0.3412 -1.1218 -0.0907
 5098TIP3    H115255   2.270   2.506   0.189  0.1513 -2.3589 -0.4898
 5098TIP3    H215256   2.393   2.467   0.109  0.1510 -1.3901 -0.9782
 5099TIP3   OH215257   5.740   4.048   1.114  0.0182  0.2231 -0.6083
 5099TIP3    H115258   5.809   3.990   1.080  1.0218  1.3667 -0.5671
 5099TIP3    H215259   5.787   4.116   1.161 -1.2602 -0.0735  1.1758
 5100TIP3   OH215260   4.865   0.507   2.775  0.3481 -0.7421 -0.2974
 5100TIP3    H115261   4.864   0.412   2.765  0.2605 -0.7868  0.1240
 5100TIP3    H215262   4.826   0.540   2.694  0.1583 -1.0724 -0.3427
 5101TIP3   OH215263   7.038   1.864   0.342 -0.0814 -0.2629 -0.4300
 5101TIP3    H115264   7.119   1.839   0.385 -0.0144  0.5020 -0.1106
 5101TIP3    H215265   6.969   1.836   0.403 -0.0213  0.0128 -0.2376
 5102TIP3   OH215266   6.291   1.449   0.775 -0.1751 -0.3568  0.1508
 5102TIP3    H115267   6.245   1.394   0.838 -1.3291 -0.1685 -0.5148
 5102TIP3    H215268   6.359   1.493   0.827  1.1354 -2.7411  0.6305
 5103TIP3   OH215269   3.055   7.057   2.523 -0.5991 -0.0393  0.2719
 5103TIP3    H115270   3.056   7.141   2.477  0.7529 -0.2379 -0.1055
 5103TIP3    H215271   3.054   7.079   2.616 -1.6251  0.3701  0.1796
 5104TIP3   OH215272   4.906   0.376   1.367 -0.5244  0.2984  0.3983
 5104TIP3    H115273   4.857   0.404   1.444  0.3635  1.0603  0.7018
 5104TIP3    H215274   4.864   0.294   1.341 -3.5259  2.0473 -0.7881
 5105TIP3   OH215275   6.744   5.784   4.132  0.4281  0.0051  0.1659
 5105TIP3    H115276   6.677   5.773   4.199 -0.3652 -1.3718 -0.8078
 5105TIP3    H215277   6.782   5.697   4.122  2.1069  0.6660  0.3945
 5106TIP3   OH215278   0.588   1.190   2.109 -0.4771  0.0813  0.6129
 5106TIP3    H115279   0.494   1.180   2.122 -0.8259  0.5945 -1.1131
 5106TIP3    H215280   0.617   1.107   2.072 -0.5025  0.3192  0.0389
 5107TIP3   OH215281   7.346   1.053   0.739  0.1034 -0.1653  0.4812
 5107TIP3    H115282   7.370   0.967   0.775  1.0122 -0.7181 -1.3245
 5107TIP3    H215283   7.339   1.110   0.815  2.8179 -1.0543  1.5035
 5108TIP3   OH215284   0.617   4.689   1.658 -0.3530  0.1209  0.1176
 5108TIP3    H115285   0.600   4.717   1.568 -2.1888  1.8233  0.9237
 5108TIP3    H215286   0.602   4.594   1.656 -1.5809  0.3034 -1.1498
 5109TIP3   OH215287   1.026   6.969   3.395 -0.4843  0.7878  0.6292
 5109TIP3    H115288   1.041   6.897   3.334 -1.1631  0.2799  1.0387
 5109TIP3    H215289   1.110   6.984   3.437  0.0034  1.1825 -0.4588
 5110TIP3   OH215290   2.675   5.997   3.612  0.7096 -0.1002  0.2810
 5110TIP3    H115291   2.698   6.020   3.702  1.0513 -1.4197  0.5391
 5110TIP3    H215292   2.580   5.982   3.615  0.5620  0.7312  0.2086
 5111TIP3   OH215293   7.521   3.034   4.023  0.3475 -0.3086  0.6083
 5111TIP3    H115294   7.593   3.091   4.051  0.6501 -0.5181  0.2710
 5111TIP3    H215295   7.468   3.089   3.966  0.7477 -0.4200  0.1251
 5112TIP3   OH215296   6.857   5.994   1.747  0.5064  0.3710 -0.3315
 5112TIP3    H115297   6.841   6.061   1.681 -1.9630 -0.6772 -0.9138
 5112TIP3    H215298   6.915   5.931   1.704  1.5228  1.2744 -0.3332
 5113TIP3   OH215299   0.095   4.709   5.132 -0.2186  0.1677 -0.3121
 5113TIP3    H115300   0.152   4.752   5.069  1.5330 -0.2234  0.9287
 5113TIP3    H215301   0.102   4.762   5.212 -1.7546  0.2071 -0.1730
 5114TIP3   OH215302   2.134   5.809   1.632  0.0532 -0.3066 -0.6156
 5114TIP3    H115303   2.192   5.800   1.708 -1.2284 -0.3758  0.3841
 5114TIP3    H215304   2.062   5.749   1.650 -0.8454  0.5248 -1.3484
 5115TIP3   OH215305   1.405   1.657   5.375 -0.5458  0.4804 -0.0022
 5115TIP3    H115306   1.400   1.752   5.376  0.2974  0.5316  0.3987
 5115TIP3    H215307   1.331   1.629   5.321 -0.3570  1.3859 -0.7535
 5116TIP3   OH215308   4.035   4.400   2.509 -0.7353 -0.5818 -0.5087
 5116TIP3    H115309   3.957   4.415   2.562  0.6905  0.0030  1.5363
 5116TIP3    H215310   4.074   4.321   2.545  0.8885  0.4760  0.1633
 5117TIP3   OH215311   0.997   5.462   0.149  0.1536 -0.4238  0.2044
 5117TIP3    H115312   0.934   5.391   0.135  1.1068 -1.4018  0.7282
 5117TIP3    H215313   0.950   5.527   0.201 -0.3260 -1.2777  0.8464
 5118TIP3   OH215314   4.058   3.184   5.798  0.9123 -0.6107 -0.3153
 5118TIP3    H115315   4.005   3.215   5.724  0.6001 -0.9081 -0.2176
 5118TIP3    H215316   4.115   3.258   5.819 -0.1431  0.0742  0.2198
 5119TIP3   OH215317   6.502   2.392   1.806  0.2875  0.0978  0.3662
 5119TIP3    H115318   6.461   2.434   1.881  1.3575  0.4318  0.7818
 5119TIP3    H215319   6.575   2.450   1.783  0.7672 -0.6719 -0.1046
 5120TIP3   OH215320   0.649   7.062   2.433  0.5354  0.0765  0.1573
 5120TIP3    H115321   0.653   6.976   2.475  0.2657  0.3596  0.7849
 5120TIP3    H215322   0.689   7.121   2.497  0.4368  0.4610 -0.1345
 5121TIP3   OH215323   6.845   1.173   5.617  0.3606 -0.2670 -0.1286
 5121TIP3    H115324   6.779   1.203   5.555 -1.5103 -3.5923  0.0475
 5121TIP3    H215325   6.806   1.097   5.659  4.0735 -2.0653  0.4884
 5122TIP3   OH215326   2.816   2.266   6.102  0.3970  0.0829  0.3579
 5122TIP3    H115327   2.910   2.284   6.090  0.2925 -0.3054 -1.3349
 5122TIP3    H215328   2.813   2.199   6.170  1.2633  0.8574  1.2021
 5123TIP3   OH215329   0.433   0.644   5.826  0.0955 -0.4205  0.5127
 5123TIP3    H115330   0.512   0.599   5.856 -0.4132 -0.9676  1.0580
 5123TIP3    H215331   0.461   0.734   5.813  1.7742 -1.2740 -2.9794
 5124TIP3   OH215332   0.784   0.449   3.185 -0.3685 -0.1514  0.1078
 5124TIP3    H115333   0.740   0.533   3.204  0.2240  0.1842  0.0106
 5124TIP3    H215334   0.868   0.474   3.147 -0.6471 -0.7992 -0.9789
 5125TIP3   OH215335   0.921   7.108   5.411 -0.1670 -0.2148  0.2463
 5125TIP3    H115336   0.917   7.203   5.425 -1.9451 -0.3718  1.0723
 5125TIP3    H215337   0.880   7.095   5.326 -1.8249 -0.3848  1.0408
 5126TIP3   OH215338   5.849   1.321   2.534 -0.2557  0.1386  0.0378
 5126TIP3    H115339   5.784   1.317   2.464 -0.8233 -0.9252  0.6029
 5126TIP3    H215340   5.834   1.242   2.585  4.1345 -2.4937 -2.1120
 5127TIP3   OH215341   6.230   3.125   5.780  0.7052 -0.1643  0.2551
 5127TIP3    H115342   6.236   3.100   5.872  1.3353  0.9269  0.5303
 5127TIP3    H215343   6.256   3.217   5.778 -0.6291  0.2263 -0.8329
 5128TIP3   OH215344   3.927   1.307   1.400 -0.6257 -0.1103 -0.0128
 5128TIP3    H115345   3.898   1.395   1.425 -1.8937 -0.6364  0.4450
 5128TIP3    H215346   3.875   1.248   1.454  1.0365 -1.1460  0.5443
 5129TIP3   OH215347   0.128   1.988   5.942 -0.2443  0.3556 -0.2490
 5129TIP3    H115348   0.220   1.975   5.917 -0.1793 -0.3224  0.3323
 5129TIP3    H215349   0.133   2.031   6.027 -0.4553  3.6106 -1.7275
 5130TIP3   OH215350   7.043   5.207   2.121 -0.1122 -0.4364 -0.6998
 5130TIP3    H115351   6.989   5.132   2.148  0.9758 -0.9544  0.1246
 5130TIP3    H215352   7.082   5.180   2.038  0.0946 -0.7041 -0.5200
 5131TIP3   OH215353   6.564   4.175   5.102 -0.0634  0.5030 -0.3068
 5131TIP3    H115354   6.496   4.241   5.088 -1.1301 -0.6343 -0.6691
 5131TIP3    H215355   6.539   4.103   5.045 -1.6569 -2.2054  3.3709
 5132TIP3   OH215356   6.726   1.716   3.272 -0.6395  0.3781  0.2258
 5132TIP3    H115357   6.739   1.625   3.301  0.0891 -0.2928 -1.9796
 5132TIP3    H215358   6.631   1.729   3.278 -1.0777 -1.4097 -1.6723
 5133TIP3   OH215359   0.382   2.313   3.274  0.1924 -0.0881 -0.1051
 5133TIP3    H115360   0.335   2.294   3.193 -0.0176 -0.2242  0.0470
 5133TIP3    H215361   0.470   2.278   3.259 -0.0080 -0.6206 -0.0660
 5134TIP3   OH215362   7.430   4.665   2.544 -0.1252 -0.3035  0.0730
 5134TIP3    H115363   7.411   4.601   2.613 -0.5453 -0.8853 -0.5666
 5134TIP3    H215364   7.416   4.750   2.586  2.4478 -0.5220  1.5346
 5135TIP3   OH215365   6.565   1.082   3.965 -0.1611  0.1535 -0.1411
 5135TIP3    H115366   6.527   1.170   3.974  1.8558  1.2680 -1.6219
 5135TIP3    H215367   6.566   1.047   4.054  3.1459  3.5287  1.4266
 5136TIP3   OH215368   0.979   3.397   4.213  0.3008 -0.1049  0.0522
 5136TIP3    H115369   1.061   3.404   4.262  0.2845  0.5544 -0.0086
 5136TIP3    H215370   0.941   3.485   4.216 -0.1900 -0.2983 -0.2928
 5137TIP3   OH215371   7.187   3.391   5.604  0.4729  0.4197 -0.1684
 5137TIP3    H115372   7.165   3.303   5.574  0.8930 -0.2006  1.2426
 5137TIP3    H215373   7.276   3.405   5.571  0.4932  0.2160 -0.2056
 5138TIP3   OH215374   6.588   5.402   0.396 -0.2524 -0.2774 -0.0210
 5138TIP3    H115375   6.607   5.438   0.309 -1.7359 -0.9500 -0.6689
 5138TIP3    H215376   6.626   5.315   0.394 -0.3920 -0.3381 -0.0467
 5139TIP3   OH215377   3.529   1.297   2.520  0.0923  0.1421 -0.2709
 5139TIP3    H115378   3.564   1.365   2.577 -0.3993  0.2537 -0.0953
 5139TIP3    H215379   3.473   1.343   2.458  2.3026  0.3005 -2.2671
 5140TIP3   OH215380   6.225   1.157   0.782 -0.5747  0.0944 -0.4751
 5140TIP3    H115381   6.305   1.179   0.829 -0.4534  0.2441 -0.7483
 5140TIP3    H215382   6.253   1.094   0.715 -0.9204 -0.9556  0.3330
 5141TIP3   OH215383   0.344   5.867   3.099  0.1992 -0.3679 -0.3917
 5141TIP3    H115384   0.331   5.786   3.050 -0.4638 -0.1136 -0.6511
 5141TIP3    H215385   0.413   5.847   3.161  0.1733 -1.0743 -0.5847
 5142TIP3   OH215386   2.052   6.252   5.223 -0.1510  0.2854 -0.7713
 5142TIP3    H115387   1.987   6.321   5.207 -0.8970  0.4710  2.3938
 5142TIP3    H215388   2.008   6.192   5.284  3.0375  1.2152  2.7945
 5143TIP3   OH215389   1.669   2.323   0.871 -0.3512  0.0909 -0.1901
 5143TIP3    H115390   1.627   2.303   0.788  1.1108  1.2545 -1.2782
 5143TIP3    H215391   1.748   2.269   0.873  0.0821  0.7062  0.0022
 5144TIP3   OH215392   0.735   3.024   4.499 -0.1820 -0.0439 -0.2095
 5144TIP3    H115393   0.699   2.949   4.452  1.0453 -1.0616  0.4086
 5144TIP3    H215394   0.767   3.083   4.430 -0.2592 -0.5454 -0.6747
 5145TIP3   OH215395   5.524   2.565   5.726 -0.3538  0.3426  0.2242
 5145TIP3    H115396   5.559   2.476   5.725  0.3107  0.6032  0.4538
 5145TIP3    H215397   5.442   2.558   5.677  1.0382  0.1535 -2.2295
 5146TIP3   OH215398   3.976   6.050   0.436  0.2151  0.6273  0.0315
 5146TIP3    H115399   3.945   5.987   0.371 -0.5494  0.3493  0.6505
 5146TIP3    H215400   3.930   6.027   0.516  0.3955  1.5873  0.4305
 5147TIP3   OH215401   4.258   1.143   2.749 -0.1485 -0.5319  0.3950
 5147TIP3    H115402   4.215   1.166   2.831  0.5533 -0.1011  0.6470
 5147TIP3    H215403   4.188   1.148   2.683 -0.4766  0.2084  0.7880
 5148TIP3   OH215404   0.920   0.031   4.845 -0.9033 -0.1217  0.2128
 5148TIP3    H115405   0.865   0.037   4.923  0.0545 -2.0227  1.1137
 5148TIP3    H215406   1.006   0.061   4.873  0.2818 -3.6825  0.9046
 5149TIP3   OH215407   4.342   4.253   4.299  0.0494 -0.3554  0.2091
 5149TIP3    H115408   4.312   4.265   4.209 -0.2956 -0.7887  0.2652
 5149TIP3    H215409   4.299   4.173   4.329 -0.4747  0.2284  1.0384
 5150TIP3   OH215410   0.542   0.796   4.262  0.4914  0.2159  0.2353
 5150TIP3    H115411   0.553   0.729   4.329 -1.3288  0.4621  0.8354
 5150TIP3    H215412   0.469   0.764   4.208 -1.8726  2.5998  1.7908
 5151TIP3   OH215413   5.274   5.017   4.856  0.0700 -0.2665 -0.0873
 5151TIP3    H115414   5.209   5.053   4.796  0.4015 -3.9834 -2.9937
 5151TIP3    H215415   5.338   5.088   4.867 -1.7499  1.6746 -1.3917
 5152TIP3   OH215416   2.347   3.005   5.782  0.1549  0.0099 -0.1564
 5152TIP3    H115417   2.358   2.910   5.789 -0.2408 -0.0400 -0.2435
 5152TIP3    H215418   2.343   3.022   5.688  1.2862  0.2343 -0.1859
 5153TIP3   OH215419   5.642   2.413   1.395 -0.8991 -0.6975  0.7632
 5153TIP3    H115420   5.623   2.335   1.343  0.3988 -0.7363  0.3136
 5153TIP3    H215421   5.716   2.454   1.351 -1.0643  0.3793  1.4395
 5154TIP3   OH215422   5.808   0.318   2.784  0.0106  1.0832  0.1104
 5154TIP3    H115423   5.873   0.301   2.715 -1.4707  0.2699 -1.1353
 5154TIP3    H215424   5.742   0.373   2.742 -2.2836 -1.5487 -0.0066
 5155TIP3   OH215425   7.223   2.339   2.470  0.1202 -0.3253 -0.1369
 5155TIP3    H115426   7.179   2.256   2.487 -1.5646  0.7578  1.1408
 5155TIP3    H215427   7.189   2.367   2.385  1.1351 -1.1723 -0.8496
 5156TIP3   OH215428   2.764   6.902   3.229 -0.1602  0.3605 -1.1676
 5156TIP3    H115429   2.803   6.845   3.163  0.5434  1.5272 -1.7838
 5156TIP3    H215430   2.772   6.990   3.193  0.4009  1.0407  0.5490
 5157TIP3   OH215431   0.146   3.754   4.306  0.2357 -0.2244 -0.5850
 5157TIP3    H115432   0.055   3.767   4.277  0.8190  2.2388 -1.5657
 5157TIP3    H215433   0.169   3.668   4.273 -0.8883  0.2658 -2.8782
 5158TIP3   OH215434   4.866   6.657   2.735 -0.8832 -0.6783 -0.3185
 5158TIP3    H115435   4.838   6.724   2.672  0.7420 -0.0840 -0.4832
 5158TIP3    H215436   4.961   6.651   2.721 -0.6158 -1.1549  1.4961
 5159TIP3   OH215437   5.034   2.403   6.160 -0.1602 -0.4560  0.1242
 5159TIP3    H115438   4.959   2.413   6.102  0.2759  0.1808 -0.3419
 5159TIP3    H215439   4.998   2.412   6.248 -0.9719 -2.3479  0.0206
 5160TIP3   OH215440   2.223   2.676   6.096 -0.3101 -0.1713  0.3419
 5160TIP3    H115441   2.206   2.710   6.008 -0.4704 -0.2958  0.3258
 5160TIP3    H215442   2.205   2.582   6.090  0.6676 -0.3680  0.2442
 5161TIP3   OH215443   2.078   1.992   5.780 -0.4559 -0.3712 -0.0571
 5161TIP3    H115444   2.001   1.993   5.723 -1.3020 -2.0432  0.9592
 5161TIP3    H215445   2.042   1.981   5.868  0.8977  0.2643  0.5955
 5162TIP3   OH215446   1.579   5.507   3.115 -0.1518  0.3972  0.3029
 5162TIP3    H115447   1.657   5.515   3.060 -0.3562  1.5171  0.1512
 5162TIP3    H215448   1.581   5.417   3.146  0.6679  0.1220 -0.4965
 5163TIP3   OH215449   4.171   4.017   0.082 -0.1208  0.3299  0.3782
 5163TIP3    H115450   4.138   3.970   0.006  0.6086  0.1833  0.1394
 5163TIP3    H215451   4.150   3.961   0.157  0.2919 -0.1375  0.1489
 5164TIP3   OH215452   0.807   5.888   3.593 -0.0910  0.3785  0.4611
 5164TIP3    H115453   0.722   5.847   3.579  0.3249 -0.8674  1.3587
 5164TIP3    H215454   0.788   5.963   3.650 -0.9196  1.7691 -1.5521
 5165TIP3   OH215455   6.024   6.715   0.174 -0.1409  0.1060  0.1284
 5165TIP3    H115456   6.059   6.702   0.262 -0.3677  1.7012  0.4997
 5165TIP3    H215457   6.083   6.779   0.134 -1.5301  1.4191  0.1006
 5166TIP3   OH215458   3.692   3.908   1.422  0.5995  0.1590 -0.1030
 5166TIP3    H115459   3.684   3.833   1.482 -0.1660  0.6541  0.4301
 5166TIP3    H215460   3.690   3.869   1.335 -0.4734 -0.3980  0.1560
 5167TIP3   OH215461   3.248   2.277   1.295 -0.2131 -0.1984 -0.6446
 5167TIP3    H115462   3.308   2.304   1.226  1.0805  0.3739  0.6534
 5167TIP3    H215463   3.194   2.354   1.312 -0.4402 -0.2967 -0.9088
 5168TIP3   OH215464   1.537   1.852   4.859 -0.6801  0.3870 -0.9133
 5168TIP3    H115465   1.578   1.821   4.940 -0.0719  0.6196 -1.1204
 5168TIP3    H215466   1.541   1.777   4.800  1.0678  0.8956 -1.5160
 5169TIP3   OH215467   5.229   0.051   4.904 -0.9886  0.1771  0.4511
 5169TIP3    H115468   5.147   0.101   4.902 -1.1872 -0.0940 -2.8244
 5169TIP3    H215469   5.208  -0.028   4.954 -2.4864  0.4690  0.3201
 5170TIP3   OH215470   4.816   4.938   3.937  0.7070 -0.4592 -0.4926
 5170TIP3    H115471   4.848   4.888   3.862  1.6227 -0.4952 -0.0969
 5170TIP3    H215472   4.779   5.017   3.900  3.4197  0.7405 -0.8883
 5171TIP3   OH215473   5.528   4.891   1.137  0.0495  0.5152 -0.1314
 5171TIP3    H115474   5.607   4.840   1.118  0.2540  0.4239  0.8982
 5171TIP3    H215475   5.474   4.881   1.058  0.0554 -1.3434  0.0449
 5172TIP3   OH215476   0.616   3.190   3.203  0.4116 -0.1092 -0.0723
 5172TIP3    H115477   0.564   3.230   3.273  2.3241  2.4909  0.0320
 5172TIP3    H215478   0.696   3.160   3.246  1.2656  0.7920 -0.9642
 5173TIP3   OH215479   4.786   1.807   6.182 -0.7934  0.8613  0.0712
 5173TIP3    H115480   4.749   1.784   6.267 -0.1207 -0.8734 -0.0535
 5173TIP3    H215481   4.747   1.744   6.121 -1.6238  2.3697 -1.0229
 5174TIP3   OH215482   0.201   6.429   2.638  0.3714  0.5782  0.3080
 5174TIP3    H115483   0.197   6.479   2.720 -1.7825 -0.3352  0.8352
 5174TIP3    H215484   0.166   6.343   2.661  1.3305 -0.2599 -1.2215
 5175TIP3   OH215485   7.142   2.283   3.189  0.0153 -0.3719 -0.2383
 5175TIP3    H115486   7.151   2.209   3.130  3.0372 -0.1411 -0.2311
 5175TIP3    H215487   7.107   2.246   3.270  0.0869 -1.5150 -0.7158
 5176TIP3   OH215488   6.149   7.100   1.463  0.1796  0.1441  0.4576
 5176TIP3    H115489   6.067   7.149   1.470  0.1999  0.2472 -0.0171
 5176TIP3    H215490   6.156   7.054   1.546 -1.1201 -1.0363 -0.0408
 5177TIP3   OH215491   4.384   3.348   5.011 -0.6570  0.2239  0.5873
 5177TIP3    H115492   4.459   3.288   5.012 -0.2468  0.7452  1.1783
 5177TIP3    H215493   4.344   3.338   5.097 -0.0218  1.5063  1.0420
 5178TIP3   OH215494   0.155   3.843   3.506 -0.7225  0.1295 -0.1294
 5178TIP3    H115495   0.168   3.840   3.411 -1.4227 -0.7759 -0.2008
 5178TIP3    H215496   0.217   3.910   3.536  0.2904 -0.3586 -1.0822
 5179TIP3   OH215497   2.510   3.295   5.133 -0.1993 -0.0395  0.3249
 5179TIP3    H115498   2.599   3.260   5.138 -0.0724  0.4199  1.5304
 5179TIP3    H215499   2.519   3.387   5.157 -0.9183  0.1679 -0.1725
 5180TIP3   OH215500   6.410   6.491   4.089  0.0187  0.0274  0.3184
 5180TIP3    H115501   6.337   6.527   4.139 -1.8827  0.6127 -2.6281
 5180TIP3    H215502   6.464   6.567   4.066 -0.6267  0.1900 -0.7403
 5181TIP3   OH215503   1.871   0.126   2.127 -0.2994  0.3537  0.5208
 5181TIP3    H115504   1.830   0.104   2.211 -1.0839  0.3417  0.1394
 5181TIP3    H215505   1.907   0.214   2.141  1.4718 -0.4793  1.5413
 5182TIP3   OH215506   3.188   6.342   0.270  0.1024 -0.8557 -0.0243
 5182TIP3    H115507   3.153   6.274   0.213  1.8107 -2.4251  0.7051
 5182TIP3    H215508   3.280   6.319   0.281  0.2629  0.4491  1.8794
 5183TIP3   OH215509   4.675   5.592   5.578 -0.5508  0.1711 -0.3442
 5183TIP3    H115510   4.673   5.499   5.600 -0.5271  0.2847  0.1503
 5183TIP3    H215511   4.620   5.634   5.643  1.9248  0.8931  1.4323
 5184TIP3   OH215512   5.295   1.748   5.168 -0.0549 -0.5336  0.1936
 5184TIP3    H115513   5.328   1.744   5.257 -0.5212 -1.9541  0.3345
 5184TIP3    H215514   5.356   1.694   5.118  1.4457  1.9226 -0.8186
 5185TIP3   OH215515   5.310   4.069   2.091 -0.0259  0.0638  0.2497
 5185TIP3    H115516   5.400   4.103   2.091 -1.0089  2.9253  0.6462
 5185TIP3    H215517   5.295   4.041   2.181  1.2478 -3.0397 -0.3675
 5186TIP3   OH215518   7.464   3.112   5.644 -0.4031  0.1976  0.2850
 5186TIP3    H115519   7.447   3.102   5.551 -0.8374 -0.0139  0.3886
 5186TIP3    H215520   7.559   3.102   5.652 -0.3966 -0.0445 -0.0983
 5187TIP3   OH215521   5.040   3.915   3.824  0.2877  0.4000  0.1503
 5187TIP3    H115522   5.047   3.819   3.826  0.3239  0.4055  0.3075
 5187TIP3    H215523   4.949   3.932   3.848  0.3001  0.4064  0.1948
 5188TIP3   OH215524   2.178   6.292   1.754 -0.6014  0.2153 -0.5003
 5188TIP3    H115525   2.102   6.327   1.707 -0.9874 -0.3963 -0.3517
 5188TIP3    H215526   2.147   6.208   1.788 -0.0414  0.2411  0.0742
 5189TIP3   OH215527   3.138   2.522   5.811 -0.1056 -0.3702  0.1772
 5189TIP3    H115528   3.079   2.447   5.815 -0.0615 -0.5740 -1.8088
 5189TIP3    H215529   3.225   2.486   5.828 -0.2285 -0.5384  0.4553
 5190TIP3   OH215530   1.360   6.813   1.926  0.1638 -0.0164  0.5211
 5190TIP3    H115531   1.355   6.725   1.887 -1.3317 -1.1887  3.1099
 5190TIP3    H215532   1.450   6.819   1.959  0.7032  0.0346 -0.8734
 5191TIP3   OH215533   4.579   1.674   5.938 -0.0794  0.1203  0.0647
 5191TIP3    H115534   4.651   1.613   5.924 -0.9765 -0.8292 -0.5164
 5191TIP3    H215535   4.550   1.698   5.850  0.3830  1.5527  0.2817
 5192TIP3   OH215536   7.219   3.233   2.699 -0.0511 -0.3392  0.0362
 5192TIP3    H115537   7.159   3.243   2.773 -1.0046  0.4389 -0.8055
 5192TIP3    H215538   7.218   3.319   2.656  2.6353  0.0806  0.6858
 5193TIP3   OH215539   3.712   3.076   2.347  0.2545  0.2374 -0.1187
 5193TIP3    H115540   3.624   3.061   2.314  0.5566 -0.6732 -0.5527
 5193TIP3    H215541   3.714   3.031   2.432  0.8601 -1.4785 -0.9780
 5194TIP3   OH215542   5.123   4.974   0.152  0.1952  0.5843  0.2176
 5194TIP3    H115543   5.083   4.936   0.073 -2.2154 -0.3120  1.7509
 5194TIP3    H215544   5.076   5.057   0.164 -0.3966  0.1055  1.3794
 5195TIP3   OH215545   7.064   2.460   4.080  0.0209 -0.1010  0.0912
 5195TIP3    H115546   6.976   2.421   4.077  1.0409 -2.5592 -0.2317
 5195TIP3    H215547   7.086   2.475   3.988 -0.4815  1.6357  0.2272
 5196TIP3   OH215548   5.491   2.313   0.757  0.8778 -0.0636  0.1655
 5196TIP3    H115549   5.576   2.281   0.789  0.5457 -0.2948  0.8466
 5196TIP3    H215550   5.442   2.333   0.837  0.7142  1.2270 -0.2383
 5197TIP3   OH215551   4.420   5.289   0.590 -0.0907 -0.5237  0.3700
 5197TIP3    H115552   4.374   5.205   0.580  1.8890 -1.3513 -3.8029
 5197TIP3    H215553   4.489   5.271   0.653 -1.3417 -1.1343  1.6400
 5198TIP3   OH215554   0.761   4.933   1.746 -0.4598  0.0772 -0.4978
 5198TIP3    H115555   0.743   4.950   1.839  2.2240 -2.1101  0.5216
 5198TIP3    H215556   0.705   4.858   1.724  0.1113 -0.4505 -0.1640
 5199TIP3   OH215557   0.972   0.526   6.086 -0.0272 -0.4448 -0.2446
 5199TIP3    H115558   1.044   0.473   6.120 -0.2289 -0.5348  0.0441
 5199TIP3    H215559   0.908   0.462   6.054  0.1208 -0.3628 -0.7171
 5200TIP3   OH215560   0.801   0.535   3.591 -0.0277 -0.3348 -0.7378
 5200TIP3    H115561   0.883   0.487   3.603 -0.2073 -0.1607  1.5356
 5200TIP3    H215562   0.807   0.610   3.650 -2.2029 -0.8575  0.2782
 5201TIP3   OH215563   1.624   3.784   0.857 -0.3210  0.1155  0.1144
 5201TIP3    H115564   1.582   3.709   0.899  1.0897  0.1800  1.7399
 5201TIP3    H215565   1.691   3.813   0.920  1.6215  0.4870 -1.9805
 5202TIP3   OH215566   7.487   5.784   1.405  0.1879 -0.4076 -0.1291
 5202TIP3    H115567   7.482   5.874   1.374  0.9986 -0.1892  0.3476
 5202TIP3    H215568   7.416   5.739   1.360 -0.3103  0.5001 -0.2599
 5203TIP3   OH215569   5.359   3.704   4.679 -0.0784 -0.2093  0.0515
 5203TIP3    H115570   5.284   3.663   4.721  0.2919 -0.5843  0.3646
 5203TIP3    H215571   5.426   3.706   4.748  0.1201  0.3324 -0.1531
 5204TIP3   OH215572   6.801   3.063   3.825 -0.3052 -0.1000 -0.6908
 5204TIP3    H115573   6.869   3.092   3.886 -1.7406 -1.4726  1.7424
 5204TIP3    H215574   6.838   3.078   3.738  2.8761 -0.3043  0.5003
 5205TIP3   OH215575   4.156   4.435   1.218  0.0414  0.0122 -0.7658
 5205TIP3    H115576   4.171   4.364   1.280 -0.0923  1.9507  1.6496
 5205TIP3    H215577   4.240   4.445   1.172  0.8829 -0.1167  0.6669
 5206TIP3   OH215578   4.878   0.737   0.704 -0.0457  0.0127  0.0952
 5206TIP3    H115579   4.790   0.770   0.723  0.3016 -0.3368  2.7690
 5206TIP3    H215580   4.937   0.808   0.730  0.5259  0.5438 -2.3719
 5207TIP3   OH215581   3.983   2.577   2.580 -0.2510  0.1762  0.0989
 5207TIP3    H115582   3.915   2.623   2.629  0.0710  1.5254 -0.6606
 5207TIP3    H215583   3.941   2.553   2.497  0.2303  1.2497 -0.4838
 5208TIP3   OH215584   3.247   0.492   0.945 -0.2465 -0.2154 -0.7947
 5208TIP3    H115585   3.167   0.520   0.901  0.1922  1.5900 -0.5041
 5208TIP3    H215586   3.265   0.561   1.008 -0.4861 -2.3647  1.8385
 5209TIP3   OH215587   6.222   3.093   4.110  0.0399 -1.0924 -0.4481
 5209TIP3    H115588   6.229   3.132   4.023  0.4569 -1.2007 -0.4666
 5209TIP3    H215589   6.166   3.016   4.097 -0.5883 -0.6438 -0.4554
 5210TIP3   OH215590   1.369   4.292   4.927  0.2403 -0.1799 -0.2708
 5210TIP3    H115591   1.450   4.243   4.908 -0.2430 -0.5860 -1.3942
 5210TIP3    H215592   1.351   4.340   4.846  1.8367  3.6805  1.3958
 5211TIP3   OH215593   3.681   0.737   2.741  0.2172  0.1279 -0.1568
 5211TIP3    H115594   3.615   0.700   2.683 -0.6793 -1.0498  1.5133
 5211TIP3    H215595   3.762   0.738   2.689 -0.6835 -0.1920 -1.6160
 5212TIP3   OH215596   0.509   0.794   4.889  0.2773 -0.1766  0.2386
 5212TIP3    H115597   0.457   0.714   4.887  0.2590 -0.1686  0.3787
 5212TIP3    H215598   0.446   0.865   4.878  0.1254 -0.1110  1.4695
 5213TIP3   OH215599   4.144   4.398   2.832 -0.0375  0.3206 -0.4658
 5213TIP3    H115600   4.185   4.475   2.871 -0.6365  0.5711 -0.3179
 5213TIP3    H215601   4.076   4.373   2.895  0.3618 -0.5234 -0.3526
 5214TIP3   OH215602   6.503   1.242   6.030 -0.0479 -0.2274 -0.0781
 5214TIP3    H115603   6.578   1.239   5.970 -0.3101 -2.9154 -0.3992
 5214TIP3    H215604   6.427   1.251   5.972 -0.1489 -0.5573  0.0003
 5215TIP3   OH215605   3.312   2.129   5.923  0.0942  0.1364  0.1388
 5215TIP3    H115606   3.337   2.052   5.975 -0.4022 -0.5391 -0.6092
 5215TIP3    H215607   3.388   2.145   5.867 -0.4487 -0.8539 -0.9030
 5216TIP3   OH215608   5.874   5.589   1.692 -0.2731  0.1822  0.5754
 5216TIP3    H115609   5.955   5.566   1.646 -1.6875 -2.2615 -0.9475
 5216TIP3    H215610   5.897   5.588   1.784  1.3762 -0.7518  0.1865
 5217TIP3   OH215611   0.254   3.238   4.755 -0.4251  0.1893 -0.7399
 5217TIP3    H115612   0.242   3.246   4.661 -0.4198  0.7194 -0.6992
 5217TIP3    H215613   0.344   3.266   4.771  0.0364 -1.2259 -0.7300
 5218TIP3   OH215614   5.444   5.002   5.519  0.0264 -0.6452  0.1172
 5218TIP3    H115615   5.529   5.039   5.496 -0.6541 -0.2006 -1.9054
 5218TIP3    H215616   5.406   5.063   5.582  1.2101 -0.9022  1.1134
 5219TIP3   OH215617   1.153   0.946   0.383  0.4675  0.4098 -0.3489
 5219TIP3    H115618   1.128   0.889   0.310  2.9435 -0.2275 -0.7893
 5219TIP3    H215619   1.237   0.983   0.357  1.2423  0.4934  2.0279
 5220TIP3   OH215620   1.015   6.340   3.596  0.2431  0.1857  0.4693
 5220TIP3    H115621   0.947   6.391   3.552  0.8043  0.9660  0.4920
 5220TIP3    H215622   1.020   6.377   3.684 -0.0815 -0.6181  0.8381
 5221TIP3   OH215623   1.787   6.430   0.708  0.5927 -0.1996  0.7722
 5221TIP3    H115624   1.816   6.427   0.617  1.7635  3.3852  0.8958
 5221TIP3    H215625   1.694   6.410   0.705  0.5656  0.1024 -1.2399
 5222TIP3   OH215626   2.620   5.629   5.617  0.5059 -0.2498  0.2606
 5222TIP3    H115627   2.614   5.552   5.674  1.1451 -1.2317 -0.9237
 5222TIP3    H215628   2.714   5.640   5.602  0.3849  0.4251 -0.0392
 5223TIP3   OH215629   1.722   0.853   5.087  0.2398 -0.1761  0.1733
 5223TIP3    H115630   1.715   0.941   5.051  1.8850  0.6381  1.6850
 5223TIP3    H215631   1.755   0.800   5.014  1.4421  0.9737 -0.1522
 5224TIP3   OH215632   5.960   6.300   3.599 -0.5958 -0.5178  0.4741
 5224TIP3    H115633   5.928   6.287   3.509  0.7115  1.7338 -0.3998
 5224TIP3    H215634   6.039   6.352   3.588 -1.1254  0.9647  3.0222
 5225TIP3   OH215635   2.284   5.875   5.033 -0.1155 -0.4787 -0.4238
 5225TIP3    H115636   2.324   5.862   4.947  0.6330 -0.1459 -0.1333
 5225TIP3    H215637   2.323   5.956   5.066 -1.6126  0.3134 -0.4559
 5226TIP3   OH215638   4.649   2.735   1.642  0.5917  0.4276  0.6115
 5226TIP3    H115639   4.710   2.735   1.568 -0.3416  0.1135 -0.1808
 5226TIP3    H215640   4.574   2.684   1.611  1.6228 -2.9022  3.0377
 5227TIP3   OH215641   1.885   1.381   5.591  0.2361  0.9877 -0.0087
 5227TIP3    H115642   1.976   1.401   5.611  1.1623 -1.9463 -0.8047
 5227TIP3    H215643   1.837   1.413   5.668  2.2806  0.1469  1.7319
 5228TIP3   OH215644   5.685   0.293   3.041  0.1108  0.1310  0.2462
 5228TIP3    H115645   5.654   0.381   3.061  0.3589  0.1896  0.3788
 5228TIP3    H215646   5.747   0.305   2.970  1.1966  0.2334  1.1873
 5229TIP3   OH215647   4.129   3.865   1.229 -0.0049  0.1878 -0.1436
 5229TIP3    H115648   4.114   3.827   1.315 -0.0246  1.5045  0.4682
 5229TIP3    H215649   4.185   3.802   1.184  2.7572  0.8924  1.9972
 5230TIP3   OH215650   5.782   3.252   2.823 -0.0413 -0.1254 -0.2519
 5230TIP3    H115651   5.873   3.227   2.835  0.1016  0.4127 -0.1805
 5230TIP3    H215652   5.732   3.187   2.872  0.3281 -0.1875  0.0461
 5231TIP3   OH215653   6.098   4.913   4.061  0.2868  0.4292 -0.1735
 5231TIP3    H115654   6.118   4.827   4.097 -1.0130  0.4872  0.7466
 5231TIP3    H215655   6.115   4.975   4.132 -2.1318  0.5617  0.3560
 5232TIP3   OH215656   5.840   1.552   1.824 -0.0413 -0.6919  0.3314
 5232TIP3    H115657   5.782   1.478   1.841  1.0571 -1.4055  1.1696
 5232TIP3    H215658   5.796   1.602   1.756 -1.7792 -1.0270  1.1502
 5233TIP3   OH215659   6.163   3.929   3.480 -0.2061 -0.2780  0.2371
 5233TIP3    H115660   6.156   3.853   3.422  0.7479 -0.8316  0.8134
 5233TIP3    H215661   6.157   4.005   3.422  0.5503 -0.8181 -0.5675
 5234TIP3   OH215662   0.113   4.953   5.922  0.4954 -0.2683  0.0389
 5234TIP3    H115663   0.076   5.004   5.995  3.8189  1.4062  0.7290
 5234TIP3    H215664   0.144   4.873   5.962  0.7550 -0.1231  0.1282
 5235TIP3   OH215665   3.085   1.355   1.903 -0.2860  0.0033  0.0857
 5235TIP3    H115666   3.042   1.362   1.989  1.3516 -0.2598  0.9629
 5235TIP3    H215667   3.123   1.441   1.888  0.1350 -0.1898  0.0283
 5236TIP3   OH215668   3.189   5.493   1.270 -0.0929  0.1466 -0.2097
 5236TIP3    H115669   3.232   5.559   1.216 -0.5190  0.5115 -0.1150
 5236TIP3    H215670   3.253   5.472   1.338  0.2638  0.0354 -0.5795
 5237TIP3   OH215671   5.198   4.979   3.886 -0.1141  0.2009  0.0529
 5237TIP3    H115672   5.203   4.963   3.980 -2.1513 -0.4743  0.1033
 5237TIP3    H215673   5.217   4.895   3.846 -1.6355 -0.1237 -0.0283
 5238TIP3   OH215674   4.723   4.544   3.458  0.2344 -0.1083 -0.0437
 5238TIP3    H115675   4.629   4.542   3.438  0.2067  0.6921  0.0057
 5238TIP3    H215676   4.727   4.536   3.553  0.2592 -0.9279 -0.0986
 5239TIP3   OH215677   6.951   5.877   3.938 -0.9811  0.4198 -0.7271
 5239TIP3    H115678   6.879   5.872   4.001 -1.4321 -2.0067 -1.3251
 5239TIP3    H215679   7.029   5.889   3.993 -1.5445  0.1240  0.1715
 5240TIP3   OH215680   3.827   5.239   1.579 -0.0037 -0.1965  0.2790
 5240TIP3    H115681   3.824   5.144   1.592  0.3519 -0.1567  0.6558
 5240TIP3    H215682   3.894   5.270   1.640  0.2207  0.2384 -0.1769
 5241TIP3   OH215683   4.756   3.604   2.922  0.3205 -0.1092 -1.3123
 5241TIP3    H115684   4.755   3.654   3.004 -0.5433  0.8600 -1.8862
 5241TIP3    H215685   4.676   3.552   2.926  0.8423 -0.9053 -1.0524
 5242TIP3   OH215686   0.695   6.161   5.459 -0.7683  0.0386  1.1683
 5242TIP3    H115687   0.730   6.230   5.403  0.3379 -0.2128  1.5128
 5242TIP3    H215688   0.686   6.085   5.401  0.8087 -0.3556  1.3848
 5243TIP3   OH215689   6.025   4.679   3.848  0.2571  0.1096  0.1011
 5243TIP3    H115690   5.936   4.713   3.856 -0.7705 -2.5826  1.5429
 5243TIP3    H215691   6.033   4.652   3.756 -0.9685 -0.8790  0.2615
 5244TIP3   OH215692   7.618   6.461   0.898  0.0433 -0.1277 -0.0063
 5244TIP3    H115693   7.576   6.376   0.883 -0.6179  0.0902  0.5494
 5244TIP3    H215694   7.606   6.477   0.991  1.7210 -0.2288  0.2483
 5245TIP3   OH215695   6.535   6.348   0.184 -0.4363  0.0871 -0.5344
 5245TIP3    H115696   6.520   6.365   0.091 -0.4607 -1.4760 -0.8364
 5245TIP3    H215697   6.630   6.346   0.193 -0.4085  1.3346 -0.2824
 5246TIP3   OH215698   1.952   1.986   6.038 -0.3341  0.0117 -0.1096
 5246TIP3    H115699   1.881   1.933   6.075 -1.8725  1.2448 -1.1546
 5246TIP3    H215700   1.989   2.031   6.114  0.2737 -1.6375  0.6415
 5247TIP3   OH215701   1.314   3.949   2.864  0.0495 -0.0280 -0.3977
 5247TIP3    H115702   1.239   3.995   2.827 -0.2735  0.6857  1.0699
 5247TIP3    H215703   1.309   3.861   2.827  0.7746  1.0741 -3.4079
 5248TIP3   OH215704   4.236   0.063   6.110 -0.0139  0.3954  0.8181
 5248TIP3    H115705   4.209   0.152   6.089  0.7188  0.8874  1.8910
 5248TIP3    H215706   4.154   0.014   6.115 -0.4371  1.0451  0.4083
 5249TIP3   OH215707   3.780   6.562   2.059  0.4131  0.1430 -0.0533
 5249TIP3    H115708   3.768   6.599   1.972 -0.2620  1.0772  0.4137
 5249TIP3    H215709   3.741   6.475   2.054  1.5084 -0.3332 -1.0108
 5250TIP3   OH215710   4.867   5.551   2.827 -0.0833 -0.1145 -0.0144
 5250TIP3    H115711   4.907   5.551   2.740  1.4812  1.4248  0.6388
 5250TIP3    H215712   4.783   5.597   2.815  0.3614  0.5575 -0.6215
 5251TIP3   OH215713   1.633   6.686   4.035 -0.2484 -0.3198 -0.0216
 5251TIP3    H115714   1.681   6.718   4.111 -1.6585 -2.4008  1.8840
 5251TIP3    H215715   1.695   6.628   3.990  1.2654  2.4113 -1.7501
 5252TIP3   OH215716   0.949   5.880   4.739 -0.2875 -0.0188  0.0361
 5252TIP3    H115717   1.003   5.920   4.671  0.2568  1.2234  1.1617
 5252TIP3    H215718   0.981   5.790   4.745  1.4047  0.5683  0.3905
 5253TIP3   OH215719   1.582   6.413   3.286  0.4557  0.0403 -0.0479
 5253TIP3    H115720   1.486   6.410   3.295  0.3356 -0.3604 -1.3072
 5253TIP3    H215721   1.615   6.393   3.374 -0.6013 -1.4845  0.0333
 5254TIP3   OH215722   3.671   1.499   0.950  0.1904  0.1099 -0.2315
 5254TIP3    H115723   3.696   1.447   0.873  0.5813 -1.7864  1.1043
 5254TIP3    H215724   3.612   1.441   0.999  0.0180  1.2396  0.9300
 5255TIP3   OH215725   5.960   0.332   0.861 -0.3362 -0.7956 -0.3611
 5255TIP3    H115726   5.918   0.304   0.942 -1.3988  0.4691 -0.4479
 5255TIP3    H215727   5.940   0.262   0.799 -1.0419 -0.9208 -0.0021
 5256TIP3   OH215728   4.997   5.732   5.165 -0.5199  0.1360  0.3431
 5256TIP3    H115729   4.929   5.792   5.195  0.3231  1.0070  0.5537
 5256TIP3    H215730   4.996   5.660   5.229 -0.7253  0.5184  0.7701
 5257TIP3   OH215731   5.505   2.808   1.240  0.2090  0.3140  0.3675
 5257TIP3    H115732   5.457   2.726   1.242  0.5309  0.1375  1.2438
 5257TIP3    H215733   5.586   2.790   1.289 -0.0392  1.3398  1.1911
 5258TIP3   OH215734   1.047   5.564   2.839 -0.2952  0.3734  0.3572
 5258TIP3    H115735   1.035   5.655   2.813 -3.1820  0.5910  2.0018
 5258TIP3    H215736   1.137   5.544   2.816  0.0649  3.2472 -1.1862
 5259TIP3   OH215737   7.422   6.392   5.297 -0.6119 -0.7528 -0.4984
 5259TIP3    H115738   7.488   6.389   5.228  1.0644 -0.8795  1.0442
 5259TIP3    H215739   7.388   6.303   5.302 -1.1771 -0.6079 -1.5296
 5260TIP3   OH215740   3.045   0.040   5.734  0.4334 -0.0083  0.4019
 5260TIP3    H115741   3.076   0.010   5.649 -0.5371  1.3017 -0.4364
 5260TIP3    H215742   2.957   0.003   5.742  1.2413 -1.8290  1.7849
 5261TIP3   OH215743   5.170   4.981   3.302 -0.1731  0.2657 -0.2563
 5261TIP3    H115744   5.078   5.003   3.286  0.0269 -0.6930 -3.5027
 5261TIP3    H215745   5.208   5.061   3.338 -1.8583  1.3603 -0.7858
 5262TIP3   OH215746   1.214   1.482   4.832  0.0981  0.0606 -0.0082
 5262TIP3    H115747   1.277   1.415   4.860  0.0922  0.0300 -0.0663
 5262TIP3    H215748   1.142   1.431   4.794 -0.2360  0.0680  0.6067
 5263TIP3   OH215749   2.991   2.382   4.692  0.1239 -0.8069 -0.1605
 5263TIP3    H115750   3.065   2.335   4.652  0.2362  0.1425 -1.1032
 5263TIP3    H215751   3.019   2.473   4.695 -0.7081 -0.5532  0.2003
 5264TIP3   OH215752   7.050   1.995   4.765 -0.1900  0.0200  0.8183
 5264TIP3    H115753   7.127   2.047   4.745 -0.8004  0.3746 -0.7230
 5264TIP3    H215754   6.976   2.049   4.737 -1.0098 -0.3540  2.1606
 5265TIP3   OH215755   7.068   6.138   5.471  0.0730  0.4799  0.0282
 5265TIP3    H115756   7.052   6.177   5.557  0.1329  0.0617  0.2368
 5265TIP3    H215757   7.018   6.191   5.410  2.1719  2.4753 -0.0668
 5266TIP3   OH215758   2.453   7.072   1.363 -0.2320  0.3753  0.3029
 5266TIP3    H115759   2.517   7.142   1.377  1.3951 -0.7117 -1.2135
 5266TIP3    H215760   2.465   7.047   1.271 -0.8338 -1.8018  0.7645
 5267TIP3   OH215761   0.402   5.150   5.647 -0.3152  0.2659 -0.4657
 5267TIP3    H115762   0.363   5.063   5.655  1.4730 -0.6875 -1.3349
 5267TIP3    H215763   0.406   5.165   5.552  0.7773  0.6076 -0.3805
 5268TIP3   OH215764   4.487   6.827   3.541 -0.4056 -0.0865  0.5344
 5268TIP3    H115765   4.574   6.831   3.581  0.5633  0.0440 -1.4785
 5268TIP3    H215766   4.455   6.917   3.547  2.0154  1.3371 -3.5549
 5269TIP3   OH215767   2.792   3.604   3.368 -0.0110 -0.7258  0.0117
 5269TIP3    H115768   2.774   3.563   3.453 -0.5756 -0.1807  0.1691
 5269TIP3    H215769   2.875   3.650   3.381 -1.4483  1.7795  1.2378
 5270TIP3   OH215770   6.380   0.764   2.432  0.4283 -0.1065 -0.0820
 5270TIP3    H115771   6.458   0.797   2.476  0.7864 -0.3925 -0.4950
 5270TIP3    H215772   6.413   0.714   2.358 -0.1492  1.5927 -1.5769
 5271TIP3   OH215773   1.904   3.783   0.249 -0.2745 -0.6136 -0.1123
 5271TIP3    H115774   1.818   3.742   0.262  0.0611 -1.0285  0.9204
 5271TIP3    H215775   1.947   3.774   0.334  0.2648  0.8402 -0.2138
 5272TIP3   OH215776   2.045   2.588   3.716 -0.0344  0.6106  0.1836
 5272TIP3    H115777   2.122   2.534   3.737 -1.3463 -0.7061  1.9091
 5272TIP3    H215778   2.012   2.551   3.634 -1.3187 -1.8175  1.6890
 5273TIP3   OH215779   7.386   4.789   4.728  0.0510 -0.7223 -0.1446
 5273TIP3    H115780   7.421   4.844   4.798 -1.0314 -0.4415  0.1980
 5273TIP3    H215781   7.367   4.850   4.656  0.4458 -0.9022 -0.4079
 5274TIP3   OH215782   5.750   3.315   3.999 -0.2671 -0.7205  0.3308
 5274TIP3    H115783   5.840   3.339   3.978  0.4237 -3.8632 -0.7504
 5274TIP3    H215784   5.698   3.391   3.972  2.0210  1.4451  1.5766
 5275TIP3   OH215785   5.899   6.196   0.951  0.3707  0.0351 -0.0207
 5275TIP3    H115786   5.988   6.215   0.982 -1.2202  2.3591  3.9164
 5275TIP3    H215787   5.886   6.256   0.877  1.2226  1.7988  1.1910
 5276TIP3   OH215788   6.115   2.454   3.001 -0.1353  0.6228  0.5093
 5276TIP3    H115789   6.187   2.390   3.004 -0.7599 -0.0846  0.6792
 5276TIP3    H215790   6.122   2.494   2.915 -1.1335 -1.3419 -0.5578
 5277TIP3   OH215791   3.479   1.426   1.153  0.0895 -0.2961  0.1953
 5277TIP3    H115792   3.446   1.511   1.181  0.4902 -0.2411  0.5170
 5277TIP3    H215793   3.460   1.368   1.226 -1.7914 -0.9033 -0.7301
 5278TIP3   OH215794   3.221   2.258   4.518  0.0658 -0.3487 -0.0146
 5278TIP3    H115795   3.301   2.298   4.552 -0.2259 -0.6301  1.0074
 5278TIP3    H215796   3.188   2.322   4.454  0.7388  0.0761  0.0516
 5279TIP3   OH215797   0.264   3.761   0.912 -0.4351  0.1122 -0.0389
 5279TIP3    H115798   0.285   3.706   0.836  1.3995  0.6830  0.0142
 5279TIP3    H215799   0.331   3.740   0.977  0.8168  2.8292 -0.2690
 5280TIP3   OH215800   4.498   3.845   3.625 -0.2461 -0.5982 -0.0311
 5280TIP3    H115801   4.591   3.831   3.642 -0.1090 -0.2843 -0.5257
 5280TIP3    H215802   4.468   3.896   3.701 -0.1445 -1.1830  0.4110
 5281TIP3   OH215803   1.034   3.179   0.591  0.1541 -0.1190  0.5542
 5281TIP3    H115804   0.962   3.151   0.534 -0.7911  0.4287  1.4557
 5281TIP3    H215805   1.057   3.101   0.641  1.5818 -0.8520 -1.1301
 5282TIP3   OH215806   1.180   5.749   5.251  0.0371  0.2729 -0.3742
 5282TIP3    H115807   1.249   5.792   5.303 -1.6054  1.9075  0.5597
 5282TIP3    H215808   1.175   5.802   5.171  1.4006 -1.2435 -1.5388
 5283TIP3   OH215809   6.897   2.669   0.326 -0.6174 -0.0581 -0.4189
 5283TIP3    H115810   6.893   2.765   0.325 -0.5670 -0.0614 -0.9044
 5283TIP3    H215811   6.964   2.649   0.392  1.2822  0.2951 -2.1468
 5284TIP3   OH215812   1.133   4.525   0.958  0.2859  0.4461 -0.0577
 5284TIP3    H115813   1.178   4.610   0.952 -1.8580  1.7924  1.2883
 5284TIP3    H215814   1.179   4.479   1.028  1.4540  0.4826 -0.7732
 5285TIP3   OH215815   2.300   4.993   0.010  0.4131 -0.0805  0.4381
 5285TIP3    H115816   2.368   5.005  -0.057  0.6156  0.7935  0.7791
 5285TIP3    H215817   2.341   5.025   0.091 -0.3654  0.3617  0.6655
 5286TIP3   OH215818   3.304   5.286   1.983  0.0742 -0.3515  0.4592
 5286TIP3    H115819   3.278   5.269   1.892 -1.2423 -0.0838  0.7648
 5286TIP3    H215820   3.222   5.291   2.031  0.7809 -1.2893  1.8306
 5287TIP3   OH215821   7.192   5.252   2.365 -0.2336 -0.4488 -0.1371
 5287TIP3    H115822   7.259   5.187   2.343 -0.0720 -0.1032 -0.6659
 5287TIP3    H215823   7.124   5.240   2.299 -0.0933  0.0792 -0.3822
 5288TIP3   OH215824   1.289   3.024   1.475  0.3666 -0.4786 -0.1085
 5288TIP3    H115825   1.382   3.003   1.483  0.2940 -0.4375  1.0020
 5288TIP3    H215826   1.283   3.117   1.497  0.0556 -0.4959 -0.1058
 5289TIP3   OH215827   3.647   4.357   1.376 -0.1654  0.1120 -0.1011
 5289TIP3    H115828   3.572   4.345   1.318 -0.7999 -0.3437  0.7891
 5289TIP3    H215829   3.644   4.281   1.434  0.2723  0.7249  0.7365
 5290TIP3   OH215830   3.441   3.919   6.129  0.5206 -0.0347  0.4760
 5290TIP3    H115831   3.424   4.001   6.174 -0.1698  0.0314  0.1265
 5290TIP3    H215832   3.512   3.878   6.177 -0.5715 -0.2375  1.9696
 5291TIP3   OH215833   6.094   6.785   4.623  0.4218 -0.5685 -0.9062
 5291TIP3    H115834   6.173   6.749   4.664  1.5536  1.4099 -1.2175
 5291TIP3    H215835   6.109   6.772   4.529 -0.6655 -2.1431 -0.8946
 5292TIP3   OH215836   4.882   4.635   1.320 -0.7217 -0.2827  0.5377
 5292TIP3    H115837   4.922   4.661   1.237 -2.1684  1.2312  0.2529
 5292TIP3    H215838   4.903   4.707   1.380 -0.0078 -1.1854  1.4235
 5293TIP3   OH215839   7.300   5.187   5.962 -0.1623  0.1326  0.5351
 5293TIP3    H115840   7.342   5.272   5.959 -0.4897  0.2861  0.1885
 5293TIP3    H215841   7.238   5.188   5.888 -3.1321  1.1575  2.8418
 5294TIP3   OH215842   2.583   1.063   1.737 -0.0874 -0.0112  0.0133
 5294TIP3    H115843   2.497   1.028   1.762 -0.8587  0.3625 -1.9486
 5294TIP3    H215844   2.644   1.021   1.798 -1.4695 -1.5073  0.4514
 5295TIP3   OH215845   0.128   1.635   4.273 -0.3710  0.0769  0.1563
 5295TIP3    H115846   0.075   1.705   4.235 -0.5152 -0.7412 -1.2100
 5295TIP3    H215847   0.195   1.680   4.325  0.1696  1.2707 -1.5121
 5296TIP3   OH215848   0.638   5.301   0.818 -0.4422  0.0678  0.0184
 5296TIP3    H115849   0.642   5.393   0.846 -0.0031 -0.2005  0.9094
 5296TIP3    H215850   0.551   5.290   0.780  0.4349  1.5281 -2.6279
 5297TIP3   OH215851   6.810   2.352   3.491 -0.1101 -0.1787 -0.1663
 5297TIP3    H115852   6.852   2.419   3.545  0.8893 -0.1947 -0.8895
 5297TIP3    H215853   6.744   2.312   3.548  0.0930  0.6200  0.6436
 5298TIP3   OH215854   0.007   3.317   5.815  0.2056 -0.1897 -0.0171
 5298TIP3    H115855   0.052   3.237   5.788 -0.4136 -1.1474  1.5930
 5298TIP3    H215856   0.028   3.326   5.908 -0.4367  1.0509  0.0327
 5299TIP3   OH215857   4.372   5.141   2.676 -0.0274 -0.4548  0.0626
 5299TIP3    H115858   4.306   5.202   2.645 -0.6917 -0.7588  0.8415
 5299TIP3    H215859   4.353   5.059   2.629 -0.7319 -0.7769  0.8855
 5300TIP3   OH215860   3.098   3.483   3.102  0.9023  0.5000 -0.1194
 5300TIP3    H115861   3.131   3.473   3.012 -0.1829  2.1186 -0.7545
 5300TIP3    H215862   3.006   3.458   3.096  0.7368  0.9623  0.4568
 5301TIP3   OH215863   4.343   3.812   2.267  0.5478  0.0683  0.3938
 5301TIP3    H115864   4.377   3.814   2.356 -1.2710 -1.4563  1.2193
 5301TIP3    H215865   4.272   3.877   2.267  0.2450 -0.2562  0.2288
 5302TIP3   OH215866   5.849   4.158   2.736 -0.4490  0.4924 -0.0069
 5302TIP3    H115867   5.865   4.089   2.671  0.3066 -2.0049  2.6388
 5302TIP3    H215868   5.762   4.139   2.770  0.6756 -0.7862  2.4200
 5303TIP3   OH215869   4.117   1.140   5.759 -0.3339 -0.1613 -0.6278
 5303TIP3    H115870   4.096   1.219   5.709 -2.2121 -0.0453  0.2750
 5303TIP3    H215871   4.122   1.070   5.694 -0.2442  0.4144 -1.2462
 5304TIP3   OH215872   0.822   6.130   3.746 -0.0495 -0.2273 -0.1431
 5304TIP3    H115873   0.848   6.151   3.836 -1.4411  0.5649  0.1197
 5304TIP3    H215874   0.857   6.202   3.694 -0.9030  0.3778  0.0839
 5305TIP3   OH215875   0.817   2.578   1.349 -0.0948  0.1293  0.3712
 5305TIP3    H115876   0.889   2.574   1.287 -0.1727  0.8697  0.2226
 5305TIP3    H215877   0.855   2.554   1.433  0.0558 -0.6762  0.0830
 5306TIP3   OH215878   2.809   2.843   3.611  0.0683  0.2927 -0.2846
 5306TIP3    H115879   2.775   2.872   3.696 -0.1047 -2.0719  0.5416
 5306TIP3    H215880   2.873   2.775   3.633 -0.3276 -0.6979 -2.0460
 5307TIP3   OH215881   5.320   4.686   6.125  0.1833 -0.0895  0.3181
 5307TIP3    H115882   5.306   4.752   6.057  1.3171 -0.4467 -0.2835
 5307TIP3    H215883   5.414   4.688   6.141  0.0256 -0.5162  1.3750
 5308TIP3   OH215884   4.104   0.736   0.326  0.0518 -0.2441 -0.2037
 5308TIP3    H115885   4.025   0.784   0.351  0.4697  0.4004 -0.0992
 5308TIP3    H215886   4.072   0.651   0.296 -0.5749 -0.5520  1.2442
 5309TIP3   OH215887   6.234   2.659   0.860 -0.7133  0.1461 -0.0674
 5309TIP3    H115888   6.251   2.743   0.817  0.7014 -0.1395 -0.1222
 5309TIP3    H215889   6.320   2.618   0.868 -1.1082 -0.4709  1.6818
 5310TIP3   OH215890   4.625   2.557   0.336  0.2875  0.2208  0.2558
 5310TIP3    H115891   4.684   2.484   0.318  0.1201  0.1413  0.0316
 5310TIP3    H215892   4.580   2.532   0.417  0.4082  0.1894  0.3147
 5311TIP3   OH215893   1.687   1.421   1.499  0.5797 -0.3985 -0.3491
 5311TIP3    H115894   1.702   1.480   1.573  0.6952 -2.3197  1.2293
 5311TIP3    H215895   1.603   1.379   1.518  0.7574 -1.1582 -1.1555
 5312TIP3   OH215896   1.946   3.204   1.996  0.0949 -0.5180 -0.1377
 5312TIP3    H115897   1.973   3.133   2.055  0.4975  0.1549  0.5067
 5312TIP3    H215898   1.887   3.162   1.933 -2.2381 -0.8373  2.1066
 5313TIP3   OH215899   4.517   6.607   2.620 -0.1161 -0.5847  0.5077
 5313TIP3    H115900   4.477   6.685   2.659  0.6954 -0.4806  1.1747
 5313TIP3    H215901   4.444   6.546   2.609 -1.1387  0.9474 -1.8871
 5314TIP3   OH215902   1.879   5.883   6.005 -0.4095 -0.0888  0.0754
 5314TIP3    H115903   1.914   5.809   6.055 -0.1881 -1.5790 -2.1506
 5314TIP3    H215904   1.926   5.959   6.040  2.5270 -1.5513 -0.3177
 5315TIP3   OH215905   7.113   5.907   0.466 -0.4388 -0.1084  0.1254
 5315TIP3    H115906   7.207   5.915   0.485 -0.3868 -0.7388  0.1589
 5315TIP3    H215907   7.071   5.956   0.537 -0.1219  0.7148 -0.2379
 5316TIP3   OH215908   0.950   7.055   2.821 -0.7278  0.0008 -0.0471
 5316TIP3    H115909   0.969   7.072   2.913  0.1738 -1.1764  0.0119
 5316TIP3    H215910   1.022   7.098   2.773 -0.8909  0.1470 -0.1597
 5317TIP3   OH215911   1.166   5.575   1.866  0.4311  0.8434  0.0646
 5317TIP3    H115912   1.163   5.530   1.950 -0.2894 -0.1442 -0.4696
 5317TIP3    H215913   1.147   5.666   1.886 -1.2623  0.3620  0.8018
 5318TIP3   OH215914   4.435   6.430   5.696  0.3793  0.5069 -0.0906
 5318TIP3    H115915   4.464   6.412   5.785 -0.5271  0.7751  0.2662
 5318TIP3    H215916   4.452   6.523   5.683 -0.0517  0.5989  0.0140
 5319TIP3   OH215917   3.300   5.680   3.161 -0.3822  0.4684 -0.0079
 5319TIP3    H115918   3.239   5.624   3.207  0.6927  0.1993  1.1456
 5319TIP3    H215919   3.342   5.732   3.230  1.8063 -0.4846 -0.5393
 5320TIP3   OH215920   6.386   2.601   5.211  0.1994  0.1588  0.3349
 5320TIP3    H115921   6.385   2.666   5.141  0.9907 -0.1875 -0.0089
 5320TIP3    H215922   6.333   2.640   5.281  0.6269  1.1657  0.1192
 5321TIP3   OH215923   6.131   2.655   1.519  0.1576 -0.0953  0.0999
 5321TIP3    H115924   6.088   2.606   1.588 -0.7676 -0.1873 -0.5216
 5321TIP3    H215925   6.166   2.733   1.563 -1.8864  0.7154  0.4181
 5322TIP3   OH215926   2.310   0.259   2.844  0.1227 -0.0061  0.4691
 5322TIP3    H115927   2.311   0.341   2.795  0.7826 -0.3222 -0.0569
 5322TIP3    H215928   2.263   0.280   2.925  0.8672  1.0657  0.6453
 5323TIP3   OH215929   3.307   5.133   0.427  0.3122 -0.0853  0.0141
 5323TIP3    H115930   3.221   5.098   0.450  0.0487 -0.4455 -1.3973
 5323TIP3    H215931   3.289   5.201   0.362  1.1097 -0.6074 -0.7825
 5324TIP3   OH215932   1.701   4.620   1.043 -0.0688  0.1662  0.1537
 5324TIP3    H115933   1.694   4.644   1.135 -0.6590  0.2967  0.0824
 5324TIP3    H215934   1.795   4.615   1.026  0.0932 -1.8854  1.2967
 5325TIP3   OH215935   3.118   1.761   5.599  0.1484 -0.2558 -0.1825
 5325TIP3    H115936   3.132   1.851   5.627 -2.0796  0.1204 -0.1438
 5325TIP3    H215937   3.104   1.712   5.680  1.6959 -0.7396 -0.1769
 5326TIP3   OH215938   1.021   3.617   1.371  0.1635  0.8768 -0.3849
 5326TIP3    H115939   0.994   3.708   1.379 -0.1183  0.6495  1.8649
 5326TIP3    H215940   0.950   3.567   1.411  0.6005 -0.2999 -1.0192
 5327TIP3   OH215941   3.658   3.692   2.252 -0.3717  0.4574 -0.0630
 5327TIP3    H115942   3.598   3.619   2.266  0.9997 -1.0379 -1.5632
 5327TIP3    H215943   3.700   3.706   2.337 -0.1266 -1.0140  0.0744
 5328TIP3   OH215944   6.762   3.196   1.593 -0.1013  0.0149 -0.1105
 5328TIP3    H115945   6.825   3.148   1.539 -0.7198 -1.5306  0.4808
 5328TIP3    H215946   6.726   3.263   1.534  0.3378 -0.6487 -1.1650
 5329TIP3   OH215947   5.056   0.358   5.965 -0.6912  0.1093 -0.3724
 5329TIP3    H115948   4.968   0.393   5.954 -0.1487  1.2083 -1.3466
 5329TIP3    H215949   5.042   0.264   5.982 -2.0480  0.3129 -0.2520
 5330TIP3   OH215950   0.367   2.232   5.580  0.4801 -0.0741 -0.0805
 5330TIP3    H115951   0.440   2.186   5.623 -0.3285 -2.2056 -0.8316
 5330TIP3    H215952   0.289   2.184   5.608 -0.5862  1.7100  0.1232
 5331TIP3   OH215953   0.422   6.286   2.771  0.1668  0.2335 -0.1889
 5331TIP3    H115954   0.406   6.194   2.792 -1.3132  0.8696  1.7733
 5331TIP3    H215955   0.353   6.309   2.709  0.6028  0.0218 -0.7651
 5332TIP3   OH215956   3.673   0.554   3.923  0.5675  0.3075  0.8359
 5332TIP3    H115957   3.643   0.644   3.907 -0.4856 -0.1225  0.2622
 5332TIP3    H215958   3.678   0.547   4.018  1.0097  1.0825  0.8734
 5333TIP3   OH215959   4.860   6.320   1.813 -0.4153 -0.3841  0.4825
 5333TIP3    H115960   4.830   6.382   1.747 -2.6196 -1.1562  0.6875
 5333TIP3    H215961   4.861   6.235   1.768 -0.3560 -0.6694  1.0142
 5334TIP3   OH215962   6.872   3.328   1.227 -0.5160 -0.2107  0.5218
 5334TIP3    H115963   6.894   3.264   1.159 -3.0358  0.5123 -1.1126
 5334TIP3    H215964   6.957   3.363   1.256  0.6918 -1.3225 -1.4643
 5335TIP3   OH215965   3.611   1.107   3.933 -0.1727  0.3126 -1.2754
 5335TIP3    H115966   3.591   1.173   3.867  2.3218  2.0877 -0.4199
 5335TIP3    H215967   3.672   1.150   3.993 -1.1905 -1.6582  1.4177
 5336TIP3   OH215968   1.907   0.478   0.517  0.2565 -0.2773  0.0605
 5336TIP3    H115969   1.976   0.529   0.559 -0.8196 -0.1159  1.7065
 5336TIP3    H215970   1.827   0.526   0.535 -0.8104 -2.5315  1.7530
 5337TIP3   OH215971   5.239   4.094   2.725  0.2709 -0.6702  0.4470
 5337TIP3    H115972   5.279   4.039   2.658  0.5295 -0.5826  0.5294
 5337TIP3    H215973   5.310   4.151   2.755 -0.3899  1.0020 -0.9618
 5338TIP3   OH215974   3.657   1.871   3.540  0.4088  0.6671 -0.6682
 5338TIP3    H115975   3.711   1.793   3.548  0.5952  0.9240  0.7644
 5338TIP3    H215976   3.572   1.838   3.512  0.7822  0.0709 -1.1252
 5339TIP3   OH215977   4.779   6.315   2.327 -0.3066  0.3054  0.2996
 5339TIP3    H115978   4.738   6.271   2.253 -1.6940 -0.5322  1.5038
 5339TIP3    H215979   4.728   6.396   2.337 -0.2778  0.2999  0.4873
 5340TIP3   OH215980   3.461   2.996   5.086 -0.1008 -0.3165 -0.1095
 5340TIP3    H115981   3.522   2.925   5.106 -1.1687 -1.2798 -0.1196
 5340TIP3    H215982   3.378   2.951   5.069 -0.3003  0.7804 -2.3152
 5341TIP3   OH215983   4.995   3.242   5.123  0.0473 -0.2224  0.1182
 5341TIP3    H115984   4.958   3.224   5.037 -0.7235 -0.6152  0.5208
 5341TIP3    H215985   4.924   3.283   5.172  0.2715 -0.5794  0.7628
 5342TIP3   OH215986   1.348   4.091   1.241  0.9536  0.4489 -0.1438
 5342TIP3    H115987   1.267   4.064   1.197  0.0710  2.8512 -0.1613
 5342TIP3    H215988   1.414   4.028   1.212 -0.7680 -1.1892 -0.6333
 5343TIP3   OH215989   5.347   5.282   1.848 -0.9588  0.1089 -1.0670
 5343TIP3    H115990   5.424   5.269   1.792 -0.8044 -0.3894 -0.7394
 5343TIP3    H215991   5.379   5.268   1.937 -0.9328  2.0144 -0.7206
 5344TIP3   OH215992   6.436   5.978   4.393 -0.6439  0.9288  0.3963
 5344TIP3    H115993   6.408   5.887   4.397  0.9816  0.3726  0.1586
 5344TIP3    H215994   6.510   5.977   4.331 -0.7420  2.4477  0.2164
 5345TIP3   OH215995   2.469   0.308   1.823  0.0952  0.5969  0.0386
 5345TIP3    H115996   2.474   0.402   1.806 -0.1550  0.8806  1.4229
 5345TIP3    H215997   2.494   0.299   1.915  1.1015 -0.8118 -0.3400
 5346TIP3   OH215998   1.514   3.135   5.908  0.1348  0.2911  0.1771
 5346TIP3    H115999   1.513   3.108   5.816  3.9727  0.2035  0.0127
 5346TIP3    H216000   1.530   3.053   5.956  3.1038  0.8720  0.3865
 5347TIP3   OH216001   3.950   1.770   0.576 -0.1619  0.2049 -0.1815
 5347TIP3    H116002   3.922   1.760   0.667  0.5366 -2.7821 -0.1987
 5347TIP3    H216003   4.046   1.760   0.578 -0.3146 -2.8902 -1.4127
 5348TIP3   OH216004   0.034   3.897   1.556  0.2298  0.0369  0.0478
 5348TIP3    H116005   0.125   3.922   1.565 -0.0770  0.9048  0.8606
 5348TIP3    H216006  -0.016   3.977   1.571 -0.6575 -0.2115 -1.2921
 5349TIP3   OH216007   6.385   0.024   3.179 -0.1833 -0.0576  0.1529
 5349TIP3    H116008   6.291   0.004   3.183  0.2184 -1.9126  1.3750
 5349TIP3    H216009   6.409   0.009   3.088 -1.3001  1.8158 -0.5242
 5350TIP3   OH216010   4.499   2.687   5.264 -0.8088  0.0149  0.8758
 5350TIP3    H116011   4.571   2.711   5.322 -0.0362 -0.4188  0.1274
 5350TIP3    H216012   4.493   2.591   5.271 -0.0440 -0.1623 -0.4743
 5351TIP3   OH216013   3.143   5.325   0.674 -0.0894 -0.2761 -0.0750
 5351TIP3    H116014   3.233   5.310   0.702 -0.1680 -2.3607 -0.7885
 5351TIP3    H216015   3.150   5.353   0.583 -0.1510 -0.5072 -0.1528
 5352TIP3   OH216016   1.485   6.894   3.105 -0.3526  0.8120  0.2684
 5352TIP3    H116017   1.520   6.982   3.120 -0.2457  0.5233  1.9659
 5352TIP3    H216018   1.390   6.904   3.111 -0.3539  0.8665  0.1497
 5353TIP3   OH216019   6.511   1.632   2.774 -0.0462  0.2642 -0.1609
 5353TIP3    H116020   6.483   1.703   2.832 -1.7178 -0.2974 -0.2266
 5353TIP3    H216021   6.496   1.666   2.686 -2.1728 -0.6154 -0.1870
 5354TIP3   OH216022   5.298   3.055   1.926 -0.1368 -0.5833 -0.3454
 5354TIP3    H116023   5.277   3.149   1.924  1.7366 -0.1338 -0.8895
 5354TIP3    H216024   5.372   3.049   1.987 -0.4459 -1.7590 -0.0730
 5355TIP3   OH216025   5.506   0.588   5.005  0.2631  0.1585  0.3274
 5355TIP3    H116026   5.545   0.532   4.938 -1.3685 -0.5503 -0.0779
 5355TIP3    H216027   5.539   0.676   4.984  1.7507 -0.4176  0.1355
 5356TIP3   OH216028   3.952   5.951   2.344 -0.1619 -0.0985  0.1235
 5356TIP3    H116029   3.871   5.967   2.391  0.6572  1.8579  0.9889
 5356TIP3    H216030   3.971   5.858   2.358 -1.7830 -0.3799  0.6009
 5357TIP3   OH216031   0.525   5.381   3.164  0.3384 -0.7485 -0.2152
 5357TIP3    H116032   0.572   5.358   3.084 -2.3770 -0.0912 -2.1544
 5357TIP3    H216033   0.512   5.476   3.158  1.0449 -0.4979  1.6172
 5358TIP3   OH216034   1.898   6.519   1.120  0.5299 -0.7590 -0.1761
 5358TIP3    H116035   1.823   6.493   1.066 -0.2559  0.0877  0.4690
 5358TIP3    H216036   1.969   6.533   1.058 -0.7135  1.5005 -1.1889
 5359TIP3   OH216037   4.315   2.329   2.164 -0.6057  0.4972  0.3877
 5359TIP3    H116038   4.315   2.407   2.220 -2.7595  0.3962  0.6083
 5359TIP3    H216039   4.257   2.267   2.209 -0.3904 -0.5412 -0.7053
 5360TIP3   OH216040   1.258   6.263   2.286 -0.1236  0.0300 -0.1739
 5360TIP3    H116041   1.280   6.301   2.200 -1.4128 -1.8899 -1.4350
 5360TIP3    H216042   1.166   6.286   2.300  0.5527  1.8882  1.6280
 5361TIP3   OH216043   1.492   3.925   3.376 -0.3208  0.0201  0.9192
 5361TIP3    H116044   1.427   3.960   3.437 -2.2176 -1.0722 -0.3711
 5361TIP3    H216045   1.447   3.853   3.332  0.9330  0.7856 -1.8255
 5362TIP3   OH216046   6.728   1.725   2.121 -0.0869  0.4449 -0.6341
 5362TIP3    H116047   6.690   1.701   2.036  0.8541 -1.3160 -0.5976
 5362TIP3    H216048   6.817   1.689   2.118  0.0108  0.4976  1.0365
 5363TIP3   OH216049   5.170   4.259   0.502  0.4833  0.7979 -0.1434
 5363TIP3    H116050   5.103   4.326   0.487 -0.2416  0.2998  0.7941
 5363TIP3    H216051   5.177   4.252   0.597  0.9185 -0.0844 -0.2281
 5364TIP3   OH216052   0.486   1.535   0.273  0.2908  0.3354 -0.1524
 5364TIP3    H116053   0.424   1.501   0.208  0.1723 -0.0863  0.1818
 5364TIP3    H216054   0.509   1.622   0.240  1.5625 -0.5215 -1.6707
 5365TIP3   OH216055   5.914   2.151   0.108 -0.0951 -0.0564  0.6430
 5365TIP3    H116056   5.884   2.234   0.144  0.6102  0.7033 -0.4817
 5365TIP3    H216057   5.902   2.088   0.179 -0.9556  0.9293  1.3920
 5366TIP3   OH216058   4.870   0.967   0.896 -0.1308  0.1050 -0.1112
 5366TIP3    H116059   4.896   1.049   0.937 -0.3514  0.0731  0.0936
 5366TIP3    H216060   4.774   0.968   0.900 -0.1883  0.3530 -1.0964
 5367TIP3   OH216061   7.309   5.413   2.589 -0.5574  0.5983 -0.6858
 5367TIP3    H116062   7.262   5.354   2.531 -1.9042 -0.1169  1.0308
 5367TIP3    H216063   7.296   5.500   2.551 -1.6021  0.1742 -1.3344
 5368TIP3   OH216064   3.552   5.533   2.199 -0.1227  0.2659  0.5211
 5368TIP3    H116065   3.521   5.619   2.230  1.6249  0.9784  0.4453
 5368TIP3    H216066   3.523   5.529   2.108 -1.9469 -0.1371  1.0799
 5369TIP3   OH216067   7.037   0.203   3.620 -0.4693  0.0731  0.2326
 5369TIP3    H116068   6.972   0.200   3.691 -0.0484  2.1003  0.7732
 5369TIP3    H216069   6.986   0.228   3.543 -0.6389 -0.3432  0.2060
 5370TIP3   OH216070   3.350   3.073   5.835  0.1185  0.4640  0.2369
 5370TIP3    H116071   3.297   2.995   5.822 -1.3493  1.3490  0.7245
 5370TIP3    H216072   3.345   3.091   5.928  1.4996  0.4447  0.3457
 5371TIP3   OH216073   5.059   3.518   5.740 -0.2183 -0.2497  0.0307
 5371TIP3    H116074   5.012   3.435   5.736  1.0445 -1.0547  0.9202
 5371TIP3    H216075   5.129   3.509   5.675  0.2787 -0.1404  0.5424
 5372TIP3   OH216076   4.486   2.505   0.603 -0.6666 -0.2425  0.4354
 5372TIP3    H116077   4.439   2.475   0.681 -0.8926 -0.7221  0.1149
 5372TIP3    H216078   4.417   2.523   0.539 -0.3994 -1.9426 -0.3921
 5373TIP3   OH216079   4.850   0.533   5.862  0.1868 -0.6290 -0.1900
 5373TIP3    H116080   4.794   0.565   5.933 -0.5115 -0.5000 -0.7812
 5373TIP3    H216081   4.876   0.612   5.815  0.9758 -0.6778  0.1478
 5374TIP3   OH216082   1.815   1.454   2.610 -0.4107 -0.0601 -0.2989
 5374TIP3    H116083   1.865   1.380   2.576 -0.9215 -0.8321  0.5999
 5374TIP3    H216084   1.844   1.528   2.558  0.0742 -0.8997 -1.2512
 5375TIP3   OH216085   3.506   2.971   0.034  0.3800 -0.0314 -0.1903
 5375TIP3    H116086   3.475   3.028  -0.036 -0.1669 -0.7429 -0.5460
 5375TIP3    H216087   3.541   3.030   0.100 -2.0383  0.8941  0.3879
 5376TIP3   OH216088   6.433   6.100   2.468 -0.1143 -0.6853  0.2155
 5376TIP3    H116089   6.406   6.132   2.554 -2.8600  0.0842 -0.8134
 5376TIP3    H216090   6.477   6.175   2.428 -3.0303  0.6921 -0.7056
 5377TIP3   OH216091   0.998   4.598   2.543  0.0246 -0.1370  0.0481
 5377TIP3    H116092   1.012   4.538   2.470  0.0808  1.3305 -1.1819
 5377TIP3    H216093   1.053   4.563   2.614  0.7685 -0.9960 -0.9270
 5378TIP3   OH216094   5.267   3.063   5.146  0.0280 -0.3295 -0.4860
 5378TIP3    H116095   5.191   3.105   5.106 -0.4243 -1.1909 -0.5484
 5378TIP3    H216096   5.245   2.970   5.146  0.4171 -0.4374  0.8962
 5379TIP3   OH216097   6.316   3.964   1.480 -0.0183 -0.1517 -0.5575
 5379TIP3    H116098   6.261   3.896   1.442 -1.2410  0.7852 -0.5148
 5379TIP3    H216099   6.296   4.043   1.429  2.2335 -0.0358 -1.3837
 5380TIP3   OH216100   0.742   1.204   4.315 -0.0028 -0.6072  0.1394
 5380TIP3    H116101   0.765   1.153   4.393  0.6128 -0.0858  0.3094
 5380TIP3    H216102   0.648   1.215   4.320 -0.0148 -0.9071  0.6113
 5381TIP3   OH216103   3.471   1.687   0.619 -0.5448 -0.2800 -0.5458
 5381TIP3    H116104   3.473   1.655   0.709 -1.6021  1.2131  0.0483
 5381TIP3    H216105   3.469   1.782   0.628 -0.1112 -0.0936 -2.1784
 5382TIP3   OH216106   1.379   0.401   0.088  1.0094 -0.5040  0.1495
 5382TIP3    H116107   1.457   0.385   0.143  0.0665 -1.1021  1.3656
 5382TIP3    H216108   1.341   0.481   0.123  0.4259 -0.8631  0.3577
 5383TIP3   OH216109   1.819   0.437   4.385  0.2220 -0.1543  0.7698
 5383TIP3    H116110   1.816   0.347   4.355 -1.8790  0.4612 -1.1157
 5383TIP3    H216111   1.912   0.459   4.386  0.6552 -1.7564 -0.5631
 5384TIP3   OH216112   5.795   3.515   4.707  0.5272 -0.1469 -0.1306
 5384TIP3    H116113   5.725   3.450   4.694  1.6501 -1.5642  0.5401
 5384TIP3    H216114   5.869   3.479   4.658  1.1512  0.6879  0.1908
 5385TIP3   OH216115   5.525   6.264   4.788  0.4179 -0.7128  0.2127
 5385TIP3    H116116   5.531   6.360   4.781 -0.4228 -0.7278 -1.4089
 5385TIP3    H216117   5.584   6.241   4.859  1.0426  0.9724  0.2907
 5386TIP3   OH216118   1.510   3.091   1.171 -0.0862  0.0708 -0.2507
 5386TIP3    H116119   1.571   3.149   1.124  0.3755 -1.2485 -1.3475
 5386TIP3    H216120   1.423   3.120   1.143  0.1220  0.3866 -0.5862
 5387TIP3   OH216121   1.069   5.410   5.845 -0.3136 -0.1485  0.3837
 5387TIP3    H116122   1.078   5.465   5.767  0.4473 -0.3090  0.3495
 5387TIP3    H216123   1.038   5.470   5.913 -0.9978 -0.0117 -0.0395
 5388TIP3   OH216124   5.771   0.041   0.777  0.2271  0.1902 -0.0220
 5388TIP3    H116125   5.693   0.097   0.769  0.4919  0.7792  1.1644
 5388TIP3    H216126   5.737  -0.041   0.813  0.0316  0.1075 -0.3890
 5389TIP3   OH216127   0.309   4.893   1.770  1.1484  0.3883  0.1717
 5389TIP3    H116128   0.309   4.915   1.863  0.1959  1.6621 -0.1080
 5389TIP3    H216129   0.273   4.970   1.727 -0.3374 -0.9129 -1.0685
 5390TIP3   OH216130   3.243   3.356   2.592  0.0646 -0.5295 -0.1292
 5390TIP3    H116131   3.247   3.272   2.545  0.0232 -0.8002  0.3454
 5390TIP3    H216132   3.231   3.421   2.523  1.4055 -0.7833 -0.6354
 5391TIP3   OH216133   3.920   4.151   3.236  0.1158 -0.0023 -0.3295
 5391TIP3    H116134   3.890   4.066   3.204  1.1968 -0.6692  0.3854
 5391TIP3    H216135   3.856   4.175   3.302 -0.0019 -0.4237 -0.2862
 5392TIP3   OH216136   2.554   4.965   3.391 -0.3924 -0.1142 -0.5625
 5392TIP3    H116137   2.598   4.889   3.431 -1.0886  0.0630  0.5885
 5392TIP3    H216138   2.469   4.931   3.363 -0.5841  0.1686 -0.3240
 5393TIP3   OH216139   7.082   2.696   1.340 -0.1447  0.0660  0.3219
 5393TIP3    H116140   7.084   2.781   1.295  0.2757  0.3421  0.8616
 5393TIP3    H216141   6.992   2.666   1.329 -0.1107  0.2296 -0.5159
 5394TIP3   OH216142   3.732   5.264   0.397 -0.5067  0.2302 -0.3358
 5394TIP3    H116143   3.804   5.205   0.375 -2.2649 -1.7892 -0.9940
 5394TIP3    H216144   3.766   5.318   0.468  1.9664  0.0536 -1.3002
 5395TIP3   OH216145   1.211   5.629   0.143  0.2011 -0.5967  0.2146
 5395TIP3    H116146   1.216   5.670   0.057 -1.1325  0.7164  0.7325
 5395TIP3    H216147   1.133   5.573   0.138  0.1689 -0.5811  0.5553
 5396TIP3   OH216148   2.945   5.866   5.383  0.2954  0.1751  0.0954
 5396TIP3    H116149   2.853   5.883   5.363  0.1594 -0.2181  0.3763
 5396TIP3    H216150   2.944   5.787   5.437  0.9909 -1.6307 -2.3148
 5397TIP3   OH216151  -0.001   4.906   3.468  0.2046  0.8248 -0.2718
 5397TIP3    H116152   0.095   4.903   3.467  0.2873 -2.7910  0.8973
 5397TIP3    H216153  -0.024   4.875   3.556 -2.0254  1.0102 -0.7384
 5398TIP3   OH216154   3.101   1.646   1.616 -0.0400  0.3897 -0.0004
 5398TIP3    H116155   3.031   1.704   1.644 -1.3103  0.0517 -2.2210
 5398TIP3    H216156   3.056   1.565   1.592  1.2259 -0.1730 -0.5516
 5399TIP3   OH216157   0.208   6.864   5.880  0.4033 -0.6559 -0.1496
 5399TIP3    H116158   0.301   6.874   5.901  0.4026 -1.5230  0.3275
 5399TIP3    H216159   0.172   6.816   5.954 -0.7403  0.8784  0.3385
 5400TIP3   OH216160   5.776   4.120   0.133  0.2630 -0.2012  0.6857
 5400TIP3    H116161   5.857   4.126   0.084 -0.3559  0.8324 -0.2379
 5400TIP3    H216162   5.789   4.045   0.191  2.1862  0.4537  1.1673
 5401TIP3   OH216163   1.536   3.945   3.950  0.3317  0.0642 -0.5726
 5401TIP3    H116164   1.621   3.946   3.994  0.7421 -3.2726 -1.0476
 5401TIP3    H216165   1.557   3.950   3.857 -0.1520  1.0996 -0.6398
 5402TIP3   OH216166   1.020   3.536   5.996 -0.6267  0.1767  0.3033
 5402TIP3    H116167   1.062   3.458   5.959  1.0508  0.7391  0.9230
 5402TIP3    H216168   0.984   3.581   5.920  1.7673  0.7227 -0.6047
 5403TIP3   OH216169   1.917   3.105   3.629 -0.5830  0.3470 -0.1948
 5403TIP3    H116170   1.978   3.071   3.563  0.1409  1.5184 -0.1451
 5403TIP3    H216171   1.903   3.032   3.688 -1.3458 -0.7867 -1.6991
 5404TIP3   OH216172   7.284   1.601   3.727  0.0812  0.0279 -0.4350
 5404TIP3    H116173   7.338   1.595   3.649  2.2889  2.6722  0.7114
 5404TIP3    H216174   7.340   1.642   3.793 -2.3966  0.1200  1.8360
 5405TIP3   OH216175   1.307   2.791   5.137  0.0149 -0.3466  0.1865
 5405TIP3    H116176   1.317   2.698   5.157  2.3666  0.3367  2.8682
 5405TIP3    H216177   1.395   2.819   5.113 -0.5910  1.2716 -0.2586
 5406TIP3   OH216178   0.601   4.066   2.799  0.0360  0.2472 -0.2707
 5406TIP3    H116179   0.517   4.044   2.759 -0.0466 -0.8938  0.4820
 5406TIP3    H216180   0.666   4.034   2.737 -0.0679  1.1051 -0.8418
 5407TIP3   OH216181   4.904   2.686   4.211 -0.5046 -0.3736  0.3312
 5407TIP3    H116182   4.828   2.694   4.153 -1.8982  0.8685  2.2334
 5407TIP3    H216183   4.902   2.594   4.240 -2.3030  0.0280  1.6257
 5408TIP3   OH216184   1.941   4.705   1.709  0.3366 -0.0659 -0.1969
 5408TIP3    H116185   1.894   4.788   1.697  1.0358  0.3718  0.0408
 5408TIP3    H216186   1.941   4.691   1.803  2.4160  1.0000  0.0377
 5409TIP3   OH216187   1.649   4.918   4.762  0.6580 -0.0923 -0.5060
 5409TIP3    H116188   1.734   4.934   4.802  1.1942 -0.0628 -1.6429
 5409TIP3    H216189   1.645   4.823   4.751  0.6612 -0.0665 -0.7232
 5410TIP3   OH216190   4.606   6.513   3.387 -0.6231 -0.1463  0.1827
 5410TIP3    H116191   4.608   6.483   3.478  0.6380 -0.1302  0.1709
 5410TIP3    H216192   4.654   6.595   3.388  2.2352 -1.6832 -1.0182
 5411TIP3   OH216193   4.331   1.207   4.439 -0.5869  0.6778 -0.0588
 5411TIP3    H116194   4.421   1.235   4.426 -0.1995 -0.2409  0.5239
 5411TIP3    H216195   4.332   1.113   4.421 -1.3069  0.5484  0.4852
 5412TIP3   OH216196   4.236   1.896   1.374 -0.3599 -0.4535  0.1215
 5412TIP3    H116197   4.318   1.874   1.330 -1.1530  1.3943 -2.5179
 5412TIP3    H216198   4.167   1.860   1.317 -1.4288  0.7632  0.5972
 5413TIP3   OH216199   5.016   1.854   3.671  0.1177  0.5473 -0.3272
 5413TIP3    H116200   5.106   1.840   3.700 -0.3260 -0.1964  0.7233
 5413TIP3    H216201   5.000   1.784   3.607 -0.6278 -1.1301  1.6093
 5414TIP3   OH216202   5.289   5.311   3.144  0.6248 -0.0209  0.0936
 5414TIP3    H116203   5.254   5.286   3.230 -0.3332 -0.1959 -0.3321
 5414TIP3    H216204   5.212   5.325   3.090  1.1908  1.2034 -0.4429
 5415TIP3   OH216205   1.255   3.594   5.202 -0.5992 -0.5168 -0.1120
 5415TIP3    H116206   1.209   3.584   5.119 -0.2500 -0.0933 -0.3631
 5415TIP3    H216207   1.187   3.585   5.269 -0.8448 -1.0981 -0.4341
 5416TIP3   OH216208   5.703   0.002   3.811  0.0421 -0.1354 -1.0690
 5416TIP3    H116209   5.755  -0.046   3.747  0.4109 -0.2024 -0.7255
 5416TIP3    H216210   5.761   0.071   3.844 -0.7318  1.0394 -2.0984
 5417TIP3   OH216211   2.875   6.105   4.334 -0.6792  0.3023  0.4952
 5417TIP3    H116212   2.861   6.188   4.381 -0.6113  1.2395 -1.0609
 5417TIP3    H216213   2.793   6.057   4.346 -1.3561  1.3076  0.1044
 5418TIP3   OH216214   1.047   2.573   5.825  0.1021  0.3754  0.0240
 5418TIP3    H116215   1.023   2.493   5.778 -0.6520  0.4997  0.1944
 5418TIP3    H216216   0.994   2.642   5.785  0.2561  0.6737  0.3246
 5419TIP3   OH216217   6.344   1.866   3.954 -0.7955 -0.1203  0.1435
 5419TIP3    H116218   6.365   1.775   3.976  0.5614  0.7768  3.0162
 5419TIP3    H216219   6.408   1.889   3.887 -0.2334 -0.8859  0.3964
 5420TIP3   OH216220   3.942   2.542   5.605  0.0796 -0.4513 -0.0543
 5420TIP3    H116221   3.863   2.596   5.603 -1.1003 -2.1541 -1.0409
 5420TIP3    H216222   3.965   2.529   5.513  2.1324  0.8213  0.2054
 5421TIP3   OH216223   2.878   3.158   1.190  0.2748 -0.1936  0.3211
 5421TIP3    H116224   2.805   3.096   1.199 -0.0183  0.2427  1.0497
 5421TIP3    H216225   2.862   3.223   1.258 -0.2733  1.5321 -1.3623
 5422TIP3   OH216226   5.777   6.599   6.094  0.0712  0.1174  0.4118
 5422TIP3    H116227   5.780   6.656   6.171 -1.3793  2.0327 -0.8350
 5422TIP3    H216228   5.706   6.538   6.112  0.6769 -0.3843  1.1614
 5423TIP3   OH216229   4.605   0.831   2.999  0.1790 -0.0734 -0.6947
 5423TIP3    H116230   4.616   0.739   2.974  0.0857 -1.3058  3.1613
 5423TIP3    H216231   4.690   0.856   3.034  0.3503  1.5773 -2.1428
 5424TIP3   OH216232   6.595   0.698   5.638 -0.1645  0.1873  0.3371
 5424TIP3    H116233   6.551   0.666   5.717 -0.4375  1.5343  0.7534
 5424TIP3    H216234   6.558   0.785   5.623  0.9453  0.5504 -0.4316
 5425TIP3   OH216235   5.883   4.585   0.515  0.4961  0.6827  0.8573
 5425TIP3    H116236   5.908   4.619   0.600  0.7208 -1.1930  1.5850
 5425TIP3    H216237   5.789   4.570   0.521 -0.1518  3.6115 -0.3946
 5426TIP3   OH216238   6.363   6.957   3.852  0.1828  0.1120 -0.4174
 5426TIP3    H116239   6.273   6.943   3.823  0.0962 -1.0379  0.3417
 5426TIP3    H216240   6.416   6.942   3.774 -0.1906 -0.7615 -0.5191
 5427TIP3   OH216241   6.000   4.535   5.390 -0.5066 -0.5589 -0.2618
 5427TIP3    H116242   5.967   4.587   5.317 -0.6298 -0.1981  0.0489
 5427TIP3    H216243   5.968   4.446   5.373  1.0961 -0.9152 -1.6647
 5428TIP3   OH216244   5.423   5.644   4.500  0.1633 -0.1098  0.0543
 5428TIP3    H116245   5.332   5.658   4.474  0.4941 -1.7558 -2.2192
 5428TIP3    H216246   5.416   5.601   4.586 -1.3002 -1.6609 -0.7717
 5429TIP3   OH216247   0.591   2.976   0.658 -0.1862 -0.2230  0.4892
 5429TIP3    H116248   0.519   3.031   0.627  0.3194  0.3623  0.3350
 5429TIP3    H216249   0.656   3.038   0.691  0.4261 -0.7182  0.2365
 5430TIP3   OH216250   1.310   2.280   4.923 -0.5225 -0.1032  0.1581
 5430TIP3    H116251   1.372   2.311   4.857 -2.3185  0.8756 -1.1745
 5430TIP3    H216252   1.244   2.349   4.927 -0.0672  0.2810  3.6712
 5431TIP3   OH216253   7.045   5.936   5.270 -0.2719 -0.0733 -0.3944
 5431TIP3    H116254   7.078   6.017   5.309 -0.1309 -0.1588 -0.3346
 5431TIP3    H216255   7.064   5.868   5.335 -0.5868 -0.1203 -0.3522
 5432TIP3   OH216256   0.572   4.004   0.757 -0.0727 -0.4011  0.1860
 5432TIP3    H116257   0.634   3.952   0.809  2.4503  1.4826 -0.6963
 5432TIP3    H216258   0.578   3.966   0.669 -0.5237 -0.4896  0.1931
 5433TIP3   OH216259   7.388   6.698   2.331  0.6147 -0.0594 -0.0981
 5433TIP3    H116260   7.305   6.654   2.350  0.3218  0.6473  0.3152
 5433TIP3    H216261   7.451   6.627   2.323  0.0387 -0.5881 -0.0649
 5434TIP3   OH216262   3.914   2.791   3.818 -0.2407 -0.4066 -0.7977
 5434TIP3    H116263   4.000   2.830   3.808 -0.1592 -0.5908 -0.8204
 5434TIP3    H216264   3.929   2.697   3.810 -0.2443 -0.5331  0.5367
 5435TIP3   OH216265   6.626   7.095   5.422 -0.3018  0.1040  0.1864
 5435TIP3    H116266   6.711   7.126   5.453  0.3994 -1.2751 -0.2527
 5435TIP3    H216267   6.646   7.017   5.370 -1.8665 -0.4749  0.3759
 5436TIP3   OH216268   1.704   1.956   1.933 -0.2139 -0.0733 -0.1535
 5436TIP3    H116269   1.634   1.913   1.884  0.3084 -0.0949 -0.8964
 5436TIP3    H216270   1.756   1.884   1.969 -0.5676 -0.0573  0.4026
 5437TIP3   OH216271   1.133   2.455   1.403  0.1668  0.1096  0.2731
 5437TIP3    H116272   1.057   2.415   1.445 -1.0701 -0.2172 -2.0983
 5437TIP3    H216273   1.178   2.382   1.361  0.6413  0.5741 -0.0371
 5438TIP3   OH216274   3.366   6.334   4.550  0.6902 -0.4494  0.1572
 5438TIP3    H116275   3.426   6.357   4.621 -0.9298  2.0092  0.8308
 5438TIP3    H216276   3.303   6.274   4.590 -1.1265  2.1095  1.3426
 5439TIP3   OH216277   2.407   3.446   4.103  0.6366 -0.0773  0.2096
 5439TIP3    H116278   2.440   3.522   4.055  0.2325 -0.7177 -1.1364
 5439TIP3    H216279   2.315   3.466   4.121  0.9740  0.4922  1.4600
 5440TIP3   OH216280   3.834   1.355   3.723 -0.8540  0.9327 -0.2784
 5440TIP3    H116281   3.840   1.349   3.819 -2.8636 -0.3825 -0.1741
 5440TIP3    H216282   3.876   1.274   3.692  0.8110  1.8794 -0.6157
 5441TIP3   OH216283   2.144   2.834   5.644 -0.1182  0.0713  0.4700
 5441TIP3    H116284   2.179   2.769   5.582 -1.3254 -0.7045  0.5739
 5441TIP3    H216285   2.195   2.819   5.724 -0.0262 -0.4014  0.3300
 5442TIP3   OH216286   7.470   6.425   4.155  0.1878  0.2011  0.0784
 5442TIP3    H116287   7.491   6.509   4.114  1.9248  0.2334  0.9467
 5442TIP3    H216288   7.458   6.446   4.248  2.6366 -0.7273  0.6838
 5443TIP3   OH216289   0.412   6.096   4.527  0.4928  0.1533 -0.1908
 5443TIP3    H116290   0.428   6.135   4.613 -1.0469  0.6996 -0.1168
 5443TIP3    H216291   0.448   6.008   4.534  2.2977  0.8740  0.2882
 5444TIP3   OH216292   5.174   4.837   2.440 -0.4318  0.0947 -0.0163
 5444TIP3    H116293   5.195   4.816   2.531 -1.7116 -0.0575  0.2597
 5444TIP3    H216294   5.109   4.772   2.415  0.1774 -0.0958 -1.1742
 5445TIP3   OH216295   1.992   0.642   5.184  0.6389  0.4269 -0.2334
 5445TIP3    H116296   1.941   0.562   5.181  1.1611  0.1014 -0.7523
 5445TIP3    H216297   1.956   0.692   5.257  0.7069 -0.5520  0.4811
 5446TIP3   OH216298   5.427   0.089   1.698 -0.4777 -0.1042 -0.4083
 5446TIP3    H116299   5.433   0.110   1.605  0.9964 -2.9475 -1.0492
 5446TIP3    H216300   5.354   0.028   1.704 -0.9955  0.5776  0.4431
 5447TIP3   OH216301   6.534   4.765   5.726  0.1203 -0.1876  0.2893
 5447TIP3    H116302   6.456   4.811   5.755  0.1320 -0.9740  1.6703
 5447TIP3    H216303   6.559   4.710   5.801 -0.2735 -2.9389 -1.4507
 5448TIP3   OH216304   2.695   5.209   4.505 -0.5844 -0.0605 -0.4449
 5448TIP3    H116305   2.650   5.146   4.560 -2.0225  0.8960 -0.4739
 5448TIP3    H216306   2.685   5.293   4.551  0.3296  0.3404 -0.9483
 5449TIP3   OH216307   2.695   4.833   4.726 -0.7619  0.4839  0.4934
 5449TIP3    H116308   2.751   4.769   4.682 -1.3392  0.3711 -0.0847
 5449TIP3    H216309   2.727   4.834   4.817  2.0077  2.4522 -0.3726
 5450TIP3   OH216310   5.729   0.617   2.775  0.7019  0.1411 -0.1978
 5450TIP3    H116311   5.711   0.588   2.686 -1.2794 -0.4298  0.3312
 5450TIP3    H216312   5.804   0.676   2.767 -0.1498  1.0202 -2.3758
 5451TIP3   OH216313   1.118   2.477   1.710 -0.4084  0.1526  0.2665
 5451TIP3    H116314   1.193   2.423   1.731  0.0391  1.3053  1.8889
 5451TIP3    H216315   1.067   2.426   1.647  2.0250 -0.3843 -1.3800
 5452TIP3   OH216316   1.929   1.926   2.886 -0.3193  0.3427  0.6047
 5452TIP3    H116317   1.907   1.838   2.857  0.7247 -0.1310  1.1750
 5452TIP3    H216318   2.025   1.930   2.879 -0.2374  0.9616  1.8482
 5453TIP3   OH216319   5.078   6.388   3.595 -0.2885 -0.4323  0.0849
 5453TIP3    H116320   4.994   6.352   3.566 -0.6328 -0.5897  1.2159
 5453TIP3    H216321   5.073   6.481   3.575 -0.8685 -0.3861  0.4181
 5454TIP3   OH216322   7.408   2.501   0.704 -0.3296 -0.6371  0.4981
 5454TIP3    H116323   7.443   2.576   0.657  0.1637 -1.7300 -0.9568
 5454TIP3    H216324   7.385   2.535   0.790 -1.0847  1.3876 -0.4557
 5455TIP3   OH216325   1.228   4.083   2.338  0.7255 -0.0730 -0.4686
 5455TIP3    H116326   1.272   4.012   2.289  1.0424  1.5559 -2.7319
 5455TIP3    H216327   1.199   4.144   2.270  0.1839  1.8287  1.3682
 5456TIP3   OH216328   7.123   3.176   0.844 -0.1517  0.0785  0.4210
 5456TIP3    H116329   7.207   3.147   0.807  0.3461 -0.5180  1.9579
 5456TIP3    H216330   7.140   3.266   0.873 -0.7948  0.8818 -1.4720
 5457TIP3   OH216331   3.115   3.429   0.390  0.7183 -0.3177 -0.5243
 5457TIP3    H116332   3.075   3.343   0.400 -0.0516  0.3124  3.6058
 5457TIP3    H216333   3.060   3.474   0.327  0.2549 -2.3108 -1.6277
 5458TIP3   OH216334   1.856   1.765   0.833  0.0502 -0.1558 -0.0982
 5458TIP3    H116335   1.869   1.848   0.787 -1.8532 -0.3966 -1.1906
 5458TIP3    H216336   1.853   1.789   0.925 -0.9063  1.0939 -0.4160
 5459TIP3   OH216337   1.221   1.787   3.743  0.1353 -0.7265 -0.5552
 5459TIP3    H116338   1.157   1.853   3.768  1.3042  0.3922 -0.4376
 5459TIP3    H216339   1.261   1.759   3.826  0.3291 -0.8644 -0.6930
 5460TIP3   OH216340   5.290   6.054   1.597 -0.4652 -0.0897  0.0328
 5460TIP3    H116341   5.316   6.083   1.509 -1.7482 -0.1211 -0.3862
 5460TIP3    H216342   5.372   6.035   1.642  0.1998 -1.0985 -1.5197
 5461TIP3   OH216343   5.847   0.691   3.443 -0.4789 -0.2665  0.0052
 5461TIP3    H116344   5.862   0.629   3.372  1.5703  0.8551 -0.6163
 5461TIP3    H216345   5.850   0.637   3.523 -0.2124 -1.1882 -0.6138
 5462TIP3   OH216346   6.418   0.127   1.994 -0.7168  0.2698 -0.0235
 5462TIP3    H116347   6.441   0.046   2.041  0.4199  0.0176 -0.9645
 5462TIP3    H216348   6.460   0.117   1.909 -2.0550  1.0797 -0.8065
 5463TIP3   OH216349   7.500   1.827   0.258 -0.2014 -0.2548 -0.1306
 5463TIP3    H116350   7.579   1.772   0.258 -1.1205 -1.6224  0.3309
 5463TIP3    H216351   7.432   1.771   0.297 -1.5067  0.7444 -0.9183
 5464TIP3   OH216352   3.435   3.907   1.683 -0.2064 -0.4008 -0.2399
 5464TIP3    H116353   3.418   3.947   1.598  1.1133  1.4967  0.3144
 5464TIP3    H216354   3.369   3.946   1.741  0.7480  0.6171  0.1911
 5465TIP3   OH216355   0.438   5.835   0.342  0.4315 -0.4421 -0.0284
 5465TIP3    H116356   0.429   5.929   0.356  0.5820 -0.3100 -0.7769
 5465TIP3    H216357   0.413   5.795   0.426 -0.1544  0.2342  0.1268
 5466TIP3   OH216358   7.275   4.700   5.405 -1.2194 -0.2984  0.3967
 5466TIP3    H116359   7.314   4.757   5.471 -1.0600  0.3327 -0.2294
 5466TIP3    H216360   7.311   4.613   5.424  0.2234  0.1940  0.0600
 5467TIP3   OH216361   0.226   2.899   5.839 -0.1276  0.1364 -0.6718
 5467TIP3    H116362   0.161   2.830   5.849  0.3066 -0.2978 -0.8317
 5467TIP3    H216363   0.234   2.938   5.926  1.2809 -1.4950 -0.0143
 5468TIP3   OH216364   5.206   1.002   4.434 -0.7895 -0.4421  0.2627
 5468TIP3    H116365   5.162   0.950   4.502 -0.5538  0.0410  0.7874
 5468TIP3    H216366   5.275   0.944   4.401  0.5219  0.0903  1.9708
 5469TIP3   OH216367   1.412   4.227   5.314 -0.2248  0.0570  0.1005
 5469TIP3    H116368   1.420   4.160   5.246  0.6305  0.5076 -0.2538
 5469TIP3    H216369   1.503   4.250   5.336 -0.4613  2.1559 -0.8471
 5470TIP3   OH216370   7.355   2.402   2.729  0.0689 -0.0182  0.0633
 5470TIP3    H116371   7.287   2.417   2.664 -0.7887  2.5479  1.4262
 5470TIP3    H216372   7.391   2.489   2.747  1.8314 -0.9457  1.4002
 5471TIP3   OH216373   2.168   5.674   3.198  0.3801  0.1748  0.3409
 5471TIP3    H116374   2.141   5.748   3.145  0.4409  0.8042  1.1651
 5471TIP3    H216375   2.209   5.613   3.136  0.8471  1.0862 -0.2572
 5472TIP3   OH216376   3.475   3.885   5.725  0.6744 -0.0822  0.3469
 5472TIP3    H116377   3.517   3.799   5.730  0.4510 -0.1777  0.5514
 5472TIP3    H216378   3.512   3.924   5.645  0.3414 -0.5922 -0.0626
 5473TIP3   OH216379   0.687   1.435   1.172 -0.7512  0.2636 -0.1877
 5473TIP3    H116380   0.677   1.412   1.079  1.3150  2.1963 -0.9731
 5473TIP3    H216381   0.745   1.511   1.172 -1.4410  0.9081  2.6646
 5474TIP3   OH216382   1.685   0.923   1.880 -0.1601  0.2821 -0.0369
 5474TIP3    H116383   1.604   0.889   1.841  0.8313  0.5842 -2.4828
 5474TIP3    H216384   1.755   0.886   1.827  1.1656  2.7543 -0.1438
 5475TIP3   OH216385   7.536   4.245   5.335  0.2153  0.6801 -0.3978
 5475TIP3    H116386   7.592   4.296   5.276  2.0679  1.2683  1.7267
 5475TIP3    H216387   7.580   4.160   5.341  0.1459  0.6855  0.2486
 5476TIP3   OH216388   3.225   3.834   2.401  0.1172  0.5012  0.6355
 5476TIP3    H116389   3.211   3.900   2.334 -1.5027  2.6929  2.9461
 5476TIP3    H216390   3.281   3.876   2.466  0.9969 -1.2515  1.0926
 5477TIP3   OH216391   1.308   0.761   1.160 -0.2363 -0.0831  0.2682
 5477TIP3    H116392   1.340   0.851   1.159 -0.4766  0.1030 -2.8356
 5477TIP3    H216393   1.304   0.737   1.067  0.7084 -3.6370  0.9970
 5478TIP3   OH216394   0.088   2.677   5.210  0.0129 -0.0614 -0.2093
 5478TIP3    H116395   0.139   2.642   5.283 -0.7926  0.9126  0.8799
 5478TIP3    H216396   0.141   2.750   5.178  0.5316 -0.7085 -0.8390
 5479TIP3   OH216397   0.511   0.815   2.458  0.3421  0.1822  0.1663
 5479TIP3    H116398   0.499   0.833   2.365  1.4127 -0.8649 -0.2098
 5479TIP3    H216399   0.430   0.845   2.499 -0.4156  0.0866 -1.1878
 5480TIP3   OH216400   5.134   7.178   2.133  0.4764 -0.0588  0.4055
 5480TIP3    H116401   5.145   7.087   2.105 -0.5678 -0.6006  1.6416
 5480TIP3    H216402   5.155   7.230   2.055  1.4776 -1.3268 -0.2059
 5481TIP3   OH216403   4.211   3.112   3.737  0.1118  0.4069 -0.1542
 5481TIP3    H116404   4.256   3.062   3.668  1.1576 -0.3104  1.0008
 5481TIP3    H216405   4.280   3.132   3.801  0.0265  4.3340 -1.0252
 5482TIP3   OH216406   5.627   1.190   0.902  0.1010  0.6225  0.4094
 5482TIP3    H116407   5.639   1.248   0.827 -1.0824 -1.0445 -1.1473
 5482TIP3    H216408   5.551   1.226   0.948 -0.8219  0.1807 -0.7258
 5483TIP3   OH216409   4.568   2.368   1.344  0.2082  0.0047  0.8388
 5483TIP3    H116410   4.570   2.338   1.435 -3.4152 -0.2776  0.9555
 5483TIP3    H216411   4.492   2.324   1.306  1.2713  0.5780 -2.1945
 5484TIP3   OH216412   0.699   0.396   4.115 -0.3686  0.1024  0.0490
 5484TIP3    H116413   0.737   0.361   4.195  1.6807 -1.4067 -1.4902
 5484TIP3    H216414   0.618   0.346   4.102 -1.4789  1.3206  1.8214
 5485TIP3   OH216415   4.857   0.812   0.414  0.3136 -0.6112  0.4503
 5485TIP3    H116416   4.846   0.779   0.503 -0.5218 -1.3843  0.0735
 5485TIP3    H216417   4.768   0.814   0.378  0.4379  1.1767  0.1347
 5486TIP3   OH216418   7.459   5.557   2.153  0.8648  0.6022  0.5491
 5486TIP3    H116419   7.531   5.505   2.189  1.8187 -0.9988 -3.1762
 5486TIP3    H216420   7.383   5.533   2.205  1.9780 -2.0123  1.1100
 5487TIP3   OH216421   2.892   3.702   0.606 -0.0516  0.1821  0.4278
 5487TIP3    H116422   2.968   3.755   0.582 -0.6316  0.3412 -1.1224
 5487TIP3    H216423   2.817   3.750   0.571 -0.6078 -1.6056 -0.9562
 5488TIP3   OH216424   2.874   0.836   5.935 -0.1827 -0.0508  0.7840
 5488TIP3    H116425   2.937   0.822   6.007 -0.0700 -1.1823  0.4762
 5488TIP3    H216426   2.886   0.760   5.878  0.8611  1.5730 -1.2984
 5489TIP3   OH216427   0.414   6.343   5.811  0.0389 -0.1802 -0.7621
 5489TIP3    H116428   0.411   6.250   5.790 -2.1967 -0.3724  0.0484
 5489TIP3    H216429   0.437   6.386   5.729  1.7585 -1.4579 -0.9944
 5490TIP3   OH216430   7.018   5.889   0.947  0.3470  0.3321 -0.2280
 5490TIP3    H116431   6.952   5.957   0.950 -0.3011 -0.2988  2.6296
 5490TIP3    H216432   7.015   5.848   1.033  2.5927 -1.5308 -0.9141
 5491TIP3   OH216433   6.400   4.199   5.857 -0.3360 -0.4277 -0.1784
 5491TIP3    H116434   6.492   4.216   5.837  0.8295 -3.6721  1.7312
 5491TIP3    H216435   6.376   4.269   5.918  1.3522 -0.2991  0.4026
 5492TIP3   OH216436   6.852   0.348   0.087  0.2056  0.3872  0.2913
 5492TIP3    H116437   6.890   0.413   0.147 -0.4025  0.0780  1.0336
 5492TIP3    H216438   6.892   0.265   0.114  0.9237  0.4230 -0.6051
 5493TIP3   OH216439   7.497   1.475   2.935 -0.2870 -0.8209 -0.3142
 5493TIP3    H116440   7.549   1.427   2.999 -1.2503 -0.7468  0.5460
 5493TIP3    H216441   7.538   1.562   2.932  0.5941 -1.2364 -0.8298
 5494TIP3   OH216442   1.612   3.676   5.633  0.3224  0.2321  0.0164
 5494TIP3    H116443   1.656   3.647   5.712 -0.6190 -0.8326  0.1703
 5494TIP3    H216444   1.648   3.764   5.617  0.9139  0.2538  1.3078
 5495TIP3   OH216445   1.004   3.381   3.376 -0.1218  0.3880  0.0216
 5495TIP3    H116446   1.052   3.463   3.370  0.0733  0.2208 -0.7616
 5495TIP3    H216447   1.030   3.343   3.460  0.3384  0.7764  0.0521
 5496TIP3   OH216448   3.717   2.302   5.860  0.3427 -0.1252 -0.1900
 5496TIP3    H116449   3.720   2.385   5.812  0.2204  0.2628  0.4557
 5496TIP3    H216450   3.674   2.324   5.943  1.1872 -0.6186  0.3976
 5497TIP3   OH216451   4.904   2.494   0.668 -0.4827 -0.1207  0.1899
 5497TIP3    H116452   4.986   2.480   0.621  0.5820  0.7780  1.6966
 5497TIP3    H216453   4.873   2.579   0.638  0.5068  0.7325  1.4617
 5498TIP3   OH216454   1.600   6.150   5.442  0.3617 -0.1669 -0.1021
 5498TIP3    H116455   1.604   6.055   5.427 -1.6494 -0.3213  0.1073
 5498TIP3    H216456   1.639   6.161   5.529  1.6400 -0.6289 -0.5828
 5499TIP3   OH216457   4.111   4.315   4.719  0.3497 -0.3932 -0.7664
 5499TIP3    H116458   4.156   4.283   4.796 -0.0069  0.8776  0.0087
 5499TIP3    H216459   4.064   4.239   4.684  0.4876 -0.9703  0.2804
 5500TIP3   OH216460   5.701   3.269   5.341 -0.1758 -0.0436  0.1044
 5500TIP3    H116461   5.705   3.175   5.324  1.7077  0.0897 -0.3408
 5500TIP3    H216462   5.736   3.279   5.430 -1.2557  0.1724  0.5261
 5501TIP3   OH216463   5.529   3.987   0.949 -0.3998 -0.2842  0.0477
 5501TIP3    H116464   5.608   4.007   1.000  0.2898 -1.0749 -0.6772
 5501TIP3    H216465   5.497   3.905   0.985  0.5593 -1.2842 -1.2768
 5502TIP3   OH216466   1.998   6.548   5.117  0.2396 -0.7026 -0.1781
 5502TIP3    H116467   2.093   6.551   5.129  0.0157 -0.7617  1.9563
 5502TIP3    H216468   1.986   6.530   5.023  2.3291 -1.2500 -0.3836
 5503TIP3   OH216469   6.787   0.479   2.921 -0.1505 -0.6382 -0.1816
 5503TIP3    H116470   6.783   0.573   2.936 -0.4547 -0.6585 -0.1244
 5503TIP3    H216471   6.695   0.451   2.921 -0.0484 -0.9692  0.0194
 5504TIP3   OH216472   1.449   2.034   4.617  0.0902 -0.3893 -0.1779
 5504TIP3    H116473   1.527   2.083   4.591 -1.2229  1.7119 -0.3352
 5504TIP3    H216474   1.483   1.965   4.675  1.8648  1.8439  1.6393
 5505TIP3   OH216475   3.408   1.860   3.091  0.7797 -0.1570 -0.2389
 5505TIP3    H116476   3.331   1.804   3.082  1.1613 -0.5665 -1.0278
 5505TIP3    H216477   3.372   1.946   3.113  0.2110 -0.8152  1.6465
 5506TIP3   OH216478   6.020   2.128   0.610  0.5204 -0.4004  0.2077
 5506TIP3    H116479   6.014   2.110   0.704  0.6401  1.0353  0.5206
 5506TIP3    H216480   5.929   2.122   0.579  0.4008 -0.3230  0.5344
 5507TIP3   OH216481   2.356   4.893   4.930  0.4232  0.1312  0.0461
 5507TIP3    H116482   2.383   4.829   4.864  0.7080  0.5612 -0.2606
 5507TIP3    H216483   2.289   4.847   4.982 -0.9610  0.3043 -1.5052
 5508TIP3   OH216484   0.493   4.600   2.757 -0.0908  0.4854 -0.5209
 5508TIP3    H116485   0.563   4.584   2.821 -0.8740  1.6021  0.6782
 5508TIP3    H216486   0.426   4.535   2.777  1.1496 -1.5955 -2.6561
 5509TIP3   OH216487   0.653   3.787   4.133 -0.2684 -0.0262 -0.0946
 5509TIP3    H116488   0.675   3.877   4.157  1.4728 -0.5223  0.3646
 5509TIP3    H216489   0.568   3.793   4.091 -0.1250  1.8514 -0.1977
 5510TIP3   OH216490   0.538   1.341   3.989  0.0865  0.5003 -0.1724
 5510TIP3    H116491   0.559   1.348   4.082  0.3922  0.4566 -0.2382
 5510TIP3    H216492   0.442   1.346   3.986 -0.1497 -2.1674  0.4013
 5511TIP3   OH216493   0.255   7.065   5.715  0.2825 -0.1095  1.0459
 5511TIP3    H116494   0.241   6.976   5.747 -1.6207  0.3409  1.5925
 5511TIP3    H216495   0.276   7.054   5.622  0.8938 -1.1467  1.2866
 5512TIP3   OH216496   5.664   0.346   4.916 -0.3219 -0.8692  0.5128
 5512TIP3    H116497   5.592   0.283   4.916 -0.1191 -1.1037  0.2118
 5512TIP3    H216498   5.743   0.292   4.911 -0.0938 -0.6467  1.4610
 5513TIP3   OH216499   5.568   4.340   1.571  0.1634 -0.1928 -0.4614
 5513TIP3    H116500   5.530   4.428   1.583  2.8906  0.9345  0.6391
 5513TIP3    H216501   5.558   4.298   1.656  1.4675  0.1985 -0.0905
 5514TIP3   OH216502   3.999   0.265   4.402  0.1405 -0.4900 -0.6521
 5514TIP3    H116503   3.908   0.271   4.375 -0.0509  1.6875  0.2747
 5514TIP3    H216504   4.049   0.262   4.320 -0.7211 -1.0044 -1.1667
 5515TIP3   OH216505   3.061   1.962   3.557 -0.2205 -0.1932 -0.3521
 5515TIP3    H116506   3.143   1.981   3.604 -1.0987  0.4609  0.9738
 5515TIP3    H216507   3.023   2.048   3.541 -0.4371 -0.4725 -1.3937
 5516TIP3   OH216508   6.398   6.187   1.759 -0.6404 -0.0420 -0.3873
 5516TIP3    H116509   6.324   6.147   1.804 -0.4534 -1.3870 -1.2076
 5516TIP3    H216510   6.360   6.258   1.707 -1.0947  0.3816  0.5113
 5517TIP3   OH216511   6.575   7.137   4.402  0.0424 -0.5268 -0.0758
 5517TIP3    H116512   6.664   7.123   4.436  1.0992  0.7147 -2.1360
 5517TIP3    H216513   6.518   7.123   4.478  1.8747 -2.5041  1.0614
 5518TIP3   OH216514   6.525   5.617   2.836 -0.3378  0.5547  0.6935
 5518TIP3    H116515   6.470   5.541   2.823  1.7326 -0.9886  0.3933
 5518TIP3    H216516   6.544   5.618   2.930 -0.8898  1.1234  0.8082
 5519TIP3   OH216517   0.522   0.990   2.753  0.1246  0.6046  0.0400
 5519TIP3    H116518   0.490   0.911   2.795  0.0051  0.1968 -0.8034
 5519TIP3    H216519   0.603   0.964   2.710  0.0669  0.9266 -0.2707
 5520TIP3   OH216520   4.554   6.416   5.935  0.6676 -0.3498 -0.0828
 5520TIP3    H116521   4.577   6.326   5.958  0.0762 -0.1072  1.6509
 5520TIP3    H216522   4.624   6.469   5.973  0.7573 -0.0458 -0.6653
 5521TIP3   OH216523   2.391   3.220   4.359 -0.1036  0.2305 -0.5928
 5521TIP3    H116524   2.388   3.296   4.301  0.0659  1.9155  1.4810
 5521TIP3    H216525   2.362   3.253   4.444 -3.0816 -2.7147 -0.2379
 5522TIP3   OH216526   1.393   4.747   3.727  0.6288  0.5194  1.0225
 5522TIP3    H116527   1.482   4.774   3.751  1.1178 -0.8460  0.8501
 5522TIP3    H216528   1.406   4.670   3.671 -0.6324  0.9703  0.0764
 5523TIP3   OH216529   4.341   6.790   4.144 -0.3481  0.4010 -0.1356
 5523TIP3    H116530   4.372   6.871   4.104 -1.2660  1.0763  0.4880
 5523TIP3    H216531   4.392   6.781   4.224 -0.5297  0.5768 -0.0003
 5524TIP3   OH216532   7.548   6.740   4.432 -0.3080 -0.1580  0.5793
 5524TIP3    H116533   7.474   6.786   4.392  1.0752  2.4207  0.8112
 5524TIP3    H216534   7.537   6.755   4.526  0.9923  1.1141  0.5595
 5525TIP3   OH216535   6.166   0.103   0.933 -0.1101  0.4158  0.3422
 5525TIP3    H116536   6.091   0.162   0.938  0.6171  1.8338 -2.9751
 5525TIP3    H216537   6.239   0.159   0.907  1.2682 -1.5308 -0.2239
 5526TIP3   OH216538   1.870   2.888   3.830  0.0805  0.0419  0.1011
 5526TIP3    H116539   1.833   2.803   3.853  0.2285 -0.6743 -2.0371
 5526TIP3    H216540   1.861   2.941   3.909 -0.3789 -1.8298  1.3585
 5527TIP3   OH216541   6.050   4.912   0.786  0.1161  0.7527  0.0128
 5527TIP3    H116542   6.019   5.002   0.775 -0.4919  0.6073  0.4336
 5527TIP3    H216543   6.140   4.921   0.817  0.3243  1.2018 -0.6988
 5528TIP3   OH216544   0.758   0.039   5.091 -0.5679  0.0285  0.2002
 5528TIP3    H116545   0.778   0.084   5.173  0.5752 -1.4052  0.7451
 5528TIP3    H216546   0.717  -0.044   5.118  1.4384 -1.2798 -0.5426
 5529TIP3   OH216547   1.449   4.901   2.266  0.1519  0.1063 -0.0140
 5529TIP3    H116548   1.498   4.825   2.298  0.2877  0.4209  0.5419
 5529TIP3    H216549   1.443   4.888   2.171  0.0804 -0.6501  0.0926
 5530TIP3   OH216550   0.883   7.043   2.308 -0.3670  0.7744 -0.0733
 5530TIP3    H116551   0.945   7.104   2.347 -0.4084  0.9670 -0.3032
 5530TIP3    H216552   0.798   7.069   2.343 -0.3490  0.6766  0.0405
 5531TIP3   OH216553   5.085   4.454   1.365 -0.4466 -0.2486  0.0430
 5531TIP3    H116554   5.022   4.524   1.379  1.0161  1.2250 -0.4049
 5531TIP3    H216555   5.045   4.398   1.298 -0.8480  1.2576 -1.0266
 5532TIP3   OH216556   1.404   1.872   0.424  0.5253  0.6245  0.2578
 5532TIP3    H116557   1.340   1.877   0.353  2.6798 -3.7498 -2.3651
 5532TIP3    H216558   1.451   1.956   0.420 -1.9943  2.1025 -0.6573
 5533TIP3   OH216559   2.121   4.310   1.724 -0.0015  0.0236 -0.1558
 5533TIP3    H116560   2.207   4.346   1.745  0.8276 -1.1252 -1.4312
 5533TIP3    H216561   2.137   4.217   1.709 -1.6031 -0.3558  0.3116
 5534TIP3   OH216562   2.804   1.715   5.956  0.5973 -0.9406 -0.6396
 5534TIP3    H116563   2.777   1.708   5.864 -1.0030  0.4085 -0.3225
 5534TIP3    H216564   2.794   1.627   5.991 -2.6931 -0.7314 -0.7939
 5535TIP3   OH216565   4.384   3.658   5.686  0.1142 -0.0112  0.3896
 5535TIP3    H116566   4.386   3.571   5.647  2.2522 -0.5796  1.5717
 5535TIP3    H216567   4.294   3.688   5.676 -0.5458 -2.1380 -0.4936
 5536TIP3   OH216568   6.486   5.651   4.952 -0.5626 -0.2728 -0.5956
 5536TIP3    H116569   6.486   5.560   4.982  1.0813 -0.3184 -0.6327
 5536TIP3    H216570   6.540   5.697   5.017 -0.0753  0.3586 -1.4371
 5537TIP3   OH216571   0.792   3.900   3.106 -0.1158  0.6129  0.0870
 5537TIP3    H116572   0.760   3.987   3.130 -1.0821  0.2596  0.1608
 5537TIP3    H216573   0.751   3.841   3.170  1.2931  0.2006  0.6370
 5538TIP3   OH216574   3.995   0.105   2.406 -0.0610  0.0894 -0.1644
 5538TIP3    H116575   3.993   0.176   2.470 -0.1847 -0.2416  0.2038
 5538TIP3    H216576   3.964   0.145   2.325  1.2557  0.8327 -0.3482
 5539TIP3   OH216577   1.220   4.950   4.366 -0.1841  0.6660 -0.0099
 5539TIP3    H116578   1.238   4.922   4.276  1.9432  0.3593  0.4605
 5539TIP3    H216579   1.193   5.041   4.357  0.8098  0.8990 -0.9268
 5540TIP3   OH216580   2.492   0.819   6.197 -0.2046 -0.1321 -0.6324
 5540TIP3    H116581   2.549   0.751   6.233 -1.0287 -0.9346 -0.8046
 5540TIP3    H216582   2.524   0.831   6.107  1.7171  1.7221  0.2299
 5541TIP3   OH216583   2.699   2.139   0.384  0.5577 -0.2289 -0.7092
 5541TIP3    H116584   2.641   2.211   0.410  0.3618  0.0516 -1.8933
 5541TIP3    H216585   2.787   2.175   0.390  0.4458  0.1952 -1.5415
 5542TIP3   OH216586   4.682   3.901   5.455  0.0373 -0.3329 -0.2385
 5542TIP3    H116587   4.632   3.916   5.535 -0.6440 -3.1480 -0.0236
 5542TIP3    H216588   4.754   3.844   5.482 -0.1147 -1.1923 -1.5509
 5543TIP3   OH216589   5.249   2.893   1.323 -0.6877 -0.2824 -0.1632
 5543TIP3    H116590   5.338   2.896   1.289 -0.1312 -0.3914  1.2288
 5543TIP3    H216591   5.208   2.819   1.278  0.4047 -1.1790  0.2598
 5544TIP3   OH216592   5.206   6.508   5.675  0.0921  0.2505  0.3101
 5544TIP3    H116593   5.268   6.456   5.623 -0.5375 -1.7863  1.4785
 5544TIP3    H216594   5.120   6.470   5.655 -0.3302  0.4591  1.6310
 5545TIP3   OH216595   2.803   0.458   4.850  0.1349  0.3170 -0.2620
 5545TIP3    H116596   2.733   0.492   4.906  1.3589 -0.0066  1.5255
 5545TIP3    H216597   2.776   0.368   4.831  0.3848 -0.0396  1.0054
 5546TIP3   OH216598   6.098   6.420   4.700 -0.3406  0.2428 -0.1044
 5546TIP3    H116599   6.052   6.447   4.780  0.0240 -0.0522  0.2056
 5546TIP3    H216600   6.034   6.367   4.653  0.2282 -1.6164  1.1436
 5547TIP3   OH216601   7.272   2.913   3.172  0.1564 -0.1837  0.1835
 5547TIP3    H116602   7.328   2.928   3.096 -0.4687  0.6869 -0.1128
 5547TIP3    H216603   7.333   2.884   3.241  0.9018  0.2424 -0.2831
 5548TIP3   OH216604   5.723   5.258   2.163  0.0440 -0.3559  0.0365
 5548TIP3    H116605   5.806   5.277   2.207 -1.3289 -1.6670  3.5556
 5548TIP3    H216606   5.657   5.303   2.216 -1.7178 -1.0994 -1.4227
 5549TIP3   OH216607   1.475   1.623   4.403 -0.3716  0.2187  0.4189
 5549TIP3    H116608   1.443   1.543   4.360 -3.0929  1.4077  0.0467
 5549TIP3    H216609   1.475   1.689   4.334  1.4023  0.7065  0.8347
 5550TIP3   OH216610   4.923   0.983   1.331 -0.4483  0.2478 -0.1995
 5550TIP3    H116611   4.836   0.953   1.308  0.3290 -0.4900 -2.4590
 5550TIP3    H216612   4.943   0.939   1.413 -2.1193  0.3374  0.2891
 5551TIP3   OH216613   6.335   4.770   4.761 -0.6103  0.2689  0.2878
 5551TIP3    H116614   6.410   4.830   4.766 -0.6945  0.2849  1.9836
 5551TIP3    H216615   6.311   4.770   4.669  1.7048 -0.0340 -0.3912
 5552TIP3   OH216616   6.441   1.469   3.757 -0.2254 -0.5183  0.1855
 5552TIP3    H116617   6.537   1.462   3.760 -0.2636 -0.6359  1.7319
 5552TIP3    H216618   6.414   1.472   3.848 -1.5966  1.2076 -0.2147
 5553TIP3   OH216619   7.160   3.791   4.887 -0.1256 -0.1367  0.0125
 5553TIP3    H116620   7.171   3.882   4.860  0.2614  0.2355  1.3683
 5553TIP3    H216621   7.187   3.789   4.979 -0.4823 -1.5469  0.1157
 5554TIP3   OH216622   0.495   1.947   0.283 -0.3087 -0.3234 -0.1358
 5554TIP3    H116623   0.563   1.898   0.236  0.2362 -0.3963  0.7011
 5554TIP3    H216624   0.535   2.033   0.300 -1.3744  0.5922 -1.8932
 5555TIP3   OH216625   0.297   3.895   2.007  0.0901 -0.0436  0.1001
 5555TIP3    H116626   0.279   3.958   2.077 -0.7476 -0.3423  0.1661
 5555TIP3    H216627   0.266   3.811   2.041 -2.9892  0.2584 -1.6307
 5556TIP3   OH216628   3.999   3.823   2.057  0.3389 -0.1749  0.4142
 5556TIP3    H116629   4.010   3.831   2.152 -1.7484  3.0082  0.5277
 5556TIP3    H216630   3.917   3.774   2.047 -0.7644  1.6173  0.3784
 5557TIP3   OH216631   1.369   3.138   0.728  0.5949  0.1180  0.6229
 5557TIP3    H116632   1.328   3.160   0.644  2.3468  0.4811 -0.1995
 5557TIP3    H216633   1.413   3.054   0.711  2.3511  0.9888  0.6185
 5558TIP3   OH216634   3.943   1.487   5.316  0.1081  0.2419 -0.1657
 5558TIP3    H116635   3.872   1.456   5.372  1.1885 -0.8061  0.6705
 5558TIP3    H216636   3.978   1.564   5.362  0.1847  0.1418 -0.0585
 5559TIP3   OH216637   2.852   2.400   4.052 -0.1024  0.2005 -0.8169
 5559TIP3    H116638   2.818   2.433   3.969 -0.2939  1.0932 -0.3936
 5559TIP3    H216639   2.836   2.471   4.115 -0.7928 -0.8065  0.1941
 5560TIP3   OH216640   5.007   1.493   1.906  0.1733 -0.6550 -0.9263
 5560TIP3    H116641   4.929   1.547   1.920  0.6113  0.1112 -1.3788
 5560TIP3    H216642   4.974   1.412   1.867 -0.3191 -0.0028 -1.9063
 5561TIP3   OH216643   3.407   2.264   1.653  0.0250 -0.3233 -0.2557
 5561TIP3    H116644   3.469   2.223   1.713  0.4137  1.0111  0.2984
 5561TIP3    H216645   3.387   2.196   1.589  0.7241 -1.3231  0.5472
 5562TIP3   OH216646   6.527   6.931   2.806 -0.3545  0.3303  0.3561
 5562TIP3    H116647   6.501   6.877   2.731  0.1588  0.7903 -0.1562
 5562TIP3    H216648   6.611   6.970   2.780  1.1936 -1.5175  2.1412
 5563TIP3   OH216649   5.841   1.515   4.308 -0.0646 -0.3973 -0.8398
 5563TIP3    H116650   5.895   1.550   4.237  1.6152 -0.7103  0.2328
 5563TIP3    H216651   5.867   1.565   4.385 -0.6210 -1.2314 -0.0941
 5564TIP3   OH216652   0.942   0.489   2.290 -0.5318  0.2160 -0.1932
 5564TIP3    H116653   1.037   0.503   2.280 -0.5340  0.6429  0.3330
 5564TIP3    H216654   0.904   0.576   2.273 -0.7588  0.2515  0.4737
 5565TIP3   OH216655   2.096   1.959   3.361  0.2455  0.7723  0.0957
 5565TIP3    H116656   2.053   1.884   3.319  2.2241 -0.8560  0.8356
 5565TIP3    H216657   2.028   1.996   3.418 -0.7572 -0.4879 -0.2319
 5566TIP3   OH216658   0.366   6.074   5.750 -0.3011 -0.1221 -0.2692
 5566TIP3    H116659   0.433   6.006   5.751  0.2706  0.4294 -0.5864
 5566TIP3    H216660   0.301   6.045   5.814 -0.7290 -1.6198 -1.3496
 5567TIP3   OH216661   6.147   1.035   0.112 -0.1069 -0.1852 -0.4236
 5567TIP3    H116662   6.084   0.983   0.062  0.9988 -1.9354 -0.1101
 5567TIP3    H216663   6.132   1.010   0.204  0.5429 -0.0944 -0.2814
 5568TIP3   OH216664   1.130   6.519   1.223 -0.5029 -0.0014 -0.4509
 5568TIP3    H116665   1.094   6.440   1.263 -0.5568  0.2276 -0.0399
 5568TIP3    H216666   1.215   6.492   1.188  0.9743  0.4346  2.4323
 5569TIP3   OH216667   5.694   1.662   2.061 -0.6059 -0.3483  0.4555
 5569TIP3    H116668   5.611   1.616   2.048  0.1613 -1.5351 -0.5491
 5569TIP3    H216669   5.732   1.668   1.973  1.0610 -1.2306  1.0670
 5570TIP3   OH216670   5.717   0.089   2.038 -0.0901  0.1229 -0.6005
 5570TIP3    H116671   5.799   0.081   2.088 -1.7561 -3.3566  1.9879
 5570TIP3    H216672   5.664   0.150   2.089 -1.0610 -1.9173  0.9457
 5571TIP3   OH216673   7.524   5.623   1.669  1.0337  0.3493  0.2005
 5571TIP3    H116674   7.466   5.691   1.635 -0.2510 -1.2693 -0.9902
 5571TIP3    H216675   7.576   5.596   1.594 -0.4820 -1.9196 -0.1171
 5572TIP3   OH216676   4.837   2.308   3.294  0.0091 -0.2236 -0.1755
 5572TIP3    H116677   4.863   2.400   3.294 -1.4114  0.2029 -0.5515
 5572TIP3    H216678   4.796   2.295   3.208  1.5575 -1.6364 -0.7641
 5573TIP3   OH216679   5.567   0.187   6.090  0.3152 -0.3608 -0.2873
 5573TIP3    H116680   5.645   0.165   6.142  0.3208  0.5227  0.0961
 5573TIP3    H216681   5.556   0.281   6.103 -0.2031 -0.2883 -1.1937
 5574TIP3   OH216682   4.267   2.757   0.777 -0.2683 -0.4907 -0.0108
 5574TIP3    H116683   4.244   2.744   0.685  0.1875 -1.7243  0.0389
 5574TIP3    H216684   4.248   2.674   0.819  0.3247 -0.2076  0.8473
 5575TIP3   OH216685   3.046   1.628   5.862  0.5764 -0.1046  0.2396
 5575TIP3    H116686   3.079   1.547   5.901 -0.7237 -1.3570 -1.1626
 5575TIP3    H216687   2.961   1.641   5.903  0.2212 -0.1644 -0.4674
 5576TIP3   OH216688   5.268   2.571   0.468 -0.3782 -0.3142  0.6716
 5576TIP3    H116689   5.352   2.580   0.513 -0.2846 -0.0113  0.4414
 5576TIP3    H216690   5.290   2.577   0.375 -1.0780  4.5791  0.5338
 5577TIP3   OH216691   3.804   5.211   3.984  0.8011 -0.0503  0.3460
 5577TIP3    H116692   3.898   5.199   3.989  0.6661 -0.6122  1.9958
 5577TIP3    H216693   3.772   5.192   4.072 -0.9113 -0.4056 -0.3057
 5578TIP3   OH216694   2.528   0.942   1.255  0.3828  0.0197  0.0911
 5578TIP3    H116695   2.435   0.950   1.233  0.8610  2.5560 -1.4571
 5578TIP3    H216696   2.566   0.895   1.181  0.5566  0.3149 -0.0093
 5579TIP3   OH216697   7.440   3.500   1.559  0.0281  0.9264 -0.3528
 5579TIP3    H116698   7.404   3.474   1.474 -0.3018  3.3220 -1.0184
 5579TIP3    H216699   7.525   3.538   1.539  1.4107 -1.2946  0.8151
 5580TIP3   OH216700   2.338   5.802   1.832  0.4385  0.3608 -0.0914
 5580TIP3    H116701   2.423   5.769   1.861  0.7692  0.1593 -1.2390
 5580TIP3    H216702   2.275   5.763   1.894  1.2025  0.8565  1.0326
 5581TIP3   OH216703   6.450   5.344   4.605  0.4185 -0.1152 -0.7908
 5581TIP3    H116704   6.401   5.340   4.688  1.5420 -0.7610 -0.1381
 5581TIP3    H216705   6.542   5.337   4.631  0.7571 -1.0807 -2.1432
 5582TIP3   OH216706   4.606   4.689   0.890  0.3135  0.0159  0.1483
 5582TIP3    H116707   4.676   4.743   0.853 -0.2540  1.9396  1.7098
 5582TIP3    H216708   4.526   4.732   0.863 -0.2159 -0.8330  0.3285
 5583TIP3   OH216709   3.349   0.443   0.102  0.2039 -0.0758 -0.3346
 5583TIP3    H116710   3.413   0.413   0.038 -0.0552  2.8606 -2.1588
 5583TIP3    H216711   3.265   0.435   0.058 -0.1009  0.9955  0.0285
 5584TIP3   OH216712   6.144   2.509   2.736  1.0608 -0.1073  1.0608
 5584TIP3    H116713   6.085   2.538   2.667  1.5761 -1.2534  0.0971
 5584TIP3    H216714   6.228   2.550   2.714  1.3195 -0.7739  0.7697
 5585TIP3   OH216715   4.817   3.505   1.120  0.0145  0.0174  0.0092
 5585TIP3    H116716   4.808   3.508   1.025 -1.3565 -1.5733  0.0568
 5585TIP3    H216717   4.889   3.566   1.139 -0.0934  0.8242 -1.9697
 5586TIP3   OH216718   6.675   5.994   3.458  0.2671 -0.4145 -0.1505
 5586TIP3    H116719   6.655   5.968   3.548  2.3463 -0.9984  0.1907
 5586TIP3    H216720   6.769   5.977   3.448  0.4461  1.2718 -1.8850
 5587TIP3   OH216721   3.985   1.702   5.487  0.1025  0.0665  0.0565
 5587TIP3    H116722   4.036   1.759   5.430 -0.7666  1.3854  0.5660
 5587TIP3    H216723   4.006   1.731   5.576 -0.8101  0.0191  0.2991
 5588TIP3   OH216724   4.526   5.693   3.772  0.7796 -0.1148 -0.5568
 5588TIP3    H116725   4.442   5.727   3.803  1.7325 -0.0905  2.2539
 5588TIP3    H216726   4.507   5.659   3.684 -2.1506 -0.1108 -0.0264
 5589TIP3   OH216727   1.947   1.722   3.499  0.5746  0.2401  0.5008
 5589TIP3    H116728   1.892   1.653   3.463 -0.5311  0.6547  1.3433
 5589TIP3    H216729   1.972   1.691   3.586  1.8302 -0.0183  0.0618
 5590TIP3   OH216730   3.012   2.447   2.710  0.1709 -0.4410 -0.4892
 5590TIP3    H116731   2.975   2.361   2.690  0.6087 -0.6393 -0.4412
 5590TIP3    H216732   3.103   2.442   2.680  0.1485  0.0652 -0.6543
 5591TIP3   OH216733   2.504   5.136   4.906  0.2658 -0.2191  0.3441
 5591TIP3    H116734   2.453   5.057   4.924 -1.1737  0.5627 -0.0638
 5591TIP3    H216735   2.534   5.125   4.816 -1.0417  0.2398 -0.1708
 5592TIP3   OH216736   0.213   4.674   4.246  0.3701 -0.5324 -0.2732
 5592TIP3    H116737   0.170   4.746   4.293 -0.0703 -0.3382 -0.9507
 5592TIP3    H216738   0.209   4.600   4.306  0.7337 -0.0193  0.3907
 5593TIP3   OH216739   6.059   0.447   2.100  0.1499 -0.0454 -0.2228
 5593TIP3    H116740   6.020   0.392   2.031  0.9675 -0.1166 -0.6321
 5593TIP3    H216741   6.150   0.418   2.105 -0.2811 -1.1754  2.0219
 5594TIP3   OH216742   4.046   3.936   4.009  0.4285 -0.2090 -0.1189
 5594TIP3    H116743   3.982   3.890   3.955  1.2233  0.7106 -1.9348
 5594TIP3    H216744   3.994   3.996   4.063 -0.3734 -1.0228  0.0255
 5595TIP3   OH216745   0.139   5.827   0.571 -0.1472 -0.4601 -0.3209
 5595TIP3    H116746   0.076   5.885   0.528 -0.2035 -0.8773 -0.8084
 5595TIP3    H216747   0.212   5.884   0.595 -0.5613 -0.0385 -0.0605
 5596TIP3   OH216748   2.183   4.755   0.365 -0.0675  0.7806 -0.3133
 5596TIP3    H116749   2.161   4.819   0.432  1.4479 -0.0786  1.0791
 5596TIP3    H216750   2.154   4.672   0.401 -0.1608  0.4283 -1.1862
 5597TIP3   OH216751   4.080   2.725   4.096  0.6159  0.0791  0.4595
 5597TIP3    H116752   4.127   2.802   4.127  1.4611 -0.5327  0.7643
 5597TIP3    H216753   4.092   2.726   4.001  0.9101  0.1403  0.4971
 5598TIP3   OH216754   5.988   1.930   5.482 -0.2091 -0.0822  0.3462
 5598TIP3    H116755   6.013   1.937   5.574  0.6508 -0.2728  0.1333
 5598TIP3    H216756   5.970   1.837   5.469  0.1484 -0.1317  0.2015
 5599TIP3   OH216757   2.867   4.126   0.576  0.1958 -0.2622 -0.1228
 5599TIP3    H116758   2.892   4.066   0.646  0.4862 -0.1169 -0.0975
 5599TIP3    H216759   2.919   4.204   0.593  0.1535 -0.1716 -0.4145
 5600TIP3   OH216760   7.478   3.322   2.846  0.6087  0.3967  0.0200
 5600TIP3    H116761   7.448   3.266   2.917  1.3283  0.7601  0.6301
 5600TIP3    H216762   7.505   3.403   2.890 -0.3116  1.1847 -0.8310
 5601TIP3   OH216763   3.341   3.533   0.235  0.6834  0.1714 -0.0452
 5601TIP3    H116764   3.313   3.537   0.327 -1.1995 -0.5829 -0.5238
 5601TIP3    H216765   3.329   3.441   0.211 -0.2055  0.6150 -1.4146
 5602TIP3   OH216766   1.445   5.005   4.595  0.3149  0.0654 -0.0430
 5602TIP3    H116767   1.488   4.956   4.665  2.6531 -0.3942 -1.6911
 5602TIP3    H216768   1.402   4.939   4.542 -1.7809  0.4463  1.0719
 5603TIP3   OH216769   2.812   6.858   2.668  0.2680  0.3749  0.5427
 5603TIP3    H116770   2.850   6.796   2.606 -0.7320 -1.1501  1.4189
 5603TIP3    H216771   2.881   6.924   2.680  0.8477  0.1665 -1.4068
 5604TIP3   OH216772   0.791   0.489   4.451 -0.3509 -0.0499 -0.5135
 5604TIP3    H116773   0.844   0.411   4.436  0.6918  0.9199 -2.3780
 5604TIP3    H216774   0.826   0.526   4.532  1.5020  0.2358 -1.3776
 5605TIP3   OH216775   6.664   5.469   2.616 -0.1317  0.4155 -0.6650
 5605TIP3    H116776   6.669   5.522   2.695  0.9720  1.3397 -1.3250
 5605TIP3    H216777   6.616   5.523   2.553  1.1916  0.7461 -1.4141
 5606TIP3   OH216778   1.156   4.393   0.710 -0.0161 -0.8264  0.2458
 5606TIP3    H116779   1.130   4.417   0.800 -0.3534 -0.9428  0.1825
 5606TIP3    H216780   1.239   4.437   0.697 -0.9101  0.8595 -0.0898
 5607TIP3   OH216781   0.632   5.247   1.085  0.3097  0.0687  0.1513
 5607TIP3    H116782   0.584   5.166   1.098 -1.7470  1.2343  0.2013
 5607TIP3    H216783   0.617   5.269   0.993  1.7368 -0.1280 -0.1464
 5608TIP3   OH216784   6.836   4.869   0.900  0.1766 -0.2082 -0.1417
 5608TIP3    H116785   6.763   4.930   0.897  0.1324 -0.1514  1.2098
 5608TIP3    H216786   6.861   4.856   0.809 -1.5424 -0.2676 -0.6451
 5609TIP3   OH216787   4.554   5.007   5.087  0.7822  0.2863 -0.5909
 5609TIP3    H116788   4.547   5.097   5.118 -1.9221 -0.7704  2.4379
 5609TIP3    H216789   4.483   4.998   5.024  0.7044  0.1630 -0.4872
 5610TIP3   OH216790   1.050   6.431   2.143  0.2216  0.2928  0.0206
 5610TIP3    H116791   1.108   6.507   2.134 -0.5536  0.9196  0.2467
 5610TIP3    H216792   0.971   6.466   2.185  0.9877 -1.1697  2.9858
 5611TIP3   OH216793   6.432   2.401   6.049  0.4124  0.2739 -0.0731
 5611TIP3    H116794   6.522   2.388   6.022  0.4211  0.8215 -0.3112
 5611TIP3    H216795   6.431   2.488   6.089 -0.1318  0.5290 -0.6248
 5612TIP3   OH216796   3.230   6.030   0.279  0.3949  0.2504  0.1379
 5612TIP3    H116797   3.239   6.061   0.369  0.8688  0.4656  0.0179
 5612TIP3    H216798   3.172   5.954   0.286  0.7212  0.0413  0.6776
 5613TIP3   OH216799   6.817   4.033   1.812 -0.3789 -0.2131 -0.0657
 5613TIP3    H116800   6.737   4.078   1.841 -0.0477  2.4341 -2.6922
 5613TIP3    H216801   6.801   4.015   1.720  1.6435 -0.6269 -0.3715
 5614TIP3   OH216802   4.702   5.749   5.961 -0.4207  0.4278 -0.6720
 5614TIP3    H116803   4.682   5.795   6.042  0.1269  0.5825 -0.6188
 5614TIP3    H216804   4.712   5.817   5.895 -0.7688  0.3084 -0.8504
 5615TIP3   OH216805   4.969   7.031   4.788 -0.2686  0.5980  0.5418
 5615TIP3    H116806   4.933   6.973   4.856  0.8991  1.2037  1.7098
 5615TIP3    H216807   4.923   7.005   4.709 -1.9622  0.1233  1.6215
 5616TIP3   OH216808   3.309   1.860   4.234  0.4002  0.4417 -1.3163
 5616TIP3    H116809   3.215   1.844   4.238  0.4417  0.2812  1.8867
 5616TIP3    H216810   3.331   1.894   4.321  3.1859  1.2738 -2.2390
 5617TIP3   OH216811   6.136   5.207   0.988  0.6751  0.3398 -0.3553
 5617TIP3    H116812   6.165   5.145   0.920 -1.4315  0.7488 -1.7270
 5617TIP3    H216813   6.187   5.183   1.065  1.3432 -1.8197 -1.3781
 5618TIP3   OH216814   7.187   2.268   5.406 -0.1869  0.4097 -0.1064
 5618TIP3    H116815   7.122   2.333   5.380 -0.7736 -0.1215  0.0031
 5618TIP3    H216816   7.137   2.200   5.451  0.5115  0.2288  0.4217
 5619TIP3   OH216817   5.261   4.868   2.699  0.0572  0.1655  0.0225
 5619TIP3    H116818   5.306   4.948   2.674  0.7652 -0.3600 -0.4325
 5619TIP3    H216819   5.322   4.823   2.757 -0.4235  0.0443  0.4508
 5620TIP3   OH216820   6.374   5.414   5.539 -0.8962 -0.1366 -0.0592
 5620TIP3    H116821   6.440   5.432   5.606 -0.5898 -1.0963 -0.0854
 5620TIP3    H216822   6.357   5.320   5.546 -1.0297 -0.2140 -1.1756
 5621TIP3   OH216823   6.641   6.588   6.181  0.8343 -0.1543 -0.3212
 5621TIP3    H116824   6.588   6.653   6.135 -0.8437 -1.3853 -0.2539
 5621TIP3    H216825   6.652   6.516   6.118 -0.0355 -1.1153  0.5686
 5622TIP3   OH216826   7.483   6.726   0.699  0.1322 -0.0648  0.4275
 5622TIP3    H116827   7.554   6.761   0.753  0.4997 -1.6615  1.0451
 5622TIP3    H216828   7.420   6.691   0.762 -0.0762 -0.7648 -0.1518
 5623TIP3   OH216829   5.702  -0.032   1.791 -0.1453 -0.6185  0.2904
 5623TIP3    H116830   5.738   0.000   1.874  2.1147 -0.3146 -0.7422
 5623TIP3    H216831   5.634   0.032   1.768  1.1883  0.9575  0.5206
 5624TIP3   OH216832   2.843   6.672   5.347 -0.0844  0.3551  0.0262
 5624TIP3    H116833   2.889   6.591   5.371 -1.4279 -0.1007  1.1730
 5624TIP3    H216834   2.772   6.679   5.410 -0.3462  2.1491 -0.4110
 5625TIP3   OH216835   5.003   1.997   6.168  0.6342  0.1772 -0.3689
 5625TIP3    H116836   5.067   1.929   6.148 -0.4087 -1.8889  2.5191
 5625TIP3    H216837   4.919   1.951   6.168 -0.9702  2.7203 -3.7383
 5626TIP3   OH216838   6.843   6.769   0.033 -0.2387  0.4207 -0.0998
 5626TIP3    H116839   6.816   6.746   0.122  1.2365 -0.0386  0.2606
 5626TIP3    H216840   6.935   6.742   0.028 -0.3182  0.3528 -1.7972
 5627TIP3   OH216841   7.215   7.059   5.599  0.7486 -0.5402  0.0214
 5627TIP3    H116842   7.176   7.137   5.638 -0.8305 -0.6821 -1.1576
 5627TIP3    H216843   7.309   7.071   5.609  0.4704  0.4628  1.8173
 5628TIP3   OH216844   6.826   0.967   4.290  0.3092  0.2015 -0.3029
 5628TIP3    H116845   6.766   1.020   4.342  0.6765  1.1314 -0.7977
 5628TIP3    H216846   6.872   0.913   4.353  1.5535  2.1092  0.5012
 5629TIP3   OH216847   5.980   2.093   5.272  0.1102 -0.3529 -0.1327
 5629TIP3    H116848   5.981   2.182   5.309  0.4966 -0.1682 -0.5750
 5629TIP3    H216849   5.994   2.036   5.347 -0.8319 -0.0842  0.2638
 5630TIP3   OH216850   6.285   3.036   2.696  0.0531  0.4666  0.5072
 5630TIP3    H116851   6.259   3.127   2.681  1.8192  0.6747 -1.7690
 5630TIP3    H216852   6.328   3.010   2.615 -0.9882 -2.6537  0.8267
 5631TIP3   OH216853   4.232   6.666   0.369  0.5265 -0.6682  0.0120
 5631TIP3    H116854   4.200   6.746   0.328 -0.9181 -2.0970 -1.8553
 5631TIP3    H216855   4.313   6.645   0.323 -0.3313 -1.4865 -1.1919
 5632TIP3   OH216856   5.320   3.327   2.004 -0.0552 -0.1962 -0.5381
 5632TIP3    H116857   5.338   3.338   2.097  0.1462 -0.7469 -0.5092
 5632TIP3    H216858   5.404   3.341   1.961 -0.6515  3.1424 -0.9461
 5633TIP3   OH216859   1.250   2.001   4.228  0.0239  0.0608 -0.1839
 5633TIP3    H116860   1.191   2.005   4.303  0.1400 -1.6973  0.0314
 5633TIP3    H216861   1.193   2.011   4.151 -0.1744  1.2019  0.0915
 5634TIP3   OH216862   6.875   0.508   6.063  0.4508 -0.2105  0.2867
 5634TIP3    H116863   6.790   0.499   6.019 -0.3817 -0.0576  1.8155
 5634TIP3    H216864   6.888   0.602   6.071  1.0983 -0.2157 -0.5096
 5635TIP3   OH216865   4.382   1.644   3.422 -0.1240 -0.4959 -0.2429
 5635TIP3    H116866   4.457   1.678   3.374 -0.7415  0.6482 -0.4454
 5635TIP3    H216867   4.392   1.679   3.511 -0.1676 -0.7319 -0.1444
 5636TIP3   OH216868   7.338   3.885   5.765  0.1203 -0.0944 -0.1348
 5636TIP3    H116869   7.246   3.906   5.783  0.2081  1.3816 -1.2289
 5636TIP3    H216870   7.351   3.798   5.804 -1.6472 -0.1965  0.3067
 5637TIP3   OH216871   4.524   6.665   0.939  0.4284 -0.1273  0.8973
 5637TIP3    H116872   4.598   6.703   0.892  0.9766 -0.4544  1.4864
 5637TIP3    H216873   4.467   6.740   0.958  0.3759  0.0564  0.0450
 5638TIP3   OH216874   5.005   6.206   5.369 -0.1595  0.2465  0.8978
 5638TIP3    H116875   4.988   6.264   5.295  2.7910 -1.0780 -0.9995
 5638TIP3    H216876   4.932   6.144   5.367 -0.0085  0.0629 -1.1625
 5639TIP3   OH216877   3.562   6.251   1.600  0.0079  0.1423 -0.0916
 5639TIP3    H116878   3.611   6.327   1.570 -0.7735  1.4752  1.8385
 5639TIP3    H216879   3.626   6.180   1.599  1.7407  1.5893  1.3327
 5640TIP3   OH216880   1.000   1.064   3.873  0.2195 -0.0667 -0.8370
 5640TIP3    H116881   0.976   0.972   3.866 -1.1576  0.2752 -0.9302
 5640TIP3    H216882   0.923   1.112   3.840  0.5133  1.1368  0.1433
 5641TIP3   OH216883   5.200   1.384   1.211 -0.2935 -0.1954  0.3696
 5641TIP3    H116884   5.151   1.303   1.205  0.3014 -0.8045  2.7480
 5641TIP3    H216885   5.291   1.357   1.222 -0.0316  0.8050  0.8132
 5642TIP3   OH216886   4.628   1.247   2.110 -0.5504 -0.2545  0.1182
 5642TIP3    H116887   4.600   1.337   2.124  2.7438  1.2831 -1.9655
 5642TIP3    H216888   4.579   1.217   2.034 -0.1174  0.5814 -0.4934
 5643TIP3   OH216889   2.278   1.794   5.817  0.0532 -0.2993  0.2714
 5643TIP3    H116890   2.245   1.874   5.776 -0.2476  0.2162  1.4821
 5643TIP3    H216891   2.373   1.799   5.806 -0.0817 -0.8142 -1.4771
 5644TIP3   OH216892   0.382   4.010   4.681 -0.3440  0.7328 -0.1346
 5644TIP3    H116893   0.381   3.963   4.765 -1.5195  0.3119 -0.3740
 5644TIP3    H216894   0.433   4.089   4.699  0.2645  0.1777  0.7096
 5645TIP3   OH216895   3.336   1.171   4.218 -0.4094 -0.0983  0.5937
 5645TIP3    H116896   3.241   1.186   4.214 -0.2157  1.4115  1.0676
 5645TIP3    H216897   3.366   1.191   4.129 -0.5093 -0.4263  0.4842
 5646TIP3   OH216898   3.172   3.534   0.635  0.4190  0.0761 -0.2037
 5646TIP3    H116899   3.215   3.490   0.562 -0.6706  0.9375 -1.3990
 5646TIP3    H216900   3.119   3.603   0.595 -2.7558 -1.4138  1.0843
 5647TIP3   OH216901   0.320   1.100   2.109 -0.3277  0.1605  0.9683
 5647TIP3    H116902   0.255   1.169   2.097 -0.0864  0.3665  0.8336
 5647TIP3    H216903   0.336   1.066   2.021 -1.5413 -1.0869  1.1991
 5648TIP3   OH216904   1.221   2.139   2.335  0.0211 -0.2884  0.7699
 5648TIP3    H116905   1.224   2.141   2.239 -2.7348  0.2215  0.6348
 5648TIP3    H216906   1.129   2.125   2.356  0.5198 -0.0993  3.3703
 5649TIP3   OH216907   6.092   2.482   3.793  0.3615  0.7424  0.2199
 5649TIP3    H116908   6.071   2.571   3.820  0.3968  1.1004 -0.8973
 5649TIP3    H216909   6.184   2.484   3.770  0.7919  0.0131  1.7008
 5650TIP3   OH216910   2.761   4.297   5.426 -0.5412 -0.0361  0.4466
 5650TIP3    H116911   2.768   4.283   5.520  0.0716 -0.0266  0.4051
 5650TIP3    H216912   2.852   4.300   5.395 -0.7351  0.0638 -0.1271
 5651TIP3   OH216913   7.599   4.907   2.782  0.4201 -0.5769  0.0824
 5651TIP3    H116914   7.505   4.902   2.766 -0.0079 -0.8285  2.2827
 5651TIP3    H216915   7.637   4.844   2.721 -0.9469 -1.2230 -0.1500
 5652TIP3   OH216916   4.755   1.050   1.608 -0.3875  0.0804 -0.1057
 5652TIP3    H116917   4.836   1.055   1.558  0.1183  0.0366  0.6887
 5652TIP3    H216918   4.702   1.123   1.577  0.1997  0.4631 -0.2171
 5653TIP3   OH216919   2.999   0.695   2.700  0.0895 -0.6133  0.6064
 5653TIP3    H116920   2.981   0.623   2.641 -0.9934  1.1287 -1.3311
 5653TIP3    H216921   2.914   0.717   2.739  0.7213 -1.5146  2.6606
 5654TIP3   OH216922   3.306   2.469   5.544 -0.1090 -0.2182  0.7857
 5654TIP3    H116923   3.277   2.379   5.527  0.3163 -0.1772 -0.2306
 5654TIP3    H216924   3.272   2.489   5.631 -1.4633 -0.8445  0.4337
 5655TIP3   OH216925   6.200   6.711   2.470 -1.2720 -0.9201  0.2565
 5655TIP3    H116926   6.134   6.727   2.537 -0.5492  2.8536  0.2346
 5655TIP3    H216927   6.168   6.759   2.393  0.0089 -1.6526 -0.7772
 5656TIP3   OH216928   3.600   3.664   5.396  0.2217 -0.3101  0.3042
 5656TIP3    H116929   3.679   3.614   5.376  0.3384  0.4794 -1.4811
 5656TIP3    H216930   3.594   3.664   5.491  0.8225 -2.7344  0.3948
 5657TIP3   OH216931   3.636   6.170   4.954 -0.1746  0.0655 -0.0300
 5657TIP3    H116932   3.600   6.133   5.035  1.1520  0.3998  0.7469
 5657TIP3    H216933   3.664   6.258   4.978 -0.1346  0.3188 -0.9622
 5658TIP3   OH216934   7.278   2.681   2.255  0.3007  0.2465 -0.0782
 5658TIP3    H116935   7.343   2.694   2.186  1.3474 -1.7177  0.4759
 5658TIP3    H216936   7.328   2.686   2.336 -0.5564  0.4477  0.4451
 5659TIP3   OH216937   4.858   3.197   2.770  0.0089 -0.4051 -0.0014
 5659TIP3    H116938   4.774   3.161   2.801  0.5567 -0.3429  1.6862
 5659TIP3    H216939   4.870   3.276   2.823  1.2128 -0.5214 -0.0742
 5660TIP3   OH216940   1.186   5.233   4.283  0.1902 -0.8067  0.4127
 5660TIP3    H116941   1.113   5.263   4.228  0.7530 -0.1509  0.0149
 5660TIP3    H216942   1.164   5.264   4.371 -0.5034 -1.4940  0.4962
 5661TIP3   OH216943   1.509   7.107   1.843 -0.2408 -0.1425  0.1903
 5661TIP3    H116944   1.437   7.047   1.862  0.6177 -0.9403  1.0557
 5661TIP3    H216945   1.477   7.161   1.771 -1.7400 -0.4032  0.6184
 5662TIP3   OH216946   5.088   1.049   4.915 -0.3459 -0.6672 -0.0562
 5662TIP3    H116947   5.169   1.099   4.924 -0.2053 -0.9644  0.3787
 5662TIP3    H216948   5.112   0.975   4.859 -0.9061  0.4932 -1.9232
 5663TIP3   OH216949   6.047   1.034   3.000 -0.5438  0.7461 -0.2124
 5663TIP3    H116950   6.038   1.058   2.908 -1.3300 -0.2627 -0.4153
 5663TIP3    H216951   5.965   0.990   3.021 -0.1777  0.5499  0.8417
 5664TIP3   OH216952   3.587   1.921   2.343  0.3093 -0.2055 -0.1590
 5664TIP3    H116953   3.666   1.874   2.366 -0.5642 -1.7842 -0.2553
 5664TIP3    H216954   3.530   1.855   2.304 -0.8876  0.9743 -0.4825
 5665TIP3   OH216955   5.749   2.937   1.989  0.0641 -0.5467 -0.0250
 5665TIP3    H116956   5.712   2.973   1.908  0.3671 -1.1847 -0.4547
 5665TIP3    H216957   5.773   2.847   1.966 -0.3538 -0.9093  0.9269
 5666TIP3   OH216958   7.304   4.904   5.586  0.2858  0.2197  0.0856
 5666TIP3    H116959   7.298   4.896   5.681 -0.7284  0.8803  0.0924
 5666TIP3    H216960   7.327   4.995   5.570 -1.1387  0.5310 -0.3293
 5667TIP3   OH216961   7.028   4.724   4.067 -0.8054 -0.4113  0.1568
 5667TIP3    H116962   7.077   4.683   4.138 -1.5156 -1.9281 -0.1835
 5667TIP3    H216963   6.942   4.681   4.070 -2.0349  1.9348  0.5287
 5668TIP3   OH216964   7.161   0.896   3.839  0.0631 -0.1853 -0.0574
 5668TIP3    H116965   7.116   0.884   3.922 -0.8329  0.6815 -0.4053
 5668TIP3    H216966   7.227   0.963   3.856  0.6301 -0.8040  0.2228
 5669TIP3   OH216967   0.246   7.066   1.061  0.2091 -0.2806 -0.1580
 5669TIP3    H116968   0.219   7.122   0.988  0.7307  0.1333 -0.0449
 5669TIP3    H216969   0.314   7.010   1.024  0.2892 -0.2503 -0.0587
 5670TIP3   OH216970   2.867   5.803   2.707 -0.3559 -0.1245 -0.2637
 5670TIP3    H116971   2.797   5.867   2.691  2.1639  2.5645 -1.5752
 5670TIP3    H216972   2.869   5.793   2.802 -1.1589  1.4310 -0.0493
 5671TIP3   OH216973   4.253   6.826   2.271  0.2982  0.3944 -0.3612
 5671TIP3    H116974   4.311   6.894   2.237  1.0104  0.4115  0.8336
 5671TIP3    H216975   4.193   6.807   2.198  0.7193  1.5787 -1.0455
 5672TIP3   OH216976   5.124   1.154   3.894 -0.0748 -0.3892 -0.1653
 5672TIP3    H116977   5.209   1.111   3.898  0.0042 -0.2563 -0.3964
 5672TIP3    H216978   5.070   1.098   3.838 -0.5502 -1.1671  1.0252
 5673TIP3   OH216979   6.903   5.023   4.264 -0.0636 -0.2826 -0.9558
 5673TIP3    H116980   6.876   5.103   4.310  3.2728  0.3108  0.2140
 5673TIP3    H216981   6.868   5.035   4.175 -3.0937  0.4825  0.2102
 5674TIP3   OH216982   2.118   4.128   3.762 -0.0216 -0.0036  0.3119
 5674TIP3    H116983   2.038   4.077   3.751  0.1094  0.1382 -1.6517
 5674TIP3    H216984   2.167   4.082   3.829 -1.6426 -0.2021  1.4183
 5675TIP3   OH216985   0.198   6.728   4.644 -0.4936 -0.0483  0.1380
 5675TIP3    H116986   0.175   6.642   4.608 -0.2194 -0.4609  0.9377
 5675TIP3    H216987   0.142   6.738   4.721 -0.1966  0.2929  0.3122
 5676TIP3   OH216988   6.673   3.368   3.718  0.4061  0.0681 -0.6699
 5676TIP3    H116989   6.645   3.279   3.738 -1.1859 -0.0694 -3.0019
 5676TIP3    H216990   6.769   3.365   3.720  0.3684 -1.1798  1.0944
 5677TIP3   OH216991   7.510   0.434   3.842 -0.2855  0.2709  0.0409
 5677TIP3    H116992   7.499   0.458   3.934  0.5622  0.6219  0.0533
 5677TIP3    H216993   7.487   0.341   3.839  1.5090 -0.2532  0.9750
 5678TIP3   OH216994   4.500   4.517   1.843 -0.1180  1.0065 -0.0024
 5678TIP3    H116995   4.450   4.479   1.771  0.2844  1.7828 -0.7183
 5678TIP3    H216996   4.586   4.475   1.838 -0.3871  0.3598  0.6382
 5679TIP3   OH216997   0.348   4.782   1.526 -0.1814 -0.0881  0.4585
 5679TIP3    H116998   0.272   4.725   1.513 -1.4298  1.4550  0.6396
 5679TIP3    H216999   0.344   4.806   1.618  1.0424 -0.6415  0.6779
 5680TIP3   OH217000   1.305   6.755   1.314 -0.3636 -0.2808 -1.0063
 5680TIP3    H117001   1.391   6.717   1.298 -0.1407  1.0371 -3.4054
 5680TIP3    H217002   1.244   6.681   1.306  0.4657 -1.0959  0.0160
 5681TIP3   OH217003   2.454   5.941   2.926 -0.5693  0.2629  0.1621
 5681TIP3    H117004   2.436   5.918   3.017  1.6039 -0.7906  0.4092
 5681TIP3    H217005   2.495   5.863   2.889  4.1181  2.4261  0.0652
 5682TIP3   OH217006   0.890   2.814   5.948  0.0510 -0.0007  0.4087
 5682TIP3    H117007   0.820   2.772   5.998  0.0064  0.1415  0.4676
 5682TIP3    H217008   0.954   2.842   6.014  0.4930 -0.7356  0.2999
 5683TIP3   OH217009   2.321   5.268   4.122  0.0376  0.1181 -0.0085
 5683TIP3    H117010   2.336   5.357   4.090 -0.0220  0.1362  0.0125
 5683TIP3    H217011   2.366   5.266   4.207 -1.4659  0.7047  0.8476
 5684TIP3   OH217012   4.791   3.829   3.946  0.0470 -0.3752 -0.4690
 5684TIP3    H117013   4.747   3.764   3.892 -1.7861 -0.3617  0.9261
 5684TIP3    H217014   4.842   3.778   4.009  0.5188 -0.4100 -0.8718
 5685TIP3   OH217015   7.273   0.159   2.951 -0.2390  0.0557  0.3404
 5685TIP3    H117016   7.320   0.076   2.957 -0.3607  0.0260  1.0645
 5685TIP3    H217017   7.342   0.226   2.948 -0.1409 -0.0730 -0.3685
 5686TIP3   OH217018   0.151   3.886   4.547  0.3708  0.2581 -0.3424
 5686TIP3    H117019   0.210   3.962   4.548 -0.2790  0.7712 -0.1752
 5686TIP3    H217020   0.150   3.858   4.456 -0.9868  1.7547 -0.8490
 5687TIP3   OH217021   7.529   2.518   1.374  0.4577  0.0303 -0.3396
 5687TIP3    H117022   7.439   2.486   1.383 -0.1795  1.4822 -1.1573
 5687TIP3    H217023   7.532   2.597   1.427  0.6789  1.0104 -1.7484
 5688TIP3   OH217024   3.348   5.239   3.510 -0.5875 -0.4033  0.0404
 5688TIP3    H117025   3.399   5.215   3.588 -1.2761 -1.3641  0.2236
 5688TIP3    H217026   3.380   5.325   3.485 -1.0509  0.3800  1.9943
 5689TIP3   OH217027   3.600   3.311   2.841  0.2189  0.0963  0.0562
 5689TIP3    H117028   3.687   3.297   2.804 -0.0328 -2.6484  0.3142
 5689TIP3    H217029   3.563   3.223   2.850 -1.1961  0.8573  3.2815
 5690TIP3   OH217030   5.221   6.523   4.636  0.0189  0.1294  0.3047
 5690TIP3    H117031   5.270   6.544   4.715 -1.5955 -1.3485  1.7665
 5690TIP3    H217032   5.153   6.591   4.631  1.5952  1.7143 -1.2919
 5691TIP3   OH217033   0.658   6.910   2.063  0.3717  0.1678 -0.1400
 5691TIP3    H117034   0.714   6.848   2.110 -1.5177 -2.1718 -0.7503
 5691TIP3    H217035   0.683   6.899   1.971  0.4285  0.7925 -0.2057
 5692TIP3   OH217036   2.908   4.216   3.641 -0.0488 -0.5010  0.0355
 5692TIP3    H117037   2.822   4.229   3.601  0.1792 -0.4047 -0.4359
 5692TIP3    H217038   2.891   4.215   3.735 -0.2022  2.8758  0.1781
 5693TIP3   OH217039   2.307   0.625   4.247  0.7409  0.3185  0.3151
 5693TIP3    H117040   2.389   0.652   4.288  1.1883  0.3264 -0.5598
 5693TIP3    H217041   2.254   0.704   4.245  1.3617  0.7204 -0.6319
 5694TIP3   OH217042   6.197   3.754   4.687 -0.2920  0.2294 -0.2493
 5694TIP3    H117043   6.203   3.778   4.594 -1.8749  0.5112 -0.3108
 5694TIP3    H217044   6.152   3.670   4.687  1.5621 -0.8141  0.1950
 5695TIP3   OH217045   0.843   0.637   4.196 -0.2171 -0.2295  0.1210
 5695TIP3    H117046   0.818   0.557   4.149 -1.2092 -0.0153  0.2679
 5695TIP3    H217047   0.828   0.615   4.288 -1.2159  0.3710  0.1089
 5696TIP3   OH217048   6.851   4.675   5.936  0.6842  0.0679 -0.7316
 5696TIP3    H117049   6.848   4.719   5.851  1.1329  1.2431 -0.1735
 5696TIP3    H217050   6.936   4.701   5.972  0.2909 -0.0090  0.2771
 5697TIP3   OH217051   1.068   0.068   3.914 -0.0338  0.2194 -0.9697
 5697TIP3    H117052   1.023   0.077   3.830 -0.6058 -2.7443 -1.0870
 5697TIP3    H217053   1.160   0.057   3.891 -0.2903 -1.4512 -1.3504
 5698TIP3   OH217054   7.384   5.150   3.900  0.1057  0.4840 -1.0198
 5698TIP3    H117055   7.305   5.176   3.852 -1.1253 -0.0014  0.6641
 5698TIP3    H217056   7.368   5.059   3.924  0.0659  1.0708  1.4118
 5699TIP3   OH217057   1.314   2.004   3.158 -0.1159  0.0555 -0.0825
 5699TIP3    H117058   1.350   1.961   3.081 -1.2990 -0.2807 -0.4760
 5699TIP3    H217059   1.302   1.933   3.221  0.1423  0.2044  0.1361
 5700TIP3   OH217060   3.118   6.075   5.493 -0.6806 -0.2974 -0.2902
 5700TIP3    H117061   3.165   6.014   5.549 -0.9480 -0.8433 -0.6478
 5700TIP3    H217062   3.056   6.020   5.445 -0.8872  0.2487 -0.6568
 5701TIP3   OH217063   7.217   6.521   0.751  0.2000  0.0291 -0.3851
 5701TIP3    H117064   7.221   6.548   0.843 -0.5594  1.7805 -0.8102
 5701TIP3    H217065   7.184   6.598   0.705 -0.2060 -1.0649 -2.0314
 5702TIP3   OH217066   0.158   4.729   6.085 -0.0888 -0.2676  0.4829
 5702TIP3    H117067   0.206   4.683   6.154 -1.1244 -0.4656  1.0952
 5702TIP3    H217068   0.066   4.728   6.115 -0.0481  3.3845  1.2843
 5703TIP3   OH217069   4.477   6.684   0.636 -0.0026  0.4684  0.1168
 5703TIP3    H117070   4.551   6.722   0.684  0.1668 -0.1258  0.3419
 5703TIP3    H217071   4.409   6.672   0.703  0.1069 -0.0317  0.1439
 5704TIP3   OH217072   1.217   2.144   2.043 -0.1058  0.1617 -0.3797
 5704TIP3    H117073   1.183   2.227   2.011 -1.7638 -0.4120 -0.2471
 5704TIP3    H217074   1.303   2.134   2.002  0.3735  2.1918  0.0632
 5705TIP3   OH217075   4.235   0.869   3.967  0.0205 -0.3615 -0.1081
 5705TIP3    H117076   4.158   0.836   4.014 -1.6931  1.9934 -1.0974
 5705TIP3    H217077   4.262   0.795   3.912 -1.7154 -1.1814  0.0548
 5706TIP3   OH217078   4.257   0.181   1.273 -0.3810 -0.1620 -0.0050
 5706TIP3    H117079   4.237   0.243   1.204  0.8759  1.7284  1.2233
 5706TIP3    H217080   4.330   0.129   1.238 -0.4609  0.0548 -0.5011
 5707TIP3   OH217081   7.360   4.132   2.203 -0.4272  0.1719  0.0270
 5707TIP3    H117082   7.273   4.130   2.241 -0.2838  3.6398  0.8828
 5707TIP3    H217083   7.352   4.189   2.127  1.3826  2.2568  1.2673
 5708TIP3   OH217084   2.166   2.314  -0.001  0.0787  0.0496  0.5858
 5708TIP3    H117085   2.111   2.279   0.069 -0.1809  2.9628  1.9936
 5708TIP3    H217086   2.200   2.396   0.034  0.2909  1.4474 -2.5635
 5709TIP3   OH217087   7.400   3.142   1.818 -0.1626 -0.5232  0.1886
 5709TIP3    H117088   7.358   3.227   1.804  0.6439 -0.2157 -0.4153
 5709TIP3    H217089   7.378   3.092   1.740  1.5976  0.0727 -0.7592
 5710TIP3   OH217090   2.103   3.670   1.432 -0.0230 -0.0361  0.3429
 5710TIP3    H117091   2.112   3.575   1.420 -2.4688 -0.2341 -0.3998
 5710TIP3    H217092   2.053   3.679   1.513 -1.8634  0.4599 -0.7815
 5711TIP3   OH217093   0.704   2.446   4.966  0.1619 -0.2439 -0.3632
 5711TIP3    H117094   0.611   2.460   4.985 -0.1409  0.2672 -2.0371
 5711TIP3    H217095   0.719   2.354   4.988 -1.7419 -1.4632 -3.4897
 5712TIP3   OH217096   7.044   1.075   5.112 -0.0277  0.6087 -0.2670
 5712TIP3    H117097   7.029   0.987   5.147  0.5661  0.5625 -0.1182
 5712TIP3    H217098   7.009   1.071   5.023 -0.4991  0.3863 -0.0768
 5713TIP3   OH217099   7.100   1.523   6.115 -0.0358 -0.8009  0.2154
 5713TIP3    H117100   7.182   1.495   6.156  0.2630  1.0575  1.0251
 5713TIP3    H217101   7.035   1.517   6.185 -0.2117 -0.6462  0.0669
 5714TIP3   OH217102   1.306   6.502   2.764  0.1857 -0.4519 -0.4961
 5714TIP3    H117103   1.237   6.443   2.734 -1.8278 -0.0670  2.8948
 5714TIP3    H217104   1.271   6.541   2.844  3.4159  1.6532  0.0647
 5715TIP3   OH217105   3.846   5.759   4.456 -0.4398  0.2173 -0.0289
 5715TIP3    H117106   3.762   5.713   4.454  0.6189 -1.8385 -0.5704
 5715TIP3    H217107   3.841   5.815   4.533 -1.1070 -2.3422  1.9173
 5716TIP3   OH217108   5.917   1.969   3.687  0.1195  0.2166 -0.0332
 5716TIP3    H117109   5.950   2.058   3.698 -0.2628  0.5593 -1.4100
 5716TIP3    H217110   5.894   1.940   3.775  2.1299  0.7201  0.6872
 5717TIP3   OH217111   2.221   6.740   4.400 -0.2842  0.4608  0.5363
 5717TIP3    H117112   2.225   6.646   4.417  0.9361  0.4177  0.1505
 5717TIP3    H217113   2.144   6.752   4.345 -0.2467 -0.3643  0.2911
 5718TIP3   OH217114   5.399   0.826   0.922 -0.2287  0.1178  0.5603
 5718TIP3    H117115   5.312   0.818   0.882 -0.3924  2.2248  0.3883
 5718TIP3    H217116   5.453   0.867   0.854  1.0681 -1.5850  0.4990
 5719TIP3   OH217117   4.874   1.340   2.458  0.1015 -0.0107 -0.0089
 5719TIP3    H117118   4.894   1.253   2.490 -0.0803  0.3161  1.0197
 5719TIP3    H217119   4.780   1.350   2.471  0.3620  0.9230  1.4169
 5720TIP3   OH217120   5.418   4.271   2.865 -0.4177 -0.2978 -0.0613
 5720TIP3    H117121   5.460   4.351   2.897  1.7458 -1.5152  0.3267
 5720TIP3    H217122   5.362   4.301   2.793 -0.4518  1.6659  0.7154
 5721TIP3   OH217123   1.876   1.568   5.012  0.0082 -0.1271 -0.0206
 5721TIP3    H117124   1.810   1.530   4.955  0.3089 -0.4933 -0.1211
 5721TIP3    H217125   1.849   1.660   5.021 -0.5053 -0.2668 -0.0710
 5722TIP3   OH217126   3.105   2.282   0.273  0.1786  0.0283  0.0536
 5722TIP3    H117127   3.141   2.336   0.203  0.2450 -0.7763 -0.5405
 5722TIP3    H217128   3.024   2.326   0.298 -0.1082  0.0428 -0.8860
 5723TIP3   OH217129   1.662   0.125   4.964 -0.7944 -0.1523 -0.3068
 5723TIP3    H117130   1.653   0.079   4.880  1.6616 -0.3383 -0.5227
 5723TIP3    H217131   1.670   0.218   4.940  0.4419 -0.2600 -0.3257
 5724TIP3   OH217132   5.590   5.161   4.734 -0.0574 -0.0357  1.0363
 5724TIP3    H117133   5.547   5.126   4.655  1.2052  1.2660 -0.3092
 5724TIP3    H217134   5.649   5.091   4.761 -0.3062 -0.4018  0.6667
 5725TIP3   OH217135   3.170   6.071   6.141 -0.6571  0.6387 -0.1020
 5725TIP3    H117136   3.111   6.058   6.216 -1.1999  0.3121 -0.5777
 5725TIP3    H217137   3.212   6.156   6.158  0.1328  0.0249  1.1757
 5726TIP3   OH217138   5.628   3.476   2.897  0.0459 -0.2763 -0.3041
 5726TIP3    H117139   5.597   3.424   2.971  0.2236 -0.4258 -0.3326
 5726TIP3    H217140   5.722   3.458   2.893  0.4388  1.3570  0.7473
 5727TIP3   OH217141   4.870   4.762   3.720 -0.3120  0.0156  0.9924
 5727TIP3    H117142   4.903   4.730   3.637  0.7076  0.7725  1.0964
 5727TIP3    H217143   4.917   4.710   3.786 -1.5063 -0.9625  1.1152
 5728TIP3   OH217144   5.586   2.555   3.168 -0.3372 -0.4161  0.9682
 5728TIP3    H117145   5.567   2.468   3.204  0.0443 -0.7315  0.4222
 5728TIP3    H217146   5.675   2.575   3.200  0.1959 -0.9024 -0.1540
 5729TIP3   OH217147   4.952   2.884   0.648  0.4492  0.1565  0.1365
 5729TIP3    H117148   4.871   2.930   0.672 -1.0076 -1.8028 -0.7345
 5729TIP3    H217149   4.975   2.835   0.727 -1.5295 -2.3841 -0.7532
 5730TIP3   OH217150   5.375   5.949   2.047  0.4366  0.3638 -0.0990
 5730TIP3    H117151   5.336   5.909   2.125  0.5501 -2.7035 -1.4676
 5730TIP3    H217152   5.383   5.877   1.985 -1.0205  2.9310 -3.5631
 5731TIP3   OH217153   3.596   1.125   5.011 -0.0113 -0.0231  0.0396
 5731TIP3    H117154   3.522   1.166   5.057 -1.3886 -1.8530 -0.3861
 5731TIP3    H217155   3.605   1.174   4.930  0.5798  1.4687  0.9787
 5732TIP3   OH217156   6.011   2.684   2.493  0.1760 -0.1621  0.5310
 5732TIP3    H117157   5.986   2.774   2.510  2.5296  0.3244  1.8004
 5732TIP3    H217158   6.087   2.690   2.435  0.7239 -1.2880  1.0881
 5733TIP3   OH217159   0.261   0.841   3.169  0.3556 -0.5318  0.1140
 5733TIP3    H117160   0.246   0.794   3.251 -0.8609 -0.7970 -0.2431
 5733TIP3    H217161   0.175   0.874   3.144  1.2497  2.7232  0.8111
 5734TIP3   OH217162   0.722   6.645   1.530  0.2238 -0.0997 -0.0054
 5734TIP3    H117163   0.816   6.643   1.513  0.1410 -1.9474 -0.5504
 5734TIP3    H217164   0.687   6.708   1.467  1.0043 -0.0725 -0.4240
 5735TIP3   OH217165   2.006   6.457   1.556  0.1282  0.4265  0.3061
 5735TIP3    H117166   2.073   6.518   1.524  1.3555 -1.5401 -1.0819
 5735TIP3    H217167   1.931   6.471   1.497  1.2219 -0.9073 -1.5094
 5736TIP3   OH217168   3.431   7.114   0.590  0.1492  0.2013 -0.7917
 5736TIP3    H117169   3.447   7.171   0.515 -1.6833  0.7345 -0.8215
 5736TIP3    H217170   3.361   7.158   0.639 -0.3344 -1.3265 -0.0636
 5737TIP3   OH217171   4.791   1.923   1.876  0.1396 -0.1386 -0.2298
 5737TIP3    H117172   4.802   1.837   1.916 -0.0615 -0.0520  0.0186
 5737TIP3    H217173   4.730   1.968   1.934  0.9573  0.5036  0.1450
 5738TIP3   OH217174   7.345   6.136   5.395 -0.3153 -0.0817 -0.2252
 5738TIP3    H117175   7.401   6.079   5.448  1.0584  1.9440  0.5953
 5738TIP3    H217176   7.265   6.144   5.447  0.1918  0.1839  0.5308
 5739TIP3   OH217177  -0.011   3.732   1.971 -0.0764 -0.3318  0.2765
 5739TIP3    H117178  -0.006   3.816   1.925 -0.9218 -1.2833 -1.6548
 5739TIP3    H217179   0.051   3.742   2.044 -0.1800  1.9632  0.1523
 5740TIP3   OH217180   2.147   1.326   4.225 -0.2375  0.5107 -0.7138
 5740TIP3    H117181   2.096   1.248   4.203 -1.2629  1.0812 -0.4209
 5740TIP3    H217182   2.124   1.345   4.316  1.6159 -0.0442 -0.0992
 5741TIP3   OH217183   1.491   0.800   4.542  0.3122 -0.5796  0.2701
 5741TIP3    H117184   1.419   0.862   4.535  1.2632  0.7787  1.7974
 5741TIP3    H217185   1.512   0.778   4.451 -1.6972 -0.6757 -0.2196
 5742TIP3   OH217186   0.047   4.342   4.913 -0.2095  0.5563  0.3613
 5742TIP3    H117187   0.114   4.277   4.935 -1.1225 -0.1096  1.3202
 5742TIP3    H217188   0.001   4.357   4.996 -1.7874  0.3302 -0.4355
 5743TIP3   OH217189   2.080   4.153   0.746 -0.4240 -0.5928 -0.0046
 5743TIP3    H117190   2.140   4.097   0.697  0.7456  2.0046 -1.7604
 5743TIP3    H217191   2.021   4.189   0.680 -1.7368 -0.4591  1.2025
 5744TIP3   OH217192   3.743   2.751   5.657 -0.1388  0.2451 -0.0969
 5744TIP3    H117193   3.818   2.807   5.675 -0.5872  0.5091  1.0301
 5744TIP3    H217194   3.674   2.811   5.627 -0.4035  0.2150  0.4437
 5745TIP3   OH217195   3.129   6.936   2.085 -0.3620 -0.0249  0.2975
 5745TIP3    H117196   3.125   7.029   2.107 -1.0884  0.4375 -1.5520
 5745TIP3    H217197   3.220   6.922   2.059 -0.3685  0.3106  0.0762
 5746TIP3   OH217198   4.518   0.359   1.511 -0.0952 -0.4422  0.0526
 5746TIP3    H117199   4.432   0.396   1.528  0.9080  1.4836  1.3736
 5746TIP3    H217200   4.553   0.412   1.440  0.6073 -0.1160  0.6285
 5747TIP3   OH217201   4.336   5.898   5.303 -0.3696 -0.3860  0.4660
 5747TIP3    H117202   4.349   5.828   5.239 -0.9164 -0.1983  0.1412
 5747TIP3    H217203   4.300   5.855   5.380 -0.8855 -0.4310  0.1976
 5748TIP3   OH217204   7.152   0.409   0.774  0.4043  0.1898 -0.1362
 5748TIP3    H117205   7.167   0.353   0.851 -0.1757  0.0868 -0.0968
 5748TIP3    H217206   7.057   0.419   0.770  0.4467  0.3361 -0.7417
 5749TIP3   OH217207   6.485   0.066   0.506  0.0980  0.0515 -0.1147
 5749TIP3    H117208   6.485   0.156   0.539 -0.6725  0.1554 -0.3606
 5749TIP3    H217209   6.419   0.067   0.436 -0.5227 -0.8864  0.4349
 5750TIP3   OH217210   5.618   2.609   2.540  0.0789 -0.2065 -0.0889
 5750TIP3    H117211   5.572   2.689   2.518 -0.7097 -0.6707 -0.1402
 5750TIP3    H217212   5.550   2.542   2.547  0.2891 -0.2500  3.1252
 5751TIP3   OH217213   3.995   1.696   4.731  0.0099 -0.3672  0.0933
 5751TIP3    H117214   3.982   1.628   4.665  1.4687 -0.5540 -0.0359
 5751TIP3    H217215   4.082   1.731   4.714 -0.5584  1.3263  0.3739
 5752TIP3   OH217216   6.819   4.220   5.430  0.0292 -0.2950  0.3859
 5752TIP3    H117217   6.838   4.221   5.336  0.6229 -1.6471  0.4683
 5752TIP3    H217218   6.875   4.288   5.466  0.6352 -0.5228 -0.1062
 5753TIP3   OH217219   5.042   0.471   1.140  0.3202  0.0442  0.0395
 5753TIP3    H117220   4.975   0.439   1.201  0.3619  0.2550  0.1971
 5753TIP3    H217221   5.111   0.405   1.144 -0.5408 -0.9926 -1.2919
 5754TIP3   OH217222   4.562   4.167   5.952  0.3665  0.5245  0.0350
 5754TIP3    H117223   4.512   4.155   5.872  1.1002  0.3341 -0.4100
 5754TIP3    H217224   4.532   4.250   5.988 -0.0859  0.5289 -0.3467
 5755TIP3   OH217225   2.746   5.478   3.274 -0.6525 -0.0714  0.2604
 5755TIP3    H117226   2.697   5.450   3.351  0.0412 -0.6606  0.4898
 5755TIP3    H217227   2.823   5.523   3.309  0.4146 -1.5911 -0.0440
 5756TIP3   OH217228   3.140   2.622   5.338 -0.2944 -0.9638 -0.0709
 5756TIP3    H117229   3.199   2.648   5.409  0.6017 -0.1427 -1.0957
 5756TIP3    H217230   3.157   2.528   5.326  2.3070 -0.4029 -1.6419
 5757TIP3   OH217231   1.932   0.896   4.451 -0.0086  0.2952  0.5078
 5757TIP3    H117232   1.919   0.987   4.475 -0.2532  0.0117  1.5171
 5757TIP3    H217233   1.949   0.897   4.357 -1.4159  1.2483  0.2387
 5758TIP3   OH217234   7.140   0.232   0.473  0.5267  0.1742 -0.0715
 5758TIP3    H117235   7.204   0.237   0.544 -0.1038  1.3049  0.4275
 5758TIP3    H217236   7.163   0.151   0.427  1.4382 -0.1655  0.9324
 5759TIP3   OH217237   0.891   0.841   4.008  0.0216 -0.3887 -0.4003
 5759TIP3    H117238   0.864   0.774   4.071 -0.1256  0.6866  0.7113
 5759TIP3    H217239   0.835   0.916   4.027  0.8134  0.3731 -0.9982
 5760TIP3   OH217240   4.519   1.237   5.123  0.0047  0.2358 -0.1815
 5760TIP3    H117241   4.562   1.308   5.076 -0.9666 -0.0126 -1.5057
 5760TIP3    H217242   4.441   1.277   5.161  0.6392  0.3704  1.0297
 5761TIP3   OH217243   7.018   0.381   5.364 -0.1549  0.1607 -0.1221
 5761TIP3    H117244   6.980   0.406   5.279 -0.9293 -2.7320 -0.7509
 5761TIP3    H217245   7.112   0.380   5.349 -0.2260  0.6052 -0.6397
 5762TIP3   OH217246   4.388   3.833   5.038 -0.1997 -0.0250  0.1826
 5762TIP3    H117247   4.337   3.908   5.067 -1.6046 -1.2421  1.0428
 5762TIP3    H217248   4.439   3.807   5.116  0.2866  0.0484 -0.1101
 5763TIP3   OH217249   6.415   2.097   1.317  0.5484  0.4309  0.3797
 5763TIP3    H117250   6.355   2.113   1.243  0.2384  0.2779  0.5950
 5763TIP3    H217251   6.501   2.118   1.282  0.3185  1.1299  0.2051
 5764TIP3   OH217252   4.879   3.821   3.537 -0.3377  0.0039 -0.0018
 5764TIP3    H117253   4.846   3.764   3.607  0.4147  1.4296  1.5882
 5764TIP3    H217254   4.813   3.815   3.468 -1.6843 -0.5937  1.2740
 5765TIP3   OH217255   3.843   4.377   0.780 -0.6030 -0.1258  0.5243
 5765TIP3    H117256   3.843   4.390   0.685 -0.1671  0.8564  0.6480
 5765TIP3    H217257   3.862   4.463   0.816  0.4861 -0.7427  1.4784
 5766TIP3   OH217258   2.595   1.991   0.177  0.3087 -0.6930 -0.0039
 5766TIP3    H117259   2.525   2.041   0.135 -0.6827 -2.6432 -0.8018
 5766TIP3    H217260   2.625   2.047   0.249 -0.8769  0.9220 -0.7109
 5767TIP3   OH217261   3.227   2.101   3.174 -0.1830  0.1683  0.1717
 5767TIP3    H117262   3.134   2.078   3.172 -0.5130  1.4790 -1.0931
 5767TIP3    H217263   3.233   2.182   3.123  1.6788  0.0245  0.0950
 5768TIP3   OH217264   3.144   5.975   3.917  0.2548  0.0064  0.0105
 5768TIP3    H117265   3.219   5.916   3.911 -1.1736 -1.7732 -1.1444
 5768TIP3    H217266   3.124   5.979   4.011  2.3600  1.3354  0.4693
 5769TIP3   OH217267   6.226   3.444   4.450  0.5019 -0.8540  0.6116
 5769TIP3    H117268   6.244   3.526   4.404  0.8303 -0.6282  1.1232
 5769TIP3    H217269   6.253   3.375   4.389  1.9760 -0.5450  0.8741
 5770TIP3   OH217270   2.558   4.146   1.765  0.1607 -0.3679 -0.2435
 5770TIP3    H117271   2.549   4.126   1.672  0.8364 -1.7147 -0.0431
 5770TIP3    H217272   2.551   4.062   1.809 -2.4534  0.4785  1.1579
 5771TIP3   OH217273   1.357   6.943   5.157  0.0208  0.8317 -0.0424
 5771TIP3    H117274   1.357   6.998   5.235  0.5123 -1.0319  1.3533
 5771TIP3    H217275   1.356   7.004   5.084  2.1716  2.7145  1.3893
 5772TIP3   OH217276   2.931   4.636   1.883  0.2397 -0.1952 -0.4158
 5772TIP3    H117277   3.009   4.600   1.841 -0.0248 -1.6956  0.3140
 5772TIP3    H217278   2.918   4.582   1.960 -0.4974  1.1807  0.4648
 5773TIP3   OH217279   0.349   4.790   0.696 -0.2587  0.4624  0.0154
 5773TIP3    H117280   0.396   4.709   0.674 -1.7764 -0.5384  0.2799
 5773TIP3    H217281   0.273   4.760   0.746 -0.2200  2.1677  1.1785
 5774TIP3   OH217282   1.327   6.274   1.284 -0.0363 -0.6091 -0.0408
 5774TIP3    H117283   1.338   6.194   1.337  0.0130 -2.2010 -2.3266
 5774TIP3    H217284   1.252   6.256   1.228  0.7351  0.4462 -1.4722
 5775TIP3   OH217285   5.645   4.390   2.304  0.6235  0.1575 -0.1265
 5775TIP3    H117286   5.623   4.463   2.362  0.2425 -0.4639  0.5305
 5775TIP3    H217287   5.611   4.417   2.218 -0.5341  0.2681  0.3481
 5776TIP3   OH217288   4.715   1.427   5.940 -0.2848 -0.0302 -0.0321
 5776TIP3    H117289   4.737   1.335   5.925 -0.3256 -0.1521  0.6068
 5776TIP3    H217290   4.721   1.437   6.036 -2.7239 -0.0002  0.1628
 5777TIP3   OH217291   6.400   3.012   3.263  0.1099 -0.4430  0.0487
 5777TIP3    H117292   6.416   3.097   3.222 -1.8699 -0.6549 -1.3312
 5777TIP3    H217293   6.480   2.962   3.246  1.1146  0.9358  0.4579
 5778TIP3   OH217294   3.476   6.622   1.721 -0.1162 -0.0392 -0.6307
 5778TIP3    H117295   3.408   6.674   1.764  0.2795  0.9424 -1.1617
 5778TIP3    H217296   3.453   6.625   1.628 -0.3977 -1.2989 -0.6212
 5779TIP3   OH217297   6.080   5.163   3.215 -0.6980 -0.0088 -0.3696
 5779TIP3    H117298   6.005   5.184   3.271 -1.7042  0.7950 -1.9373
 5779TIP3    H217299   6.085   5.236   3.154 -0.2867 -1.3084 -1.9596
 5780TIP3   OH217300   6.068   2.477   3.466  0.3457 -0.1630  0.0239
 5780TIP3    H117301   6.109   2.419   3.531  3.3018  0.6210 -0.9599
 5780TIP3    H217302   6.087   2.565   3.498 -0.5625  0.2480 -0.5330
 5781TIP3   OH217303   1.242   1.893   1.672 -0.0979  0.0990  0.1478
 5781TIP3    H117304   1.293   1.849   1.604  1.2647  0.3079  0.9868
 5781TIP3    H217305   1.305   1.953   1.713 -0.7053 -0.4993  2.0204
 5782TIP3   OH217306   4.053   5.128   3.962 -0.1314 -0.3229  0.1444
 5782TIP3    H117307   4.127   5.103   4.018  2.2658  2.3051 -1.5707
 5782TIP3    H217308   4.052   5.061   3.893  0.0729 -0.8636  0.6533
 5783TIP3   OH217309   5.847   0.245   0.567 -0.1593  0.7809 -0.1941
 5783TIP3    H117310   5.793   0.228   0.490  0.1969  0.8319 -0.4620
 5783TIP3    H217311   5.794   0.217   0.641  0.3422 -1.3643 -0.5880
 5784TIP3   OH217312   6.170   2.729   3.519 -0.0106 -0.0470 -0.3611
 5784TIP3    H117313   6.261   2.751   3.537 -0.1214 -1.1687  1.8445
 5784TIP3    H217314   6.143   2.791   3.451  1.7634  1.6792  0.4441
 5785TIP3   OH217315   0.533   4.716   5.125 -0.4817  0.3902 -0.6516
 5785TIP3    H117316   0.492   4.631   5.144  0.9408 -0.1524  0.1400
 5785TIP3    H217317   0.564   4.747   5.210 -0.7117  1.5798 -0.9818
 5786TIP3   OH217318   1.247   3.876   4.014  0.3843 -0.0136  0.3451
 5786TIP3    H117319   1.212   3.862   4.101  1.1679  2.4291  1.1190
 5786TIP3    H217320   1.326   3.822   4.011 -0.0617 -0.7075  0.8286
 5787TIP3   OH217321   2.505   3.103   0.381  0.5766 -0.6495 -0.1976
 5787TIP3    H117322   2.528   3.164   0.311 -0.0917 -1.3636 -1.0664
 5787TIP3    H217323   2.497   3.158   0.459 -2.2489  0.7689 -1.3713
 5788TIP3   OH217324   2.282   7.059   1.786  0.2896 -0.3603  0.2668
 5788TIP3    H117325   2.280   7.126   1.717  1.6799  0.6875  1.1797
 5788TIP3    H217326   2.212   7.085   1.846  0.8033  0.2890  0.6017
 5789TIP3   OH217327   4.055   6.403   1.794 -0.5467 -1.0483  0.5266
 5789TIP3    H117328   4.064   6.320   1.747 -0.2944  0.2473 -1.9175
 5789TIP3    H217329   3.962   6.423   1.790 -0.4042 -0.5031 -0.2716
 5790TIP3   OH217330   3.794   3.824   4.854 -0.5033  0.1514  0.2636
 5790TIP3    H117331   3.889   3.838   4.850 -0.0325 -1.4637  2.9875
 5790TIP3    H217332   3.784   3.730   4.846 -2.0444  0.4038 -1.1649
 5791TIP3   OH217333   6.415   0.864   3.317 -0.3129  0.0981  0.1483
 5791TIP3    H117334   6.366   0.866   3.399 -1.6658 -0.0186 -0.6200
 5791TIP3    H217335   6.499   0.824   3.340 -1.1155 -1.0379  1.2442
 5792TIP3   OH217336   4.565   3.422   4.598  0.2542  0.7299 -0.1007
 5792TIP3    H117337   4.578   3.327   4.602  0.5069  0.7219 -0.9420
 5792TIP3    H217338   4.644   3.454   4.554 -0.3141  1.2180 -0.7801
 5793TIP3   OH217339   2.326   2.976   3.547  0.1178 -0.0454  0.2718
 5793TIP3    H117340   2.272   2.933   3.614  0.7935 -1.1512  0.1350
 5793TIP3    H217341   2.302   3.068   3.553  0.0599 -0.1286  1.9509
 5794TIP3   OH217342   4.194   1.560   3.208  0.2017 -0.2084 -0.3389
 5794TIP3    H117343   4.181   1.469   3.183 -0.4904 -0.4678  0.8577
 5794TIP3    H217344   4.280   1.561   3.252  0.0553 -0.3608 -0.0453
 5795TIP3   OH217345   0.177   1.920   2.703  0.3151 -0.1664  0.5342
 5795TIP3    H117346   0.181   2.012   2.678  0.2830 -0.2910  0.0600
 5795TIP3    H217347   0.268   1.890   2.702  0.3596 -0.0545  1.0234
 5796TIP3   OH217348   6.710   1.458   4.430  0.2488 -0.0018 -0.8848
 5796TIP3    H117349   6.653   1.508   4.489 -1.2300  0.0993 -2.3127
 5796TIP3    H217350   6.796   1.496   4.441 -0.2797  0.9417  0.1651
 5797TIP3   OH217351   6.664   6.747   2.321 -0.6581  0.2417 -0.5908
 5797TIP3    H117352   6.737   6.699   2.282 -1.1585  1.6677 -3.5789
 5797TIP3    H217353   6.586   6.703   2.289 -1.1090  0.7652 -0.2357
 5798TIP3   OH217354   5.749   4.979   1.414  0.4446  0.1677 -0.4140
 5798TIP3    H117355   5.814   4.920   1.375  0.2775 -1.5368  1.6535
 5798TIP3    H217356   5.678   4.921   1.441  1.2385  0.7775  3.7895
 5799TIP3   OH217357   1.866   5.871   2.962 -0.3217  0.3627  0.0302
 5799TIP3    H117358   1.786   5.829   2.932 -0.3858  0.8948 -0.5552
 5799TIP3    H217359   1.837   5.939   3.022 -0.2006 -0.6143  1.2314
 5800TIP3   OH217360   1.562   5.675   5.755 -0.1865 -0.1995 -0.3010
 5800TIP3    H117361   1.647   5.719   5.765 -0.1987 -0.3008  0.2530
 5800TIP3    H217362   1.573   5.591   5.798 -0.4449 -0.3761 -0.5815
 5801TIP3   OH217363   1.349   5.200   1.658 -0.2002 -0.0495  0.4722
 5801TIP3    H117364   1.289   5.136   1.620 -0.5602  0.3528  0.3477
 5801TIP3    H217365   1.320   5.209   1.749  0.6230 -0.9674  0.8338
 5802TIP3   OH217366   0.994   1.553   0.688  0.2446 -0.3072  0.1391
 5802TIP3    H117367   0.951   1.637   0.703 -0.2697 -0.3902 -0.7683
 5802TIP3    H217368   1.027   1.559   0.598  0.4354 -0.9777  0.1600
 5803TIP3   OH217369   0.891   5.177   1.101 -0.2924  0.0891  0.8208
 5803TIP3    H117370   0.807   5.212   1.130 -0.5195  0.3042 -0.0881
 5803TIP3    H217371   0.893   5.193   1.007  0.2784 -0.9405  0.6449
 5804TIP3   OH217372   4.738   6.761   0.456 -0.1630  0.2312 -0.4581
 5804TIP3    H117373   4.658   6.712   0.439 -0.3599  0.6658 -0.7690
 5804TIP3    H217374   4.721   6.807   0.538 -0.1951  0.2548 -0.4783
 5805TIP3   OH217375   7.101   3.888   1.266 -0.0083 -0.6422 -0.1335
 5805TIP3    H117376   7.113   3.977   1.232  2.2542 -1.5001 -1.8482
 5805TIP3    H217377   7.040   3.847   1.205 -0.0207 -0.6612 -0.1086
 5806TIP3   OH217378   0.947   3.277   2.233 -0.0645  0.2784 -0.6343
 5806TIP3    H117379   0.938   3.268   2.139 -1.2611 -0.5675 -0.4578
 5806TIP3    H217380   0.926   3.369   2.251 -1.2959  0.0981 -1.0559
 5807TIP3   OH217381   3.444   0.259   3.777  0.7101 -0.1482 -0.1938
 5807TIP3    H117382   3.462   0.179   3.727 -1.4335 -1.6082  1.1972
 5807TIP3    H217383   3.467   0.237   3.867 -0.1120  0.7138  0.2444
 5808TIP3   OH217384   5.135   6.788   4.315  0.0230 -0.3095 -0.0610
 5808TIP3    H117385   5.139   6.846   4.239  0.4200  0.5895  0.6407
 5808TIP3    H217386   5.104   6.705   4.279  1.8798 -0.4426 -1.5452
 5809TIP3   OH217387   7.533   5.005   1.870  0.4960  0.5525 -0.9819
 5809TIP3    H117388   7.624   5.035   1.873  1.0679 -1.1272  1.7167
 5809TIP3    H217389   7.539   4.910   1.862 -1.0410  0.4778 -1.4346
 5810TIP3   OH217390   3.683   1.086   2.527 -0.0820  0.1641 -0.0839
 5810TIP3    H117391   3.664   1.066   2.619 -0.7696  1.3524  0.0553
 5810TIP3    H217392   3.628   1.162   2.507 -0.6869 -0.6609 -1.7755
 5811TIP3   OH217393   7.546   5.652   0.428 -0.2202 -0.1123  0.4305
 5811TIP3    H117394   7.457   5.662   0.461  0.3192  1.7615  1.4625
 5811TIP3    H217395   7.601   5.694   0.494  1.4094 -0.8788 -0.3749
 5812TIP3   OH217396   3.063   0.526   3.447  0.1128 -0.0452  0.0526
 5812TIP3    H117397   2.974   0.499   3.472  0.3215 -0.0579  0.8007
 5812TIP3    H217398   3.120   0.484   3.512  0.6425  0.2366 -0.2232
 5813TIP3   OH217399   6.130   1.773   3.742 -0.0742  0.2900  0.2890
 5813TIP3    H117400   6.061   1.760   3.676  1.7300 -1.0055 -1.4350
 5813TIP3    H217401   6.155   1.685   3.769  1.5176  0.6864  0.1958
 5814TIP3   OH217402   5.811   3.473   1.360 -0.5070  0.4331 -0.2506
 5814TIP3    H117403   5.744   3.461   1.292 -0.6743  3.8526 -0.8566
 5814TIP3    H217404   5.792   3.559   1.396  2.6636  0.8421  0.6584
 5815TIP3   OH217405   2.913   3.982   5.381  0.1881 -0.2486 -1.2933
 5815TIP3    H117406   2.938   4.068   5.349 -2.4680  2.1731  2.3412
 5815TIP3    H217407   2.968   3.967   5.457 -2.5492  0.7228  1.0386
 5816TIP3   OH217408   1.757   2.643   3.873 -0.1381  0.7071 -0.0014
 5816TIP3    H117409   1.708   2.618   3.796  0.3500  3.5274 -1.3718
 5816TIP3    H217410   1.848   2.621   3.853 -0.2451 -0.3074  0.5948
 5817TIP3   OH217411   3.865   5.260   5.037  0.2183 -0.4646 -0.3095
 5817TIP3    H117412   3.888   5.169   5.054 -0.3963 -0.6625 -0.5288
 5817TIP3    H217413   3.792   5.256   4.975  0.3806  0.1824 -0.5531
 5818TIP3   OH217414   4.150   4.008   4.328 -0.0790  0.6380 -0.0661
 5818TIP3    H117415   4.083   4.017   4.260 -0.0051  3.8969  0.1078
 5818TIP3    H217416   4.102   3.983   4.407 -0.7495  0.6390 -0.4691
 5819TIP3   OH217417   5.639   5.950   4.117 -0.2301  0.4321  0.9008
 5819TIP3    H117418   5.585   5.875   4.142 -1.1824  0.4844 -0.8309
 5819TIP3    H217419   5.692   5.968   4.195  0.6660 -2.5497  1.1273
 5820TIP3   OH217420   5.570   0.451   5.998  0.0427 -0.2802 -0.0873
 5820TIP3    H117421   5.589   0.442   5.904  2.1159  2.4542 -0.0700
 5820TIP3    H217422   5.477   0.431   6.006 -0.1611 -0.7211 -2.7046
 5821TIP3   OH217423   3.064   2.463   1.330 -0.2440 -0.0795  0.0938
 5821TIP3    H117424   2.982   2.479   1.283  0.0944  1.7001  0.0521
 5821TIP3    H217425   3.104   2.549   1.338  0.0229 -0.3961  3.0951
 5822TIP3   OH217426   4.662   4.269   3.984 -0.3404  0.2834  0.1429
 5822TIP3    H117427   4.753   4.248   3.965 -0.5308 -1.2525  0.7718
 5822TIP3    H217428   4.665   4.321   4.064  0.0657  1.7535 -0.7852
 5823TIP3   OH217429   1.006   5.423   4.355 -0.0336  0.4008  0.4625
 5823TIP3    H117430   1.062   5.480   4.409  2.0572 -0.5753 -0.5477
 5823TIP3    H217431   0.975   5.480   4.285  1.0984  0.5982  0.0964
 5824TIP3   OH217432   2.747   0.823   0.029 -0.4030  0.2429  0.0194
 5824TIP3    H117433   2.659   0.788   0.016 -1.2146  2.4001 -0.6838
 5824TIP3    H217434   2.751   0.900  -0.029  2.1289 -0.0893 -0.3491
 5825TIP3   OH217435   4.580   0.151   5.211 -0.0633 -0.3475 -0.3384
 5825TIP3    H117436   4.651   0.151   5.276 -1.3019  0.0580  1.0634
 5825TIP3    H217437   4.521   0.082   5.241  0.2784 -1.5126 -2.1672
 5826TIP3   OH217438   3.829   7.105   5.738 -0.2056 -0.0796  0.5500
 5826TIP3    H117439   3.783   7.162   5.799  0.2230  0.1072  0.6997
 5826TIP3    H217440   3.842   7.023   5.786  1.7510  0.6709  1.3826
 5827TIP3   OH217441   5.550   1.935   6.082  0.2946 -0.2131  0.2162
 5827TIP3    H117442   5.581   1.947   5.992 -0.2928 -2.9821 -0.4631
 5827TIP3    H217443   5.622   1.889   6.125  1.2036  2.4018  1.6978
 5828TIP3   OH217444   5.943   3.911   4.528  0.1819 -0.0410 -0.4279
 5828TIP3    H117445   5.913   3.831   4.484 -1.7472  0.5080 -0.2184
 5828TIP3    H217446   6.030   3.927   4.492  0.0605 -1.4958 -1.4715
 5829TIP3   OH217447   0.283   5.078   3.823 -0.4078  0.0080  0.0090
 5829TIP3    H117448   0.361   5.093   3.876  0.2034  0.7071 -1.0609
 5829TIP3    H217449   0.306   5.109   3.735 -2.3865  1.7038 -0.0016
 5830TIP3   OH217450   0.717   2.190   2.452 -0.4664 -0.3851  0.9437
 5830TIP3    H117451   0.769   2.211   2.530  0.5301  1.5795 -0.1543
 5830TIP3    H217452   0.679   2.274   2.426 -0.0770 -0.8081 -1.1626
 5831TIP3   OH217453   5.282   6.040   4.159 -0.0431  0.2161  0.2382
 5831TIP3    H117454   5.282   5.985   4.238 -0.1259  1.0101  0.7947
 5831TIP3    H217455   5.244   5.983   4.091 -1.6909  0.1227  1.1856
 5832TIP3   OH217456   0.965   5.182   0.587  0.2528  0.6071 -0.2561
 5832TIP3    H117457   1.056   5.154   0.589  0.2593  0.6521  0.8112
 5832TIP3    H217458   0.927   5.146   0.667 -0.8364  0.0521 -0.9997
 5833TIP3   OH217459   1.546   5.269   2.086  0.2771 -0.2689  0.2402
 5833TIP3    H117460   1.549   5.251   2.180 -1.6785  0.7278  0.5537
 5833TIP3    H217461   1.453   5.261   2.063  0.7042 -0.4077 -1.6006
 5834TIP3   OH217462   4.284   0.039   0.088 -0.0299 -0.3553  0.4109
 5834TIP3    H117463   4.380   0.044   0.082  0.0470  1.5222  2.1834
 5834TIP3    H217464   4.267  -0.018   0.162 -0.2003  0.8515  1.3324
 5835TIP3   OH217465   0.122   5.353   5.194 -0.1624 -0.1053 -0.1419
 5835TIP3    H117466   0.111   5.393   5.108 -2.7678 -1.9544 -0.7858
 5835TIP3    H217467   0.163   5.268   5.175 -1.5088 -0.8833  0.2918
 5836TIP3   OH217468   0.342   2.909   2.779  0.0228 -0.0663  0.5883
 5836TIP3    H117469   0.376   2.986   2.825  1.1466  0.9101 -1.7065
 5836TIP3    H217470   0.405   2.840   2.797  0.9274  0.5456 -0.1261
 5837TIP3   OH217471   4.701   3.425   3.216 -0.2155 -0.0541  0.3142
 5837TIP3    H117472   4.750   3.497   3.176  0.6518  0.0956  1.5702
 5837TIP3    H217473   4.633   3.403   3.152  0.0998  1.2391 -0.5009
 5838TIP3   OH217474   2.202   3.683   1.145  0.0124 -0.1624  0.2005
 5838TIP3    H117475   2.148   3.729   1.209  0.4019  1.8610 -0.8316
 5838TIP3    H217476   2.139   3.639   1.087 -0.4425  0.4241  0.2474
 5839TIP3   OH217477   6.830   1.260   2.592 -0.3031 -0.2793 -0.3666
 5839TIP3    H117478   6.793   1.218   2.669 -1.0055 -0.3970 -0.7558
 5839TIP3    H217479   6.897   1.200   2.561 -0.8918 -0.8425 -0.5745
 5840TIP3   OH217480   0.532   6.928   5.048 -0.0105 -0.2695 -0.2732
 5840TIP3    H117481   0.477   6.973   5.112 -0.2155 -0.1356 -0.5415
 5840TIP3    H217482   0.607   6.897   5.098 -0.6687 -1.0611  0.2499
 5841TIP3   OH217483   4.130   0.455   2.821 -0.3537 -0.0353 -0.0673
 5841TIP3    H117484   4.086   0.535   2.850  0.5149  0.7695 -0.9233
 5841TIP3    H217485   4.209   0.485   2.775 -0.0483 -1.3765 -0.4799
 5842TIP3   OH217486   2.822   5.432   1.614  0.4209  0.2610  0.1306
 5842TIP3    H117487   2.748   5.488   1.634  0.4113  1.0292 -1.8003
 5842TIP3    H217488   2.869   5.479   1.545  0.7200 -1.8185 -1.1635
 5843TIP3   OH217489   1.910   6.973   5.684 -0.5892  0.3390  0.0868
 5843TIP3    H117490   2.002   6.950   5.666 -0.4632  0.8710  0.0476
 5843TIP3    H217491   1.911   7.008   5.773 -0.8909 -0.3971  0.3915
 5844TIP3   OH217492   4.606   1.963   0.314 -0.1905 -0.0825 -0.2615
 5844TIP3    H117493   4.701   1.967   0.319 -0.0442 -1.4766 -1.4087
 5844TIP3    H217494   4.587   1.936   0.224 -1.6772  0.3430 -0.1074
 5845TIP3   OH217495   7.232   1.595   5.303  0.1026  0.0902  0.2284
 5845TIP3    H117496   7.288   1.635   5.237 -0.3924  0.9797  0.3264
 5845TIP3    H217497   7.189   1.669   5.346  1.1614 -0.3961  2.2499
 5846TIP3   OH217498   3.155   1.022   0.553  0.2663  0.5087  0.6305
 5846TIP3    H117499   3.067   0.999   0.524 -0.3601  0.9003  2.1124
 5846TIP3    H217500   3.166   1.113   0.525 -0.3580  0.9056  1.6224
 5847TIP3   OH217501   6.480   3.502   0.906  0.0525 -0.4878  0.3693
 5847TIP3    H117502   6.453   3.411   0.913  1.2077 -0.8359  0.5420
 5847TIP3    H217503   6.402   3.548   0.875 -0.3690 -1.6319 -0.3467
 5848TIP3   OH217504   3.217   6.803   1.127 -0.2268 -0.4011 -0.5439
 5848TIP3    H117505   3.258   6.869   1.070 -0.2866  0.7071  0.6597
 5848TIP3    H217506   3.141   6.773   1.078 -0.3361  0.6140 -1.0170
 5849TIP3   OH217507   3.108   1.395   1.388  0.0757 -0.2704 -0.3269
 5849TIP3    H117508   3.065   1.325   1.338 -0.1970 -0.0187 -0.4424
 5849TIP3    H217509   3.057   1.402   1.469 -1.2553  1.3019 -1.2564
 5850TIP3   OH217510   4.197   5.576   0.088  0.0464 -0.2196 -0.1752
 5850TIP3    H117511   4.109   5.575   0.125  0.2888 -1.0807  0.3870
 5850TIP3    H217512   4.233   5.660   0.116  0.5085 -1.1539  2.2845
 5851TIP3   OH217513   1.792   5.380   2.085 -0.3370 -0.1813 -0.2658
 5851TIP3    H117514   1.709   5.335   2.073 -0.2300 -0.7629  1.0669
 5851TIP3    H217515   1.823   5.352   2.170  1.2781 -0.0344 -0.7721
 5852TIP3   OH217516   7.009   4.756   2.391  0.4586  0.4022  0.3859
 5852TIP3    H117517   7.038   4.666   2.403  0.7921  0.7763  2.7411
 5852TIP3    H217518   6.931   4.764   2.446  0.0337  1.3919 -0.3213
 5853TIP3   OH217519   6.568   2.665   2.278 -0.1391 -0.6904 -0.0517
 5853TIP3    H117520   6.654   2.699   2.252 -0.5495  0.7707  0.3760
 5853TIP3    H217521   6.585   2.575   2.305  0.6069 -1.8326 -3.6567
 5854TIP3   OH217522   1.211   4.576   5.003  0.0802  0.1695 -0.2392
 5854TIP3    H117523   1.130   4.623   4.981  0.4566  0.5975 -0.7256
 5854TIP3    H217524   1.181   4.496   5.047 -0.5675  2.0563  3.1422
 5855TIP3   OH217525   4.019   2.078   5.196  0.4841 -0.0445  0.1467
 5855TIP3    H117526   3.940   2.027   5.178  0.9745 -0.8847  0.3357
 5855TIP3    H217527   3.992   2.168   5.181 -0.5626 -0.2974  0.3823
 5856TIP3   OH217528   7.104   1.040   0.045 -0.2916 -0.3872  0.0872
 5856TIP3    H117529   7.194   1.069   0.063  0.2258 -0.9055 -1.4813
 5856TIP3    H217530   7.094   1.051  -0.050 -2.2710  0.6727  0.3468
 5857TIP3   OH217531   3.922   6.859   5.040  0.0874 -0.7689  0.1428
 5857TIP3    H117532   3.844   6.821   5.000 -0.0857  0.0212 -0.2995
 5857TIP3    H217533   3.972   6.893   4.966 -0.3634  0.9608  0.5851
 5858TIP3   OH217534   5.504   2.802   0.269  0.0356 -0.3222 -0.3105
 5858TIP3    H117535   5.538   2.722   0.230 -0.1310 -0.3299 -0.4384
 5858TIP3    H217536   5.413   2.806   0.243  0.6104  1.1286 -2.3560
 5859TIP3   OH217537   2.879   0.179   1.628  0.5245 -0.2434 -0.7488
 5859TIP3    H117538   2.791   0.156   1.660  1.4308 -2.0062  0.6598
 5859TIP3    H217539   2.863   0.247   1.563 -1.6870  1.8927  1.7382
 5860TIP3   OH217540   5.489   3.583   5.702 -0.1372 -0.2877 -0.7070
 5860TIP3    H117541   5.438   3.508   5.672 -1.1529 -0.2396  0.8148
 5860TIP3    H217542   5.534   3.553   5.780 -0.3184  0.5743 -0.2517
 5861TIP3   OH217543   5.293   5.152   5.691 -0.2968  0.5196  0.0556
 5861TIP3    H117544   5.287   5.243   5.662 -0.0916  0.6485  0.4063
 5861TIP3    H217545   5.208   5.133   5.730 -0.0901  0.8077  0.6684
 5862TIP3   OH217546   3.238   0.501   1.836 -0.1827 -0.6629 -0.5653
 5862TIP3    H117547   3.321   0.547   1.850 -0.0707 -1.1569  0.5520
 5862TIP3    H217548   3.264   0.413   1.807 -0.1954 -1.4249  1.5349
 5863TIP3   OH217549   7.337   3.743   2.178  0.1874 -0.1473 -0.6801
 5863TIP3    H117550   7.336   3.746   2.082  1.1454  2.1526 -0.7073
 5863TIP3    H217551   7.430   3.730   2.200  0.3392  1.6060 -0.1253
 5864TIP3   OH217552   5.288   3.629   3.244  0.0850  0.7519  0.7118
 5864TIP3    H117553   5.359   3.691   3.258  0.2802  0.5344  0.6856
 5864TIP3    H217554   5.326   3.544   3.264  0.3708  0.4290 -1.1087
 5865TIP3   OH217555   2.687   5.055   0.128 -0.6463  0.2802 -0.2157
 5865TIP3    H117556   2.746   4.985   0.158 -1.0226  0.3640  0.7617
 5865TIP3    H217557   2.600   5.026   0.156 -0.9021  0.7598 -0.5182
 5866TIP3   OH217558   5.834   2.248   1.814  0.1492  0.3273  0.1085
 5866TIP3    H117559   5.749   2.243   1.769  0.8169  1.5022 -1.3477
 5866TIP3    H217560   5.818   2.204   1.898 -1.8061  0.2222 -0.2548
 5867TIP3   OH217561   1.847   3.024   5.704  0.4738 -0.3414 -0.0138
 5867TIP3    H117562   1.773   2.976   5.666 -0.0788  1.2072 -1.0074
 5867TIP3    H217563   1.881   3.076   5.631  0.3704  1.5546  1.2321
 5868TIP3   OH217564   1.931   7.194   1.239 -0.4509 -0.5043 -0.5083
 5868TIP3    H117565   2.019   7.179   1.272 -0.7461 -0.6870  0.2081
 5868TIP3    H217566   1.913   7.119   1.182 -0.9575 -1.6145  1.0555
 5869TIP3   OH217567   2.935   3.547   2.824 -0.1920 -0.0235 -0.2600
 5869TIP3    H117568   2.863   3.560   2.763 -0.6818 -0.2518  0.2582
 5869TIP3    H217569   2.892   3.528   2.908  0.4658  0.1065  0.1136
 5870TIP3   OH217570   3.809   2.550   0.037  0.0278 -0.2708  0.3862
 5870TIP3    H117571   3.717   2.529   0.022  0.3763 -1.9903  0.3951
 5870TIP3    H217572   3.807   2.627   0.094 -1.3817  0.2408 -0.3087
 5871TIP3   OH217573   7.210   4.460   2.980 -0.3836  0.3513 -0.3171
 5871TIP3    H117574   7.180   4.530   2.922 -0.5520  1.1493  0.7188
 5871TIP3    H217575   7.130   4.412   3.003 -0.4395  0.5916 -0.0146
 5872TIP3   OH217576   5.897   6.971   4.709 -0.3783 -0.5438 -0.4143
 5872TIP3    H117577   5.984   6.938   4.687  1.4511  3.5466 -0.3079
 5872TIP3    H217578   5.913   7.055   4.751 -4.4006 -0.2180  0.9397
 5873TIP3   OH217579   5.769   2.842   2.984  0.0143 -0.1646  0.4234
 5873TIP3    H117580   5.798   2.785   2.912 -0.6862 -2.6336  1.9769
 5873TIP3    H217581   5.756   2.783   3.058 -0.4059  2.1149  2.2921
 5874TIP3   OH217582   3.343   0.342   4.500  0.1715 -0.1954  0.3310
 5874TIP3    H117583   3.433   0.326   4.527  0.0466 -0.1446  0.7878
 5874TIP3    H217584   3.298   0.366   4.581 -0.2239 -0.1024  0.0838
 5875TIP3   OH217585   1.894   7.141   0.527  0.2555  0.1618 -0.5093
 5875TIP3    H117586   1.930   7.211   0.582  0.5172 -0.2800 -0.1043
 5875TIP3    H217587   1.969   7.085   0.507 -0.1498 -0.6404  0.1495
 5876TIP3   OH217588   2.760   2.876   0.841  0.5720 -0.6106  0.4302
 5876TIP3    H117589   2.728   2.818   0.773 -2.0161 -0.6026  1.5487
 5876TIP3    H217590   2.794   2.952   0.794  0.6403 -1.4275 -0.8925
 5877TIP3   OH217591   6.971   1.295   3.226 -0.4017 -0.1180 -0.0132
 5877TIP3    H117592   7.064   1.304   3.244 -0.5243  1.1489  0.1010
 5877TIP3    H217593   6.954   1.359   3.156 -1.3095  0.1639  0.4476
 5878TIP3   OH217594   0.645   2.470   4.672 -0.5606  0.3374 -0.0754
 5878TIP3    H117595   0.625   2.417   4.749 -0.0816 -0.3065 -0.3866
 5878TIP3    H217596   0.738   2.455   4.655 -0.8467 -0.2351 -1.2989
 5879TIP3   OH217597   2.987   4.445   1.051 -0.4448 -0.3374  0.2987
 5879TIP3    H117598   3.075   4.483   1.048 -0.4283 -0.3957 -0.1195
 5879TIP3    H217599   2.948   4.480   1.131  0.3075 -1.1131  1.0090
 5880TIP3   OH217600   5.249   2.984   0.659 -0.4422 -0.0342 -0.5135
 5880TIP3    H117601   5.335   2.992   0.618 -0.6257  0.2268 -0.8527
 5880TIP3    H217602   5.187   2.986   0.586 -0.7504 -0.0001 -0.2556
 5881TIP3   OH217603   2.904   5.777   1.089 -0.1221 -0.3127  0.8338
 5881TIP3    H117604   2.889   5.816   1.175 -1.7474  0.7809  0.1024
 5881TIP3    H217605   2.834   5.712   1.080  0.0904 -0.4807  0.3639
 5882TIP3   OH217606   4.893   4.746   3.422  0.0846 -0.2683  0.4136
 5882TIP3    H117607   4.981   4.710   3.436  1.0088  0.9643 -1.7614
 5882TIP3    H217608   4.835   4.671   3.433  1.4772 -1.3068  1.0167
 5883TIP3   OH217609   2.012   4.223   5.425 -0.0169  0.4776  0.2459
 5883TIP3    H117610   2.074   4.155   5.400 -1.3808 -0.3952 -0.9685
 5883TIP3    H217611   1.953   4.231   5.349 -0.1968  2.6933  0.5257
 5884TIP3   OH217612   4.090   4.336   5.053  0.2727  0.1498  0.5433
 5884TIP3    H117613   4.160   4.369   5.110  0.6560 -2.2550  1.6056
 5884TIP3    H217614   4.061   4.412   5.004  0.9988  2.0387  2.8441
 5885TIP3   OH217615   0.765   3.730   5.153  0.1049  0.4689 -0.4376
 5885TIP3    H117616   0.736   3.796   5.091  0.9345  0.4452 -0.8604
 5885TIP3    H217617   0.832   3.774   5.205 -0.1537  0.3041  0.0422
 5886TIP3   OH217618   2.009   6.197   3.671 -0.2459 -0.0999 -0.0634
 5886TIP3    H117619   1.923   6.197   3.713 -0.5414  0.2426 -0.6692
 5886TIP3    H217620   1.998   6.249   3.592  0.7974  0.9225  0.4284
 5887TIP3   OH217621   4.341   3.979   2.932  0.9571  0.0353 -0.3967
 5887TIP3    H117622   4.318   3.886   2.943 -0.4273  0.4954  0.7994
 5887TIP3    H217623   4.435   3.982   2.948  1.0975 -1.2123 -0.8406
 5888TIP3   OH217624   7.481   1.408   1.734 -0.2298  0.2789 -0.1738
 5888TIP3    H117625   7.459   1.375   1.820 -1.0861 -1.7470 -1.1167
 5888TIP3    H217626   7.471   1.503   1.741 -1.4769  0.0499  1.5950
 5889TIP3   OH217627   4.681   3.004   3.373 -0.2848  0.2406  0.1667
 5889TIP3    H117628   4.694   3.046   3.459  0.9332 -0.7157  0.4684
 5889TIP3    H217629   4.696   2.911   3.389 -1.8674 -0.2135 -0.7256
 5890TIP3   OH217630   0.780   0.788   0.523 -0.7547  0.3007 -0.0568
 5890TIP3    H117631   0.796   0.882   0.527 -0.3869  0.2563 -0.3489
 5890TIP3    H217632   0.820   0.753   0.602  0.5808  0.2002 -0.7487
 5891TIP3   OH217633   1.002   3.892   5.244  0.3235 -0.2510  0.0652
 5891TIP3    H117634   0.996   3.980   5.282 -2.8995 -0.4744  0.3587
 5891TIP3    H217635   1.063   3.846   5.301  0.8924  1.3358  0.8208
 5892TIP3   OH217636   4.970   0.571   3.171 -0.4335  0.1609 -0.4045
 5892TIP3    H117637   4.922   0.490   3.155 -0.4629 -0.0457  0.6964
 5892TIP3    H217638   5.025   0.581   3.094  0.5375 -1.6008  0.0198
 5893TIP3   OH217639   1.059   6.945   5.587  0.1382 -0.1876 -0.1032
 5893TIP3    H117640   1.121   6.904   5.528  0.9277  0.0370  0.5560
 5893TIP3    H217641   0.989   6.977   5.530  0.9162  0.0813 -0.9220
 5894TIP3   OH217642   2.735   5.719   3.736 -0.4426  0.2902  0.2945
 5894TIP3    H117643   2.689   5.756   3.811  0.1518 -0.6198  1.1245
 5894TIP3    H217644   2.800   5.785   3.713  0.8133 -0.3085  1.9540
 5895TIP3   OH217645   1.469   0.831   1.713  0.5509 -0.4869 -0.2177
 5895TIP3    H117646   1.513   0.878   1.643  0.5341 -0.0158  0.0848
 5895TIP3    H217647   1.486   0.738   1.695  1.2048 -0.3312 -0.4045
 5896TIP3   OH217648   4.000   4.070   1.873 -0.3292  0.3658  0.8162
 5896TIP3    H117649   3.936   4.130   1.912 -0.0556  1.5982 -0.5459
 5896TIP3    H217650   3.980   3.985   1.913 -2.5214  0.7971  0.7864
 5897TIP3   OH217651   6.650   1.616   1.875  0.2388 -0.5239 -0.1671
 5897TIP3    H117652   6.613   1.700   1.852 -0.7243 -0.0912  2.5610
 5897TIP3    H217653   6.578   1.554   1.865  0.3247 -0.6431 -0.0507
 5898TIP3   OH217654   7.037   0.713   1.653  0.0966 -0.1213  0.2508
 5898TIP3    H117655   6.959   0.763   1.677  0.0583 -0.1404  0.1672
 5898TIP3    H217656   7.021   0.685   1.563  0.1176 -0.2845  0.2982
 5899TIP3   OH217657   2.306   0.301   3.779  0.2487  0.1812 -0.6494
 5899TIP3    H117658   2.235   0.347   3.822  0.5493 -1.1856  1.4792
 5899TIP3    H217659   2.370   0.285   3.848  1.2860 -1.1741 -1.8445
 5900TIP3   OH217660   4.790   5.696   4.958  0.6699  0.4385  0.3537
 5900TIP3    H117661   4.874   5.722   4.996  0.2499  2.9141 -0.2541
 5900TIP3    H217662   4.734   5.678   5.034  0.7393  2.2788  0.8853
 5901TIP3   OH217663   4.256   5.567   4.336  0.3991 -0.0273  0.1232
 5901TIP3    H117664   4.207   5.646   4.358 -2.9508 -2.3501  2.0569
 5901TIP3    H217665   4.256   5.516   4.417 -1.5331 -3.7987 -1.9970
 5902TIP3   OH217666   3.670   0.127   3.563  0.1897 -1.1044  0.0913
 5902TIP3    H117667   3.754   0.118   3.517  0.1792 -0.0042 -0.1815
 5902TIP3    H217668   3.691   0.178   3.641 -0.4314  0.4787 -0.7145
 5903TIP3   OH217669   5.313   6.805   4.587  0.3990 -0.2739  0.3181
 5903TIP3    H117670   5.329   6.883   4.640  1.1868 -0.2592  0.0737
 5903TIP3    H217671   5.328   6.835   4.497  0.3214 -0.6107  0.1925
 5904TIP3   OH217672   0.157   1.215   5.072  0.1923  0.1340  0.0646
 5904TIP3    H117673   0.114   1.278   5.129 -0.4593  0.4420 -0.7347
 5904TIP3    H217674   0.119   1.131   5.095 -0.5915  0.3553 -0.3842
 5905TIP3   OH217675   6.926   4.386   3.047  0.1907 -0.3297  0.6392
 5905TIP3    H117676   6.914   4.333   3.126 -0.3901  0.0873  0.8443
 5905TIP3    H217677   6.901   4.475   3.074  0.7646 -0.0292  0.1972
 5906TIP3   OH217678   3.551   3.544   3.751  0.0379 -0.2557 -0.1203
 5906TIP3    H117679   3.595   3.627   3.768 -0.6736  0.1332 -0.1326
 5906TIP3    H217680   3.600   3.506   3.678 -0.3087  0.6896 -0.8773
 5907TIP3   OH217681   6.565   0.587   0.807  0.0717 -0.3351 -0.0950
 5907TIP3    H117682   6.504   0.572   0.735  0.0888  0.2966 -0.2432
 5907TIP3    H217683   6.583   0.681   0.806  0.3786 -0.3754  0.4871
 5908TIP3   OH217684   3.702   2.753   4.166 -0.4038  0.0195 -0.8010
 5908TIP3    H117685   3.607   2.759   4.177 -0.2148  1.2107  0.3903
 5908TIP3    H217686   3.715   2.671   4.118 -1.9873 -0.5478 -0.3359
 5909TIP3   OH217687   0.658   5.295   2.954 -0.3549 -0.3130  0.6736
 5909TIP3    H117688   0.681   5.202   2.965 -0.3280 -0.6041 -1.4411
 5909TIP3    H217689   0.728   5.331   2.900 -0.4098  0.9518  1.4065
 5910TIP3   OH217690   4.803   0.891   4.470  0.9299 -0.4003  0.5993
 5910TIP3    H117691   4.805   0.986   4.456 -1.8756  0.0311  2.2325
 5910TIP3    H217692   4.811   0.853   4.383  0.0504  1.4517 -0.3523
 5911TIP3   OH217693   0.057   4.256   0.260 -0.1856 -0.4252  0.0530
 5911TIP3    H117694   0.147   4.257   0.226  0.0322 -0.2324  0.6250
 5911TIP3    H217695   0.068   4.251   0.355 -0.7803  0.0451  0.1470
 5912TIP3   OH217696   1.935   0.014   5.059  0.0975 -0.1636  0.8796
 5912TIP3    H117697   1.937   0.095   5.108 -0.5913  1.8300 -2.1213
 5912TIP3    H217698   1.861   0.023   4.999  1.3415 -1.9884 -1.1184
 5913TIP3   OH217699   7.071   3.902   5.771 -0.0471 -0.2129 -0.3376
 5913TIP3    H117700   7.013   3.877   5.843 -0.5161  2.3429  0.2862
 5913TIP3    H217701   7.038   3.854   5.695 -3.5543  1.6249 -0.1929
 5914TIP3   OH217702   1.268   6.018   4.139 -0.5843 -0.4976  0.0566
 5914TIP3    H117703   1.267   5.923   4.128  0.7172 -0.3814 -1.3302
 5914TIP3    H217704   1.336   6.034   4.205 -1.1590 -0.5436  0.6712
 5915TIP3   OH217705   2.328   5.284   5.746  0.4171  0.0092 -0.5820
 5915TIP3    H117706   2.286   5.208   5.706 -3.6298  1.4888  0.3650
 5915TIP3    H217707   2.311   5.355   5.685  0.7165  0.8758  0.3252
 5916TIP3   OH217708   2.080   3.500   0.620  0.3986  0.9711  0.4787
 5916TIP3    H117709   1.990   3.487   0.651  0.3726 -0.0501 -0.0047
 5916TIP3    H217710   2.122   3.550   0.691 -0.4662  1.2170  0.8318
 5917TIP3   OH217711   1.020   0.799   6.039  0.6558  0.5041 -0.3791
 5917TIP3    H117712   0.999   0.705   6.041 -2.1884  1.0372  1.5459
 5917TIP3    H217713   0.935   0.842   6.027  1.8699  2.8765 -1.0970
 5918TIP3   OH217714   0.663   1.415   4.842  0.1201 -0.8902  0.6647
 5918TIP3    H117715   0.740   1.362   4.864  0.5870 -0.8442 -0.7405
 5918TIP3    H217716   0.696   1.504   4.834 -0.4657 -0.5411  1.9691
 5919TIP3   OH217717   2.918   1.982   5.916  0.6575  0.2195  0.5611
 5919TIP3    H117718   2.854   2.046   5.947 -1.8359 -1.2766 -1.1180
 5919TIP3    H217719   2.931   1.923   5.989  0.3654  0.7086  1.0146
 5920TIP3   OH217720   1.575   3.518   1.058 -0.0390 -0.0315  0.3775
 5920TIP3    H117721   1.486   3.550   1.071 -0.6824 -2.0114  1.3083
 5920TIP3    H217722   1.620   3.539   1.140 -0.9686 -2.8577  1.7363
 5921TIP3   OH217723   3.028   6.832   5.491  0.0709 -1.0714 -0.7848
 5921TIP3    H117724   2.951   6.776   5.481 -1.5915  0.9933 -0.1498
 5921TIP3    H217725   3.005   6.894   5.559  1.9062  0.2788 -1.3027
 5922TIP3   OH217726   0.532   3.318   2.798 -0.2779 -0.0604 -0.1338
 5922TIP3    H117727   0.532   3.228   2.831  0.5879 -0.0248 -0.0070
 5922TIP3    H217728   0.442   3.334   2.771 -0.3633 -1.0924 -0.4966
 5923TIP3   OH217729   4.232   3.445   1.719  0.2458 -0.4585  0.2016
 5923TIP3    H117730   4.300   3.508   1.696 -1.5131  0.9079 -1.7830
 5923TIP3    H217731   4.186   3.486   1.792  0.8764 -0.8531  0.8223
 5924TIP3   OH217732   2.277   5.366   0.778  0.1201 -0.1737 -0.1219
 5924TIP3    H117733   2.192   5.330   0.805  0.1324 -0.7393 -0.7892
 5924TIP3    H217734   2.340   5.297   0.800  0.4169  0.2695  0.4276
 5925TIP3   OH217735   4.959   3.415   2.913  0.1567 -0.3893  0.0341
 5925TIP3    H117736   4.895   3.485   2.920 -0.0975 -0.6790  0.6930
 5925TIP3    H217737   5.027   3.449   2.854  0.1265  0.4704  0.4879
 5926TIP3   OH217738   4.537   3.706   5.903  0.1506  0.3103 -0.7719
 5926TIP3    H117739   4.582   3.788   5.925 -1.6490  1.5192 -1.3360
 5926TIP3    H217740   4.524   3.711   5.808  0.3821 -0.8382 -0.8754
 5927TIP3   OH217741   5.629   0.330   2.151  0.0756 -0.0496 -0.1396
 5927TIP3    H117742   5.542   0.305   2.120 -0.5747 -0.5984  1.9520
 5927TIP3    H217743   5.621   0.423   2.173  0.7739  0.5556 -2.3009
 5928TIP3   OH217744   1.874   3.811   0.712 -0.8302  0.2000 -0.4325
 5928TIP3    H117745   1.781   3.829   0.698 -0.8802  1.4216  1.1266
 5928TIP3    H217746   1.877   3.772   0.799  0.1567  0.5655 -0.2977
 5929TIP3   OH217747   1.743   6.581   5.228 -0.0684  0.3144 -0.9441
 5929TIP3    H117748   1.677   6.624   5.175  0.7406  0.2679 -2.0326
 5929TIP3    H217749   1.825   6.595   5.181  1.0677  2.0755  1.3452
 5930TIP3   OH217750   3.009   3.379   5.727  0.2408  0.5708  0.0030
 5930TIP3    H117751   2.914   3.387   5.737  0.1705 -0.0801 -0.0479
 5930TIP3    H217752   3.035   3.452   5.671 -0.0439  1.5113  1.0631
 5931TIP3   OH217753   7.298   5.453   3.058  0.0369 -0.2400  0.2605
 5931TIP3    H117754   7.389   5.446   3.028  0.5299  2.4335  0.8578
 5931TIP3    H217755   7.255   5.505   2.992 -0.5810  0.0673  0.8929
 5932TIP3   OH217756   0.060   2.681   0.754  0.2463  0.2107  0.0136
 5932TIP3    H117757   0.151   2.687   0.783 -0.2915  0.5249  1.7908
 5932TIP3    H217758   0.016   2.753   0.800 -0.8986  0.1098 -0.8702
 5933TIP3   OH217759   4.192   1.331   2.018  0.1586  0.2378 -0.4529
 5933TIP3    H117760   4.136   1.254   2.011  1.5448 -0.7328 -1.5312
 5933TIP3    H217761   4.211   1.337   2.112 -0.1552 -0.6007 -0.3224
 5934TIP3   OH217762   5.249   3.087   3.660  0.6880  0.0447  0.1545
 5934TIP3    H117763   5.217   3.159   3.607 -0.4100 -0.3845  0.2166
 5934TIP3    H217764   5.315   3.044   3.605  0.2141  0.1458 -0.5034
 5935TIP3   OH217765   4.448   4.045   1.233  0.2988  0.4231 -0.8709
 5935TIP3    H117766   4.543   4.034   1.228  0.5031  0.7633  1.3146
 5935TIP3    H217767   4.420   4.054   1.142  2.1647 -1.1576 -1.6722
 5936TIP3   OH217768   1.787   6.874   2.254 -0.2717 -0.4123 -0.1681
 5936TIP3    H117769   1.868   6.915   2.223  0.2046 -0.4160  1.0368
 5936TIP3    H217770   1.739   6.945   2.296 -0.3494 -0.6696  0.1781
 5937TIP3   OH217771   2.249   1.689   3.456  0.5063  0.4611  0.2461
 5937TIP3    H117772   2.154   1.689   3.470  0.5301  1.3003  0.4516
 5937TIP3    H217773   2.285   1.665   3.541  0.4844  0.2145  0.1872
 5938TIP3   OH217774   5.200   7.132   4.693 -0.3367 -0.3034 -0.6570
 5938TIP3    H117775   5.250   7.067   4.743  1.9367 -0.4123 -2.8483
 5938TIP3    H217776   5.110   7.101   4.697 -0.1279 -0.8593  2.3852
 5939TIP3   OH217777   0.452   4.607   4.720 -0.0030 -0.3228  0.2460
 5939TIP3    H117778   0.457   4.519   4.682 -0.1109 -0.6650  0.9970
 5939TIP3    H217779   0.367   4.608   4.764  0.6692 -0.4058  1.5815
 5940TIP3   OH217780   4.207   4.766   5.939 -0.1039 -0.4185  0.3929
 5940TIP3    H117781   4.245   4.776   5.852  0.5823 -0.4517  0.6853
 5940TIP3    H217782   4.209   4.854   5.976  0.7551 -0.6129  0.8381
 5941TIP3   OH217783   4.760   2.164   5.027 -0.7270 -0.2347  0.1024
 5941TIP3    H117784   4.754   2.126   4.939  1.2671 -0.1850 -0.0939
 5941TIP3    H217785   4.767   2.258   5.012  2.3582 -0.3839  0.0866
 5942TIP3   OH217786   4.178   3.371   1.176 -0.0712  0.5823  0.3200
 5942TIP3    H117787   4.086   3.357   1.199 -0.4321 -0.4340 -1.5400
 5942TIP3    H217788   4.204   3.292   1.129  1.5732  1.1304  0.2252
 5943TIP3   OH217789   4.330   1.424   4.787  0.6181  0.1520  0.0229
 5943TIP3    H117790   4.262   1.376   4.739 -0.8646  0.4300  1.7370
 5943TIP3    H217791   4.362   1.362   4.852 -0.0237  0.8835  1.0656
 5944TIP3   OH217792   6.216   5.485   2.532 -0.5907 -0.4725  0.3762
 5944TIP3    H117793   6.168   5.565   2.555  0.0227  0.1124 -0.3113
 5944TIP3    H217794   6.286   5.516   2.475 -0.4522 -1.5325 -0.0404
 5945TIP3   OH217795   0.123   5.677   5.404 -0.2219 -0.3026 -0.4242
 5945TIP3    H117796   0.116   5.598   5.457 -1.3121  0.1785  0.1893
 5945TIP3    H217797   0.051   5.733   5.434  0.2016  0.7095 -1.2038
 5946TIP3   OH217798   1.882   2.430   6.183  0.2183 -0.1688  0.5860
 5946TIP3    H117799   1.879   2.472   6.097 -2.7792  0.2787  0.8206
 5946TIP3    H217800   1.941   2.486   6.234  3.9243 -1.6745 -1.6397
 5947TIP3   OH217801   2.458   3.729   4.053  0.0648  0.3115  0.3319
 5947TIP3    H117802   2.364   3.742   4.067 -0.0096  0.4344 -0.2577
 5947TIP3    H217803   2.497   3.815   4.070  0.1770  0.0598  1.4045
 5948TIP3   OH217804   5.730   3.944   4.200  0.7513  0.0238  0.0445
 5948TIP3    H117805   5.797   3.923   4.134  0.6980 -1.3869  0.4054
 5948TIP3    H217806   5.649   3.908   4.164  0.6878 -0.6015  0.7857
 5949TIP3   OH217807   1.213   6.923   3.036 -0.3986 -0.3211  0.1288
 5949TIP3    H117808   1.192   6.984   3.107  0.5000 -0.5843  0.6399
 5949TIP3    H217809   1.251   6.978   2.968  0.5653 -0.2936  0.6544
 5950TIP3   OH217810   1.030   3.905   2.570 -0.3186 -0.0917  0.5766
 5950TIP3    H117811   1.095   3.854   2.522 -0.8875  0.7373 -1.1837
 5950TIP3    H217812   0.954   3.907   2.512 -0.8423  1.4693  1.2571
 5951TIP3   OH217813   7.434   1.394   2.013  0.0293 -0.0620 -0.0934
 5951TIP3    H117814   7.444   1.463   2.079  1.6932 -0.8710  0.5417
 5951TIP3    H217815   7.386   1.325   2.058 -3.2833  1.2797 -1.2553
 5952TIP3   OH217816   2.378   3.871   0.370  0.6279  0.1288 -0.3181
 5952TIP3    H117817   2.327   3.838   0.296  0.3161 -0.0901 -0.0042
 5952TIP3    H217818   2.466   3.835   0.356 -0.2721 -2.9850  1.3663
 5953TIP3   OH217819   1.477   4.127   1.477  0.1901  0.3698  0.1227
 5953TIP3    H117820   1.435   4.120   1.391 -0.1523 -1.0062  0.3794
 5953TIP3    H217821   1.570   4.123   1.458  0.0999 -1.3742 -0.1115
 5954TIP3   OH217822   5.879   6.047   4.869 -0.5526 -0.0047 -0.6930
 5954TIP3    H117823   5.846   5.957   4.871 -1.0304  0.1635 -0.8627
 5954TIP3    H217824   5.807   6.100   4.905 -0.5554  0.3875 -1.2501
 5955TIP3   OH217825   2.183   1.729   1.121  0.6922  0.2639 -0.1256
 5955TIP3    H117826   2.101   1.684   1.100  0.8862 -0.4573  0.5859
 5955TIP3    H217827   2.251   1.667   1.093  0.9866  0.6744 -0.3216
 5956TIP3   OH217828   0.446   2.064   2.892  0.2423 -0.2852  0.1476
 5956TIP3    H117829   0.450   2.015   2.810 -0.0460  1.5046 -1.0021
 5956TIP3    H217830   0.526   2.117   2.892 -0.2856  0.5467  0.4439
 5957TIP3   OH217831   3.682   0.911   6.087 -0.3097 -0.5773 -0.4230
 5957TIP3    H117832   3.680   0.823   6.051 -0.5923 -0.8308  0.2059
 5957TIP3    H217833   3.682   0.968   6.010 -2.9973 -1.0540 -0.8594
 5958TIP3   OH217834   0.032   4.203   6.201  0.7779  0.1305 -0.1411
 5958TIP3    H117835  -0.032   4.229   6.136  1.4896 -0.6897 -1.1990
 5958TIP3    H217836   0.095   4.149   6.153  1.9640  0.4701  0.9717
 5959TIP3   OH217837   4.868   4.546   5.349  0.6681 -0.0422 -0.2089
 5959TIP3    H117838   4.935   4.520   5.286  0.6431 -0.2215 -0.1608
 5959TIP3    H217839   4.916   4.599   5.413  0.6210  0.4589 -0.5869
 5960TIP3   OH217840   6.006   6.947   3.965  0.3479  0.1764  0.9037
 5960TIP3    H117841   6.066   6.974   4.034  1.5442  0.8486 -0.3671
 5960TIP3    H217842   5.955   7.026   3.944  1.3924  0.5497 -0.3521
 5961TIP3   OH217843   0.442   4.577   5.404  0.4971 -0.1678  0.3630
 5961TIP3    H117844   0.372   4.641   5.392  0.4959 -0.1054  0.7114
 5961TIP3    H217845   0.521   4.629   5.415  1.0415 -0.2144 -2.4120
 5962TIP3   OH217846   1.370   0.582   3.050  0.5177  0.3183  0.2958
 5962TIP3    H117847   1.409   0.579   3.137 -2.0428 -1.8181  1.5175
 5962TIP3    H217848   1.356   0.490   3.027 -0.9025  0.9044 -1.3763
 5963TIP3   OH217849   3.366   4.218   5.889  0.0843 -0.4820  0.2652
 5963TIP3    H117850   3.287   4.249   5.845  0.0692 -0.4035  0.3480
 5963TIP3    H217851   3.334   4.167   5.963  0.1011  0.8814  1.2468
 5964TIP3   OH217852   3.741   0.641   1.680  0.6255 -0.3215 -0.4530
 5964TIP3    H117853   3.834   0.626   1.666  0.2573 -2.7075 -0.8392
 5964TIP3    H217854   3.706   0.655   1.592  0.2499 -2.1718 -0.6273
 5965TIP3   OH217855   4.370   4.157   5.742  0.1164 -0.0618 -0.2623
 5965TIP3    H117856   4.296   4.121   5.790 -0.0435 -4.2799 -3.1689
 5965TIP3    H217857   4.331   4.220   5.681 -0.0919  2.4628  2.2432
 5966TIP3   OH217858   0.438   4.034   1.828 -0.2184 -0.3621  0.5196
 5966TIP3    H117859   0.438   4.112   1.883 -2.2226 -0.4791  0.7927
 5966TIP3    H217860   0.385   3.970   1.877 -0.8417 -0.9653 -0.8664
 5967TIP3   OH217861   7.201   4.084   4.288  0.4183  0.0121 -0.8131
 5967TIP3    H117862   7.183   4.034   4.367  0.5527 -0.0918 -0.8485
 5967TIP3    H217863   7.150   4.040   4.220  1.9400 -1.1823 -1.2244
 5968TIP3   OH217864   0.081   1.486   5.532  0.1589  0.1583 -0.0579
 5968TIP3    H117865   0.057   1.511   5.621  0.3464 -2.5462  0.8503
 5968TIP3    H217866   0.030   1.545   5.476  0.3898  2.2371  1.7846
 5969TIP3   OH217867   7.191   2.624   5.661 -0.6243 -0.0359 -0.2249
 5969TIP3    H117868   7.239   2.691   5.710  0.2834  0.1880 -1.3972
 5969TIP3    H217869   7.101   2.631   5.694 -0.0768  0.1771  1.3195
 5970TIP3   OH217870   3.022   6.825   5.189  0.1563 -0.6714 -0.6962
 5970TIP3    H117871   2.954   6.824   5.256  1.3249 -0.7105  0.5304
 5970TIP3    H217872   3.035   6.732   5.167 -0.2027 -0.6609 -0.9622
 5971TIP3   OH217873   4.845   5.573   4.329  0.4090 -0.2420 -0.4958
 5971TIP3    H117874   4.753   5.552   4.308  0.5955  0.2297 -1.8668
 5971TIP3    H217875   4.857   5.661   4.296  1.5514 -0.5508 -0.9196
 5972TIP3   OH217876   0.941   2.546   0.513 -0.0990  0.0752  0.0703
 5972TIP3    H117877   0.863   2.592   0.484  0.2144 -1.0515 -2.8283
 5972TIP3    H217878   1.014   2.598   0.477  0.3242 -1.1240 -0.8681
 5973TIP3   OH217879   4.692   3.047   5.645 -0.3035 -0.2844 -0.1155
 5973TIP3    H117880   4.685   3.132   5.602 -0.5940  0.0535  0.5677
 5973TIP3    H217881   4.785   3.026   5.644  0.0345  0.9755  1.4128
 5974TIP3   OH217882   0.349   4.863   4.435 -0.2641  0.6421 -0.0333
 5974TIP3    H117883   0.366   4.951   4.400  0.5035  0.6451  0.3104
 5974TIP3    H217884   0.320   4.879   4.525 -0.5416  0.5652 -0.1106
 5975TIP3   OH217885   2.699   5.416   5.809  0.6418  0.0567  0.0830
 5975TIP3    H117886   2.692   5.496   5.862 -1.3908  0.0866 -0.1221
 5975TIP3    H217887   2.678   5.346   5.871  0.8034 -0.1558 -0.1044
 5976TIP3   OH217888   2.864   5.750   1.808 -0.4746 -0.1401  0.3827
 5976TIP3    H117889   2.946   5.795   1.789 -0.4718 -0.1982  0.2540
 5976TIP3    H217890   2.874   5.717   1.897 -0.0659 -0.7850  0.1026
 5977TIP3   OH217891   3.518   5.678   5.854  0.8356  0.2265  0.1870
 5977TIP3    H117892   3.556   5.663   5.940  0.8530  0.6939  0.2607
 5977TIP3    H217893   3.533   5.596   5.806 -0.2610 -0.4905  1.0247
 5978TIP3   OH217894   6.540   6.631   0.825  0.4374 -0.0807  0.0910
 5978TIP3    H117895   6.592   6.550   0.822  2.4068  1.1180 -0.2047
 5978TIP3    H217896   6.606   6.701   0.824 -1.1577  1.5254  1.5218
 5979TIP3   OH217897   2.758   2.252   0.852  0.2640  0.0724 -0.3636
 5979TIP3    H117898   2.681   2.227   0.801 -1.1664  3.3625 -0.0621
 5979TIP3    H217899   2.722   2.297   0.929  2.4734  0.9784  0.2060
 5980TIP3   OH217900   0.139   1.479   1.603 -0.0885 -0.1038 -0.1941
 5980TIP3    H117901   0.196   1.538   1.654  0.3189 -0.0198 -0.7404
 5980TIP3    H217902   0.056   1.481   1.650 -0.2405  1.2890 -0.4662
 5981TIP3   OH217903   4.021   4.981   3.737  0.1458  0.2299 -0.3471
 5981TIP3    H117904   4.078   4.911   3.704  0.3351  0.9644 -1.6108
 5981TIP3    H217905   3.933   4.944   3.729  0.3925 -1.1677  2.2297
 5982TIP3   OH217906   2.534   5.082   1.685  0.5049 -0.7004 -0.1433
 5982TIP3    H117907   2.454   5.058   1.637  0.7867 -0.8920 -0.5275
 5982TIP3    H217908   2.514   5.168   1.724 -0.1607 -1.1008  0.4156
 5983TIP3   OH217909   5.542   1.848   4.902  0.2223 -0.0463  0.0619
 5983TIP3    H117910   5.556   1.939   4.877 -0.1169  0.1292  0.4967
 5983TIP3    H217911   5.588   1.839   4.986  0.0051 -0.1975  0.1649
 5984TIP3   OH217912   7.528   1.218   3.657 -0.2071  0.4898 -0.5046
 5984TIP3    H117913   7.609   1.167   3.666  1.7645  3.6426  1.4550
 5984TIP3    H217914   7.492   1.222   3.746 -2.5814 -0.7622 -1.3216
 5985TIP3   OH217915   4.905   6.928   2.009 -0.8313  0.3279  0.5655
 5985TIP3    H117916   4.894   6.998   2.073  0.6304  1.3663 -0.2644
 5985TIP3    H217917   4.960   6.864   2.053  0.3941  1.1640  0.2961
 5986TIP3   OH217918   5.825   2.214   3.117 -0.2515 -0.0732  0.2138
 5986TIP3    H117919   5.761   2.163   3.067 -0.7757  1.2345 -0.5009
 5986TIP3    H217920   5.795   2.208   3.208 -0.6672 -0.5023  0.0501
 5987TIP3   OH217921   4.340   6.157   2.990 -0.0394 -0.6434  0.0298
 5987TIP3    H117922   4.267   6.216   2.974  1.0541  1.5290  2.3078
 5987TIP3    H217923   4.414   6.198   2.947  0.1304 -2.2242 -1.2811
 5988TIP3   OH217924   1.115   2.797   0.016 -0.2727 -0.4472 -0.3756
 5988TIP3    H117925   1.055   2.849   0.069  0.7093  1.7379 -1.2633
 5988TIP3    H217926   1.060   2.757  -0.051 -0.9847  0.0202 -0.0801
 5989TIP3   OH217927   5.343   3.443   0.136  0.5265  0.2979 -0.1444
 5989TIP3    H117928   5.313   3.395   0.213 -0.8123 -0.2532 -0.9691
 5989TIP3    H217929   5.370   3.529   0.169 -0.1871  0.1266  0.9038
 5990TIP3   OH217930   3.737   2.548   3.991  0.6088  0.0189  0.5555
 5990TIP3    H117931   3.815   2.578   3.945  0.4781 -0.1663  0.2084
 5990TIP3    H217932   3.666   2.561   3.929  0.7657 -2.5507 -0.2617
 5991TIP3   OH217933   7.171   3.463   2.164  0.4058 -0.5260 -0.3064
 5991TIP3    H117934   7.225   3.538   2.140  0.3867  0.2860  1.9612
 5991TIP3    H217935   7.185   3.400   2.093  2.1449  0.7446 -1.1724
 5992TIP3   OH217936   1.126   5.266   2.529 -0.7419 -0.2172 -1.1577
 5992TIP3    H117937   1.092   5.186   2.569 -0.7745 -0.7272 -2.1605
 5992TIP3    H217938   1.188   5.235   2.463  1.9576  0.6778  0.7731
 5993TIP3   OH217939   4.010   5.434   3.012 -0.1523  0.3569  0.1418
 5993TIP3    H117940   4.029   5.393   3.096 -1.4123 -0.0554  0.2600
 5993TIP3    H217941   4.090   5.424   2.961  0.1505 -0.6907  0.7981
 5994TIP3   OH217942   2.115   2.853   0.201  0.3618 -0.1429  0.5723
 5994TIP3    H117943   2.174   2.929   0.200 -1.7084  1.5554 -0.6005
 5994TIP3    H217944   2.034   2.886   0.240 -0.4656 -1.8834  0.4225
 5995TIP3   OH217945   7.565   4.851   1.120 -0.6565  0.0473  0.0630
 5995TIP3    H117946   7.539   4.831   1.211  1.8205  1.3309  1.1498
 5995TIP3    H217947   7.612   4.934   1.127 -1.5762  0.8918 -2.6584
 5996TIP3   OH217948   1.469   0.450   3.526 -0.6130 -0.3525  0.6728
 5996TIP3    H117949   1.379   0.482   3.534 -0.6783  0.1224 -1.5177
 5996TIP3    H217950   1.463   0.357   3.545 -1.0920  0.1018  3.1194
 5997TIP3   OH217951   0.174   4.587   1.476 -0.1898  0.5650  0.1631
 5997TIP3    H117952   0.159   4.611   1.384  0.2852 -1.1996 -0.4224
 5997TIP3    H217953   0.099   4.531   1.498  0.0204  0.4762  0.6549
 5998TIP3   OH217954   3.812   1.809   4.299  0.1531  0.7679 -0.3206
 5998TIP3    H117955   3.789   1.880   4.239  1.6935  2.1825  0.6692
 5998TIP3    H217956   3.897   1.779   4.269 -0.9887 -1.5596 -1.4536
 5999TIP3   OH217957   5.899   1.921   3.232  0.3108 -0.2657 -0.3203
 5999TIP3    H117958   5.932   1.862   3.300 -1.0238 -0.5840  0.0846
 5999TIP3    H217959   5.862   1.862   3.166  0.3996  0.0835 -0.6820
 6000TIP3   OH217960   0.966   6.439   1.023 -0.5702  0.2361  0.6030
 6000TIP3    H117961   1.001   6.459   0.936  1.2685 -1.7315  0.7925
 6000TIP3    H217962   1.035   6.466   1.083  0.7977 -3.5002  1.0156
 6001TIP3   OH217963   5.027   6.572   4.162  0.1454 -0.2956 -0.0995
 6001TIP3    H117964   5.077   6.490   4.161 -0.7749 -0.8782  0.0617
 6001TIP3    H217965   4.936   6.544   4.167 -0.3927  0.6704 -3.0087
 6002TIP3   OH217966   1.823   3.397   2.174 -0.5574 -0.1621  0.3730
 6002TIP3    H117967   1.879   3.348   2.114 -0.5062 -1.0221  1.0937
 6002TIP3    H217968   1.735   3.389   2.138 -0.1714  1.7332 -1.1145
 6003TIP3   OH217969   0.886   6.688   4.003 -0.0502 -0.7087 -0.1979
 6003TIP3    H117970   0.907   6.705   4.095  0.1285 -1.0779 -0.1667
 6003TIP3    H217971   0.800   6.726   3.990  0.2182 -0.0333 -0.0615
 6004TIP3   OH217972   5.011   1.693   5.396 -0.2150  0.3115 -0.2402
 6004TIP3    H117973   5.016   1.779   5.438  0.3119  0.1315  0.0642
 6004TIP3    H217974   4.967   1.710   5.312  0.9169  1.0716 -0.7029
 6005TIP3   OH217975   2.289   5.014   1.975 -0.1159 -0.4016  0.4736
 6005TIP3    H117976   2.353   5.075   2.011 -0.7102  0.6645 -0.2429
 6005TIP3    H217977   2.340   4.955   1.920  0.0820  1.6130 -1.6570
 6006TIP3   OH217978   0.988   1.419   4.659  1.2483  0.2837  0.0728
 6006TIP3    H117979   1.014   1.416   4.567  0.3064 -0.2015 -0.1927
 6006TIP3    H217980   0.926   1.492   4.664  1.5476  0.5145  0.3889
 6007TIP3   OH217981   0.123   4.793   2.564 -0.3183  0.3631  0.4039
 6007TIP3    H117982   0.165   4.835   2.489 -0.5632  1.9335  1.1073
 6007TIP3    H217983   0.090   4.710   2.530 -2.0356  1.8332 -1.7053
 6008TIP3   OH217984   0.186   3.432   2.566  0.3391  0.1677 -0.1280
 6008TIP3    H117985   0.096   3.402   2.554  0.5654 -0.6742  0.2213
 6008TIP3    H217986   0.237   3.384   2.501  0.6852 -0.1052  0.3360
 6009TIP3   OH217987   0.185   4.553   0.450 -0.2075  0.1593  0.5880
 6009TIP3    H117988   0.091   4.566   0.443 -0.3109  0.1005  1.8033
 6009TIP3    H217989   0.223   4.634   0.418 -0.6123 -0.3720 -1.3851
 6010TIP3   OH217990   5.857   1.509   3.885  0.2225 -0.8287  0.8462
 6010TIP3    H117991   5.793   1.454   3.838 -0.3400  0.1073  0.4913
 6010TIP3    H217992   5.941   1.488   3.844 -0.0741 -0.9864  0.3080
 6011TIP3   OH217993   6.310   3.608   4.264 -0.1874 -0.4968 -0.1830
 6011TIP3    H117994   6.335   3.569   4.180  0.7326 -2.0342  0.7518
 6011TIP3    H217995   6.380   3.671   4.283  0.3520 -1.1584  0.0681
 6012TIP3   OH217996   6.283   4.410   2.885  0.1040 -0.2306 -0.5795
 6012TIP3    H117997   6.257   4.455   2.804  0.1751 -1.0235 -1.0619
 6012TIP3    H217998   6.212   4.348   2.901  0.3163 -0.4018 -0.2887
 6013TIP3   OH217999   4.725   5.930   1.469 -0.8202  0.4339  0.5605
 6013TIP3    H118000   4.676   5.854   1.500  2.6589 -1.7547  1.3047
 6013TIP3    H218001   4.725   5.921   1.374 -2.7433  1.1859  0.4410
 6014TIP3   OH218002   2.478   5.747   1.291 -0.5226 -0.3340  0.3515
 6014TIP3    H118003   2.388   5.749   1.258  0.1681  0.5361 -1.6442
 6014TIP3    H218004   2.499   5.654   1.298 -0.6570 -0.6258 -2.0462
 6015TIP3   OH218005   0.860   5.291   2.280  0.2975  0.1864  0.3057
 6015TIP3    H118006   0.908   5.214   2.311 -1.8425 -0.9272  1.0578
 6015TIP3    H218007   0.833   5.336   2.360 -1.9392 -0.5753  0.0567
 6016TIP3   OH218008   5.397   1.094   3.546  0.0694 -0.4020  0.3366
 6016TIP3    H118009   5.348   1.162   3.499  0.2188 -2.1193 -2.5689
 6016TIP3    H218010   5.487   1.127   3.550 -0.3450  0.6506  1.3036
 6017TIP3   OH218011   0.530   3.268   5.433 -0.0689  0.4787 -0.1320
 6017TIP3    H118012   0.555   3.353   5.397  1.1521  0.2395  0.0808
 6017TIP3    H218013   0.611   3.234   5.470 -0.0588 -1.5928 -1.8555
 6018TIP3   OH218014   4.553   0.209   0.631  0.5711 -0.0301 -0.0642
 6018TIP3    H118015   4.565   0.276   0.697  1.8272 -0.1464 -0.1438
 6018TIP3    H218016   4.640   0.199   0.591  0.7186 -2.4717  0.7130
 6019TIP3   OH218017   4.803   3.790   1.659  0.3014  0.0026  0.6308
 6019TIP3    H118018   4.783   3.716   1.716 -0.1982  1.4303  2.3948
 6019TIP3    H218019   4.721   3.810   1.615  0.2498 -0.0358  0.7103
 6020TIP3   OH218020   2.763   0.367   1.448  0.2362 -0.3028 -0.0133
 6020TIP3    H118021   2.718   0.294   1.405  0.2146 -0.4044  0.1783
 6020TIP3    H218022   2.692   0.422   1.482  0.2522 -0.1717 -0.1924
 6021TIP3   OH218023   1.156   0.780   5.124  0.7339 -0.0757 -0.2893
 6021TIP3    H118024   1.247   0.762   5.101  1.0472  1.2272 -0.1138
 6021TIP3    H218025   1.152   0.875   5.134 -0.9762  0.0233 -1.6337
 6022TIP3   OH218026   2.580   3.805   0.219  0.5049  0.0411  0.4396
 6022TIP3    H118027   2.546   3.836   0.134  1.1469 -0.4641 -0.0146
 6022TIP3    H218028   2.667   3.771   0.198 -0.6619 -3.4488  0.5895
 6023TIP3   OH218029   7.228   4.942   2.415 -0.6667  0.1924 -0.1613
 6023TIP3    H118030   7.277   4.924   2.335  1.2500 -0.6536  1.1475
 6023TIP3    H218031   7.153   4.882   2.410  0.0980 -0.7498 -0.7520
 6024TIP3   OH218032   2.712   0.659   2.736 -0.3093 -0.4827  0.0585
 6024TIP3    H118033   2.666   0.666   2.653  0.3610 -0.0502 -0.2892
 6024TIP3    H218034   2.686   0.737   2.785  0.3350 -0.0390 -0.2911
 6025TIP3   OH218035   4.733   1.749   5.534  0.2002  1.2609  0.2899
 6025TIP3    H118036   4.738   1.717   5.444  0.3486  1.0936  0.3582
 6025TIP3    H218037   4.817   1.727   5.573 -0.3483  0.0980  0.8768
 6026TIP3   OH218038   6.037   5.992   5.644  0.0425  0.0763 -0.5092
 6026TIP3    H118039   5.998   6.053   5.581  0.1446  2.0219  1.2022
 6026TIP3    H218040   6.121   6.033   5.667 -0.4622 -0.0382  1.6535
 6027TIP3   OH218041   2.485   5.941   4.821  0.8848 -0.6562  0.5752
 6027TIP3    H118042   2.487   5.847   4.841 -2.2510 -0.4429  2.6824
 6027TIP3    H218043   2.514   5.984   4.901  1.3017  0.1944 -0.0166
 6028TIP3   OH218044   1.518   2.871   0.707 -0.0251  0.4877  0.0615
 6028TIP3    H118045   1.613   2.885   0.716  0.6433 -1.6202 -2.2576
 6028TIP3    H218046   1.504   2.783   0.741 -0.9868  0.4468 -0.4156
 6029TIP3   OH218047   3.785   6.766   4.412 -0.6237  0.3779  0.3834
 6029TIP3    H118048   3.839   6.756   4.490 -0.9124  0.0794  0.5492
 6029TIP3    H218049   3.835   6.723   4.342  0.1674  1.6529  0.1456
 6030TIP3   OH218050   6.841   2.724   3.036 -0.4540 -0.6321 -0.1751
 6030TIP3    H118051   6.878   2.641   3.007  0.3439 -0.5573  0.5852
 6030TIP3    H218052   6.906   2.790   3.010  0.3891 -0.5853  1.8803
 6031TIP3   OH218053   0.835   1.314   0.671  0.1520  0.5764  0.3283
 6031TIP3    H118054   0.832   1.376   0.598 -0.2048  1.1765  0.8443
 6031TIP3    H218055   0.928   1.298   0.684  0.1988 -0.0432 -0.6758
 6032TIP3   OH218056   4.553   1.375   4.335  0.2884  0.3664  0.0553
 6032TIP3    H118057   4.610   1.327   4.275  0.4484  0.2625  0.2871
 6032TIP3    H218058   4.599   1.371   4.419 -0.4055 -0.3382  0.4083
 6033TIP3   OH218059   4.542   1.038   5.693 -0.0249 -0.2919  0.3032
 6033TIP3    H118060   4.592   1.076   5.765  1.5874 -1.2078 -0.2789
 6033TIP3    H218061   4.466   0.998   5.734  0.2358  0.2663  1.3463
 6034TIP3   OH218062   5.749   2.243   0.856 -0.8818 -0.5444 -0.2555
 6034TIP3    H118063   5.844   2.247   0.866 -0.9796  0.0617  0.4469
 6034TIP3    H218064   5.715   2.256   0.944 -1.6173 -0.9989 -0.4657
 6035TIP3   OH218065   0.122   3.179   2.723  0.2294 -0.2067  0.3806
 6035TIP3    H118066   0.031   3.195   2.745 -0.0245  0.0969 -0.8427
 6035TIP3    H218067   0.169   3.254   2.760 -0.0306 -0.2717  0.8481
 6036TIP3   OH218068   6.477   2.601   0.053 -0.0953  0.0480 -0.2075
 6036TIP3    H118069   6.468   2.660  -0.022  2.0855 -0.0147 -0.5719
 6036TIP3    H218070   6.536   2.533   0.023 -1.1693 -1.3812  0.7988
 6037TIP3   OH218071   2.060   6.038   5.491  0.0039 -0.0473 -0.3854
 6037TIP3    H118072   2.069   5.975   5.562 -1.8145  1.7749  1.6123
 6037TIP3    H218073   1.974   6.018   5.453  0.2004  0.1087 -0.9198
 6038TIP3   OH218074   5.725   5.251   6.047  0.0467 -0.4791  0.8981
 6038TIP3    H118075   5.654   5.225   5.989  1.0830  0.3988 -0.8696
 6038TIP3    H218076   5.708   5.205   6.129 -2.1580 -0.8015  0.3166
 6039TIP3   OH218077   4.601   3.382   1.605 -0.8059  0.1164  0.0831
 6039TIP3    H118078   4.637   3.359   1.691 -1.3552 -0.4882  0.1537
 6039TIP3    H218079   4.631   3.312   1.547  0.9419  1.3413 -0.6061
 6040TIP3   OH218080   4.695   4.945   1.273  0.0703 -0.1926 -0.0091
 6040TIP3    H118081   4.643   5.025   1.272 -0.2130 -0.3659  0.3489
 6040TIP3    H218082   4.644   4.883   1.221  0.4966 -0.0201 -0.6440
 6041TIP3   OH218083   2.367   0.952   0.908  0.3765  0.1102 -0.2248
 6041TIP3    H118084   2.279   0.991   0.908 -0.6334 -2.0243  1.0501
 6041TIP3    H218085   2.424   1.022   0.940 -1.2147  0.8549  1.1537
 6042TIP3   OH218086   0.637   2.881   2.193  0.3591 -0.0400  0.4492
 6042TIP3    H118087   0.627   2.953   2.131  0.6416  0.6022  1.1431
 6042TIP3    H218088   0.556   2.830   2.183 -0.9361  1.6729  1.5996
 6043TIP3   OH218089   1.176   5.330   1.421 -0.0890  0.0118 -0.1758
 6043TIP3    H118090   1.100   5.281   1.390 -1.7319  2.1086  0.2933
 6043TIP3    H218091   1.172   5.325   1.516  1.4007 -1.2896 -0.1475
 6044TIP3   OH218092   2.726   1.541   5.307 -0.3713  0.2495 -0.5370
 6044TIP3    H118093   2.657   1.487   5.268 -0.6848  0.9817 -1.0088
 6044TIP3    H218094   2.803   1.483   5.310 -1.1191 -0.7326  0.4525
 6045TIP3   OH218095   1.641   4.495   5.733 -0.0876 -0.6175 -0.3479
 6045TIP3    H118096   1.596   4.410   5.730 -1.3554  0.0384 -1.6721
 6045TIP3    H218097   1.586   4.549   5.791  0.2847 -0.4862 -0.1178
 6046TIP3   OH218098   4.398   1.552   6.103 -0.3675 -0.4375 -0.1548
 6046TIP3    H118099   4.439   1.605   6.035  1.1208 -1.9707 -0.5078
 6046TIP3    H218100   4.418   1.597   6.185 -1.1940  0.8052 -0.6135
 6047TIP3   OH218101   0.747   2.092   0.839 -0.0158  0.3937 -0.2344
 6047TIP3    H118102   0.741   1.999   0.863 -0.0566  0.8056  1.4464
 6047TIP3    H218103   0.660   2.114   0.806  0.5869 -0.6811 -2.7953
 6048TIP3   OH218104   2.226   5.713   4.208 -0.3245 -0.0572  0.1593
 6048TIP3    H118105   2.275   5.673   4.280 -0.7865 -0.7998  0.0744
 6048TIP3    H218106   2.136   5.720   4.241  0.1190  3.0095  1.0192
 6049TIP3   OH218107   4.635   3.132   2.974  0.4828  0.3680  0.4633
 6049TIP3    H118108   4.697   3.059   2.975  1.2582  0.8694 -2.2763
 6049TIP3    H218109   4.591   3.128   3.059  0.9988 -2.8025  0.6749
 6050TIP3   OH218110   3.112   2.678   0.820  0.1298  0.2926 -0.1293
 6050TIP3    H118111   3.041   2.642   0.767 -1.5118  2.1339  0.6815
 6050TIP3    H218112   3.192   2.658   0.771 -1.1072 -0.1016 -2.0857
 6051TIP3   OH218113   3.883   3.634   3.648  0.1111 -0.3549  0.4661
 6051TIP3    H118114   3.969   3.591   3.651  0.9969  1.1058 -1.5186
 6051TIP3    H218115   3.833   3.582   3.586  0.4463  0.2180 -0.2963
 6052TIP3   OH218116   2.208   5.054   2.301 -0.0870  0.2399 -0.2955
 6052TIP3    H118117   2.260   5.004   2.239 -1.4152  0.2461 -1.4692
 6052TIP3    H218118   2.192   4.994   2.374  1.3355  0.1730 -0.0163
 6053TIP3   OH218119   6.776   6.138   1.324  0.0225  0.1157 -0.4061
 6053TIP3    H118120   6.814   6.060   1.283 -0.9615 -0.3657 -0.4197
 6053TIP3    H218121   6.774   6.203   1.253 -0.1696 -0.1961 -0.6896
 6054TIP3   OH218122   1.220   3.433   1.026 -0.0449 -0.0596 -0.1235
 6054TIP3    H118123   1.257   3.433   0.938 -1.3750 -1.7769 -0.7400
 6054TIP3    H218124   1.137   3.480   1.017 -0.7507 -1.2643 -0.0837
 6055TIP3   OH218125   6.866   3.180   5.002 -0.1480  0.4711  0.5477
 6055TIP3    H118126   6.924   3.238   5.052  1.5579  0.3727 -1.2078
 6055TIP3    H218127   6.906   3.094   5.009  0.0681  0.4405 -0.8694
 6056TIP3   OH218128   6.735   4.927   2.516  0.5974  0.3171  0.5751
 6056TIP3    H118129   6.677   4.969   2.579  0.2685  1.5261 -0.4944
 6056TIP3    H218130   6.695   4.842   2.499 -0.9732  1.1671 -0.2203
 6057TIP3   OH218131   3.549   2.147   3.138 -0.5478  0.0887  0.0907
 6057TIP3    H118132   3.493   2.070   3.145 -0.5420 -0.0797 -1.3036
 6057TIP3    H218133   3.628   2.124   3.186 -0.6676 -0.6649 -0.0568
 6058TIP3   OH218134   2.144   6.009   4.090  0.0549  0.1281  0.2573
 6058TIP3    H118135   2.235   6.037   4.095 -0.2861  1.1630  1.1081
 6058TIP3    H218136   2.137   5.938   4.154  0.3832 -0.3477 -0.2245
 6059TIP3   OH218137   6.377   5.401   2.732  0.5018  0.4712 -0.5728
 6059TIP3    H118138   6.427   5.322   2.713 -0.6065 -0.2671 -0.4572
 6059TIP3    H218139   6.339   5.426   2.648 -0.1468  0.1797 -0.3672
 6060TIP3   OH218140   7.049   4.436   4.714  0.3340 -0.4773 -0.6475
 6060TIP3    H118141   7.138   4.464   4.693  0.5331  0.7846  1.5420
 6060TIP3    H218142   7.054   4.341   4.715  1.7160 -0.4302 -0.4240
 6061TIP3   OH218143   1.172   0.834   4.297 -0.4954 -0.7673 -0.5567
 6061TIP3    H118144   1.108   0.879   4.351 -0.2701 -0.0719 -0.8638
 6061TIP3    H218145   1.236   0.900   4.274 -0.0162 -1.3030 -0.7996
 6062TIP3   OH218146   6.861   4.165   2.873 -0.2879 -0.5175  0.2401
 6062TIP3    H118147   6.866   4.249   2.918 -1.4303  0.0438 -0.6282
 6062TIP3    H218148   6.938   4.117   2.903  0.5951  0.9783  0.4569
 6063TIP3   OH218149   3.559   6.136   5.532 -0.2658 -0.6219  0.1399
 6063TIP3    H118150   3.520   6.100   5.612 -0.1507  0.4454  0.7032
 6063TIP3    H218151   3.622   6.201   5.563  0.5237 -0.9075 -0.8091
 6064TIP3   OH218152   3.541   0.603   4.901  0.1710  0.4800 -0.5206
 6064TIP3    H118153   3.514   0.689   4.934 -0.0005  0.4666 -0.6263
 6064TIP3    H218154   3.619   0.582   4.952 -1.0580 -0.3116  1.1176
 6065TIP3   OH218155   2.908   0.988   4.816  0.1064 -0.0470 -0.7393
 6065TIP3    H118156   2.887   1.024   4.730  0.1792  1.0912 -0.3059
 6065TIP3    H218157   2.924   0.895   4.800 -2.3136 -0.3848 -1.5494
 6066TIP3   OH218158   5.806   2.686   2.772  0.3505 -0.0406  0.1645
 6066TIP3    H118159   5.746   2.668   2.699  1.9249 -0.3908 -1.0974
 6066TIP3    H218160   5.811   2.603   2.819 -0.1572 -0.0012  0.2990
 6067TIP3   OH218161   4.058   0.317   5.825 -0.2545  0.3020  0.2414
 6067TIP3    H118162   4.138   0.288   5.869 -0.5424 -1.2608 -0.2195
 6067TIP3    H218163   4.088   0.371   5.752  0.2338  2.9931  2.2992
 6068TIP3   OH218164   1.149   2.143   1.136 -0.0316  0.1227 -0.3226
 6068TIP3    H118165   1.184   2.230   1.113 -1.5896  1.0165  0.5160
 6068TIP3    H218166   1.223   2.097   1.176  1.2758  0.4300 -2.2715
 6069TIP3   OH218167   3.377   1.351   1.418 -0.7584 -0.3210  0.3538
 6069TIP3    H118168   3.285   1.377   1.418 -0.5676  0.4370  1.4275
 6069TIP3    H218169   3.394   1.323   1.508 -0.1281 -1.1905 -0.0191
 6070TIP3   OH218170   0.702   6.859   5.495 -0.5246 -0.4357 -0.1922
 6070TIP3    H118171   0.608   6.844   5.492 -0.6453 -0.7381  2.6173
 6070TIP3    H218172   0.712   6.954   5.498 -0.7583 -0.4254  0.1536
 6071TIP3   OH218173   5.659   4.233   5.870  0.2946 -0.1036 -0.4163
 6071TIP3    H118174   5.730   4.210   5.930 -0.7249 -0.7572  0.5845
 6071TIP3    H218175   5.701   4.241   5.785  1.3956 -1.5286 -0.0387
 6072TIP3   OH218176   3.090   6.955   4.594 -0.0700 -0.4420  1.0288
 6072TIP3    H118177   3.048   7.017   4.654 -0.6893  1.4066 -1.1803
 6072TIP3    H218178   3.172   6.998   4.569 -0.6984 -0.2685 -0.8438
 6073TIP3   OH218179   6.467   2.430   5.776 -0.0124  0.0676  0.2283
 6073TIP3    H118180   6.519   2.372   5.832  1.5121  0.0539 -1.1289
 6073TIP3    H218181   6.487   2.401   5.687 -0.0486  1.9980 -0.4489
 6074TIP3   OH218182   1.069   6.313   5.159 -0.2547  0.2441  0.1346
 6074TIP3    H118183   1.025   6.300   5.075  2.6950 -0.1785 -1.4936
 6074TIP3    H218184   1.116   6.396   5.148  0.8255 -0.2283  1.0145
 6075TIP3   OH218185   6.248   6.547   3.773  0.0147 -0.4177 -0.3791
 6075TIP3    H118186   6.235   6.461   3.813 -1.3254 -0.7871 -1.5401
 6075TIP3    H218187   6.228   6.609   3.844  0.5140 -1.0492  0.3294
 6076TIP3   OH218188   1.773   2.082   2.205 -0.6070  0.0590 -0.2920
 6076TIP3    H118189   1.811   2.014   2.150 -0.9676  0.3317 -0.8918
 6076TIP3    H218190   1.684   2.051   2.223 -0.6653  0.2180 -0.3024
 6077TIP3   OH218191   6.151   2.960   2.252 -0.5425 -0.4303 -0.3018
 6077TIP3    H118192   6.200   3.036   2.285 -2.1243  0.7894 -0.6353
 6077TIP3    H218193   6.196   2.885   2.289  0.1445  0.7331  1.3580
 6078TIP3   OH218194   0.694   4.685   5.437  0.2123  0.3571  0.2274
 6078TIP3    H118195   0.773   4.734   5.456  0.9060 -0.9038  0.6767
 6078TIP3    H218196   0.680   4.630   5.514  0.1223 -0.9993 -0.7162
 6079TIP3   OH218197   7.278   6.781   1.782  0.2696  0.0627  0.2671
 6079TIP3    H118198   7.273   6.797   1.876 -0.0458 -0.7096  0.3974
 6079TIP3    H218199   7.222   6.704   1.768 -0.4891  0.7613 -0.6981
 6080TIP3   OH218200   5.180   6.694   2.808  0.0803  0.5676 -0.2432
 6080TIP3    H118201   5.179   6.789   2.817 -1.7486  0.5762  0.0038
 6080TIP3    H218202   5.174   6.661   2.898 -0.9066  0.2863 -0.3914
 6081TIP3   OH218203   5.224   0.735   4.201  0.7115  0.1638 -0.0597
 6081TIP3    H118204   5.166   0.799   4.242  1.0680  0.9375 -0.7314
 6081TIP3    H218205   5.297   0.726   4.261  1.7086  2.0210 -0.9163
 6082TIP3   OH218206   2.536   2.791   0.982 -0.1515 -0.3010 -0.1116
 6082TIP3    H118207   2.602   2.831   0.926 -0.9705 -0.4567 -1.2078
 6082TIP3    H218208   2.585   2.762   1.059  0.9956 -0.1061 -0.7446
 6083TIP3   OH218209   6.342   3.988   3.661  0.0805 -0.5375 -0.2311
 6083TIP3    H118210   6.397   4.026   3.592 -0.2916 -2.6525 -1.8199
 6083TIP3    H218211   6.261   3.964   3.616 -0.5950 -1.0388  1.1942
 6084TIP3   OH218212   2.134   2.529   3.141  0.1769 -0.2459  0.3727
 6084TIP3    H118213   2.157   2.525   3.048  0.1185 -1.6563  0.3921
 6084TIP3    H218214   2.125   2.437   3.167  0.2225  0.1275  1.7820
 6085TIP3   OH218215   2.204   3.046   0.558  0.0821 -0.5507  0.0435
 6085TIP3    H118216   2.225   3.061   0.650  0.8548 -1.4480  0.0294
 6085TIP3    H218217   2.137   2.978   0.560  0.4792 -0.9489 -0.0688
 6086TIP3   OH218218   0.383   0.078   3.166  0.2206 -0.1746  0.2335
 6086TIP3    H118219   0.425   0.139   3.105 -0.0416  0.5176  0.7340
 6086TIP3    H218220   0.295   0.112   3.178  0.0656 -0.6602  0.5218
 6087TIP3   OH218221   3.143   3.930   6.188 -0.0009  0.0271  0.5999
 6087TIP3    H118222   3.182   3.843   6.177 -1.3205 -0.6699  1.1883
 6087TIP3    H218223   3.217   3.990   6.179  1.6316 -1.3153  3.4661
 6088TIP3   OH218224   4.960   0.622   2.303  0.4542  0.4900 -0.6261
 6088TIP3    H118225   4.918   0.707   2.315 -2.3661 -0.8978  0.4911
 6088TIP3    H218226   5.000   0.603   2.388 -1.8472 -0.6327  0.2970
 6089TIP3   OH218227   0.767   4.365   3.168 -0.4844 -0.0460 -0.8203
 6089TIP3    H118228   0.721   4.305   3.110  0.3253 -0.2727 -1.2505
 6089TIP3    H218229   0.848   4.319   3.191 -0.9133 -0.0750  0.7220
 6090TIP3   OH218230   0.798   3.252   3.996 -0.0856 -0.0587  0.1385
 6090TIP3    H118231   0.862   3.323   4.004 -1.6090  1.6146 -1.5420
 6090TIP3    H218232   0.835   3.195   3.929  1.9943 -1.9908  2.6807
 6091TIP3   OH218233   1.512   2.365   3.856 -0.1588  1.1196 -0.2329
 6091TIP3    H118234   1.594   2.316   3.855  0.5017  2.1825  0.1910
 6091TIP3    H218235   1.483   2.364   3.947  0.4033  2.3545 -0.0160
 6092TIP3   OH218236   2.480   0.783   4.604  0.9562  0.6144  0.0473
 6092TIP3    H118237   2.445   0.843   4.537 -0.8667  0.8380  1.1402
 6092TIP3    H218238   2.552   0.738   4.560 -0.2461  0.6583 -2.1265
 6093TIP3   OH218239   7.374   2.763   4.428 -0.6484  0.1911  0.4502
 6093TIP3    H118240   7.400   2.764   4.336 -2.3379  2.0339 -0.0592
 6093TIP3    H218241   7.304   2.698   4.433 -0.7347  0.2781  0.3726
 6094TIP3   OH218242   5.634   5.010   0.604 -0.5990 -0.1324 -0.1736
 6094TIP3    H118243   5.722   4.991   0.572 -0.6571 -0.9966  0.1662
 6094TIP3    H218244   5.647   5.038   0.695 -0.8013 -2.0910  0.5151
 6095TIP3   OH218245   4.057   3.336   3.824 -0.3283 -0.1357 -0.2366
 6095TIP3    H118246   4.112   3.258   3.828  0.6545  0.5590  2.3025
 6095TIP3    H218247   4.105   3.396   3.767  0.9393 -0.0349  0.8699
 6096TIP3   OH218248   4.723   4.437   0.637 -0.8641  0.2978  0.0601
 6096TIP3    H118249   4.796   4.429   0.699  0.2038  0.4677 -1.1449
 6096TIP3    H218250   4.683   4.350   0.636 -1.3638  0.4723  1.5033
 6097TIP3   OH218251   2.254   0.038   4.656 -0.0595  1.2835  0.5720
 6097TIP3    H118252   2.302   0.121   4.662  1.0074  0.9366 -1.9031
 6097TIP3    H218253   2.315  -0.022   4.612 -2.8771  1.0460 -3.5874
 6098TIP3   OH218254   5.148   4.373   2.260 -0.2593  0.0128  0.2778
 6098TIP3    H118255   5.107   4.443   2.311 -0.7004 -0.5558  0.7081
 6098TIP3    H218256   5.081   4.347   2.196  0.8833  1.9560 -1.8614
 6099TIP3   OH218257   0.885   0.050   2.928 -0.2912 -0.0911 -0.4139
 6099TIP3    H118258   0.864   0.143   2.928 -0.1667 -0.0616 -0.1105
 6099TIP3    H218259   0.812   0.008   2.883 -1.8802 -0.1923  2.0774
 6100TIP3   OH218260   6.503   6.565   3.704 -0.5409 -0.5095  0.2282
 6100TIP3    H118261   6.413   6.558   3.736 -0.1046  0.2621  1.6935
 6100TIP3    H218262   6.538   6.475   3.710 -0.9942 -0.6797  0.3176
 6101TIP3   OH218263   1.413   6.371   6.054  0.0531 -0.6964 -0.5103
 6101TIP3    H118264   1.424   6.459   6.088 -1.1936 -0.4326 -0.7309
 6101TIP3    H218265   1.439   6.377   5.962 -0.6419 -0.3933 -0.6937
 6102TIP3   OH218266   6.975   0.590   5.571 -0.1961  0.5355  0.3630
 6102TIP3    H118267   7.047   0.643   5.538  0.5376  0.0723  1.1927
 6102TIP3    H218268   6.957   0.528   5.500 -0.8429  1.6377 -0.4804
 6103TIP3   OH218269   5.302   1.309   2.370  0.0217 -0.1842  0.5079
 6103TIP3    H118270   5.345   1.391   2.345  0.4725  0.1070  2.0640
 6103TIP3    H218271   5.346   1.242   2.319 -1.2300  0.6433 -1.7679
 6104TIP3   OH218272   5.805   0.312   5.374 -0.4816 -0.0065  0.5279
 6104TIP3    H118273   5.746   0.302   5.298 -0.0460 -0.8416  0.2917
 6104TIP3    H218274   5.851   0.228   5.379 -0.6849 -0.0519  1.8771
 6105TIP3   OH218275   7.548   4.956   5.376  0.1628 -0.7980 -0.8464
 6105TIP3    H118276   7.510   5.044   5.368 -0.4463 -0.9380  0.2880
 6105TIP3    H218277   7.639   4.966   5.347  1.1597  1.0042  2.3623
 6106TIP3   OH218278   5.035   6.569   6.050 -0.1217 -0.0797 -0.2069
 6106TIP3    H118279   5.092   6.506   6.094  0.1699 -0.3503 -0.9566
 6106TIP3    H218280   5.023   6.639   6.114 -0.8871 -1.1364  0.8437
 6107TIP3   OH218281   4.707   4.530   4.402 -0.3446 -0.1642 -0.4476
 6107TIP3    H118282   4.785   4.482   4.428 -1.4911 -1.0925  1.4746
 6107TIP3    H218283   4.731   4.622   4.412  0.9439 -0.3726 -1.3633
 6108TIP3   OH218284   5.261   6.580   3.883  0.2491 -0.5035 -0.2016
 6108TIP3    H118285   5.323   6.528   3.832  1.6343  0.8103  0.1096
 6108TIP3    H218286   5.298   6.583   3.971 -1.0099 -0.8884  0.3812
 6109TIP3   OH218287   7.424   1.598   4.422 -0.2621  0.3069 -0.2024
 6109TIP3    H118288   7.485   1.669   4.440  0.2348 -0.3501  0.8645
 6109TIP3    H218289   7.338   1.639   4.423  0.1586  1.3712 -2.3732
 6110TIP3   OH218290   2.157   5.470   0.568 -0.0462  1.0015  0.1546
 6110TIP3    H118291   2.085   5.505   0.621 -0.1833  0.9219  0.0178
 6110TIP3    H218292   2.232   5.468   0.629 -0.1352  1.1674  0.2708
 6111TIP3   OH218293   2.767   6.330   5.090 -0.2372  0.0036  0.2628
 6111TIP3    H118294   2.729   6.400   5.143 -2.1305  0.0909 -1.1220
 6111TIP3    H218295   2.764   6.252   5.146 -0.6057  0.4440  0.8618
 6112TIP3   OH218296   5.226   2.080   2.460 -0.3470 -0.0664  0.2884
 6112TIP3    H118297   5.260   2.019   2.526 -0.8656 -0.1751  0.4590
 6112TIP3    H218298   5.293   2.081   2.391 -0.9399 -1.9075 -0.3808
 6113TIP3   OH218299   6.785   2.015   2.943 -0.5773  0.1322  1.2563
 6113TIP3    H118300   6.745   2.013   2.856 -0.8376 -3.2352  1.3226
 6113TIP3    H218301   6.720   2.060   2.997 -0.6229  1.8560 -0.1473
 6114TIP3   OH218302   5.370   2.310   1.555 -0.3225  0.0893  0.2834
 6114TIP3    H118303   5.355   2.386   1.612 -1.3843  0.7613 -0.8492
 6114TIP3    H218304   5.342   2.339   1.468  1.5999 -0.7727 -0.6986
 6115TIP3   OH218305   1.205   4.474   4.486  0.2029  0.0173 -0.3606
 6115TIP3    H118306   1.188   4.556   4.533 -1.1383 -0.4968  0.0782
 6115TIP3    H218307   1.243   4.502   4.403  0.2789  1.0561  0.0074
 6116TIP3   OH218308   6.818   2.665   4.192  0.1152 -0.2082 -0.3076
 6116TIP3    H118309   6.907   2.635   4.176  0.8083  1.0447  0.9331
 6116TIP3    H218310   6.777   2.666   4.106  0.8196 -2.1957 -0.7144
 6117TIP3   OH218311   5.205   1.810   6.096  0.3212  0.1083 -0.2805
 6117TIP3    H118312   5.277   1.872   6.097  1.4312 -1.1134 -1.4301
 6117TIP3    H218313   5.227   1.746   6.164  2.5270 -2.5554 -3.2256
 6118TIP3   OH218314   3.638   6.717   5.917 -0.0191 -0.2407 -0.6150
 6118TIP3    H118315   3.606   6.634   5.883 -1.9209  0.5149 -0.7750
 6118TIP3    H218316   3.728   6.723   5.884 -0.1617 -1.7824 -1.3706
 6119TIP3   OH218317   2.900   5.580   3.485  0.1143  0.1422  0.1213
 6119TIP3    H118318   2.845   5.655   3.460  0.7873 -0.1198 -2.3326
 6119TIP3    H218319   2.982   5.593   3.438  0.8908 -1.2731  1.0083
 6120TIP3   OH218320   6.784   6.192   2.361  0.4472  0.1579  0.3935
 6120TIP3    H118321   6.796   6.106   2.401  1.3100  0.4387  0.7824
 6120TIP3    H218322   6.702   6.225   2.398 -0.5668 -1.0234 -0.7577
 6121TIP3   OH218323   2.638   1.906   2.716 -0.3060  0.1718  0.2547
 6121TIP3    H118324   2.636   1.866   2.629 -1.8415  0.2193  0.2430
 6121TIP3    H218325   2.619   1.833   2.776 -1.3778  0.5258  0.3650
 6122TIP3   OH218326   4.080   2.156   0.208 -0.0244 -0.2344 -0.0560
 6122TIP3    H118327   3.996   2.179   0.246  0.1532 -1.3860  1.0764
 6122TIP3    H218328   4.117   2.091   0.267  1.4723 -0.0845 -0.7692
 6123TIP3   OH218329   2.075   4.233   4.306 -0.0977  0.0961 -0.1179
 6123TIP3    H118330   2.090   4.315   4.353 -1.3982  0.7922 -0.8391
 6123TIP3    H218331   2.162   4.204   4.279  0.3353  1.6915 -0.5480
 6124TIP3   OH218332   1.183   2.739   1.779 -0.4942 -0.0048 -0.4707
 6124TIP3    H118333   1.191   2.647   1.756  1.0273 -0.4309  1.4473
 6124TIP3    H218334   1.164   2.739   1.873  0.3579  1.6141 -0.2507
 6125TIP3   OH218335   6.310   6.663   0.973 -0.5741  0.3052  0.0217
 6125TIP3    H118336   6.243   6.699   0.915 -1.5881  0.7267  1.4053
 6125TIP3    H218337   6.387   6.654   0.918 -1.9024 -0.7213 -1.7520
 6126TIP3   OH218338   4.321   4.338   3.155  0.4493 -0.1608 -0.5490
 6126TIP3    H118339   4.265   4.277   3.204 -0.5718  0.9596 -0.2879
 6126TIP3    H218340   4.266   4.369   3.084  0.7326  0.9715 -0.2834
 6127TIP3   OH218341   2.049   5.072   3.958  0.1350  0.1516  0.1767
 6127TIP3    H118342   2.013   5.156   3.932 -1.3220  0.1780  2.0511
 6127TIP3    H218343   1.974   5.012   3.958  1.0451 -1.0561 -0.6283
 6128TIP3   OH218344   6.284   0.850   4.480 -0.0636  0.2180  0.7207
 6128TIP3    H118345   6.306   0.884   4.394  2.4959  0.6540  1.4539
 6128TIP3    H218346   6.272   0.756   4.467  0.5299  0.2471 -0.0789
 6129TIP3   OH218347   0.111   1.816   2.204 -0.9278 -0.0467  0.7891
 6129TIP3    H118348   0.060   1.807   2.284 -0.5890  1.8147  1.2598
 6129TIP3    H218349   0.200   1.836   2.234 -0.4599 -0.8023 -0.0481
 6130TIP3   OH218350   0.819   4.048   4.271 -0.5391 -0.2643  0.3272
 6130TIP3    H118351   0.814   3.982   4.340 -0.2686 -0.4640  0.1573
 6130TIP3    H218352   0.741   4.102   4.283 -1.0864 -0.9856  0.0939
 6131TIP3   OH218353   1.180   2.887   3.717  0.5502 -0.1016 -0.4611
 6131TIP3    H118354   1.266   2.863   3.681  1.8014  1.5803  1.1701
 6131TIP3    H218355   1.162   2.820   3.783  0.7123 -0.3406 -0.6566
 6132TIP3   OH218356   0.481   6.577   0.232  0.0154  0.2196 -0.3857
 6132TIP3    H118357   0.566   6.569   0.275 -0.7321 -0.4230  1.0237
 6132TIP3    H218358   0.434   6.496   0.254 -1.2840  0.9278 -0.4253
 6133TIP3   OH218359   7.251   1.493   1.040 -0.2485 -0.2056  0.3227
 6133TIP3    H118360   7.197   1.439   1.097 -0.4922  1.4061  1.6951
 6133TIP3    H218361   7.338   1.491   1.080  0.7489 -2.5323 -1.6952
 6134TIP3   OH218362   6.954   0.262   1.632  0.0383 -0.3678  0.1799
 6134TIP3    H118363   6.990   0.174   1.639 -0.5863 -0.8039 -1.6033
 6134TIP3    H218364   6.899   0.271   1.710 -2.8198 -3.0157 -1.2862
 6135TIP3   OH218365   5.557   3.634   4.436 -0.5055  0.6041 -0.4213
 6135TIP3    H118366   5.519   3.698   4.495  0.5047  0.1925  0.7236
 6135TIP3    H218367   5.551   3.551   4.483  1.7613  0.5219 -0.1317
 6136TIP3   OH218368   5.520   5.390   1.556 -0.1036 -0.3810 -0.0798
 6136TIP3    H118369   5.565   5.329   1.614  1.0556 -0.2242 -0.7746
 6136TIP3    H218370   5.552   5.476   1.582 -1.9189  0.0075  1.0633
 6137TIP3   OH218371   7.091   2.307   1.088 -0.2302  0.7285  0.5987
 6137TIP3    H118372   7.012   2.345   1.128  0.3837  3.7959 -0.7944
 6137TIP3    H218373   7.060   2.230   1.040 -1.8827  0.3248  2.2133
 6138TIP3   OH218374   4.684   2.287   0.272  0.2719 -0.3512  0.1465
 6138TIP3    H118375   4.730   2.297   0.356 -0.1618  0.9071  0.2516
 6138TIP3    H218376   4.745   2.238   0.217  1.1481  0.0501  0.7443
 6139TIP3   OH218377   0.477   3.322   3.386  0.0837 -0.2682  0.3056
 6139TIP3    H118378   0.551   3.326   3.447  0.2818  0.8603  0.0046
 6139TIP3    H218379   0.408   3.277   3.435  1.6472 -3.4573 -0.1489
 6140TIP3   OH218380   1.592   5.497   6.155 -0.6732 -0.1716 -0.0047
 6140TIP3    H118381   1.595   5.419   6.211 -2.1776 -1.9829 -2.2856
 6140TIP3    H218382   1.683   5.509   6.126 -0.3165 -0.6802  0.8627
 6141TIP3   OH218383   0.654   0.025   5.571  0.0621  0.9339  0.2972
 6141TIP3    H118384   0.641  -0.068   5.591 -2.3388  0.8882 -1.0106
 6141TIP3    H218385   0.617   0.071   5.646  1.4584  0.8742  1.0503
 6142TIP3   OH218386   3.258   6.790   0.042 -0.1587 -0.4442 -0.0056
 6142TIP3    H118387   3.182   6.848   0.046  0.3859  0.2258  1.1571
 6142TIP3    H218388   3.221   6.702   0.051 -0.8337 -0.1610  0.0726
 6143TIP3   OH218389   2.434   6.115   4.114 -0.3594 -0.1696 -0.3861
 6143TIP3    H118390   2.509   6.057   4.131 -0.9930 -0.9806 -0.2712
 6143TIP3    H218391   2.453   6.193   4.166  1.5097  0.6413 -2.1256
 6144TIP3   OH218392   4.433   3.205   3.854 -0.1875 -0.5555  0.2243
 6144TIP3    H118393   4.522   3.169   3.860  0.1741  0.2845  0.1134
 6144TIP3    H218394   4.441   3.294   3.890 -0.9531 -0.4158  0.0652
 6145TIP3   OH218395   2.733   2.280   4.594 -0.0133 -0.0989  0.6689
 6145TIP3    H118396   2.745   2.189   4.622  0.3824  0.1205  1.2414
 6145TIP3    H218397   2.807   2.327   4.633 -0.3448  0.5094  0.5787
 6146TIP3   OH218398   5.031   6.953   3.138  0.1061 -0.2058  0.4208
 6146TIP3    H118399   5.085   6.876   3.119  0.2325  0.1323 -0.6467
 6146TIP3    H218400   4.968   6.922   3.203  1.9005 -0.4648  2.1233
 6147TIP3   OH218401   4.172   5.374   3.686 -0.3328  0.2133  0.1339
 6147TIP3    H118402   4.094   5.429   3.686 -0.1230  0.5892  2.1056
 6147TIP3    H218403   4.141   5.287   3.661 -1.6939 -0.0008  2.3446
 6148TIP3   OH218404   2.071   2.906   5.002  1.1399  0.1674 -0.4944
 6148TIP3    H118405   2.082   2.982   5.060 -1.4144  0.2909 -0.0693
 6148TIP3    H218406   2.041   2.943   4.920  0.4317 -0.3342 -0.4658
 6149TIP3   OH218407   3.756   1.923   1.741  0.3127 -0.3278 -0.5142
 6149TIP3    H118408   3.709   2.000   1.773  0.9013 -0.3295  0.3886
 6149TIP3    H218409   3.707   1.895   1.663 -1.1138 -0.2715  0.3321
 6150TIP3   OH218410   3.272   6.893   5.731 -0.1515  0.0196  0.2089
 6150TIP3    H118411   3.324   6.844   5.668 -0.2615  1.5558 -1.1476
 6150TIP3    H218412   3.337   6.945   5.780 -0.0871 -1.0009  1.2476
 6151TIP3   OH218413   2.606   6.615   5.484 -0.0900 -0.2294  0.1866
 6151TIP3    H118414   2.567   6.702   5.482  0.9414  0.2663  0.8051
 6151TIP3    H218415   2.532   6.556   5.492 -0.9759  0.4309 -2.2375
 6152TIP3   OH218416   4.694   2.143   2.248 -0.1333  0.1070 -0.3232
 6152TIP3    H118417   4.676   2.196   2.170 -0.3064  0.0857 -0.2968
 6152TIP3    H218418   4.642   2.184   2.317  0.1459  0.2262 -0.1800
 6153TIP3   OH218419   0.821   2.060   1.547  0.4492  0.2890  0.0503
 6153TIP3    H118420   0.812   1.986   1.486 -1.5295  0.0359  0.5687
 6153TIP3    H218421   0.861   2.023   1.625  0.2152 -0.0736  0.0020
 6154TIP3   OH218422   7.542   6.818   5.790 -0.5720 -0.3125  0.3860
 6154TIP3    H118423   7.628   6.859   5.798 -0.8518  0.4298 -0.2411
 6154TIP3    H218424   7.482   6.877   5.836 -0.8443 -0.4828  0.2546
 6155TIP3   OH218425   6.749   4.616   4.920 -0.2810  0.6869  0.1859
 6155TIP3    H118426   6.664   4.631   4.962  0.9361 -0.2866  3.2493
 6155TIP3    H218427   6.813   4.657   4.979  1.6297 -1.5442 -0.1613
 6156TIP3   OH218428   1.206   5.078   0.652 -0.2835 -0.1084 -0.5376
 6156TIP3    H118429   1.186   5.058   0.744  1.6497 -2.0363 -0.4639
 6156TIP3    H218430   1.294   5.114   0.654 -0.7910  1.2370 -1.5270
 6157TIP3   OH218431   4.644   4.393   4.714  0.2811  0.2402 -0.1384
 6157TIP3    H118432   4.713   4.378   4.650  0.1974 -0.6813 -0.0234
 6157TIP3    H218433   4.611   4.481   4.693  1.4063  0.6602 -0.2510
 6158TIP3   OH218434   2.676   5.277   2.309 -0.5080 -0.2457  0.2402
 6158TIP3    H118435   2.627   5.195   2.303 -0.6525 -0.2211  0.9836
 6158TIP3    H218436   2.664   5.305   2.399 -0.7257  0.7633 -0.0864
 6159TIP3   OH218437   1.273   4.947   5.415 -0.5294  0.2355  0.7682
 6159TIP3    H118438   1.296   4.880   5.352 -1.6578 -0.6895  1.3085
 6159TIP3    H218439   1.181   4.966   5.398  0.1431  2.9194 -0.5054
 6160TIP3   OH218440   5.208   7.156   5.467  0.4339 -0.0333 -0.7029
 6160TIP3    H118441   5.251   7.085   5.419  1.2815  0.3650 -0.5492
 6160TIP3    H218442   5.118   7.126   5.478  0.9168 -1.3470 -0.1240
 6161TIP3   OH218443   5.656   5.305   2.969 -0.0607 -0.4598  0.2670
 6161TIP3    H118444   5.735   5.253   2.952 -0.4164 -0.9325  0.0418
 6161TIP3    H218445   5.638   5.291   3.062  0.5120  0.2041  0.4853
 6162TIP3   OH218446   5.376   0.038   2.771  0.0734 -0.1014  0.5608
 6162TIP3    H118447   5.401   0.129   2.785 -1.2789  0.0437  2.4577
 6162TIP3    H218448   5.425  -0.010   2.838  0.1905 -0.6710  0.0758
 6163TIP3   OH218449   3.345   6.931   4.859  0.0424 -0.3323  0.6052
 6163TIP3    H118450   3.341   6.995   4.930 -1.6339  1.1512 -0.7365
 6163TIP3    H218451   3.289   6.859   4.888 -1.3260  0.6460  0.4784
 6164TIP3   OH218452   4.810   4.145   5.874  0.0572  0.0205 -0.3425
 6164TIP3    H118453   4.862   4.156   5.954 -1.2316  2.2661  0.2635
 6164TIP3    H218454   4.720   4.132   5.905 -0.5122  1.2245 -1.4017
 6165TIP3   OH218455   7.172   0.434   1.803  0.3697  0.2208  0.4116
 6165TIP3    H118456   7.213   0.398   1.725  0.2513  0.0802  0.4138
 6165TIP3    H218457   7.115   0.504   1.771 -0.4680 -0.5055  0.2618
 6166TIP3   OH218458   5.358   4.588   0.053 -0.5772 -0.3490  0.7078
 6166TIP3    H118459   5.417   4.526   0.011 -0.5983 -0.1828  0.4317
 6166TIP3    H218460   5.302   4.620  -0.018  2.2094  3.2969 -0.1634
 6167TIP3   OH218461   5.680   2.963   0.105  0.4498 -0.2244  0.7385
 6167TIP3    H118462   5.628   2.929   0.177 -1.9945  2.2023  0.2862
 6167TIP3    H218463   5.647   3.052   0.091  3.3881  0.7465 -0.9697
 6168TIP3   OH218464   2.604   2.750   1.911  0.3456  0.0775 -0.2072
 6168TIP3    H118465   2.551   2.770   1.834  0.1093 -1.3495 -0.4465
 6168TIP3    H218466   2.542   2.718   1.976  0.7800 -0.6285 -0.1280
 6169TIP3   OH218467   1.578   6.896   5.853 -0.2813 -0.2779  0.4054
 6169TIP3    H118468   1.528   6.839   5.794 -2.6707  1.7460  0.3098
 6169TIP3    H218469   1.593   6.975   5.801  1.2626 -0.0254  1.1837
 6170TIP3   OH218470   3.923   0.921   2.585  0.5079  0.1638 -0.0149
 6170TIP3    H118471   3.848   0.954   2.534  0.5997 -0.4447 -0.5539
 6170TIP3    H218472   3.995   0.979   2.562  0.3510  0.3800  0.0365
 6171TIP3   OH218473   7.050   3.088   0.400 -0.0249 -0.1457  0.1218
 6171TIP3    H118474   7.045   3.086   0.495  0.8598 -0.9699  0.1646
 6171TIP3    H218475   6.966   3.052   0.370 -0.9903  1.6388  0.5426
 6172TIP3   OH218476   7.260   6.111   3.133 -0.1043  0.0194 -0.4264
 6172TIP3    H118477   7.336   6.086   3.186 -0.2490  0.8738  0.2125
 6172TIP3    H218478   7.190   6.053   3.162  0.7299 -2.0236 -2.2981
 6173TIP3   OH218479   6.356   0.719   2.929 -0.1057  0.0083 -0.2240
 6173TIP3    H118480   6.266   0.716   2.962  0.0235 -0.5098  0.0860
 6173TIP3    H218481   6.353   0.783   2.857 -0.8136 -0.3359 -0.5082
 6174TIP3   OH218482   7.426   3.209   1.441  0.3286  0.2482  0.4087
 6174TIP3    H118483   7.426   3.139   1.506  0.7035 -0.3899 -0.2586
 6174TIP3    H218484   7.518   3.223   1.421  0.3823  2.1278  1.7596
 6175TIP3   OH218485   1.459   2.061   1.717 -0.4745  0.2747 -0.0701
 6175TIP3    H118486   1.489   2.096   1.634  2.2207 -0.4012  0.5082
 6175TIP3    H218487   1.499   1.974   1.722 -1.7573 -0.2835  1.3041
 6176TIP3   OH218488   3.674   2.138   0.526  0.0260 -0.3707  0.6827
 6176TIP3    H118489   3.609   2.209   0.528  0.2083 -0.2061  0.8366
 6176TIP3    H218490   3.657   2.088   0.605  0.4797  0.0300  1.0382
 6177TIP3   OH218491   0.298   6.767   1.795 -0.3772  0.1351 -0.0752
 6177TIP3    H118492   0.237   6.696   1.817  0.2963 -0.1657  0.8674
 6177TIP3    H218493   0.266   6.842   1.845 -0.3386  0.1569 -0.0833
 6178TIP3   OH218494   6.563   5.618   0.114 -0.0065  0.9949  0.6834
 6178TIP3    H118495   6.490   5.666   0.153 -0.6417  0.6516 -0.0684
 6178TIP3    H218496   6.553   5.631   0.020 -0.1454 -0.5151  0.4671
 6179TIP3   OH218497   7.208   3.902   4.492  0.6330 -0.6622  0.5494
 6179TIP3    H118498   7.206   3.807   4.493 -2.5020 -0.7240  2.7000
 6179TIP3    H218499   7.293   3.925   4.530  0.1109 -2.7196  3.2762
 6180TIP3   OH218500   3.813   3.257   5.659 -0.3119 -0.1922  0.1921
 6180TIP3    H118501   3.776   3.252   5.747  0.2789 -0.3627  0.4366
 6180TIP3    H218502   3.750   3.308   5.609 -1.1730 -0.9990  0.4416
 6181TIP3   OH218503   0.365   5.838   0.825  0.3228 -0.2392  0.0411
 6181TIP3    H118504   0.326   5.785   0.894  1.8613 -2.8292 -0.9565
 6181TIP3    H218505   0.440   5.881   0.867  1.5583 -2.1980 -0.0249
 6182TIP3   OH218506   5.788   7.001   3.609 -0.1729  0.0647  0.6038
 6182TIP3    H118507   5.859   6.946   3.576 -0.8966 -0.8433  0.5158
 6182TIP3    H218508   5.759   6.956   3.689 -1.1591 -0.0023  0.2160
 6183TIP3   OH218509   6.544   5.219   2.609  0.3718  0.2568 -0.1560
 6183TIP3    H118510   6.567   5.198   2.518  3.9232 -0.4328  0.7745
 6183TIP3    H218511   6.598   5.295   2.631 -1.6291  1.4467  0.9681
 6184TIP3   OH218512   1.410   3.138   3.666 -0.0045  0.1423  0.2432
 6184TIP3    H118513   1.499   3.163   3.644  0.4810 -0.1981  1.7213
 6184TIP3    H218514   1.419   3.057   3.718 -1.2279 -0.4112 -0.3538
 6185TIP3   OH218515   0.188   2.556   4.747 -0.1702 -0.2806 -0.5244
 6185TIP3    H118516   0.108   2.567   4.696 -0.6186 -0.0469  0.2225
 6185TIP3    H218517   0.176   2.473   4.792 -0.9209  0.7349  1.2187
 6186TIP3   OH218518   5.948   5.202   1.579 -0.3921 -0.0369  0.1872
 6186TIP3    H118519   5.871   5.168   1.534  0.4925 -0.5031 -1.0434
 6186TIP3    H218520   5.995   5.252   1.512  0.0102  0.8543  1.1070
 6187TIP3   OH218521   4.242   5.112   0.065 -0.3276 -0.5247  0.4777
 6187TIP3    H118522   4.175   5.054   0.029 -0.4196 -0.7757  1.0387
 6187TIP3    H218523   4.208   5.136   0.152  0.8583 -1.6482  1.2943
 6188TIP3   OH218524   6.876   3.317   6.125  0.1959 -0.9651  0.0202
 6188TIP3    H118525   6.893   3.409   6.108  0.1435 -0.7924  0.8676
 6188TIP3    H218526   6.935   3.270   6.065 -0.6312 -0.4076 -1.2698
 6189TIP3   OH218527   6.079   2.048   1.687 -0.0069  0.8882 -0.1713
 6189TIP3    H118528   5.983   2.044   1.691 -0.0533 -2.4463 -1.3204
 6189TIP3    H218529   6.107   2.058   1.778 -1.4403  1.3236  0.2431
 6190TIP3   OH218530   3.877   2.543   3.213 -0.2046 -0.6193 -0.3128
 6190TIP3    H118531   3.804   2.506   3.165 -0.8364 -0.3454  0.4192
 6190TIP3    H218532   3.890   2.483   3.287 -0.4364 -0.0641  0.1912
 6191TIP3   OH218533   6.400   1.382   2.759 -0.1999 -0.0190 -0.2997
 6191TIP3    H118534   6.414   1.474   2.783  0.1958 -0.6604  2.2775
 6191TIP3    H218535   6.459   1.367   2.685  0.4220  1.5651 -0.1715
 6192TIP3   OH218536   3.838   6.181   0.202 -0.1753  0.0156  0.2222
 6192TIP3    H118537   3.804   6.108   0.151  0.8935 -0.4636  0.1565
 6192TIP3    H218538   3.856   6.143   0.288 -1.4791  0.6934  0.8289
 6193TIP3   OH218539   4.309   5.832   0.176  0.2142  0.0814 -0.4047
 6193TIP3    H118540   4.373   5.869   0.115  1.1696 -0.8690 -0.0320
 6193TIP3    H218541   4.257   5.906   0.205 -1.0683  0.4339 -3.2307
 6194TIP3   OH218542   3.969   5.664   3.921  0.6097  0.4802  0.2483
 6194TIP3    H118543   3.966   5.729   3.991  0.0274  0.9427 -0.1905
 6194TIP3    H218544   3.971   5.715   3.840  1.3337 -0.0447 -0.0789
 6195TIP3   OH218545   1.566   1.267   0.039  0.1706 -0.0270 -0.1935
 6195TIP3    H118546   1.599   1.321  -0.034 -1.5502 -0.2958 -1.2242
 6195TIP3    H218547   1.581   1.177   0.010  1.5925 -0.1627  0.8404
 6196TIP3   OH218548   3.163   3.017   1.858  0.0301  0.0825  0.6012
 6196TIP3    H118549   3.158   3.107   1.826  1.1825  0.0492  0.2715
 6196TIP3    H218550   3.168   2.964   1.778  0.8177 -0.1577  0.8031
 6197TIP3   OH218551   1.201   1.422   2.838  0.2200 -0.3947  0.7833
 6197TIP3    H118552   1.284   1.396   2.796  0.0248 -1.1377  0.8326
 6197TIP3    H218553   1.226   1.486   2.904  0.7536 -0.5949  0.7799
 6198TIP3   OH218554   0.022   4.878   4.240  0.0858 -0.0985 -0.1917
 6198TIP3    H118555   0.110   4.909   4.222 -0.1628  1.0687  0.4748
 6198TIP3    H218556  -0.031   4.957   4.246 -0.5950 -0.6156  1.5394
 6199TIP3   OH218557   1.972   6.865   2.900  0.1495 -0.3019  0.1105
 6199TIP3    H118558   1.908   6.836   2.835  0.3136 -0.3067 -0.0511
 6199TIP3    H218559   1.922   6.874   2.981 -0.2958  0.7646 -0.2646
 6200TIP3   OH218560   1.529   4.086   5.993  0.5724 -0.4941  0.3952
 6200TIP3    H118561   1.513   4.162   6.050 -0.0744 -0.1724 -0.1934
 6200TIP3    H218562   1.623   4.088   5.976  0.7848 -0.6197  1.4768
 6201TIP3   OH218563   3.442   1.653   4.906  0.2498 -0.3380  0.2646
 6201TIP3    H118564   3.387   1.651   4.828 -0.0476 -0.3880  0.4717
 6201TIP3    H218565   3.466   1.745   4.917 -0.3678 -0.2107  0.5688
 6202TIP3   OH218566   7.440   2.734   4.154  0.0207  0.1538  0.2923
 6202TIP3    H118567   7.421   2.773   4.069  1.4327  0.3355  0.0405
 6202TIP3    H218568   7.430   2.640   4.140  0.7854  0.1428 -0.2286
 6203TIP3   OH218569   7.419   2.786   3.389 -0.0499  0.3070  0.0561
 6203TIP3    H118570   7.337   2.737   3.389 -0.0833  0.3529  0.5897
 6203TIP3    H218571   7.482   2.728   3.344 -0.9442  1.3033 -2.6595
 6204TIP3   OH218572   5.212   0.847   2.326  0.2124  0.1557  0.0005
 6204TIP3    H118573   5.126   0.873   2.361  0.4747  0.1752  0.6331
 6204TIP3    H218574   5.192   0.806   2.242 -0.4541 -0.2357  0.3454
 6205TIP3   OH218575   3.252   5.850   1.251  0.1716  0.5549  0.7552
 6205TIP3    H118576   3.254   5.838   1.346  0.4155 -0.0399  0.6820
 6205TIP3    H218577   3.327   5.800   1.219  0.2307  0.9455  0.2659
 6206TIP3   OH218578   6.070   6.308   2.234  0.2238  0.1222 -0.2558
 6206TIP3    H118579   6.150   6.361   2.227  1.0371 -0.9371  0.6919
 6206TIP3    H218580   6.069   6.277   2.325 -0.4306 -1.1581 -0.6722
 6207TIP3   OH218581   5.943   5.812   5.453  0.1056  0.1855 -0.4309
 6207TIP3    H118582   6.016   5.850   5.404 -1.4754  4.2666 -0.0629
 6207TIP3    H218583   5.956   5.842   5.543 -1.1084 -0.5036 -0.0067
 6208TIP3   OH218584   2.282   3.161   0.817  0.7011  0.6322  0.6433
 6208TIP3    H118585   2.211   3.225   0.821 -1.8400 -1.6598 -2.3962
 6208TIP3    H218586   2.255   3.092   0.878  1.2292  0.5172  0.7541
 6209TIP3   OH218587   6.688   5.423   6.103 -0.0638 -0.7892 -0.2585
 6209TIP3    H118588   6.649   5.435   6.190  2.8750 -0.1130  1.1091
 6209TIP3    H218589   6.673   5.507   6.059  0.0491 -0.4429  0.3420
 6210TIP3   OH218590   4.701   4.552   4.000  0.5670 -0.8798  0.4639
 6210TIP3    H118591   4.693   4.647   3.998  0.1971 -0.8978  1.0427
 6210TIP3    H218592   4.762   4.535   4.072 -0.2777 -1.1401  1.1207
 6211TIP3   OH218593   5.351   1.778   3.479  0.0205 -0.1977  0.0488
 6211TIP3    H118594   5.261   1.781   3.448 -0.5019 -0.6406  1.4423
 6211TIP3    H218595   5.369   1.866   3.511 -0.1316 -0.2569  0.3050
 6212TIP3   OH218596   0.178   5.016   5.239  0.4650 -0.0141 -0.1353
 6212TIP3    H118597   0.252   4.957   5.257 -0.8242 -1.5676  0.2480
 6212TIP3    H218598   0.196   5.050   5.151  1.0193 -1.3476 -0.5607
 6213TIP3   OH218599   0.660   4.549   3.432  0.8129  0.0649  0.8320
 6213TIP3    H118600   0.729   4.609   3.462 -0.1800  2.1353 -0.7703
 6213TIP3    H218601   0.707   4.480   3.386  1.9357  0.1794  1.7644
 6214TIP3   OH218602   0.903   7.147   2.060  0.0929  0.6176  0.2313
 6214TIP3    H118603   0.870   7.107   2.141  1.7367 -1.0290  0.1568
 6214TIP3    H218604   0.971   7.207   2.089  0.5165  0.2072  0.1003
 6215TIP3   OH218605   7.291   2.346   5.730  0.1842 -0.5412  0.6142
 6215TIP3    H118606   7.254   2.435   5.728 -1.0066 -1.0127  1.0204
 6215TIP3    H218607   7.338   2.339   5.647 -1.2920 -0.1721 -0.2957
 6216TIP3   OH218608   2.114   3.495   4.414 -0.0038 -0.3585 -0.0306
 6216TIP3    H118609   2.199   3.527   4.445 -0.1010  1.4191 -1.4396
 6216TIP3    H218610   2.134   3.438   4.340  0.0381 -1.7637  1.0213
 6217TIP3   OH218611   2.502   3.093   1.557  0.3362  0.2464  0.6902
 6217TIP3    H118612   2.586   3.074   1.515  0.7559  1.8218  0.7565
 6217TIP3    H218613   2.463   3.007   1.572  1.8504 -0.5120  0.4804
 6218TIP3   OH218614   0.787   6.225   3.300  0.0097 -0.1964  0.5288
 6218TIP3    H118615   0.751   6.211   3.388 -1.2941  0.0136  0.0470
 6218TIP3    H218616   0.880   6.207   3.310 -0.2551 -1.0523  1.7642
 6219TIP3   OH218617   4.666   6.833   3.928 -0.0362  0.0307  0.2985
 6219TIP3    H118618   4.706   6.855   4.012  0.0671 -0.0667  0.2750
 6219TIP3    H218619   4.642   6.740   3.937 -0.2580  0.0877  0.3127
 6220TIP3   OH218620   5.699   1.401   5.790  0.6240 -0.6103  0.0806
 6220TIP3    H118621   5.621   1.347   5.780  0.1858 -0.0003  0.1529
 6220TIP3    H218622   5.697   1.429   5.882 -0.0679  0.8699 -0.3372
 6221TIP3   OH218623   6.113   5.720   2.599 -0.6166 -0.9838  0.1675
 6221TIP3    H118624   6.208   5.726   2.609 -0.0473  0.3320 -4.0351
 6221TIP3    H218625   6.082   5.810   2.608 -1.3415 -1.2446  0.4188
 6222TIP3   OH218626   0.909   4.431   5.897 -0.2422  1.0099  0.3004
 6222TIP3    H118627   0.969   4.366   5.861 -2.0069 -0.1968 -0.6243
 6222TIP3    H218628   0.963   4.508   5.913  1.4439  0.1322 -0.9015
 6223TIP3   OH218629   5.925   0.178   3.912 -0.2955  0.3219  0.0768
 6223TIP3    H118630   6.015   0.206   3.891  0.2389 -0.7500  0.8525
 6223TIP3    H218631   5.906   0.220   3.995 -0.3418  0.1857  0.1343
 6224TIP3   OH218632   4.928   0.900   2.332 -0.0407 -0.0291 -0.0218
 6224TIP3    H118633   4.875   0.933   2.404 -0.2928  0.6344 -0.5048
 6224TIP3    H218634   4.922   0.967   2.264  0.1029 -0.6928 -0.7084
 6225TIP3   OH218635   1.429   6.737   3.345  0.1786 -0.3399 -0.4316
 6225TIP3    H118636   1.473   6.787   3.276  1.3838 -1.5940 -0.6226
 6225TIP3    H218637   1.450   6.646   3.324 -0.3751 -0.8054  0.9677
 6226TIP3   OH218638   2.703   2.763   4.670  0.2681  0.3113  0.2592
 6226TIP3    H118639   2.704   2.683   4.723  1.7006  0.9170  1.2107
 6226TIP3    H218640   2.621   2.807   4.695 -0.8360 -1.0871 -0.7135
 6227TIP3   OH218641   3.672   3.436   1.100  0.8827 -0.3176 -0.3497
 6227TIP3    H118642   3.642   3.378   1.030  2.2286  0.5728 -1.7155
 6227TIP3    H218643   3.649   3.524   1.071  2.1036  0.1263 -0.0318
 6228TIP3   OH218644   6.565   4.515   5.082  0.3791  0.1250 -0.5793
 6228TIP3    H118645   6.523   4.592   5.122 -1.1346 -0.8346 -0.2303
 6228TIP3    H218646   6.617   4.477   5.153 -0.4740 -0.2862 -0.1640
 6229TIP3   OH218647   0.922   5.548   6.045 -0.0551  0.3631  0.1297
 6229TIP3    H118648   0.967   5.544   6.130  1.0460  0.4756 -0.4250
 6229TIP3    H218649   0.855   5.615   6.056 -0.2679  0.0201  1.0603
 6230TIP3   OH218650   5.888   6.588   1.050  0.2862  0.1391  0.7081
 6230TIP3    H118651   5.842   6.525   0.995  0.0784 -0.1406  1.1920
 6230TIP3    H218652   5.936   6.644   0.989  1.5847 -1.3451  0.3073
 6231TIP3   OH218653   7.191   3.392   5.876 -0.0839 -0.4948  0.1307
 6231TIP3    H118654   7.187   3.367   5.784  0.5495 -1.0387  0.2457
 6231TIP3    H218655   7.125   3.338   5.919 -2.0003  1.3700 -0.3388
 6232TIP3   OH218656   1.453   3.951   0.142  0.0764 -0.0568 -0.0385
 6232TIP3    H118657   1.548   3.953   0.130  0.2206  2.2171  0.9076
 6232TIP3    H218658   1.440   3.903   0.223  0.1668 -2.5209 -1.3803
 6233TIP3   OH218659   3.243   3.217   1.441 -0.0832 -0.5770  0.4683
 6233TIP3    H118660   3.296   3.141   1.465  0.2843 -0.4109  0.1919
 6233TIP3    H218661   3.304   3.276   1.397 -0.3118 -0.0127  0.9001
 6234TIP3   OH218662   1.804   3.970   1.796 -0.1094  0.4730  0.3570
 6234TIP3    H118663   1.842   3.961   1.708 -0.4107 -1.6985  0.3721
 6234TIP3    H218664   1.859   3.913   1.850 -1.1687  0.1538  1.1200
 6235TIP3   OH218665   1.596   3.936   4.650  0.7567 -0.4120  0.9999
 6235TIP3    H118666   1.686   3.927   4.679  1.7759 -0.0022 -1.7680
 6235TIP3    H218667   1.565   3.847   4.638  1.4614 -0.5517  0.1389
 6236TIP3   OH218668   3.142   3.057   0.869  0.5247 -0.4257 -0.3473
 6236TIP3    H118669   3.050   3.045   0.892  0.6620 -0.5608  0.1380
 6236TIP3    H218670   3.186   3.074   0.952  0.7613  0.8290 -0.7008
 6237TIP3   OH218671   3.633   2.051   1.077  0.0425 -0.8080 -0.0816
 6237TIP3    H118672   3.715   2.028   1.122  0.1465  2.4812  1.7221
 6237TIP3    H218673   3.567   1.994   1.117  0.6575 -0.0078  2.2725
 6238TIP3   OH218674   4.392   5.034   2.933  0.0742 -0.3223  0.0158
 6238TIP3    H118675   4.478   5.073   2.948  0.2153 -0.5608 -0.1575
 6238TIP3    H218676   4.366   5.066   2.847  0.8576 -1.7656 -0.8172
 6239TIP3   OH218677   1.048   5.488   0.435  0.9490 -0.3143  0.7085
 6239TIP3    H118678   1.105   5.416   0.406  0.9799 -0.8219  1.9458
 6239TIP3    H218679   1.109   5.556   0.463  0.9547  1.1348 -2.4532
 6240TIP3   OH218680   6.556   0.093   4.482  0.7487 -0.0953  0.4289
 6240TIP3    H118681   6.544   0.038   4.405 -0.6353 -0.0885  0.6122
 6240TIP3    H218682   6.650   0.087   4.502  1.0018 -0.6444 -0.8278
 6241TIP3   OH218683   5.576   6.090   5.494  0.0876  0.3188 -0.2208
 6241TIP3    H118684   5.634   6.018   5.517 -0.3358  0.2542  0.7102
 6241TIP3    H218685   5.499   6.077   5.549 -0.2814  1.0930 -0.5394
 6242TIP3   OH218686   1.648   4.216   3.800  0.5415 -0.2104 -0.2242
 6242TIP3    H118687   1.709   4.205   3.873 -1.4139  0.3647  1.5481
 6242TIP3    H218688   1.638   4.127   3.764  1.9315 -0.4054 -0.1972
 6243TIP3   OH218689   1.580   4.350   1.204  0.3006 -0.3026  0.7027
 6243TIP3    H118690   1.581   4.256   1.189  0.6614 -0.3244  0.8591
 6243TIP3    H218691   1.672   4.375   1.209  0.2137  0.0973  0.4253
 6244TIP3   OH218692   2.248   5.187   5.334 -0.0108  0.3414 -0.0282
 6244TIP3    H118693   2.254   5.182   5.429  0.3462 -2.3237 -0.1105
 6244TIP3    H218694   2.157   5.165   5.314  0.4708 -1.5165 -0.3452
 6245TIP3   OH218695   6.463   6.005   4.097  0.0583 -0.2650 -0.0999
 6245TIP3    H118696   6.486   6.089   4.056  2.3613 -0.3295  0.8873
 6245TIP3    H218697   6.465   5.942   4.024 -2.0612  0.5168 -0.9171
 6246TIP3   OH218698   2.861   3.541   1.207 -0.3963 -0.3387  0.1446
 6246TIP3    H118699   2.832   3.630   1.187  2.4348  0.4898 -0.7436
 6246TIP3    H218700   2.801   3.511   1.275 -1.5422  2.1911  0.3490
 6247TIP3   OH218701   1.427   3.598   1.964  0.5245 -0.9789 -0.1202
 6247TIP3    H118702   1.362   3.528   1.955 -0.6870  0.1688 -0.6972
 6247TIP3    H218703   1.380   3.677   1.937  1.8972  0.0385  0.3783
 6248TIP3   OH218704   0.712   0.913   3.559 -0.0050 -0.2424  0.3560
 6248TIP3    H118705   0.695   0.943   3.648 -0.8897 -0.3085  0.2158
 6248TIP3    H218706   0.639   0.855   3.539 -2.3261  3.0704 -1.9614
 6249TIP3   OH218707   2.698   0.878   0.309  0.0501  0.2039 -0.2566
 6249TIP3    H118708   2.729   0.837   0.229  1.1972  0.2609  0.1492
 6249TIP3    H218709   2.666   0.805   0.362  1.1374 -0.0660  0.0441
 6250TIP3   OH218710   1.643   0.967   2.278 -0.0384  0.1181 -0.2370
 6250TIP3    H118711   1.665   1.038   2.217 -0.5882  1.1877  0.7764
 6250TIP3    H218712   1.684   0.992   2.360 -0.1125 -0.8318  0.1027
 6251TIP3   OH218713   1.918   6.504   5.482 -0.2589 -0.0353 -0.3377
 6251TIP3    H118714   1.945   6.515   5.391 -0.1162 -0.0205 -0.2941
 6251TIP3    H218715   1.895   6.592   5.511  0.0308  0.0177 -0.2564
 6252TIP3   OH218716   3.793   1.563   1.502 -0.1531  0.4593 -0.3062
 6252TIP3    H118717   3.801   1.600   1.590  0.6647  1.7532 -0.8998
 6252TIP3    H218718   3.721   1.612   1.462  0.9740  1.5339 -1.1174
 6253TIP3   OH218719   3.237   6.120   1.261  0.0591 -0.2621 -0.0327
 6253TIP3    H118720   3.196   6.145   1.178  2.5224  1.1069 -0.9601
 6253TIP3    H218721   3.254   6.027   1.253  0.4982 -0.0962 -1.2118
 6254TIP3   OH218722   6.350   5.843   3.412 -0.4041 -0.4166  0.2291
 6254TIP3    H118723   6.298   5.921   3.431 -0.9805 -0.7858  0.1689
 6254TIP3    H218724   6.358   5.842   3.316  0.5625  0.1821  0.2887
 6255TIP3   OH218725   3.618   0.680   1.455  0.7009  0.1057  0.1725
 6255TIP3    H118726   3.543   0.622   1.469  0.4868 -0.3633 -2.3922
 6255TIP3    H218727   3.651   0.656   1.368  3.0790  1.1522  0.7137
 6256TIP3   OH218728   1.551   4.667   2.381  0.0395  0.0871  0.8540
 6256TIP3    H118729   1.519   4.610   2.312 -0.4870  1.5915 -0.1996
 6256TIP3    H218730   1.481   4.670   2.445 -0.6116  0.8097  0.1244
 6257TIP3   OH218731   4.560   6.428   1.521 -0.0843 -0.0135  0.0018
 6257TIP3    H118732   4.620   6.362   1.556 -1.4383 -1.6097 -0.5475
 6257TIP3    H218733   4.616   6.492   1.477  1.2562 -0.8768  0.4112
 6258TIP3   OH218734   7.245   5.215   5.002 -0.0849 -0.0118  0.8904
 6258TIP3    H118735   7.155   5.247   5.008 -0.8414  0.5997 -5.8163
 6258TIP3    H218736   7.237   5.120   5.016 -1.1166  0.3586  3.2185
 6259TIP3   OH218737   5.812   3.447   6.118  0.2334  0.3650  0.3332
 6259TIP3    H118738   5.907   3.431   6.122  0.4094  1.1857 -0.2497
 6259TIP3    H218739   5.804   3.542   6.115 -0.4097  0.3407 -2.8248
 6260TIP3   OH218740   5.144   0.132   4.634 -0.5015 -0.1925 -0.1559
 6260TIP3    H118741   5.175   0.068   4.698  1.4565  0.1530 -0.6942
 6260TIP3    H218742   5.216   0.140   4.571 -1.0069  1.9627 -0.5333
 6261TIP3   OH218743  -0.013   3.198   4.817 -0.7209  0.0049 -0.2004
 6261TIP3    H118744   0.078   3.220   4.797 -1.5624  2.1199 -2.1507
 6261TIP3    H218745  -0.029   3.114   4.774  0.4611 -0.7683  0.8017
 6262TIP3   OH218746   1.721   6.066   4.229  0.2529  0.1949 -0.0378
 6262TIP3    H118747   1.803   6.113   4.243  0.6176 -0.4461  0.0547
 6262TIP3    H218748   1.736   6.017   4.148  0.6547 -1.3456  0.9265
 6263TIP3   OH218749   4.294   1.636   0.161 -0.5354 -0.3385  0.3038
 6263TIP3    H118750   4.217   1.693   0.151 -0.3907 -0.0098  1.0123
 6263TIP3    H218751   4.363   1.681   0.112 -0.0934  0.7560  1.8440
 6264TIP3   OH218752   5.455   0.254   1.908  0.8374  0.4593 -0.5906
 6264TIP3    H118753   5.447   0.193   1.835 -0.2249  0.3220 -0.3752
 6264TIP3    H218754   5.448   0.198   1.986 -1.9451  0.9741 -0.3570
 6265TIP3   OH218755   0.692   0.984   3.294  0.0274  0.4166 -0.0819
 6265TIP3    H118756   0.691   0.973   3.390  0.4197  0.1304 -0.1086
 6265TIP3    H218757   0.619   1.043   3.276  0.1094  0.6798  0.4224
 6266TIP3   OH218758   2.346   3.746   2.840 -0.4438  0.5192  0.3115
 6266TIP3    H118759   2.276   3.772   2.780  0.2154 -0.3046 -0.8530
 6266TIP3    H218760   2.407   3.820   2.838 -1.1241  1.1268  1.1323
 6267TIP3   OH218761   5.730   3.395   0.469  0.4676  0.0984 -0.1365
 6267TIP3    H118762   5.662   3.459   0.447 -0.4687 -0.5463  0.7881
 6267TIP3    H218763   5.683   3.325   0.514  1.8994  0.1777  1.5851
 6268TIP3   OH218764   0.680   6.836   3.913  0.2650  0.4446 -0.7043
 6268TIP3    H118765   0.726   6.845   3.830 -1.0641  1.8110 -1.3457
 6268TIP3    H218766   0.596   6.798   3.890  0.5393 -0.8399  0.2827
 6269TIP3   OH218767   6.178   1.443   2.488  0.6187 -0.1730 -0.0025
 6269TIP3    H118768   6.109   1.495   2.448  1.0746  0.8149  0.4555
 6269TIP3    H218769   6.136   1.396   2.560  0.4772  0.6593  0.4649
 6270TIP3   OH218770   0.223   6.823   4.127  0.2199  0.2329  0.0416
 6270TIP3    H118771   0.244   6.916   4.129  0.7693  0.1394 -1.0790
 6270TIP3    H218772   0.187   6.808   4.040 -0.3338 -0.5079  0.3871
 6271TIP3   OH218773   6.397   0.307   3.152  0.1775  0.1815  0.0343
 6271TIP3    H118774   6.461   0.341   3.090  0.2519 -0.6377 -0.3511
 6271TIP3    H218775   6.413   0.213   3.154 -0.8623 -0.0043  0.1083
 6272TIP3   OH218776   3.558   6.305   2.474  1.1740 -0.3321  0.2078
 6272TIP3    H118777   3.522   6.232   2.423  1.4271 -1.2347  1.2745
 6272TIP3    H218778   3.561   6.378   2.413 -1.6212 -0.4414 -0.1722
 6273TIP3   OH218779   0.928   2.211   4.397  0.0517  0.3185 -0.0636
 6273TIP3    H118780   0.891   2.257   4.473 -0.4178  0.2929 -0.2725
 6273TIP3    H218781   0.852   2.188   4.344 -0.0087 -2.7514  1.1325
 6274TIP3   OH218782   2.094   1.322   1.071  0.0447  0.0590  0.6542
 6274TIP3    H118783   2.002   1.310   1.094 -0.0075 -0.1800  0.3213
 6274TIP3    H218784   2.142   1.290   1.148 -0.1635  1.1198  1.2338
 6275TIP3   OH218785   3.578   1.865   0.222  0.0252 -0.2656  0.5229
 6275TIP3    H118786   3.648   1.848   0.285 -1.4504 -1.2639  1.9906
 6275TIP3    H218787   3.572   1.960   0.217 -0.8934 -0.0908  3.2446
 6276TIP3   OH218788   5.118   6.656   2.116  0.6174  0.1120 -0.0615
 6276TIP3    H118789   5.105   6.597   2.041  0.8353  0.9350 -0.7652
 6276TIP3    H218790   5.131   6.597   2.190 -0.6883 -0.7429 -0.4581
 6277TIP3   OH218791   5.175   4.191   5.832  0.8729  0.2468  0.1276
 6277TIP3    H118792   5.151   4.155   5.746  1.6572  0.8647 -0.3629
 6277TIP3    H218793   5.269   4.174   5.839  0.5442 -1.2387  1.5785
 6278TIP3   OH218794   6.814   0.348   4.414 -0.7494 -0.3960  0.6948
 6278TIP3    H118795   6.824   0.357   4.508 -3.3008  2.6619  0.8519
 6278TIP3    H218796   6.805   0.438   4.382  2.5824 -1.0740 -2.9182
 6279TIP3   OH218797   3.187   6.534   0.082  0.1040 -0.0447  0.3164
 6279TIP3    H118798   3.160   6.464   0.142  1.7980 -1.2480 -0.2274
 6279TIP3    H218799   3.261   6.497   0.034  0.2019  1.6699 -0.9698
 6280TIP3   OH218800   0.006   1.968   1.179 -0.2021  0.4813  0.1233
 6280TIP3    H118801   0.075   1.921   1.130  0.7666  1.7935  0.1844
 6280TIP3    H218802   0.046   2.052   1.202 -1.6911  1.0955  0.5594
 6281TIP3   OH218803   4.150   1.006   0.058 -0.3935  0.1862  0.5918
 6281TIP3    H118804   4.081   1.027   0.121 -1.1115 -1.1491  0.2848
 6281TIP3    H218805   4.230   1.042   0.097 -1.0550  0.6093  1.5885
 6282TIP3   OH218806   3.487   0.491   6.145 -0.0027 -0.0561 -0.2455
 6282TIP3    H118807   3.568   0.454   6.179  1.2417  1.2635 -1.6440
 6282TIP3    H218808   3.434   0.414   6.120  0.1488 -0.9705  2.0134
 6283TIP3   OH218809   1.702   2.208  -0.022 -0.1813 -0.5387 -0.2287
 6283TIP3    H118810   1.717   2.298   0.008 -0.8971 -0.3799 -0.3234
 6283TIP3    H218811   1.708   2.155   0.058  1.0173 -0.5168 -0.2858
 6284TIP3   OH218812   1.525   5.204   3.061  0.6716 -0.1524  0.4051
 6284TIP3    H118813   1.581   5.171   3.130  1.1307  0.4963  0.3535
 6284TIP3    H218814   1.437   5.173   3.084  0.9166 -0.4469  0.9518
 6285TIP3   OH218815   4.174   1.017   5.520  0.0732 -0.1343  0.3619
 6285TIP3    H118816   4.170   1.001   5.425  0.3661 -1.2595  0.5134
 6285TIP3    H218817   4.266   1.004   5.542 -0.2767 -1.7298  1.0675
 6286TIP3   OH218818   3.838   3.799   1.172  0.1786  0.1783  0.8471
 6286TIP3    H118819   3.870   3.747   1.247  1.1481  1.5026  1.3864
 6286TIP3    H218820   3.917   3.825   1.126 -0.4296 -1.1715 -1.0846
 6287TIP3   OH218821   3.605   3.202   4.508 -1.0465 -0.5371 -0.1915
 6287TIP3    H118822   3.674   3.235   4.565  0.2008 -1.2346 -1.2424
 6287TIP3    H218823   3.525   3.245   4.539 -0.2431 -0.1370  1.4050
 6288TIP3   OH218824   0.896   4.647   1.281 -0.6115  0.6803 -0.2287
 6288TIP3    H118825   0.844   4.725   1.297  0.4638  1.6992 -1.4686
 6288TIP3    H218826   0.916   4.650   1.187  2.2549  0.7727  0.2988
 6289TIP3   OH218827   2.851   5.737   0.400  0.0578  0.4637  0.5334
 6289TIP3    H118828   2.832   5.654   0.443 -1.8883  1.5655  1.9785
 6289TIP3    H218829   2.794   5.738   0.323  0.2899  0.3237  0.3622
 6290TIP3   OH218830   4.292   4.297   3.681  0.3361 -0.3942  0.1250
 6290TIP3    H118831   4.322   4.226   3.624 -1.1261 -1.6121  0.7878
 6290TIP3    H218832   4.217   4.335   3.634 -0.1512 -0.6482  0.6835
 6291TIP3   OH218833   1.933   3.955   1.550  0.3879  0.2395 -0.0367
 6291TIP3    H118834   2.021   3.995   1.554  0.5915 -0.2696  0.8146
 6291TIP3    H218835   1.895   3.989   1.469  0.6727  1.9341  0.5003
 6292TIP3   OH218836   1.474   6.562   1.858 -0.2450 -0.2878 -0.4606
 6292TIP3    H118837   1.433   6.594   1.777 -0.8914  2.4296  0.8506
 6292TIP3    H218838   1.540   6.500   1.828 -0.1349  0.9826 -3.1355
 6293TIP3   OH218839   1.739   2.600   2.044  0.1678  0.0625  0.5463
 6293TIP3    H118840   1.772   2.526   2.095  1.4050 -0.3496 -0.7655
 6293TIP3    H218841   1.812   2.663   2.043 -0.1584  0.4412  0.0616
 6294TIP3   OH218842   2.445   1.214   1.442  0.2681 -0.0002  0.2696
 6294TIP3    H118843   2.442   1.196   1.348  0.3513  0.2348  0.2216
 6294TIP3    H218844   2.406   1.301   1.451 -2.6434 -1.2513  0.7771
 6295TIP3   OH218845   6.853   2.061   4.335 -0.1554 -0.3360 -0.4571
 6295TIP3    H118846   6.783   2.102   4.283  0.2737  3.1589  1.4655
 6295TIP3    H218847   6.807   2.002   4.395 -1.3030  0.6008 -0.3892
 6296TIP3   OH218848   3.143   1.358   4.598 -0.2966 -0.0185 -0.1822
 6296TIP3    H118849   3.077   1.365   4.667  0.0758  1.8810  0.0236
 6296TIP3    H218850   3.117   1.423   4.532  1.1454  0.5074 -0.2717
 6297TIP3   OH218851   6.146   5.595   2.200  0.3528  0.3499 -0.6306
 6297TIP3    H118852   6.058   5.558   2.192  0.5325  0.2239 -2.5424
 6297TIP3    H218853   6.187   5.546   2.272  0.1465 -2.3604 -2.2215
 6298TIP3   OH218854   7.410   4.654   0.175 -0.3854 -0.0925  0.5038
 6298TIP3    H118855   7.394   4.738   0.218  1.2380  0.7566 -0.4566
 6298TIP3    H218856   7.437   4.677   0.086  0.0948 -1.6348  0.2182
 6299TIP3   OH218857   0.285   6.351   4.044 -0.0189  0.2098 -0.5226
 6299TIP3    H118858   0.313   6.275   4.096 -0.2682  0.7145  0.3639
 6299TIP3    H218859   0.267   6.419   4.108 -4.8152 -0.4626 -0.7401
 6300TIP3   OH218860   1.562   7.068   1.344 -0.2720 -0.2163  0.3044
 6300TIP3    H118861   1.601   7.063   1.431  1.1916 -1.1438 -0.3541
 6300TIP3    H218862   1.598   7.148   1.306 -1.1436  0.3476  0.6333
 6301TIP3   OH218863   3.536   4.241   0.649  0.4552 -0.6945 -0.4060
 6301TIP3    H118864   3.530   4.280   0.561  0.0769  1.2430  0.4349
 6301TIP3    H218865   3.628   4.250   0.673  0.4508 -0.7127 -0.3821
 6302TIP3   OH218866   4.378   1.261   3.177 -0.1605 -0.0079 -0.2352
 6302TIP3    H118867   4.379   1.252   3.273  1.6661 -0.6108 -0.2758
 6302TIP3    H218868   4.386   1.171   3.145 -1.4487  0.1278 -0.9884
 6303TIP3   OH218869   0.860   6.253   0.309 -0.1787 -0.4669  0.5605
 6303TIP3    H118870   0.912   6.261   0.389 -0.5980 -0.7329  0.8665
 6303TIP3    H218871   0.860   6.341   0.272  0.8176 -0.5563  0.3399
 6304TIP3   OH218872   4.889   4.267   2.153 -0.1779 -0.0258  0.1187
 6304TIP3    H118873   4.829   4.208   2.199  1.6698  0.2484  3.1227
 6304TIP3    H218874   4.844   4.351   2.151 -1.0688 -0.5026 -0.3154
 6305TIP3   OH218875   0.107   3.987   3.083 -0.1377  0.4289 -0.3316
 6305TIP3    H118876   0.053   4.030   3.017  1.2657 -0.9535 -2.5268
 6305TIP3    H218877   0.185   4.042   3.090  0.5603 -0.4037 -1.3003
 6306TIP3   OH218878   4.767   6.430   2.818  0.0999  0.0662 -0.0852
 6306TIP3    H118879   4.824   6.371   2.768  0.1640 -1.0752  1.2656
 6306TIP3    H218880   4.800   6.517   2.797  0.2967 -0.3708 -1.7983
 6307TIP3   OH218881   5.884   6.789   2.877  0.2891  0.3490 -0.1161
 6307TIP3    H118882   5.856   6.769   2.967  0.6086 -0.3026 -0.1611
 6307TIP3    H218883   5.946   6.861   2.887 -0.3324  0.8741  0.1043
 6308TIP3   OH218884   7.145   6.732   1.217 -0.1275 -0.2638 -0.0141
 6308TIP3    H118885   7.065   6.684   1.238 -0.2534 -0.2898 -0.5411
 6308TIP3    H218886   7.157   6.792   1.291  0.4263 -1.5821  1.0054
 6309TIP3   OH218887   2.200   2.439   4.494 -0.0608 -0.4325  0.4742
 6309TIP3    H118888   2.191   2.458   4.401 -2.4053  1.4515  1.0045
 6309TIP3    H218889   2.293   2.455   4.513  0.2983 -0.1289 -1.3829
 6310TIP3   OH218890   6.965   3.625   4.211  0.2081 -0.5746 -0.0562
 6310TIP3    H118891   7.033   3.563   4.237 -0.7936 -1.2825  0.9658
 6310TIP3    H218892   6.965   3.622   4.115  0.3381 -1.9752 -0.0272
 6311TIP3   OH218893   3.380   2.412   5.828  0.3103  0.0240  0.2765
 6311TIP3    H118894   3.455   2.464   5.798 -0.3637  0.6832 -0.2871
 6311TIP3    H218895   3.401   2.323   5.799 -0.0988  0.5491 -1.8350
 6312TIP3   OH218896   3.724   5.224   2.078  0.5064 -0.3209 -0.3840
 6312TIP3    H118897   3.812   5.188   2.093  1.7724  2.6409  0.0350
 6312TIP3    H218898   3.675   5.200   2.156  0.6497 -2.6094 -0.9145
 6313TIP3   OH218899   5.635   1.092   5.298 -0.0449  0.1203  0.4667
 6313TIP3    H118900   5.684   1.040   5.234  0.2132  0.9802 -0.0493
 6313TIP3    H218901   5.607   1.170   5.250 -1.7883 -0.2636  0.7966
 6314TIP3   OH218902   1.457   0.547   4.879 -0.1134 -0.2191  0.0625
 6314TIP3    H118903   1.499   0.594   4.808  0.6046 -1.2315 -0.2016
 6314TIP3    H218904   1.447   0.612   4.949  0.3573  0.4514 -0.4901
 6315TIP3   OH218905   6.559   2.968   5.929 -0.1972 -0.6973 -0.5063
 6315TIP3    H118906   6.556   3.008   5.842 -0.0058 -0.2883 -0.3249
 6315TIP3    H218907   6.517   2.883   5.917  0.6001 -1.0129 -1.1929
 6316TIP3   OH218908   7.172   3.293   1.503 -0.1058  0.2012 -0.0005
 6316TIP3    H118909   7.135   3.205   1.511  1.0005 -0.2585  0.1657
 6316TIP3    H218910   7.259   3.280   1.466  0.6054  1.1061  1.2787
 6317TIP3   OH218911   0.886   6.369   4.949 -0.1281 -0.6297  0.6810
 6317TIP3    H118912   0.801   6.412   4.937  0.2038  0.2808  1.4311
 6317TIP3    H218913   0.943   6.410   4.885 -0.3960 -1.7138 -0.2829
 6318TIP3   OH218914   1.002   0.641   3.744  0.1645 -0.1881 -0.1234
 6318TIP3    H118915   1.039   0.553   3.735 -1.0783 -0.9239  1.4728
 6318TIP3    H218916   1.073   0.692   3.784 -0.0609 -1.2739  1.8059
 6319TIP3   OH218917   5.678   3.029   3.175  0.2430 -0.3090  0.2748
 6319TIP3    H118918   5.703   2.978   3.098  0.2460  0.6645 -0.3865
 6319TIP3    H218919   5.748   3.011   3.238  1.0514  0.0278 -0.4847
 6320TIP3   OH218920   6.813   4.364   0.260  0.1986 -0.0385  0.2034
 6320TIP3    H118921   6.852   4.389   0.343 -1.4475 -0.8012  1.2694
 6320TIP3    H218922   6.810   4.444   0.208 -0.0954  0.7804  1.4643
 6321TIP3   OH218923   2.793   2.685   0.242 -0.4523  0.0369 -0.1920
 6321TIP3    H118924   2.740   2.762   0.220 -0.8234 -0.4174 -0.9356
 6321TIP3    H218925   2.875   2.697   0.193 -1.1720 -0.8419 -1.6846
 6322TIP3   OH218926   3.525   2.543   1.097 -0.0647  0.4705  0.1762
 6322TIP3    H118927   3.522   2.546   1.192 -1.8314  0.5197  0.1612
 6322TIP3    H218928   3.442   2.582   1.069  0.5367  0.7135 -1.3928
 6323TIP3   OH218929   5.768   0.199   4.600  0.0636 -0.2610 -0.3321
 6323TIP3    H118930   5.807   0.201   4.687  1.7864 -1.8359 -1.0048
 6323TIP3    H218931   5.691   0.256   4.607 -0.6574 -1.4310  2.5891
 6324TIP3   OH218932   0.725   6.094   1.298 -0.2546 -0.1775 -0.7672
 6324TIP3    H118933   0.806   6.055   1.331 -0.1880  1.2497  0.9321
 6324TIP3    H218934   0.655   6.043   1.337 -0.1607  0.6719  0.5671
 6325TIP3   OH218935   5.850   4.996   0.452 -0.1615 -0.0231 -0.0233
 6325TIP3    H118936   5.861   4.938   0.377  1.4293 -1.1879  1.0534
 6325TIP3    H218937   5.923   5.057   0.446 -0.9491  0.9169 -0.2848
 6326TIP3   OH218938   1.589   1.598   3.705 -0.0337  0.9213  0.3379
 6326TIP3    H118939   1.563   1.588   3.613 -0.4614  3.2472  0.1534
 6326TIP3    H218940   1.523   1.549   3.754 -1.0279  1.3691 -0.5084
 6327TIP3   OH218941   2.598   5.368   6.133 -0.2743  0.7427  0.2059
 6327TIP3    H118942   2.627   5.445   6.181 -1.4027  0.9882  0.5243
 6327TIP3    H218943   2.503   5.372   6.137 -0.4548  1.0061 -2.4135
 6328TIP3   OH218944   6.784   2.740   5.105  0.5034  0.2655 -0.0466
 6328TIP3    H118945   6.812   2.747   5.014 -0.9951  0.4065 -0.5260
 6328TIP3    H218946   6.798   2.648   5.128 -0.6034 -0.1596 -0.9580
 6329TIP3   OH218947   0.901   4.227   0.307  0.4226 -0.2744 -0.2340
 6329TIP3    H118948   0.913   4.272   0.391 -0.5888  0.6830 -0.5820
 6329TIP3    H218949   0.953   4.147   0.316  0.9812  0.1899  1.0015
 6330TIP3   OH218950   7.496   4.491   4.062  0.0684 -0.0904  0.8004
 6330TIP3    H118951   7.426   4.552   4.040  0.1647 -0.1317  0.3822
 6330TIP3    H218952   7.481   4.415   4.005 -0.7219 -0.9559  2.0922
 6331TIP3   OH218953   6.423   5.544   2.369  0.5539  0.0076 -0.7187
 6331TIP3    H118954   6.433   5.639   2.366 -1.1588  0.1933 -1.8388
 6331TIP3    H218955   6.469   5.512   2.291  1.3516 -0.1151 -0.2030
 6332TIP3   OH218956   2.642   5.288   1.174 -0.0038 -0.2514  0.0143
 6332TIP3    H118957   2.575   5.231   1.138  0.9962 -1.0506 -0.6622
 6332TIP3    H218958   2.724   5.258   1.133  0.7915  0.5758  0.9245
 6333TIP3   OH218959   1.606   5.495   2.345 -0.1096  0.0840  0.2007
 6333TIP3    H118960   1.650   5.558   2.402 -0.8049 -0.3508  1.2497
 6333TIP3    H218961   1.675   5.432   2.323  0.2950  0.5451  0.1108
 6334TIP3   OH218962   3.591   3.183   0.198  0.2651 -0.2755  0.0403
 6334TIP3    H118963   3.520   3.210   0.256 -0.2064  0.9605 -1.0855
 6334TIP3    H218964   3.648   3.259   0.192 -1.3981  0.8772 -3.6700
 6335TIP3   OH218965   2.866   4.605   6.084  0.2315  0.0694 -0.0400
 6335TIP3    H118966   2.786   4.656   6.097  0.9993  1.6856 -1.2873
 6335TIP3    H218967   2.880   4.606   5.990  0.8319 -1.6757 -0.0185
 6336TIP3   OH218968   6.717   4.160   0.710 -0.0652 -0.0558 -0.1430
 6336TIP3    H118969   6.664   4.211   0.647  0.1972  0.0937 -0.2437
 6336TIP3    H218970   6.690   4.070   0.696 -1.9619  0.2172  1.3704
 6337TIP3   OH218971   3.914   4.135   4.651  0.3435  0.4664 -0.6637
 6337TIP3    H118972   3.822   4.142   4.675  0.2554  1.5159 -1.2296
 6337TIP3    H218973   3.924   4.046   4.617 -1.2659  1.3214 -3.7030
 6338TIP3   OH218974   3.266   2.608   5.102 -0.4273  0.8096 -0.5812
 6338TIP3    H118975   3.234   2.541   5.042 -2.7227  1.7330 -0.4830
 6338TIP3    H218976   3.204   2.608   5.174  1.5937  0.5741  1.2553
 6339TIP3   OH218977   3.980   4.376   1.634  0.8174  0.8469 -0.0085
 6339TIP3    H118978   3.971   4.292   1.588  0.9904  0.1198  1.2286
 6339TIP3    H218979   4.039   4.427   1.578 -0.4742  0.7467 -1.5541
 6340TIP3   OH218980   0.595   6.158   0.632  1.0201 -0.0283 -0.6238
 6340TIP3    H118981   0.635   6.237   0.669 -2.7385  1.6892  0.3610
 6340TIP3    H218982   0.571   6.106   0.709 -0.4289  0.0713 -0.9715
 6341TIP3   OH218983   1.138   3.032   5.665  0.1612  0.3793  0.4788
 6341TIP3    H118984   1.159   3.125   5.655  1.2894  0.1004  0.1776
 6341TIP3    H218985   1.044   3.031   5.685 -0.1895  1.4988 -0.9599
 6342TIP3   OH218986   1.910   6.584   4.854 -0.2063 -0.4467 -0.1815
 6342TIP3    H118987   1.843   6.650   4.839  0.7438  0.7738  0.6787
 6342TIP3    H218988   1.866   6.501   4.837 -1.6127  0.3625 -0.7021
 6343TIP3   OH218989   5.724   1.021   2.346  0.0376  0.3911 -0.6321
 6343TIP3    H118990   5.714   0.966   2.268 -1.4085 -1.5103  0.8079
 6343TIP3    H218991   5.812   1.059   2.337  2.0139 -3.6486 -0.8657
 6344TIP3   OH218992   2.539   0.046   5.666  0.3064 -0.1266  0.1369
 6344TIP3    H118993   2.594   0.109   5.713  0.9650 -0.7754  0.2519
 6344TIP3    H218994   2.451   0.064   5.698  0.4274  0.9835 -0.1142
 6345TIP3   OH218995   4.012   0.261   2.977  0.0887 -0.0230  0.0507
 6345TIP3    H118996   3.925   0.279   2.941  0.7679 -0.6894 -2.0723
 6345TIP3    H218997   4.069   0.324   2.933  1.0294 -1.1560 -0.3851
 6346TIP3   OH218998   2.505   3.004   4.647 -0.6193 -0.4587  0.0011
 6346TIP3    H118999   2.503   3.085   4.597  0.6359 -0.0827  0.5092
 6346TIP3    H219000   2.468   2.938   4.588 -1.5997  0.4580 -0.4358
 6347TIP3   OH219001   0.479   5.155   6.063  0.4342 -0.3025  0.2451
 6347TIP3    H119002   0.574   5.149   6.075  0.8369  1.9162 -1.0914
 6347TIP3    H219003   0.465   5.128   5.972  0.0396  0.9348 -0.0828
 6348TIP3   OH219004   3.437   0.080   5.940 -0.0905 -0.2304 -0.0633
 6348TIP3    H119005   3.493   0.031   5.879  1.7594 -0.3773  1.6647
 6348TIP3    H219006   3.402   0.014   5.999  1.8796  0.3455  1.8616
 6349TIP3   OH219007   5.101   6.686   2.535 -0.4337  0.2728 -0.0539
 6349TIP3    H119008   5.147   6.674   2.618  0.0505  1.5156 -0.1278
 6349TIP3    H219009   5.079   6.779   2.532  0.1760  0.3985 -1.6290
 6350TIP3   OH219010   6.402   0.710   5.323 -0.5780 -0.3148 -0.0670
 6350TIP3    H119011   6.411   0.690   5.230  0.1357  1.4082 -0.4188
 6350TIP3    H219012   6.320   0.669   5.349 -0.2285 -1.7907 -1.1667
 6351TIP3   OH219013   3.352   1.737   0.148 -0.0587  0.0191 -0.1527
 6351TIP3    H119014   3.440   1.768   0.170 -0.1608 -0.1119  0.4540
 6351TIP3    H219015   3.339   1.765   0.057 -0.5364  2.6760  0.6576
 6352TIP3   OH219016   2.050   0.609   1.725  0.3260  0.4783 -0.0804
 6352TIP3    H119017   2.127   0.656   1.695  0.9916 -0.1872  0.5468
 6352TIP3    H219018   2.045   0.532   1.669  0.8594 -0.1244  0.6659
 6353TIP3   OH219019   3.575   1.247   2.048  0.1424 -0.6846  0.4160
 6353TIP3    H119020   3.509   1.287   2.105  0.0554 -1.5719  0.9585
 6353TIP3    H219021   3.646   1.310   2.045 -0.5654  0.1265  0.1210
 6354TIP3   OH219022   0.681   6.273   1.834 -0.6644 -0.2295 -0.1138
 6354TIP3    H119023   0.702   6.245   1.745 -0.2984  0.1690 -0.1547
 6354TIP3    H219024   0.591   6.306   1.828 -0.4900  0.1992 -0.4303
 6355TIP3   OH219025   5.879   2.124   1.269 -0.6629 -0.3840  0.2014
 6355TIP3    H119026   5.916   2.212   1.268  0.4883 -0.8476 -1.0335
 6355TIP3    H219027   5.795   2.133   1.223 -2.0723  0.6103  2.7453
 6356TIP3   OH219028   6.754   3.626   4.385  0.0611  0.1286  0.0458
 6356TIP3    H119029   6.806   3.653   4.461  0.9724 -0.8652 -0.2000
 6356TIP3    H219030   6.815   3.579   4.329 -1.1171 -1.1383 -0.2306
 6357TIP3   OH219031   1.062   2.786   5.617  0.9397  0.5760 -0.5494
 6357TIP3    H119032   1.104   2.741   5.544  0.9861 -0.7459  0.2567
 6357TIP3    H219033   1.126   2.852   5.644  1.9503 -0.4875 -0.2369
 6358TIP3   OH219034   5.660   6.367   0.364 -0.3784 -0.0060 -0.1735
 6358TIP3    H119035   5.733   6.428   0.368  0.5104 -1.0117 -0.6375
 6358TIP3    H219036   5.700   6.283   0.344 -1.5524 -0.7871  0.6237
 6359TIP3   OH219037   6.526   6.974   0.729 -0.3964 -0.1600  0.0028
 6359TIP3    H119038   6.564   6.932   0.806 -2.4453 -1.0601  0.5895
 6359TIP3    H219039   6.437   6.938   0.724 -0.4403  0.1376 -2.5717
 6360TIP3   OH219040   4.341   4.831   1.062  0.0041  0.2049  0.3160
 6360TIP3    H119041   4.329   4.902   0.999 -0.5925 -0.2306 -0.0726
 6360TIP3    H219042   4.256   4.786   1.065  0.4295 -0.6235  0.3973
 6361TIP3   OH219043   4.331   4.844   1.574  0.2565  0.4680  1.0513
 6361TIP3    H119044   4.402   4.781   1.565 -0.3584 -0.4041  1.9763
 6361TIP3    H219045   4.314   4.875   1.486 -0.4518 -1.8429  0.2922
 6362TIP3   OH219046   4.478   7.116   3.922  0.0226  0.0643  0.0479
 6362TIP3    H119047   4.422   7.045   3.890  0.6058 -0.3830  0.0046
 6362TIP3    H219048   4.548   7.122   3.856  0.6304 -0.1265  0.6651
 6363TIP3   OH219049   4.866   0.781   3.329  0.2187  0.6033  0.2208
 6363TIP3    H119050   4.917   0.708   3.292  1.9354  0.3612  2.8043
 6363TIP3    H219051   4.797   0.738   3.380  0.6961  0.7631  1.0230
 6364TIP3   OH219052   0.244   0.492   5.964  0.1722  0.1394  0.5072
 6364TIP3    H119053   0.299   0.545   5.906 -1.9842  0.9588 -0.8873
 6364TIP3    H219054   0.201   0.556   6.021 -0.3980 -0.3405  0.6222
 6365TIP3   OH219055   1.680   5.849   1.574 -0.6439  0.0300 -0.4588
 6365TIP3    H119056   1.673   5.807   1.660  3.0229 -0.9987 -0.5309
 6365TIP3    H219057   1.715   5.781   1.516  1.0188  1.8488 -1.7094
 6366TIP3   OH219058   3.683   5.623   3.710  0.3042 -0.3948 -0.6833
 6366TIP3    H119059   3.655   5.540   3.748  0.5891 -0.4862 -0.6741
 6366TIP3    H219060   3.767   5.604   3.668  0.6963  0.0429 -0.1069
 6367TIP3   OH219061   7.339   1.794   1.122  0.4481 -0.3615 -0.0705
 6367TIP3    H119062   7.425   1.814   1.158  0.4196 -0.4697  0.0567
 6367TIP3    H219063   7.356   1.729   1.054  0.6070  0.4808 -0.8581
 6368TIP3   OH219064   7.250   0.303   3.442  0.1888  0.3796  0.0973
 6368TIP3    H119065   7.193   0.365   3.397 -1.0078 -0.3655  0.5613
 6368TIP3    H219066   7.198   0.270   3.515  1.0275 -0.7206  0.2242
 6369TIP3   OH219067   4.200   1.510   0.767 -0.0679  0.2914  0.3843
 6369TIP3    H119068   4.246   1.485   0.686 -0.5776 -0.0395  0.1898
 6369TIP3    H219069   4.267   1.507   0.835  0.2383 -0.0046  0.0732
 6370TIP3   OH219070   3.243   2.684   3.901 -0.1209 -0.1535  0.1341
 6370TIP3    H119071   3.279   2.611   3.852  0.7313  0.0859  0.3921
 6370TIP3    H219072   3.231   2.651   3.989 -1.1522 -0.4228 -0.0939
 6371TIP3   OH219073   4.766   6.330   4.766  0.3254  0.0776  0.4223
 6371TIP3    H119074   4.848   6.329   4.716 -0.6130  0.2458 -1.1654
 6371TIP3    H219075   4.697   6.323   4.701 -0.9261 -1.9611  1.8482
 6372TIP3   OH219076   4.787   5.868   3.634  0.3772  0.4267 -0.1996
 6372TIP3    H119077   4.736   5.842   3.711  1.6566 -1.0962  0.2022
 6372TIP3    H219078   4.776   5.795   3.573 -0.3381  1.4633 -1.3639
 6373TIP3   OH219079   2.528   0.540   4.893  0.1133  0.1933 -0.1584
 6373TIP3    H119080   2.538   0.500   4.806  0.6231 -0.8912  0.3763
 6373TIP3    H219081   2.455   0.493   4.933 -0.4866  1.0684 -0.1859
 6374TIP3   OH219082   3.238   4.961   1.505  0.6296  0.0094 -0.1090
 6374TIP3    H119083   3.333   4.970   1.520  1.0880 -1.0289 -2.0655
 6374TIP3    H219084   3.225   4.992   1.416 -0.8517 -0.1337  0.0299
 6375TIP3   OH219085   6.017   0.456   0.522 -0.2019  0.1883 -0.7100
 6375TIP3    H119086   5.959   0.392   0.563  0.9369 -0.7018 -0.4477
 6375TIP3    H219087   6.003   0.444   0.428  0.7395 -1.1660 -0.6935
 6376TIP3   OH219088   4.218   6.144   2.616 -0.3186  0.7027 -0.2882
 6376TIP3    H119089   4.192   6.151   2.524  1.3459  0.2557 -0.8456
 6376TIP3    H219090   4.311   6.170   2.616 -0.1142  0.0683  1.1551
 6377TIP3   OH219091   2.798   3.617   3.642 -0.4717  1.1797 -0.0244
 6377TIP3    H119092   2.731   3.662   3.693  0.8694  1.4653  1.5735
 6377TIP3    H219093   2.860   3.584   3.707  0.8206  0.7215 -1.4187
 6378TIP3   OH219094   7.024   2.878   4.437  0.0673 -0.2947 -0.5927
 6378TIP3    H119095   7.036   2.824   4.358 -1.0608 -0.9873 -0.3174
 6378TIP3    H219096   7.014   2.967   4.404 -0.7256 -0.6240 -1.2683
 6379TIP3   OH219097   3.463   1.876   1.228  0.1746 -0.4095  0.4814
 6379TIP3    H119098   3.489   1.802   1.282  0.4939 -2.1416 -1.8792
 6379TIP3    H219099   3.370   1.888   1.246  0.3291 -0.7460  1.5866
 6380TIP3   OH219100   2.447   5.409   2.806  0.7406  0.2861  0.4795
 6380TIP3    H119101   2.476   5.320   2.822 -0.3371 -0.0375  0.7280
 6380TIP3    H219102   2.359   5.399   2.768 -1.2120  1.2772  4.2470
 6381TIP3   OH219103   6.577   5.704   4.325  0.8381  0.8260 -0.1388
 6381TIP3    H119104   6.514   5.669   4.387  1.8169 -0.7873 -0.0173
 6381TIP3    H219105   6.660   5.706   4.373  1.2851  1.0830 -0.8997
 6382TIP3   OH219106   0.988   1.198   4.129 -0.2649 -0.0334 -0.1153
 6382TIP3    H119107   0.932   1.182   4.053  0.6498 -1.7135 -0.4664
 6382TIP3    H219108   0.926   1.204   4.203 -1.1356  1.3366 -0.9001
 6383TIP3   OH219109   5.218   1.291   5.743 -0.4665  0.1663 -0.1640
 6383TIP3    H119110   5.228   1.349   5.819  0.2292 -0.2392  0.0593
 6383TIP3    H219111   5.203   1.351   5.669  1.0941  0.6930 -0.0832
 6384TIP3   OH219112   1.840   2.532   1.740 -0.1646  0.0019 -0.7423
 6384TIP3    H119113   1.835   2.622   1.771  0.9056 -0.3347  0.4953
 6384TIP3    H219114   1.749   2.502   1.738 -0.5312  1.1210 -1.2312
 6385TIP3   OH219115   5.397   1.855   4.319  0.4398  0.2599  0.1210
 6385TIP3    H119116   5.462   1.844   4.389  0.4282  0.3995  0.1544
 6385TIP3    H219117   5.374   1.766   4.294  0.7401  0.2085  0.0195
 6386TIP3   OH219118   7.539   2.211   3.607  0.6176 -0.1584 -0.3913
 6386TIP3    H119119   7.509   2.139   3.551  1.7651 -1.0029  0.0334
 6386TIP3    H219120   7.542   2.173   3.695  0.0955  0.7731  0.0494
 6387TIP3   OH219121   1.956   4.476   1.066 -0.4347 -0.2492 -0.2750
 6387TIP3    H119122   2.046   4.451   1.089  0.2507  2.0987 -0.1818
 6387TIP3    H219123   1.903   4.441   1.138 -0.0354 -3.8035 -1.5023
 6388TIP3   OH219124   5.993   2.853   6.039  0.0238  0.1868 -0.3924
 6388TIP3    H119125   6.044   2.934   6.034 -2.4342  1.8579  0.0269
 6388TIP3    H219126   6.056   2.788   6.069  2.1032  1.9204 -0.7095
 6389TIP3   OH219127   2.876   4.815   0.682 -0.3367 -0.0065  0.3439
 6389TIP3    H119128   2.937   4.790   0.751 -0.2953 -0.4865  0.1325
 6389TIP3    H219129   2.813   4.743   0.677 -0.5828  0.2177  0.1652
 6390TIP3   OH219130   1.336   0.194   1.047  0.0241 -0.2541  0.3581
 6390TIP3    H119131   1.327   0.199   0.952 -2.3532 -1.6601  0.4296
 6390TIP3    H219132   1.266   0.251   1.080  1.0903  0.5493  1.2997
 6391TIP3   OH219133   6.411   0.291   4.840 -0.2075 -0.0084 -0.1365
 6391TIP3    H119134   6.453   0.298   4.754 -1.5011 -0.9478 -0.8822
 6391TIP3    H219135   6.483   0.287   4.902  0.7537  1.0749 -1.1414
 6392TIP3   OH219136   3.209   0.238   4.040 -0.2584 -0.2224 -0.3982
 6392TIP3    H119137   3.265   0.270   4.111 -2.4840  0.5297  1.1385
 6392TIP3    H219138   3.221   0.143   4.041  0.2744 -0.1539  0.5279
 6393TIP3   OH219139   1.547   6.029   1.764  0.1414  0.3979  0.1757
 6393TIP3    H119140   1.586   6.018   1.677 -0.0116 -1.4470  0.3115
 6393TIP3    H219141   1.550   5.942   1.803 -1.3930  0.8376  1.3569
 6394TIP3   OH219142   3.425   0.644   5.853 -0.1040  0.0611 -0.0830
 6394TIP3    H119143   3.390   0.664   5.766 -1.4916 -0.4278  0.3316
 6394TIP3    H219144   3.508   0.599   5.836  0.2191  0.9953 -1.1143
 6395TIP3   OH219145   0.673   2.431   2.040  0.2694 -0.0707 -0.2271
 6395TIP3    H119146   0.664   2.335   2.037  0.8877 -0.2075  1.2179
 6395TIP3    H219147   0.756   2.449   1.996  1.2971 -0.4507  1.4563
 6396TIP3   OH219148   5.056   0.738   6.146 -0.5934  0.0178  0.1966
 6396TIP3    H119149   4.969   0.706   6.122  0.3671 -2.5728 -0.1459
 6396TIP3    H219150   5.059   0.729   6.242 -0.2930 -1.1453  0.0948
 6397TIP3   OH219151   2.752   6.945   5.507 -0.6544  0.1047 -0.2325
 6397TIP3    H119152   2.733   6.869   5.561 -1.4304 -1.1201 -2.1410
 6397TIP3    H219153   2.703   7.016   5.548 -1.2688 -0.7860  0.6170
 6398TIP3   OH219154   5.285   5.955   0.725  0.1724 -0.3580  0.5538
 6398TIP3    H119155   5.193   5.929   0.716  0.2237 -2.4887  4.2700
 6398TIP3    H219156   5.328   5.878   0.760  3.3564  0.7643 -0.5608
 6399TIP3   OH219157   2.325   7.074   3.518 -0.6292 -0.0827  0.3726
 6399TIP3    H119158   2.329   7.028   3.601 -0.9712  1.8622  1.5235
 6399TIP3    H219159   2.391   7.031   3.463  0.8247 -0.3065  2.2166
 6400TIP3   OH219160   4.285   3.221   1.504 -0.7386 -0.3072  0.6047
 6400TIP3    H119161   4.266   3.221   1.598  0.1572  0.7398  0.8146
 6400TIP3    H219162   4.377   3.247   1.499 -0.8869  0.0285 -0.5799
 6401TIP3   OH219163   7.091   0.612   4.420 -0.2041 -0.3331 -0.9404
 6401TIP3    H119164   7.131   0.650   4.498  0.6795 -1.7763 -0.6592
 6401TIP3    H219165   7.164   0.572   4.373 -0.7354  0.4465 -2.4871
 6402TIP3   OH219166   1.141   2.111   0.450  0.2291 -0.4722 -0.1214
 6402TIP3    H119167   1.084   2.183   0.423  0.0248 -0.1563  1.0735
 6402TIP3    H219168   1.100   2.033   0.412 -0.7634 -0.1938  0.3346
 6403TIP3   OH219169   1.330   2.832   2.521  0.7418 -0.6131 -0.0625
 6403TIP3    H119170   1.354   2.845   2.613  1.2488 -0.2122 -0.2504
 6403TIP3    H219171   1.287   2.913   2.496 -0.2802 -1.0849  0.0868
 6404TIP3   OH219172   2.081   0.305   4.544 -0.2077  0.1472  0.8304
 6404TIP3    H119173   2.044   0.217   4.547  0.7021 -0.4323 -1.7453
 6404TIP3    H219174   2.174   0.291   4.527 -0.1691  1.5756 -0.3875
 6405TIP3   OH219175   0.372   5.853   4.308  0.0703 -0.2141  0.2991
 6405TIP3    H119176   0.361   5.823   4.218 -0.7237  1.0635 -0.0607
 6405TIP3    H219177   0.283   5.853   4.345  0.4844 -1.5957  1.4018
 6406TIP3   OH219178   5.470   1.827   0.664 -0.2440 -0.1256 -0.2352
 6406TIP3    H119179   5.527   1.902   0.683  1.0342 -1.0847 -0.1116
 6406TIP3    H219180   5.382   1.861   0.672  0.1746  0.4847  3.8657
 6407TIP3   OH219181   5.652   4.673   0.957 -0.3268  0.2457 -0.2489
 6407TIP3    H119182   5.596   4.700   0.884 -0.7252  1.5177  0.5010
 6407TIP3    H219183   5.606   4.598   0.996 -0.7779  0.3861 -0.5061
 6408TIP3   OH219184   5.220   3.535   4.521  0.6701  0.5765 -0.1875
 6408TIP3    H119185   5.239   3.464   4.582  1.2509 -0.2382 -1.2885
 6408TIP3    H219186   5.285   3.603   4.542  1.8746 -0.3312 -0.9057
 6409TIP3   OH219187   3.346   1.232   3.944 -0.1305 -0.9464  0.0508
 6409TIP3    H119188   3.270   1.286   3.923  1.5420  2.0013  0.9637
 6409TIP3    H219189   3.411   1.255   3.877  1.9309  1.2863  2.5995
 6410TIP3   OH219190   2.312   6.823   1.458 -0.0315  0.0954  0.2101
 6410TIP3    H119191   2.315   6.829   1.554  0.3774 -1.5254  0.3174
 6410TIP3    H219192   2.387   6.875   1.428  0.0787  0.2687  0.7766
 6411TIP3   OH219193   0.371   2.054   3.676 -0.0581  0.0646 -0.2175
 6411TIP3    H119194   0.291   2.002   3.678  0.6095 -1.0193 -0.4739
 6411TIP3    H219195   0.342   2.144   3.679 -1.3118 -0.2997 -0.8757
 6412TIP3   OH219196   1.408   5.319   5.582 -1.0901  0.4823  0.4965
 6412TIP3    H119197   1.407   5.270   5.665  1.7273  1.8663  1.4696
 6412TIP3    H219198   1.383   5.408   5.607  2.0268  1.4932  0.4336
 6413TIP3   OH219199   0.948   6.828   3.762 -0.0678 -0.1339 -0.5995
 6413TIP3    H119200   0.975   6.761   3.825 -0.3939 -0.2485 -0.5794
 6413TIP3    H219201   1.008   6.901   3.777 -1.2290  0.5302  1.0581
 6414TIP3   OH219202   2.947   6.505   1.972  0.0571 -0.3086 -0.9523
 6414TIP3    H119203   2.907   6.553   1.900 -2.0403 -1.3409 -0.5873
 6414TIP3    H219204   3.002   6.439   1.930  0.6945  0.5627 -1.5107
 6415TIP3   OH219205   3.279   1.431   0.937  0.7835 -1.3300  0.4842
 6415TIP3    H119206   3.241   1.518   0.948  3.6582  0.2595 -1.2855
 6415TIP3    H219207   3.346   1.425   1.005  1.9752 -1.3217 -0.6701
 6416TIP3   OH219208   2.355   6.475   3.142  0.0148 -0.5212  0.3944
 6416TIP3    H119209   2.290   6.485   3.073 -0.4308  2.0533  1.0902
 6416TIP3    H219210   2.380   6.565   3.165  1.6093 -1.3558  2.2189
 6417TIP3   OH219211   2.272   0.995   3.691 -0.2163 -0.0296  0.4550
 6417TIP3    H119212   2.264   0.985   3.596 -1.6053  2.8269  0.1713
 6417TIP3    H219213   2.366   0.996   3.707  0.1157  1.5172 -1.2305
 6418TIP3   OH219214   4.994   1.513   3.893  0.3677  0.0027  0.0085
 6418TIP3    H119215   5.030   1.591   3.936  1.4023 -0.2752 -0.3430
 6418TIP3    H219216   4.981   1.540   3.802 -0.3962  0.1169  0.1393
 6419TIP3   OH219217   0.745   2.735   3.184 -0.2278 -0.0314  0.4267
 6419TIP3    H119218   0.821   2.794   3.186  0.5774 -1.0477  1.9163
 6419TIP3    H219219   0.712   2.736   3.274 -0.3512 -1.6182  0.4240
 6420TIP3   OH219220   5.814   3.116   2.495 -0.1044  0.3173 -0.0633
 6420TIP3    H119221   5.855   3.041   2.537  2.4075  0.2900 -2.2682
 6420TIP3    H219222   5.802   3.089   2.404 -0.5607  2.0702 -0.5753
 6421TIP3   OH219223   2.530   6.782   2.909  0.1498 -0.3220 -0.7361
 6421TIP3    H119224   2.578   6.701   2.931 -0.3065 -0.3793  0.0623
 6421TIP3    H219225   2.590   6.830   2.852  0.3815 -1.2778 -1.3179
 6422TIP3   OH219226   4.932   4.018   0.123 -0.1090 -0.7392  0.1812
 6422TIP3    H119227   5.005   4.067   0.086  0.2254 -0.7778  0.7763
 6422TIP3    H219228   4.943   4.027   0.217  0.3143 -2.4636  0.3260
 6423TIP3   OH219229   3.751   6.019   3.874 -0.0216 -0.5456 -0.2541
 6423TIP3    H119230   3.742   5.943   3.931 -1.9036  1.0986  1.8306
 6423TIP3    H219231   3.777   6.090   3.932 -0.5883  0.9074 -1.6825
 6424TIP3   OH219232   2.420   5.349   2.022 -0.1900  0.1915 -0.3369
 6424TIP3    H119233   2.441   5.258   2.001  3.4392  0.8161 -0.0489
 6424TIP3    H219234   2.442   5.398   1.942  1.5272  1.1594  0.6651
 6425TIP3   OH219235   0.633   1.613   3.998 -0.2084  0.0400  0.1590
 6425TIP3    H119236   0.587   1.646   4.075 -1.4808 -2.2728  0.4877
 6425TIP3    H219237   0.598   1.525   3.986  1.4794 -0.4213 -1.8491
 6426TIP3   OH219238   0.788   5.606   3.375  0.0542 -0.2229 -0.2927
 6426TIP3    H119239   0.864   5.603   3.316 -0.1973 -0.8176 -0.5931
 6426TIP3    H219240   0.748   5.691   3.358  0.8908  0.2786  0.1723
 6427TIP3   OH219241   0.531   5.305   2.672  0.1353 -0.5413 -0.4980
 6427TIP3    H119242   0.575   5.317   2.756 -2.4037  2.5649  0.5755
 6427TIP3    H219243   0.478   5.225   2.683 -0.2119 -0.1343  0.9117
 6428TIP3   OH219244   0.980   1.280   5.313  0.2818 -0.1557  0.6414
 6428TIP3    H119245   0.888   1.264   5.293  0.3022 -0.1709  0.5612
 6428TIP3    H219246   0.978   1.331   5.394  0.2024 -0.1417  0.6304
 6429TIP3   OH219247   2.907   4.351   4.517 -0.0570 -0.3553  0.0081
 6429TIP3    H119248   2.855   4.285   4.562 -1.8731 -0.3387 -1.9307
 6429TIP3    H219249   2.892   4.335   4.424  0.3250  2.0768 -0.5511
 6430TIP3   OH219250   3.489   1.627   6.128  0.3139 -0.1369  0.1108
 6430TIP3    H119251   3.486   1.572   6.206  2.6887  0.6964  0.8858
 6430TIP3    H219252   3.402   1.667   6.124 -1.2103 -3.2141 -0.0243
 6431TIP3   OH219253   2.609   4.060   1.303 -0.2704  0.9740 -0.5076
 6431TIP3    H119254   2.640   4.132   1.249  2.1895  0.3422 -0.0745
 6431TIP3    H219255   2.687   4.028   1.348 -0.8932 -2.9158 -1.7509
 6432TIP3   OH219256   3.142   2.671   6.088  1.0422  0.1177  0.2702
 6432TIP3    H119257   3.223   2.625   6.110  2.2260  1.7009 -0.5343
 6432TIP3    H219258   3.169   2.763   6.080 -0.9745  0.7742  0.6112
 6433TIP3   OH219259   7.209   1.483   1.613 -0.0881 -0.4130  0.4355
 6433TIP3    H119260   7.242   1.551   1.553 -2.4278  0.7791  0.3883
 6433TIP3    H219261   7.226   1.401   1.567  1.0125  0.2632 -0.4277
 6434TIP3   OH219262   5.410   1.354   0.646 -0.0555  0.1839 -0.0290
 6434TIP3    H119263   5.431   1.397   0.563  0.6537 -0.8020 -0.3731
 6434TIP3    H219264   5.494   1.348   0.692 -0.4819  0.9686  0.9027
 6435TIP3   OH219265   3.189   4.109   0.082 -0.1869  0.4010  0.3478
 6435TIP3    H119266   3.110   4.059   0.101 -0.1939  0.1930 -0.2170
 6435TIP3    H219267   3.159   4.185   0.034 -0.1371  0.7771  0.9050
 6436TIP3   OH219268   1.327   7.063   2.818 -0.7192 -0.3871  0.3545
 6436TIP3    H119269   1.276   7.127   2.768 -0.3893  1.1956  1.9224
 6436TIP3    H219270   1.401   7.114   2.853 -1.2884 -1.1971  2.9910
 6437TIP3   OH219271   1.238   3.216   6.195  0.1078 -0.4311  0.4824
 6437TIP3    H119272   1.253   3.305   6.163  1.5287 -1.3625 -1.6474
 6437TIP3    H219273   1.143   3.204   6.185 -0.2854  1.1568  1.8261
 6438TIP3   OH219274   5.351   1.426   1.660 -0.3233  0.5007  0.8672
 6438TIP3    H119275   5.388   1.456   1.743 -1.3196  2.1970  0.7555
 6438TIP3    H219276   5.399   1.346   1.639  0.2673  0.2908  2.8344
 6439TIP3   OH219277   0.832   4.823   4.353 -0.4653 -0.5490  0.2797
 6439TIP3    H119278   0.753   4.775   4.378  0.0451 -1.5336  0.0762
 6439TIP3    H219279   0.833   4.898   4.412 -0.5594 -1.5396  1.6154
 6440TIP3   OH219280   0.533   1.107   2.486 -0.3904 -0.2448 -0.2242
 6440TIP3    H119281   0.578   1.033   2.444  1.3199  0.9531 -0.6108
 6440TIP3    H219282   0.514   1.076   2.574 -2.3131 -2.1289 -1.1782
 6441TIP3   OH219283   0.390   3.146   1.523  0.2825 -0.3964  0.2630
 6441TIP3    H119284   0.477   3.173   1.553 -0.1858 -0.9978  2.3004
 6441TIP3    H219285   0.397   3.051   1.509  0.3068 -0.2309 -0.9454
 6442TIP3   OH219286   6.238   4.829   4.496  0.3957 -0.1611  0.3770
 6442TIP3    H119287   6.302   4.900   4.487 -1.0836  1.0732 -1.1088
 6442TIP3    H219288   6.161   4.870   4.535  0.1600 -1.4006  1.2764
 6443TIP3   OH219289   1.426   5.850   0.442  0.3973  1.0230  0.1896
 6443TIP3    H119290   1.355   5.882   0.498 -0.6620  1.1657 -1.1769
 6443TIP3    H219291   1.418   5.901   0.362  0.5391 -0.5835 -0.9027
 6444TIP3   OH219292   2.867   4.957   4.554  0.0633  0.3943 -0.4596
 6444TIP3    H119293   2.877   5.051   4.536  0.7102  0.3004 -0.6183
 6444TIP3    H219294   2.832   4.953   4.643 -1.3656  0.8199 -0.9726
 6445TIP3   OH219295   4.735   4.167   4.467 -0.3258 -0.3217 -0.0746
 6445TIP3    H119296   4.725   4.106   4.540 -0.2265 -0.4160 -0.1392
 6445TIP3    H219297   4.700   4.119   4.391  1.1307 -0.8948 -0.4271
 6446TIP3   OH219298   0.643   0.411   5.365  0.4377 -0.9531  0.3311
 6446TIP3    H119299   0.621   0.458   5.284  0.9880 -1.7689 -0.3125
 6446TIP3    H219300   0.604   0.463   5.434 -1.0072 -0.8150 -0.5486
 6447TIP3   OH219301   6.052   1.327   4.175 -0.3501  0.1661  0.0835
 6447TIP3    H119302   5.999   1.298   4.100 -0.0472 -0.5954  0.1637
 6447TIP3    H219303   6.000   1.304   4.252  0.0899 -0.5792  0.1631
 6448TIP3   OH219304   7.303   1.364   5.792 -0.3467 -0.0519 -0.4071
 6448TIP3    H119305   7.292   1.409   5.708  0.4275 -0.2657 -0.6287
 6448TIP3    H219306   7.235   1.297   5.792  0.2381 -0.6757 -1.2919
 6449TIP3   OH219307   4.525   3.354   5.830 -0.0794 -0.0569  0.1836
 6449TIP3    H119308   4.568   3.436   5.808 -0.7590  0.5109  0.9008
 6449TIP3    H219309   4.560   3.331   5.917 -0.4205 -0.1476  0.2994
 6450TIP3   OH219310   7.228   4.583   5.003  0.0336 -0.3366  0.3710
 6450TIP3    H119311   7.139   4.604   5.030 -0.1263 -1.0033  0.3889
 6450TIP3    H219312   7.283   4.650   5.044 -0.1216 -1.6490  2.8759
 6451TIP3   OH219313   5.320   3.060   0.198  0.5053 -0.0739  0.0277
 6451TIP3    H119314   5.308   2.997   0.128  0.7762 -0.2362  0.1237
 6451TIP3    H219315   5.398   3.110   0.173 -0.4206  1.0608 -0.6625
 6452TIP3   OH219316   5.851   5.186   4.981 -0.4806 -0.2944  0.5909
 6452TIP3    H119317   5.772   5.167   5.032  0.0054  0.3673  1.6369
 6452TIP3    H219318   5.847   5.280   4.965 -1.4582 -0.7093 -2.1067
 6453TIP3   OH219319   6.970   0.360   4.748 -0.1117 -0.3097  0.0453
 6453TIP3    H119320   6.995   0.311   4.826 -0.8725  0.8599  1.0463
 6453TIP3    H219321   7.044   0.348   4.687  0.7851 -0.6966  1.1805
 6454TIP3   OH219322   1.018   5.444   4.927  0.1862 -0.2454 -0.4265
 6454TIP3    H119323   1.105   5.482   4.944  0.1763 -0.9073  1.2915
 6454TIP3    H219324   1.033   5.350   4.922 -0.3261 -0.3046 -0.9788
 6455TIP3   OH219325   2.954   1.846   1.780 -0.9533  0.1161 -0.0742
 6455TIP3    H119326   2.903   1.778   1.824  0.0359  0.0165  0.9621
 6455TIP3    H219327   2.922   1.928   1.818 -1.3251  0.1514 -0.4614
 6456TIP3   OH219328   3.616   1.759   3.219  0.1743 -0.0175  0.3273
 6456TIP3    H119329   3.548   1.787   3.158  0.7781  0.8087  0.0141
 6456TIP3    H219330   3.568   1.724   3.294 -0.5871 -2.1286 -1.0684
 6457TIP3   OH219331   4.193   6.616   4.981 -0.2037 -0.3792  0.2850
 6457TIP3    H119332   4.112   6.571   5.005 -1.1368 -0.1614 -2.1200
 6457TIP3    H219333   4.203   6.598   4.888  0.5912  2.4821 -0.2825
 6458TIP3   OH219334   5.856   1.207   6.054 -0.6958  0.1124  0.4677
 6458TIP3    H119335   5.932   1.162   6.090 -1.1297  0.4352  1.8400
 6458TIP3    H219336   5.815   1.141   5.998  0.5908 -0.0544 -0.3184
 6459TIP3   OH219337   3.521   5.163   3.728 -0.5982  0.2149 -0.5008
 6459TIP3    H119338   3.449   5.121   3.774 -0.5293  1.1894  0.5149
 6459TIP3    H219339   3.596   5.105   3.743 -0.7180  0.2084  0.0818
 6460TIP3   OH219340   4.609   6.414   4.534 -0.2980  0.1794  0.1537
 6460TIP3    H119341   4.540   6.348   4.525 -0.4393  0.2479  0.6875
 6460TIP3    H219342   4.604   6.465   4.453 -0.3239 -0.3365 -0.1733
 6461TIP3   OH219343   6.951   3.730   0.722 -0.0182 -0.2536  0.1713
 6461TIP3    H119344   6.959   3.695   0.633 -0.2561  1.1151 -0.4216
 6461TIP3    H219345   6.857   3.736   0.737 -0.1294  2.6043 -0.8528
 6462TIP3   OH219346   0.215   0.918   0.888 -0.1457  0.2216  0.0123
 6462TIP3    H119347   0.239   1.005   0.918  0.5077  0.2801 -0.6180
 6462TIP3    H219348   0.120   0.919   0.882 -0.1608  0.7890  0.3032
 6463TIP3   OH219349   6.536   4.402   3.898 -0.2979 -0.3331  0.0583
 6463TIP3    H119350   6.466   4.402   3.963  0.1001  0.6240  0.4926
 6463TIP3    H219351   6.491   4.410   3.814 -0.6910  1.1957  0.3851
 6464TIP3   OH219352   5.778   7.030   2.777 -0.4901 -0.4123  0.7414
 6464TIP3    H119353   5.799   6.939   2.800 -1.6218 -1.6907 -2.6342
 6464TIP3    H219354   5.683   7.035   2.786 -0.4724  0.3160  0.5157
 6465TIP3   OH219355   2.187   4.471   1.227  0.5274  0.0720 -0.0880
 6465TIP3    H119356   2.172   4.557   1.189  0.3562  0.0240 -0.1317
 6465TIP3    H219357   2.183   4.485   1.322 -0.3265 -0.0260 -0.0993
 6466TIP3   OH219358   6.147   3.548   0.869  0.5829  0.0723 -0.4048
 6466TIP3    H119359   6.099   3.491   0.928 -0.1110  1.2365  0.1885
 6466TIP3    H219360   6.144   3.503   0.784 -2.1240  0.3676 -0.5493
 6467TIP3   OH219361   7.059   6.467   3.022 -0.2870  0.3681 -0.1985
 6467TIP3    H119362   7.068   6.479   3.116 -0.0889 -0.2686 -0.1375
 6467TIP3    H219363   6.971   6.430   3.010  0.2260 -0.9175 -0.1346
 6468TIP3   OH219364   2.171   3.058   3.914  0.1591  1.0739  0.0923
 6468TIP3    H119365   2.206   3.142   3.944  0.4633  1.5259 -1.4322
 6468TIP3    H219366   2.246   3.014   3.873 -0.2768  0.5919 -0.2006
 6469TIP3   OH219367   0.118   7.087   0.645 -0.6354 -0.1090 -0.1053
 6469TIP3    H119368   0.134   7.079   0.551 -1.4715  1.7187 -0.4604
 6469TIP3    H219369   0.155   7.008   0.683  4.6941  1.4108 -1.2871
 6470TIP3   OH219370   2.970   0.511   1.102 -0.1206 -0.1208 -0.8793
 6470TIP3    H119371   2.949   0.519   1.009 -0.6786 -3.2185 -1.1219
 6470TIP3    H219372   2.886   0.495   1.144  0.0568  1.7844  0.3191
 6471TIP3   OH219373   1.475   4.721   5.760 -0.1462 -0.0505 -0.0332
 6471TIP3    H119374   1.421   4.645   5.782 -1.3900  0.7299 -0.2823
 6471TIP3    H219375   1.428   4.764   5.689  0.6627  0.8216 -0.0661
 6472TIP3   OH219376   6.960   4.945   1.355  0.2003 -0.3555  0.3169
 6472TIP3    H119377   6.914   4.939   1.438 -0.1250  0.1036  0.1792
 6472TIP3    H219378   6.898   4.990   1.297  0.0211 -1.5616 -0.4641
 6473TIP3   OH219379   7.186   2.912   5.451 -0.1952  0.1083  0.0973
 6473TIP3    H119380   7.280   2.897   5.442 -0.3513 -1.4092  0.7798
 6473TIP3    H219381   7.146   2.864   5.379 -0.5072 -0.0386  0.3636
 6474TIP3   OH219382   4.760   6.240   4.185 -0.1871 -0.4233  0.4186
 6474TIP3    H119383   4.773   6.212   4.094  0.5557 -0.3019  0.4756
 6474TIP3    H219384   4.798   6.328   4.189 -3.8405  1.3803 -0.1451
 6475TIP3   OH219385   6.768   1.780   5.958 -0.4240 -0.2462 -0.3037
 6475TIP3    H119386   6.804   1.691   5.956 -0.3720 -0.2411  0.2726
 6475TIP3    H219387   6.772   1.806   6.050 -0.4354  0.3592 -0.4681
 6476TIP3   OH219388   4.208   2.543   5.009  0.3742 -0.0400 -1.4941
 6476TIP3    H119389   4.198   2.498   5.092 -1.0195 -0.6327 -1.9549
 6476TIP3    H219390   4.242   2.630   5.033  3.3222 -1.3205 -0.6222
 6477TIP3   OH219391   1.248   4.665   1.668 -0.3659  0.4987 -0.3523
 6477TIP3    H119392   1.167   4.674   1.617 -0.4632  0.5099 -0.1967
 6477TIP3    H219393   1.222   4.685   1.758  0.1269  2.1436 -0.5308
 6478TIP3   OH219394   4.544   6.200   1.996 -0.3465 -0.4358 -0.1900
 6478TIP3    H119395   4.530   6.199   1.901 -2.1763  3.1644 -0.1408
 6478TIP3    H219396   4.456   6.202   2.033  0.3199  0.2644  1.4473
 6479TIP3   OH219397   1.563   1.581   0.903  0.5572 -0.2873  0.2817
 6479TIP3    H119398   1.549   1.491   0.930  2.0010 -0.3228  0.9636
 6479TIP3    H219399   1.640   1.610   0.951  0.6540  1.0266 -0.5958
 6480TIP3   OH219400   5.066   3.389   2.230  0.9302 -0.0674 -0.1613
 6480TIP3    H119401   5.029   3.473   2.202  0.7414  0.3171  1.1651
 6480TIP3    H219402   5.046   3.384   2.323  1.5295 -1.2900 -0.0782
 6481TIP3   OH219403   4.068   7.123   1.346 -0.0574 -0.2232 -0.1976
 6481TIP3    H119404   4.157   7.129   1.312  0.0987  0.0211  0.2507
 6481TIP3    H219405   4.024   7.201   1.311 -1.0370 -1.9053 -3.0788
 6482TIP3   OH219406   7.489   5.822   2.086 -0.4694  0.5151 -0.1995
 6482TIP3    H119407   7.528   5.812   1.999  0.0186  2.3224 -0.2450
 6482TIP3    H219408   7.473   5.733   2.115  3.3115 -0.4275 -0.3656
 6483TIP3   OH219409   1.281   6.131   2.807  0.2017  0.0988 -0.2340
 6483TIP3    H119410   1.330   6.090   2.736 -0.9656 -1.3821 -0.2303
 6483TIP3    H219411   1.210   6.178   2.763 -1.4790 -2.1253 -0.0595
 6484TIP3   OH219412   4.655   4.605   5.965 -0.5572 -0.2536 -0.0623
 6484TIP3    H119413   4.694   4.665   6.028  0.4764 -2.7169  1.7928
 6484TIP3    H219414   4.604   4.661   5.907  0.3824  2.3840  1.5002
 6485TIP3   OH219415   3.870   5.549   4.228  0.1337 -0.4158 -0.6791
 6485TIP3    H119416   3.796   5.590   4.183 -0.0309 -0.1873 -0.2083
 6485TIP3    H219417   3.940   5.614   4.226 -0.2901  0.1143  0.5125
 6486TIP3   OH219418   6.799   5.523   2.973  0.7926  0.3244 -0.0021
 6486TIP3    H119419   6.818   5.594   2.912  1.0574 -1.6137 -2.3647
 6486TIP3    H219420   6.732   5.558   3.032 -0.3624  2.0028 -2.1706
 6487TIP3   OH219421   0.437   6.349   1.762 -0.0020 -0.0068  0.4431
 6487TIP3    H119422   0.354   6.304   1.744  0.6351 -1.1264  0.1697
 6487TIP3    H219423   0.411   6.430   1.806 -1.2487 -0.2476  0.2101
 6488TIP3   OH219424   3.452   0.979   3.480 -0.1393  0.0135  0.1017
 6488TIP3    H119425   3.541   1.015   3.487 -0.6964  1.2581  1.1851
 6488TIP3    H219426   3.402   1.047   3.435 -0.7318 -0.3204  0.2503
 6489TIP3   OH219427   6.445   4.934   1.252  0.0870  0.0009  0.6546
 6489TIP3    H119428   6.434   5.026   1.231 -1.1158 -0.3869 -0.5344
 6489TIP3    H219429   6.510   4.902   1.190  0.8133  0.1248  1.3363
 6490TIP3   OH219430   5.065   0.229   0.187 -0.4390  0.2694 -0.5287
 6490TIP3    H119431   5.106   0.304   0.231 -0.8336 -0.9914  2.2409
 6490TIP3    H219432   5.074   0.248   0.094  2.3939  2.1707 -0.0102
 6491TIP3   OH219433   4.289   4.045   0.987  0.7340  0.3405 -0.6622
 6491TIP3    H119434   4.267   3.956   0.960  0.3091  0.0625  0.5303
 6491TIP3    H219435   4.213   4.097   0.964  0.0198 -0.0539  0.7174
 6492TIP3   OH219436   2.395   2.665   0.520  0.5907  0.0896 -0.5793
 6492TIP3    H119437   2.414   2.757   0.538  2.5259 -0.1430 -1.1770
 6492TIP3    H219438   2.307   2.665   0.484 -0.0763  1.5043  0.9683
 6493TIP3   OH219439   3.813   0.312   0.675 -0.2699 -0.8330 -0.4369
 6493TIP3    H119440   3.817   0.316   0.771 -1.4045 -0.4206 -0.3930
 6493TIP3    H219441   3.872   0.381   0.645  0.6480 -1.4373 -0.0541
 6494TIP3   OH219442   3.960   0.501   0.541  0.7899 -0.2897  0.1217
 6494TIP3    H119443   3.971   0.507   0.446 -0.9186 -0.6099 -0.1288
 6494TIP3    H219444   3.963   0.592   0.570  0.9869 -0.1608 -0.2833
 6495TIP3   OH219445   6.744   4.057   5.632 -0.6439  0.1802  0.2370
 6495TIP3    H119446   6.776   4.110   5.559 -0.9868 -1.0597 -0.8512
 6495TIP3    H219447   6.726   4.120   5.702 -0.5860  1.4308 -0.8498
 6496TIP3   OH219448   2.624   0.107   1.695 -0.3095  0.0965 -0.1899
 6496TIP3    H119449   2.579   0.182   1.735  0.5993  0.6497 -0.1733
 6496TIP3    H219450   2.603   0.033   1.752  0.9917  0.8714  1.3678
 6497TIP3   OH219451   5.538   2.508   4.579 -0.2861  0.3326 -0.5488
 6497TIP3    H119452   5.450   2.538   4.554 -0.5992  0.5063  0.6901
 6497TIP3    H219453   5.528   2.414   4.593 -0.2590  0.3379 -0.4934
 6498TIP3   OH219454   3.088   1.625   2.897 -0.0634  0.5498 -0.2133
 6498TIP3    H119455   3.128   1.549   2.855 -1.0624 -0.8305  1.2135
 6498TIP3    H219456   3.137   1.635   2.979  1.7747  3.1137 -1.4867
 6499TIP3   OH219457   1.638   2.872   5.595 -0.1924  0.7152  0.3849
 6499TIP3    H119458   1.573   2.875   5.524 -1.0393  1.8196  1.1618
 6499TIP3    H219459   1.589   2.838   5.670  0.8733 -1.1209  0.2993
 6500TIP3   OH219460   4.986   6.939   4.521 -0.4115  0.2814 -0.4720
 6500TIP3    H119461   5.044   6.870   4.488 -0.2907  0.0620  0.1876
 6500TIP3    H219462   4.999   7.013   4.461 -2.1409 -0.9494 -2.5066
 6501TIP3   OH219463   5.979   0.964   3.385  0.1043 -0.2980  0.0977
 6501TIP3    H119464   6.061   0.972   3.432 -0.3874 -3.2167  1.6677
 6501TIP3    H219465   5.942   0.880   3.414 -2.4966 -0.0264 -2.0058
 6502TIP3   OH219466   4.172   6.369   3.785  0.3309 -0.1605  0.2541
 6502TIP3    H119467   4.138   6.280   3.796  1.8200 -0.7496  0.2177
 6502TIP3    H219468   4.228   6.365   3.707 -0.1641  1.0032 -0.2003
 6503TIP3   OH219469   2.469   4.325   0.608  0.2849  0.2001 -0.4171
 6503TIP3    H119470   2.398   4.267   0.581  0.5224 -0.9785  1.2832
 6503TIP3    H219471   2.490   4.376   0.530 -2.5724  0.7819 -0.9305
 6504TIP3   OH219472   1.113   6.644   3.535 -0.4134  0.0575 -0.4837
 6504TIP3    H119473   1.050   6.620   3.467 -0.7219  0.7599 -0.4455
 6504TIP3    H219474   1.068   6.626   3.617 -0.6488  0.7617 -0.4549
 6505TIP3   OH219475   2.498   0.557   3.337  0.7037 -0.0063 -0.0383
 6505TIP3    H119476   2.567   0.600   3.286  0.6771 -1.4652 -1.3852
 6505TIP3    H219477   2.539   0.475   3.366  0.0958 -0.0564  0.6982
 6506TIP3   OH219478   4.610   5.175   4.207 -0.2262  0.6794  0.0675
 6506TIP3    H119479   4.559   5.110   4.159  2.2745 -1.5907  0.2412
 6506TIP3    H219480   4.634   5.241   4.142 -1.6051  0.7091 -0.4396
 6507TIP3   OH219481   2.067   1.060   4.153  0.3384  0.1749 -0.2700
 6507TIP3    H119482   1.975   1.086   4.162  1.2395  3.7971  0.0084
 6507TIP3    H219483   2.071   1.012   4.071 -2.0182 -1.4740  0.4866
 6508TIP3   OH219484   0.847   1.424   5.782 -0.8318  0.3922 -0.1303
 6508TIP3    H119485   0.867   1.476   5.860 -2.2884 -0.4249  0.8500
 6508TIP3    H219486   0.757   1.394   5.796 -0.0831 -2.4070 -0.5713
 6509TIP3   OH219487   5.133   1.601   0.514 -0.3890  0.6563  0.3666
 6509TIP3    H119488   5.078   1.531   0.478 -1.0867 -0.2418  2.9186
 6509TIP3    H219489   5.221   1.564   0.518 -0.7792 -0.2011  1.8263
 6510TIP3   OH219490   5.185   3.178   5.551  0.5712 -0.2223  0.3878
 6510TIP3    H119491   5.256   3.179   5.486  0.1100  1.6375 -0.1548
 6510TIP3    H219492   5.226   3.211   5.631  0.6331 -0.4551  0.4526
 6511TIP3   OH219493   3.930   3.380   4.232  0.3160  0.5482 -0.4043
 6511TIP3    H119494   4.011   3.430   4.221  1.0361 -0.3936  0.3073
 6511TIP3    H219495   3.861   3.435   4.196  1.0564  2.0786  0.4355
 6512TIP3   OH219496   3.583   4.969   0.077  0.4031  0.1483 -0.1523
 6512TIP3    H119497   3.520   4.904   0.109 -1.7935  1.6669 -1.1231
 6512TIP3    H219498   3.601   5.024   0.153 -0.0864  0.1565 -0.0353
 6513TIP3   OH219499   0.470   2.259   4.847  0.0523  0.4800  0.2557
 6513TIP3    H119500   0.410   2.228   4.780 -0.5315  1.1883  0.4417
 6513TIP3    H219501   0.482   2.184   4.905 -1.1113  0.4985  0.5378
 6514TIP3   OH219502   0.136   2.650   2.752  0.0091 -0.4848 -0.0339
 6514TIP3    H119503   0.196   2.696   2.810  1.4988 -0.3186 -1.6215
 6514TIP3    H219504   0.140   2.698   2.669 -1.3910 -1.2030 -0.5617
 6515TIP3   OH219505   3.816   4.638   0.888  0.1359 -0.7779 -0.1320
 6515TIP3    H119506   3.769   4.715   0.922  1.0101 -0.3344  0.1123
 6515TIP3    H219507   3.886   4.623   0.952  0.7887 -0.9545 -0.8691
 6516TIP3   OH219508   5.798   3.611   1.096 -0.5295 -0.3264 -0.1448
 6516TIP3    H119509   5.711   3.575   1.076 -0.6140  0.3486 -1.1034
 6516TIP3    H219510   5.781   3.685   1.154 -0.4506 -1.1230  0.9159
 6517TIP3   OH219511   4.588   5.534   4.267  0.2686 -0.0569 -0.8638
 6517TIP3    H119512   4.536   5.529   4.348  2.0126 -0.2688  0.2813
 6517TIP3    H219513   4.533   5.584   4.207 -1.1511 -0.0340  0.3839
 6518TIP3   OH219514   3.568   2.989   5.677 -0.7448 -0.1832 -0.0461
 6518TIP3    H119515   3.520   3.053   5.729 -0.7339 -0.5624  0.4452
 6518TIP3    H219516   3.508   2.966   5.605 -1.1919 -0.4412  0.4012
 6519TIP3   OH219517   3.854   5.991   0.676 -0.0004  0.3526  0.0214
 6519TIP3    H119518   3.909   5.918   0.704 -0.7394  0.1603  1.0558
 6519TIP3    H219519   3.823   6.030   0.758 -0.6675  1.0188 -0.5279
 6520TIP3   OH219520   2.265   3.272   4.614 -0.3163 -0.4177  0.1149
 6520TIP3    H119521   2.281   3.351   4.562  0.9451 -0.3424  0.5843
 6520TIP3    H219522   2.223   3.304   4.694 -0.4526 -0.3029 -0.0024
 6521TIP3   OH219523   7.007   0.451   1.440  0.1333 -0.7764  0.3041
 6521TIP3    H119524   7.101   0.459   1.423  0.1031  0.5320  0.6040
 6521TIP3    H219525   7.001   0.397   1.518  0.6505 -0.6921  0.4046
 6522TIP3   OH219526   7.442   1.671   1.701  0.1417 -1.0667 -0.0972
 6522TIP3    H119527   7.397   1.751   1.729  1.6670 -0.1477 -0.1669
 6522TIP3    H219528   7.405   1.652   1.614 -1.6450 -1.5965  0.7344
 6523TIP3   OH219529   3.218   2.805   5.806 -0.1487  0.0560  0.5863
 6523TIP3    H119530   3.184   2.717   5.819 -1.0817  0.1490 -0.9375
 6523TIP3    H219531   3.141   2.859   5.787  0.6290  0.6284 -1.1920
 6524TIP3   OH219532   2.492   1.809   2.147 -0.2021 -0.1935  0.5642
 6524TIP3    H119533   2.553   1.882   2.157  2.5828 -2.1871 -0.6177
 6524TIP3    H219534   2.503   1.780   2.057 -3.4792 -0.2991  0.0770
 6525TIP3   OH219535   1.447   2.005   0.763 -0.2032  0.0487 -0.0889
 6525TIP3    H119536   1.479   2.094   0.747  0.0709 -0.0474 -0.0832
 6525TIP3    H219537   1.508   1.949   0.716  1.0021 -0.2794  1.7443
 6526TIP3   OH219538   4.307   5.346   3.145 -0.2598  0.2030 -0.7250
 6526TIP3    H119539   4.351   5.359   3.061  0.0020  0.7445 -0.5082
 6526TIP3    H219540   4.376   5.357   3.210 -0.4620 -0.2081 -0.4356
 6527TIP3   OH219541   2.606   2.420   0.435  0.4138  0.4342 -0.2256
 6527TIP3    H119542   2.575   2.407   0.345  0.6218 -0.0034 -0.2398
 6527TIP3    H219543   2.528   2.446   0.484 -0.0699 -0.9636 -0.1913
 6528TIP3   OH219544   1.385   0.988   2.189  0.1536  0.1858  0.4508
 6528TIP3    H119545   1.402   1.030   2.105  1.0994  0.6171  0.8449
 6528TIP3    H219546   1.466   1.001   2.239  0.8704 -2.8316  0.2805
 6529TIP3   OH219547   7.578   3.900   0.661  0.2745  0.0185  0.2693
 6529TIP3    H119548   7.516   3.960   0.619  0.5435  0.1260  0.0275
 6529TIP3    H219549   7.639   3.957   0.708  0.4007 -0.0717  0.2159
 6530TIP3   OH219550   1.527   3.766   0.376  0.4216  0.3976  0.3771
 6530TIP3    H119551   1.455   3.712   0.411  0.8304 -0.2222  0.2888
 6530TIP3    H219552   1.606   3.724   0.410  0.7365  1.1996  0.6363
 6531TIP3   OH219553   6.042   5.855   2.263  0.2133 -0.0467  0.2954
 6531TIP3    H119554   6.002   5.864   2.177 -1.5676 -1.2637  0.9427
 6531TIP3    H219555   6.084   5.768   2.260  1.1247  0.3834  0.2971
 6532TIP3   OH219556   4.212   3.459   4.159 -0.0578 -0.2798  0.1472
 6532TIP3    H119557   4.250   3.384   4.203  1.0495  1.1645  1.8048
 6532TIP3    H219558   4.259   3.534   4.195  0.1864  1.1182 -2.7656
 6533TIP3   OH219559   5.086   2.230   4.856 -0.9627 -0.2683  0.3623
 6533TIP3    H119560   5.058   2.229   4.947  0.8248 -0.6696  0.9451
 6533TIP3    H219561   5.167   2.179   4.855 -1.6669 -1.4551 -1.7122
 6534TIP3   OH219562   3.570   2.129   5.065 -0.2952 -0.3692  0.8038
 6534TIP3    H119563   3.557   2.103   5.157  1.3194  0.9156  1.4300
 6534TIP3    H219564   3.564   2.224   5.066 -0.1722 -0.3332 -0.4280
 6535TIP3   OH219565   4.711   2.003   4.517 -0.2942  0.3335 -0.2050
 6535TIP3    H119566   4.705   1.908   4.517  1.5528  0.1872 -0.8335
 6535TIP3    H219567   4.790   2.023   4.467  0.7705  2.0791  1.9541
 6536TIP3   OH219568   7.314   3.796   3.434 -0.0744  0.3141 -0.4665
 6536TIP3    H119569   7.374   3.742   3.384  2.1260  2.2881 -0.1112
 6536TIP3    H219570   7.256   3.835   3.369  1.7723  1.6557 -1.4042
 6537TIP3   OH219571   3.093   7.180   1.208 -0.3261  0.3054  0.0169
 6537TIP3    H119572   3.118   7.108   1.267  1.0846  0.3068 -0.5379
 6537TIP3    H219573   3.037   7.139   1.142  0.3963 -0.2803 -0.2429
 6538TIP3   OH219574   6.132   3.681   1.617 -0.4134 -0.0984  0.0261
 6538TIP3    H119575   6.089   3.671   1.702 -0.8477  2.3846  0.1573
 6538TIP3    H219576   6.060   3.699   1.556  0.0056 -0.7929 -0.6899
 6539TIP3   OH219577   5.732   3.895   5.439 -0.1981  0.6002  0.0246
 6539TIP3    H119578   5.725   3.989   5.429 -0.4195  0.5324 -0.4712
 6539TIP3    H219579   5.801   3.868   5.379 -1.3588  0.2299 -1.1821
 6540TIP3   OH219580   1.809   1.306   1.037  0.2280  0.1160 -0.4893
 6540TIP3    H119581   1.816   1.282   0.944 -0.2379 -0.8006 -0.3004
 6540TIP3    H219582   1.715   1.304   1.055  0.3403 -0.1044  0.1019
 6541TIP3   OH219583   6.061   6.683   2.704  0.1460 -0.1896  0.2937
 6541TIP3    H119584   5.997   6.728   2.759  0.8276 -0.6750  1.5214
 6541TIP3    H219585   6.122   6.643   2.766  0.1481 -1.9504 -0.8003
 6542TIP3   OH219586   2.584   5.379   4.992  0.0640 -0.1547 -0.5957
 6542TIP3    H119587   2.577   5.432   4.912 -0.1468  0.2088 -0.3363
 6542TIP3    H219588   2.547   5.295   4.968 -0.0537 -0.0266 -0.8667
 6543TIP3   OH219589   0.426   3.292   2.304  0.5754  0.2158  0.4214
 6543TIP3    H119590   0.516   3.289   2.336  0.8739  0.2127 -0.3932
 6543TIP3    H219591   0.392   3.203   2.318 -0.4868  1.0100  3.9297
 6544TIP3   OH219592   0.647   2.732   6.070 -0.0459  0.1438  0.0127
 6544TIP3    H119593   0.667   2.669   6.139 -0.4156 -2.0555 -1.7946
 6544TIP3    H219594   0.552   2.740   6.071  0.0593  1.9085  1.1940
 6545TIP3   OH219595   1.287   2.417   6.023  0.3119 -0.5965 -0.6348
 6545TIP3    H119596   1.233   2.405   6.101  2.0130 -0.6197  0.6172
 6545TIP3    H219597   1.283   2.511   6.005  0.4786 -0.4706 -0.0489
 6546TIP3   OH219598   6.557   4.943   4.769 -0.1080  0.1946 -0.0116
 6546TIP3    H119599   6.536   4.969   4.859  0.9953  1.0128  0.0287
 6546TIP3    H219600   6.642   4.901   4.776 -0.0738  0.1518 -0.6654
 6547TIP3   OH219601   2.020   0.688   3.867 -0.1633 -0.4475  0.1103
 6547TIP3    H119602   1.942   0.697   3.813  0.7510 -0.0084 -1.1736
 6547TIP3    H219603   2.070   0.617   3.827 -0.2608 -1.2665  1.3916
 6548TIP3   OH219604   6.835   1.556   4.659 -0.6367  0.1865 -0.2818
 6548TIP3    H119605   6.899   1.604   4.710  0.2023 -1.2486  0.0667
 6548TIP3    H219606   6.803   1.487   4.718  0.4817 -1.6159 -1.6460
 6549TIP3   OH219607   0.021   0.909   6.042 -0.5944  0.3801 -0.2270
 6549TIP3    H119608  -0.012   0.841   5.983  0.0372 -0.2919  0.1675
 6549TIP3    H219609   0.016   0.990   5.991  0.8197 -0.3203 -1.5775
 6550TIP3   OH219610   1.982   3.283   4.543 -0.0875 -0.1932  0.4298
 6550TIP3    H119611   2.033   3.205   4.520  1.1352  0.2915  1.3598
 6550TIP3    H219612   2.036   3.356   4.514 -0.9944  0.3242  0.0111
 6551TIP3   OH219613   0.317   1.708   1.681 -0.4987  0.8080  0.0323
 6551TIP3    H119614   0.411   1.725   1.674 -0.6322  1.2454 -0.7946
 6551TIP3    H219615   0.299   1.715   1.775  0.6965 -1.5726  0.5068
 6552TIP3   OH219616   3.113   6.954   3.530 -0.2844 -0.3757  0.0506
 6552TIP3    H119617   3.197   7.000   3.529  0.2746 -1.3724  0.2443
 6552TIP3    H219618   3.110   6.911   3.616 -1.7354  0.9738  0.7111
 6553TIP3   OH219619   4.223   6.539   4.428 -0.3415 -0.5229 -0.2151
 6553TIP3    H119620   4.261   6.473   4.485  0.4896 -0.9944 -1.2800
 6553TIP3    H219621   4.155   6.492   4.379 -2.1916  0.2480  1.4818
 6554TIP3   OH219622   6.650   6.142   4.548 -0.3235  0.1808 -0.0254
 6554TIP3    H119623   6.598   6.104   4.477  0.7829 -0.1221 -0.7060
 6554TIP3    H219624   6.739   6.113   4.530 -0.1773 -0.9724  2.2097
 6555TIP3   OH219625   3.992   6.075   3.454 -0.1618  0.3695 -0.3606
 6555TIP3    H119626   4.033   6.112   3.376 -1.2759  1.4477 -0.4591
 6555TIP3    H219627   4.017   5.983   3.453 -0.4745  0.2758 -2.2019
 6556TIP3   OH219628   5.429   4.005   4.273 -0.1634  0.3232 -0.0430
 6556TIP3    H119629   5.341   4.000   4.236 -0.1149 -2.4058 -0.0318
 6556TIP3    H219630   5.420   3.968   4.361  0.7282  1.4770  0.5533
 6557TIP3   OH219631   0.972   6.725   2.690 -0.2937 -0.5611 -0.2951
 6557TIP3    H119632   0.938   6.778   2.762 -0.9493 -0.7577 -0.4498
 6557TIP3    H219633   1.056   6.765   2.668 -0.5986  0.1693 -0.1520
 6558TIP3   OH219634   1.112   6.827   5.277 -0.1135  0.9875 -0.1149
 6558TIP3    H119635   1.058   6.748   5.270 -1.4037  1.8775 -0.8390
 6558TIP3    H219636   1.182   6.804   5.338 -0.6514 -0.5979 -0.0551
 6559TIP3   OH219637   2.495   2.830   5.123  0.0499  0.5229 -0.0764
 6559TIP3    H119638   2.483   2.877   5.040 -0.4476  0.0109 -0.3009
 6559TIP3    H219639   2.409   2.833   5.165 -0.2143 -0.8734 -0.4671
 6560TIP3   OH219640   3.387   6.473   5.376  0.6608  0.4858 -0.3602
 6560TIP3    H119641   3.305   6.514   5.404  1.4969  1.5009  0.7418
 6560TIP3    H219642   3.368   6.379   5.374 -0.6405  0.7337 -0.5789
 6561TIP3   OH219643   5.339   4.292   1.001 -0.6547  0.0362 -0.2427
 6561TIP3    H119644   5.337   4.230   0.928  2.0365  1.4600 -1.6579
 6561TIP3    H219645   5.349   4.378   0.960 -1.1417  1.1090  1.7618
 6562TIP3   OH219646   4.489   5.264   4.749  0.3587 -0.1121  0.5590
 6562TIP3    H119647   4.507   5.177   4.786 -0.2840  0.4212  2.2125
 6562TIP3    H219648   4.466   5.246   4.658 -1.1158 -1.8747  1.1953
 6563TIP3   OH219649   2.900   2.284   5.113  0.5383  0.5224  0.0761
 6563TIP3    H119650   2.915   2.347   5.042 -1.1220  2.3044  1.2057
 6563TIP3    H219651   2.836   2.326   5.170  0.6097 -1.5204  1.8176
 6564TIP3   OH219652   5.031   7.143   4.306  0.3214 -0.0093  0.5958
 6564TIP3    H119653   4.972   7.094   4.248  0.9061  0.3936 -0.3677
 6564TIP3    H219654   5.004   7.234   4.297  1.0470  0.1751  0.1755
 6565TIP3   OH219655   2.092   0.574   1.128 -0.1242 -0.1566 -0.1888
 6565TIP3    H119656   2.178   0.538   1.149  0.2917  1.5086  1.1208
 6565TIP3    H219657   2.031   0.521   1.179  0.1885 -0.8128 -0.4852
 6566TIP3   OH219658   1.602   5.580   4.786 -0.1724  0.2054  0.1192
 6566TIP3    H119659   1.683   5.565   4.834 -0.7684  0.7566  1.3374
 6566TIP3    H219660   1.627   5.576   4.694  0.7748 -2.1579  0.4222
 6567TIP3   OH219661   7.209   1.920   2.410 -0.0961  0.4151 -0.2481
 6567TIP3    H119662   7.183   2.003   2.449 -0.9515  0.0008  0.0636
 6567TIP3    H219663   7.233   1.864   2.484 -0.4930  0.0477 -0.3969
 6568TIP3   OH219664   2.749   6.042   4.690  0.2194  0.3999  0.4650
 6568TIP3    H119665   2.801   6.101   4.744 -1.6794  2.3547  0.2907
 6568TIP3    H219666   2.668   6.031   4.740  0.1096 -1.2439 -0.0264
 6569TIP3   OH219667   5.038   5.061   2.416 -0.7201  0.2165  0.0882
 6569TIP3    H119668   4.944   5.045   2.429 -0.4469 -0.8059  0.9357
 6569TIP3    H219669   5.078   4.975   2.421  0.2336  0.5989 -0.6998
 6570TIP3   OH219670   4.637   4.871   2.145 -0.3189 -0.5934  0.2976
 6570TIP3    H119671   4.730   4.856   2.161 -0.5145 -0.7551  1.2913
 6570TIP3    H219672   4.623   4.840   2.055  0.6186 -0.3871  0.0717
 6571TIP3   OH219673   5.983   0.735   2.122  0.1059 -0.4383 -0.0571
 6571TIP3    H119674   5.982   0.639   2.111  0.1386 -0.3668 -0.7370
 6571TIP3    H219675   6.014   0.768   2.037 -0.6491  0.2093 -0.0913
 6572TIP3   OH219676   0.058   3.523   3.980 -0.0565 -0.2732  0.0895
 6572TIP3    H119677   0.107   3.572   3.914 -1.2651 -1.9949 -2.2211
 6572TIP3    H219678   0.103   3.439   3.986 -0.7343 -0.6162  0.4670
 6573TIP3   OH219679   7.396   1.110   0.027  0.3692  0.2813 -0.0620
 6573TIP3    H119680   7.438   1.025   0.017  0.8385  0.3721  0.9497
 6573TIP3    H219681   7.452   1.157   0.090 -0.8011  0.6972  0.7126
 6574TIP3   OH219682   3.500   3.335   3.379  0.5382  0.7623 -0.3725
 6574TIP3    H119683   3.425   3.345   3.437  1.3188 -0.8364  1.0182
 6574TIP3    H219684   3.477   3.263   3.321  1.4114 -0.6200  0.9064
 6575TIP3   OH219685   0.682   4.846   1.020 -0.3221 -0.5844 -0.1881
 6575TIP3    H119686   0.643   4.881   0.939 -1.8783  0.1768  0.8413
 6575TIP3    H219687   0.616   4.863   1.087  1.0256 -1.0203  1.2902
 6576TIP3   OH219688   2.623   7.066   2.649 -0.2831 -0.0164  0.4243
 6576TIP3    H119689   2.692   7.121   2.684 -1.2203  0.8263  1.0105
 6576TIP3    H219690   2.660   6.978   2.647  0.5522  0.3024  1.4191
 6577TIP3   OH219691   6.405   7.115   2.021 -0.3261  0.5673  0.3339
 6577TIP3    H119692   6.339   7.167   2.068  1.0003  1.7441  0.9571
 6577TIP3    H219693   6.486   7.130   2.069 -0.0012 -2.8843  1.1434
 6578TIP3   OH219694   1.582   0.631   2.852  0.6347 -0.2298  0.4921
 6578TIP3    H119695   1.657   0.581   2.884 -0.3179 -0.5812  2.2831
 6578TIP3    H219696   1.523   0.637   2.927 -0.5731  1.1267 -0.5081
 6579TIP3   OH219697   3.101   5.133   2.575  0.1908 -0.1488 -0.6553
 6579TIP3    H119698   3.076   5.216   2.616  0.2205  0.5422 -1.9828
 6579TIP3    H219699   3.019   5.085   2.565  0.3364 -0.8787  1.3276
 6580TIP3   OH219700   5.402   6.597   4.815  0.0386 -0.2706  0.2744
 6580TIP3    H119701   5.486   6.592   4.768 -0.2854  1.0168 -0.4875
 6580TIP3    H219702   5.365   6.681   4.788 -1.9017 -1.1939 -0.0715
 6581TIP3   OH219703   7.171   4.979   1.700 -0.1483  0.4080 -1.0918
 6581TIP3    H119704   7.211   5.058   1.737 -0.8701  0.6035 -0.6946
 6581TIP3    H219705   7.216   4.907   1.744 -1.0799  0.6407  0.3062
 6582TIP3   OH219706   3.142   0.097   1.079  0.1662 -0.4492  0.5238
 6582TIP3    H119707   3.056   0.079   1.115  0.4994  0.0862  1.6099
 6582TIP3    H219708   3.200   0.032   1.120  0.2397 -0.9979 -0.4211
 6583TIP3   OH219709   1.097   4.947   0.416 -0.4123 -0.1067  0.3382
 6583TIP3    H119710   1.143   4.965   0.499  0.2612  0.9422 -0.2363
 6583TIP3    H219711   1.062   4.859   0.427  0.3311 -0.2912  1.4518
 6584TIP3   OH219712   1.543   1.537   1.957  0.2843  0.1161 -0.2619
 6584TIP3    H119713   1.630   1.497   1.945  0.5810  0.6506  0.0700
 6584TIP3    H219714   1.555   1.599   2.029 -0.0522  1.1574 -1.0879
 6585TIP3   OH219715   0.226   3.675   1.732 -0.1071 -0.0944  0.9088
 6585TIP3    H119716   0.173   3.737   1.783 -0.8937 -1.4169  1.7721
 6585TIP3    H219717   0.305   3.663   1.784 -1.7980 -3.0939  3.1609
 6586TIP3   OH219718   1.804   6.768   2.714  0.7721 -0.0890 -0.0756
 6586TIP3    H119719   1.715   6.802   2.723  1.0569  0.7885 -0.4693
 6586TIP3    H219720   1.847   6.829   2.653  0.4421 -2.8072 -3.2782
 6587TIP3   OH219721   6.985   4.817   0.647 -0.6072  0.2750 -0.5234
 6587TIP3    H119722   6.968   4.907   0.675  0.9112  0.1390  0.9828
 6587TIP3    H219723   7.076   4.800   0.671 -0.4325 -1.2319 -2.0248
 6588TIP3   OH219724   0.996   3.735   3.063 -0.1319 -0.3840 -0.3481
 6588TIP3    H119725   0.919   3.789   3.082  0.2470 -0.5222  1.8829
 6588TIP3    H219726   0.983   3.704   2.974 -2.0160  0.6439 -0.4731
 6589TIP3   OH219727   2.281   2.482   3.967 -0.0604 -0.4170  0.0591
 6589TIP3    H119728   2.320   2.475   3.880  0.4159  0.0861  0.2214
 6589TIP3    H219729   2.345   2.441   4.025 -0.0961 -0.2178  0.2415
 6590TIP3   OH219730   5.076   3.756   5.867 -0.1310 -0.2521  0.0999
 6590TIP3    H119731   4.999   3.809   5.846 -0.1656 -0.4220 -0.2125
 6590TIP3    H219732   5.052   3.668   5.839 -0.5611 -0.7011  1.7747
 6591TIP3   OH219733   4.465   4.394   3.374 -0.3261 -0.6926  0.0576
 6591TIP3    H119734   4.475   4.301   3.397  0.5705 -0.2455  1.6086
 6591TIP3    H219735   4.415   4.393   3.293 -1.2000 -2.5026  0.5668
 6592TIP3   OH219736   5.027   0.529   2.074 -0.6337  0.4507 -0.1531
 6592TIP3    H119737   5.005   0.562   2.161 -2.7433 -0.7285 -0.1638
 6592TIP3    H219738   5.024   0.606   2.018 -0.8157  0.9775  0.5588
 6593TIP3   OH219739   4.011   5.745   0.700 -0.8002 -0.1761 -0.3666
 6593TIP3    H119740   3.968   5.662   0.719 -0.3835 -0.1827  0.6104
 6593TIP3    H219741   4.104   5.727   0.712 -0.7718  0.6838  0.9752
 6594TIP3   OH219742   5.017   4.116   6.067  0.1051 -0.0657 -0.6535
 6594TIP3    H119743   5.023   4.036   6.118 -0.9624 -0.6793 -1.4262
 6594TIP3    H219744   5.081   4.105   5.997  0.4802  0.0877 -0.3347
 6595TIP3   OH219745   6.502   6.112   3.244  0.3081 -0.1452 -0.0759
 6595TIP3    H119746   6.571   6.072   3.297  0.2757  0.1482  0.1970
 6595TIP3    H219747   6.492   6.200   3.281 -0.6074 -0.3776  0.2713
 6596TIP3   OH219748   3.220   2.719   1.329  0.1721 -0.0017 -0.3525
 6596TIP3    H119749   3.229   2.722   1.234 -1.1220  2.1148 -0.4882
 6596TIP3    H219750   3.310   2.725   1.362  0.5376  1.3911 -1.4794
 6597TIP3   OH219751   0.943   1.151   2.849 -0.3658 -0.1792  0.2362
 6597TIP3    H119752   0.922   1.195   2.931 -1.1259 -1.7161  0.9160
 6597TIP3    H219753   1.033   1.120   2.861  0.4590  1.7871 -0.5530
 6598TIP3   OH219754   1.518   2.607   6.108  0.3668  0.0431 -0.2160
 6598TIP3    H119755   1.559   2.528   6.073  1.9882  0.6647  0.1591
 6598TIP3    H219756   1.550   2.613   6.198 -2.1850 -0.4827  0.8148
 6599TIP3   OH219757   5.797   2.994   2.263 -0.1465  0.3782 -0.1084
 6599TIP3    H119758   5.790   3.010   2.169  2.3523  3.0260  0.0194
 6599TIP3    H219759   5.872   2.936   2.272 -0.7409 -0.3526  0.2612
 6600TIP3   OH219760   5.202   0.250   5.199  0.1928 -0.2527  0.8267
 6600TIP3    H119761   5.225   0.342   5.189  0.0398 -0.3126 -0.2271
 6600TIP3    H219762   5.284   0.208   5.225  0.5183  0.0320  0.2882
 6601TIP3   OH219763   1.158   0.393   2.806 -0.3059  0.0177 -0.2240
 6601TIP3    H119764   1.138   0.301   2.823 -0.3861 -0.0182 -0.5018
 6601TIP3    H219765   1.239   0.391   2.754 -0.7756  0.0619 -0.9709
 6602TIP3   OH219766   6.224   0.366   2.615 -0.2427 -0.0031  0.3558
 6602TIP3    H119767   6.239   0.388   2.707  0.9714  0.0928  0.1478
 6602TIP3    H219768   6.147   0.310   2.616 -1.0597  1.0797  1.2952
 6603TIP3   OH219769   2.593   5.864   4.204 -0.4118  0.4418 -1.0166
 6603TIP3    H119770   2.514   5.819   4.234 -0.0102  0.9295  0.8975
 6603TIP3    H219771   2.618   5.920   4.277  1.4249  0.6833 -1.7752
 6604TIP3   OH219772   7.140   1.600   4.546 -0.0626 -0.0608  0.3783
 6604TIP3    H119773   7.105   1.556   4.469  0.0878 -0.6555  0.6451
 6604TIP3    H219774   7.109   1.691   4.538 -0.6843 -0.2987  0.0114
 6605TIP3   OH219775   6.830   5.917   4.856  0.6354 -0.4229  0.7475
 6605TIP3    H119776   6.740   5.932   4.825  0.8263 -0.7515  0.0334
 6605TIP3    H219777   6.883   5.911   4.777  0.6320 -4.6952  0.8137
 6606TIP3   OH219778   0.978   5.395   3.327  0.1602  0.0550 -0.4335
 6606TIP3    H119779   0.982   5.404   3.422  2.0073 -2.1183 -0.2153
 6606TIP3    H219780   0.893   5.353   3.310 -1.0255  2.1496  0.0085
 6607TIP3   OH219781   3.890   4.615   3.513  1.0053  0.1045 -0.0542
 6607TIP3    H119782   3.886   4.673   3.437 -1.2642  0.3746  0.2275
 6607TIP3    H219783   3.860   4.669   3.586  0.3987 -0.9662  0.5056
 6608TIP3   OH219784   6.761   3.517   3.320  0.2867  0.4086 -0.0792
 6608TIP3    H119785   6.836   3.511   3.379 -0.7949 -1.3807  1.1951
 6608TIP3    H219786   6.798   3.499   3.233  1.5018  0.6465  0.3678
 6609TIP3   OH219787   1.315   1.610   5.745  0.3834 -0.5412  0.1676
 6609TIP3    H119788   1.280   1.579   5.829 -0.4353 -0.5295 -0.1533
 6609TIP3    H219789   1.241   1.657   5.705  1.2652  0.8977  0.1636
 6610TIP3   OH219790   6.097   5.261   5.753 -0.1084  0.1553  0.1736
 6610TIP3    H119791   6.122   5.346   5.790 -0.5295 -0.0975  1.0587
 6610TIP3    H219792   6.096   5.275   5.658  1.0320  0.8093  0.2408
 6611TIP3   OH219793   4.484   6.548   1.244  0.7399 -0.0929  0.3780
 6611TIP3    H119794   4.514   6.603   1.172 -1.0045 -1.4354 -1.5064
 6611TIP3    H219795   4.557   6.488   1.261  1.5269  0.8562  0.4247
 6612TIP3   OH219796   2.704   1.638   1.695  0.3399 -0.5263 -0.2428
 6612TIP3    H119797   2.745   1.680   1.618  1.2562  0.2101  0.6142
 6612TIP3    H219798   2.634   1.584   1.658 -1.1490  2.0296 -1.3901
 6613TIP3   OH219799   1.816   0.735   3.328  0.2034 -0.5487  0.1161
 6613TIP3    H119800   1.900   0.695   3.308 -0.6420 -2.1594 -0.3654
 6613TIP3    H219801   1.834   0.792   3.403  2.2775  1.3265 -1.6420
 6614TIP3   OH219802   1.834   1.492   3.413  0.0592  0.3324  0.0920
 6614TIP3    H119803   1.905   1.511   3.351  2.3391 -2.9289  1.4507
 6614TIP3    H219804   1.770   1.441   3.362  0.7669 -0.3086 -0.1728
 6615TIP3   OH219805   4.362   1.372   3.485 -0.2562  0.2089  0.5569
 6615TIP3    H119806   4.347   1.461   3.452  0.4049  1.3769  3.1384
 6615TIP3    H219807   4.328   1.374   3.575 -0.4085 -2.2373  0.6222
 6616TIP3   OH219808   2.957   6.463   4.918 -0.1377  0.5056  0.1402
 6616TIP3    H119809   2.918   6.394   4.972  0.8596  0.2131  0.5029
 6616TIP3    H219810   2.901   6.467   4.840  0.6303 -1.8125 -0.6392
 6617TIP3   OH219811   4.439   5.319   3.720  0.5582  0.0856  0.7728
 6617TIP3    H119812   4.464   5.314   3.812  1.4700 -1.1684  0.4824
 6617TIP3    H219813   4.345   5.300   3.720  0.3848  0.9146  1.5164
 6618TIP3   OH219814   5.397   1.057   0.529  0.5886 -0.1089  0.7546
 6618TIP3    H119815   5.423   1.005   0.605  1.1054  2.0937  2.1784
 6618TIP3    H219816   5.372   1.143   0.566 -2.4022  0.0339 -1.1997
 6619TIP3   OH219817   7.373   0.237   4.821  0.0208  0.1701 -0.0337
 6619TIP3    H119818   7.322   0.254   4.900 -0.4295  2.9669 -0.8174
 6619TIP3    H219819   7.364   0.143   4.806 -2.2175  0.0386  1.6547
 6620TIP3   OH219820   3.846   0.248   2.200  0.4455  0.1967 -0.0669
 6620TIP3    H119821   3.886   0.249   2.113  1.8885  1.6018  0.5577
 6620TIP3    H219822   3.772   0.309   2.193  0.8984  0.7424 -0.1827
 6621TIP3   OH219823   3.708   0.059   0.697  0.4401  0.3064  0.2587
 6621TIP3    H119824   3.750   0.019   0.620 -0.4807  1.8226 -1.1008
 6621TIP3    H219825   3.754   0.142   0.708 -0.8719  1.0876 -0.0293
 6622TIP3   OH219826   4.818   6.781   5.462  0.1991 -0.4627  0.1458
 6622TIP3    H119827   4.813   6.688   5.444 -0.1813 -0.7750  1.7393
 6622TIP3    H219828   4.851   6.787   5.552 -1.3428  0.8781  0.6725
 6623TIP3   OH219829   1.671   5.066   0.393 -0.2879  0.4735 -0.3072
 6623TIP3    H119830   1.692   5.105   0.478  1.2395  0.7507 -0.7748
 6623TIP3    H219831   1.621   5.133   0.347  0.4970  1.0744 -0.3082
 6624TIP3   OH219832   4.439   5.696   0.600 -0.1032 -0.3285  0.2062
 6624TIP3    H119833   4.415   5.668   0.512 -2.1622 -0.1647  0.6676
 6624TIP3    H219834   4.534   5.683   0.604 -0.3160 -3.0223 -1.0824
 6625TIP3   OH219835   0.780   4.229   0.628  0.5516  0.0053 -0.2801
 6625TIP3    H119836   0.875   4.222   0.640  0.4397  0.2272  0.8687
 6625TIP3    H219837   0.749   4.139   0.628  0.6608 -0.0365  0.3458
 6626TIP3   OH219838   1.623   3.670   4.258 -0.5975 -0.6220  0.1954
 6626TIP3    H119839   1.649   3.581   4.234  0.0962 -0.2176 -0.6122
 6626TIP3    H219840   1.534   3.660   4.294 -0.2323 -1.7299  0.8471
 6627TIP3   OH219841   4.526   6.462   4.225 -0.4964  0.0323  0.5105
 6627TIP3    H119842   4.472   6.500   4.156 -0.7517  0.1361  0.7645
 6627TIP3    H219843   4.475   6.389   4.259 -0.7229  0.4559  1.1142
 6628TIP3   OH219844   2.937   6.628   4.359  0.4893  0.0628  0.0494
 6628TIP3    H119845   2.980   6.546   4.336 -0.2173 -0.4787  0.6585
 6628TIP3    H219846   3.009   6.691   4.366  0.9767 -0.3418 -1.0376
 6629TIP3   OH219847   3.852   0.022   1.399  0.0402  0.2778  0.0842
 6629TIP3    H119848   3.809   0.098   1.358  0.8679  0.9721  0.4789
 6629TIP3    H219849   3.914  -0.008   1.332 -0.5975 -0.3419 -0.2442
 6630TIP3   OH219850   1.910   2.611   0.423 -0.0746  0.3031  0.5941
 6630TIP3    H119851   1.846   2.657   0.368  1.5348  1.4365 -0.4160
 6630TIP3    H219852   1.858   2.546   0.470 -2.4995  3.0337  2.0439
 6631TIP3   OH219853   4.602   0.572   5.610 -0.3579 -0.2321  0.1530
 6631TIP3    H119854   4.600   0.659   5.569 -2.0471  0.0190  0.6750
 6631TIP3    H219855   4.692   0.542   5.598  0.7368  2.2567  1.3590
 6632TIP3   OH219856   4.092   3.148   0.611 -0.2050 -0.1730 -0.4031
 6632TIP3    H119857   4.125   3.225   0.658 -0.2662 -0.2926 -0.1616
 6632TIP3    H219858   4.170   3.112   0.568 -0.4351  0.8932 -1.7934
 6633TIP3   OH219859   3.969   6.172   5.184 -0.5193  0.0191  0.1492
 6633TIP3    H119860   3.923   6.099   5.226 -0.7245  0.3487  0.5085
 6633TIP3    H219861   3.985   6.142   5.094 -0.4832 -0.5177  0.3278
 6634TIP3   OH219862   2.825   4.003   1.499 -0.0248 -0.0104 -0.1449
 6634TIP3    H119863   2.863   3.989   1.585  1.3494 -3.0541 -1.1097
 6634TIP3    H219864   2.856   4.089   1.472  3.2812 -0.8401  0.6220
 6635TIP3   OH219865   3.075   0.326   5.317 -0.2919  0.0637 -0.6849
 6635TIP3    H119866   3.014   0.389   5.278  0.2159  0.2000 -1.2763
 6635TIP3    H219867   3.059   0.332   5.411 -0.7284  0.5754 -0.7885
 6636TIP3   OH219868   2.806   2.836   1.718  0.0014 -0.3906  0.0328
 6636TIP3    H119869   2.786   2.745   1.694 -2.0391  0.0056  0.0960
 6636TIP3    H219870   2.770   2.846   1.806 -1.1333  0.8662 -0.5400
 6637TIP3   OH219871   1.105   4.274   1.645 -0.3768  0.1023  0.3586
 6637TIP3    H119872   1.126   4.291   1.553  0.3665 -2.4980 -0.0249
 6637TIP3    H219873   1.173   4.214   1.674 -1.1795  0.0806  2.3325
 6638TIP3   OH219874   7.110   7.012   0.158  0.2972  0.3410  0.1722
 6638TIP3    H119875   7.028   6.974   0.189  0.1134 -0.3442 -1.0632
 6638TIP3    H219876   7.093   7.106   0.155 -0.0379  0.3144  1.0623
 6639TIP3   OH219877   7.255   2.533   3.227  0.9871  0.0959  0.2038
 6639TIP3    H119878   7.313   2.524   3.151  0.3614 -1.0407 -0.1828
 6639TIP3    H219879   7.199   2.455   3.222 -0.8832  1.3854  0.2801
 6640TIP3   OH219880   3.414   5.592   5.059  0.9361 -0.1331 -0.2497
 6640TIP3    H119881   3.397   5.532   5.131 -1.3002  1.5703  0.7452
 6640TIP3    H219882   3.352   5.565   4.991  0.3518  0.6353 -0.0322
 6641TIP3   OH219883   0.770   6.508   6.097  0.6821  0.2910 -0.6998
 6641TIP3    H119884   0.704   6.500   6.028 -0.6868  0.1392  0.5677
 6641TIP3    H219885   0.721   6.496   6.179  2.4630 -0.8395  0.2729
 6642TIP3   OH219886   5.584   2.643   1.946 -0.4615  0.5714 -0.7102
 6642TIP3    H119887   5.587   2.573   1.881  2.5888  0.4758 -0.5875
 6642TIP3    H219888   5.497   2.634   1.985 -0.0655 -3.5851 -0.2527
 6643TIP3   OH219889   4.877   3.007   4.118  0.4589  0.8577  0.0796
 6643TIP3    H119890   4.920   2.934   4.074  0.1017  0.8093 -0.1977
 6643TIP3    H219891   4.919   3.085   4.083  1.2974  0.7733  0.8617
 6644TIP3   OH219892   3.482   0.247   0.935 -0.4022 -0.1611 -0.0514
 6644TIP3    H119893   3.550   0.247   1.003  1.4336  1.5787 -1.7452
 6644TIP3    H219894   3.474   0.155   0.909  0.1776 -0.6043  1.2627
 6645TIP3   OH219895   2.955   1.429   4.774 -0.0021  0.0583  0.2564
 6645TIP3    H119896   2.872   1.418   4.728 -0.0018 -1.0466  0.4798
 6645TIP3    H219897   2.973   1.523   4.770 -1.0401  0.2517 -0.1723
 6646TIP3   OH219898   2.919   4.743   2.227  0.3623  0.0034  0.0573
 6646TIP3    H119899   2.876   4.680   2.169  1.3406  0.1718 -0.8901
 6646TIP3    H219900   2.890   4.719   2.315 -1.2253 -0.2154 -0.4917
 6647TIP3   OH219901   7.245   1.429   3.249 -0.0089  0.1287 -0.5303
 6647TIP3    H119902   7.301   1.399   3.177 -0.7144  1.4461 -1.6816
 6647TIP3    H219903   7.299   1.416   3.327  0.9664 -0.9069 -1.3163
 6648TIP3   OH219904   1.847   5.124   1.090  0.5076  0.2059 -0.8209
 6648TIP3    H119905   1.937   5.094   1.090  0.6495  0.5212  0.7868
 6648TIP3    H219906   1.853   5.220   1.089  0.3503  0.3455  2.1889
 6649TIP3   OH219907   1.672   1.597   0.298 -0.7630 -0.0441 -0.1612
 6649TIP3    H119908   1.676   1.596   0.203 -0.0655 -1.5938 -0.1537
 6649TIP3    H219909   1.720   1.519   0.325 -0.9840  0.3336  1.4652
 6650TIP3   OH219910   4.808   1.775   2.958 -0.3116 -0.1899 -0.1159
 6650TIP3    H119911   4.802   1.773   3.054 -0.5016 -0.8420 -0.1395
 6650TIP3    H219912   4.901   1.784   2.940 -0.2202 -0.6209  0.1299
 6651TIP3   OH219913   2.863   3.265   1.466 -0.0423  0.2655  0.1179
 6651TIP3    H119914   2.786   3.320   1.478 -1.1804 -1.2474 -0.0112
 6651TIP3    H219915   2.875   3.221   1.550 -0.8763 -1.3905 -0.5804
 6652TIP3   OH219916   5.925   2.993   3.785  0.6524 -0.2208  0.1970
 6652TIP3    H119917   5.849   2.936   3.780  1.2807 -1.2374  1.5387
 6652TIP3    H219918   5.923   3.027   3.875  2.1497 -0.8562  0.5040
 6653TIP3   OH219919   2.792   1.741   2.226 -0.1773 -0.3902  0.8725
 6653TIP3    H119920   2.731   1.760   2.155  0.9236  0.7933  0.2020
 6653TIP3    H219921   2.753   1.666   2.271  0.0813 -2.6153 -2.2210
 6654TIP3   OH219922   1.948   1.185   0.382 -0.4870  0.4635 -0.1739
 6654TIP3    H119923   1.886   1.169   0.312  0.7542  1.0684 -1.4552
 6654TIP3    H219924   1.921   1.268   0.421  0.1984  1.3450 -1.5197
 6655TIP3   OH219925   4.652   1.634   3.597  0.0044 -0.2632  0.1317
 6655TIP3    H119926   4.635   1.637   3.503 -1.2620 -0.8908  0.3169
 6655TIP3    H219927   4.651   1.540   3.618  0.0735 -0.1163  0.7995
 6656TIP3   OH219928   3.295   1.447   3.635 -0.1509 -0.1814 -0.2050
 6656TIP3    H119929   3.232   1.409   3.696  0.0226  0.4139  0.3531
 6656TIP3    H219930   3.323   1.529   3.676  0.9083 -0.3789 -0.4929
 6657TIP3   OH219931   6.685   6.777   3.611  0.3211 -0.4510  0.0572
 6657TIP3    H119932   6.625   6.716   3.654 -2.2504  0.5567 -1.8234
 6657TIP3    H219933   6.722   6.727   3.539 -1.4988 -0.0016 -1.2579
 6658TIP3   OH219934   0.597   1.485   6.102 -0.2299  0.4273  0.4568
 6658TIP3    H119935   0.536   1.411   6.102  0.1198  0.0933  2.2686
 6658TIP3    H219936   0.596   1.517   6.192  1.0777  1.4308  0.1494
 6659TIP3   OH219937   5.713   5.852   5.575  0.1503  0.4651 -0.4025
 6659TIP3    H119938   5.743   5.842   5.665 -1.5789  0.4172  0.1964
 6659TIP3    H219939   5.772   5.797   5.524 -0.7115 -1.9704  1.0825
 6660TIP3   OH219940   7.373   4.282   4.412 -0.1104  0.2319  0.1535
 6660TIP3    H119941   7.299   4.243   4.365 -0.2795  1.9320 -1.1010
 6660TIP3    H219942   7.359   4.258   4.503 -1.3460 -0.7896 -0.2773
 6661TIP3   OH219943   2.460   4.705   4.750  0.1372  0.5238 -0.7464
 6661TIP3    H119944   2.553   4.721   4.733  0.0262  0.1774 -1.7796
 6661TIP3    H219945   2.420   4.701   4.662 -0.7336 -0.0352 -0.3402
 6662TIP3   OH219946   4.403   2.122   0.489  0.7338  0.0889 -0.5151
 6662TIP3    H119947   4.469   2.053   0.484  1.2115  0.3961  1.0229
 6662TIP3    H219948   4.404   2.150   0.581  0.4354  2.0292 -1.0555
 6663TIP3   OH219949   2.816   1.874   4.577  0.0183 -0.2850  0.1809
 6663TIP3    H119950   2.752   1.919   4.632  1.2479 -1.1812  2.4510
 6663TIP3    H219951   2.861   1.945   4.531  0.4064  0.7020  1.9853
 6664TIP3   OH219952   7.191   3.577   4.558  0.1414  0.6273 -0.4510
 6664TIP3    H119953   7.146   3.537   4.633 -0.8152  0.5133 -1.0620
 6664TIP3    H219954   7.273   3.528   4.550 -0.2544 -0.0968 -0.1590
 6665TIP3   OH219955   4.819   7.066   3.445 -0.0833  0.3937 -0.5071
 6665TIP3    H119956   4.875   7.072   3.523 -0.1273 -2.0416 -0.1931
 6665TIP3    H219957   4.839   6.979   3.409 -0.8768  1.0190 -2.6094
 6666TIP3   OH219958   1.086   0.222   1.938 -0.0524 -0.3892  0.7365
 6666TIP3    H119959   1.152   0.276   1.895 -0.7912 -0.9597 -1.1982
 6666TIP3    H219960   1.135   0.172   2.004  1.2622 -0.0397  0.0557
 6667TIP3   OH219961   1.763   6.289   1.985 -0.1140 -0.0674  0.4707
 6667TIP3    H119962   1.791   6.379   2.003  0.6472  0.0696 -1.2055
 6667TIP3    H219963   1.794   6.272   1.896  0.9641 -2.4672  1.2286
 6668TIP3   OH219964   4.392   1.554   3.883 -0.3891 -0.3517  0.0122
 6668TIP3    H119965   4.482   1.541   3.913 -0.3315 -0.6666 -0.2896
 6668TIP3    H219966   4.370   1.473   3.837 -1.1841 -0.7129  0.9662
 6669TIP3   OH219967   1.686   4.519   3.152 -0.6458  0.7249  0.0051
 6669TIP3    H119968   1.769   4.519   3.200 -0.5819 -0.8168 -0.0403
 6669TIP3    H219969   1.642   4.600   3.179  0.3093  0.9228  1.0353
 6670TIP3   OH219970   2.646   4.599   5.455  0.8611  0.0855  0.3866
 6670TIP3    H119971   2.561   4.557   5.459  0.2660  1.3263  2.4362
 6670TIP3    H219972   2.701   4.550   5.516  1.0611  0.4218  0.4819
 6671TIP3   OH219973   6.514   1.657   5.248 -0.6515  0.3632  0.2120
 6671TIP3    H119974   6.452   1.711   5.297 -0.2174 -0.7596  2.1105
 6671TIP3    H219975   6.599   1.676   5.288 -0.2545 -0.4712 -0.2186
 6672TIP3   OH219976   0.804   4.105   5.243 -0.1297  0.2814 -0.5988
 6672TIP3    H119977   0.809   4.131   5.151 -0.4933  1.2942 -0.3451
 6672TIP3    H219978   0.740   4.034   5.245 -0.8273  0.8882 -1.0036
 6673TIP3   OH219979   4.866   5.559   0.412 -0.3473  0.7642 -0.4891
 6673TIP3    H119980   4.941   5.541   0.468  0.3798 -0.2465 -1.7157
 6673TIP3    H219981   4.837   5.473   0.382 -1.5680  1.1916 -0.5870
 6674TIP3   OH219982   5.244   0.697   5.944  0.5430  0.0129  0.4301
 6674TIP3    H119983   5.316   0.760   5.937  0.3393  0.1990 -0.0074
 6674TIP3    H219984   5.196   0.725   6.022  0.5612  0.2919  0.3443
 6675TIP3   OH219985   2.829   1.036   5.526 -0.7281  0.4215 -0.0463
 6675TIP3    H119986   2.875   1.012   5.446  0.1040  1.0696  0.2221
 6675TIP3    H219987   2.813   0.953   5.570  0.0040  0.1586 -0.2525
 6676TIP3   OH219988   0.717   5.802   0.500  0.6180 -0.0367  0.1405
 6676TIP3    H119989   0.631   5.765   0.522  0.6157  0.2789  0.6762
 6676TIP3    H219990   0.696   5.876   0.443  0.4404  0.7750  1.2196
 6677TIP3   OH219991   1.305   1.997   5.146  0.7355  0.9519  0.0505
 6677TIP3    H119992   1.311   2.091   5.163 -0.5772  1.1601 -0.5011
 6677TIP3    H219993   1.292   1.991   5.051  3.0264  0.0812 -0.2647
 6678TIP3   OH219994   6.343   0.315   0.912  0.4017 -0.4890  0.5450
 6678TIP3    H119995   6.317   0.338   0.823  1.1054 -1.3001  0.1165
 6678TIP3    H219996   6.280   0.360   0.968  1.3191  1.9244 -0.2500
 6679TIP3   OH219997   0.194   0.389   2.195  0.1004 -0.4770  0.4041
 6679TIP3    H119998   0.267   0.450   2.188  0.1676 -0.6265 -0.2998
 6679TIP3    H219999   0.134   0.430   2.257 -0.0307  0.4969 -0.3361
 6680TIP3   OH220000   1.939   4.635   0.120 -0.5482  0.7193 -0.3218
 6680TIP3    H120001   2.005   4.694   0.085  0.3468  0.4215  0.8078
 6680TIP3    H220002   1.856   4.671   0.089 -0.0420  2.5761  0.3208
 6681TIP3   OH220003   6.332   2.802   5.030  0.3167  0.6785  0.1036
 6681TIP3    H120004   6.385   2.873   5.064  2.0364 -1.5433  2.4841
 6681TIP3    H220005   6.330   2.817   4.935  2.5681  2.5913  0.2629
 6682TIP3   OH220006   3.005   3.433   4.820 -0.1202 -0.4544  0.0046
 6682TIP3    H120007   3.060   3.413   4.896 -1.3631 -1.1826  0.7551
 6682TIP3    H220008   3.060   3.489   4.764  0.2035  1.7343  2.3226
 6683TIP3   OH220009   5.374   1.042   2.169 -0.3307  0.1075  0.0361
 6683TIP3    H120010   5.289   1.007   2.142  0.3301 -0.3097 -1.6238
 6683TIP3    H220011   5.395   0.994   2.249 -1.5065 -0.0022  0.2953
 6684TIP3   OH220012   2.734   5.085   0.479 -0.6918  0.2431 -0.4938
 6684TIP3    H120013   2.780   5.127   0.552 -1.5551  0.1086  0.1355
 6684TIP3    H220014   2.746   5.146   0.406  0.6513  0.1228 -0.4154
 6685TIP3   OH220015   3.603   1.144   0.335 -0.0648 -0.5545  0.5110
 6685TIP3    H120016   3.608   1.151   0.431 -0.4460  0.7396  0.4646
 6685TIP3    H220017   3.694   1.142   0.306  0.0704  0.0141  0.8665
 6686TIP3   OH220018   5.854   4.449   3.011  0.2810  0.3432 -0.2060
 6686TIP3    H120019   5.922   4.384   3.030 -0.9436 -0.6232  1.1490
 6686TIP3    H220020   5.849   4.503   3.090 -3.0029 -1.9825  1.4236
 6687TIP3   OH220021   3.947   0.908   6.109 -0.1764 -0.5605  0.4144
 6687TIP3    H120022   3.860   0.947   6.119  0.2448  0.0956  1.6707
 6687TIP3    H220023   3.972   0.883   6.198  0.6961 -1.2717 -0.0140
 6688TIP3   OH220024   6.854   4.711   3.554  0.1400  0.4605 -0.2015
 6688TIP3    H120025   6.867   4.673   3.641  1.2989  1.2015 -0.0192
 6688TIP3    H220026   6.779   4.768   3.564  0.0505  0.2755  0.2237
 6689TIP3   OH220027   6.909   2.833   1.955  0.1156 -0.0668  0.8989
 6689TIP3    H120028   6.992   2.821   1.909 -0.6496 -0.7094 -0.3791
 6689TIP3    H220029   6.882   2.923   1.934  0.7621  0.3511  1.8107
 6690TIP3   OH220030   6.708   2.665   1.079  0.2591 -0.4696  0.2210
 6690TIP3    H120031   6.686   2.603   1.009 -0.1004 -0.6959  0.5289
 6690TIP3    H220032   6.741   2.742   1.033 -0.6845 -0.3173 -0.2465
 6691TIP3   OH220033   5.473   1.409   2.086  0.4333 -0.5090  0.5420
 6691TIP3    H120034   5.395   1.379   2.038  0.8645 -1.8302  0.6221
 6691TIP3    H220035   5.547   1.381   2.032  0.8731  1.2233  0.1896
 6692TIP3   OH220036   2.464   0.316   5.897  0.4654 -0.2170 -0.1400
 6692TIP3    H120037   2.411   0.239   5.878  3.3379 -1.9364 -1.9310
 6692TIP3    H220038   2.524   0.288   5.965  0.4511  1.0460  0.4269
 6693TIP3   OH220039   7.254   1.893   1.817  0.0563  0.2810  0.1277
 6693TIP3    H120040   7.288   1.970   1.863 -0.7195 -0.0345  1.2798
 6693TIP3    H220041   7.213   1.841   1.885 -0.3196 -0.6708 -0.8010
 6694TIP3   OH220042   3.412   5.998   3.580 -0.3244  0.2747  0.0337
 6694TIP3    H120043   3.405   6.090   3.558 -2.1983  0.1116 -0.2568
 6694TIP3    H220044   3.501   5.987   3.611 -0.2514  2.3208  0.6957
 6695TIP3   OH220045   5.828   4.634   2.302  0.3595 -0.3523  0.2047
 6695TIP3    H120046   5.761   4.630   2.370  1.1963  2.7524  1.3851
 6695TIP3    H220047   5.852   4.543   2.286 -1.9832 -1.3568  1.8910
 6696TIP3   OH220048   7.183   5.253   4.132  0.0009 -0.4263 -0.4205
 6696TIP3    H120049   7.271   5.256   4.093  0.0072 -1.3538 -0.5130
 6696TIP3    H220050   7.186   5.178   4.192 -0.6451 -0.2955 -0.2188
 6697TIP3   OH220051   4.116   0.355   4.696  0.0246 -0.3126  0.2485
 6697TIP3    H120052   4.192   0.351   4.754 -0.4111  0.0042  0.8543
 6697TIP3    H220053   4.059   0.421   4.736 -0.6673 -0.7023 -0.0802
 6698TIP3   OH220054   5.476   2.262   3.944  0.0032 -0.8504  0.0935
 6698TIP3    H120055   5.449   2.353   3.959  1.6350 -0.4564  0.8843
 6698TIP3    H220056   5.459   2.247   3.851  1.8633  1.0887 -0.6484
 6699TIP3   OH220057   2.470   2.008   4.488 -0.5437  0.0416  0.7038
 6699TIP3    H120058   2.494   1.999   4.580 -2.0113  1.2501  1.2526
 6699TIP3    H220059   2.384   2.049   4.490 -1.8508 -2.3957 -1.1733
 6700TIP3   OH220060   1.522   2.575   1.548 -0.0994 -0.4740 -0.3234
 6700TIP3    H120061   1.438   2.610   1.518  0.1164 -1.7212 -2.6417
 6700TIP3    H220062   1.508   2.551   1.639 -1.5508  1.4307  0.0044
 6701TIP3   OH220063   2.952   2.465   3.548 -0.0291 -0.1467 -0.0106
 6701TIP3    H120064   2.971   2.541   3.604 -2.6511 -0.2141  1.0895
 6701TIP3    H220065   2.864   2.480   3.515  0.6853 -1.0923 -2.6492
 6702TIP3   OH220066   5.305   2.575   4.442 -0.4979  0.0222 -0.3214
 6702TIP3    H120067   5.268   2.488   4.427 -1.0851  0.1472  0.3080
 6702TIP3    H220068   5.232   2.626   4.477 -0.3104  0.9341 -1.2296
 6703TIP3   OH220069   2.033   5.662   5.463  0.6888 -0.6034 -0.0048
 6703TIP3    H120070   1.969   5.644   5.394  0.1804 -0.5409  0.4472
 6703TIP3    H220071   2.105   5.707   5.418  0.6948 -1.2170 -0.6277
 6704TIP3   OH220072   4.413   4.328   5.077 -0.1111  0.2222  0.3293
 6704TIP3    H120073   4.443   4.319   4.987 -0.7123 -0.0380  0.1481
 6704TIP3    H220074   4.482   4.377   5.121  1.4641 -1.9264  0.3878
 6705TIP3   OH220075   5.063   3.490   4.074 -0.2453 -0.0933  0.6230
 6705TIP3    H120076   5.071   3.400   4.041 -0.0548  0.8084 -2.0075
 6705TIP3    H220077   5.142   3.503   4.126  0.4630 -0.9869 -0.1922
 6706TIP3   OH220078   2.665   2.816   2.975 -0.1756 -0.0386 -0.2247
 6706TIP3    H120079   2.736   2.795   3.036  1.4103 -0.4823 -2.1020
 6706TIP3    H220080   2.663   2.911   2.973  0.0531 -0.0216  0.1886
 6707TIP3   OH220081   1.228   3.288   5.658  0.0017  0.4130 -0.3538
 6707TIP3    H120082   1.283   3.269   5.582  0.5712  0.4074  0.0496
 6707TIP3    H220083   1.183   3.369   5.636  1.1855  1.1400 -0.1580
 6708TIP3   OH220084   6.495   4.242   0.505  0.0127 -0.5008 -0.0889
 6708TIP3    H120085   6.414   4.194   0.487 -0.7919  0.6033  0.4737
 6708TIP3    H220086   6.565   4.181   0.480 -0.9810 -1.2737 -1.0965
 6709TIP3   OH220087   1.416   3.744   1.106  0.2482 -0.0483 -0.4567
 6709TIP3    H120088   1.491   3.790   1.144 -0.3673  1.0779 -0.5826
 6709TIP3    H220089   1.361   3.813   1.069 -1.1492 -0.8109  0.1494
 6710TIP3   OH220090   3.543   0.779   0.979 -0.0475 -0.2407  0.7553
 6710TIP3    H120091   3.499   0.838   0.917 -1.6008 -0.2399  1.8060
 6710TIP3    H220092   3.472   0.743   1.032  1.0499 -1.7614  1.2611
 6711TIP3   OH220093   1.601   0.534   4.603 -0.4120  0.1722  0.3668
 6711TIP3    H120094   1.542   0.607   4.588 -0.4944  0.4056  1.7230
 6711TIP3    H220095   1.656   0.531   4.524 -1.5003  0.6302 -0.4290
 6712TIP3   OH220096   4.491   3.277   2.769 -0.6492  0.4409  0.0274
 6712TIP3    H120097   4.501   3.225   2.689 -0.0388  1.2964 -0.4758
 6712TIP3    H220098   4.533   3.224   2.837  1.7798  1.0848 -0.8518
 6713TIP3   OH220099   0.236   4.980   2.901  0.1793  0.1328  0.0862
 6713TIP3    H120100   0.154   4.947   2.865  0.2628 -0.9473  0.8267
 6713TIP3    H220101   0.224   4.977   2.996  0.3604  1.8742  0.1884
 6714TIP3   OH220102   5.917   6.039   3.180  0.0509 -0.2189 -0.1316
 6714TIP3    H120103   5.996   6.089   3.159 -0.3570  0.7216  0.5140
 6714TIP3    H220104   5.948   5.964   3.230  0.4127  0.9722  1.4938
 6715TIP3   OH220105   1.365   0.127   2.663 -0.2546  0.5725 -0.5120
 6715TIP3    H120106   1.377   0.218   2.637  0.6385  0.7067  0.3079
 6715TIP3    H220107   1.403   0.122   2.751 -2.3649 -0.0617  0.4256
 6716TIP3   OH220108   6.879   6.398   3.261 -0.0118  0.2426 -0.2329
 6716TIP3    H120109   6.950   6.343   3.295 -0.4234  1.1682  2.2988
 6716TIP3    H220110   6.873   6.373   3.168  1.3022 -2.3266  0.2588
 6717TIP3   OH220111   6.075   4.209   3.608  0.2026  0.1717  0.2973
 6717TIP3    H120112   6.019   4.236   3.680 -0.3387  1.4206 -0.5546
 6717TIP3    H220113   6.034   4.129   3.574  0.5250 -0.4919  1.4031
 6718TIP3   OH220114   3.942   0.988   0.740 -0.2108  0.1136  0.0932
 6718TIP3    H120115   4.027   1.031   0.728 -0.6780  0.7259 -1.2114
 6718TIP3    H220116   3.882   1.059   0.764 -0.8056  0.1008 -1.2266
 6719TIP3   OH220117   4.359   2.226   1.866  0.5272 -0.3604 -0.0355
 6719TIP3    H120118   4.371   2.164   1.938  0.1412  0.1542  0.4802
 6719TIP3    H220119   4.268   2.254   1.874  0.8500  0.6957  0.0881
 6720TIP3   OH220120   2.147   5.266   2.941 -0.2654  0.4213  0.1865
 6720TIP3    H120121   2.155   5.361   2.943 -0.9380  0.4987 -0.5238
 6720TIP3    H220122   2.177   5.241   2.854  2.5897 -0.3038  1.2654
 6721TIP3   OH220123   4.297   5.111   4.474  0.5639  0.1221 -0.3775
 6721TIP3    H120124   4.256   5.097   4.389 -0.9458  0.1448  0.2984
 6721TIP3    H220125   4.223   5.111   4.536  1.4717  1.3777  0.7777
 6722TIP3   OH220126   7.369   5.903   0.581 -0.3308 -0.1905  0.2273
 6722TIP3    H120127   7.330   5.816   0.584 -0.1785 -0.2355  1.3852
 6722TIP3    H220128   7.410   5.914   0.667  1.4738  0.1961 -0.6468
 6723TIP3   OH220129   5.855   1.950   5.941 -0.3984  0.2426 -0.3773
 6723TIP3    H120130   5.776   1.949   5.887 -1.1829  0.4525  0.7543
 6723TIP3    H220131   5.901   1.869   5.917 -1.0749 -0.0092 -0.8637
 6724TIP3   OH220132   2.548   1.896   0.850  0.1514  0.4697 -0.1559
 6724TIP3    H120133   2.581   1.941   0.773  2.4717  2.6338  1.9193
 6724TIP3    H220134   2.524   1.966   0.911  1.1865 -1.0344  2.1590
 6725TIP3   OH220135   6.173   5.486   1.057  0.0058  0.3007 -0.1187
 6725TIP3    H120136   6.091   5.520   1.093  0.2203  1.1292 -0.4004
 6725TIP3    H220137   6.165   5.391   1.066 -0.8502  0.3884  0.1462
 6726TIP3   OH220138   0.586   4.758   4.539 -0.8136 -0.7452  0.7837
 6726TIP3    H120139   0.512   4.777   4.481 -1.2000  2.5879  2.1541
 6726TIP3    H220140   0.545   4.729   4.620 -0.6196  0.3453  1.2858
 6727TIP3   OH220141   3.315   4.523   0.086  0.3132 -0.3011  0.0146
 6727TIP3    H120142   3.351   4.436   0.106  1.4657  0.0485 -0.4432
 6727TIP3    H220143   3.351   4.580   0.154  0.3898  0.0071 -0.2820
 6728TIP3   OH220144   4.948   5.652   0.912 -0.1740 -0.1891  0.2236
 6728TIP3    H120145   4.869   5.609   0.945  0.3409 -1.5895 -0.3021
 6728TIP3    H220146   4.988   5.588   0.853  1.2951  0.5246  0.3905
 6729TIP3   OH220147   2.511   1.230   4.846  0.5754 -0.0657  0.3470
 6729TIP3    H120148   2.416   1.219   4.853  0.6761 -1.9728 -0.6148
 6729TIP3    H220149   2.541   1.237   4.936 -0.3680 -0.6138  0.7164
 6730TIP3   OH220150   0.301   3.072   2.568 -0.2156  0.4396 -0.8165
 6730TIP3    H120151   0.232   3.123   2.612 -3.4030 -1.2331 -3.4399
 6730TIP3    H220152   0.327   3.007   2.633  1.9917  3.4496  1.6309
 6731TIP3   OH220153   2.881   4.824   3.595  0.1369 -0.4814  0.5430
 6731TIP3    H120154   2.802   4.788   3.555  0.3975  2.3552 -2.9437
 6731TIP3    H220155   2.849   4.893   3.653 -0.0240  0.1157 -0.2400
 6732TIP3   OH220156   2.793   7.091   1.248 -0.9748 -0.2185  0.7169
 6732TIP3    H120157   2.841   7.071   1.168  0.2629 -0.2458  1.4379
 6732TIP3    H220158   2.712   7.041   1.241 -0.7973 -0.3662 -0.4226
 6733TIP3   OH220159   6.569   3.900   0.663  0.1538  0.1618 -0.1227
 6733TIP3    H120160   6.556   3.897   0.568 -1.0113  0.2986  0.0202
 6733TIP3    H220161   6.482   3.911   0.699  0.5845  0.1230  0.9775
 6734TIP3   OH220162   5.070   6.277   2.229 -0.3970 -0.3340  0.2288
 6734TIP3    H120163   5.085   6.216   2.301  0.9202 -0.7054 -0.3332
 6734TIP3    H220164   5.007   6.341   2.264  0.3214 -0.4205  1.7549
 6735TIP3   OH220165   6.932   2.288   1.453 -0.4539 -0.0582 -0.8274
 6735TIP3    H120166   6.922   2.350   1.526  2.7333  0.1121 -0.3905
 6735TIP3    H220167   6.881   2.327   1.382 -2.3092  0.6203  0.8092
 6736TIP3   OH220168   3.135   2.029   5.756  0.0265  0.5693 -0.5167
 6736TIP3    H120169   3.203   2.054   5.818  0.9856 -2.7634 -0.0446
 6736TIP3    H220170   3.057   2.017   5.811  0.6350 -1.4334 -0.0017
 6737TIP3   OH220171   4.352   2.873   3.196  0.2551  0.4547  0.3078
 6737TIP3    H120172   4.387   2.784   3.187  2.4577  1.1589  1.1828
 6737TIP3    H220173   4.259   2.865   3.176  0.2290 -2.1878  1.1947
 6738TIP3   OH220174   4.292   2.171   5.192  0.1616  0.2501 -0.1458
 6738TIP3    H120175   4.216   2.136   5.146  1.0758  0.3610 -1.8219
 6738TIP3    H220176   4.289   2.265   5.175  1.5995  0.0599 -1.8002
 6739TIP3   OH220177   2.769   6.037   0.944 -0.0001  0.0069 -0.2235
 6739TIP3    H120178   2.760   5.959   0.890  0.5054  0.3782 -0.8626
 6739TIP3    H220179   2.715   6.020   1.021  1.7053 -1.8528  0.6552
 6740TIP3   OH220180   5.445   3.444   5.064 -0.0597  0.0664 -0.1019
 6740TIP3    H120181   5.418   3.460   4.973  0.1662  0.6816 -0.0640
 6740TIP3    H220182   5.487   3.358   5.061  0.6323  0.4114 -0.7342
 6741TIP3   OH220183   6.176   1.963   4.668 -0.1857  0.2674 -0.1420
 6741TIP3    H120184   6.256   2.013   4.684  1.5833 -1.5372 -2.6813
 6741TIP3    H220185   6.181   1.889   4.727  1.8845 -1.6588 -2.5032
 6742TIP3   OH220186   5.062   0.737   3.863 -0.4542  0.7017 -0.3731
 6742TIP3    H120187   5.022   0.650   3.866  1.1006 -0.0469 -0.5901
 6742TIP3    H220188   5.043   0.776   3.949 -0.9632  0.0683 -0.1939
 6743TIP3   OH220189   5.146   5.733   1.090  0.6286  0.1153  0.0709
 6743TIP3    H120190   5.131   5.827   1.099 -1.2948 -0.2554  1.5983
 6743TIP3    H220191   5.095   5.708   1.012  0.0774  0.1753  0.4014
 6744TIP3   OH220192   1.731   1.133   2.085  0.4292 -0.3039  0.6402
 6744TIP3    H120193   1.725   1.061   2.023  0.2547 -0.0863  0.4029
 6744TIP3    H220194   1.758   1.208   2.032 -0.1784 -0.0075  0.7417
 6745TIP3   OH220195   1.782   2.116   4.297  0.1434 -0.1101 -0.5488
 6745TIP3    H120196   1.784   2.173   4.374 -1.6459  0.7863 -1.1180
 6745TIP3    H220197   1.865   2.070   4.300 -0.4723 -1.3037  2.8285
 6746TIP3   OH220198   1.253   5.907   2.978  0.7526  0.3765 -0.1876
 6746TIP3    H120199   1.306   5.828   2.985 -0.0443 -0.2102 -0.6971
 6746TIP3    H220200   1.182   5.884   2.919 -0.5103  0.9166  1.0755
 6747TIP3   OH220201   3.608   1.648   1.724  0.9697 -0.1850 -0.0986
 6747TIP3    H120202   3.515   1.668   1.733  1.1532  0.7081 -0.0880
 6747TIP3    H220203   3.619   1.564   1.769  0.1926 -0.2355  0.0082
 6748TIP3   OH220204   6.627   2.139   4.182  0.4783 -0.5874  0.3326
 6748TIP3    H120205   6.582   2.060   4.211 -0.7630  0.3209  0.9799
 6748TIP3    H220206   6.573   2.171   4.109 -0.3192  0.8400  1.5035
 6749TIP3   OH220207   5.942   3.383   2.627  0.3406  0.0214 -0.1128
 6749TIP3    H120208   5.933   3.477   2.614 -0.0792  0.0817  0.5580
 6749TIP3    H220209   5.852   3.350   2.626  0.4862 -0.3793 -0.3792
 6750TIP3   OH220210   1.707   0.144   3.672 -0.1256  0.5370  0.2891
 6750TIP3    H120211   1.773   0.211   3.654  0.2361  0.0345 -0.2815
 6750TIP3    H220212   1.667   0.126   3.587 -1.9925  1.8387  0.8243
 6751TIP3   OH220213   0.876   5.191   3.976  0.3192  0.0330  0.4033
 6751TIP3    H120214   0.885   5.182   3.882  1.4395  1.4397  0.3398
 6751TIP3    H220215   0.880   5.101   4.010  0.1782 -0.4597 -0.8445
 6752TIP3   OH220216   0.914   6.320   2.460 -0.2244 -1.2820  0.2892
 6752TIP3    H120217   0.833   6.323   2.510 -1.4211 -1.5866 -1.5252
 6752TIP3    H220218   0.921   6.406   2.420  0.6877 -1.0557  0.9162
 6753TIP3   OH220219   0.996   4.862   2.401 -0.0239  0.1881  0.0714
 6753TIP3    H120220   0.992   4.779   2.448  0.7914 -0.6721 -1.3403
 6753TIP3    H220221   1.028   4.925   2.467 -0.2533 -0.6877  1.0376
 6754TIP3   OH220222   3.614   4.591   0.713 -0.3605 -0.2217  0.5377
 6754TIP3    H120223   3.690   4.608   0.769  0.0936  0.0510 -0.1581
 6754TIP3    H220224   3.547   4.559   0.774  0.1138  0.0984  1.2462
 6755TIP3   OH220225   1.595   2.285   2.568  0.3557  0.3519  0.4730
 6755TIP3    H120226   1.574   2.197   2.600  2.4614 -0.8506 -1.1487
 6755TIP3    H220227   1.513   2.333   2.575 -2.3394 -3.0838 -2.8854
 6756TIP3   OH220228   0.642   6.031   6.170  0.1549  0.5023  0.1062
 6756TIP3    H120229   0.663   6.087   6.094 -0.2752  1.2197  0.5005
 6756TIP3    H220230   0.635   6.092   6.243  0.9532 -0.2303  0.8142
 6757TIP3   OH220231   6.756   3.938   4.191 -0.4457  0.5366  0.3660
 6757TIP3    H120232   6.696   3.878   4.234 -0.7570  0.0313 -0.7507
 6757TIP3    H220233   6.821   3.960   4.258 -0.0256 -1.4294  0.6688
 6758TIP3   OH220234   2.703   7.014   2.929  0.4150  0.5471 -0.0036
 6758TIP3    H120235   2.730   7.069   3.002 -1.7308  0.4229  0.9609
 6758TIP3    H220236   2.614   7.043   2.909 -0.1344 -1.3900 -0.6062
 6759TIP3   OH220237   4.976   5.861   2.270  0.1803  0.2657 -0.2473
 6759TIP3    H120238   4.927   5.937   2.238 -0.4167  0.2829  0.6719
 6759TIP3    H220239   4.963   5.795   2.202  1.6486  1.3152 -1.6107
 6760TIP3   OH220240   5.190   3.833   3.596 -0.2624  0.5940  0.2325
 6760TIP3    H120241   5.177   3.891   3.671 -0.3552  0.2662  0.4728
 6760TIP3    H220242   5.102   3.803   3.573 -0.0662 -0.8661  1.2508
 6761TIP3   OH220243   4.907   6.286   2.600 -0.5322  0.2788 -0.0259
 6761TIP3    H120244   4.881   6.323   2.516 -0.7014  0.4506  0.1012
 6761TIP3    H220245   4.862   6.202   2.604  0.5901 -0.3767 -0.7279
 6762TIP3   OH220246   4.067   4.637   4.527 -0.7344 -0.0289 -0.1397
 6762TIP3    H120247   4.105   4.701   4.467 -0.7963  0.0914 -0.0510
 6762TIP3    H220248   4.092   4.552   4.490  0.8572  0.0338  0.6737
 6763TIP3   OH220249   3.356   2.995   1.240  0.8312  0.0516 -0.9902
 6763TIP3    H120250   3.262   3.000   1.259  0.9366 -1.2371  0.0199
 6763TIP3    H220251   3.398   3.012   1.325  1.4700 -0.8164 -1.1252
 6764TIP3   OH220252   2.799   6.433   3.509 -0.5358  0.1042 -0.0323
 6764TIP3    H120253   2.788   6.347   3.470  0.8848 -0.1498  0.0798
 6764TIP3    H220254   2.772   6.494   3.440 -2.2158 -0.4114  0.1257
 6765TIP3   OH220255   1.818   1.818   0.378 -0.2367  0.3977 -0.0706
 6765TIP3    H120256   1.785   1.730   0.359 -1.5981  0.5726  1.2364
 6765TIP3    H220257   1.908   1.803   0.408 -0.9356 -0.7814  1.6446
 6766TIP3   OH220258   1.179   6.237   4.486 -0.8152  0.4869 -0.2209
 6766TIP3    H120259   1.193   6.230   4.391  2.0749  0.3297  0.1211
 6766TIP3    H220260   1.152   6.328   4.500 -4.6592 -0.2761 -1.3974
 6767TIP3   OH220261   0.152   5.902   1.171 -0.5014 -0.1362 -0.1532
 6767TIP3    H120262   0.081   5.897   1.235 -0.2554  0.3120  0.1573
 6767TIP3    H220263   0.217   5.960   1.211 -0.5456  0.5148 -0.9976
 6768TIP3   OH220264   7.325   5.107   0.041  0.0417  0.3767 -0.3083
 6768TIP3    H120265   7.312   5.156   0.122 -1.4281  0.9445 -0.8528
 6768TIP3    H220266   7.298   5.017   0.062 -0.6186  0.5863 -0.2312
 6769TIP3   OH220267   1.966   6.239   4.236  0.1678 -0.1199  0.2560
 6769TIP3    H120268   1.980   6.296   4.311  1.0247  2.0869 -1.4878
 6769TIP3    H220269   2.045   6.185   4.231  1.1881  1.3791 -0.3879
 6770TIP3   OH220270   5.651   3.993   6.151  0.4014 -0.8895  0.6697
 6770TIP3    H120271   5.652   3.977   6.057  0.2993 -0.7373  0.6420
 6770TIP3    H220272   5.559   3.988   6.175  0.4374 -1.0353  0.7810
 6771TIP3   OH220273   6.498   6.737   5.061  0.4282 -0.4178 -0.1727
 6771TIP3    H120274   6.528   6.671   4.998  0.7704 -1.1553  0.7514
 6771TIP3    H220275   6.418   6.700   5.098  0.0875  0.1326 -0.3447
 6772TIP3   OH220276   0.883   0.197   4.620 -0.1215 -0.0216  0.0583
 6772TIP3    H120277   0.885   0.146   4.538  2.7459  0.7244 -0.4464
 6772TIP3    H220278   0.901   0.133   4.688 -0.2171 -0.2804 -0.1569
 6773TIP3   OH220279   0.900   0.568   4.713  0.1310  0.3692  0.3450
 6773TIP3    H120280   0.901   0.481   4.753 -2.1358  0.4607  0.7274
 6773TIP3    H220281   0.981   0.609   4.743  0.1954 -0.8302  1.9437
 6774TIP3   OH220282   6.538   5.534   1.529  0.2941 -0.1781 -0.6483
 6774TIP3    H120283   6.585   5.569   1.605  1.5172 -1.2642 -0.8654
 6774TIP3    H220284   6.512   5.611   1.479 -1.7445  0.6572  1.5000
 6775TIP3   OH220285   3.106   1.895   3.919  0.3016 -0.1379  0.0173
 6775TIP3    H120286   3.084   1.986   3.939  1.8506  0.1955  0.3365
 6775TIP3    H220287   3.139   1.897   3.829  0.0265 -0.4564 -0.0968
 6776TIP3   OH220288   4.939   5.610   1.587 -0.3266 -0.8353 -0.8205
 6776TIP3    H120289   4.959   5.579   1.499  1.0944  0.8912 -1.1552
 6776TIP3    H220290   5.024   5.626   1.627 -0.9233 -1.9724  1.0575
 6777TIP3   OH220291   3.816   6.911   0.823 -0.4033  0.2105  0.4994
 6777TIP3    H120292   3.869   6.844   0.867 -0.9374  1.0514  2.5760
 6777TIP3    H220293   3.745   6.928   0.885 -0.3171  2.6299  0.0011
 6778TIP3   OH220294   1.741   2.764   1.457  0.4982  0.1772 -0.1970
 6778TIP3    H120295   1.675   2.720   1.511 -0.7692  1.1600 -0.8798
 6778TIP3    H220296   1.787   2.692   1.413  1.5664 -0.6463  2.1163
 6779TIP3   OH220297   6.732   6.033   4.225 -0.1319  0.3779  0.3550
 6779TIP3    H120298   6.743   5.945   4.187 -0.4248  0.1515  0.7857
 6779TIP3    H220299   6.795   6.035   4.297 -0.9294  0.0982  1.0684
 6780TIP3   OH220300   2.157   5.430   2.160  0.4452  0.2618  0.6478
 6780TIP3    H120301   2.163   5.510   2.213  0.6940  1.0797 -0.5755
 6780TIP3    H220302   2.248   5.402   2.148  0.6059  1.4433 -1.3056
 6781TIP3   OH220303   0.430   5.557   2.627  0.1977  0.2545  0.3429
 6781TIP3    H120304   0.349   5.559   2.576 -0.2399 -1.8966  0.8863
 6781TIP3    H220305   0.444   5.465   2.647  1.5386  0.8163  2.2653
 6782TIP3   OH220306   1.294   6.972   1.672 -0.1812  0.5077  0.4477
 6782TIP3    H120307   1.320   7.012   1.589  0.3172  2.8840  1.6840
 6782TIP3    H220308   1.347   6.893   1.678  1.3074  1.3842 -0.5534
 6783TIP3   OH220309   4.436   6.089   1.675 -0.5184 -0.2445  0.0991
 6783TIP3    H120310   4.442   6.025   1.604  0.6303 -1.4371  1.2289
 6783TIP3    H220311   4.467   6.171   1.637 -0.1649 -0.8092 -0.8469
 6784TIP3   OH220312   2.298   1.481   4.057  0.1166  0.1574  0.5113
 6784TIP3    H120313   2.263   1.409   4.111 -0.2755 -0.3752 -0.4134
 6784TIP3    H220314   2.228   1.546   4.056 -0.6242 -0.6071 -0.7691
 6785TIP3   OH220315   0.199   2.259   1.571  0.1234  0.2499 -0.1942
 6785TIP3    H120316   0.192   2.165   1.555 -0.3812  0.6637 -2.7275
 6785TIP3    H220317   0.259   2.266   1.646  2.4780 -1.9997 -1.7233
 6786TIP3   OH220318   0.179   6.166   5.543  0.1234  0.5256 -0.0368
 6786TIP3    H120319   0.245   6.147   5.609 -0.2741 -0.1101  0.1925
 6786TIP3    H220320   0.101   6.188   5.593  0.2436  1.6124 -0.3038
 6787TIP3   OH220321   3.333   3.670   2.023  0.4025  0.0766  0.2474
 6787TIP3    H120322   3.359   3.726   2.096 -0.7351 -0.9116  1.4404
 6787TIP3    H220323   3.412   3.664   1.968  0.8666  1.9196  0.6659
 6788TIP3   OH220324   3.910   6.476   0.794  0.1084  0.2580 -0.2319
 6788TIP3    H120325   3.951   6.498   0.710 -0.8952 -1.2591 -1.1790
 6788TIP3    H220326   3.957   6.397   0.823  0.7334  1.0083  0.8843
 6789TIP3   OH220327   6.204   1.332   5.338 -0.4917 -0.1624 -0.2177
 6789TIP3    H120328   6.187   1.349   5.431 -1.5371 -1.2107 -0.1996
 6789TIP3    H220329   6.172   1.410   5.293  2.5724  1.6639  0.4515
 6790TIP3   OH220330   6.532   0.971   4.862  0.2483 -0.2698  0.4436
 6790TIP3    H120331   6.506   0.890   4.907  1.3254  0.2831  2.1472
 6790TIP3    H220332   6.530   1.038   4.930 -2.2683  1.5661 -1.2723
 6791TIP3   OH220333   2.742   2.993   3.862  0.6303  0.8110  0.0325
 6791TIP3    H120334   2.821   3.005   3.916  0.6857  3.4792 -0.5210
 6791TIP3    H220335   2.685   2.937   3.915  1.5470  1.6105  1.9543
 6792TIP3   OH220336   4.148   2.423   1.972 -0.2715 -0.2173 -0.2443
 6792TIP3    H120337   4.197   2.407   2.053  0.7362 -0.4493 -0.8805
 6792TIP3    H220338   4.071   2.471   2.000 -0.2214 -0.7798  0.9278
 6793TIP3   OH220339   6.874   1.589   0.652 -0.2351 -0.3000  0.1654
 6793TIP3    H120340   6.963   1.556   0.656 -0.0563 -0.0848 -1.3139
 6793TIP3    H220341   6.829   1.548   0.726  1.2232  0.0456  1.2725
 6794TIP3   OH220342   3.569   5.022   5.361 -0.3694  0.7134  0.1706
 6794TIP3    H120343   3.593   5.104   5.317  0.8373  0.5559  0.5030
 6794TIP3    H220344   3.557   4.960   5.289 -0.7079  1.0365 -0.0543
 6795TIP3   OH220345   6.795   4.782   1.819 -0.0705 -0.0164 -0.1998
 6795TIP3    H120346   6.719   4.732   1.790  1.0794 -1.7386 -0.3933
 6795TIP3    H220347   6.794   4.776   1.914  0.1641 -0.5800 -0.2310
 6796TIP3   OH220348   7.232   2.948   1.276 -0.3310 -0.0027  0.5158
 6796TIP3    H120349   7.286   2.929   1.352  1.7435  1.3766 -0.5234
 6796TIP3    H220350   7.234   3.043   1.268 -1.2485 -0.0601 -0.7693
 6797TIP3   OH220351   5.223   6.826   0.466 -0.2852  0.0870 -0.3746
 6797TIP3    H120352   5.148   6.836   0.525 -0.4815 -0.8987 -0.4542
 6797TIP3    H220353   5.229   6.910   0.421 -2.4237 -0.3954 -1.6628
 6798TIP3   OH220354   1.753   3.296   5.181 -0.1941 -0.4847 -0.1169
 6798TIP3    H120355   1.716   3.376   5.219  1.4194  0.9466 -1.4160
 6798TIP3    H220356   1.696   3.276   5.107 -0.3491 -0.2968 -0.0486
 6799TIP3   OH220357   5.980   2.606   0.058  0.3045  0.1742 -0.1882
 6799TIP3    H120358   6.012   2.610  -0.032 -0.1668  2.2645 -0.3029
 6799TIP3    H220359   6.039   2.544   0.102  1.1322 -0.1345 -1.6827
 6800TIP3   OH220360   2.985   5.987   3.373 -0.0431 -0.4105  0.4608
 6800TIP3    H120361   2.972   5.932   3.450  0.8857 -0.6864  0.4255
 6800TIP3    H220362   2.931   5.946   3.305 -1.2840  0.1271  1.0728
 6801TIP3   OH220363   1.162   4.737   4.550 -0.5026 -0.0161 -0.1493
 6801TIP3    H120364   1.151   4.788   4.630  0.0647  1.1603 -0.7784
 6801TIP3    H220365   1.194   4.801   4.486  2.7375 -1.6037 -0.3503
 6802TIP3   OH220366   3.489   6.146   4.045  0.8344 -0.2663  0.1281
 6802TIP3    H120367   3.540   6.066   4.035  0.4125 -0.3218 -2.0061
 6802TIP3    H220368   3.540   6.213   3.998 -0.0827  0.1091 -0.3554
 6803TIP3   OH220369   1.322   0.145   5.985 -0.3534  0.1461 -0.4464
 6803TIP3    H120370   1.298   0.133   5.893  0.5238  2.0642 -0.9625
 6803TIP3    H220371   1.379   0.070   6.004 -1.8566 -1.1919 -0.9248
 6804TIP3   OH220372   2.166   1.357   5.666 -0.3986  0.1265 -0.1667
 6804TIP3    H120373   2.228   1.335   5.596 -1.1606 -1.4261 -0.4041
 6804TIP3    H220374   2.214   1.417   5.723  1.1679 -0.6725 -0.5963
 6805TIP3   OH220375   0.170   0.669   6.156  0.0021  0.0937  0.1232
 6805TIP3    H120376   0.093   0.622   6.189  0.5524 -0.8695  0.0964
 6805TIP3    H220377   0.136   0.754   6.128 -0.5276  1.0056  3.1130
 6806TIP3   OH220378   1.745   5.868   4.736  0.1302 -0.1173  0.1340
 6806TIP3    H120379   1.678   5.927   4.701 -1.0098 -0.8608  0.9978
 6806TIP3    H220380   1.816   5.925   4.765 -0.4328  0.7362 -0.1566
 6807TIP3   OH220381   2.940   0.652   2.275 -0.1849  0.7327  0.2131
 6807TIP3    H120382   2.938   0.582   2.209 -1.2492  1.8220 -0.9572
 6807TIP3    H220383   2.982   0.725   2.230  0.3751  1.0591  1.2335
 6808TIP3   OH220384   3.042   2.375   0.878 -0.0436 -0.0313  0.5162
 6808TIP3    H120385   3.016   2.319   0.951 -0.8087  0.1936  0.4266
 6808TIP3    H220386   2.998   2.337   0.802 -0.8288  0.8688  0.5102
 6809TIP3   OH220387   4.844   3.210   4.856  0.2592  0.1905  0.2011
 6809TIP3    H120388   4.760   3.191   4.899  0.1200 -0.9317 -0.5278
 6809TIP3    H220389   4.821   3.231   4.766  0.6273  1.7147  0.4290
 6810TIP3   OH220390   4.391   2.526   1.806  0.5756 -0.4628  0.4197
 6810TIP3    H120391   4.401   2.444   1.759  2.1776 -0.7469  1.2040
 6810TIP3    H220392   4.297   2.531   1.825 -0.2784  0.0092 -3.2788
 6811TIP3   OH220393   6.964   6.366   0.729  0.0914 -0.0220  0.2606
 6811TIP3    H120394   7.040   6.414   0.697  0.0336  0.5175  0.9076
 6811TIP3    H220395   6.942   6.408   0.812 -0.4160 -0.6960  0.4816
 6812TIP3   OH220396   0.975   7.002   3.974  0.0071  0.0792 -0.5034
 6812TIP3    H120397   0.980   7.033   4.064  3.7923 -2.5455  0.4453
 6812TIP3    H220398   0.912   6.930   3.977 -1.0641  0.9885 -0.4040
 6813TIP3   OH220399   5.407   2.117   5.847  0.3319  0.2071  1.4814
 6813TIP3    H120400   5.459   2.126   5.927  0.1661  0.1600  1.5945
 6813TIP3    H220401   5.323   2.157   5.869  0.0082 -0.5251  1.5945
 6814TIP3   OH220402   5.487   0.840   5.519 -0.1058  0.1281 -0.1822
 6814TIP3    H120403   5.473   0.853   5.426 -0.1974  0.8948 -0.0688
 6814TIP3    H220404   5.512   0.748   5.527 -1.8824 -0.4368 -0.7461
 6815TIP3   OH220405   1.505   5.230   0.611  0.3174 -0.2440 -0.0528
 6815TIP3    H120406   1.519   5.324   0.604  1.4801 -0.3950  0.0610
 6815TIP3    H220407   1.560   5.203   0.685 -0.0117 -1.0062 -0.0796
 6816TIP3   OH220408   5.860   0.203   0.008 -0.2831  0.2900  0.0542
 6816TIP3    H120409   5.826   0.133   0.064 -1.8082  0.5451 -0.5218
 6816TIP3    H220410   5.800   0.276   0.020 -0.4503  0.4774 -1.6387
 6817TIP3   OH220411   2.815   4.608   4.626  0.3161 -0.0909 -0.2849
 6817TIP3    H120412   2.895   4.587   4.674 -0.9255 -0.1727  1.8603
 6817TIP3    H220413   2.796   4.529   4.576  0.8863 -0.5475  0.1992
 6818TIP3   OH220414   0.807   0.596   1.350 -0.7801 -0.5869  0.0034
 6818TIP3    H120415   0.899   0.599   1.324 -1.3142 -2.2432 -2.4981
 6818TIP3    H220416   0.769   0.674   1.311 -0.1839  1.2042  2.7257
 6819TIP3   OH220417   4.969   6.149   4.376  0.1634  0.5935  0.2202
 6819TIP3    H120418   5.023   6.145   4.297  0.4512 -0.5192  0.4469
 6819TIP3    H220419   4.880   6.160   4.344  0.1384 -0.9699 -0.3522
 6820TIP3   OH220420   0.214   3.129   4.406  0.0958 -0.0407 -0.0274
 6820TIP3    H120421   0.125   3.162   4.418  0.2031  0.0654  0.4966
 6820TIP3    H220422   0.271   3.202   4.430  0.3276  0.1838 -1.2184
 6821TIP3   OH220423   3.267   2.598   3.072  0.6263 -0.6093  0.5388
 6821TIP3    H120424   3.250   2.669   3.133  3.2023  0.2663  0.3615
 6821TIP3    H220425   3.180   2.570   3.042 -0.5296  1.2583  1.9421
 6822TIP3   OH220426   0.753   5.397   3.541  0.1747  0.4602  0.0846
 6822TIP3    H120427   0.764   5.479   3.492  0.6900 -0.9148 -2.2039
 6822TIP3    H220428   0.659   5.381   3.541  0.0728  1.0172  0.5295
 6823TIP3   OH220429   4.992   6.148   1.591  0.1790 -0.4493 -0.4339
 6823TIP3    H120430   5.057   6.117   1.527 -0.5834 -0.2429 -1.3240
 6823TIP3    H220431   5.030   6.125   1.676  1.5899 -0.0029 -0.9169
 6824TIP3   OH220432   1.314   1.924   5.479 -0.0199 -0.5528  0.0772
 6824TIP3    H120433   1.313   1.950   5.571 -0.6226 -1.5948  0.3810
 6824TIP3    H220434   1.293   2.004   5.431  0.5103  0.0486  0.8210
 6825TIP3   OH220435   2.913   5.135   3.138  0.4722 -0.6569  0.3383
 6825TIP3    H120436   2.853   5.196   3.094  0.0685 -0.3383  1.3169
 6825TIP3    H220437   2.992   5.138   3.084  0.2195  0.2185 -0.0094
 6826TIP3   OH220438   6.213   2.329   0.753  0.3885  0.5100  0.1435
 6826TIP3    H120439   6.257   2.261   0.703 -0.3729 -0.4937  0.7998
 6826TIP3    H220440   6.271   2.405   0.747 -0.4733  1.0370 -3.6621
 6827TIP3   OH220441   3.477   1.259   3.227  0.1968  0.6744  0.3264
 6827TIP3    H120442   3.427   1.295   3.153  1.4386 -1.6439 -1.7796
 6827TIP3    H220443   3.410   1.234   3.291 -0.9188  2.7842  0.1015
 6828TIP3   OH220444   7.436   2.833   3.846  0.6140 -0.3668  0.0309
 6828TIP3    H120445   7.531   2.822   3.852  0.9841  0.5521 -2.8657
 6828TIP3    H220446   7.415   2.894   3.917  2.0963 -0.8582  0.9538
 6829TIP3   OH220447   6.908   2.803   4.861  0.0746 -0.3428 -0.2359
 6829TIP3    H120448   6.978   2.853   4.901 -0.6882  0.3190  0.2940
 6829TIP3    H220449   6.947   2.767   4.781  1.2989 -0.8231  0.5511
 6830TIP3   OH220450   7.175   1.128   1.299 -0.0897 -0.6378 -0.3305
 6830TIP3    H120451   7.208   1.206   1.253 -0.0936 -0.1875  0.4209
 6830TIP3    H220452   7.095   1.158   1.342  0.0635 -0.9810  0.2017
 6831TIP3   OH220453   5.747   2.770   1.345  0.1297  0.2696 -0.3246
 6831TIP3    H120454   5.840   2.768   1.323  0.0019 -0.1776 -0.8389
 6831TIP3    H220455   5.743   2.822   1.426  0.4165  3.4781 -2.1992
 6832TIP3   OH220456   7.497   3.967   3.589 -0.5216  0.2317  0.0244
 6832TIP3    H120457   7.574   3.916   3.561 -0.4212  0.6034 -0.3818
 6832TIP3    H220458   7.423   3.923   3.548 -0.4948  0.0627  0.1550
 6833TIP3   OH220459   1.541   5.104   4.962 -0.0741 -0.8485 -0.1331
 6833TIP3    H120460   1.592   5.092   4.882  1.9820  1.5146  0.7136
 6833TIP3    H220461   1.471   5.164   4.937  1.1422  0.6794 -0.0085
 6834TIP3   OH220462   1.533   1.854   2.592 -0.1303  0.1511  0.0385
 6834TIP3    H120463   1.625   1.878   2.583  0.4573 -1.2723  1.7682
 6834TIP3    H220464   1.527   1.765   2.556 -0.6028 -0.1620  0.8605
 6835TIP3   OH220465   2.535   0.662   2.484 -0.1064  0.1667  0.1361
 6835TIP3    H120466   2.589   0.639   2.408 -2.1784 -0.4889 -1.2204
 6835TIP3    H220467   2.446   0.662   2.450 -0.8985  2.4320  1.9951
 6836TIP3   OH220468   0.183   5.299   1.309 -0.7119 -1.0467  0.3358
 6836TIP3    H120469   0.234   5.283   1.389  0.7467  0.1788 -0.2909
 6836TIP3    H220470   0.147   5.387   1.321 -0.7883 -1.0004 -0.2032
 6837TIP3   OH220471   5.031   0.261   4.981  0.6961 -0.1195  0.3892
 6837TIP3    H120472   5.077   0.271   5.065  2.9846  1.5777 -0.9336
 6837TIP3    H220473   5.033   0.348   4.943 -2.8405 -0.2175 -0.2808
 6838TIP3   OH220474   0.981   5.757   3.921 -0.2043 -0.3656 -0.1597
 6838TIP3    H120475   0.910   5.730   3.862 -0.1882 -0.4765 -0.1282
 6838TIP3    H220476   1.032   5.819   3.869 -0.8522  0.4248  0.1315
 6839TIP3   OH220477   7.396   4.323   0.206 -0.0745  0.2874 -0.0840
 6839TIP3    H120478   7.384   4.417   0.204  2.1923  0.6265 -0.3455
 6839TIP3    H220479   7.483   4.310   0.246  0.6605 -1.5436 -2.0414
 6840TIP3   OH220480   5.047   6.797   4.002 -0.4238  0.1494  0.3259
 6840TIP3    H120481   5.070   6.757   3.919  0.1189  0.0338  0.5267
 6840TIP3    H220482   5.012   6.724   4.055 -1.8893  0.4458 -0.1990
 6841TIP3   OH220483   7.437   0.169   3.763  0.4545 -0.4474 -0.2366
 6841TIP3    H120484   7.467   0.127   3.844 -0.2094 -1.0292 -0.2774
 6841TIP3    H220485   7.362   0.116   3.736 -0.8040  1.1054  0.0332
 6842TIP3   OH220486   3.675   1.519   5.008 -0.2251  0.1941  0.1412
 6842TIP3    H120487   3.696   1.587   5.071  0.3049 -0.1402  0.3279
 6842TIP3    H220488   3.602   1.555   4.957  0.3534  1.0838 -0.0678
 6843TIP3   OH220489   2.436   6.146   2.095  0.4850  0.7799 -0.3846
 6843TIP3    H120490   2.352   6.122   2.133  0.8622  0.8695  0.5341
 6843TIP3    H220491   2.427   6.128   2.002  0.2907 -1.6311  0.0403
 6844TIP3   OH220492   4.091   1.451   5.904 -0.4600  0.1411  0.5440
 6844TIP3    H120493   4.150   1.506   5.853 -1.1624  0.2701 -0.1441
 6844TIP3    H220494   4.007   1.456   5.858 -0.4587 -1.7639  0.2521
 6845TIP3   OH220495   3.244   3.570   1.182 -0.1657 -0.2523 -0.2583
 6845TIP3    H120496   3.195   3.507   1.235 -0.4249 -1.2444 -1.6129
 6845TIP3    H220497   3.275   3.635   1.244 -1.2284 -0.8722  0.9640
 6846TIP3   OH220498   6.598   0.677   1.139  0.4040 -0.2876 -0.2617
 6846TIP3    H120499   6.556   0.639   1.061  1.0666 -0.4900 -0.5320
 6846TIP3    H220500   6.618   0.602   1.195  0.5432 -0.2111 -0.2076
 6847TIP3   OH220501   1.842   4.697   2.971 -0.3774  0.6981  0.3523
 6847TIP3    H120502   1.903   4.644   2.919 -1.1522  0.9000 -0.7995
 6847TIP3    H220503   1.816   4.639   3.042 -0.3563 -0.0946 -0.2612
 6848TIP3   OH220504   1.313   4.367   6.027 -0.4308  0.0650  0.1674
 6848TIP3    H120505   1.384   4.330   6.079  1.3032  1.4070 -1.1068
 6848TIP3    H220506   1.267   4.426   6.086  1.3331  1.3569  0.3378
 6849TIP3   OH220507   2.435   0.782   2.755 -0.0637 -0.1791 -0.3024
 6849TIP3    H120508   2.414   0.689   2.747 -1.2020  0.0974 -0.6862
 6849TIP3    H220509   2.421   0.801   2.848 -0.1712 -0.3161 -0.2892
 6850TIP3   OH220510   6.535   5.855   5.574 -0.0521  0.0766 -0.9550
 6850TIP3    H120511   6.561   5.835   5.665  0.4842  0.4356 -1.0265
 6850TIP3    H220512   6.444   5.825   5.569 -0.3313  0.7244 -0.0782
 6851TIP3   OH220513   1.532   3.982   5.534  0.2522 -0.2402 -0.3518
 6851TIP3    H120514   1.439   3.969   5.515  0.6513 -0.2893 -2.4569
 6851TIP3    H220515   1.569   4.015   5.453  1.4511  3.4188  1.4737
 6852TIP3   OH220516   2.402   0.575   1.836 -0.0544  0.7557 -0.4766
 6852TIP3    H120517   2.348   0.623   1.773 -0.1365  0.6028 -0.5260
 6852TIP3    H220518   2.477   0.631   1.853  0.8748  0.0701 -2.0483
 6853TIP3   OH220519   3.335   1.706   3.704 -0.3030 -0.2796  0.3781
 6853TIP3    H120520   3.330   1.802   3.708 -0.2453 -0.2399 -0.3278
 6853TIP3    H220521   3.348   1.678   3.794 -0.4557  0.3732  0.6052
 6854TIP3   OH220522   6.855   1.380   0.171  0.0055 -0.4834 -0.1302
 6854TIP3    H120523   6.908   1.452   0.137 -0.3617  0.0475  0.3936
 6854TIP3    H220524   6.919   1.318   0.206  0.3066 -0.0742  0.0607
 6855TIP3   OH220525   6.018   5.237   0.415  0.4923 -0.0352  0.6985
 6855TIP3    H120526   6.035   5.300   0.485 -0.3316  0.6260  0.3264
 6855TIP3    H220527   6.104   5.205   0.389  1.0745  2.1569 -0.2191
 6856TIP3   OH220528   4.877   4.102   3.692 -0.2684  0.2502  0.2934
 6856TIP3    H120529   4.898   4.018   3.651  0.7180 -0.3857  1.9751
 6856TIP3    H220530   4.782   4.109   3.685 -0.2534 -0.4699 -0.8355
 6857TIP3   OH220531   6.899   2.019   1.245 -0.0576 -0.2484  0.2137
 6857TIP3    H120532   6.874   1.976   1.327  3.3520 -3.1010 -0.0443
 6857TIP3    H220533   6.978   2.069   1.266  0.2168 -0.0816 -1.0840
 6858TIP3   OH220534   2.872   3.544   2.441 -0.0632 -0.0261 -0.3065
 6858TIP3    H120535   2.849   3.457   2.474  1.1045 -0.8893 -1.6514
 6858TIP3    H220536   2.967   3.540   2.429 -0.2833  0.5969 -2.6864
 6859TIP3   OH220537   5.029   0.084   5.990 -0.3049  0.2834  0.5369
 6859TIP3    H120538   5.099   0.086   5.925  0.0775 -0.2144  0.9310
 6859TIP3    H220539   5.069   0.048   6.069 -0.9608  0.1459  0.8206
 6860TIP3   OH220540   7.006   2.485   1.698  0.3503 -0.3064 -0.2253
 6860TIP3    H120541   7.061   2.564   1.696  0.8405 -0.6364 -0.0862
 6860TIP3    H220542   7.066   2.415   1.726  0.1448 -0.9013 -1.2271
 6861TIP3   OH220543   2.905   5.439   6.142 -0.3526  0.5430  0.1873
 6861TIP3    H120544   2.914   5.520   6.091 -1.4139 -0.6099 -1.9817
 6861TIP3    H220545   2.833   5.456   6.203 -0.4905  1.2799 -0.1707
 6862TIP3   OH220546   6.669   3.724   5.086  0.1936 -0.3156  0.4231
 6862TIP3    H120547   6.596   3.668   5.114  0.7793 -0.9306  0.7406
 6862TIP3    H220548   6.707   3.679   5.011  0.4582 -0.1665  0.4670
 6863TIP3   OH220549   6.632   3.221   2.991 -0.0537  0.1538 -0.4114
 6863TIP3    H120550   6.677   3.181   3.065  0.0431 -1.1776 -1.1706
 6863TIP3    H220551   6.557   3.163   2.974 -0.5310  0.8829 -0.8519
 6864TIP3   OH220552   4.324   5.735   5.551  0.4058  0.3864 -0.3257
 6864TIP3    H120553   4.399   5.718   5.608 -0.6209  1.2685  1.3390
 6864TIP3    H220554   4.270   5.656   5.559  0.5685  0.2424 -0.6078
 6865TIP3   OH220555   4.412   6.422   1.735 -0.0339  0.3316 -0.3331
 6865TIP3    H120556   4.449   6.490   1.790 -2.6842  0.7856  1.0539
 6865TIP3    H220557   4.462   6.427   1.653  0.8234  2.9164  0.2728
 6866TIP3   OH220558   6.499   0.222   3.425  0.1252  0.5585 -0.0631
 6866TIP3    H120559   6.410   0.195   3.401  0.6563 -3.0885  1.3278
 6866TIP3    H220560   6.556   0.157   3.384  1.9159  1.1867  1.2810
 6867TIP3   OH220561   2.530   1.252   5.791 -0.1890  0.3284 -0.2273
 6867TIP3    H120562   2.625   1.266   5.785 -0.2083  0.2827 -0.6454
 6867TIP3    H220563   2.495   1.340   5.807 -0.0804  0.3506 -0.1027
 6868TIP3   OH220564   0.655   0.982   3.829 -0.0539 -0.4208 -0.2439
 6868TIP3    H120565   0.577   0.926   3.825 -2.0347  2.1901 -1.7256
 6868TIP3    H220566   0.647   1.027   3.913 -0.1597 -0.1706 -0.3861
 6869TIP3   OH220567   1.312   6.473   3.783 -0.1153  0.1104 -0.1630
 6869TIP3    H120568   1.296   6.551   3.835  0.5043  0.3494 -0.3278
 6869TIP3    H220569   1.301   6.501   3.692 -1.1113 -0.2852 -0.1824
 6870TIP3   OH220570   2.760   1.588   4.952  0.0089 -0.2117 -0.5420
 6870TIP3    H120571   2.803   1.632   5.025  0.8777  0.9855 -1.7277
 6870TIP3    H220572   2.758   1.496   4.977  1.9872 -0.0930  0.1962
 6871TIP3   OH220573   3.741   1.433   5.486 -0.0256  0.1721 -0.4665
 6871TIP3    H120574   3.725   1.527   5.478  0.3476  0.2435 -0.3998
 6871TIP3    H220575   3.654   1.393   5.482 -0.2291  0.5578  0.0251
 6872TIP3   OH220576   7.232   0.654   3.950 -0.4800  0.5263  0.0544
 6872TIP3    H120577   7.199   0.720   3.889 -2.7420  0.1018  0.7096
 6872TIP3    H220578   7.200   0.571   3.914 -1.5914  0.2429  1.5971
 6873TIP3   OH220579   6.107   4.749   2.267  0.0391 -0.3555  0.1213
 6873TIP3    H120580   6.128   4.771   2.176  0.4868 -2.6756 -0.3976
 6873TIP3    H220581   6.020   4.707   2.261 -0.4120  0.4478  0.9253
 6874TIP3   OH220582   7.042   1.071   2.546  0.0443  0.0881  0.2582
 6874TIP3    H120583   7.091   0.995   2.514 -0.9577 -0.3927 -0.1751
 6874TIP3    H220584   7.100   1.145   2.531  0.9093 -0.5509  0.3873
 6875TIP3   OH220585   1.972   5.660   3.641  0.3830  0.1482  0.5508
 6875TIP3    H120586   1.985   5.717   3.717 -0.4104  1.3328 -0.1565
 6875TIP3    H220587   1.951   5.721   3.570  0.4747 -0.9810 -0.4669
 6876TIP3   OH220588   0.958   6.238   5.394 -0.1925  0.4150  0.7291
 6876TIP3    H120589   0.908   6.316   5.421 -0.5278  0.5076 -0.1206
 6876TIP3    H220590   0.999   6.264   5.312  0.3507 -0.0425  0.8536
 6877TIP3   OH220591   3.221   3.807   5.228 -0.8450 -0.0688  0.1943
 6877TIP3    H120592   3.241   3.825   5.320  0.0665  0.8393 -0.1592
 6877TIP3    H220593   3.283   3.738   5.203 -1.7945 -1.0668  0.5260
 6878TIP3   OH220594   3.049   7.063   5.001  0.9540 -0.1531 -0.1929
 6878TIP3    H120595   3.145   7.066   5.009  0.7969 -0.4295  3.2713
 6878TIP3    H220596   3.022   7.001   5.070 -1.7659  0.4744 -0.6049
 6879TIP3   OH220597   2.193   3.890   4.280  0.3449  0.4279  0.7776
 6879TIP3    H120598   2.138   3.878   4.358 -1.5152 -1.2460 -0.6741
 6879TIP3    H220599   2.175   3.812   4.227  1.0437  1.8139 -1.6097
 6880TIP3   OH220600   2.341   1.973   2.636  0.1156 -0.1102  0.7434
 6880TIP3    H120601   2.393   2.051   2.621 -1.1057  0.8192  1.1986
 6880TIP3    H220602   2.354   1.920   2.558  0.1639  1.0007 -0.0196
 6881TIP3   OH220603   3.317   6.746   5.969  0.9282 -0.4518  0.4596
 6881TIP3    H120604   3.381   6.677   5.951  0.6828 -0.6994  0.5358
 6881TIP3    H220605   3.286   6.773   5.882 -0.6341 -2.0012  0.4853
 6882TIP3   OH220606   6.899   5.636   4.801  0.2975 -0.3569 -0.9956
 6882TIP3    H120607   6.963   5.566   4.785  0.7148 -0.9009  2.3362
 6882TIP3    H220608   6.932   5.682   4.878 -2.5617  0.2591  0.0067
 6883TIP3   OH220609   4.756   3.468   5.557  0.1033 -0.0322 -0.3398
 6883TIP3    H120610   4.776   3.552   5.597 -0.8248 -0.1687  0.4380
 6883TIP3    H220611   4.841   3.430   5.537  0.5596  0.4233  0.6935
 6884TIP3   OH220612   5.479   6.529   3.703 -0.3676  0.0595 -0.2085
 6884TIP3    H120613   5.526   6.475   3.639  0.9192  2.3744 -1.3673
 6884TIP3    H220614   5.532   6.524   3.783  0.5027  0.5936 -0.7233
 6885TIP3   OH220615   5.388   0.285   3.347  0.0795 -0.5037  0.1202
 6885TIP3    H120616   5.334   0.263   3.271  2.4277 -1.9594 -1.2718
 6885TIP3    H220617   5.383   0.208   3.403  2.1156 -1.5199 -0.9692
 6886TIP3   OH220618   6.368   6.597   3.443 -0.3753 -0.4238 -0.1854
 6886TIP3    H120619   6.410   6.665   3.390  0.0490 -1.0119 -0.6292
 6886TIP3    H220620   6.431   6.578   3.512 -0.1157 -0.9420 -0.5502
 6887TIP3   OH220621   0.683   3.013   5.069  0.2518  0.4085  0.3222
 6887TIP3    H120622   0.703   2.920   5.082  0.9914  0.4111 -0.6668
 6887TIP3    H220623   0.718   3.056   5.148 -0.2850 -0.1626  0.8847
 6888TIP3   OH220624   2.207   4.297   3.254 -0.2283 -0.5930 -0.0553
 6888TIP3    H120625   2.252   4.380   3.274 -1.5046  0.3470 -0.9607
 6888TIP3    H220626   2.277   4.237   3.229  0.6602  0.4197 -0.0576
 6889TIP3   OH220627   3.825   6.819   5.432  0.5329 -0.2993  0.5638
 6889TIP3    H120628   3.742   6.771   5.433 -0.1759  0.8596 -0.1566
 6889TIP3    H220629   3.891   6.752   5.414 -0.2770 -1.1979  0.8568
 6890TIP3   OH220630   1.833   0.089   3.286  0.0901 -0.0686 -0.2945
 6890TIP3    H120631   1.860   0.093   3.378 -1.4464 -2.7476  0.3897
 6890TIP3    H220632   1.915   0.083   3.237  0.9922  2.6270  0.7094
 6891TIP3   OH220633   2.535   6.144   1.496  0.8730  0.1105  0.1964
 6891TIP3    H120634   2.591   6.068   1.509 -0.3037 -0.9608 -0.6474
 6891TIP3    H220635   2.447   6.107   1.486 -0.0223  1.7265  1.6337
 6892TIP3   OH220636   1.872   3.759   4.282 -0.9074  0.1605 -0.5567
 6892TIP3    H120637   1.777   3.751   4.281 -0.8916 -0.0604 -0.1675
 6892TIP3    H220638   1.889   3.852   4.295 -1.0683  0.1216 -0.0665
 6893TIP3   OH220639   5.542   3.140   6.066  0.0873  0.1498  0.3919
 6893TIP3    H120640   5.575   3.053   6.089 -0.8869 -0.1750  0.6009
 6893TIP3    H220641   5.522   3.181   6.150  0.6252  0.6144  0.2974
 6894TIP3   OH220642   6.517   1.372   1.848 -0.4097  0.0521  0.0005
 6894TIP3    H120643   6.545   1.330   1.929 -1.0048 -0.1591  0.0974
 6894TIP3    H220644   6.476   1.302   1.797  0.6452  0.0033 -0.8214
 6895TIP3   OH220645   7.413   3.237   3.098 -0.6179 -0.4202  0.7469
 6895TIP3    H120646   7.465   3.247   3.178 -2.0636 -2.5350  2.0597
 6895TIP3    H220647   7.409   3.142   3.084 -1.4081 -0.1459 -1.1726
 6896TIP3   OH220648   3.301   2.075   1.475  0.7651  0.1842  0.3678
 6896TIP3    H120649   3.287   1.998   1.420 -0.3487  1.2861 -0.9389
 6896TIP3    H220650   3.266   2.148   1.425  1.1419  1.4700  1.8856
 6897TIP3   OH220651   5.822   2.340   0.271  0.1862 -0.0689 -0.3230
 6897TIP3    H120652   5.867   2.396   0.334  0.3962 -0.7728  0.1684
 6897TIP3    H220653   5.788   2.268   0.324 -1.0828  0.1706 -0.7528
 6898TIP3   OH220654   0.809   3.450   6.133 -0.4309  0.5156 -0.0840
 6898TIP3    H120655   0.889   3.457   6.083 -1.0275  0.3394 -1.0843
 6898TIP3    H220656   0.797   3.357   6.148 -1.3092  0.3815 -1.4122
 6899TIP3   OH220657   2.277   6.273   5.347  1.0238  0.4556 -0.5473
 6899TIP3    H120658   2.183   6.268   5.328  0.9666  0.3533 -0.2426
 6899TIP3    H220659   2.319   6.254   5.263  0.7765  3.3613 -1.4353
 6900TIP3   OH220660   4.511   3.918   5.702  0.5034 -0.6312 -0.7741
 6900TIP3    H120661   4.448   3.877   5.643  0.3888 -0.8183 -0.5247
 6900TIP3    H220662   4.466   3.995   5.737  0.3818 -0.8084 -0.5359
 6901TIP3   OH220663   4.865   2.421   0.939  0.3578  0.3964 -0.3516
 6901TIP3    H120664   4.829   2.508   0.956 -0.3785  0.2910 -1.3125
 6901TIP3    H220665   4.909   2.429   0.855  2.8001  0.5580  0.8460
 6902TIP3   OH220666   2.806   0.923   3.312 -0.9041  0.1562 -0.3332
 6902TIP3    H120667   2.791   0.833   3.282 -0.6455  0.2781 -0.8454
 6902TIP3    H220668   2.862   0.961   3.245 -0.9450  0.6771 -0.0756
 6903TIP3   OH220669   2.178   4.435   4.708 -0.0045  0.3642 -0.0661
 6903TIP3    H120670   2.104   4.437   4.769 -1.5242  0.9619 -1.8567
 6903TIP3    H220671   2.248   4.481   4.754 -1.8607  2.9913  0.3380
 6904TIP3   OH220672   1.129   0.165   4.229  0.1871 -0.1194  0.2070
 6904TIP3    H120673   1.158   0.092   4.174  3.4132 -0.2529  1.7911
 6904TIP3    H220674   1.148   0.243   4.178  2.0074 -0.2892  0.5328
 6905TIP3   OH220675   0.625   2.943   5.723  0.4028  0.4767 -0.5714
 6905TIP3    H120676   0.546   2.890   5.710  1.5876 -1.2820 -0.9412
 6905TIP3    H220677   0.624   2.964   5.817 -0.6989  0.8183 -0.6487
 6906TIP3   OH220678   1.543   2.758   5.836  0.0929  0.1056 -0.7448
 6906TIP3    H120679   1.494   2.685   5.874 -0.0162  1.3438  1.6751
 6906TIP3    H220680   1.513   2.835   5.885  1.3405  1.5665 -2.1535
 6907TIP3   OH220681   4.713   1.539   2.853  0.0971 -0.2168  0.0830
 6907TIP3    H120682   4.767   1.471   2.894  1.1574  0.7050  0.2685
 6907TIP3    H220683   4.740   1.620   2.896 -0.9206  0.3745 -0.3528
 6908TIP3   OH220684   0.156   6.981   5.145  0.4125  0.5446 -0.5379
 6908TIP3    H120685   0.234   7.026   5.178  0.3941 -0.2270  0.6515
 6908TIP3    H220686   0.189   6.911   5.089  0.5495  0.6544 -0.5915
 6909TIP3   OH220687   6.529   6.344   2.423 -0.3522 -0.4991 -0.1071
 6909TIP3    H120688   6.525   6.373   2.332  0.3251  0.4586  0.1558
 6909TIP3    H220689   6.466   6.400   2.469  1.2574  0.9233  0.4758
 6910TIP3   OH220690   6.707   1.285   5.849  0.2312  0.0935  0.2328
 6910TIP3    H120691   6.747   1.334   5.777 -0.7703  0.4122 -0.1275
 6910TIP3    H220692   6.753   1.201   5.849  1.6674  0.8537  0.5770
 6911TIP3   OH220693   6.927   0.054   5.379  0.6546 -0.1322  0.1984
 6911TIP3    H120694   6.851   0.003   5.408 -0.8619  0.6373 -2.1005
 6911TIP3    H220695   6.972  -0.003   5.317  0.0075  0.5774 -0.9669
 6912TIP3   OH220696   2.993   2.081   5.295 -0.0171 -0.2465  0.4105
 6912TIP3    H120697   2.955   2.143   5.233 -1.0977 -0.2634  1.0158
 6912TIP3    H220698   2.923   2.066   5.359  0.6252 -1.2015  0.9170
 6913TIP3   OH220699   1.795   1.789   6.176 -0.1682  0.0371  0.2480
 6913TIP3    H120700   1.750   1.706   6.187  0.2313 -0.3053 -0.6421
 6913TIP3    H220701   1.732   1.855   6.206 -1.4043 -0.3952 -1.3011
 6914TIP3   OH220702   7.198   2.496   4.460 -0.6690 -0.4404 -0.3340
 6914TIP3    H120703   7.240   2.491   4.546  0.2004 -2.0906 -0.8151
 6914TIP3    H220704   7.137   2.422   4.460 -1.8315  0.5021 -0.5560
 6915TIP3   OH220705   6.176   0.224   4.736 -0.1734  0.2465 -0.5254
 6915TIP3    H120706   6.251   0.250   4.789  0.6397 -0.0920 -1.4653
 6915TIP3    H220707   6.119   0.301   4.733 -0.8771 -0.1101  1.8404
 6916TIP3   OH220708   6.154   4.635   6.081 -0.1601  0.2103  0.3588
 6916TIP3    H120709   6.109   4.595   6.156 -1.9285  0.0668 -0.7032
 6916TIP3    H220710   6.097   4.707   6.055  0.3131  0.1372 -0.9492
 6917TIP3   OH220711   0.389   4.473   3.173 -0.7451  0.3702  0.1663
 6917TIP3    H120712   0.470   4.524   3.166 -1.1517  0.9378 -0.5365
 6917TIP3    H220713   0.394   4.432   3.259  0.6513 -0.2352 -0.1735
 6918TIP3   OH220714   6.418   5.442   5.233 -0.2342  0.3301  0.2408
 6918TIP3    H120715   6.474   5.407   5.164 -1.4309  1.0795 -1.1597
 6918TIP3    H220716   6.478   5.487   5.293  0.9850 -1.5457  0.5037
 6919TIP3   OH220717   5.813   6.299   1.588 -0.2034  0.0044  0.2156
 6919TIP3    H120718   5.818   6.272   1.497  0.9785  2.5171 -0.5608
 6919TIP3    H220719   5.820   6.218   1.638  1.1928 -1.2705 -1.8969
 6920TIP3   OH220720   7.551   6.896   5.513 -0.1497 -0.1553 -0.8642
 6920TIP3    H120721   7.630   6.950   5.511 -0.4043  0.3032  0.4852
 6920TIP3    H220722   7.542   6.869   5.604 -2.2347  0.8319 -0.7070
 6921TIP3   OH220723   0.458   5.059   0.269 -0.3023  0.7543 -0.0213
 6921TIP3    H120724   0.410   5.085   0.347 -1.3716 -0.5404 -0.2164
 6921TIP3    H220725   0.403   5.087   0.196 -0.2162  0.2740 -0.2736
 6922TIP3   OH220726   5.175   6.800   3.725 -0.1502  0.2883  0.0404
 6922TIP3    H120727   5.195   6.805   3.632  0.7502  0.9887  0.2579
 6922TIP3    H220728   5.220   6.721   3.755 -1.3387 -0.5389 -0.3226
 6923TIP3   OH220729   2.682   4.807   6.030 -0.3692  0.3600 -0.3600
 6923TIP3    H120730   2.716   4.843   5.949  0.4907  0.4791  0.0450
 6923TIP3    H220731   2.644   4.882   6.076  0.3086  0.5430 -0.0788
 6924TIP3   OH220732   0.465   2.677   4.761  0.1013 -0.6513 -0.1550
 6924TIP3    H120733   0.427   2.618   4.697  2.2414 -1.3263 -0.8779
 6924TIP3    H220734   0.557   2.687   4.735  0.5352  0.7089  1.6078
 6925TIP3   OH220735   6.451   5.948   2.905  1.0253 -0.4737  0.1658
 6925TIP3    H120736   6.425   5.876   2.962  2.5544 -0.4270  0.9880
 6925TIP3    H220737   6.544   5.933   2.889  1.6060  1.7321  1.0427
 6926TIP3   OH220738   0.024   2.510   6.229  0.8828  0.5140  0.5090
 6926TIP3    H120739  -0.007   2.488   6.142 -1.8932  0.0749  1.4912
 6926TIP3    H220740   0.048   2.602   6.224  0.5864  0.5350 -0.6614
 6927TIP3   OH220741   7.160   2.315   3.607 -0.4501  0.3302  0.1843
 6927TIP3    H120742   7.147   2.224   3.578 -1.0382  0.4333  0.1173
 6927TIP3    H220743   7.252   2.319   3.632 -0.7588 -0.6789  1.5955
 6928TIP3   OH220744   6.541   0.352   2.878  0.1809 -0.0717  0.1113
 6928TIP3    H120745   6.467   0.414   2.878 -0.1011 -0.4030 -0.5456
 6928TIP3    H220746   6.502   0.269   2.850  0.5562 -0.5564  0.9976
 6929TIP3   OH220747   0.208   0.179   4.519  0.0699 -0.4684 -0.3152
 6929TIP3    H120748   0.193   0.105   4.578  0.6107 -0.1699  0.2026
 6929TIP3    H220749   0.212   0.139   4.432  2.2870 -1.3398  0.1210
 6930TIP3   OH220750   3.783   0.303   3.809  0.6057  0.8058 -0.7635
 6930TIP3    H120751   3.721   0.355   3.758 -0.0259  1.3656  0.5117
 6930TIP3    H220752   3.731   0.272   3.884  1.6035  0.3944 -0.2285
 6931TIP3   OH220753   7.490   0.187   2.625  0.0721 -0.3437 -0.4799
 6931TIP3    H120754   7.569   0.208   2.577 -0.0736  0.1145 -0.5259
 6931TIP3    H220755   7.468   0.268   2.672 -0.8451 -0.1905 -1.1462
 6932TIP3   OH220756   0.255   1.891   4.854 -0.1022  0.4138 -0.4070
 6932TIP3    H120757   0.289   1.803   4.843  1.5303  0.7305  1.4722
 6932TIP3    H220758   0.164   1.880   4.880  0.6250 -0.8385  1.7727
 6933TIP3   OH220759   6.207   2.048   3.668  0.2305 -0.5830  0.1495
 6933TIP3    H120760   6.241   2.030   3.580  0.1870 -0.2095  0.0572
 6933TIP3    H220761   6.192   1.961   3.705  2.2235 -0.8153  0.5581
 6934TIP3   OH220762   1.028   0.010   0.012 -0.0076  0.4531  0.0480
 6934TIP3    H120763   1.054   0.096   0.047  0.2158  0.9140 -1.2103
 6934TIP3    H220764   1.091  -0.051   0.050 -0.2083  0.8183  1.0093
 6935TIP3   OH220765   2.431   4.477   4.379 -0.0235 -0.8765 -0.3615
 6935TIP3    H120766   2.467   4.455   4.465 -1.3826  1.8872  1.0157
 6935TIP3    H220767   2.336   4.473   4.390 -0.2810  1.7549 -1.0078
 6936TIP3   OH220768   5.252   1.630   2.538  0.4327  0.2292 -0.2038
 6936TIP3    H120769   5.328   1.617   2.481  1.0304 -1.3782  0.8962
 6936TIP3    H220770   5.232   1.543   2.573 -1.3862  0.7676  0.2193
 6937TIP3   OH220771   4.246   4.882   0.674  0.1614  0.1690  0.8533
 6937TIP3    H120772   4.234   4.787   0.673  1.3423 -0.0026  0.4287
 6937TIP3    H220773   4.340   4.894   0.658 -0.2626  1.4584 -1.0133
 6938TIP3   OH220774   7.517   3.356   2.584 -0.0884 -0.2721 -0.2755
 6938TIP3    H120775   7.472   3.330   2.664  0.0944 -2.2955 -0.7855
 6938TIP3    H220776   7.450   3.402   2.533 -0.5994 -0.2388  0.4129
 6939TIP3   OH220777   0.132   1.263   1.445  0.3317  0.0141  0.0424
 6939TIP3    H120778   0.141   1.336   1.507 -0.1399  1.2703 -1.3001
 6939TIP3    H220779   0.047   1.225   1.465 -1.4237  2.5651 -1.9195
 6940TIP3   OH220780   2.413   1.798   2.408 -0.0978 -0.5835  0.3234
 6940TIP3    H120781   2.479   1.759   2.466  0.6948  1.4675  0.8728
 6940TIP3    H220782   2.452   1.794   2.321  0.5430  0.0974  0.5647
 6941TIP3   OH220783   6.415   5.586   1.845 -0.4616  0.1042 -0.5088
 6941TIP3    H120784   6.413   5.643   1.922  0.0455  0.0600 -0.4567
 6941TIP3    H220785   6.495   5.611   1.799  1.9059 -3.0396  1.4537
 6942TIP3   OH220786   1.430   4.566   2.118  0.0656  0.3630  0.3690
 6942TIP3    H120787   1.431   4.506   2.044 -0.6138  0.8143 -0.0226
 6942TIP3    H220788   1.338   4.570   2.145  0.0436  1.4891  0.1615
 6943TIP3   OH220789   5.012   5.016   0.762 -0.0845  0.2344 -0.3198
 6943TIP3    H120790   5.028   5.086   0.825  1.3881  0.3115 -0.7227
 6943TIP3    H220791   5.047   5.049   0.679 -0.4925 -0.4969 -0.7993
 6944TIP3   OH220792   4.201   4.592   2.382  0.8371  0.2402  0.4817
 6944TIP3    H120793   4.248   4.622   2.460 -0.1559 -0.6255  1.4468
 6944TIP3    H220794   4.124   4.546   2.416  0.1203  0.2460 -1.0231
 6945TIP3   OH220795   1.652   2.545   2.444  0.0785 -0.0097  0.0065
 6945TIP3    H120796   1.730   2.587   2.480  1.5926  1.0124 -3.9312
 6945TIP3    H220797   1.676   2.453   2.436 -0.0407 -0.1287  0.8562
 6946TIP3   OH220798   3.761   1.602   0.056 -0.2253 -0.5701 -0.2341
 6946TIP3    H120799   3.729   1.514   0.037  3.9816 -2.3371 -0.3636
 6946TIP3    H220800   3.782   1.601   0.149  0.3294  0.0846 -0.3404
 6947TIP3   OH220801   5.289   6.188   3.664  0.1053 -0.3693  0.6172
 6947TIP3    H120802   5.241   6.268   3.641 -0.2783 -1.1802 -1.6585
 6947TIP3    H220803   5.226   6.117   3.650  0.2858 -1.1069  3.0750
 6948TIP3   OH220804   7.283   3.322   3.456  0.2202 -0.3393  0.2873
 6948TIP3    H120805   7.218   3.392   3.449  0.4010  0.1749  2.7327
 6948TIP3    H220806   7.297   3.311   3.550  3.3393 -0.7476 -0.0938
 6949TIP3   OH220807   2.809   7.100   5.289  0.2022  0.0498 -0.4107
 6949TIP3    H120808   2.899   7.129   5.297  0.2585 -0.2418  0.0198
 6949TIP3    H220809   2.798   7.034   5.357 -0.8023  1.2043  0.5952
 6950TIP3   OH220810   4.490   1.730   2.823 -0.1797  0.1431  0.2489
 6950TIP3    H120811   4.530   1.643   2.824 -1.5312 -0.5695 -1.6576
 6950TIP3    H220812   4.556   1.788   2.861  1.3841 -1.4707  0.0989
 6951TIP3   OH220813   2.513   2.754   3.726 -0.0145  0.3593 -0.5814
 6951TIP3    H120814   2.471   2.811   3.791  0.4192  0.0826 -0.0487
 6951TIP3    H220815   2.536   2.812   3.654 -0.8648  0.6016 -0.6713
 6952TIP3   OH220816   7.173   6.100   2.680 -0.2117 -0.3904  0.5289
 6952TIP3    H120817   7.174   6.135   2.769 -1.6673 -0.3799  0.5651
 6952TIP3    H220818   7.251   6.045   2.675  0.4432  0.4033  1.4744
 6953TIP3   OH220819   7.165   7.182   2.917 -0.1868 -0.2778 -0.2492
 6953TIP3    H120820   7.209   7.202   2.834 -0.5100  0.1748 -0.3174
 6953TIP3    H220821   7.202   7.098   2.944  0.7058  0.0789 -0.3174
 6954TIP3   OH220822   5.178   4.761   4.839  0.3559  0.2293 -0.2476
 6954TIP3    H120823   5.217   4.691   4.890  1.8907  0.7025 -0.7172
 6954TIP3    H220824   5.217   4.841   4.874  0.4240  0.6623 -1.2739
 6955TIP3   OH220825   7.044   3.580   1.268 -0.5322 -0.8329  0.1186
 6955TIP3    H120826   7.097   3.618   1.338 -0.7526 -0.3346  0.0192
 6955TIP3    H220827   7.094   3.598   1.188 -0.8222 -0.4117  0.0308
 6956TIP3   OH220828   5.246   3.119   1.164  0.1607 -0.4456  0.3755
 6956TIP3    H120829   5.215   3.056   1.228 -0.0986  1.1227  1.8798
 6956TIP3    H220830   5.223   3.082   1.079 -0.7440 -1.9361  1.2459
 6957TIP3   OH220831   2.245   3.195   2.404 -0.0429 -0.6205 -0.2174
 6957TIP3    H120832   2.151   3.208   2.412  0.0062 -0.7079  0.6438
 6957TIP3    H220833   2.281   3.233   2.484  0.3898 -3.3179  0.9836
 6958TIP3   OH220834   1.506   1.962   6.064 -0.4453 -0.0926 -0.0163
 6958TIP3    H120835   1.440   2.031   6.061  0.2333  0.6240  0.7923
 6958TIP3    H220836   1.560   1.984   6.140  2.2850  0.8419 -2.0430
 6959TIP3   OH220837   6.461   6.658   2.960  0.6151 -0.2600 -0.0891
 6959TIP3    H120838   6.498   6.591   2.902  2.5005  0.8596 -0.2708
 6959TIP3    H220839   6.488   6.741   2.921 -1.5181  0.6364  0.2303
 6960TIP3   OH220840   4.406   2.007   2.057  0.2371  0.3680 -0.6299
 6960TIP3    H120841   4.467   2.013   2.131  1.3727  0.3310 -1.5364
 6960TIP3    H220842   4.392   1.913   2.046  0.5366  0.3457 -0.8297
 6961TIP3   OH220843   5.091   1.108   1.837  0.7012 -0.1890 -0.0017
 6961TIP3    H120844   5.006   1.150   1.849  1.7384  2.0819 -0.1255
 6961TIP3    H220845   5.098   1.096   1.742  0.5912 -0.2415 -0.0037
 6962TIP3   OH220846   3.212   5.803   3.549  0.0926  0.0616  0.2206
 6962TIP3    H120847   3.276   5.873   3.565  1.1733 -0.6578 -0.8390
 6962TIP3    H220848   3.128   5.841   3.578  0.8328  1.3505  0.7831
 6963TIP3   OH220849   3.285   6.211   5.832 -0.0843 -0.4752  0.1637
 6963TIP3    H120850   3.321   6.210   5.921  1.5977  0.9694 -0.4463
 6963TIP3    H220851   3.346   6.158   5.781  1.7702  2.5529 -1.0250
 6964TIP3   OH220852   6.622   2.673   4.002  0.5896  0.3565  0.4352
 6964TIP3    H120853   6.539   2.660   3.957  0.4895  2.0920  0.0316
 6964TIP3    H220854   6.675   2.722   3.939  1.1947  1.0105  1.4225
 6965TIP3   OH220855   5.559   2.308   5.304  0.3567  0.3510  0.7177
 6965TIP3    H120856   5.573   2.277   5.393  1.0151  0.4855  0.6599
 6965TIP3    H220857   5.545   2.228   5.252  1.8511  0.1422  0.6028
 6966TIP3   OH220858   3.192   4.295   4.567  0.4730  0.4418  0.1839
 6966TIP3    H120859   3.110   4.339   4.587  0.9083  1.3761 -0.0228
 6966TIP3    H220860   3.188   4.213   4.616 -1.2582 -0.2813 -1.0694
 6967TIP3   OH220861   5.382   5.283   4.831 -0.2015 -0.1571 -0.2183
 6967TIP3    H120862   5.364   5.376   4.834 -1.4608 -0.3021 -1.6476
 6967TIP3    H220863   5.462   5.276   4.778 -0.7104  0.0650 -1.0289
 6968TIP3   OH220864   5.735   7.074   4.201 -0.2980  0.4279 -0.2264
 6968TIP3    H120865   5.802   7.136   4.174  0.3417  0.1296  0.6241
 6968TIP3    H220866   5.667   7.127   4.243  0.2824  0.5566  0.5682
 6969TIP3   OH220867   7.009   0.062   5.808  0.0358  0.3725 -0.2008
 6969TIP3    H120868   6.986   0.107   5.727 -1.2910  0.4895  0.2141
 6969TIP3    H220869   7.013   0.131   5.874  0.0120  0.1465  0.0396
 6970TIP3   OH220870   0.712   6.396   4.084 -0.0904 -0.0788  0.3238
 6970TIP3    H120871   0.647   6.457   4.120  0.4885  1.7191 -1.4752
 6970TIP3    H220872   0.659   6.322   4.052 -1.3675  1.5095 -1.4419
 6971TIP3   OH220873   5.317   1.963   5.630  0.0903 -0.1910  0.0728
 6971TIP3    H120874   5.273   1.907   5.694  0.3866 -0.9423 -0.3685
 6971TIP3    H220875   5.362   2.028   5.683 -1.7551  0.7847  0.5326
 6972TIP3   OH220876   7.000   3.633   0.130 -0.4390 -0.1351 -0.3147
 6972TIP3    H120877   7.019   3.726   0.145 -1.3032 -0.2772  1.9812
 6972TIP3    H220878   7.050   3.612   0.051  0.8601  1.9432 -0.1468
 6973TIP3   OH220879   2.755   0.365   2.452  0.0959  0.6508 -0.5293
 6973TIP3    H120880   2.724   0.437   2.397 -0.8891  0.2387 -0.5282
 6973TIP3    H220881   2.678   0.311   2.467  1.3684 -2.1894 -3.1335
 6974TIP3   OH220882   3.320   4.947   1.240 -0.0986  0.5368  0.7809
 6974TIP3    H120883   3.286   5.005   1.172 -0.2351  1.3827  1.5394
 6974TIP3    H220884   3.413   4.971   1.247 -0.1193  0.5635  0.9838
 6975TIP3   OH220885   5.048   4.108   5.608 -0.6162  0.2763  0.4474
 6975TIP3    H120886   5.008   4.023   5.627 -0.3948 -0.4026 -1.8321
 6975TIP3    H220887   4.977   4.160   5.569 -0.4400  0.7208  0.7053
 6976TIP3   OH220888   2.594   2.070   0.644  0.0876 -0.1048 -0.2031
 6976TIP3    H120889   2.511   2.030   0.619 -0.1021 -0.2979  0.6994
 6976TIP3    H220890   2.652   2.054   0.569 -0.4870 -0.5675 -0.5547
 6977TIP3   OH220891   0.617   6.833   1.359 -0.0179  0.1824  0.3331
 6977TIP3    H120892   0.617   6.820   1.264 -0.2285 -0.7701  0.4546
 6977TIP3    H220893   0.675   6.908   1.373  0.4133  0.0189 -0.5109
 6978TIP3   OH220894   3.787   6.679   2.981  0.3269 -0.4341 -0.6984
 6978TIP3    H120895   3.755   6.687   2.891  0.7932 -0.6405 -0.8887
 6978TIP3    H220896   3.811   6.586   2.989  0.6376 -0.3344 -0.4795
 6979TIP3   OH220897   4.919   5.583   3.938  0.0039  0.0713 -0.1125
 6979TIP3    H120898   4.961   5.502   3.968  0.0042  0.5057  1.0746
 6979TIP3    H220899   4.951   5.594   3.848 -0.6515 -1.6861 -0.6156
 6980TIP3   OH220900   1.414   2.788   3.593 -1.0311  0.0451 -0.4578
 6980TIP3    H120901   1.438   2.731   3.520  0.4459 -0.0634  0.0958
 6980TIP3    H220902   1.495   2.832   3.618 -1.6554  0.6068  0.6773
 6981TIP3   OH220903   5.770   6.806   4.095  0.1775 -0.5997  0.0529
 6981TIP3    H120904   5.744   6.730   4.148 -1.0784  0.3876  0.9100
 6981TIP3    H220905   5.740   6.882   4.145  0.2435  0.4257 -1.3938
 6982TIP3   OH220906   0.225   4.746   5.497 -0.4092 -0.2115 -0.3743
 6982TIP3    H120907   0.131   4.736   5.511 -0.2632  0.6162  1.5961
 6982TIP3    H220908   0.259   4.777   5.582  1.2932  1.7209 -1.6369
 6983TIP3   OH220909   5.666   3.001   5.305 -0.5613  0.8626  0.1763
 6983TIP3    H120910   5.683   2.993   5.399  0.8016 -0.6771 -0.1400
 6983TIP3    H220911   5.629   2.916   5.280 -1.3348  1.4161 -0.6097
 6984TIP3   OH220912   3.728   5.987   3.396  0.1639 -0.1207  0.1754
 6984TIP3    H120913   3.697   5.944   3.476  0.2723  0.4763  0.5452
 6984TIP3    H220914   3.801   6.042   3.425  1.8674 -1.7651 -0.7178
 6985TIP3   OH220915   2.153   4.078   5.011 -0.4255 -0.0524  0.1162
 6985TIP3    H120916   2.183   4.002   5.062  0.6899 -0.4300 -1.0512
 6985TIP3    H220917   2.226   4.139   5.012 -0.8112  0.4234 -0.1050
 6986TIP3   OH220918   2.447   6.180   3.771 -0.6337  0.4496 -0.3426
 6986TIP3    H120919   2.359   6.143   3.779 -0.3125 -0.3163 -0.2787
 6986TIP3    H220920   2.501   6.126   3.828 -0.1218  0.9236 -0.3749
 6987TIP3   OH220921   3.837   2.554   4.950 -0.0280  0.3265  0.0189
 6987TIP3    H120922   3.825   2.646   4.926 -2.0323  0.4130  1.0477
 6987TIP3    H220923   3.878   2.514   4.874 -2.2100  1.3957 -1.8509
 6988TIP3   OH220924   5.308   6.117   6.013 -0.3271 -0.4041 -0.2822
 6988TIP3    H120925   5.353   6.089   6.093  0.3239  0.3726 -0.3637
 6988TIP3    H220926   5.286   6.035   5.968  0.3529 -0.8254  0.1205
 6989TIP3   OH220927   1.487   2.386   4.112  0.3183 -0.0372  0.1718
 6989TIP3    H120928   1.401   2.418   4.138 -0.3591  0.0699 -2.0193
 6989TIP3    H220929   1.518   2.336   4.188 -0.8327  1.4747  1.7019
 6990TIP3   OH220930   0.136   0.049   2.388  0.0953 -0.5124 -0.3333
 6990TIP3    H120931   0.158  -0.044   2.388 -1.3095 -0.8878 -1.6705
 6990TIP3    H220932   0.117   0.069   2.297  0.5470  1.1468 -0.0834
 6991TIP3   OH220933   5.401   3.854   3.449 -0.1840 -0.2207 -0.1364
 6991TIP3    H120934   5.454   3.809   3.515 -0.2175 -1.2999 -0.8163
 6991TIP3    H220935   5.311   3.824   3.466 -0.4764  0.9986  0.5280
 6992TIP3   OH220936   6.862   0.469   4.020 -0.1740 -0.2259 -0.2113
 6992TIP3    H120937   6.947   0.476   3.977 -0.1551 -1.5804 -0.4461
 6992TIP3    H220938   6.846   0.556   4.057  1.2491  0.0823 -0.2666
 6993TIP3   OH220939   1.041   1.618   5.182 -0.3531  0.2821  0.4074
 6993TIP3    H120940   1.126   1.653   5.154  0.5462 -1.6041  0.6642
 6993TIP3    H220941   1.062   1.557   5.252 -2.0338  0.4841  1.1236
 6994TIP3   OH220942   6.540   6.139   2.023  0.0815 -0.3174 -0.3048
 6994TIP3    H120943   6.470   6.074   2.015 -1.3796  1.2788 -1.2075
 6994TIP3    H220944   6.621   6.087   2.022 -0.9350 -2.0295 -2.5097
 6995TIP3   OH220945   3.411   6.366   4.982  0.5387  0.2357  0.7175
 6995TIP3    H120946   3.424   6.306   5.055  0.0249 -0.2919  0.3796
 6995TIP3    H220947   3.326   6.342   4.946  1.9281 -1.4000 -1.7725
 6996TIP3   OH220948   0.643   3.147   0.011 -0.1956  0.1794 -0.3958
 6996TIP3    H120949   0.710   3.142   0.079  0.0999 -4.6842 -0.6554
 6996TIP3    H220950   0.693   3.153  -0.071  0.0418 -2.2899 -0.5159
 6997TIP3   OH220951   3.414   3.959   0.135 -0.4096 -0.2531  0.7355
 6997TIP3    H120952   3.412   3.927   0.225 -0.1604 -1.4087  0.3433
 6997TIP3    H220953   3.322   3.974   0.113 -0.6974 -2.2969  0.3942
 6998TIP3   OH220954   4.584   2.672   3.050  0.2006 -0.1546 -0.5411
 6998TIP3    H120955   4.637   2.751   3.039  0.9256 -0.6712 -0.8136
 6998TIP3    H220956   4.506   2.687   2.996 -0.0952  0.7437  0.1185
 6999TIP3   OH220957   5.980   0.432   5.016 -0.1559  0.0140 -0.0056
 6999TIP3    H120958   6.049   0.396   5.072 -0.4273 -0.5354 -0.0189
 6999TIP3    H220959   6.016   0.426   4.927  0.9251  2.3421  0.2026
 7000TIP3   OH220960   0.745   0.595   5.813 -1.0349  0.1387  0.6614
 7000TIP3    H120961   0.718   0.678   5.853 -2.0115  0.6633 -0.9925
 7000TIP3    H220962   0.722   0.528   5.878 -0.1736  1.1442  2.0462
 7001TIP3   OH220963   2.273   5.080   1.619 -0.3401 -0.1255  0.0519
 7001TIP3    H120964   2.221   5.015   1.667  0.8207 -0.0892  1.4237
 7001TIP3    H220965   2.224   5.162   1.629 -0.0065 -0.0672  1.4374
 7002TIP3   OH220966   7.417   4.540   3.633  0.5210 -0.2401 -0.1790
 7002TIP3    H120967   7.424   4.626   3.675 -0.3754 -0.5361  0.5976
 7002TIP3    H220968   7.506   4.523   3.600  0.5379  1.3473 -1.1065
 7003TIP3   OH220969   3.905   4.882   2.759  0.3590 -0.0013  0.2244
 7003TIP3    H120970   3.832   4.929   2.798  1.0290 -0.1671  1.7572
 7003TIP3    H220971   3.907   4.798   2.805 -0.0887 -1.0904 -1.6382
 7004TIP3   OH220972   4.666   1.995   3.924 -0.4134  0.5233 -0.0827
 7004TIP3    H120973   4.700   1.906   3.917 -1.9024 -0.2218  1.4309
 7004TIP3    H220974   4.677   2.032   3.837 -0.1724 -1.2831 -0.8611
 7005TIP3   OH220975   3.179   1.936   0.266 -0.9253 -0.1168  0.7675
 7005TIP3    H120976   3.091   1.906   0.243 -0.1012 -1.4873 -0.8625
 7005TIP3    H220977   3.236   1.862   0.243  0.4145 -0.6182  4.8228
 7006TIP3   OH220978   1.466   1.246   2.348 -0.1637 -0.3804 -0.0199
 7006TIP3    H120979   1.390   1.252   2.406  0.9331  1.9697  1.3147
 7006TIP3    H220980   1.433   1.275   2.262 -0.6933  1.2685  0.6944
 7007TIP3   OH220981   2.775   2.166   1.832  0.4772  0.4890  0.2338
 7007TIP3    H120982   2.708   2.117   1.784  0.7059  1.8605 -1.6092
 7007TIP3    H220983   2.855   2.154   1.781  0.6513  2.2737  0.0106
 7008TIP3   OH220984   5.959   7.006   1.901  0.5573  0.2874  0.3029
 7008TIP3    H120985   6.029   7.001   1.836  0.6404 -0.1653  0.4280
 7008TIP3    H220986   5.953   6.918   1.938 -0.1395  0.3001  0.2303
 7009TIP3   OH220987   6.329   0.786   1.647  0.0963  0.4349 -0.0918
 7009TIP3    H120988   6.253   0.827   1.607 -0.8867 -2.7287 -1.7886
 7009TIP3    H220989   6.389   0.770   1.575  1.0840  0.2033  0.7562
 7010TIP3   OH220990   0.960   2.927   2.900  0.4711 -0.2731  0.0407
 7010TIP3    H120991   0.917   3.011   2.882 -1.1325 -1.0367  0.1417
 7010TIP3    H220992   0.954   2.917   2.995  0.7050 -0.4817  0.0336
 7011TIP3   OH220993   5.644   4.395   2.650 -0.1312  0.0739 -0.2412
 7011TIP3    H120994   5.712   4.366   2.589  0.8308  2.3965 -0.3821
 7011TIP3    H220995   5.571   4.336   2.634  1.6397 -2.1658 -0.4871
 7012TIP3   OH220996   7.356   3.643   2.999 -0.1712 -0.3574  0.0793
 7012TIP3    H120997   7.362   3.715   2.936  0.4716 -0.8399 -0.4345
 7012TIP3    H220998   7.377   3.683   3.083  1.3636 -0.1425 -0.3650
 7013TIP3   OH220999   4.969   5.359   4.452 -0.1091  0.3273  0.5310
 7013TIP3    H121000   4.915   5.418   4.399  0.3644  0.0092 -0.3293
 7013TIP3    H221001   4.927   5.274   4.443  0.7630 -0.0141 -0.5114
 7014TIP3   OH221002   5.274   1.638   4.610  0.1577 -0.3548  0.6404
 7014TIP3    H121003   5.308   1.647   4.698  0.9579  0.3956  0.2591
 7014TIP3    H221004   5.338   1.583   4.565  2.0579  2.6657 -0.6509
 7015TIP3   OH221005   2.870   4.052   4.143  0.0093 -0.1938  0.1149
 7015TIP3    H121006   2.893   4.059   4.235  2.0085 -0.0819 -0.3482
 7015TIP3    H221007   2.924   3.980   4.111 -1.4032 -0.9102 -0.7736
 7016TIP3   OH221008   7.093   2.356   0.181  0.4427  0.0400  0.0322
 7016TIP3    H121009   7.063   2.366   0.272 -0.1051 -1.7903  0.0825
 7016TIP3    H221010   7.021   2.312   0.137  0.9464  0.3949 -1.1734
 7017TIP3   OH221011   3.830   2.728   2.760 -0.6290 -0.1204 -0.1325
 7017TIP3    H121012   3.871   2.803   2.804 -1.8810  0.0332  0.8357
 7017TIP3    H221013   3.835   2.657   2.824 -0.2230 -0.6302 -0.7167
 7018TIP3   OH221014   1.809   6.935   4.546  0.2434 -0.0781 -0.2225
 7018TIP3    H121015   1.890   6.985   4.550  0.0868  0.1032  1.6827
 7018TIP3    H221016   1.742   6.996   4.576 -0.5033 -0.4303 -1.1363
 7019TIP3   OH221017   2.976   6.123   5.092 -0.2875 -0.4038  0.4345
 7019TIP3    H121018   2.940   6.035   5.079 -0.4809 -0.1991 -0.4866
 7019TIP3    H221019   2.923   6.179   5.037  1.6675 -0.1615 -1.3406
 7020TIP3   OH221020   4.150   5.323   5.241 -0.1357  0.5922  0.0681
 7020TIP3    H121021   4.233   5.348   5.281  0.3352  0.6247 -0.8942
 7020TIP3    H221022   4.150   5.227   5.244 -0.2990  0.6053  0.5249
 7021TIP3   OH221023   0.109   2.052   0.636 -0.3551  0.0037 -0.5979
 7021TIP3    H121024   0.077   2.015   0.554  1.2452  0.4165 -1.4488
 7021TIP3    H221025   0.205   2.049   0.628 -0.1767  0.9518  0.8334
 7022TIP3   OH221026   4.737   2.135   1.537  0.6010  0.2903  0.0441
 7022TIP3    H121027   4.686   2.182   1.603  1.9656  0.7516  0.8114
 7022TIP3    H221028   4.731   2.043   1.564  0.3039  0.3519  0.2014
 7023TIP3   OH221029   1.602   1.260   5.521 -0.0721 -0.7405  0.7381
 7023TIP3    H121030   1.575   1.170   5.537 -0.9215 -0.7746 -0.7421
 7023TIP3    H221031   1.521   1.309   5.514  0.3508 -0.0916  0.2844
 7024TIP3   OH221032   5.514   6.449   5.736 -0.2326  0.7140 -0.4594
 7024TIP3    H121033   5.447   6.453   5.804 -1.0527  0.3313 -1.2179
 7024TIP3    H221034   5.560   6.366   5.753  0.3062  1.1604  0.2875
 7025TIP3   OH221035   3.154   5.847   2.749 -0.1589 -0.1953  0.1599
 7025TIP3    H121036   3.171   5.863   2.842  0.4889  0.2983 -0.0380
 7025TIP3    H221037   3.075   5.898   2.730  0.1989  0.3901  0.2388
 7026TIP3   OH221038   2.516   1.904   5.715  0.2972 -0.3907 -0.1962
 7026TIP3    H121039   2.560   1.984   5.685 -0.3548 -0.5518 -1.6779
 7026TIP3    H221040   2.580   1.835   5.700  0.5477 -0.2705  0.2873
 7027TIP3   OH221041   3.437   2.748   2.771 -0.7124 -0.7172 -0.2975
 7027TIP3    H121042   3.481   2.672   2.733  1.4216  0.4943 -0.4640
 7027TIP3    H221043   3.464   2.746   2.863 -1.9912 -1.0389  0.0842
 7028TIP3   OH221044   5.935   5.148   0.735 -0.1228  0.8423 -0.3846
 7028TIP3    H121045   5.859   5.171   0.680 -0.1082  1.8979  0.0135
 7028TIP3    H221046   5.958   5.230   0.778 -1.4129 -0.3244  2.8303
 7029TIP3   OH221047   4.595   4.790   4.165 -1.0061  0.1678 -0.5932
 7029TIP3    H121048   4.670   4.844   4.141  0.4777 -0.9861  1.2259
 7029TIP3    H221049   4.581   4.808   4.258 -2.2207 -0.5656 -0.6106
 7030TIP3   OH221050   1.519   7.135   2.109  0.1775  0.4052  0.0232
 7030TIP3    H121051   1.436   7.100   2.139 -0.0059  0.8368  0.0295
 7030TIP3    H221052   1.519   7.120   2.015  0.8069 -1.0620  0.2365
 7031TIP3   OH221053   2.016   0.258   5.174  0.0809  0.3321 -0.0904
 7031TIP3    H121054   2.080   0.326   5.194 -0.9025  0.9296  1.2331
 7031TIP3    H221055   1.936   0.306   5.154 -0.2131 -0.4134 -0.7436
 7032TIP3   OH221056   1.383   4.696   1.299 -0.4142  0.3623 -0.1693
 7032TIP3    H121057   1.313   4.750   1.264 -0.1468  1.8702  1.4597
 7032TIP3    H221058   1.458   4.755   1.306  0.6531 -0.8880 -0.6638
 7033TIP3   OH221059   5.598   1.667   0.136  0.1593 -0.1430  0.0472
 7033TIP3    H121060   5.538   1.709   0.198  1.9309  1.1557  0.9731
 7033TIP3    H221061   5.590   1.719   0.056  0.4214  0.3316  0.3295
 7034TIP3   OH221062   1.578   4.493   2.906  0.1937 -0.4743  0.0266
 7034TIP3    H121063   1.628   4.514   2.985  0.7047 -0.3182 -0.3347
 7034TIP3    H221064   1.559   4.579   2.867 -1.5320 -0.4392  0.8680
 7035TIP3   OH221065   4.501   3.639   1.019 -0.0557  0.4118 -0.4627
 7035TIP3    H121066   4.523   3.696   1.092 -0.4795  1.3401 -1.0452
 7035TIP3    H221067   4.585   3.601   0.992  0.2348  0.8000 -0.1031
 7036TIP3   OH221068   4.183   0.311   3.505  0.4732 -0.8970  0.5482
 7036TIP3    H121069   4.266   0.354   3.526  0.6268 -0.5998 -0.5981
 7036TIP3    H221070   4.189   0.225   3.547  0.7232 -0.3171  1.7308
 7037TIP3   OH221071   1.153   1.919   0.686 -0.4585  0.0733  0.1569
 7037TIP3    H121072   1.216   1.859   0.726  0.9303  3.0301  2.8434
 7037TIP3    H221073   1.204   1.965   0.619 -0.0159  1.6141  1.4982
 7038TIP3   OH221074   0.184   5.313   4.400 -0.8133 -0.1188 -0.5249
 7038TIP3    H121075   0.254   5.255   4.369 -0.8966 -0.2236 -0.5196
 7038TIP3    H221076   0.121   5.315   4.328 -0.8782 -0.1476 -0.4690
 7039TIP3   OH221077   0.149   1.771   3.926 -0.0940  0.3639 -0.3038
 7039TIP3    H121078   0.169   1.828   3.851 -1.7420  0.2669 -0.8570
 7039TIP3    H221079   0.169   1.824   4.003  1.0795  0.6701 -0.8019
 7040TIP3   OH221080   7.253   5.578   4.166 -0.0591  0.1837  0.1696
 7040TIP3    H121081   7.313   5.515   4.126 -1.0252  0.2257 -1.4764
 7040TIP3    H221082   7.207   5.616   4.091 -1.5078  0.7792  1.3280
 7041TIP3   OH221083   2.100   6.520   2.372  0.0002 -0.4426 -0.0338
 7041TIP3    H121084   2.046   6.514   2.451  0.5151 -0.4653  0.3227
 7041TIP3    H221085   2.165   6.587   2.393  0.2703 -0.5987 -0.3645
 7042TIP3   OH221086   5.008   2.046   1.514 -0.0308  0.1503  0.0334
 7042TIP3    H121087   5.032   2.084   1.598  1.7855  0.0038 -0.3821
 7042TIP3    H221088   4.931   2.095   1.486  1.4587  2.6757  0.1316
 7043TIP3   OH221089   1.320   0.324   2.411  0.2761  0.3050  0.5936
 7043TIP3    H121090   1.334   0.398   2.352  0.8572  0.5864  1.0595
 7043TIP3    H221091   1.409   0.296   2.435  0.0633  0.7008  1.9356
 7044TIP3   OH221092   2.082   4.082   4.071  0.4006  0.4426  0.2205
 7044TIP3    H121093   2.085   4.074   4.167 -0.4775 -0.9454  0.1575
 7044TIP3    H221094   2.153   4.026   4.040 -0.7041 -0.9055  0.0195
 7045TIP3   OH221095   3.079   5.940   4.734 -0.0867 -0.3034 -0.1650
 7045TIP3    H121096   3.025   5.874   4.691  0.4796 -1.0711  0.2477
 7045TIP3    H221097   3.157   5.891   4.763  0.7650  0.7317 -0.6251
 7046TIP3   OH221098   5.056   1.943   5.542  0.0336 -0.1875 -0.5684
 7046TIP3    H121099   5.140   1.986   5.554  0.2546 -0.7325 -0.0970
 7046TIP3    H221100   4.991   2.010   5.564  0.2949  0.6132 -2.1427
 7047TIP3   OH221101   3.507   5.385   3.156  0.0960  0.0174  0.2334
 7047TIP3    H121102   3.422   5.348   3.178  0.8243 -3.5554 -2.1274
 7047TIP3    H221103   3.504   5.397   3.061  2.2258 -0.3243  0.0751
 7048TIP3   OH221104   1.314   0.506   1.616  0.1252 -0.1315 -0.5456
 7048TIP3    H121105   1.380   0.538   1.677  0.1347 -0.3519 -0.4359
 7048TIP3    H221106   1.363   0.447   1.557 -0.0933 -0.8470 -0.0289
 7049TIP3   OH221107   2.278   2.260   5.350 -0.4879  0.0832  0.1331
 7049TIP3    H121108   2.197   2.239   5.396  0.1385  0.2424  1.3309
 7049TIP3    H221109   2.334   2.302   5.415  0.3210  0.5872 -0.8436
 7050TIP3   OH221110   5.686   6.871   4.546 -0.1000 -0.4566 -0.2533
 7050TIP3    H121111   5.736   6.935   4.596 -2.3463  0.9743  0.3405
 7050TIP3    H221112   5.752   6.821   4.497  1.9191  0.4870  1.3577
 7051TIP3   OH221113   2.175   3.729   0.181 -0.3113 -0.2019 -0.1404
 7051TIP3    H121114   2.097   3.783   0.169 -0.0809  0.2071  0.1837
 7051TIP3    H221115   2.203   3.707   0.093  0.0706  0.9033 -0.3131
 7052TIP3   OH221116   5.397   5.268   6.126  0.3606  0.0615 -0.7028
 7052TIP3    H121117   5.406   5.196   6.188  0.9932 -0.9401 -1.9317
 7052TIP3    H221118   5.333   5.237   6.061 -0.2528  1.0757 -0.6180
 7053TIP3   OH221119   1.122   6.520   4.541  0.2093  0.4118  0.0321
 7053TIP3    H121120   1.066   6.583   4.495  1.3572  1.0730 -0.4865
 7053TIP3    H221121   1.211   6.545   4.517  0.6857 -2.1234 -1.1460
 7054TIP3   OH221122   7.354   3.104   0.727 -0.0278  0.2400  0.1120
 7054TIP3    H121123   7.325   3.038   0.664  0.6057  0.3483 -0.2987
 7054TIP3    H221124   7.416   3.158   0.679  0.4169  0.3669  0.8083
 7055TIP3   OH221125   5.493   2.611   0.606 -0.0409 -0.1976  0.4956
 7055TIP3    H121126   5.526   2.588   0.693 -0.4706  2.0642  1.3271
 7055TIP3    H221127   5.572   2.622   0.553  0.2738 -0.6210  0.8649
 7056TIP3   OH221128   6.607   7.133   5.954  0.6168  0.3274 -0.1754
 7056TIP3    H121129   6.682   7.183   5.921  1.3232 -0.6919 -0.1612
 7056TIP3    H221130   6.585   7.073   5.884  1.5091 -1.1812  0.7763
 7057TIP3   OH221131   4.907   3.856   2.312 -0.0931 -0.5466 -0.0158
 7057TIP3    H121132   4.859   3.773   2.306 -2.2706  0.5120  1.2474
 7057TIP3    H221133   4.931   3.863   2.404 -2.6781  1.5442  0.6159
 7058TIP3   OH221134   1.802   7.036   1.879 -0.1642 -0.1123 -0.3521
 7058TIP3    H121135   1.731   6.972   1.882 -0.0493 -0.2188  0.2860
 7058TIP3    H221136   1.759   7.120   1.897  0.0166 -0.3170  1.1697
 7059TIP3   OH221137   0.466   0.049   4.981 -0.2805 -0.0346  0.2217
 7059TIP3    H121138   0.553   0.086   4.967 -0.2423  0.0943  0.7691
 7059TIP3    H221139   0.482  -0.042   5.005 -0.2689  0.0718  0.6412
 7060TIP3   OH221140   6.802   2.864   6.023 -0.1325 -0.2993  0.0540
 7060TIP3    H121141   6.735   2.921   5.985 -1.4472 -1.5528  0.4031
 7060TIP3    H221142   6.824   2.905   6.106 -0.3558  0.2246 -0.1415
 7061TIP3   OH221143   4.001   4.568   6.232 -0.0586 -0.9692  0.0784
 7061TIP3    H121144   3.913   4.604   6.219 -0.5755 -1.3144  2.2949
 7061TIP3    H221145   4.027   4.537   6.145 -1.8047 -0.1701 -0.7789
 7062TIP3   OH221146   3.647   3.245   0.471 -0.0616 -0.5006  0.1501
 7062TIP3    H121147   3.703   3.190   0.526  1.0488 -0.2761 -0.7365
 7062TIP3    H221148   3.680   3.334   0.484  0.6416 -0.5161 -1.3444
 7063TIP3   OH221149   7.221   4.695   1.155  0.1165  0.0865  0.3283
 7063TIP3    H121150   7.155   4.632   1.184  0.7570 -1.3208 -1.1431
 7063TIP3    H221151   7.173   4.778   1.150 -0.8959 -0.3711  1.7111
 7064TIP3   OH221152   1.809   2.742   2.908  0.1507  0.7174  0.2849
 7064TIP3    H121153   1.759   2.671   2.948 -2.6190  2.9519  1.0844
 7064TIP3    H221154   1.881   2.758   2.970 -2.0791  1.8164  2.7920
 7065TIP3   OH221155   3.020   3.178   0.430  0.1036  0.0944 -0.4111
 7065TIP3    H121156   2.931   3.212   0.435  0.3686  0.9003 -1.0414
 7065TIP3    H221157   3.015   3.105   0.368 -0.2767 -0.4374  0.2258
 7066TIP3   OH221158   5.314   2.090   0.638  0.0089  0.0968 -0.4436
 7066TIP3    H121159   5.378   2.155   0.668  0.2501 -0.3790  0.0882
 7066TIP3    H221160   5.230   2.125   0.668  0.2923 -0.6139  1.2793
 7067TIP3   OH221161   1.754   5.651   4.219  0.2518 -0.2993  0.0139
 7067TIP3    H121162   1.804   5.605   4.151  1.2268 -0.7228  0.9863
 7067TIP3    H221163   1.685   5.589   4.244 -0.0946 -0.1517 -0.5581
 7068TIP3   OH221164   5.342   3.119   4.191 -0.2020 -0.6016 -0.4869
 7068TIP3    H121165   5.436   3.103   4.195 -0.1436 -0.1191  0.4163
 7068TIP3    H221166   5.302   3.031   4.195  0.1986 -0.7934 -0.6814
 7069TIP3   OH221167   7.296   2.628   0.388  0.5837 -0.0176  0.8251
 7069TIP3    H121168   7.248   2.546   0.381  0.5140  0.1287 -1.1287
 7069TIP3    H221169   7.371   2.608   0.445  0.4489 -1.3774  0.5552
 7070TIP3   OH221170   2.559   2.765   2.217  0.2010 -0.2385 -0.4385
 7070TIP3    H121171   2.481   2.717   2.191 -0.0309 -1.2580  1.8694
 7070TIP3    H221172   2.528   2.853   2.239  0.3154  0.4569 -2.7645
 7071TIP3   OH221173   1.958   6.016   4.844  0.4537 -0.6371  0.1969
 7071TIP3    H121174   1.881   6.055   4.885  0.6388 -2.1031  2.1172
 7071TIP3    H221175   2.026   6.083   4.850 -0.1195 -0.0651  0.3644
 7072TIP3   OH221176   0.404   0.397   6.171 -0.0664  0.0459  0.3776
 7072TIP3    H121177   0.486   0.378   6.126  0.1743 -0.0752  0.8562
 7072TIP3    H221178   0.346   0.429   6.103  0.2758 -0.1774 -0.0257
 7073TIP3   OH221179   7.382   4.563   1.558  0.3952 -0.0684  0.0695
 7073TIP3    H121180   7.300   4.605   1.533  0.6191  1.0841  1.1753
 7073TIP3    H221181   7.407   4.606   1.640  1.7033 -0.9441  0.1597
 7074TIP3   OH221182   4.191   6.307   5.275 -0.3209  0.4539 -0.6101
 7074TIP3    H121183   4.249   6.287   5.349  0.9606  1.5778 -1.2736
 7074TIP3    H221184   4.128   6.235   5.275  1.0141 -0.7765  0.2036
 7075TIP3   OH221185   7.191   5.210   0.261  0.6754 -0.0010  0.0448
 7075TIP3    H121186   7.110   5.177   0.221  0.5316  0.7775 -0.3245
 7075TIP3    H221187   7.175   5.303   0.275  0.5573 -0.3145  2.3673
 7076TIP3   OH221188   2.639   0.564   1.201  0.6818 -0.1495  0.0975
 7076TIP3    H121189   2.624   0.471   1.215 -1.4130  0.1068 -0.0286
 7076TIP3    H221190   2.660   0.599   1.287  1.3033 -0.7146  0.1717
 7077TIP3   OH221191   1.233   1.256   5.114 -0.1684  0.4860  0.3439
 7077TIP3    H121192   1.169   1.192   5.145 -2.9556  1.7802 -2.2069
 7077TIP3    H221193   1.236   1.322   5.184 -2.0838  0.6463  0.3270
 7078TIP3   OH221194   7.309   4.240   2.601  0.8782 -0.2032 -0.0768
 7078TIP3    H121195   7.394   4.198   2.619  0.4240 -0.7860  0.7973
 7078TIP3    H221196   7.318   4.328   2.636  1.4458  0.0667 -0.8716
 7079TIP3   OH221197   4.659   3.734   4.994  0.0113 -0.3004  0.2254
 7079TIP3    H121198   4.620   3.719   5.081  0.3786  2.1404  0.8918
 7079TIP3    H221199   4.603   3.685   4.934 -0.6358 -1.5390  1.7705
 7080TIP3   OH221200   1.359   2.188   1.453  0.2720 -0.4549 -0.0632
 7080TIP3    H121201   1.423   2.251   1.421 -0.7095  0.6916  0.1835
 7080TIP3    H221202   1.353   2.122   1.383  2.7641 -1.4100  0.5181
 7081TIP3   OH221203   3.726   0.360   6.215 -0.0791  0.7788 -0.3052
 7081TIP3    H121204   3.726   0.298   6.142  0.6205 -0.6223  0.8238
 7081TIP3    H221205   3.814   0.399   6.214  0.0199  0.5703 -0.0891
 7082TIP3   OH221206   4.321   2.692   4.241 -0.0888 -0.4607  0.5261
 7082TIP3    H121207   4.379   2.623   4.209  0.7574 -0.0633  1.1705
 7082TIP3    H221208   4.252   2.698   4.175  0.1673 -1.4952  0.1576
 7083TIP3   OH221209  -0.007   1.513   6.095  0.3377 -0.0261  0.2026
 7083TIP3    H121210   0.034   1.526   6.180 -0.4436  0.2615  0.5420
 7083TIP3    H221211   0.033   1.579   6.038  0.7583 -0.1274  0.3831
 7084TIP3   OH221212   0.870   3.934   2.358 -0.0024 -0.4565 -0.2381
 7084TIP3    H121213   0.898   3.989   2.285 -0.9297  0.9701  0.4375
 7084TIP3    H221214   0.802   3.985   2.402  0.6019 -1.2374  1.6849
 7085TIP3   OH221215   1.305   0.725   3.761 -0.0688  0.0218  0.1565
 7085TIP3    H121216   1.390   0.685   3.777 -0.8494 -1.7847  0.0498
 7085TIP3    H221217   1.268   0.737   3.849 -2.1831 -5.0523  0.3584
 7086TIP3   OH221218   3.835   3.065   0.586 -0.4406  0.3754  0.1134
 7086TIP3    H121219   3.797   3.005   0.650  1.2358 -0.2708  0.5509
 7086TIP3    H221220   3.929   3.065   0.605  0.1151  0.2146 -2.2812
 7087TIP3   OH221221   4.525   0.180   3.599 -0.1599  0.3127 -0.4440
 7087TIP3    H121222   4.593   0.183   3.531  0.3304  2.2310  0.0842
 7087TIP3    H221223   4.479   0.263   3.590 -0.1593  0.5681  1.4811
 7088TIP3   OH221224   0.697   2.207   4.225 -0.0529  0.5439  0.0163
 7088TIP3    H121225   0.616   2.249   4.254 -1.0276  0.1193 -1.8988
 7088TIP3    H221226   0.706   2.235   4.134 -0.2738 -2.6547 -1.0888
 7089TIP3   OH221227   5.869   1.446   0.315 -0.1154  0.3100  0.1062
 7089TIP3    H121228   5.882   1.362   0.358 -1.2337  1.2824  2.4990
 7089TIP3    H221229   5.958   1.480   0.302  0.3343 -1.0909 -0.6692
 7090TIP3   OH221230   6.209   2.890   3.885  0.5403  0.2869  0.0994
 7090TIP3    H121231   6.200   2.966   3.828 -0.4640 -0.9158 -1.4320
 7090TIP3    H221232   6.150   2.906   3.958  0.3570  0.9709 -0.1983
 7091TIP3   OH221233   4.283   4.734   5.463  0.2190  0.1922  0.5567
 7091TIP3    H121234   4.376   4.714   5.468  0.1635  0.1497  1.8105
 7091TIP3    H221235   4.264   4.740   5.370  1.1307 -1.4667  0.2222
 7092TIP3   OH221236   2.303   1.655   4.735 -0.2615 -0.1056  0.3840
 7092TIP3    H121237   2.277   1.655   4.642 -0.0079 -0.3614  0.3108
 7092TIP3    H221238   2.255   1.728   4.773 -0.3287  0.0338  0.0378
 7093TIP3   OH221239   0.447   6.391   3.789 -0.4855 -0.0342 -0.2804
 7093TIP3    H121240   0.390   6.378   3.865  0.2688 -1.7070  0.0470
 7093TIP3    H221241   0.517   6.448   3.820  0.2276 -1.3108  0.5446
 7094TIP3   OH221242   5.001   2.902   1.642  0.2000  0.5278  0.2547
 7094TIP3    H121243   4.978   2.825   1.590 -1.3919  0.2127  1.3549
 7094TIP3    H221244   4.996   2.975   1.580  0.8939 -0.1327 -0.6029
 7095TIP3   OH221245   6.961   3.357   2.279 -0.2606 -0.0809 -0.4795
 7095TIP3    H121246   7.051   3.386   2.263 -0.7959  2.2507  0.3620
 7095TIP3    H221247   6.969   3.263   2.300  2.0366  0.1988  0.1502
 7096TIP3   OH221248   2.493   1.583   5.991  0.2661 -0.1529  0.3625
 7096TIP3    H121249   2.479   1.657   6.050  3.8755 -1.3516  3.1079
 7096TIP3    H221250   2.558   1.614   5.928 -1.5086  0.2559 -1.3468
 7097TIP3   OH221251   4.992   0.156   3.169 -0.0649  0.1001 -0.2083
 7097TIP3    H121252   4.923   0.223   3.163 -0.7102 -0.6166 -1.0718
 7097TIP3    H221253   4.982   0.119   3.256 -0.0278  0.7673  0.0920
 7098TIP3   OH221254   7.563   3.884   6.118 -0.1545  0.6648  0.1694
 7098TIP3    H121255   7.557   3.937   6.038  0.4912 -0.5301 -0.6874
 7098TIP3    H221256   7.472   3.859   6.137 -0.3255  1.0587 -0.1106
 7099TIP3   OH221257   4.227   3.375   5.883  0.1331  0.3242 -0.4608
 7099TIP3    H121258   4.284   3.298   5.876  0.0057  0.3811 -2.9623
 7099TIP3    H221259   4.282   3.443   5.920  0.4238 -0.7622  1.2167
 7100TIP3   OH221260   3.030   3.812   4.279  0.3858  0.1277 -0.3628
 7100TIP3    H121261   3.033   3.838   4.187  0.4615 -1.0618 -0.7090
 7100TIP3    H221262   3.037   3.717   4.278 -1.1379 -0.0467  0.7776
 7101TIP3   OH221263   3.599   4.992   1.240  0.2781 -0.0686  0.0332
 7101TIP3    H121264   3.576   5.030   1.155 -1.9298 -1.3310 -0.0038
 7101TIP3    H221265   3.673   4.934   1.221 -0.8467 -1.1475 -1.3063
 7102TIP3   OH221266   5.914   2.664   4.862  0.0047  0.1774  0.5308
 7102TIP3    H121267   5.904   2.734   4.927  0.1447  1.2188 -0.5351
 7102TIP3    H221268   5.855   2.689   4.791  0.4737 -0.4994 -0.1092
 7103TIP3   OH221269   4.474   1.567   0.851 -0.7504 -0.3798  0.9443
 7103TIP3    H121270   4.498   1.482   0.886  1.4739  0.4017  1.4602
 7103TIP3    H221271   4.465   1.553   0.757 -0.9190 -1.2763  1.0894
 7104TIP3   OH221272   3.729   4.177   1.050 -0.4851  0.3887  0.6784
 7104TIP3    H121273   3.739   4.265   1.015 -2.2949  0.6734  0.8019
 7104TIP3    H221274   3.809   4.163   1.102  0.7794  1.1403 -0.9698
 7105TIP3   OH221275   5.284   1.279   1.912 -0.1002 -0.2724 -0.2029
 7105TIP3    H121276   5.212   1.246   1.858  1.8221 -1.4567 -2.1981
 7105TIP3    H221277   5.300   1.208   1.974 -0.6644  0.0330  0.3095
 7106TIP3   OH221278   0.441   6.048   3.825 -0.0900  0.0653 -0.2601
 7106TIP3    H121279   0.369   6.104   3.795 -1.3796 -0.9454  0.8012
 7106TIP3    H221280   0.473   6.006   3.745 -1.2109 -0.0569 -0.6679
 7107TIP3   OH221281   0.151   3.715   2.206  0.0931 -0.3272 -0.0013
 7107TIP3    H121282   0.120   3.631   2.238 -0.9538  0.5630  1.4524
 7107TIP3    H221283   0.118   3.779   2.270  2.0469  1.0450 -0.2810
 7108TIP3   OH221284   5.015   0.063   5.279 -0.4828 -0.1507 -0.1058
 7108TIP3    H121285   5.086   0.017   5.235  0.0478 -1.4750  1.9844
 7108TIP3    H221286   5.049   0.151   5.296  0.2513 -0.4410 -0.0509
 7109TIP3   OH221287   6.136   6.100   4.423 -0.4403  0.0360  0.6441
 7109TIP3    H121288   6.218   6.109   4.472 -0.6463  1.9501  0.7409
 7109TIP3    H221289   6.068   6.103   4.490 -0.6514  0.7161  0.4100
 7110TIP3   OH221290   3.556   1.240   4.758  0.1910 -0.0407 -0.7546
 7110TIP3    H121291   3.560   1.311   4.693  0.6749  1.6508  1.0482
 7110TIP3    H221292   3.464   1.239   4.786  0.5484  1.1841  0.5598
 7111TIP3   OH221293   6.620   2.834   4.886  0.1609 -0.2395 -0.4079
 7111TIP3    H121294   6.715   2.842   4.894  0.2509 -1.5674  0.2283
 7111TIP3    H221295   6.586   2.873   4.967  0.2012 -0.2371 -0.3918
 7112TIP3   OH221296   4.929   4.221   5.029  0.2710 -0.1002  0.0479
 7112TIP3    H121297   4.875   4.177   5.095  0.2500  0.7071  0.5878
 7112TIP3    H221298   4.976   4.150   4.985  0.8536 -0.6151  1.4395
 7113TIP3   OH221299   5.756   4.274   5.080  0.4463  0.9175 -0.0183
 7113TIP3    H121300   5.719   4.310   4.999  0.2733  3.1758  0.9766
 7113TIP3    H221301   5.823   4.213   5.051 -2.2768 -1.4604 -1.8657
 7114TIP3   OH221302   5.616   4.025   3.666  0.6710 -0.0608  0.0945
 7114TIP3    H121303   5.642   4.020   3.758  1.0637 -1.1000 -0.0530
 7114TIP3    H221304   5.695   4.002   3.617  0.0703 -1.0950 -0.4392
 7115TIP3   OH221305   0.416   5.765   4.798 -0.0630  0.1066 -0.1392
 7115TIP3    H121306   0.510   5.784   4.790  0.1969 -0.9274  0.2589
 7115TIP3    H221307   0.380   5.843   4.841  0.9114 -0.1339  1.2022
 7116TIP3   OH221308   4.357   1.083   5.974  0.3346 -0.1793  0.1130
 7116TIP3    H121309   4.335   1.003   5.926  0.8363 -0.7522  0.8122
 7116TIP3    H221310   4.349   1.153   5.910 -1.5743 -0.5865 -0.1551
 7117TIP3   OH221311   7.533   1.084   5.571 -0.0813  0.1050 -0.4465
 7117TIP3    H121312   7.506   1.123   5.488 -0.2016 -0.4024 -0.6490
 7117TIP3    H221313   7.586   1.009   5.547 -0.1041 -0.0390 -0.0629
 7118TIP3   OH221314   0.592   4.040   5.570  0.0706 -0.3736 -0.2936
 7118TIP3    H121315   0.496   4.032   5.569  0.1434 -1.5236 -0.0407
 7118TIP3    H221316   0.619   3.982   5.642  1.0038 -0.7363 -0.9223
 7119TIP3   OH221317   5.698   6.564   4.223 -0.1975  0.2575 -0.5836
 7119TIP3    H121318   5.760   6.491   4.219 -0.7506 -0.3048  0.5761
 7119TIP3    H221319   5.661   6.559   4.311 -0.4937  1.7493 -0.6044
 7120TIP3   OH221320   3.648   1.096   5.865  0.0166  0.0233 -0.2012
 7120TIP3    H121321   3.561   1.056   5.868 -0.3128  0.7290  0.3186
 7120TIP3    H221322   3.669   1.102   5.772 -0.6141  0.0796 -0.3483
 7121TIP3   OH221323   1.260   4.406   3.991  0.4730  0.1429 -0.1763
 7121TIP3    H121324   1.317   4.330   3.977 -0.0763  0.0391 -2.0440
 7121TIP3    H221325   1.246   4.407   4.086  0.0914 -2.4151 -0.1248
 7122TIP3   OH221326   1.053   5.535   5.382 -0.2871  0.1577  0.2378
 7122TIP3    H121327   1.088   5.601   5.323 -0.7312 -0.2003 -0.4345
 7122TIP3    H221328   0.958   5.549   5.379 -0.4056 -0.7090 -0.1445
 7123TIP3   OH221329   2.995   6.540   5.807  0.1517 -0.3208 -0.3421
 7123TIP3    H121330   3.050   6.475   5.764  0.6687 -0.3422  0.3366
 7123TIP3    H221331   2.993   6.513   5.899 -1.4059 -0.6095 -0.4318
 7124TIP3   OH221332   3.845   4.386   5.401 -0.4374 -0.7100 -0.0489
 7124TIP3    H121333   3.855   4.347   5.488 -0.0928 -0.9329 -0.1873
 7124TIP3    H221334   3.756   4.421   5.401 -0.6235 -1.1799  0.2024
 7125TIP3   OH221335   6.318   2.697   2.926 -0.0737  0.2168 -0.5389
 7125TIP3    H121336   6.362   2.613   2.916 -0.0416  0.3830 -1.9860
 7125TIP3    H221337   6.388   2.760   2.942 -0.0059  0.1316 -0.4993
 7126TIP3   OH221338   0.687   5.685   2.539 -0.4621  0.6188 -0.1788
 7126TIP3    H121339   0.742   5.607   2.543 -1.7276 -0.2785 -0.0052
 7126TIP3    H221340   0.597   5.652   2.535 -0.9389  2.0173 -2.3883
 7127TIP3   OH221341   3.610   1.491   0.464  0.3960  0.2888  0.2207
 7127TIP3    H121342   3.532   1.449   0.427  0.5867 -1.4014  1.6052
 7127TIP3    H221343   3.576   1.551   0.530  0.2155  0.4522 -0.0211
 7128TIP3   OH221344   2.510   7.181   4.021  0.1099  0.4544  0.4971
 7128TIP3    H121345   2.491   7.090   4.043  0.3072  0.5185  0.9406
 7128TIP3    H221346   2.573   7.209   4.087  1.6148  0.2999 -0.8060
 7129TIP3   OH221347   3.157   3.575   2.400 -0.6139  0.5387 -0.5150
 7129TIP3    H121348   3.167   3.670   2.400 -0.5250  0.5489 -1.6950
 7129TIP3    H221349   3.186   3.548   2.312 -1.3695 -0.4878 -0.4710
 7130TIP3   OH221350   3.886   2.307   4.145 -0.5213  0.2095 -0.2660
 7130TIP3    H121351   3.807   2.345   4.105 -1.0539  0.1539  0.6966
 7130TIP3    H221352   3.897   2.357   4.226  0.7117  0.5258 -0.6197
 7131TIP3   OH221353   6.731   0.233   4.065 -0.0841  0.5948  0.3391
 7131TIP3    H121354   6.791   0.307   4.053  2.8921 -1.6418  0.3424
 7131TIP3    H221355   6.737   0.212   4.158  0.7863 -0.9121 -0.0275
 7132TIP3   OH221356   1.266   1.099   4.182  0.6722  0.0380 -0.2526
 7132TIP3    H121357   1.317   1.180   4.186 -1.5499  1.4760  1.4714
 7132TIP3    H221358   1.185   1.124   4.138  0.5058 -1.6355 -0.9665
 7133TIP3   OH221359   2.007   1.732   3.764  0.1618 -0.5524  0.2073
 7133TIP3    H121360   1.954   1.659   3.797 -0.9397 -0.1925 -0.6877
 7133TIP3    H221361   2.097   1.700   3.766 -0.4096 -2.4345 -1.3923
 7134TIP3   OH221362   1.907   4.251   0.550 -0.4603 -0.3241 -0.2316
 7134TIP3    H121363   1.849   4.290   0.483 -0.3841  0.1199 -0.0462
 7134TIP3    H221364   1.994   4.257   0.512 -0.4383 -0.2333 -0.1675
 7135TIP3   OH221365   1.655   3.555   4.625  0.0249  0.2620 -0.1634
 7135TIP3    H121366   1.634   3.473   4.580 -0.4744  0.1361  0.2887
 7135TIP3    H221367   1.571   3.597   4.640 -0.1591 -0.9025  2.9263
 7136TIP3   OH221368   1.289   1.410   0.527  0.2508 -0.4574 -0.4322
 7136TIP3    H121369   1.346   1.337   0.502  0.1203 -0.5660 -0.4134
 7136TIP3    H221370   1.341   1.488   0.509  0.8451 -0.5787  0.6690
 7137TIP3   OH221371   3.255   4.393   4.329 -0.2855  0.2056 -0.0656
 7137TIP3    H121372   3.230   4.348   4.410  1.4793  0.8975  0.9338
 7137TIP3    H221373   3.299   4.473   4.359 -0.7104  1.1208 -1.7514
 7138TIP3   OH221374   3.386   1.116   5.230 -0.0868  0.2580  0.2698
 7138TIP3    H121375   3.309   1.062   5.249  0.2254 -0.9877 -1.7801
 7138TIP3    H221376   3.360   1.170   5.155  1.6717 -1.8071 -1.9638
 7139TIP3   OH221377   0.249   0.368   3.912  0.0770 -0.2080 -0.3384
 7139TIP3    H121378   0.164   0.329   3.931 -0.2597 -0.0074 -1.3437
 7139TIP3    H221379   0.232   0.462   3.909  0.3973 -0.1456 -0.2442
 7140TIP3   OH221380   6.217   0.862   6.002  0.2175  0.2272 -0.0205
 7140TIP3    H121381   6.191   0.933   5.943  2.8112  0.3738 -1.1107
 7140TIP3    H221382   6.185   0.783   5.960 -0.8248  0.5695  0.1057
 7141TIP3   OH221383   5.847   1.067   0.110 -0.0475  0.2989  0.2880
 7141TIP3    H121384   5.785   1.003   0.074  1.2707  0.0628 -1.7323
 7141TIP3    H221385   5.899   1.018   0.173  1.1901 -0.7988 -1.4956
 7142TIP3   OH221386   3.399   3.218   4.145 -0.2244  0.0969 -0.0204
 7142TIP3    H121387   3.356   3.139   4.112  0.8422 -1.0537  1.2154
 7142TIP3    H221388   3.378   3.286   4.081  0.0794 -1.5355 -1.9348
 7143TIP3   OH221389   3.195   6.826   4.299  0.5351 -0.1397 -0.2245
 7143TIP3    H121390   3.176   6.873   4.380 -0.4399 -2.3717  0.9463
 7143TIP3    H221391   3.286   6.847   4.279  0.6671  0.7800  1.2381
 7144TIP3   OH221392   7.398   2.986   2.927 -0.2591 -0.2071  0.3071
 7144TIP3    H121393   7.483   2.980   2.884 -0.5067 -0.9957 -0.0832
 7144TIP3    H221394   7.334   2.968   2.858 -0.6017 -3.3476  1.2869
 7145TIP3   OH221395   4.707   2.293   5.396  0.2454  0.1806  0.1398
 7145TIP3    H121396   4.798   2.315   5.375  0.4725 -1.5287 -0.8597
 7145TIP3    H221397   4.656   2.334   5.325  0.5710 -1.4591 -1.1133
 7146TIP3   OH221398   2.339   7.067   1.087 -0.4949 -0.0531 -0.0562
 7146TIP3    H121399   2.403   7.037   1.022 -0.7913 -0.9589  0.0565
 7146TIP3    H221400   2.263   7.092   1.035 -0.3685  0.2028 -0.1243
 7147TIP3   OH221401   0.371   1.855   2.251 -0.2889 -0.0066  0.1596
 7147TIP3    H121402   0.398   1.811   2.171 -2.1068  1.0296 -1.1130
 7147TIP3    H221403   0.441   1.918   2.270  0.3167 -0.5043 -0.3995
 7148TIP3   OH221404   3.153   6.673   4.583 -0.2346  0.0914 -0.1768
 7148TIP3    H121405   3.059   6.658   4.593 -0.2994  0.6983  0.2073
 7148TIP3    H221406   3.162   6.768   4.590  0.5116 -0.0338  0.6955
 7149TIP3   OH221407   2.752   4.595   0.397  0.1619  0.3422 -0.3964
 7149TIP3    H121408   2.761   4.573   0.490  0.8306 -1.0497 -0.7570
 7149TIP3    H221409   2.665   4.563   0.374  0.3613 -0.1641 -0.4586
 7150TIP3   OH221410   1.591   6.513   5.752  0.4426  0.0078  0.0109
 7150TIP3    H121411   1.595   6.513   5.656  0.6661 -1.7448 -0.0194
 7150TIP3    H221412   1.676   6.546   5.779  0.9230 -0.8433 -0.4197
 7151TIP3   OH221413   4.851   1.222   1.888 -0.1672  0.3478  0.4573
 7151TIP3    H121414   4.807   1.251   1.808 -0.2749  0.8755  0.7028
 7151TIP3    H221415   4.783   1.226   1.955 -0.1698 -0.4428  0.5037
 7152TIP3   OH221416   6.493   0.386   1.705 -0.2145 -0.3067 -0.1749
 7152TIP3    H121417   6.549   0.309   1.692 -1.7062 -1.3066 -1.1263
 7152TIP3    H221418   6.425   0.355   1.766  1.2375  1.4444  2.5075
 7153TIP3   OH221419   3.391   0.298   4.242  0.4116 -0.0935 -0.1114
 7153TIP3    H121420   3.377   0.307   4.337  0.9462 -0.1611 -0.0274
 7153TIP3    H221421   3.458   0.363   4.221 -1.0760  1.2908 -0.7870
 7154TIP3   OH221422   0.266   4.695   3.990 -0.2504  0.2487  0.1139
 7154TIP3    H121423   0.236   4.685   4.080  0.7444  1.4996  0.6175
 7154TIP3    H221424   0.313   4.778   3.990 -0.2719  0.2892 -1.5804
 7155TIP3   OH221425   1.924   1.132   3.402 -0.0183 -0.2255  0.3695
 7155TIP3    H121426   1.968   1.051   3.427  0.9780  0.2943  0.3309
 7155TIP3    H221427   1.845   1.134   3.457 -0.3606 -1.4958 -0.0476
 7156TIP3   OH221428   1.472   6.174   4.273 -0.4712 -0.6593 -0.3025
 7156TIP3    H121429   1.557   6.132   4.260  0.1133  0.2102  0.5626
 7156TIP3    H221430   1.463   6.233   4.199 -0.5623 -1.1307 -0.6700
 7157TIP3   OH221431   4.395   5.264   3.412  0.1049 -0.0459  0.9247
 7157TIP3    H121432   4.342   5.224   3.481 -0.7305  0.9710  0.9042
 7157TIP3    H221433   4.448   5.193   3.377  0.5191 -0.5900  2.5890
 7158TIP3   OH221434   3.640   6.583   5.396 -0.4053 -0.6706 -0.7557
 7158TIP3    H121435   3.687   6.508   5.434  0.5806  1.2367  2.1591
 7158TIP3    H221436   3.548   6.562   5.407 -0.1594 -0.5721  2.2021
 7159TIP3   OH221437   3.682   2.486   3.553  0.1349  0.5371  0.2454
 7159TIP3    H121438   3.690   2.429   3.477 -0.3649  1.2836 -0.3895
 7159TIP3    H221439   3.618   2.442   3.609 -0.4989  0.6173 -0.3911
 7160TIP3   OH221440   1.853   0.836   0.445 -0.6461  0.0026  0.6904
 7160TIP3    H121441   1.837   0.927   0.421  2.1442  0.5010  0.4601
 7160TIP3    H221442   1.869   0.792   0.361  0.6570 -0.0825  0.9638
 7161TIP3   OH221443   7.521   4.005   0.233 -0.5094  0.0317 -0.7975
 7161TIP3    H121444   7.480   4.021   0.148  0.9629 -0.1362 -1.5668
 7161TIP3    H221445   7.567   4.086   0.254 -0.5336 -0.0690 -0.3397
 7162TIP3   OH221446   4.095   0.725   1.733  0.0891  0.8547 -1.0102
 7162TIP3    H121447   4.131   0.741   1.646  1.3967  0.4065 -0.5719
 7162TIP3    H221448   4.170   0.697   1.786 -0.5848  1.5829  0.3967
 7163TIP3   OH221449   3.434   5.632   0.137 -0.6178 -0.3195  0.3302
 7163TIP3    H121450   3.340   5.630   0.117 -0.3831  0.2800 -0.9302
 7163TIP3    H221451   3.439   5.667   0.226 -1.5349  0.7804 -0.0353
 7164TIP3   OH221452   2.743   1.064   5.818  0.1459 -0.1040  0.1670
 7164TIP3    H121453   2.773   0.978   5.849  0.1783  0.1397  0.8423
 7164TIP3    H221454   2.773   1.069   5.727  0.4800 -0.6501  0.2398
 7165TIP3   OH221455   7.175   1.327   2.545 -0.5568  0.3307 -0.0785
 7165TIP3    H121456   7.233   1.369   2.609  0.2118  0.0955 -0.6042
 7165TIP3    H221457   7.116   1.397   2.516 -1.5336  0.2350  1.5485
 7166TIP3   OH221458   6.592   4.608   5.960  0.1023  0.5016  0.2362
 7166TIP3    H121459   6.679   4.647   5.969 -0.0898  1.0086 -0.0550
 7166TIP3    H221460   6.595   4.529   6.015  0.2372  1.3766  1.5480
 7167TIP3   OH221461   2.720   4.018   3.456 -0.5784 -0.4061  0.1048
 7167TIP3    H121462   2.782   3.984   3.520  0.5988  2.2058  0.4391
 7167TIP3    H221463   2.671   4.085   3.503 -2.5692 -1.2469 -0.6401
 7168TIP3   OH221464   2.087   5.341   4.261  0.0997  0.2958 -0.2564
 7168TIP3    H121465   2.156   5.403   4.283  1.5723 -0.7203 -1.8146
 7168TIP3    H221466   2.130   5.256   4.256 -1.7246 -0.7952  1.0640
 7169TIP3   OH221467   4.401   4.498   1.148 -0.4163 -0.5113  0.3504
 7169TIP3    H121468   4.433   4.446   1.075  1.9609 -0.7949  1.5005
 7169TIP3    H221469   4.480   4.532   1.190 -1.7718  3.7170 -0.0536
 7170TIP3   OH221470   7.551   6.821   1.715 -0.4744 -0.4988 -0.3923
 7170TIP3    H121471   7.458   6.803   1.726 -0.2429 -0.9558  1.0929
 7170TIP3    H221472   7.595   6.745   1.753  0.5040  0.6042  0.7936
 7171TIP3   OH221473   7.160   4.359   1.251 -0.6426 -0.6171  0.2389
 7171TIP3    H121474   7.184   4.371   1.343 -1.1695  1.8943  0.1237
 7171TIP3    H221475   7.242   4.365   1.203 -0.4470 -1.2856  0.4776
 7172TIP3   OH221476   2.579   1.001   3.653 -0.2635  0.0402  0.2570
 7172TIP3    H121477   2.601   0.919   3.609 -0.9012 -0.1844  0.3490
 7172TIP3    H221478   2.555   1.062   3.583 -0.8684 -0.1904  0.2586
 7173TIP3   OH221479   3.202   4.260   1.336  0.4109 -0.4136  0.0463
 7173TIP3    H121480   3.116   4.268   1.295  1.3865  0.0351 -2.1063
 7173TIP3    H221481   3.218   4.166   1.341  0.0807 -0.4878 -0.2603
 7174TIP3   OH221482   5.003   4.674   0.135  0.2088 -0.2118  0.2589
 7174TIP3    H121483   4.960   4.594   0.104  0.2345  0.0312 -0.4424
 7174TIP3    H221484   5.089   4.673   0.092  0.6660 -0.3799  1.1562
 7175TIP3   OH221485   7.424   0.407   3.087 -0.5679  0.0725 -0.1651
 7175TIP3    H121486   7.399   0.330   3.138  0.0116  0.3036  0.4998
 7175TIP3    H221487   7.484   0.455   3.145 -0.7417  0.9059 -0.6537
 7176TIP3   OH221488   5.537   6.833   0.167 -0.1249 -0.2854  0.4316
 7176TIP3    H121489   5.617   6.825   0.218  0.0659 -0.1668  0.1505
 7176TIP3    H221490   5.561   6.805   0.079 -0.4271 -0.3900  0.3804
 7177TIP3   OH221491   2.053   4.191   1.246  0.1673 -0.2443  0.1821
 7177TIP3    H121492   2.070   4.251   1.319 -0.7772 -0.4578  0.5918
 7177TIP3    H221493   2.070   4.244   1.168  0.1435  0.3138  0.5465
 7178TIP3   OH221494   5.110   5.661   5.823  0.6486  0.0984  0.1040
 7178TIP3    H121495   5.073   5.659   5.734  0.2144 -0.8332  0.2914
 7178TIP3    H221496   5.058   5.597   5.872  0.7812  0.7234  1.0799
 7179TIP3   OH221497   2.647   1.554   2.073  0.2879  0.6207  0.1704
 7179TIP3    H121498   2.564   1.538   2.029  0.6924 -0.4625 -0.2339
 7179TIP3    H221499   2.637   1.516   2.160  0.1807  0.9451  0.2982
 7180TIP3   OH221500   2.222   0.564   3.284 -1.0887 -0.1559 -0.3408
 7180TIP3    H121501   2.317   0.556   3.293 -1.0923 -0.3271 -0.4399
 7180TIP3    H221502   2.190   0.584   3.372 -1.0322 -0.7938 -0.1757
 7181TIP3   OH221503   6.994   6.050   0.663 -0.1912  0.3594 -0.0290
 7181TIP3    H121504   6.984   6.145   0.651  0.2464  0.5622  1.0747
 7181TIP3    H221505   6.925   6.026   0.724  0.0963  0.0858  0.1945
 7182TIP3   OH221506   6.326   1.004   3.086 -0.1566 -0.1006 -0.3447
 7182TIP3    H121507   6.328   0.950   3.165 -1.0631 -0.8068 -0.7847
 7182TIP3    H221508   6.242   0.983   3.045  0.5734 -0.2225 -1.8325
 7183TIP3   OH221509   6.704   0.334   4.755 -0.5001  0.1177 -0.6987
 7183TIP3    H121510   6.680   0.306   4.843 -0.7131  0.5934 -0.6009
 7183TIP3    H221511   6.798   0.352   4.759 -0.0915 -1.6889 -1.0624
 7184TIP3   OH221512   3.988   2.532   5.332  0.6559 -0.2892 -0.1061
 7184TIP3    H121513   3.967   2.623   5.309 -0.2589 -0.3913  0.2716
 7184TIP3    H221514   3.906   2.485   5.317  0.7303 -0.7970  1.0556
 7185TIP3   OH221515   3.513   4.177   4.099  0.2250 -0.2397 -0.0885
 7185TIP3    H121516   3.421   4.204   4.101 -0.0504 -0.9467 -1.6412
 7185TIP3    H221517   3.555   4.239   4.039  0.8152  0.1572  0.7030
 7186TIP3   OH221518   1.831   6.011   5.308 -0.2474 -0.4668  0.7503
 7186TIP3    H121519   1.834   5.985   5.216 -1.8183 -1.4230  0.9246
 7186TIP3    H221520   1.786   5.938   5.352 -2.7859  1.5093  1.6680
 7187TIP3   OH221521   0.679   1.201   2.941  0.0001 -0.1452 -0.4430
 7187TIP3    H121522   0.760   1.150   2.929  0.7893  1.3213 -1.6526
 7187TIP3    H221523   0.613   1.154   2.891  0.1861 -1.1053  0.1782
 7188TIP3   OH221524   5.072   6.209   3.170 -0.1470 -0.1544  0.1345
 7188TIP3    H121525   5.063   6.290   3.119 -1.3488  0.0534  0.6505
 7188TIP3    H221526   5.167   6.196   3.178  0.0568  0.7951 -0.5845
 7189TIP3   OH221527   1.081   3.506   0.039  0.0802  0.0078  0.3115
 7189TIP3    H121528   0.998   3.535   0.077 -0.2792 -0.4141 -0.1345
 7189TIP3    H221529   1.057   3.433  -0.018  0.7886 -0.2513  0.3382
 7190TIP3   OH221530   5.425   4.289   3.327 -0.6434  0.8395 -0.0901
 7190TIP3    H121531   5.363   4.235   3.376 -1.0314  0.8002 -0.6167
 7190TIP3    H221532   5.504   4.290   3.381 -1.6122  2.1999  1.4098
 7191TIP3   OH221533   4.989   6.069   0.064 -0.4017 -0.4897 -0.2613
 7191TIP3    H121534   5.085   6.076   0.057 -0.5216  1.8321 -0.3647
 7191TIP3    H221535   4.962   6.027  -0.017  0.4009  1.0005 -1.3590
 7192TIP3   OH221536   0.710   3.337   2.596  0.3469 -0.1589 -0.0346
 7192TIP3    H121537   0.696   3.268   2.531 -0.3295  0.9705 -1.1317
 7192TIP3    H221538   0.639   3.324   2.660 -0.6099  0.3268 -0.9702
 7193TIP3   OH221539   7.600   3.376   1.184  0.0078 -0.5179 -0.0146
 7193TIP3    H121540   7.571   3.299   1.135 -1.2942 -0.7557  1.1079
 7193TIP3    H221541   7.614   3.443   1.116  0.4711 -1.5054 -0.9284
 7194TIP3   OH221542   0.706   2.567   3.750 -0.0717  0.1632 -0.2696
 7194TIP3    H121543   0.673   2.563   3.660  0.4826 -0.4734 -0.4526
 7194TIP3    H221544   0.758   2.648   3.752  0.2796 -0.0459 -0.6563
 7195TIP3   OH221545   1.455   4.458   0.324 -0.0391 -0.1499  0.2377
 7195TIP3    H121546   1.368   4.437   0.291  0.0812  0.0319 -0.1928
 7195TIP3    H221547   1.477   4.542   0.284  1.0054 -0.9502 -0.9665
 7196TIP3   OH221548   1.901   3.105   3.081  0.7050 -0.6263  0.1630
 7196TIP3    H121549   1.879   3.033   3.141  1.6461 -1.7565 -0.7846
 7196TIP3    H221550   1.852   3.084   3.001 -0.2186  0.6434  0.3735
 7197TIP3   OH221551   3.292   7.147   5.040 -0.1768 -0.4130 -0.0914
 7197TIP3    H121552   3.263   7.197   5.116 -0.3038 -2.2621  1.1527
 7197TIP3    H221553   3.381   7.121   5.061 -0.2386 -0.9948 -0.5309
 7198TIP3   OH221554   6.310   5.550   3.387  0.6052  0.1291 -0.8857
 7198TIP3    H121555   6.295   5.458   3.407  2.4287 -0.4566 -1.9405
 7198TIP3    H221556   6.239   5.574   3.328  1.2209 -1.2247 -2.2453
 7199TIP3   OH221557   1.779   1.663   3.115  0.5405 -0.0460  0.1712
 7199TIP3    H121558   1.780   1.643   3.021 -0.6074 -0.3799  0.2181
 7199TIP3    H221559   1.755   1.580   3.157  1.9773 -0.1549  0.8467
 7200TIP3   OH221560   6.331   4.509   5.531 -0.0747  0.8281  0.1028
 7200TIP3    H121561   6.414   4.488   5.573 -0.8341  0.8221  1.6518
 7200TIP3    H221562   6.340   4.473   5.442  0.4830 -1.8679  1.1450
 7201TIP3   OH221563   3.953   2.552   3.574  0.0322  0.1373 -0.2920
 7201TIP3    H121564   3.976   2.480   3.633 -2.8025  1.3902  2.6121
 7201TIP3    H221565   3.865   2.531   3.543  0.4127  0.8677 -2.0074
 7202TIP3   OH221566   2.850   6.910   0.519 -0.3267 -0.8931  0.0715
 7202TIP3    H121567   2.883   6.999   0.530  0.2550 -1.2628  1.5328
 7202TIP3    H221568   2.867   6.890   0.427  0.1235  0.2681 -0.1241
 7203TIP3   OH221569   3.459   1.308   5.929 -0.4657  0.4523 -0.0888
 7203TIP3    H121570   3.445   1.266   6.014  1.9077 -0.2605  0.0257
 7203TIP3    H221571   3.532   1.259   5.890 -0.4494  1.7792 -1.8453
 7204TIP3   OH221572   1.978   5.026   4.598  0.7129  0.5024 -0.3521
 7204TIP3    H121573   1.944   5.000   4.684 -1.6164  1.9793 -0.7429
 7204TIP3    H221574   1.961   5.120   4.594  0.6607  0.4324 -2.4816
 7205TIP3   OH221575   7.049   3.645   3.037  0.3791  0.0365 -0.2667
 7205TIP3    H121576   6.971   3.588   3.040  0.2678  0.2347  1.1840
 7205TIP3    H221577   7.078   3.640   2.945 -1.2296 -0.1859 -0.8014
 7206TIP3   OH221578   5.156   5.480   4.203  0.3369  0.1456  0.4612
 7206TIP3    H121579   5.104   5.502   4.281 -0.0229 -0.4316  0.3950
 7206TIP3    H221580   5.162   5.562   4.154 -2.2367 -0.1560 -0.5215
 7207TIP3   OH221581   2.361   3.038   2.825  0.4282 -0.4326  0.3806
 7207TIP3    H121582   2.276   3.062   2.862  1.2483  1.0746  1.3794
 7207TIP3    H221583   2.340   3.002   2.739 -1.2221 -0.0055  0.5723
 7208TIP3   OH221584   6.231   5.849   5.304  0.0376  0.0596  0.1923
 7208TIP3    H121585   6.253   5.812   5.389 -0.4822 -0.1666  0.2297
 7208TIP3    H221586   6.302   5.911   5.286  0.6045 -0.5184  0.3951
 7209TIP3   OH221587   0.925   4.597   0.693  0.0251  0.2131 -0.1521
 7209TIP3    H121588   1.000   4.651   0.718  0.2735  1.1330 -2.6243
 7209TIP3    H221589   0.894   4.561   0.776  1.5958  1.8678  1.2668
 7210TIP3   OH221590   4.077   4.379   3.533 -0.0219  0.3239  0.1543
 7210TIP3    H121591   4.007   4.316   3.551  0.3953 -0.1985 -0.0454
 7210TIP3    H221592   4.038   4.464   3.555 -0.6564  0.0225  0.2238
 7211TIP3   OH221593   2.691   0.034   3.380 -0.4054 -0.2379  0.3516
 7211TIP3    H121594   2.747   0.030   3.302  0.2949 -3.3091  0.8684
 7211TIP3    H221595   2.619   0.090   3.355  0.1748 -0.5226 -2.2784
 7212TIP3   OH221596   2.506   5.607   5.228  0.0762 -0.1759  0.0603
 7212TIP3    H121597   2.468   5.519   5.240 -0.5455  0.1844  0.8697
 7212TIP3    H221598   2.545   5.628   5.313 -0.6519  0.7250  0.1906
 7213TIP3   OH221599   5.781   3.701   3.440 -0.2583  0.1248  0.7921
 7213TIP3    H121600   5.769   3.658   3.355 -1.4981  0.2887  0.8626
 7213TIP3    H221601   5.875   3.707   3.450 -0.0617 -1.5056  0.2392
 7214TIP3   OH221602   7.485   0.639   3.686 -0.1136  0.1654 -0.2817
 7214TIP3    H121603   7.498   0.567   3.747 -0.4631 -0.3127 -0.7629
 7214TIP3    H221604   7.497   0.718   3.739  4.3303 -0.1392 -0.5306
 7215TIP3   OH221605   1.853   2.713   5.467  0.1813 -0.4811 -0.1106
 7215TIP3    H121606   1.835   2.807   5.456  0.4111 -0.2809  1.1229
 7215TIP3    H221607   1.791   2.670   5.409  0.7086  0.4588 -1.4340
 7216TIP3   OH221608   2.461   6.072   5.122 -0.2857 -0.0827  0.5081
 7216TIP3    H121609   2.435   6.155   5.083  0.4425  0.9274  2.0873
 7216TIP3    H221610   2.553   6.084   5.145 -0.5726 -0.7723  2.1488
 7217TIP3   OH221611   0.526   4.965   0.012 -0.6177  0.2751 -0.4649
 7217TIP3    H121612   0.607   4.981  -0.037 -1.0244 -0.8875 -1.5530
 7217TIP3    H221613   0.546   4.994   0.101  1.1245 -0.3438 -0.6222
 7218TIP3   OH221614   5.546   6.624   4.472  0.5110 -0.0703 -0.3046
 7218TIP3    H121615   5.459   6.607   4.436  1.1574 -0.9858 -1.5267
 7218TIP3    H221616   5.544   6.716   4.497 -0.8593 -0.1295 -0.1447
 7219TIP3   OH221617   5.119   5.701   3.734  0.1617  0.3404  0.0852
 7219TIP3    H121618   5.174   5.716   3.657  0.3116  2.5772  0.5506
 7219TIP3    H221619   5.040   5.660   3.699  1.0009 -0.4126 -0.9730
 7220TIP3   OH221620   3.979   4.786   1.345 -0.3239 -0.2017 -1.0166
 7220TIP3    H121621   3.963   4.810   1.437 -1.4278 -1.1290 -0.9420
 7220TIP3    H221622   4.067   4.819   1.326 -0.1550  0.1649  0.3157
 7221TIP3   OH221623   1.821   0.734   4.861  0.3680  0.6040  0.4122
 7221TIP3    H121624   1.803   0.799   4.793 -1.7402 -0.2464  0.0860
 7221TIP3    H221625   1.815   0.650   4.815 -0.3862  0.0451  1.5083
 7222TIP3   OH221626   5.811   0.143   5.882  0.3307  0.0747  0.2557
 7222TIP3    H121627   5.717   0.150   5.899 -0.3756 -0.3040 -2.8075
 7222TIP3    H221628   5.819   0.163   5.789  3.5331  1.6059  0.7383
 7223TIP3   OH221629   4.631   2.195   1.133  0.1136  0.2071 -0.3011
 7223TIP3    H121630   4.695   2.205   1.203  0.3017 -1.3939 -0.1987
 7223TIP3    H221631   4.620   2.283   1.097  0.8788  0.8471  0.9737
 7224TIP3   OH221632   4.864   6.831   3.311  0.2967 -0.1491  0.2287
 7224TIP3    H121633   4.773   6.825   3.280  0.7260 -1.0478 -0.8945
 7224TIP3    H221634   4.866   6.774   3.389 -0.4417  1.0315  1.1468
 7225TIP3   OH221635   3.749   1.272   3.219  0.3034  0.0578 -0.0451
 7225TIP3    H121636   3.762   1.366   3.208  0.0296  0.2751  1.3021
 7225TIP3    H221637   3.654   1.261   3.221  0.3163 -0.3934 -1.1918
 7226TIP3   OH221638   6.311   2.350   1.547  0.4996 -0.1365 -0.8206
 7226TIP3    H121639   6.325   2.259   1.572  1.1508 -0.6166 -2.7396
 7226TIP3    H221640   6.384   2.398   1.586  2.9655 -1.2592 -3.6867
 7227TIP3   OH221641   7.087   3.713   2.776  0.0302  0.6105  0.1195
 7227TIP3    H121642   6.993   3.722   2.759  0.2764  0.8549 -1.1946
 7227TIP3    H221643   7.108   3.788   2.832 -0.8450 -0.3411  1.8117
 7228TIP3   OH221644   5.792   6.465   3.044 -0.2155 -0.5131  0.0257
 7228TIP3    H121645   5.741   6.541   3.072  2.6467  1.2312  0.8880
 7228TIP3    H221646   5.748   6.435   2.964 -1.3323  2.2233 -0.5046
 7229TIP3   OH221647   4.037   4.689   1.832 -0.1078 -0.9195  0.3317
 7229TIP3    H121648   3.967   4.728   1.780 -0.4906 -0.2486  1.3128
 7229TIP3    H221649   4.000   4.608   1.866  0.5508 -1.9870 -1.3800
 7230TIP3   OH221650   6.278   2.834   5.371 -0.8725  0.2294 -0.8056
 7230TIP3    H121651   6.311   2.897   5.435  1.0715 -0.3979 -1.1174
 7230TIP3    H221652   6.204   2.878   5.330  0.4573  2.3854 -1.0730
 7231TIP3   OH221653   5.965   1.434   3.502 -0.3479 -0.4084 -0.3947
 7231TIP3    H121654   5.979   1.383   3.423  0.2540 -0.6031 -0.1660
 7231TIP3    H221655   5.935   1.520   3.471  0.1304 -0.4028 -0.8370
 7232TIP3   OH221656   0.868   2.175   3.675  0.7179 -0.1155  0.1995
 7232TIP3    H121657   0.798   2.210   3.620  0.2328  0.5369  1.2079
 7232TIP3    H221658   0.898   2.097   3.628 -0.2125 -0.0192 -0.5968
 7233TIP3   OH221659   4.501   6.580   0.360 -0.7950  0.2440 -0.8136
 7233TIP3    H121660   4.477   6.488   0.346  0.3363 -0.0243 -1.1742
 7233TIP3    H221661   4.453   6.606   0.438 -1.3575 -0.5668 -0.8737
 7234TIP3   OH221662   3.040   4.007   0.746 -1.0401 -0.0102 -0.2045
 7234TIP3    H121663   3.085   4.069   0.804 -0.7609 -1.5980  1.3540
 7234TIP3    H221664   3.111   3.957   0.706 -1.2550  0.8173 -1.6842
 7235TIP3   OH221665   7.580   2.371   0.898 -0.0229  0.6921  0.3829
 7235TIP3    H121666   7.580   2.426   0.976 -1.9809  2.1274 -0.5337
 7235TIP3    H221667   7.538   2.425   0.831  1.4365 -0.5493 -1.6363
 7236TIP3   OH221668   6.036   4.323   1.411 -0.3406 -0.2049 -0.4237
 7236TIP3    H121669   5.953   4.303   1.454 -0.2437 -0.5912 -0.4119
 7236TIP3    H221670   6.102   4.282   1.467  0.1455  2.4663  1.1797
 7237TIP3   OH221671   0.351   6.022   1.359 -0.2994  0.1591 -0.7406
 7237TIP3    H121672   0.351   5.950   1.422 -0.2535  0.6416 -0.1849
 7237TIP3    H221673   0.403   6.091   1.401  1.2923 -0.1546 -2.0552
 7238TIP3   OH221674   6.966   4.416   5.563 -0.3169  0.3355  0.1211
 7238TIP3    H121675   6.880   4.452   5.584 -1.0262 -1.7259  1.0254
 7238TIP3    H221676   6.993   4.369   5.642  2.8247  2.8901  0.7923
 7239TIP3   OH221677   3.551   5.171   1.882 -0.2617  0.1023 -0.6967
 7239TIP3    H121678   3.470   5.213   1.911  0.0350  0.1811  0.0504
 7239TIP3    H221679   3.610   5.178   1.958 -0.1836 -1.6151 -0.5573
 7240TIP3   OH221680   4.770   6.008   5.933  0.2236 -0.0372  0.5374
 7240TIP3    H121681   4.822   5.953   5.992  1.4770 -0.6315 -1.0531
 7240TIP3    H221682   4.788   6.097   5.962  0.5244 -0.3278  1.2811
 7241TIP3   OH221683   5.197   1.902   0.847 -0.9645 -0.3879 -0.1457
 7241TIP3    H121684   5.160   1.869   0.928  0.4673 -2.0287 -0.0975
 7241TIP3    H221685   5.288   1.924   0.869 -1.3506  1.8771 -0.6451
 7242TIP3   OH221686   2.845   4.533   3.689  0.1372 -0.0753 -0.1411
 7242TIP3    H121687   2.918   4.588   3.718  0.9913 -0.4621 -1.4548
 7242TIP3    H221688   2.794   4.516   3.768  0.3556  1.8498  0.4516
 7243TIP3   OH221689   0.955   3.981   1.814 -0.0797  0.1970  0.0142
 7243TIP3    H121690   0.898   4.056   1.834 -0.9715 -0.4998  0.1361
 7243TIP3    H221691   1.005   4.009   1.738 -2.2201 -0.0015 -1.5583
 7244TIP3   OH221692   4.894   3.170   6.013  0.0362 -0.0664 -0.1721
 7244TIP3    H121693   4.851   3.097   6.058  1.1578 -0.1174  0.8802
 7244TIP3    H221694   4.851   3.248   6.047 -2.3877 -0.2103 -2.6008
 7245TIP3   OH221695   7.091   3.256   1.966 -0.2692 -0.1082  0.0018
 7245TIP3    H121696   7.055   3.208   1.891 -2.5473  2.2701 -0.5575
 7245TIP3    H221697   7.164   3.202   1.996 -0.7854 -2.3458 -2.4242
 7246TIP3   OH221698   4.825   2.554   2.892 -0.3195  0.2920  0.8480
 7246TIP3    H121699   4.785   2.600   2.966 -1.6691  1.6220 -0.6248
 7246TIP3    H221700   4.849   2.624   2.831  0.4714 -0.7938 -0.1172
 7247TIP3   OH221701   1.449   5.674   5.010  0.3865 -0.1189 -0.1848
 7247TIP3    H121702   1.401   5.754   4.989 -0.3488 -1.0739 -2.3590
 7247TIP3    H221703   1.514   5.665   4.941 -0.4061 -2.0612 -0.7571
 7248TIP3   OH221704   7.504   5.258   4.439  0.1726 -0.1783 -0.3665
 7248TIP3    H121705   7.599   5.259   4.447  0.0608 -2.0442  2.3150
 7248TIP3    H221706   7.473   5.300   4.519 -1.3098  0.5899 -1.2930
 7249TIP3   OH221707   0.953   2.122   3.234  0.3006 -0.5868 -0.3210
 7249TIP3    H121708   0.974   2.181   3.161 -1.0762 -1.0721 -1.1568
 7249TIP3    H221709   0.872   2.157   3.270  0.8206 -0.5243  0.8105
 7250TIP3   OH221710   6.113   2.002   5.748  0.2134 -0.9112 -0.0062
 7250TIP3    H121711   6.185   1.994   5.811 -0.5633  1.5604  1.3299
 7250TIP3    H221712   6.034   2.001   5.801 -0.6695 -1.6785 -1.2721
 7251TIP3   OH221713   6.741   4.975   3.926 -0.1726  0.2440  0.0011
 7251TIP3    H121714   6.737   5.026   3.845 -0.0617 -1.2944 -1.0251
 7251TIP3    H221715   6.706   4.890   3.901 -1.3181  0.1099  1.9040
 7252TIP3   OH221716   4.412   1.085   3.829  0.4382 -0.1295  0.3959
 7252TIP3    H121717   4.473   1.121   3.893 -0.5358  0.3612  1.0666
 7252TIP3    H221718   4.374   1.009   3.872  1.5297 -1.2523 -0.5305
 7253TIP3   OH221719   1.294   4.735   5.250  0.6461  0.7461 -0.2145
 7253TIP3    H121720   1.294   4.640   5.260 -0.4537  0.7795  0.1867
 7253TIP3    H221721   1.354   4.752   5.177 -0.2561 -0.3553 -1.2435
 7254TIP3   OH221722   1.187   1.679   4.503  0.3504 -0.4621 -0.0851
 7254TIP3    H121723   1.230   1.594   4.496 -0.8883 -1.0777 -0.5849
 7254TIP3    H221724   1.143   1.690   4.419 -0.5757  0.0578  0.4546
 7255TIP3   OH221725   5.890   2.478   1.239  0.1789 -0.2325  0.3523
 7255TIP3    H121726   5.959   2.528   1.197  0.3433 -1.3747 -0.7910
 7255TIP3    H221727   5.937   2.419   1.299  0.0759  0.0979  0.7610
 7256TIP3   OH221728   7.220   4.313   3.647  0.4882 -0.1670 -0.1287
 7256TIP3    H121729   7.130   4.339   3.665  0.8592 -0.0293  1.8084
 7256TIP3    H221730   7.269   4.395   3.643  0.3581 -0.1467 -2.5853
 7257TIP3   OH221731   1.815   1.586   4.561  0.6569 -0.1472  0.0750
 7257TIP3    H121732   1.740   1.539   4.596 -1.1652  1.1293 -1.8263
 7257TIP3    H221733   1.854   1.630   4.637  0.1934 -1.7079  1.2672
 7258TIP3   OH221734   7.153   1.953   5.005  0.4205 -0.1377 -0.2426
 7258TIP3    H121735   7.108   1.962   4.921  0.8073 -0.3541 -0.4765
 7258TIP3    H221736   7.163   2.043   5.037 -0.9717 -0.1315  0.2488
 7259TIP3   OH221737   4.571   4.206   2.640 -0.4889  0.6260 -0.4299
 7259TIP3    H121738   4.592   4.297   2.659 -2.2241  0.8470  0.7053
 7259TIP3    H221739   4.490   4.189   2.689  0.3701 -1.8528  0.2889
 7260TIP3   OH221740   2.696   4.480   2.612  0.0674 -0.1254  0.1029
 7260TIP3    H121741   2.615   4.475   2.663 -0.2562 -0.8385 -0.4636
 7260TIP3    H221742   2.759   4.429   2.663  0.2562  0.6810  0.6970
 7261TIP3   OH221743   6.128   5.130   2.248 -0.1757 -0.3372  0.5197
 7261TIP3    H121744   6.121   5.129   2.153  0.1476  2.4181  0.4108
 7261TIP3    H221745   6.213   5.089   2.266  1.3153  2.0386 -0.6518
 7262TIP3   OH221746   5.170   0.467   0.815 -0.3290  0.1451 -0.5401
 7262TIP3    H121747   5.103   0.515   0.863  0.8857  0.1476  1.2471
 7262TIP3    H221748   5.125   0.389   0.783 -1.5277  0.8687 -0.6728
 7263TIP3   OH221749   2.947   3.258   6.082  0.2143 -0.1833  0.2578
 7263TIP3    H121750   2.896   3.339   6.091 -1.4358 -1.1366 -0.1093
 7263TIP3    H221751   2.885   3.194   6.048  1.8598 -1.2320 -0.9380
 7264TIP3   OH221752   4.919   7.050   1.177 -0.0291 -0.1692  0.4489
 7264TIP3    H121753   4.971   7.081   1.103  0.3420 -0.5208  0.5548
 7264TIP3    H221754   4.968   7.077   1.254 -0.6606  0.6167  0.5824
 7265TIP3   OH221755   5.495   4.360   3.862 -0.1477 -0.0396 -0.2919
 7265TIP3    H121756   5.510   4.296   3.931 -2.3730  0.4254  0.6922
 7265TIP3    H221757   5.400   4.375   3.862 -0.0831  0.8895 -2.6388
 7266TIP3   OH221758   0.311   5.937   2.000  0.3616  0.5297  0.3746
 7266TIP3    H121759   0.226   5.921   2.039  0.3678  0.9168  0.5586
 7266TIP3    H221760   0.331   6.028   2.023  0.5539  0.6319 -0.1705
 7267TIP3   OH221761   6.752   5.775   3.166 -0.2509 -0.8513  0.2044
 7267TIP3    H121762   6.796   5.749   3.247 -2.1012 -1.0191  1.2191
 7267TIP3    H221763   6.670   5.725   3.167 -0.1652 -1.1055 -1.9619
 7268TIP3   OH221764   0.298   4.342   1.672  0.0118 -0.6181  0.0103
 7268TIP3    H121765   0.274   4.432   1.692 -3.1203 -1.4302  0.3546
 7268TIP3    H221766   0.299   4.298   1.757 -0.3095 -1.3016 -0.3340
 7269TIP3   OH221767   4.518   2.023   5.263  0.0518  0.0029  0.9052
 7269TIP3    H121768   4.458   2.095   5.244 -0.5762 -0.4010  1.3147
 7269TIP3    H221769   4.574   2.018   5.186 -0.6845  0.1479  0.3464
 7270TIP3   OH221770   0.120   1.600   1.201 -0.7899  0.2004  0.3433
 7270TIP3    H121771   0.181   1.527   1.192 -1.7302 -0.4287 -1.6539
 7270TIP3    H221772   0.113   1.615   1.295 -0.0066 -1.7800  0.7644
 7271TIP3   OH221773   3.677   6.679   0.962  0.1467 -0.0248 -0.3888
 7271TIP3    H121774   3.608   6.714   0.905 -1.4100 -1.3053  0.5995
 7271TIP3    H221775   3.741   6.641   0.903  0.2003  1.4839 -1.3524
 7272TIP3   OH221776   5.160   6.355   2.693 -0.0399 -0.5916 -0.3732
 7272TIP3    H121777   5.135   6.285   2.752  1.7879 -0.4766  0.6211
 7272TIP3    H221778   5.086   6.364   2.632 -1.2016 -1.9054  0.7912
 7273TIP3   OH221779   7.419   7.110   3.166 -0.5081 -0.0192  1.0412
 7273TIP3    H121780   7.421   7.049   3.092  1.3767 -0.3544  1.3088
 7273TIP3    H221781   7.491   7.170   3.149 -1.0968  0.9263  1.7987
 7274TIP3   OH221782   7.220   0.736   4.631 -0.2951  0.3482 -0.4835
 7274TIP3    H121783   7.249   0.662   4.685  1.1391  0.1980 -1.4005
 7274TIP3    H221784   7.168   0.790   4.690 -0.9026 -1.0887  0.3589
 7275TIP3   OH221785   0.708   3.711   3.852  0.5026 -0.3766  0.0701
 7275TIP3    H121786   0.680   3.739   3.940  1.0736 -1.6893  0.7040
 7275TIP3    H221787   0.800   3.735   3.848  0.7879 -1.3903  0.3104
 7276TIP3   OH221788   1.530   5.483   1.867  0.8256  0.2987 -0.1152
 7276TIP3    H121789   1.473   5.449   1.798 -0.5127  3.7703 -0.9353
 7276TIP3    H221790   1.495   5.445   1.948 -1.0670  0.3217 -0.8629
 7277TIP3   OH221791   2.529   3.983   2.783  0.1274  0.4079  0.2092
 7277TIP3    H121792   2.515   3.932   2.704 -0.5202  1.9195 -0.6995
 7277TIP3    H221793   2.574   4.062   2.754  1.3697  0.2794  1.6177
 7278TIP3   OH221794   0.749   2.285   0.328  0.4331 -0.5348  0.2366
 7278TIP3    H121795   0.654   2.292   0.318  0.3709 -1.2330  0.3463
 7278TIP3    H221796   0.763   2.282   0.422  0.5226 -1.0418  0.2066
 7279TIP3   OH221797   0.175   4.017   0.867 -0.1210  0.3529 -0.2384
 7279TIP3    H121798   0.210   3.942   0.915  2.4588  0.5870 -1.6129
 7279TIP3    H221799   0.242   4.084   0.875 -0.6629  1.1939 -2.2164
 7280TIP3   OH221800   2.841   6.291   4.560 -0.6233  0.3170  0.7813
 7280TIP3    H121801   2.883   6.236   4.627 -1.6314 -0.6166  0.6761
 7280TIP3    H221802   2.821   6.373   4.606  0.3008  0.3599  1.1241
 7281TIP3   OH221803   0.827   5.182   5.260  0.1127 -0.0568  0.4595
 7281TIP3    H121804   0.878   5.230   5.325 -1.1034  0.9693  0.6769
 7281TIP3    H221805   0.779   5.116   5.311 -2.1471  1.8265  0.9156
 7282TIP3   OH221806   7.032   5.104   5.844  0.2690  0.3347  0.1105
 7282TIP3    H121807   7.014   5.075   5.755 -0.9098  1.3272  0.0094
 7282TIP3    H221808   7.039   5.199   5.838  2.3927  0.2599  0.7228
 7283TIP3   OH221809   2.903   5.893   0.640  0.4301 -0.3985  0.3007
 7283TIP3    H121810   2.831   5.877   0.701 -0.4839  0.0624 -0.6072
 7283TIP3    H221811   2.879   5.842   0.562 -0.6904  2.3176 -1.2894
 7284TIP3   OH221812   1.298   5.313   3.314  0.4142 -0.3415  0.7633
 7284TIP3    H121813   1.218   5.352   3.347  0.3023 -0.6955  0.9110
 7284TIP3    H221814   1.303   5.341   3.222  0.5094  0.2904  0.9602
 7285TIP3   OH221815   1.143   5.086   3.837 -0.4074 -0.0853 -0.0686
 7285TIP3    H121816   1.068   5.131   3.798  0.0784 -0.2618 -1.2521
 7285TIP3    H221817   1.217   5.144   3.822  0.0712 -0.8808 -0.8551
 7286TIP3   OH221818   0.281   1.406   6.074 -0.2845  0.4048 -0.3846
 7286TIP3    H121819   0.194   1.368   6.058 -1.2706  1.3555  2.1406
 7286TIP3    H221820   0.311   1.361   6.153  0.5889  1.5549 -0.0439
 7287TIP3   OH221821   4.866   3.935   1.062  0.0544 -0.4196 -0.3403
 7287TIP3    H121822   4.947   3.966   1.022  1.1858 -1.8751  0.7095
 7287TIP3    H221823   4.824   3.883   0.993 -0.9463  1.7811 -1.4880
 7288TIP3   OH221824   1.820   3.943   2.562  0.0067  0.5343 -0.2041
 7288TIP3    H121825   1.823   3.974   2.472 -0.8592 -0.3469 -0.5471
 7288TIP3    H221826   1.899   3.890   2.572  0.6463  1.4940 -0.1146
 7289TIP3   OH221827   1.683   1.154   5.894 -0.4004 -0.2510  0.3039
 7289TIP3    H121828   1.686   1.249   5.907 -0.6190 -0.1335 -0.4709
 7289TIP3    H221829   1.768   1.133   5.854  0.1263 -0.5597  1.5400
 7290TIP3   OH221830   5.847   1.109   5.503  0.1864  0.3241 -0.0370
 7290TIP3    H121831   5.772   1.128   5.446 -1.5249  1.3163  2.3819
 7290TIP3    H221832   5.912   1.071   5.444 -2.3154 -0.9350 -2.2390
 7291TIP3   OH221833   6.188   1.423   5.623  0.3296 -0.6465 -0.2514
 7291TIP3    H121834   6.274   1.385   5.638  0.4019 -0.2340  0.4034
 7291TIP3    H221835   6.201   1.518   5.632  0.1480 -0.4336 -1.8496
 7292TIP3   OH221836   3.231   6.491   0.930  0.2356 -0.6110  0.0307
 7292TIP3    H121837   3.183   6.516   1.009  0.0232 -0.9154  0.0029
 7292TIP3    H221838   3.320   6.472   0.960  0.2525 -0.3604  0.1363
 7293TIP3   OH221839   7.217   3.082   6.148  0.4027  0.3398 -0.0524
 7293TIP3    H121840   7.249   2.993   6.140  0.0168  0.0162  1.5918
 7293TIP3    H221841   7.187   3.089   6.238  1.1941  2.3977  0.1192
 7294TIP3   OH221842   0.960   1.443   5.546 -0.2974 -0.2233 -0.4592
 7294TIP3    H121843   1.026   1.511   5.560  0.5449 -1.0264 -0.4361
 7294TIP3    H221844   0.916   1.434   5.630 -0.3945  0.2679 -0.4547
 7295TIP3   OH221845   2.407   1.555   5.677 -0.2614  0.3349  0.5243
 7295TIP3    H121846   2.365   1.595   5.754 -0.0722 -0.0727  0.8464
 7295TIP3    H221847   2.353   1.583   5.603  1.2295  3.2287  0.3743
 7296TIP3   OH221848   4.769   0.525   4.872 -0.2208  0.1817 -0.4862
 7296TIP3    H121849   4.727   0.569   4.946  1.2635 -1.0808  1.1512
 7296TIP3    H221850   4.724   0.441   4.866  1.7510 -1.0628  1.0992
 7297TIP3   OH221851   5.977   5.902   6.118  0.1132 -0.1131 -0.0339
 7297TIP3    H121852   6.069   5.875   6.122 -0.1890 -1.6302 -2.0289
 7297TIP3    H221853   5.978   5.985   6.071  0.4230 -0.3801 -0.5008
 7298TIP3   OH221854   4.997   2.981   3.097 -0.4251 -0.2413 -0.1714
 7298TIP3    H121855   4.984   3.057   3.155  2.4483 -0.0501  0.3305
 7298TIP3    H221856   5.024   3.019   3.013  0.6564 -0.6672 -0.0281
 7299TIP3   OH221857   0.643   6.584   3.743  0.3762  0.1285 -0.1138
 7299TIP3    H121858   0.571   6.634   3.703  0.0662 -0.3247 -0.1374
 7299TIP3    H221859   0.701   6.563   3.670 -0.0645 -0.4885 -0.2988
 7300TIP3   OH221860   7.305   0.303   5.370  0.6855 -0.0951  0.2786
 7300TIP3    H121861   7.391   0.309   5.411 -0.4995  0.1379  2.9842
 7300TIP3    H221862   7.280   0.211   5.381 -0.4496  0.3740  1.9719
 7301TIP3   OH221863   6.834   2.981   0.253  0.2734  0.3771 -0.1327
 7301TIP3    H121864   6.854   2.967   0.160  0.0414  0.0005 -0.1273
 7301TIP3    H221865   6.739   2.974   0.258  0.3218 -0.0997  0.2121
 7302TIP3   OH221866   3.721   3.712   2.678  0.6477 -0.0439  0.2143
 7302TIP3    H121867   3.757   3.786   2.727  0.7911 -0.3573  0.5933
 7302TIP3    H221868   3.626   3.724   2.684  0.6672  0.9918 -1.1084
 7303TIP3   OH221869   5.500   2.503   2.825  0.1094  0.7823  0.3516
 7303TIP3    H121870   5.458   2.456   2.752  0.8712  0.2851  0.2142
 7303TIP3    H221871   5.576   2.449   2.846  0.8654  1.8349  0.3683
 7304TIP3   OH221872   3.217   3.241   5.620  0.0828 -0.4599 -0.1726
 7304TIP3    H121873   3.284   3.241   5.689 -1.3315  0.9884  1.2883
 7304TIP3    H221874   3.144   3.290   5.658 -2.0484 -2.4275 -1.4822
 7305TIP3   OH221875   4.685   1.369   3.385  0.2773  0.2050 -0.5322
 7305TIP3    H121876   4.656   1.296   3.331 -0.5803 -0.9093  1.3371
 7305TIP3    H221877   4.642   1.356   3.469  1.9214  1.5826  0.6091
 7306TIP3   OH221878   2.994   0.441   4.084  0.0675  0.0742 -0.2123
 7306TIP3    H121879   3.017   0.351   4.062 -0.8216 -0.3599  0.5494
 7306TIP3    H221880   3.036   0.456   4.169  0.7833  0.6268 -0.6481
 7307TIP3   OH221881   5.345   4.150   4.742 -0.2746 -0.1650  0.0745
 7307TIP3    H121882   5.255   4.150   4.773  0.1001 -2.1113  1.3276
 7307TIP3    H221883   5.395   4.109   4.812  1.4476 -0.0265 -1.0047
 7308TIP3   OH221884   3.318   1.920   4.507 -0.5290 -0.2591  0.0630
 7308TIP3    H121885   3.242   1.921   4.565  0.3674  2.6892  1.3535
 7308TIP3    H221886   3.388   1.962   4.558  0.3406  2.4039 -3.0007
 7309TIP3   OH221887   4.408   0.271   2.663 -0.5059 -0.4000  0.6500
 7309TIP3    H121888   4.344   0.323   2.615 -1.2568 -0.4774  1.5532
 7309TIP3    H221889   4.483   0.265   2.603 -0.7999  0.8416  0.1273
 7310TIP3   OH221890   3.651   0.910   2.143  0.5187  0.2594 -0.2785
 7310TIP3    H121891   3.683   0.875   2.060 -0.8506 -0.2919 -0.5973
 7310TIP3    H221892   3.679   1.001   2.143  2.2593 -0.2254 -0.4239
 7311TIP3   OH221893   1.519   5.976   5.060  0.4587  0.7424 -0.5967
 7311TIP3    H121894   1.439   6.023   5.038 -0.5415 -0.5284  0.1822
 7311TIP3    H221895   1.588   6.021   5.010 -0.6814  2.0092 -1.0943
 7312TIP3   OH221896   5.064   5.819   2.531 -0.0672 -0.8200 -0.5646
 7312TIP3    H121897   5.064   5.914   2.542  0.5923 -0.9034  0.2687
 7312TIP3    H221898   5.046   5.806   2.438  0.1826  0.1295 -0.7602
 7313TIP3   OH221899   2.115   1.052   0.590  0.1361 -0.0163  0.4351
 7313TIP3    H121900   2.056   1.113   0.545  1.9917  2.9324  1.6610
 7313TIP3    H221901   2.059   1.004   0.650 -1.4054  0.6583 -0.4112
 7314TIP3   OH221902   5.964   2.516   0.764 -0.1560  0.4625  0.1106
 7314TIP3    H121903   5.901   2.485   0.829 -1.2320  0.4045 -0.9203
 7314TIP3    H221904   6.044   2.467   0.783 -0.1013  1.2251  2.0278
 7315TIP3   OH221905   5.362   2.744   0.909  0.3581  0.6637 -0.1657
 7315TIP3    H121906   5.457   2.748   0.896  0.3378 -0.3467 -0.7671
 7315TIP3    H221907   5.348   2.663   0.959 -0.3764 -0.6948 -2.4399
 7316TIP3   OH221908   4.185   4.415   0.848  0.8800 -0.0732 -0.6989
 7316TIP3    H121909   4.161   4.349   0.913 -2.6727 -0.1756 -1.9118
 7316TIP3    H221910   4.210   4.364   0.771 -0.3655 -0.0223 -1.1482
 7317TIP3   OH221911   4.505   2.431   3.908  0.4408  0.1834  0.5237
 7317TIP3    H121912   4.576   2.367   3.919  1.4934  0.9976 -1.1100
 7317TIP3    H221913   4.431   2.380   3.875  0.9688 -0.3623  0.1652
 7318TIP3   OH221914   5.379   5.636   0.662 -0.0599 -0.4482  0.2490
 7318TIP3    H121915   5.440   5.688   0.715  0.0749  0.5702 -0.8645
 7318TIP3    H221916   5.434   5.587   0.602 -0.2325 -1.3081  0.7829
 7319TIP3   OH221917   5.979   3.944   0.971  0.6550 -0.2389 -0.0695
 7319TIP3    H121918   5.974   4.028   0.925  2.4566 -0.6084 -1.0125
 7319TIP3    H221919   6.062   3.906   0.943  0.6393 -1.6169  1.6104
 7320TIP3   OH221920   0.727   4.860   1.343  0.2414  0.2592  0.0146
 7320TIP3    H121921   0.639   4.839   1.312 -0.2314 -0.1446  1.5663
 7320TIP3    H221922   0.723   4.953   1.365  1.1061  1.0539 -2.7330
 7321TIP3   OH221923   2.848   6.898   2.011 -0.0234  0.1954  0.0978
 7321TIP3    H121924   2.935   6.898   2.051  0.0923  1.1031 -0.1240
 7321TIP3    H221925   2.797   6.959   2.064 -0.1625  0.6128 -0.5032
 7322TIP3   OH221926   6.287   2.551   1.325  0.3817  0.0244  0.3828
 7322TIP3    H121927   6.268   2.460   1.301  2.9069 -1.3480  2.9856
 7322TIP3    H221928   6.222   2.573   1.392  1.2160 -0.8260  1.5218
 7323TIP3   OH221929   0.124   3.012   0.730 -0.1541  0.6640 -0.0590
 7323TIP3    H121930   0.061   3.033   0.662 -1.7960 -0.9561  0.8883
 7323TIP3    H221931   0.073   2.972   0.800  1.8967 -0.6047  0.8312
 7324TIP3   OH221932   1.121   0.142   4.997  0.3379  0.0022 -0.4927
 7324TIP3    H121933   1.209   0.176   5.010  0.4759 -0.1147 -1.0706
 7324TIP3    H221934   1.102   0.091   5.076  1.4644 -1.4056 -1.0936
 7325TIP3   OH221935   1.932   1.993   3.598 -0.0755 -0.8496  0.0499
 7325TIP3    H121936   1.982   1.912   3.603  0.4059 -0.5374  0.5026
 7325TIP3    H221937   1.841   1.965   3.587  0.0348 -1.4560  0.6082
 7326TIP3   OH221938   6.438   1.708   1.515  0.3637  0.1333 -0.0848
 7326TIP3    H121939   6.352   1.717   1.557  0.5738  0.4574  0.2820
 7326TIP3    H221940   6.471   1.624   1.545  0.5852  0.4390  0.5461
 7327TIP3   OH221941   4.320   0.479   5.228  0.0746  0.0881 -0.3206
 7327TIP3    H121942   4.247   0.534   5.201  0.9139  0.5830 -1.6950
 7327TIP3    H221943   4.281   0.412   5.283 -1.1492  1.3501  0.4093
 7328TIP3   OH221944   2.701   2.070   4.334 -0.4382  0.2076 -0.1378
 7328TIP3    H121945   2.635   2.001   4.339  0.7945 -0.9699  0.8813
 7328TIP3    H221946   2.733   2.066   4.244 -0.3906 -0.5858 -0.0983
 7329TIP3   OH221947   2.790   4.849   4.983  0.1476  0.0003  0.0180
 7329TIP3    H121948   2.720   4.872   5.044 -0.9456 -0.7487 -0.9107
 7329TIP3    H221949   2.812   4.758   5.004  0.8386  0.2242  0.2874
 7330TIP3   OH221950   4.407   0.663   3.418  0.2469  0.2617  0.5553
 7330TIP3    H121951   4.314   0.662   3.397 -0.1298  2.5136  1.8362
 7330TIP3    H221952   4.432   0.755   3.417  2.6220 -0.3040 -0.2611
 7331TIP3   OH221953   1.783   3.711   5.073 -0.2287 -0.5546  0.2025
 7331TIP3    H121954   1.780   3.802   5.101 -1.1694  0.2630 -2.3282
 7331TIP3    H221955   1.691   3.682   5.075 -0.0182 -1.2408  0.3277
 7332TIP3   OH221956   4.638   6.554   2.379  0.1576  0.0165 -0.3603
 7332TIP3    H121957   4.673   6.643   2.369 -1.3468  0.4845 -2.1476
 7332TIP3    H221958   4.588   6.557   2.461  0.7424  0.5870 -0.0186
 7333TIP3   OH221959   2.854   3.349   3.688  0.2952  0.7847  0.2679
 7333TIP3    H121960   2.812   3.424   3.647  2.7753  2.1321 -0.0105
 7333TIP3    H221961   2.879   3.293   3.615  1.6254  1.4868  0.1571
 7334TIP3   OH221962   5.630   3.808   0.014  0.1764  0.0743  0.1494
 7334TIP3    H121963   5.577   3.873   0.059 -0.1175  0.1151 -0.2543
 7334TIP3    H221964   5.640   3.736   0.077  0.8466  0.6792  0.7489
 7335TIP3   OH221965   3.992   2.072   6.049  0.4474 -0.9632  0.1457
 7335TIP3    H121966   4.066   2.122   6.013  1.3836 -0.9739  1.9731
 7335TIP3    H221967   3.931   2.065   5.975  1.5613  0.3870 -0.9781
 7336TIP3   OH221968   5.469   2.772   5.254 -0.0526 -0.0249  0.1893
 7336TIP3    H121969   5.458   2.679   5.234  0.9367 -0.2790  0.7918
 7336TIP3    H221970   5.425   2.784   5.338 -3.2447  0.8209 -1.4164
 7337TIP3   OH221971   7.436   5.458   4.687 -0.0904  0.2079 -0.4428
 7337TIP3    H121972   7.499   5.472   4.758  0.3597 -0.6605 -0.6504
 7337TIP3    H221973   7.432   5.543   4.642 -0.3142  0.7403  0.5487
 7338TIP3   OH221974   4.371   3.658   0.539  0.3175 -0.3414  0.6627
 7338TIP3    H121975   4.401   3.619   0.621  1.4341 -1.3682 -0.1974
 7338TIP3    H221976   4.276   3.642   0.539  0.4214 -1.0787  1.3639
 7339TIP3   OH221977   1.316   3.020   3.216  0.3093 -0.1666  0.2595
 7339TIP3    H121978   1.313   2.947   3.277  1.3149 -0.5986 -0.1897
 7339TIP3    H221979   1.289   3.096   3.267 -0.6097 -0.8183  0.7657
 7340TIP3   OH221980   3.578   2.907   6.095 -0.1926 -0.0101  0.2510
 7340TIP3    H121981   3.559   2.871   6.009  0.0088 -1.6131  0.8389
 7340TIP3    H221982   3.638   2.844   6.135 -0.0609  0.8357  1.4669
 7341TIP3   OH221983   6.730   0.965   3.067 -0.3139  1.0413 -0.1609
 7341TIP3    H121984   6.652   0.958   3.011  0.9153  0.2207 -1.8421
 7341TIP3    H221985   6.784   1.032   3.026 -0.4262  2.1632  1.4298
 7342TIP3   OH221986   0.043   4.372   2.547 -0.4770 -0.1276  0.1272
 7342TIP3    H121987  -0.003   4.394   2.465  0.1773  0.0519 -0.1941
 7342TIP3    H221988   0.004   4.288   2.573 -0.5206 -0.3103 -0.4999
 7343TIP3   OH221989   0.017   5.062   0.823 -0.0408  0.8786  0.5010
 7343TIP3    H121990   0.021   5.055   0.918 -0.5116 -0.6134  0.4349
 7343TIP3    H221991   0.102   5.099   0.798  1.2693 -1.3805  1.3111
 7344TIP3   OH221992   4.704   3.653   4.505 -0.3545  0.2336  0.2989
 7344TIP3    H121993   4.794   3.621   4.507 -0.1597  0.7375 -0.0756
 7344TIP3    H221994   4.690   3.691   4.592  0.4762  1.9180 -0.2473
 7345TIP3   OH221995   3.556   5.016   2.259 -0.4153  0.4626  0.5134
 7345TIP3    H121996   3.497   5.002   2.185 -2.1507  0.7853  1.7735
 7345TIP3    H221997   3.523   5.095   2.302  0.8383  0.5495  1.3742
 7346TIP3   OH221998   3.267   1.789   6.076 -0.6639  0.4479 -0.2837
 7346TIP3    H121999   3.189   1.838   6.104 -1.3325 -0.9557  0.4012
 7346TIP3    H222000   3.271   1.802   5.982 -0.2542  2.5924 -0.0355
 7347TIP3   OH222001   6.228   5.155   3.961  0.3390 -0.0676 -0.3226
 7347TIP3    H122002   6.195   5.079   4.008 -1.5437  1.1286  0.4026
 7347TIP3    H222003   6.295   5.120   3.903  0.2497 -2.1122  0.7146
 7348TIP3   OH222004   1.919   1.919   4.577  0.2317  0.0300  0.5253
 7348TIP3    H122005   1.850   1.896   4.516  0.4102 -0.8955  0.6523
 7348TIP3    H222006   1.994   1.865   4.550  0.9433  1.0879  0.3229
 7349TIP3   OH222007   6.145   6.988   1.205 -0.5316 -0.5721 -0.1141
 7349TIP3    H122008   6.064   6.952   1.169  0.1373 -0.9987 -1.2737
 7349TIP3    H222009   6.119   7.030   1.286 -1.8850 -0.8446 -0.3808
 7350TIP3   OH222010   6.970   4.179   6.052  0.3156  0.5906 -0.1017
 7350TIP3    H122011   6.906   4.243   6.021  1.0741  1.8048  0.7704
 7350TIP3    H222012   6.928   4.138   6.128 -0.2993 -0.2036 -0.8501
 7351TIP3   OH222013   2.134   6.229   0.949  0.1817 -0.0689  0.4485
 7351TIP3    H122014   2.205   6.210   0.888  0.3604 -0.0912  0.6592
 7351TIP3    H222015   2.107   6.143   0.981 -0.2620 -0.0903  0.0076
 7352TIP3   OH222016   6.001   6.748   2.236  0.5761 -0.4158 -0.8352
 7352TIP3    H122017   5.909   6.774   2.227  0.3164 -0.5648  0.9757
 7352TIP3    H222018   6.045   6.791   2.163 -1.0796 -1.1671 -2.3620
 7353TIP3   OH222019   6.701   0.056   3.300  0.2197 -0.3750  0.6002
 7353TIP3    H122020   6.702  -0.031   3.340  1.0438 -0.7661 -0.2244
 7353TIP3    H222021   6.682   0.039   3.208 -0.6459  0.4217  0.6194
 7354TIP3   OH222022   4.978   1.612   6.007  0.8892  0.3719  0.3026
 7354TIP3    H122023   5.034   1.535   6.017 -0.4862 -0.5452  1.3610
 7354TIP3    H222024   4.928   1.616   6.089  1.2681  2.7031  0.4843
 7355TIP3   OH222025   3.157   0.159   3.477  0.1460 -0.3346 -0.0454
 7355TIP3    H122026   3.062   0.163   3.466  0.2021  0.9740 -0.2284
 7355TIP3    H222027   3.175   0.216   3.552  0.8406  0.0227 -0.4729
 7356TIP3   OH222028   1.437   5.955   3.684  0.0567 -0.1045 -0.3547
 7356TIP3    H122029   1.401   5.867   3.693  0.5216 -0.1946  0.7822
 7356TIP3    H222030   1.396   6.005   3.754  0.7370  0.2562 -0.2003
 7357TIP3   OH222031   3.968   5.159   6.189 -0.0187 -0.3453  0.3390
 7357TIP3    H122032   3.927   5.111   6.261 -1.3777 -2.5547 -1.7461
 7357TIP3    H222033   3.919   5.132   6.112  0.4061  3.0492 -1.2993
 7358TIP3   OH222034   7.473   5.573   5.218 -0.2569  0.2853  0.2303
 7358TIP3    H122035   7.524   5.544   5.142 -0.2982 -0.6104  0.5410
 7358TIP3    H222036   7.521   5.649   5.250  0.2240  0.1734 -0.1957
 7359TIP3   OH222037   6.940   6.087   3.775  0.5281  0.9364  0.2563
 7359TIP3    H122038   6.931   6.005   3.823  1.1960  0.0752 -1.0308
 7359TIP3    H222039   7.007   6.136   3.822  0.0386  0.8018  1.1052
 7360TIP3   OH222040   6.169   4.096   5.571 -0.6405 -0.0370  0.3618
 7360TIP3    H122041   6.109   4.093   5.645 -1.0312  0.0174  0.0485
 7360TIP3    H222042   6.209   4.183   5.575  0.6772 -0.6507  1.5527
 7361TIP3   OH222043   7.119   1.037   1.926 -0.0624  0.1912 -0.8304
 7361TIP3    H122044   7.114   1.082   1.841 -0.6858 -0.5989 -1.2241
 7361TIP3    H222045   7.032   0.999   1.938 -0.1146  0.6543  0.3745
 7362TIP3   OH222046   0.942   6.691   0.528  0.5907 -0.5015  0.3743
 7362TIP3    H122047   0.950   6.786   0.533 -1.9346 -0.2107 -0.0744
 7362TIP3    H222048   1.032   6.659   0.536  1.4418  1.8774  1.0203
 7363TIP3   OH222049   1.365   5.596   6.032 -0.1109  0.1180 -0.6969
 7363TIP3    H122050   1.312   5.590   6.112 -0.7482  0.4343 -1.0840
 7363TIP3    H222051   1.455   5.586   6.062 -0.1865  2.0494  0.3200
 7364TIP3   OH222052   6.558   6.779   4.443 -0.1899 -0.2867 -0.0635
 7364TIP3    H122053   6.495   6.810   4.509  0.0924 -0.6351  0.3770
 7364TIP3    H222054   6.522   6.695   4.413 -0.4110 -0.0423 -0.4875
 7365TIP3   OH222055   4.511   0.186   2.926 -0.3847  0.9824 -0.8697
 7365TIP3    H122056   4.514   0.269   2.973  0.5593  1.2444 -1.3715
 7365TIP3    H222057   4.471   0.207   2.842  1.2530  1.2700 -1.6161
 7366TIP3   OH222058   2.042   5.964   3.227  0.0849  0.0486 -0.1433
 7366TIP3    H122059   1.966   5.990   3.278  1.3878  1.7095  1.0636
 7366TIP3    H222060   2.082   6.047   3.199  1.6433 -0.7434 -0.4151
 7367TIP3   OH222061   2.873   0.396   5.131  0.4029 -0.5447  0.4217
 7367TIP3    H122062   2.894   0.324   5.071  0.2140  0.2283 -0.5924
 7367TIP3    H222063   2.804   0.361   5.187 -0.2673 -0.8978 -0.6009
 7368TIP3   OH222064   2.839   6.965   3.481  0.2885 -0.5173 -0.5895
 7368TIP3    H122065   2.805   6.908   3.411 -0.4500 -1.9326  0.8463
 7368TIP3    H222066   2.932   6.944   3.487  0.3751 -0.3216 -1.1945
 7369TIP3   OH222067   1.341   0.418   3.831  0.7767 -0.2435  0.2432
 7369TIP3    H122068   1.404   0.404   3.901 -1.7387 -0.9798  2.4949
 7369TIP3    H222069   1.330   0.332   3.790 -0.3329 -0.6291  1.3040
 7370TIP3   OH222070   6.254   2.731   2.346 -0.0712 -0.0976 -0.2542
 7370TIP3    H122071   6.338   2.738   2.392 -0.9266 -0.1742  1.4115
 7370TIP3    H222072   6.271   2.670   2.274  0.8936 -1.4385  1.0565
 7371TIP3   OH222073   5.417   6.612   0.524 -0.0612  0.1437  0.7471
 7371TIP3    H122074   5.353   6.681   0.506 -0.4949 -0.3066  0.5504
 7371TIP3    H222075   5.365   6.532   0.531  0.6810 -0.7335 -2.1667
 7372TIP3   OH222076   5.183   3.961   2.332  0.1281 -0.2664  0.3575
 7372TIP3    H122077   5.088   3.958   2.343 -0.4242 -0.4969 -3.3198
 7372TIP3    H222078   5.217   3.907   2.404 -2.4860 -0.2671  1.7101
 7373TIP3   OH222079   2.200   6.294   4.006 -0.4340 -0.4177  0.2653
 7373TIP3    H122080   2.120   6.253   3.974 -0.7217 -0.2432  0.7563
 7373TIP3    H222081   2.225   6.242   4.083 -0.4788 -0.0291  0.5451
 7374TIP3   OH222082   6.834   0.936   2.402 -0.3884  0.2435 -0.2371
 7374TIP3    H122083   6.897   0.980   2.458 -0.9624  1.5830 -0.6170
 7374TIP3    H222084   6.867   0.846   2.396  1.7298  0.9862 -0.7568
 7375TIP3   OH222085   6.040   4.973   5.040 -0.3105  0.2600  0.1441
 7375TIP3    H122086   5.964   5.031   5.034 -0.4196  0.3273  1.7554
 7375TIP3    H222087   6.003   4.889   5.069 -0.0586 -0.4222 -1.4457
 7376TIP3   OH222088   2.369   6.488   5.507  0.9354  0.5164  0.3592
 7376TIP3    H122089   2.347   6.420   5.443  3.9930  0.6908 -1.0679
 7376TIP3    H222090   2.297   6.486   5.571 -0.7536 -1.7054 -1.4595
 7377TIP3   OH222091   5.984   4.103   5.086  0.3131 -0.3774 -0.1553
 7377TIP3    H122092   5.994   4.009   5.099  0.5899 -0.3104  0.1412
 7377TIP3    H222093   6.072   4.134   5.064  0.0839 -0.2983 -0.9923
 7378TIP3   OH222094   2.375   1.568   1.002 -0.0416  0.0184 -0.4384
 7378TIP3    H122095   2.399   1.490   0.952 -0.7835 -1.1590  0.9697
 7378TIP3    H222096   2.459   1.608   1.026  0.3339  0.1650 -1.8993
 7379TIP3   OH222097   4.745   7.062   4.234  0.5548 -0.2838  0.4369
 7379TIP3    H122098   4.752   6.968   4.250 -0.1059 -0.8038 -1.9730
 7379TIP3    H222099   4.747   7.071   4.139  1.2962  2.2269  0.6155
 7380TIP3   OH222100   1.767   0.193   5.488 -0.8505  0.0612  0.3459
 7380TIP3    H122101   1.818   0.270   5.461 -0.6004 -0.6476 -1.3039
 7380TIP3    H222102   1.814   0.119   5.452  0.2161 -1.1696  3.8544
 7381TIP3   OH222103   4.800   2.885   4.687  0.7340 -0.4890  0.1247
 7381TIP3    H122104   4.823   2.798   4.655  0.9377 -1.0040  1.5850
 7381TIP3    H222105   4.811   2.879   4.782 -0.1379  0.8705  0.3349
 7382TIP3   OH222106   0.447   4.435   1.453  0.1387  0.1587 -0.0704
 7382TIP3    H122107   0.385   4.506   1.463  0.1999  0.1387  0.5306
 7382TIP3    H222108   0.409   4.363   1.505  0.8196  0.2600  0.5917
 7383TIP3   OH222109   3.510   4.117   1.463  0.0523  0.0579  0.4265
 7383TIP3    H122110   3.434   4.077   1.421 -0.4500 -0.9950  2.2427
 7383TIP3    H222111   3.582   4.056   1.445 -0.0978 -0.2382  0.8065
 7384TIP3   OH222112   2.226   0.523   2.136 -0.1137  0.0412  0.7729
 7384TIP3    H122113   2.162   0.492   2.072 -0.3375 -0.5402  1.2618
 7384TIP3    H222114   2.300   0.552   2.084 -0.9420  1.1594  0.1647
 7385TIP3   OH222115   3.174   4.032   4.663 -0.2398  0.1178  0.2352
 7385TIP3    H122116   3.130   4.078   4.735  0.9810  0.9888  0.4518
 7385TIP3    H222117   3.112   3.963   4.638 -0.9770  0.2148  1.6640
 7386TIP3   OH222118   6.153   0.093   5.405 -0.8181  0.1164 -0.2672
 7386TIP3    H122119   6.159   0.004   5.439 -0.7715  0.2941  0.2103
 7386TIP3    H222120   6.203   0.091   5.324 -1.9624 -0.6208 -0.9775
 7387TIP3   OH222121   3.311   2.146   0.447 -0.0800 -0.3352  0.0827
 7387TIP3    H122122   3.344   2.068   0.492 -0.0893 -0.7288 -0.5782
 7387TIP3    H222123   3.352   2.219   0.493 -0.0407 -0.7274  0.6844
 7388TIP3   OH222124   4.517   5.696   5.781  0.2687 -0.2131  0.1016
 7388TIP3    H122125   4.572   5.701   5.860  1.1411 -1.0748 -0.4286
 7388TIP3    H222126   4.453   5.766   5.792  1.1124  0.4452  1.0186
 7389TIP3   OH222127   1.355   4.222   0.855  0.5189  0.3251  0.1863
 7389TIP3    H122128   1.377   4.268   0.774  0.3725 -1.3901 -0.8928
 7389TIP3    H222129   1.264   4.246   0.872  0.9673  1.7858  0.6467
 7390TIP3   OH222130   2.614   4.407   5.814  0.4994  0.3246  1.0845
 7390TIP3    H122131   2.567   4.465   5.874  0.4229  1.0312  0.3611
 7390TIP3    H222132   2.553   4.335   5.798 -1.1371  2.0519 -1.1718
 7391TIP3   OH222133   3.100   2.289   2.134  0.0003 -0.3825 -0.6431
 7391TIP3    H122134   3.135   2.378   2.128 -2.5595  0.7324 -0.3425
 7391TIP3    H222135   3.157   2.245   2.197 -0.2115  1.8895  1.2861
 7392TIP3   OH222136   0.149   5.834   3.688  0.0852 -0.0294 -0.3638
 7392TIP3    H122137   0.104   5.778   3.625 -1.2823  0.4483  0.1421
 7392TIP3    H222138   0.107   5.919   3.679 -0.8881 -0.1900  1.8575
 7393TIP3   OH222139   3.859   1.949   1.242  0.0003 -0.5588  0.1280
 7393TIP3    H122140   3.881   1.955   1.335  2.1044 -1.0170 -0.2905
 7393TIP3    H222141   3.887   1.861   1.216 -1.6729 -0.8950 -0.7129
 7394TIP3   OH222142   0.561   0.202   1.009 -0.5758  0.0672  0.2641
 7394TIP3    H122143   0.624   0.273   1.025 -0.1270 -0.2598 -0.0300
 7394TIP3    H222144   0.525   0.182   1.096 -1.5981  1.4647  0.1977
 7395TIP3   OH222145   0.129   5.577   0.731  0.2266 -0.7544 -0.8290
 7395TIP3    H122146   0.184   5.509   0.694  0.8743 -0.8011  0.1769
 7395TIP3    H222147   0.146   5.654   0.676  1.3996 -0.7356 -0.4651
 7396TIP3   OH222148   7.185   0.066   2.023  0.3661 -0.7021  0.3119
 7396TIP3    H122149   7.246   0.110   2.083  2.9604  3.5161 -4.5734
 7396TIP3    H222150   7.101   0.111   2.037  1.4401  1.6940 -0.3380
 7397TIP3   OH222151   3.973   4.144   4.166  0.3838  0.4897 -0.4893
 7397TIP3    H122152   3.884   4.166   4.195 -0.6092  0.2763 -3.1160
 7397TIP3    H222153   4.012   4.227   4.140  1.4707  0.7581  1.7041
 7398TIP3   OH222154   4.863   4.579   3.134 -0.2369 -0.6092 -0.5854
 7398TIP3    H122155   4.950   4.606   3.165 -0.3912  2.2980 -2.3814
 7398TIP3    H222156   4.820   4.660   3.110 -3.3588 -2.0158 -0.1909
 7399TIP3   OH222157   7.024   5.593   4.401 -0.1707  0.3604 -0.6776
 7399TIP3    H122158   6.991   5.503   4.403 -0.2096  0.3700  1.4612
 7399TIP3    H222159   7.006   5.624   4.312  1.1397 -2.1924 -1.9516
 7400TIP3   OH222160   0.182   6.719   1.061  0.1202 -0.1217  0.2893
 7400TIP3    H122161   0.167   6.637   1.107  1.1259 -0.1232  0.6253
 7400TIP3    H222162   0.273   6.741   1.079 -0.0830  0.9768  0.0557
 7401TIP3   OH222163   4.798   3.371   4.200 -0.5820  0.5180  0.4422
 7401TIP3    H122164   4.830   3.310   4.266 -2.1443  0.0489  0.7939
 7401TIP3    H222165   4.878   3.408   4.162  0.4062 -1.7858  0.1384
 7402TIP3   OH222166   5.533   2.467   0.233  0.2869  0.3918  0.2529
 7402TIP3    H122167   5.607   2.482   0.175 -0.2575  0.6713 -0.3918
 7402TIP3    H222168   5.563   2.401   0.295  1.0152  0.3837 -0.1032
 7403TIP3   OH222169   6.284   2.549   1.852  0.0527  0.0080 -0.3502
 7403TIP3    H122170   6.210   2.492   1.874 -0.9435  1.3797  0.0733
 7403TIP3    H222171   6.320   2.513   1.771 -1.5179 -0.3183 -0.9365
 7404TIP3   OH222172   5.255   2.973   6.039  0.2064  0.6287  0.4625
 7404TIP3    H122173   5.249   2.947   6.131  3.0861  1.4785  0.9770
 7404TIP3    H222174   5.246   3.068   6.040  0.6382  0.6763 -0.0978
 7405TIP3   OH222175   4.215   0.506   0.688 -0.6724 -0.1636 -0.5018
 7405TIP3    H122176   4.137   0.479   0.641 -0.5396  1.7607 -1.9576
 7405TIP3    H222177   4.184   0.533   0.775 -1.3120 -1.2244 -0.3916
 7406TIP3   OH222178   3.373   0.844   2.883  0.9019 -0.3616  0.1631
 7406TIP3    H122179   3.394   0.811   2.796 -0.7482  0.4657 -0.5944
 7406TIP3    H222180   3.351   0.766   2.934  1.6435 -0.8296 -0.2103
 7407TIP3   OH222181   5.948   5.854   0.925  0.2449  0.0573  0.2159
 7407TIP3    H122182   6.002   5.915   0.974  1.8252 -0.7524 -0.4461
 7407TIP3    H222183   5.874   5.836   0.983  1.6199 -0.2292  1.9617
 7408TIP3   OH222184   6.550   3.690   5.710 -0.7217 -0.4108 -0.2317
 7408TIP3    H122185   6.620   3.651   5.658  1.1860  2.2755  0.1203
 7408TIP3    H222186   6.530   3.773   5.667 -1.7347  0.1601  1.2204
 7409TIP3   OH222187   0.026   2.799   6.178 -0.3708  0.1241  0.1355
 7409TIP3    H122188  -0.054   2.835   6.139 -0.2750  1.4319  1.0861
 7409TIP3    H222189   0.091   2.869   6.168  1.2018 -1.5004 -2.1222
 7410TIP3   OH222190   6.365   1.603   2.041 -0.7293 -0.2300  0.2944
 7410TIP3    H122191   6.354   1.581   2.133 -1.4705 -0.1433  0.2319
 7410TIP3    H222192   6.429   1.675   2.041  0.9923 -1.7071  0.5574
 7411TIP3   OH222193   5.769   4.651   1.516  0.0109  0.0695 -0.3458
 7411TIP3    H122194   5.809   4.624   1.599 -1.2685 -0.8840 -0.0083
 7411TIP3    H222195   5.694   4.704   1.542  0.6387  1.3085 -0.9592
 7412TIP3   OH222196   2.662   3.474   1.398 -0.2809 -0.3553  0.0512
 7412TIP3    H122197   2.579   3.436   1.369 -1.0722  0.9930  0.4194
 7412TIP3    H222198   2.638   3.562   1.428  1.4896  0.6353 -1.2142
 7413TIP3   OH222199   4.213   3.059   4.955  0.2270 -0.6258 -0.4583
 7413TIP3    H122200   4.294   3.075   4.907 -0.4736 -0.3557 -1.5840
 7413TIP3    H222201   4.176   2.981   4.913  0.9176 -2.0226  1.4163
 7414TIP3   OH222202   5.015   5.095   5.288  0.4390  0.1498 -0.3177
 7414TIP3    H122203   5.012   5.137   5.373  0.3102 -0.6661  0.0948
 7414TIP3    H222204   4.994   5.164   5.226  1.2686  0.9299  0.2380
 7415TIP3   OH222205   3.549   5.021   6.024 -0.4981  0.0701  0.0721
 7415TIP3    H122206   3.556   4.945   6.082  0.6748  0.1581  0.0742
 7415TIP3    H222207   3.466   5.008   5.978 -0.7844 -0.7104  0.7680
 7416TIP3   OH222208   7.418   5.382   4.064 -0.5954 -0.1824 -0.4500
 7416TIP3    H122209   7.408   5.345   3.977 -0.5163 -1.0158 -0.1097
 7416TIP3    H222210   7.491   5.334   4.103 -0.3801  0.4439 -0.0614
 7417TIP3   OH222211   1.185   1.530   3.421 -0.3754  0.0058  0.1523
 7417TIP3    H122212   1.135   1.496   3.495 -1.7741 -0.9413 -1.1661
 7417TIP3    H222213   1.170   1.624   3.422 -0.9804 -0.0918  0.6262
 7418TIP3   OH222214   3.191   6.059   2.513  0.0167  0.1371 -0.5270
 7418TIP3    H122215   3.132   6.010   2.455 -0.6742  0.4656 -0.1079
 7418TIP3    H222216   3.137   6.081   2.589  0.2188  1.8642 -0.8626
 7419TIP3   OH222217   3.862   4.327   0.310 -0.3947 -0.0664  0.0786
 7419TIP3    H122218   3.876   4.379   0.389  3.5039 -0.4425 -0.1905
 7419TIP3    H222219   3.921   4.253   0.318  0.9320  0.3659 -3.5265
 7420TIP3   OH222220   7.593   4.898   1.554 -0.5292 -0.1262 -0.0447
 7420TIP3    H122221   7.563   4.835   1.489  0.3939  0.4070 -1.0171
 7420TIP3    H222222   7.602   4.846   1.635  3.4596 -2.1822 -1.5296
 7421TIP3   OH222223   3.859   1.201   0.468 -0.0211 -0.4791 -0.3278
 7421TIP3    H122224   3.776   1.223   0.511  0.5721  2.0351 -0.3076
 7421TIP3    H222225   3.925   1.251   0.517  1.0689  0.0777 -2.2477
 7422TIP3   OH222226   4.490   6.250   0.647 -0.2058  0.1574  0.2316
 7422TIP3    H122227   4.445   6.294   0.719  0.5939 -1.4449  1.8066
 7422TIP3    H222228   4.538   6.178   0.689  0.3739 -0.8005 -1.9035
 7423TIP3   OH222229   5.531   3.402   3.737 -0.9257  0.0605 -0.2395
 7423TIP3    H122230   5.578   3.423   3.656  0.5008 -3.0605 -0.3572
 7423TIP3    H222231   5.562   3.468   3.800  0.6906  0.3878 -1.3107
 7424TIP3   OH222232   5.137   5.214   0.912  0.4176 -0.2377  0.3193
 7424TIP3    H122233   5.158   5.308   0.910  3.1449 -0.7202  1.9132
 7424TIP3    H222234   5.120   5.195   1.004 -0.5265 -1.2653 -0.0464
 7425TIP3   OH222235   4.524   6.021   5.011 -0.5067  0.1452 -0.7201
 7425TIP3    H122236   4.448   6.056   5.058  0.5647 -1.7115  2.7521
 7425TIP3    H222237   4.510   5.926   5.010  1.9464 -0.3105  0.5428
 7426TIP3   OH222238   3.409   5.591   4.005  0.2665 -0.2150  0.0135
 7426TIP3    H122239   3.377   5.512   3.963 -2.0883  1.9340 -2.6052
 7426TIP3    H222240   3.409   5.570   4.098 -0.2863 -3.2306 -0.5609
 7427TIP3   OH222241   2.110   2.155   1.802 -0.4880 -0.2007 -0.3528
 7427TIP3    H122242   2.173   2.110   1.859 -0.1465  1.3539  0.5528
 7427TIP3    H222243   2.074   2.224   1.856 -3.0864 -1.0789 -0.8306
 7428TIP3   OH222244   5.827   3.960   2.559  0.0082 -0.0210  0.1426
 7428TIP3    H122245   5.906   3.914   2.532  0.1605  0.0929  0.3939
 7428TIP3    H222246   5.758   3.893   2.555 -0.4131  0.4563 -2.5447
 7429TIP3   OH222247   6.792   3.554   5.567 -0.2927  0.0118  0.1721
 7429TIP3    H122248   6.751   3.626   5.518 -0.4325 -0.5288 -0.5140
 7429TIP3    H222249   6.882   3.583   5.581 -0.1575  0.0487 -0.6870
 7430TIP3   OH222250   3.434   3.951   4.533  0.2311  0.2090 -0.4137
 7430TIP3    H122251   3.344   3.977   4.553 -0.9222 -2.1635 -1.9139
 7430TIP3    H222252   3.468   3.917   4.615 -1.1768 -1.0835 -0.3025
 7431TIP3   OH222253   7.186   1.186   6.168  0.1782  0.1178 -0.2869
 7431TIP3    H122254   7.225   1.270   6.142 -1.0157  0.4394 -1.1521
 7431TIP3    H222255   7.228   1.121   6.111 -1.5008  0.6562 -2.2777
 7432TIP3   OH222256   4.762   1.768   3.799  0.4672  0.4166  0.4649
 7432TIP3    H122257   4.715   1.731   3.724 -1.6318  0.6389  1.5744
 7432TIP3    H222258   4.842   1.804   3.762  0.0210 -0.4489 -1.4784
 7433TIP3   OH222259   5.417   1.926   0.118  0.5812 -0.7946  0.5454
 7433TIP3    H122260   5.407   1.887   0.031  0.8309 -0.9581  0.5870
 7433TIP3    H222261   5.509   1.952   0.121  0.3656  0.0121  0.4349
 7434TIP3   OH222262   7.479   0.484   1.236  0.3377  0.0911  0.0432
 7434TIP3    H122263   7.396   0.519   1.206  0.6491 -0.3307 -1.3988
 7434TIP3    H222264   7.486   0.513   1.327 -1.3866  0.0883  0.2029
 7435TIP3   OH222265   2.498   2.202   3.690 -0.3783 -0.3160 -0.1143
 7435TIP3    H122266   2.431   2.163   3.633 -0.2673 -0.3732 -0.2047
 7435TIP3    H222267   2.502   2.144   3.766 -0.5416 -0.2282 -0.0361
 7436TIP3   OH222268   6.220   4.537   5.141  0.0240  0.1858  0.1907
 7436TIP3    H122269   6.210   4.448   5.174 -1.7380  0.3517  0.1827
 7436TIP3    H222270   6.309   4.562   5.165  0.0030 -1.0028  1.6145
 7437TIP3   OH222271   4.227   5.717   2.963 -0.2339  0.4958  0.5638
 7437TIP3    H122272   4.131   5.720   2.964 -0.2461  1.5400  2.8061
 7437TIP3    H222273   4.252   5.780   2.895 -1.1281  0.3245  0.0609
 7438TIP3   OH222274   3.247   1.527   4.198 -0.2763 -0.2632  0.1303
 7438TIP3    H122275   3.298   1.447   4.187 -2.2814 -1.4419 -1.2613
 7438TIP3    H222276   3.217   1.524   4.289  2.6799  0.9240  1.2950
 7439TIP3   OH222277   0.996   6.953   1.059  0.3917  0.5285  0.3548
 7439TIP3    H122278   1.027   6.970   1.148  0.5555 -3.1982  1.1939
 7439TIP3    H222279   1.035   6.869   1.036 -2.7485 -0.5713 -1.6844
 7440TIP3   OH222280   1.771   6.307   5.198  0.1794 -0.2909 -0.1929
 7440TIP3    H122281   1.735   6.254   5.269 -0.9008  1.8331  0.9485
 7440TIP3    H222282   1.729   6.393   5.208  1.4968  0.6766 -2.2058
 7441TIP3   OH222283   5.733   2.106   5.524 -0.1597 -0.1282 -0.0849
 7441TIP3    H122284   5.816   2.062   5.504 -0.7082 -1.1448 -0.1592
 7441TIP3    H222285   5.666   2.047   5.492 -0.9327  0.6813 -0.0049
 7442TIP3   OH222286   7.455   3.490   1.996 -0.1743 -0.5302 -0.1687
 7442TIP3    H122287   7.443   3.447   1.911 -0.9997 -0.2631 -0.1969
 7442TIP3    H222288   7.501   3.571   1.975 -0.7858 -0.2442 -0.4264
 7443TIP3   OH222289   0.826   6.575   3.023  0.5703  0.1661  0.1094
 7443TIP3    H122290   0.849   6.667   3.035 -1.0154  0.5980  0.1262
 7443TIP3    H222291   0.837   6.559   2.930 -0.0061  0.6449 -0.0472
 7444TIP3   OH222292   6.335   6.292   3.780  0.4037  0.4181  0.2709
 7444TIP3    H122293   6.288   6.209   3.776  0.5176  0.3551  0.2308
 7444TIP3    H222294   6.377   6.300   3.694  1.0151  0.1476  0.5354
 7445TIP3   OH222295   4.676   4.080   5.033 -0.3080 -1.0158 -0.2792
 7445TIP3    H122296   4.660   3.991   4.999  0.2372 -1.7203  1.2004
 7445TIP3    H222297   4.612   4.135   4.989 -0.3980 -2.0814 -1.5295
 7446TIP3   OH222298   5.839   0.586   0.933 -0.0387 -0.1061  0.0279
 7446TIP3    H122299   5.873   0.497   0.928  1.6895  0.5358 -1.1828
 7446TIP3    H222300   5.864   0.625   0.849  0.9610  2.0565  1.2322
 7447TIP3   OH222301   0.438   4.203   3.481 -0.5064  0.2721 -0.1880
 7447TIP3    H122302   0.394   4.187   3.397 -1.9267  1.8939  0.1984
 7447TIP3    H222303   0.408   4.290   3.508  0.4560  0.0736  1.6898
 7448TIP3   OH222304   2.200   3.094   1.306 -0.0096  0.0123  0.1125
 7448TIP3    H122305   2.118   3.048   1.323 -1.1351  1.2977 -1.5340
 7448TIP3    H222306   2.234   3.054   1.225 -0.6116  1.4887 -0.9072
 7449TIP3   OH222307   0.549   3.661   3.619  0.0141  0.2045 -0.0748
 7449TIP3    H122308   0.556   3.745   3.573  1.9216  0.1718  0.0674
 7449TIP3    H222309   0.604   3.671   3.696 -2.9386  0.1694  2.1903
 7450TIP3   OH222310   5.078   1.696   1.314  0.8844 -0.1773  0.9919
 7450TIP3    H122311   5.163   1.720   1.351  1.7379 -0.0582 -0.9467
 7450TIP3    H222312   5.083   1.601   1.304  1.5552  0.0010 -0.7833
 7451TIP3   OH222313   5.300   2.597   1.631  0.2245 -0.5009  0.3353
 7451TIP3    H122314   5.324   2.606   1.539 -0.0336  0.3946  0.3453
 7451TIP3    H222315   5.297   2.687   1.663 -0.1570 -0.7847  1.0977
 7452TIP3   OH222316   4.158   6.628   1.934 -0.3856 -0.1737  0.1967
 7452TIP3    H122317   4.167   6.556   1.996 -0.8001 -0.5863 -0.2063
 7452TIP3    H222318   4.092   6.597   1.872 -0.3145  0.4170 -0.1788
 7453TIP3   OH222319   5.348   5.156   5.078 -0.0500  0.1289  0.4370
 7453TIP3    H122320   5.328   5.216   5.007  1.3350 -0.3785 -0.4304
 7453TIP3    H222321   5.300   5.076   5.058  0.2598  0.0211  0.1184
 7454TIP3   OH222322   0.928   1.948   4.531 -0.4320  0.0519 -0.2136
 7454TIP3    H122323   0.935   1.950   4.627  0.6546 -1.8286 -0.2018
 7454TIP3    H222324   1.006   1.994   4.501  0.2178 -0.9861 -0.1623
 7455TIP3   OH222325   2.445   2.687   5.441  0.3077 -0.2845 -0.0199
 7455TIP3    H122326   2.410   2.776   5.442 -0.6812 -0.6460 -1.0601
 7455TIP3    H222327   2.430   2.656   5.351  1.4904 -1.1686  0.0675
 7456TIP3   OH222328   1.346   5.709   3.653  0.2572  0.2302  0.4372
 7456TIP3    H122329   1.297   5.658   3.718 -2.0385  1.5873 -0.1069
 7456TIP3    H222330   1.342   5.656   3.573  0.7702 -0.2303  0.7126
 7457TIP3   OH222331   6.158   6.967   3.320 -0.1314  0.1716  0.0466
 7457TIP3    H122332   6.159   6.887   3.371 -0.8353 -0.4998 -0.9403
 7457TIP3    H222333   6.068   7.001   3.329 -0.6970 -0.6929 -1.7747
 7458TIP3   OH222334   6.568   0.645   1.772  0.1918  0.5135 -0.2475
 7458TIP3    H122335   6.554   0.555   1.743  0.7169  0.5907 -0.7542
 7458TIP3    H222336   6.497   0.695   1.731  0.7077  0.5575 -1.1204
 7459TIP3   OH222337   0.804   4.267   0.956  0.3923  0.0697  0.1974
 7459TIP3    H122338   0.752   4.223   1.024  1.9488  0.0627  1.4450
 7459TIP3    H222339   0.768   4.234   0.874 -2.6342  1.2626  0.8830
 7460TIP3   OH222340   6.484   2.430   0.606 -0.6516 -0.9503  0.2243
 7460TIP3    H122341   6.446   2.402   0.522 -0.9158  0.8013 -0.2795
 7460TIP3    H222342   6.542   2.502   0.583 -1.4205  0.1638  1.6417
 7461TIP3   OH222343   1.026   3.788   0.801  0.4760  0.4755 -0.4089
 7461TIP3    H122344   1.106   3.806   0.751  0.3209 -3.1070 -2.3050
 7461TIP3    H222345   1.056   3.740   0.878  0.2415 -1.6047 -1.5327
 7462TIP3   OH222346   3.264   1.846   2.429 -0.2583 -0.2133 -0.1588
 7462TIP3    H122347   3.179   1.833   2.386 -0.1736 -0.6393 -0.1991
 7462TIP3    H222348   3.326   1.854   2.357 -0.2604  0.1203 -0.1292
 7463TIP3   OH222349   0.175   6.109   5.089  0.0116  0.3991  0.4033
 7463TIP3    H122350   0.245   6.069   5.141  2.1888  1.3135 -1.6159
 7463TIP3    H222351   0.138   6.176   5.146  2.0740  1.1398  0.9669
 7464TIP3   OH222352   6.550   3.700   4.042  0.3819  0.3221  0.2555
 7464TIP3    H122353   6.584   3.756   3.973  0.3780  0.3239  0.2555
 7464TIP3    H222354   6.552   3.754   4.121  2.5193 -0.3470  0.7506
 7465TIP3   OH222355   1.637   0.313   0.131  0.2889 -0.3453  0.0640
 7465TIP3    H122356   1.706   0.312   0.197  1.4602 -1.2579 -1.1107
 7465TIP3    H222357   1.657   0.238   0.074 -1.9938 -0.9754 -0.0116
 7466TIP3   OH222358   3.248   6.252   4.109 -0.1403  0.4857  0.5586
 7466TIP3    H122359   3.328   6.203   4.089 -0.6318 -0.3803  0.6830
 7466TIP3    H222360   3.278   6.342   4.124  0.5625  0.6532 -1.5534
 7467TIP3   OH222361   2.400   6.254   1.089  0.1800  0.0434 -0.2474
 7467TIP3    H122362   2.334   6.212   1.034  0.7494  0.7943 -1.5379
 7467TIP3    H222363   2.350   6.313   1.146 -0.2936  0.4240 -1.0431
 7468TIP3   OH222364   2.471   2.530   1.651  0.5851 -0.5578  0.2139
 7468TIP3    H122365   2.541   2.472   1.681  0.3955 -0.3195  1.1407
 7468TIP3    H222366   2.390   2.479   1.663  0.5101 -0.4735  0.0707
 7469TIP3   OH222367   2.542   5.684   0.649 -0.4442 -0.0081  0.3500
 7469TIP3    H122368   2.517   5.593   0.633  1.5607 -0.3150 -1.4278
 7469TIP3    H222369   2.539   5.725   0.563 -0.0434  1.2895  0.9392
 7470TIP3   OH222370   2.975   5.311   4.904  0.0609  0.2162 -0.2927
 7470TIP3    H122371   3.066   5.288   4.920 -0.4747 -1.9304  0.0132
 7470TIP3    H222372   2.979   5.390   4.851  2.1607 -0.9856 -2.1103
 7471TIP3   OH222373   3.781   0.736   5.101  0.3132 -0.4579 -0.1904
 7471TIP3    H122374   3.856   0.791   5.121  1.1423 -1.8989  0.8539
 7471TIP3    H222375   3.709   0.774   5.151  1.1511 -0.9489  1.4595
 7472TIP3   OH222376   6.451   1.761   3.270  0.2382  0.1428  0.6099
 7472TIP3    H122377   6.470   1.855   3.266  0.2591  0.2008  1.6123
 7472TIP3    H222378   6.366   1.756   3.313  1.4663 -0.3518  3.1853
 7473TIP3   OH222379   4.903   6.891   2.560  0.1531  0.3155 -0.5050
 7473TIP3    H122380   4.877   6.979   2.586 -0.7474 -0.1893  0.3373
 7473TIP3    H222381   4.910   6.896   2.464  1.8613  1.7399 -0.3638
 7474TIP3   OH222382   1.992   4.557   2.319  0.6636 -0.4573  0.0993
 7474TIP3    H122383   1.962   4.641   2.354  0.9477 -0.8605  1.3579
 7474TIP3    H222384   1.917   4.523   2.270 -0.0273 -0.2241  0.9727
 7475TIP3   OH222385   2.685   5.420   2.068 -0.2855  0.5046  0.6655
 7475TIP3    H122386   2.739   5.415   2.147 -1.0702  0.4834  1.2120
 7475TIP3    H222387   2.604   5.375   2.091 -0.8744  1.2638  0.1433
 7476TIP3   OH222388   5.508   6.534   6.094  0.4113 -0.0284  0.3143
 7476TIP3    H122389   5.492   6.462   6.155 -2.0622  1.7759  1.9865
 7476TIP3    H222390   5.468   6.505   6.012 -0.1728 -0.7448  0.8361
 7477TIP3   OH222391   5.221   6.929   1.838  0.0154  0.2100  0.2051
 7477TIP3    H122392   5.244   6.906   1.928  1.7077  0.5423 -0.1252
 7477TIP3    H222393   5.150   6.869   1.816 -0.9779  0.6374  2.0121
 7478TIP3   OH222394   7.253   1.818   3.353  0.2856  0.2467  0.1197
 7478TIP3    H122395   7.247   1.764   3.274 -1.0102  0.9124 -0.2591
 7478TIP3    H222396   7.175   1.796   3.403  0.7639  0.3151  0.9201
 7479TIP3   OH222397   5.806   2.987   0.604  0.2402  0.0313 -0.1322
 7479TIP3    H122398   5.868   2.918   0.629 -0.1830 -0.9738 -1.6965
 7479TIP3    H222399   5.720   2.946   0.615 -0.0157  0.3101 -1.0558
 7480TIP3   OH222400   1.566   4.342   6.105  0.6706 -0.1733 -0.5034
 7480TIP3    H122401   1.605   4.428   6.124  0.4338  0.1054 -1.2439
 7480TIP3    H222402   1.641   4.284   6.094  0.8294 -0.1378  0.3041
 7481TIP3   OH222403   5.984   5.878   3.407  0.0984 -0.2634  0.2421
 7481TIP3    H122404   6.043   5.815   3.446  0.6779 -0.9154 -1.5992
 7481TIP3    H222405   5.946   5.925   3.482  1.7617 -0.8636  1.5240
 7482TIP3   OH222406   7.423   2.077   2.270  0.0781  0.1852 -0.7846
 7482TIP3    H122407   7.398   2.088   2.361  0.7365  0.5504 -0.6397
 7482TIP3    H222408   7.342   2.056   2.225 -0.1056 -0.9595  0.0357
 7483TIP3   OH222409   7.076   6.211   3.375  0.0469  0.0649  0.2258
 7483TIP3    H122410   7.052   6.128   3.416  0.2009 -0.4654 -0.7396
 7483TIP3    H222411   7.165   6.198   3.344 -0.4505  0.0512 -1.2803
 7484TIP3   OH222412   1.021   0.373   0.818  0.0395  0.2684 -0.6646
 7484TIP3    H122413   0.930   0.355   0.792  0.0898 -1.9333  0.4969
 7484TIP3    H222414   1.072   0.355   0.738 -0.3497 -0.8140 -0.6921
 7485TIP3   OH222415   4.062   1.042   3.323  0.4699  0.1990  0.7451
 7485TIP3    H122416   4.151   1.050   3.358  0.8095 -1.4516  0.3427
 7485TIP3    H222417   4.020   0.978   3.380 -0.2624  0.5026  0.5502
 7486TIP3   OH222418   3.109   6.749   4.050 -0.2383  0.0804  0.2017
 7486TIP3    H122419   3.115   6.655   4.064 -0.3721  0.2467  1.4233
 7486TIP3    H222420   3.150   6.788   4.127 -2.3547  1.0405  0.9217
 7487TIP3   OH222421   5.493   4.712   0.390 -0.2743  0.0843 -0.1062
 7487TIP3    H122422   5.403   4.686   0.409  0.0212 -0.2031  0.9757
 7487TIP3    H222423   5.487   4.803   0.360 -0.8862  0.1732  0.2848
 7488TIP3   OH222424   4.063   5.790   3.412 -0.0230 -0.0354  0.0147
 7488TIP3    H122425   4.003   5.717   3.421  0.0898 -0.0823  0.3808
 7488TIP3    H222426   4.093   5.785   3.321 -1.5391  0.7413 -0.5543
 7489TIP3   OH222427   7.249   1.988   3.911  0.2710  0.0003  0.3983
 7489TIP3    H122428   7.207   2.022   3.832 -1.3455 -1.2236  0.6676
 7489TIP3    H222429   7.276   2.065   3.960  1.2929  0.7880 -1.3122
 7490TIP3   OH222430   4.784   1.854   0.541 -0.4901 -0.4435  0.7062
 7490TIP3    H122431   4.878   1.854   0.557 -0.4423 -0.0859  0.4575
 7490TIP3    H222432   4.753   1.936   0.581 -0.7271 -0.6563  0.9628
 7491TIP3   OH222433   0.189   6.292   0.620  0.1822 -0.5446 -0.1734
 7491TIP3    H122434   0.171   6.385   0.632 -0.0247 -0.5518 -0.4239
 7491TIP3    H222435   0.102   6.251   0.617  0.2782 -0.7853  0.2508
 7492TIP3   OH222436   7.056   0.208   4.949 -0.3303 -0.3719 -0.3212
 7492TIP3    H122437   6.986   0.189   5.010 -0.6550 -1.3267 -0.9745
 7492TIP3    H222438   7.136   0.189   4.998 -0.5666 -0.5798 -0.0135
 7493TIP3   OH222439   7.313   1.738   2.611  0.3260  0.2468  0.8865
 7493TIP3    H122440   7.239   1.716   2.667  0.1072  0.1445  0.5588
 7493TIP3    H222441   7.364   1.657   2.605  1.4430  0.7815  2.5671
 7494TIP3   OH222442   7.518   6.044   3.234 -0.4318  0.6656  0.4475
 7494TIP3    H122443   7.592   6.099   3.209  0.8531 -0.3444  1.8337
 7494TIP3    H222444   7.537   5.959   3.195 -1.1117  0.5139  0.4292
 7495TIP3   OH222445   5.650   6.940   0.857 -0.1509 -0.5845  0.2047
 7495TIP3    H122446   5.668   6.964   0.948 -0.1252 -1.1876  0.3642
 7495TIP3    H222447   5.588   6.868   0.864 -0.1806 -0.6024 -0.2603
 7496TIP3   OH222448   3.450   5.653   0.891 -0.6072 -0.0657  0.0231
 7496TIP3    H122449   3.401   5.732   0.867 -2.0167 -0.8483  0.1888
 7496TIP3    H222450   3.540   5.683   0.903 -1.4066  1.8561  1.7730
 7497TIP3   OH222451   0.957   6.059   1.448 -0.9353 -0.0131  0.2289
 7497TIP3    H122452   0.941   6.028   1.537 -0.6112  1.3666  0.7893
 7497TIP3    H222453   0.983   5.981   1.399 -1.9194 -0.9375  1.1300
 7498TIP3   OH222454   0.451   0.702   1.946  0.3122  0.3501 -0.1604
 7498TIP3    H122455   0.521   0.736   1.890  0.9831  1.1585  1.1280
 7498TIP3    H222456   0.479   0.613   1.967 -0.2822 -0.2126 -1.6277
 7499TIP3   OH222457   4.819   6.554   1.643  0.3264 -0.2284 -0.1824
 7499TIP3    H122458   4.765   6.620   1.686  1.8801  0.5724  0.6623
 7499TIP3    H222459   4.801   6.565   1.550 -0.0725  0.8237  0.0024
 7500TIP3   OH222460   6.219   0.758   1.917 -0.4980 -0.4566 -0.0626
 7500TIP3    H122461   6.240   0.770   1.824  1.0961  2.1094  0.5256
 7500TIP3    H222462   6.280   0.691   1.947  0.2158 -0.0232 -0.5128
 7501TIP3   OH222463   5.726   1.350   1.175 -0.0619  0.0502  0.0985
 7501TIP3    H122464   5.757   1.436   1.205 -0.8712 -0.3728  2.3809
 7501TIP3    H222465   5.650   1.369   1.120 -0.3876  0.8030  0.7857
 7502TIP3   OH222466   7.080   0.847   4.125 -0.4307  1.1892  0.6296
 7502TIP3    H122467   7.096   0.915   4.190  0.8679  1.4932  0.0302
 7502TIP3    H222468   7.166   0.805   4.113 -1.1299 -0.3859  0.7801
 7503TIP3   OH222469   3.137   5.411   5.538  0.3070 -0.1894 -0.5880
 7503TIP3    H122470   3.148   5.355   5.615  1.2273  0.1469 -0.4607
 7503TIP3    H222471   3.070   5.367   5.486 -0.1371 -0.5654  0.2747
 7504TIP3   OH222472   4.278   1.329   3.772 -0.1294  0.3704 -0.1835
 7504TIP3    H122473   4.184   1.315   3.773  0.0747 -1.4788 -1.4563
 7504TIP3    H222474   4.314   1.249   3.812  0.9522 -0.1535 -2.0976
 7505TIP3   OH222475   4.937   1.148   4.487  0.4494 -0.2272 -0.6465
 7505TIP3    H122476   4.903   1.194   4.411 -0.8394  1.4768  0.8670
 7505TIP3    H222477   5.030   1.134   4.468  0.0672 -0.2347 -2.6652
 7506TIP3   OH222478   5.482   7.048   5.972 -0.4124 -0.1328  0.2869
 7506TIP3    H122479   5.565   7.032   6.017 -0.6741 -0.2551  0.7314
 7506TIP3    H222480   5.438   6.963   5.972 -0.9155  0.1254  0.8296
 7507TIP3   OH222481   1.523   3.202   4.993 -0.0662 -0.4090 -0.2430
 7507TIP3    H122482   1.573   3.256   4.932 -0.5126 -1.0155 -1.1781
 7507TIP3    H222483   1.441   3.250   5.007 -0.9861 -1.3379 -2.0216
 7508TIP3   OH222484   3.154   2.699   4.192  0.3308  0.4979 -0.4694
 7508TIP3    H122485   3.151   2.693   4.288  1.0064 -1.1369 -0.5204
 7508TIP3    H222486   3.083   2.643   4.162  0.5599  0.4437 -0.9214
 7509TIP3   OH222487   6.000   3.730   5.533  0.0798 -0.2752  0.2583
 7509TIP3    H122488   5.906   3.731   5.553  0.0585  0.5223  0.1498
 7509TIP3    H222489   6.006   3.764   5.443  0.4217 -0.9476  0.0221
 7510TIP3   OH222490   5.412   1.718   1.204 -0.2987  0.5938  0.0598
 7510TIP3    H122491   5.409   1.662   1.282  0.2222  0.9646  0.3512
 7510TIP3    H222492   5.504   1.743   1.196 -0.1766 -0.1598 -1.1884
 7511TIP3   OH222493   7.581   4.007   5.865 -0.3804 -0.4416 -0.5867
 7511TIP3    H122494   7.617   3.918   5.862 -2.5251 -1.5005  1.4972
 7511TIP3    H222495   7.504   4.004   5.809 -0.2442  0.2234 -0.8168
 7512TIP3   OH222496   5.484   5.985   2.609  0.1885  0.3288 -0.2928
 7512TIP3    H122497   5.400   5.978   2.655  0.8562  0.6998  1.0507
 7512TIP3    H222498   5.468   6.045   2.537 -0.6199  0.6604  0.1535
 7513TIP3   OH222499   7.544   0.783   3.454 -0.2074 -0.3407 -0.1225
 7513TIP3    H122500   7.492   0.857   3.486  0.9649  0.3547  0.2234
 7513TIP3    H222501   7.520   0.710   3.511 -1.6867 -0.3562 -0.7314
 7514TIP3   OH222502   1.657   7.175   3.333 -0.0277  0.3656  0.8786
 7514TIP3    H122503   1.606   7.169   3.252 -0.5002 -0.7874  1.2389
 7514TIP3    H222504   1.699   7.089   3.340 -2.1443 -0.5781  3.2344
 7515TIP3   OH222505   6.234   0.466   1.580 -0.1655 -0.4186  0.5276
 7515TIP3    H122506   6.330   0.466   1.579 -0.1559 -1.7921  0.3704
 7515TIP3    H222507   6.211   0.527   1.650  0.8165 -0.1164  0.6043
 7516TIP3   OH222508   2.532   1.401   0.395 -0.0262 -0.0397  0.0492
 7516TIP3    H122509   2.477   1.417   0.471  1.7021  0.5897  1.2338
 7516TIP3    H222510   2.493   1.324   0.353 -1.9377  0.5596  0.6343
 7517TIP3   OH222511   5.219   3.260   6.118 -0.3289 -0.4580  0.0965
 7517TIP3    H122512   5.156   3.332   6.112  0.4815  0.2881  0.3675
 7517TIP3    H222513   5.244   3.257   6.210  2.7014  1.6602 -0.4767
 7518TIP3   OH222514   6.005   3.417   1.096 -0.1986 -0.0813 -0.2710
 7518TIP3    H122515   6.051   3.421   1.180  2.3732  0.5345 -1.5900
 7518TIP3    H222516   5.945   3.492   1.097  0.0458  0.1071  0.8738
 7519TIP3   OH222517   4.692   0.000   0.929  0.4230 -0.6801  0.8687
 7519TIP3    H122518   4.660   0.088   0.951  0.5633 -0.8410  1.7160
 7519TIP3    H222519   4.740   0.013   0.847 -1.1337 -0.3021 -0.0287
 7520TIP3   OH222520   4.705   1.802   1.390 -0.1950  0.5041  0.6470
 7520TIP3    H122521   4.754   1.844   1.320  0.5285 -0.3786  0.6121
 7520TIP3    H222522   4.730   1.849   1.470  1.0817 -0.2366  0.6992
 7521TIP3   OH222523   2.271   5.845   3.396  0.1137 -1.0939 -0.5692
 7521TIP3    H122524   2.242   5.763   3.356  0.8530 -0.4988 -2.4584
 7521TIP3    H222525   2.193   5.879   3.440 -1.0072 -1.4030 -2.2175
 7522TIP3   OH222526   7.068   6.194   1.235 -0.3735 -0.3200  0.4775
 7522TIP3    H122527   7.020   6.277   1.228 -0.5805 -0.5236 -0.6375
 7522TIP3    H222528   7.158   6.217   1.212 -0.4258 -0.4025  0.1938
 7523TIP3   OH222529   3.987   0.558   5.410  0.2916  0.4784  0.2207
 7523TIP3    H122530   4.029   0.634   5.370 -0.9282  1.1842  0.2494
 7523TIP3    H222531   4.037   0.543   5.490  1.8871 -0.1027 -0.8315
 7524TIP3   OH222532   4.285   5.064   3.606  0.1206 -0.1935 -0.2950
 7524TIP3    H122533   4.264   4.974   3.581 -1.4977 -0.1895  0.8826
 7524TIP3    H222534   4.318   5.057   3.696  2.6284  0.1461 -1.0973
 7525TIP3   OH222535   3.972   1.630   3.310  0.0181  0.3988 -0.4591
 7525TIP3    H122536   4.045   1.587   3.266 -1.0092 -4.1198  1.6489
 7525TIP3    H222537   4.009   1.664   3.391  0.0867 -0.6444 -0.0392
 7526TIP3   OH222538   3.307   5.418   5.264  0.6205  0.2387 -0.4200
 7526TIP3    H122539   3.319   5.376   5.349  0.1382 -0.2770 -0.6017
 7526TIP3    H222540   3.233   5.478   5.277  0.9544  0.6348 -0.3109
 7527TIP3   OH222541   6.326   6.942   4.909  0.5698  0.1691 -0.2555
 7527TIP3    H122542   6.402   6.956   4.965  0.1698  1.3054  0.0366
 7527TIP3    H222543   6.251   6.948   4.969  0.2485 -0.9605 -0.5305
 7528TIP3   OH222544   5.683   5.425   5.540 -0.1995 -0.1993 -0.9222
 7528TIP3    H122545   5.752   5.416   5.607  1.1858  0.2257 -2.2301
 7528TIP3    H222546   5.702   5.355   5.477 -1.5494 -0.6546 -0.8484
 7529TIP3   OH222547   2.632   0.121   1.422  0.2725 -0.4648  0.0457
 7529TIP3    H122548   2.623   0.087   1.511 -0.9239 -0.7041 -0.1599
 7529TIP3    H222549   2.543   0.129   1.389  0.6382  0.6115 -0.7752
 7530TIP3   OH222550   0.068   1.656   0.571  0.8873  0.1520 -0.0205
 7530TIP3    H122551   0.140   1.663   0.508  0.8947  0.2718  0.0014
 7530TIP3    H222552   0.111   1.642   0.655  0.8955  0.5096  0.0363
 7531TIP3   OH222553   3.414   5.118   4.727  0.5319 -0.1406  0.1062
 7531TIP3    H122554   3.321   5.141   4.729  0.3462 -0.4484 -1.9881
 7531TIP3    H222555   3.446   5.156   4.645  1.4792 -2.7049 -0.8064
 7532TIP3   OH222556   2.370   6.064   4.586  0.1590 -0.1466 -0.4473
 7532TIP3    H122557   2.298   6.117   4.621  1.2489  0.2287  1.3533
 7532TIP3    H222558   2.402   6.014   4.662  1.1476 -1.0720 -1.4309
 7533TIP3   OH222559   2.696   6.494   1.798  0.1595  0.8231  0.1922
 7533TIP3    H122560   2.667   6.559   1.862  0.5631 -0.5532  1.8232
 7533TIP3    H222561   2.690   6.410   1.843  3.4647  0.0947 -0.4838
 7534TIP3   OH222562   1.090   5.160   5.715 -0.5694  0.2052 -0.2901
 7534TIP3    H122563   1.085   5.237   5.772  1.7260 -0.0384  0.3470
 7534TIP3    H222564   1.032   5.095   5.756  0.3023  0.3670  1.2467
 7535TIP3   OH222565   5.599   2.286   4.957  0.1905  0.4154  0.2331
 7535TIP3    H122566   5.658   2.266   5.028 -1.0772 -0.7291  1.0149
 7535TIP3    H222567   5.595   2.382   4.955  2.9281  0.5900 -0.6464
 7536TIP3   OH222568   6.686   6.822   5.764  0.8733 -0.1995  0.2198
 7536TIP3    H122569   6.748   6.785   5.827 -0.4172 -0.9572  1.1136
 7536TIP3    H222570   6.661   6.748   5.709  1.4516  0.3083 -0.7629
 7537TIP3   OH222571   0.343   5.629   5.103 -0.2557 -0.0686  0.1425
 7537TIP3    H122572   0.326   5.615   5.010 -0.0155  1.0787 -0.0877
 7537TIP3    H222573   0.261   5.607   5.146 -1.0386  1.3305 -0.5541
 7538TIP3   OH222574   2.206   4.004   1.898 -0.5184 -0.0798 -0.5672
 7538TIP3    H122575   2.301   3.993   1.895 -0.4383  0.2838  0.3082
 7538TIP3    H222576   2.194   4.086   1.946 -1.3064 -0.9581  0.8007
 7539TIP3   OH222577   5.855   5.454   5.768  0.2589  0.1249 -0.4098
 7539TIP3    H122578   5.905   5.532   5.741 -2.2845  2.0390  0.0348
 7539TIP3    H222579   5.885   5.437   5.857 -0.3499  1.7257  0.1448
 7540TIP3   OH222580   0.097   1.271   2.024  0.5528 -0.1687  0.3730
 7540TIP3    H122581   0.008   1.302   2.008  0.9847  0.2931 -1.2719
 7540TIP3    H222582   0.133   1.332   2.088  0.7541  1.6883 -1.4014
 7541TIP3   OH222583   0.827   0.578   1.661  0.7040 -0.6818  0.5044
 7541TIP3    H122584   0.908   0.552   1.704  1.3762  0.8224  0.2123
 7541TIP3    H222585   0.846   0.571   1.567  1.8520  3.1054  0.2640
 7542TIP3   OH222586   7.278   6.677   0.986 -0.2686 -0.5074  0.6158
 7542TIP3    H122587   7.227   6.695   1.065  0.3532  2.7916  0.3805
 7542TIP3    H222588   7.363   6.718   1.001  0.4553 -1.2528 -1.1326
 7543TIP3   OH222589   6.815   6.656   3.396  0.2157  0.6365 -0.3051
 7543TIP3    H122590   6.806   6.575   3.345  1.4675  0.3521 -0.0937
 7543TIP3    H222591   6.908   6.675   3.394  0.6050 -0.2911  3.2592
 7544TIP3   OH222592   3.402   2.058   3.390  0.3723  0.1703  0.3804
 7544TIP3    H122593   3.424   2.148   3.366 -0.2228  0.9754  2.5916
 7544TIP3    H222594   3.333   2.033   3.328  1.0004  0.9666 -0.6793
 7545TIP3   OH222595   2.067   1.972   0.229  0.0966  0.2595  0.0279
 7545TIP3    H122596   2.138   1.911   0.207 -1.1927 -0.8828 -1.1216
 7545TIP3    H222597   2.033   2.002   0.145  0.1002  1.8967  0.5783
 7546TIP3   OH222598   4.820   5.920   1.204  0.3345 -0.2417 -0.3840
 7546TIP3    H122599   4.777   5.879   1.129 -1.2677  0.0616  0.3041
 7546TIP3    H222600   4.787   6.010   1.204 -0.0446 -0.3471  0.8909
 7547TIP3   OH222601   2.801   4.290   0.221  0.6260  0.6401 -0.0376
 7547TIP3    H122602   2.795   4.264   0.129  0.4891  0.5227  0.0046
 7547TIP3    H222603   2.736   4.360   0.230 -1.0474 -0.9042  0.5147
 7548TIP3   OH222604   0.738   0.027   0.061  0.7437  1.1142  0.5171
 7548TIP3    H122605   0.830   0.033   0.038  0.6074 -0.1535 -0.4593
 7548TIP3    H222606   0.692   0.040  -0.022  0.1281 -0.4668  0.5797
 7549TIP3   OH222607   5.391   2.193   4.361  0.2481  0.0822 -0.3403
 7549TIP3    H122608   5.424   2.105   4.344  0.6008 -0.0343  0.8423
 7549TIP3    H222609   5.421   2.244   4.286 -0.3800 -0.8923 -1.2906
 7550TIP3   OH222610   5.683   4.852   5.064  0.0952 -0.0138 -0.4936
 7550TIP3    H122611   5.638   4.824   5.144 -0.9283  2.3727 -0.1534
 7550TIP3    H222612   5.614   4.857   4.998 -0.4730  4.0616  0.1284
 7551TIP3   OH222613   7.369   6.964   2.923 -0.5111 -0.1511 -0.2641
 7551TIP3    H122614   7.323   6.880   2.929 -0.1898 -0.4477 -1.5249
 7551TIP3    H222615   7.446   6.944   2.869 -1.2710  1.2756 -1.9827
 7552TIP3   OH222616   2.745   0.504   5.686 -0.0983 -0.3772  0.8614
 7552TIP3    H122617   2.770   0.490   5.777 -1.6597 -1.2424  1.2000
 7552TIP3    H222618   2.649   0.504   5.688 -0.1703  1.3233 -0.5442
 7553TIP3   OH222619   6.351   4.334   3.172  0.4899 -0.1072 -0.1479
 7553TIP3    H122620   6.344   4.357   3.079  0.7916 -0.4147 -0.2456
 7553TIP3    H222621   6.436   4.291   3.181  0.3986 -0.2158  0.2424
 7554TIP3   OH222622   3.884   6.821   0.558  0.0656 -0.4823  0.2486
 7554TIP3    H122623   3.859   6.870   0.636  2.1767 -2.3236  2.2482
 7554TIP3    H222624   3.979   6.814   0.564  0.1758 -1.5672 -1.9625
 7555TIP3   OH222625   5.848   5.525   4.744  0.5870 -0.1076  0.2144
 7555TIP3    H122626   5.863   5.500   4.835 -2.8433  2.8903  1.8840
 7555TIP3    H222627   5.790   5.457   4.709 -0.0628 -0.0219  1.1094
 7556TIP3   OH222628   1.127   0.236   0.085  0.3580  0.2798  0.0268
 7556TIP3    H122629   1.114   0.274   0.172 -0.7826  0.2548 -0.1241
 7556TIP3    H222630   1.214   0.266   0.059 -0.5330  2.9237 -0.1635
 7557TIP3   OH222631   0.127   2.511   0.330  0.3613  0.2899  0.4390
 7557TIP3    H122632   0.189   2.471   0.269 -0.3833  0.1762 -0.2517
 7557TIP3    H222633   0.088   2.437   0.376 -0.0197  0.3028  0.1346
 7558TIP3   OH222634   1.968   0.877   5.646  0.3907 -0.0787  0.4299
 7558TIP3    H122635   1.934   0.895   5.734  1.2454 -1.2274  1.0189
 7558TIP3    H222636   2.050   0.926   5.641 -0.3310  1.1112 -0.2715
 7559TIP3   OH222637   2.238   2.188   5.659  0.0929 -0.1993  0.1313
 7559TIP3    H122638   2.177   2.262   5.663 -0.6581 -0.8515  2.1039
 7559TIP3    H222639   2.185   2.112   5.683  1.0921 -1.2277 -0.7968
 7560TIP3   OH222640   2.555   1.425   3.467  0.0941  0.0852  0.3548
 7560TIP3    H122641   2.487   1.366   3.500  1.9710 -0.5837  3.4052
 7560TIP3    H222642   2.614   1.368   3.418 -0.3389  0.2501 -0.3668
 7561TIP3   OH222643   6.891   6.370   1.889 -0.0683 -0.0348 -0.5619
 7561TIP3    H122644   6.902   6.315   1.966  1.4042 -0.2463 -0.9049
 7561TIP3    H222645   6.797   6.363   1.868 -0.5968  0.4398  1.4769
 7562TIP3   OH222646   0.965   4.161   3.038  0.0547 -0.0542 -0.0459
 7562TIP3    H122647   1.002   4.093   3.094  0.9856  0.3021 -0.2125
 7562TIP3    H222648   0.982   4.131   2.949 -2.7448 -1.3631 -0.2469
 7563TIP3   OH222649   4.980   2.375   5.410  0.0547 -0.2090 -0.2972
 7563TIP3    H122650   5.061   2.330   5.389  0.3773  0.6267 -0.8586
 7563TIP3    H222651   4.986   2.391   5.504  0.8434  0.4443 -0.4536
 7564TIP3   OH222652   3.006   0.459   1.481 -0.4361 -0.3036  0.1627
 7564TIP3    H122653   3.069   0.418   1.421  1.2096  1.9883  0.2086
 7564TIP3    H222654   2.920   0.429   1.449  0.5730 -3.3696 -0.0337
 7565TIP3   OH222655   3.611   0.648   4.629 -0.3414  0.0769 -0.1620
 7565TIP3    H122656   3.607   0.642   4.725  0.3294  1.3341 -0.0266
 7565TIP3    H222657   3.555   0.723   4.608  2.2685  2.1557 -0.3708
 7566TIP3   OH222658   3.549   5.628   5.530  0.8850 -0.3979 -0.2463
 7566TIP3    H122659   3.628   5.594   5.573  1.6235 -0.6048 -1.7037
 7566TIP3    H222660   3.577   5.711   5.493  0.3644 -0.3885 -0.6187
 7567TIP3   OH222661   3.144   4.527   1.782 -0.5179 -0.1650  0.3134
 7567TIP3    H122662   3.200   4.471   1.835 -0.6242 -1.0697 -0.4934
 7567TIP3    H222663   3.182   4.524   1.695 -0.7350  0.7469  0.1771
 7568TIP3   OH222664   4.714   3.038   0.806 -0.1013 -0.6711 -0.3563
 7568TIP3    H122665   4.713   3.101   0.878 -0.1126 -0.5753 -0.4393
 7568TIP3    H222666   4.677   2.958   0.843  2.0660 -1.3723  0.4054
 7569TIP3   OH222667   1.612   6.364   1.749  0.0501 -0.6251  0.1085
 7569TIP3    H122668   1.588   6.359   1.656 -1.3015 -0.7174  0.4531
 7569TIP3    H222669   1.603   6.275   1.781 -0.7823 -0.3565  0.6383
 7570TIP3   OH222670   1.614   7.188   5.213  0.5938  0.1118  0.1465
 7570TIP3    H122671   1.634   7.195   5.120  0.2416 -1.8517 -0.1325
 7570TIP3    H222672   1.624   7.094   5.233  0.7023  0.4871  2.0972
 7571TIP3   OH222673   4.069   1.448   4.244  0.0745 -0.1343  0.0195
 7571TIP3    H122674   4.162   1.442   4.222 -0.1715 -1.3631 -0.8432
 7571TIP3    H222675   4.046   1.539   4.227  1.0512  0.1018 -0.0816
 7572TIP3   OH222676   4.445   4.438   5.463  0.0328  0.1503  0.5432
 7572TIP3    H122677   4.474   4.522   5.498 -0.3945  0.9704 -0.9789
 7572TIP3    H222678   4.502   4.422   5.388  0.3404 -1.1087  1.0187
 7573TIP3   OH222679   7.378   2.265   0.229 -0.2673  0.4407 -0.2069
 7573TIP3    H122680   7.360   2.227   0.142  1.8517  0.8272 -0.8752
 7573TIP3    H222681   7.436   2.339   0.211  0.8883  0.0302  1.5977
 7574TIP3   OH222682   6.129   3.186   4.889 -0.0156  0.0306 -0.4597
 7574TIP3    H122683   6.177   3.241   4.827  0.6242  0.9710  0.8364
 7574TIP3    H222684   6.187   3.111   4.904 -0.0578 -0.0686 -0.7722
 7575TIP3   OH222685   0.402   5.259   2.156  0.8964  0.4309 -0.0895
 7575TIP3    H122686   0.385   5.348   2.189  3.2204 -0.0856  2.8628
 7575TIP3    H222687   0.483   5.232   2.199  0.3240 -3.1292 -0.9515
 7576TIP3   OH222688   6.616   0.749   1.471 -0.2097  0.0553  0.3611
 7576TIP3    H122689   6.691   0.709   1.428 -1.3421 -0.8157 -0.8921
 7576TIP3    H222690   6.635   0.739   1.565  0.5619 -1.4963  0.0867
 7577TIP3   OH222691   5.554   2.886   4.034 -0.4436  0.3526  0.1956
 7577TIP3    H122692   5.590   2.904   3.948 -1.1366 -0.0332 -0.1825
 7577TIP3    H222693   5.598   2.806   4.063 -1.6446 -0.6762 -0.6796
 7578TIP3   OH222694   5.022   3.497   2.489 -0.0606 -0.5794  0.0695
 7578TIP3    H122695   4.959   3.556   2.529  2.5258  2.8457 -0.4733
 7578TIP3    H222696   5.058   3.447   2.563 -1.8008 -1.0938  0.6292
 7579TIP3   OH222697   2.802   6.623   4.084 -0.2353 -0.4722 -0.5446
 7579TIP3    H122698   2.803   6.668   4.168 -0.8093  1.1306 -1.3606
 7579TIP3    H222699   2.871   6.557   4.091  0.1215  0.0289  0.9663
 7580TIP3   OH222700   6.434   3.716   3.554 -0.1716 -0.1006 -0.4958
 7580TIP3    H122701   6.420   3.810   3.545  1.7290  0.4074  1.2367
 7580TIP3    H222702   6.367   3.677   3.498 -2.5539  2.2126  0.5256
 7581TIP3   OH222703   6.178   1.907   4.359  0.2475  0.2257 -0.7497
 7581TIP3    H122704   6.092   1.935   4.389  0.4260  0.7361 -0.6957
 7581TIP3    H222705   6.169   1.901   4.263 -0.5458 -2.1746 -0.5897
 7582TIP3   OH222706   0.454   3.931   3.023  0.3965  0.6384 -0.3351
 7582TIP3    H122707   0.411   3.864   2.970 -0.5779  1.2087 -0.2920
 7582TIP3    H222708   0.537   3.947   2.978 -0.1779  0.7309 -1.3877
 7583TIP3   OH222709   6.844   1.521   5.996  0.3165  0.2032 -0.2571
 7583TIP3    H122710   6.857   1.519   5.901  1.4724  0.7040 -0.1272
 7583TIP3    H222711   6.930   1.543   6.032 -0.2111  0.5059  0.8857
 7584TIP3   OH222712   0.230   1.044   2.372 -0.0017  0.0875  0.3724
 7584TIP3    H122713   0.276   1.087   2.444 -0.3114  1.1945 -0.0742
 7584TIP3    H222714   0.282   1.067   2.295 -0.1620 -0.3664  0.1303
 7585TIP3   OH222715   3.491   2.963   3.571  0.3889 -0.6524  0.3324
 7585TIP3    H122716   3.432   2.889   3.557  0.9026 -0.9381 -0.3479
 7585TIP3    H222717   3.471   3.023   3.499 -0.5070  0.2058  1.2581
 7586TIP3   OH222718   7.182   1.320   3.829  0.0232  0.2553 -0.9110
 7586TIP3    H122719   7.270   1.345   3.801  0.7434 -1.0198  0.0747
 7586TIP3    H222720   7.180   1.342   3.922  0.2092 -1.9180 -0.3347
 7587TIP3   OH222721   4.117   3.885   3.304  0.1033  0.0329  1.1857
 7587TIP3    H122722   4.096   3.937   3.227 -0.0597  0.9254  1.8206
 7587TIP3    H222723   4.127   3.796   3.270 -0.8028  0.2597  0.2639
 7588TIP3   OH222724   2.736   6.228   2.833 -0.0193 -0.1800  0.5471
 7588TIP3    H122725   2.720   6.231   2.739  0.7202  0.3980  0.4321
 7588TIP3    H222726   2.652   6.248   2.873 -0.4098 -0.7406  0.0173
 7589TIP3   OH222727   3.926   2.448   6.205 -0.3189 -0.2566 -0.4630
 7589TIP3    H122728   3.986   2.475   6.136 -0.3788 -1.0621 -0.8503
 7589TIP3    H222729   3.983   2.416   6.275 -0.2786 -0.9726 -0.8097
 7590TIP3   OH222730   1.248   5.347   3.049 -0.3360  0.0817  0.3618
 7590TIP3    H122731   1.163   5.313   3.075 -0.3787 -0.2431 -0.2020
 7590TIP3    H222732   1.237   5.376   2.959  0.2341 -0.2539  0.1780
 7591TIP3   OH222733   0.855   2.315   4.642  0.1896 -0.2045 -0.2459
 7591TIP3    H122734   0.829   2.239   4.692 -1.2890  1.3762  1.5325
 7591TIP3    H222735   0.950   2.321   4.654 -0.0472 -0.2069  1.9576
 7592TIP3   OH222736   7.276   6.993   3.621  0.7250  0.0237 -0.4022
 7592TIP3    H122737   7.204   7.048   3.651  1.2083 -0.0697  0.9947
 7592TIP3    H222738   7.236   6.907   3.607 -0.5054  1.0530 -4.6381
 7593TIP3   OH222739   0.406   3.709   3.989 -0.3024  0.0278 -0.1330
 7593TIP3    H122740   0.411   3.717   3.894 -1.2503  1.5871 -0.0789
 7593TIP3    H222741   0.334   3.766   4.015  0.3511  0.1453  1.5819
 7594TIP3   OH222742   0.776   3.251   5.550 -0.3719 -0.4348  0.2270
 7594TIP3    H122743   0.864   3.218   5.572  0.1541 -0.9230 -2.3153
 7594TIP3    H222744   0.749   3.300   5.628  3.0070  1.4914  0.3877
 7595TIP3   OH222745   7.209   2.642   1.587  0.3259  0.3559  0.0647
 7595TIP3    H122746   7.189   2.662   1.495  1.2166 -0.5589 -0.3491
 7595TIP3    H222747   7.236   2.726   1.625  1.5506  0.4598 -0.9608
 7596TIP3   OH222748   6.347   3.238   5.337 -0.3938 -0.3015  0.1705
 7596TIP3    H122749   6.255   3.263   5.348 -0.0290  0.3928  1.9465
 7596TIP3    H222750   6.359   3.163   5.396  0.4433  0.3345  0.8346
 7597TIP3   OH222751   6.487   3.748   2.066 -0.0245  0.1118  0.0524
 7597TIP3    H122752   6.443   3.681   2.119 -0.1974  1.0126  1.1135
 7597TIP3    H222753   6.442   3.745   1.982 -0.1922 -0.9295  0.1634
 7598TIP3   OH222754   3.327   5.376   1.733  0.2727 -0.0719 -0.3635
 7598TIP3    H122755   3.244   5.422   1.720  0.3884 -0.3018 -2.0638
 7598TIP3    H222756   3.336   5.321   1.656  1.7307 -0.5112  0.0954
 7599TIP3   OH222757   6.580   1.929   1.902 -0.1052 -0.8202  0.5562
 7599TIP3    H122758   6.559   1.959   1.991  0.8614  0.5887  0.3296
 7599TIP3    H222759   6.542   1.995   1.845  1.7104 -0.1924  0.0286
 7600TIP3   OH222760   5.964   0.746   2.844  0.4165 -0.3703  0.0596
 7600TIP3    H122761   6.004   0.831   2.858  1.7424 -1.3542  2.8837
 7600TIP3    H222762   6.025   0.699   2.787  1.2041 -0.4091  0.9133
 7601TIP3   OH222763   6.438   5.880   2.060 -0.0012  0.5217 -0.3291
 7601TIP3    H122764   6.352   5.862   2.022 -0.3891  0.4151  0.5548
 7601TIP3    H222765   6.501   5.857   1.991 -0.7049  1.4022 -1.2890
 7602TIP3   OH222766   5.679   3.859   0.732 -0.2350 -0.1054 -0.0244
 7602TIP3    H122767   5.742   3.800   0.773  0.0161  0.8724  1.0651
 7602TIP3    H222768   5.623   3.886   0.804 -0.0694  1.3257 -0.4134
 7603TIP3   OH222769   5.450   2.324   3.313 -0.4172 -0.4859 -0.0389
 7603TIP3    H122770   5.490   2.367   3.388  0.4976 -1.4826  0.0774
 7603TIP3    H222771   5.357   2.317   3.336 -0.1531 -0.7793  1.0143
 7604TIP3   OH222772   3.899   1.374   6.164 -0.1395  0.5573 -0.6300
 7604TIP3    H122773   3.844   1.298   6.186  0.3185  0.2622 -0.4823
 7604TIP3    H222774   3.858   1.447   6.210 -0.8712  0.5008 -1.1765
 7605TIP3   OH222775   5.566   3.697   4.156 -0.1235  0.6473 -0.0610
 7605TIP3    H122776   5.478   3.716   4.123 -0.5164  0.9081  1.0870
 7605TIP3    H222777   5.553   3.676   4.249  1.0082  0.5365  0.0904
 7606TIP3   OH222778   6.388   2.713   4.317  0.4297 -0.0667 -0.6179
 7606TIP3    H122779   6.332   2.786   4.344  1.1556  0.8464 -1.5040
 7606TIP3    H222780   6.477   2.749   4.318  0.6949 -0.5982 -2.1403
 7607TIP3   OH222781   0.636   1.398   0.455 -0.1624 -0.6975 -0.1783
 7607TIP3    H122782   0.587   1.460   0.401  0.9293 -0.0156 -0.3998
 7607TIP3    H222783   0.612   1.420   0.545 -0.4566 -0.5370 -0.2967
 7608TIP3   OH222784   3.999   0.699   2.862 -0.0401  0.2797 -0.9794
 7608TIP3    H122785   3.952   0.699   2.779  0.0851  0.3283 -1.0517
 7608TIP3    H222786   3.931   0.697   2.929 -0.1293 -1.1596 -1.0779
 7609TIP3   OH222787   6.724   0.499   3.667  0.2227 -0.1958  0.1647
 7609TIP3    H122788   6.720   0.571   3.730 -1.9825  0.4249 -0.5836
 7609TIP3    H222789   6.779   0.533   3.596 -0.0097  0.4126  0.2629
 7610TIP3   OH222790   6.601   3.757   2.522  0.2503  0.1419 -0.1453
 7610TIP3    H122791   6.680   3.767   2.468 -0.7844 -0.7395 -1.9266
 7610TIP3    H222792   6.531   3.743   2.459 -1.1603 -0.2437  1.4361
 7611TIP3   OH222793   1.613   0.900   5.791 -0.3433  0.0533  0.1680
 7611TIP3    H122794   1.627   0.993   5.809 -0.9341  0.0757  0.5380
 7611TIP3    H222795   1.618   0.858   5.877  0.2617 -0.3097 -0.0346
 7612TIP3   OH222796   4.596   4.793   3.683 -0.3593  0.3080  0.1496
 7612TIP3    H122797   4.546   4.715   3.707 -1.4690  1.1891  0.7837
 7612TIP3    H222798   4.687   4.768   3.696 -0.5369 -1.5103 -1.5089
 7613TIP3   OH222799   0.739   3.465   4.419  0.4415  0.0823 -0.1940
 7613TIP3    H122800   0.802   3.498   4.483  0.5774 -1.2567  0.4150
 7613TIP3    H222801   0.774   3.379   4.394  0.5088  0.6763 -2.2746
 7614TIP3   OH222802   7.003   2.831   2.603 -0.2084  0.3567 -0.6249
 7614TIP3    H122803   6.919   2.785   2.618  0.2576 -1.0780 -2.0846
 7614TIP3    H222804   6.977   2.920   2.582 -1.2158  0.6021  1.3696
 7615TIP3   OH222805   3.793   2.031   2.639 -0.0214 -0.2917  0.1173
 7615TIP3    H122806   3.716   2.065   2.684  0.4149  1.8620 -0.6311
 7615TIP3    H222807   3.785   2.062   2.549  1.3036 -0.7044 -0.1758
 7616TIP3   OH222808   4.717   0.946   1.851  0.2689  0.3707  0.8636
 7616TIP3    H122809   4.713   0.964   1.757  0.8200 -1.4216  0.4645
 7616TIP3    H222810   4.776   1.013   1.886  2.6786 -0.8687 -0.6153
 7617TIP3   OH222811   1.718   4.297   5.064 -0.5000 -0.2391 -0.1968
 7617TIP3    H122812   1.667   4.373   5.091 -1.9398 -0.8926 -0.9705
 7617TIP3    H222813   1.802   4.307   5.110 -0.1697  2.4203 -1.1620
 7618TIP3   OH222814   7.039   6.214   5.735 -0.1620 -0.6836  0.1531
 7618TIP3    H122815   6.945   6.224   5.721 -0.2626 -0.9492  0.6024
 7618TIP3    H222816   7.046   6.138   5.793  0.4101 -1.5795 -1.0426
 7619TIP3   OH222817   5.512   3.174   5.094 -0.1060  0.5817  0.1667
 7619TIP3    H122818   5.426   3.145   5.065  0.2153  0.1730 -0.4021
 7619TIP3    H222819   5.540   3.108   5.158  0.3157  0.0165 -0.5877
 7620TIP3   OH222820   7.512   0.357   0.442  0.3545  0.2100 -0.0736
 7620TIP3    H122821   7.532   0.273   0.400  0.5626  1.3455 -2.4590
 7620TIP3    H222822   7.447   0.337   0.509 -0.8914 -1.6398 -1.7255
 7621TIP3   OH222823   6.952   6.469   4.212 -0.3246  0.0276  0.8988
 7621TIP3    H122824   6.886   6.406   4.184 -0.7107  1.2985 -1.2006
 7621TIP3    H222825   6.910   6.555   4.202  1.0353  0.7638  1.2645
 7622TIP3   OH222826   2.810   0.139   0.178 -0.0866  0.4446 -0.3167
 7622TIP3    H122827   2.747   0.209   0.159 -0.6204  0.3336  0.9567
 7622TIP3    H222828   2.886   0.160   0.124 -0.0819  2.2419  0.3157
 7623TIP3   OH222829   2.756   2.320   5.397  0.6906  0.2855 -0.5420
 7623TIP3    H122830   2.746   2.241   5.451 -0.7869  1.7524  1.4685
 7623TIP3    H222831   2.797   2.384   5.456 -1.0425  1.9639 -1.0779
 7624TIP3   OH222832   5.821   0.975   1.555  0.0394 -0.3015  0.2496
 7624TIP3    H122833   5.815   0.884   1.524 -1.9878  0.0834 -0.6267
 7624TIP3    H222834   5.784   1.027   1.483  0.3271  1.1362  1.1192
 7625TIP3   OH222835   5.633   4.707   5.431  0.0820 -0.3284 -0.0317
 7625TIP3    H122836   5.622   4.643   5.361 -1.3841 -0.9079  0.6789
 7625TIP3    H222837   5.705   4.762   5.402 -0.5350 -0.4938 -2.0497
 7626TIP3   OH222838   0.251   1.086   2.661  0.0112 -0.3748 -0.8143
 7626TIP3    H122839   0.326   1.062   2.715  0.0249  0.4412 -0.4518
 7626TIP3    H222840   0.226   1.005   2.616 -0.5772 -1.2941  1.0812
 7627TIP3   OH222841   7.431   1.863   0.837  0.2313 -0.1965  0.1420
 7627TIP3    H122842   7.478   1.947   0.836 -0.6710  0.3602  1.4802
 7627TIP3    H222843   7.344   1.885   0.868 -0.2552 -1.5431 -0.2200
 7628TIP3   OH222844   4.613   4.523   5.223 -0.3471 -0.8088 -0.3956
 7628TIP3    H122845   4.682   4.548   5.284 -1.0767 -1.9507  0.9457
 7628TIP3    H222846   4.658   4.475   5.154  0.3411 -0.5535 -0.1278
 7629TIP3   OH222847   1.095   2.192   4.767  0.4415 -0.1935  0.4185
 7629TIP3    H122848   1.118   2.109   4.809  2.4586  0.8816  1.5657
 7629TIP3    H222849   1.092   2.255   4.839  0.0326  0.9642 -0.5722
 7630TIP3   OH222850   1.678   1.031   1.041 -0.3175  0.4463 -0.3782
 7630TIP3    H122851   1.591   1.046   1.077 -0.6974 -0.2803 -0.9538
 7630TIP3    H222852   1.670   1.055   0.949  0.1870  0.6992 -0.3603
 7631TIP3   OH222853   6.834   5.751   2.766  0.2101 -0.0371  0.3936
 7631TIP3    H122854   6.892   5.731   2.693 -1.8684 -1.0557 -1.0771
 7631TIP3    H222855   6.807   5.842   2.750  0.9821  0.2687  0.7984
 7632TIP3   OH222856   6.973   6.303   4.915 -0.4714  0.2999  0.5682
 7632TIP3    H122857   7.003   6.221   4.954  0.8391  1.4289  2.0345
 7632TIP3    H222858   6.877   6.297   4.919 -0.4683 -1.7026 -0.6318
 7633TIP3   OH222859   5.719   6.315   5.428  0.0945  0.1347 -0.2898
 7633TIP3    H122860   5.663   6.244   5.459  0.5532  0.8418  2.3912
 7633TIP3    H222861   5.661   6.370   5.376 -1.4868  0.2863  1.5341
 7634TIP3   OH222862   5.893   2.685   1.701 -0.0583 -0.1839 -0.1095
 7634TIP3    H122863   5.899   2.593   1.673  0.9983 -0.0825 -0.2344
 7634TIP3    H222864   5.836   2.726   1.636 -0.4352 -0.7212 -0.1243
 7635TIP3   OH222865   6.805   3.296   5.480  0.5832  0.1857 -0.6982
 7635TIP3    H122866   6.847   3.380   5.500  0.6163  0.4774 -1.9302
 7635TIP3    H222867   6.715   3.306   5.510  1.2400 -0.2978  1.6011
 7636TIP3   OH222868   2.195   6.821   1.163  0.0638 -0.0507 -0.1608
 7636TIP3    H122869   2.263   6.888   1.157  0.0179 -0.0915 -1.3152
 7636TIP3    H222870   2.240   6.740   1.139 -0.5752  0.0632 -1.8575
 7637TIP3   OH222871   7.348   5.663   3.329 -0.4427 -0.1256 -0.2275
 7637TIP3    H122872   7.394   5.580   3.320 -3.2420 -1.7683 -0.7206
 7637TIP3    H222873   7.368   5.711   3.248 -0.0991 -1.0597 -0.7074
 7638TIP3   OH222874   4.434   3.323   3.563 -0.1654  0.0386 -0.1388
 7638TIP3    H122875   4.383   3.399   3.534 -0.8888  0.0020  0.9473
 7638TIP3    H222876   4.381   3.284   3.633  0.6055 -0.9629 -0.0830
 7639TIP3   OH222877   0.290   2.464   0.072 -0.0098  0.0431 -0.0420
 7639TIP3    H122878   0.320   2.411  -0.002  0.8440  0.3132  0.0978
 7639TIP3    H222879   0.253   2.542   0.032 -1.2182 -0.6062 -0.2461
 7640TIP3   OH222880   5.079   3.079   2.856 -0.1546  0.8470 -0.3230
 7640TIP3    H122881   5.001   3.121   2.821 -0.3920  1.7689  1.2277
 7640TIP3    H222882   5.126   3.048   2.778 -1.4158  1.3956 -1.3467
 7641TIP3   OH222883   2.751   6.899   5.817 -0.0173 -0.1537  0.4297
 7641TIP3    H122884   2.846   6.905   5.825 -0.0607 -0.4910  1.3015
 7641TIP3    H222885   2.735   6.811   5.784 -0.0554 -0.4141  1.1126
 7642TIP3   OH222886   1.566   0.150   1.295  0.2814  0.1473  0.1417
 7642TIP3    H122887   1.583   0.159   1.201 -0.5663 -0.3576 -0.0729
 7642TIP3    H222888   1.601   0.064   1.318  1.1321  0.5695  0.4476
 7643TIP3   OH222889   1.774   3.139   4.655  0.1057 -0.2629  0.2679
 7643TIP3    H122890   1.835   3.191   4.604 -1.6852  1.3942 -0.2898
 7643TIP3    H222891   1.688   3.154   4.615 -0.7843 -2.1384  1.2809
 7644TIP3   OH222892   0.181   2.353   2.770 -0.0679  0.8592 -0.0365
 7644TIP3    H122893   0.143   2.392   2.692 -0.0748  0.2527 -0.3422
 7644TIP3    H222894   0.273   2.377   2.768 -0.2030  1.4013  0.1231
 7645TIP3   OH222895   1.182   1.041   2.902  0.4687  0.3965 -0.2173
 7645TIP3    H122896   1.247   1.109   2.912  0.4122  0.2789  1.0880
 7645TIP3    H222897   1.224   0.961   2.934  0.0474  0.1005 -0.3748
 7646TIP3   OH222898   3.066   6.467   3.538 -0.0498  0.0526  0.1418
 7646TIP3    H122899   2.970   6.468   3.535 -0.0711 -1.2064 -0.7398
 7646TIP3    H222900   3.088   6.483   3.629 -1.1505 -0.6178  0.5406
 7647TIP3   OH222901   1.578   4.774   5.411  0.0490 -1.1056  0.2541
 7647TIP3    H122902   1.542   4.785   5.323  1.6928 -0.2035 -0.3600
 7647TIP3    H222903   1.526   4.833   5.466 -0.3987 -0.9754 -0.2992
 7648TIP3   OH222904   4.405   6.697   1.471 -0.2490 -0.5438  0.1804
 7648TIP3    H122905   4.399   6.629   1.404  0.1200 -0.6037  0.2098
 7648TIP3    H222906   4.406   6.779   1.422 -2.6507 -0.4194  0.1864
 7649TIP3   OH222907   3.349   0.715   1.193  0.1267  0.1977  0.0716
 7649TIP3    H122908   3.321   0.748   1.278  0.6702  1.7878 -0.3481
 7649TIP3    H222909   3.367   0.622   1.209  1.5671  0.7530  2.0244
 7650TIP3   OH222910   7.035   6.039   5.938 -0.1452 -0.1085 -0.0930
 7650TIP3    H122911   6.964   6.077   5.990  0.8729  2.8140 -0.7080
 7650TIP3    H222912   7.102   6.017   6.003 -0.4519 -0.1820  0.2033
 7651TIP3   OH222913   4.640   6.036   2.975  0.2315  0.3435  0.1668
 7651TIP3    H122914   4.602   6.112   2.931  0.8486  0.5795  0.0224
 7651TIP3    H222915   4.735   6.049   2.966  0.3477 -1.3856 -1.4478
 7652TIP3   OH222916   7.250   4.795   0.714 -0.3384 -0.2222  0.2573
 7652TIP3    H122917   7.304   4.757   0.783 -0.9105 -1.1235  0.2245
 7652TIP3    H222918   7.290   4.881   0.697  1.9461 -1.4003 -0.7609
 7653TIP3   OH222919   2.813   5.589   4.080  0.2031  0.2993  0.4737
 7653TIP3    H122920   2.756   5.525   4.038 -0.2441  1.4065 -0.6542
 7653TIP3    H222921   2.898   5.576   4.038  1.4703 -2.6879  3.4895
 7654TIP3   OH222922   0.512   5.192   3.967 -0.3339 -0.5293 -0.3384
 7654TIP3    H122923   0.557   5.148   4.040 -0.3367  0.0373  0.0069
 7654TIP3    H222924   0.552   5.154   3.889  1.5808  0.7712 -0.0512
 7655TIP3   OH222925   2.065   0.836   1.103 -0.2542 -1.2251 -0.4901
 7655TIP3    H122926   1.972   0.857   1.110 -0.1498 -1.1225  0.7763
 7655TIP3    H222927   2.067   0.740   1.105 -0.3884 -1.2523 -1.4090
 7656TIP3   OH222928   3.001   2.777   2.915 -0.2000 -0.1616 -0.0102
 7656TIP3    H122929   2.944   2.729   2.975 -0.8020 -0.5382 -0.8630
 7656TIP3    H222930   3.027   2.855   2.963 -1.1838 -0.1442  0.5055
 7657TIP3   OH222931   3.794   5.266   0.877  0.2906  0.0606 -0.2775
 7657TIP3    H122932   3.850   5.224   0.943 -0.7630  0.1011  0.6842
 7657TIP3    H222933   3.835   5.246   0.793  1.5467 -0.1883  0.3759
 7658TIP3   OH222934   5.246   0.031   4.219  0.2883 -0.0933 -0.2588
 7658TIP3    H122935   5.327  -0.019   4.228 -0.2221 -1.0844 -0.9113
 7658TIP3    H222936   5.238   0.080   4.300  0.8152 -1.0856  0.4078
 7659TIP3   OH222937   2.469   5.002   1.067  0.2084  0.2867 -0.2718
 7659TIP3    H122938   2.435   4.944   1.135 -0.3924  0.9295 -0.0166
 7659TIP3    H222939   2.562   4.978   1.060 -0.0144 -0.6519 -0.1252
 7660TIP3   OH222940   0.442   3.743   2.821  0.1494  0.0310 -0.1349
 7660TIP3    H122941   0.500   3.685   2.772 -1.8809 -2.1284 -0.1277
 7660TIP3    H222942   0.355   3.727   2.785 -0.6548  2.3384  0.6090
 7661TIP3   OH222943   5.212   4.569   4.321 -0.0585 -0.2560 -0.0589
 7661TIP3    H122944   5.169   4.492   4.360 -0.9300  1.1867  2.0270
 7661TIP3    H222945   5.269   4.533   4.254 -0.1259 -2.7607  1.1100
 7662TIP3   OH222946   4.298   0.160   1.760 -0.6723  0.1869  0.1365
 7662TIP3    H122947   4.208   0.152   1.731 -1.0413  1.8303  0.7438
 7662TIP3    H222948   4.350   0.156   1.679 -1.3521  0.2379 -0.3087
 7663TIP3   OH222949   0.124   1.166   6.067  0.0012  0.0327 -0.5095
 7663TIP3    H122950   0.079   1.204   6.142  0.6758 -1.3040  0.6157
 7663TIP3    H222951   0.065   1.180   5.993 -1.6250 -0.4768  0.6536
 7664TIP3   OH222952   5.310   6.261   4.514 -0.3360 -0.7118 -0.2818
 7664TIP3    H122953   5.270   6.176   4.534  1.1885 -1.2567  0.6386
 7664TIP3    H222954   5.292   6.315   4.592  1.1782 -1.1682  0.4297
 7665TIP3   OH222955   1.573   6.375   1.482  0.2560  0.8890  0.2721
 7665TIP3    H122956   1.485   6.404   1.458 -0.5533 -0.5272  1.3809
 7665TIP3    H222957   1.631   6.424   1.424 -1.3424  0.9113 -1.3948
 7666TIP3   OH222958   2.786   2.661   5.300  0.2488 -0.3429  0.3184
 7666TIP3    H122959   2.716   2.669   5.365  0.4887  0.1537  0.5176
 7666TIP3    H222960   2.858   2.620   5.347 -0.5421 -2.6623 -0.3737
 7667TIP3   OH222961   4.274   4.505   0.196  0.9062 -0.0069  0.0682
 7667TIP3    H122962   4.262   4.558   0.118 -0.0008  0.0521  0.2340
 7667TIP3    H222963   4.224   4.550   0.264  2.2579  0.3400  0.8911
 7668TIP3   OH222964   1.821   2.139   5.845 -0.0285 -0.2654 -0.4493
 7668TIP3    H122965   1.764   2.072   5.808 -1.2529 -0.4003  1.5620
 7668TIP3    H222966   1.882   2.091   5.901  0.3619  0.1260 -0.5307
 7669TIP3   OH222967   6.649   1.963   2.203  0.1509 -0.0045 -0.2294
 7669TIP3    H122968   6.679   1.875   2.180  1.1794  0.1037  0.6021
 7669TIP3    H222969   6.720   2.021   2.175  0.2266  0.3896  0.7345
 7670TIP3   OH222970   2.615   4.040   4.033  0.1214  0.5251  0.0602
 7670TIP3    H122971   2.698   4.044   4.082  0.1975 -0.9132  0.0755
 7670TIP3    H222972   2.639   4.067   3.945  0.6826 -0.1362 -0.0052
 7671TIP3   OH222973   3.953   0.878   3.826 -0.0771  0.7224  0.2789
 7671TIP3    H122974   3.932   0.874   3.920  2.8511  2.5484  1.1527
 7671TIP3    H222975   4.022   0.813   3.814  0.1974  1.1295 -0.4007
 7672TIP3   OH222976   1.454   6.995   5.495 -0.5539  0.4659 -0.2525
 7672TIP3    H122977   1.389   6.924   5.497  0.4043 -0.6193 -2.7552
 7672TIP3    H222978   1.538   6.951   5.487  0.0747  1.8412 -1.8373
 7673TIP3   OH222979   5.797   1.097   1.309  0.5833 -0.0182  0.1624
 7673TIP3    H122980   5.730   1.043   1.267 -0.0556  0.2749  0.8015
 7673TIP3    H222981   5.774   1.187   1.285  1.6828 -0.0018 -0.9533
 7674TIP3   OH222982   0.283   1.883   4.171  0.0623  0.1484  0.5074
 7674TIP3    H122983   0.269   1.931   4.252  0.4511  0.0622  0.6283
 7674TIP3    H222984   0.376   1.860   4.173 -0.4608 -2.1305  1.2902
 7675TIP3   OH222985   3.916   1.310   1.081 -0.2715 -0.4636  0.3436
 7675TIP3    H122986   3.894   1.333   1.172  1.9159 -0.7063  0.9944
 7675TIP3    H222987   3.951   1.390   1.043 -1.2581 -0.3426 -0.3375
 7676TIP3   OH222988   6.702   6.269   3.685  0.1958 -0.3018 -0.5384
 7676TIP3    H122989   6.762   6.196   3.665 -1.1847 -2.0122  1.1542
 7676TIP3    H222990   6.756   6.331   3.734  1.2598 -0.4430 -1.4899
 7677TIP3   OH222991   1.844   3.012   1.103 -0.5395  0.2706 -0.4037
 7677TIP3    H122992   1.774   2.948   1.087  0.2359 -1.1420  1.5210
 7677TIP3    H222993   1.806   3.096   1.077 -2.6277 -0.5835 -0.2811
 7678TIP3   OH222994   6.002   2.319   6.084  0.3875  0.4331 -0.5133
 7678TIP3    H122995   6.043   2.353   6.005  0.2183  1.7937 -0.0536
 7678TIP3    H222996   5.917   2.287   6.056 -0.0594  1.7819 -0.7502
 7679TIP3   OH222997   3.306   0.951   3.961  0.2392 -0.0968 -0.0155
 7679TIP3    H122998   3.337   0.901   3.885  2.2800 -0.4800  1.0200
 7679TIP3    H222999   3.346   1.037   3.951  1.0665 -0.3617  0.9693
 7680TIP3   OH223000   7.191   0.291   4.582 -0.0984 -0.0669 -0.0874
 7680TIP3    H123001   7.253   0.240   4.633 -0.5597  0.5514  1.1465
 7680TIP3    H223002   7.176   0.240   4.503 -0.6804 -1.9337  1.1741
 7681TIP3   OH223003   4.916   4.379   1.573  0.5650  0.2429 -0.7336
 7681TIP3    H123004   4.876   4.295   1.549  0.2420  0.5891 -1.4121
 7681TIP3    H223005   4.986   4.392   1.509  0.8190  0.3483 -0.4399
 7682TIP3   OH223006   0.030   2.735   0.220  0.3487  0.4092  0.0943
 7682TIP3    H123007  -0.048   2.704   0.173 -0.2911  2.5052 -0.3360
 7682TIP3    H223008   0.063   2.658   0.265  0.5092 -1.5651 -3.0969
 7683TIP3   OH223009   7.081   5.646   3.145  0.0173  0.1061  0.3274
 7683TIP3    H123010   7.146   5.577   3.136  0.0356  0.1829 -0.2170
 7683TIP3    H223011   7.032   5.624   3.224 -1.4646 -1.8193 -1.0186
 7684TIP3   OH223012   3.850   4.923   4.344 -0.4278  0.0030  0.0446
 7684TIP3    H123013   3.939   4.954   4.327 -0.4336  0.1850  0.3410
 7684TIP3    H223014   3.855   4.828   4.330 -0.0565 -0.0661  0.5811
 7685TIP3   OH223015   1.445   3.699   4.632 -0.3641  0.3885  0.1255
 7685TIP3    H123016   1.377   3.735   4.690 -0.9632 -1.3266  0.5381
 7685TIP3    H223017   1.406   3.702   4.545 -0.2199  1.1544  0.0778
 7686TIP3   OH223018   0.550   1.705   5.042  0.1404 -0.2485  0.3692
 7686TIP3    H123019   0.559   1.685   4.948  0.2780 -1.9461  0.7018
 7686TIP3    H223020   0.613   1.647   5.084 -2.1802 -1.9421  1.7298
 7687TIP3   OH223021   1.430   2.596   2.894  0.4360  0.0905  0.0868
 7687TIP3    H123022   1.437   2.691   2.884  1.4917 -0.0091 -0.2733
 7687TIP3    H223023   1.445   2.581   2.987  1.1831  0.2089 -0.0117
 7688TIP3   OH223024   2.519   4.178   3.237  0.4908  0.3765 -0.2917
 7688TIP3    H123025   2.565   4.105   3.198  0.3210 -0.1586  0.4769
 7688TIP3    H223026   2.572   4.203   3.313 -0.2439  0.0245  0.3594
 7689TIP3   OH223027   7.355   6.402   4.508 -0.3812  0.1223 -0.3614
 7689TIP3    H123028   7.283   6.340   4.517 -0.0134 -1.0717 -3.9009
 7689TIP3    H223029   7.314   6.482   4.475 -0.3707  0.3939  0.2662
 7690TIP3   OH223030   3.738   5.228   2.996 -0.4482  0.0432 -0.7930
 7690TIP3    H123031   3.782   5.259   3.076 -0.6031 -1.3618 -0.1271
 7690TIP3    H223032   3.726   5.307   2.943  2.9086  0.5348 -1.0382
 7691TIP3   OH223033   0.210   3.628   4.650  0.0042  0.5977  0.0186
 7691TIP3    H123034   0.201   3.562   4.582  0.5374 -0.3138  0.8132
 7691TIP3    H223035   0.162   3.704   4.616 -1.6633 -0.5882 -0.3807
 7692TIP3   OH223036   2.663   2.774   3.395 -0.3642  0.1038  0.1538
 7692TIP3    H123037   2.701   2.804   3.477  4.5121 -0.9714 -1.3562
 7692TIP3    H223038   2.625   2.853   3.356 -0.5570  1.1480  2.3218
 7693TIP3   OH223039   5.856   5.863   1.735  0.0725 -0.6263 -0.4831
 7693TIP3    H123040   5.859   5.773   1.701  0.2917 -0.7358 -0.1804
 7693TIP3    H223041   5.930   5.906   1.694 -0.5449 -0.3236 -1.3260
 7694TIP3   OH223042   2.353   3.538   4.511  0.2180  0.3857 -0.1339
 7694TIP3    H123043   2.435   3.505   4.548  0.5928  0.2997 -0.9990
 7694TIP3    H223044   2.353   3.631   4.532 -0.0292  0.1700  0.8713
 7695TIP3   OH223045   1.746   0.568   0.023  0.0616 -0.2961 -0.1291
 7695TIP3    H123046   1.698   0.490   0.052 -0.9259  0.4652  0.3222
 7695TIP3    H223047   1.808   0.584   0.094 -1.5381  0.8573  1.0672
 7696TIP3   OH223048   2.043   2.309   3.996 -0.6410 -0.1109  0.0392
 7696TIP3    H123049   2.113   2.372   3.981 -1.2398  0.4855 -0.3393
 7696TIP3    H223050   2.055   2.243   3.928 -1.2577  0.7352 -0.9394
 7697TIP3   OH223051   4.420   5.902   1.885  0.0817  0.1284  0.0889
 7697TIP3    H123052   4.498   5.846   1.888 -0.5731 -1.0135 -2.2235
 7697TIP3    H223053   4.442   5.969   1.821  0.1979  1.5585  1.5661
 7698TIP3   OH223054   3.202   1.122   4.507 -0.4917  0.7389 -0.4135
 7698TIP3    H123055   3.184   1.205   4.551  0.3949 -0.2002  1.8876
 7698TIP3    H223056   3.295   1.126   4.487 -0.4886  0.3824 -0.4685
 7699TIP3   OH223057   0.594   3.770   0.191 -0.0498 -0.3612  0.1868
 7699TIP3    H123058   0.657   3.837   0.216 -0.7728  0.1187  0.7722
 7699TIP3    H223059   0.647   3.696   0.162  0.7663  0.6540 -1.0049
 7700TIP3   OH223060   7.256   0.554   5.252  0.0582 -0.4734 -0.4198
 7700TIP3    H123061   7.276   0.590   5.338 -0.7914  0.1118 -0.4571
 7700TIP3    H223062   7.271   0.460   5.261  1.2991 -0.2569 -0.0249
 7701TIP3   OH223063   3.223   6.133   0.037 -0.8884  0.2602  0.1212
 7701TIP3    H123064   3.207   6.084   0.118 -0.3911  3.2156  2.1675
 7701TIP3    H223065   3.314   6.113   0.014 -0.2379  1.2062  1.7178
 7702TIP3   OH223066   4.696   2.936   2.702  0.0018  0.2089 -0.0958
 7702TIP3    H123067   4.616   2.888   2.721 -0.8322  1.9755  1.1496
 7702TIP3    H223068   4.674   2.991   2.627  0.6346 -0.5852 -0.8833
 7703TIP3   OH223069   4.099   2.598   1.739  0.8135 -0.3644  0.2782
 7703TIP3    H123070   4.072   2.542   1.812 -0.0308 -0.2073  0.0941
 7703TIP3    H223071   4.112   2.684   1.779  1.2348 -0.4820  0.4002
 7704TIP3   OH223072   2.741   2.044   5.444 -0.1698 -0.4938  0.6830
 7704TIP3    H123073   2.775   2.008   5.526 -1.0733  1.5238  2.0357
 7704TIP3    H223074   2.661   1.995   5.427 -0.7811  0.0469  1.8679
 7705TIP3   OH223075   7.489   3.555   6.183  0.6245 -0.9057 -0.1204
 7705TIP3    H123076   7.452   3.643   6.179  1.1745 -0.6995 -0.8997
 7705TIP3    H223077   7.418   3.498   6.154  0.8959 -0.5083 -1.6273
 7706TIP3   OH223078   5.680   5.342   4.540  0.4756 -0.0747  0.6571
 7706TIP3    H123079   5.688   5.272   4.474  0.8428  0.7282 -0.1730
 7706TIP3    H223080   5.664   5.295   4.622  1.4755 -1.1785  0.2540
 7707TIP3   OH223081   1.898   4.825   5.105  0.0794 -0.2688 -0.6720
 7707TIP3    H123082   1.872   4.825   5.197 -1.3877  0.3823 -1.0617
 7707TIP3    H223083   1.841   4.760   5.064  0.8324 -0.6665 -1.1004
 7708TIP3   OH223084   4.863   1.281   3.966  0.0451 -0.2931 -0.2964
 7708TIP3    H123085   4.882   1.373   3.945 -1.5534 -0.1002 -1.1059
 7708TIP3    H223086   4.949   1.240   3.975  0.8487  1.6249  1.8521
 7709TIP3   OH223087   0.023   1.972   1.793 -1.1673 -0.1378  0.0036
 7709TIP3    H123088   0.010   1.891   1.841  0.3075 -0.0453  0.6034
 7709TIP3    H223089   0.035   1.944   1.702 -0.4026 -0.6227  0.2485
 7710TIP3   OH223090   4.937   0.195   3.815  0.4754 -0.1742 -0.3178
 7710TIP3    H123091   4.950   0.154   3.901 -1.4342  1.2496  0.7370
 7710TIP3    H223092   5.009   0.162   3.761  1.1474 -1.9133  1.5235
 7711TIP3   OH223093   5.601   0.681   0.598 -0.3077  0.0979 -0.0434
 7711TIP3    H123094   5.683   0.731   0.600 -0.0656 -0.2996  0.0808
 7711TIP3    H223095   5.533   0.746   0.614  0.1841 -0.0015  3.0978
 7712TIP3   OH223096   6.923   1.447   5.445 -0.3095 -0.7130  0.0950
 7712TIP3    H123097   6.943   1.475   5.355 -4.4728  2.7087 -0.0938
 7712TIP3    H223098   6.847   1.390   5.435 -0.5555 -0.6399  1.4230
 7713TIP3   OH223099   1.591   4.155   0.958  0.3486 -0.0131 -0.2511
 7713TIP3    H123100   1.505   4.199   0.956  0.3257 -0.0392  0.1370
 7713TIP3    H223101   1.635   4.187   0.880  0.2019  0.4499 -0.1506
 7714TIP3   OH223102   5.432   1.539   2.359 -0.7558 -0.1036  0.0685
 7714TIP3    H123103   5.518   1.550   2.398 -2.1838  0.7772  3.2957
 7714TIP3    H223104   5.437   1.584   2.275  2.0888 -0.7608 -0.2087
 7715TIP3   OH223105   0.966   2.012   2.114  0.1625 -0.0278  0.2082
 7715TIP3    H123106   1.048   2.028   2.068 -0.7209  1.6151 -0.9644
 7715TIP3    H223107   0.989   2.008   2.206  2.0079 -3.4105 -0.2768
 7716TIP3   OH223108   4.947   3.426   3.471 -0.1498 -0.1159  0.0975
 7716TIP3    H123109   4.853   3.418   3.489 -0.2316 -3.3954 -1.0193
 7716TIP3    H223110   4.951   3.475   3.388 -1.1850 -2.4048 -1.4121
 7717TIP3   OH223111   6.530   7.033   0.451 -0.0662  0.7933 -0.1942
 7717TIP3    H123112   6.511   6.978   0.527  2.1098  0.1564 -0.0588
 7717TIP3    H223113   6.481   7.114   0.467 -0.7169  0.1560  1.2011
 7718TIP3   OH223114   4.033   1.303   0.644  0.7561 -0.6364 -0.5399
 7718TIP3    H123115   4.075   1.218   0.659  0.7638 -0.3692  1.0532
 7718TIP3    H223116   4.065   1.358   0.715  0.7331  0.7160 -1.5438
 7719TIP3   OH223117   5.425   4.114   5.927  0.1508 -0.0472 -0.4925
 7719TIP3    H123118   5.489   4.182   5.908  0.8784 -0.4463  0.4577
 7719TIP3    H223119   5.476   4.033   5.931 -0.4759 -0.4369 -0.1271
 7720TIP3   OH223120   5.333   4.192   0.277  0.3625 -0.3818 -0.0717
 7720TIP3    H123121   5.406   4.254   0.282  2.1372 -2.3861  0.3232
 7720TIP3    H223122   5.286   4.204   0.360  0.9913  0.0437  0.2358
 7721TIP3   OH223123   2.796   6.707   3.826  0.3188  0.1057  0.7591
 7721TIP3    H123124   2.760   6.626   3.789  1.1544  0.6795 -1.4644
 7721TIP3    H223125   2.802   6.690   3.920  0.3494 -2.3769  0.3720
 7722TIP3   OH223126   2.976   1.211   2.250 -0.1635  0.2882  0.5530
 7722TIP3    H123127   2.884   1.193   2.233 -0.0125 -0.2482  0.2739
 7722TIP3    H223128   3.012   1.126   2.279  0.1987  0.5353  0.8368
 7723TIP3   OH223129   5.818   2.964   3.419 -0.3210  0.3859 -0.2263
 7723TIP3    H123130   5.913   2.969   3.434 -0.2251  1.6515 -1.1420
 7723TIP3    H223131   5.798   2.870   3.427  0.6077  0.3066  2.1598
 7724TIP3   OH223132   0.551   0.665   0.454 -0.2825  0.1164  0.3630
 7724TIP3    H123133   0.639   0.699   0.468  0.3265 -1.2326 -0.0451
 7724TIP3    H223134   0.495   0.718   0.511  0.8316  0.7447  0.8960
 7725TIP3   OH223135   7.475   5.978   2.322 -0.4140  0.2642  0.0534
 7725TIP3    H123136   7.483   5.941   2.234  0.5481 -0.6512  0.5093
 7725TIP3    H223137   7.381   5.993   2.333 -0.5508  0.3616 -1.1068
 7726TIP3   OH223138   1.882   2.807   1.797  0.1596  0.0837  0.5183
 7726TIP3    H123139   1.803   2.858   1.779 -0.7714 -1.1368  0.9582
 7726TIP3    H223140   1.954   2.866   1.777 -0.8565  0.9514 -0.7542
 7727TIP3   OH223141   3.168   1.330   3.073 -0.4591  0.2368  0.4059
 7727TIP3    H123142   3.080   1.298   3.053  0.2120 -0.9087 -0.9803
 7727TIP3    H223143   3.226   1.260   3.042  1.1101  2.5852 -2.5624
 7728TIP3   OH223144   1.776   0.589   1.275  0.1516 -0.0664 -0.2270
 7728TIP3    H123145   1.715   0.617   1.206  0.6759 -0.7873 -1.0140
 7728TIP3    H223146   1.720   0.571   1.351 -0.3178  1.8959 -0.0588
 7729TIP3   OH223147   4.199   2.780   5.431 -0.0583 -0.1751 -0.4214
 7729TIP3    H123148   4.158   2.862   5.459 -0.6804 -1.1871  1.8040
 7729TIP3    H223149   4.172   2.771   5.339  1.8280  3.1313 -1.4848
 7730TIP3   OH223150   2.325   0.636   3.709 -0.7326 -0.2712  0.4575
 7730TIP3    H123151   2.339   0.548   3.676  0.1085  0.2363 -0.5891
 7730TIP3    H223152   2.339   0.628   3.804 -0.0011 -1.1365  0.2926
 7731TIP3   OH223153   1.611   3.339   2.714  0.3452 -0.2232 -0.1989
 7731TIP3    H123154   1.615   3.274   2.645 -0.2260  0.1718 -0.6151
 7731TIP3    H223155   1.552   3.407   2.680 -0.8678 -0.5617  1.1277
 7732TIP3   OH223156   4.373   6.420   3.980  0.6107 -0.2168  0.3594
 7732TIP3    H123157   4.389   6.327   3.963 -0.3219 -0.3469  0.1349
 7732TIP3    H223158   4.326   6.451   3.902  2.5032  0.9078 -0.4126
 7733TIP3   OH223159   2.504   3.818   4.847  0.3506 -0.1800  0.1880
 7733TIP3    H123160   2.495   3.733   4.890  0.7110  0.4452  1.5632
 7733TIP3    H223161   2.420   3.833   4.804 -0.1688 -0.6601  1.0240
 7734TIP3   OH223162   2.079   3.619   1.721  0.0483 -0.0636  0.1630
 7734TIP3    H123163   2.051   3.528   1.716 -3.0762  0.8606 -1.9929
 7734TIP3    H223164   2.027   3.657   1.791  2.1661 -0.0630  1.8505
 7735TIP3   OH223165   6.515   2.982   5.121 -0.1897  0.3523 -0.0314
 7735TIP3    H123166   6.545   2.983   5.212  0.1182  1.1741 -0.1299
 7735TIP3    H223167   6.496   3.074   5.101 -3.1510 -0.1319  0.1267
 7736TIP3   OH223168   0.441   2.579   5.231 -0.3552  0.1264  0.0039
 7736TIP3    H123169   0.458   2.559   5.139  1.2037  1.2728  0.0138
 7736TIP3    H223170   0.523   2.616   5.264 -1.2193  0.7509  1.5720
 7737TIP3   OH223171   3.205   3.653   0.012  0.3604  0.4549  0.0442
 7737TIP3    H123172   3.146   3.725   0.035 -1.0730 -0.5312 -0.4258
 7737TIP3    H223173   3.251   3.633   0.094 -0.1635  1.0562  0.4950
 7738TIP3   OH223174   0.145   0.870   1.503 -0.5934  0.2784  0.0870
 7738TIP3    H123175   0.106   0.834   1.423 -0.6072 -0.7334  0.5360
 7738TIP3    H223176   0.198   0.799   1.538  0.0704  0.9894  0.5486
 7739TIP3   OH223177   2.214   3.963   0.912 -0.0879 -0.4406  0.0900
 7739TIP3    H123178   2.145   4.023   0.883 -0.9757 -0.1877  2.5705
 7739TIP3    H223179   2.289   3.986   0.856 -1.5989  0.0858 -1.8469
 7740TIP3   OH223180   4.335   3.103   2.111  0.0814 -0.3857  0.2370
 7740TIP3    H123181   4.391   3.142   2.044 -1.7109  3.1187  0.5410
 7740TIP3    H223182   4.395   3.079   2.181  1.5063  0.9751 -0.4481
 7741TIP3   OH223183   2.957   6.805   4.877  0.6143  0.1648  0.4316
 7741TIP3    H123184   2.919   6.756   4.804  0.1094  0.1290  0.7140
 7741TIP3    H223185   2.923   6.894   4.866  0.9728  0.2912  0.3178
 7742TIP3   OH223186   6.376   1.439   2.264 -0.3747  0.5442  0.0208
 7742TIP3    H123187   6.318   1.404   2.333 -1.2654  1.0618 -0.4465
 7742TIP3    H223188   6.449   1.479   2.312 -0.4891  0.0394  0.6300
 7743TIP3   OH223189   4.227   2.910   1.136 -0.2499 -0.5233 -0.1558
 7743TIP3    H123190   4.147   2.963   1.134  0.1867  0.2263 -2.9937
 7743TIP3    H223191   4.267   2.930   1.221 -1.3068  1.9022 -0.1326
 7744TIP3   OH223192   4.611   6.220   3.323 -0.6427  0.1433 -0.0897
 7744TIP3    H123193   4.621   6.302   3.372  1.1321 -0.0229 -0.1224
 7744TIP3    H223194   4.629   6.244   3.232 -1.4094 -0.0521 -0.3004
 7745TIP3   OH223195   3.668   2.658   0.873  0.0529 -0.7200  0.0839
 7745TIP3    H123196   3.592   2.669   0.815  0.7617  0.4261 -0.6467
 7745TIP3    H223197   3.629   2.645   0.959 -0.9863  0.2616 -0.2085
 7746TIP3   OH223198   1.258   0.788   3.495 -0.0844 -0.2004 -0.1783
 7746TIP3    H123199   1.286   0.768   3.584  1.2049  0.6430 -0.3723
 7746TIP3    H223200   1.168   0.819   3.505 -1.1574 -3.2198  0.4327
 7747TIP3   OH223201   2.350   1.752   4.018  1.0716  0.2324 -0.1346
 7747TIP3    H123202   2.331   1.838   3.981 -0.4906 -0.0998 -0.1330
 7747TIP3    H223203   2.270   1.726   4.063  0.6804 -2.2333 -2.0735
 7748TIP3   OH223204   0.990   6.012   5.627  0.0616 -0.3721  0.2100
 7748TIP3    H123205   0.960   6.081   5.567 -0.8754 -0.8990  0.0581
 7748TIP3    H223206   1.083   6.029   5.637 -0.4485  2.1098  1.7139
 7749TIP3   OH223207   4.909   2.560  -0.010 -0.3351  0.3293 -0.3449
 7749TIP3    H123208   4.954   2.618   0.051  0.1598  0.7823 -1.1307
 7749TIP3    H223209   4.945   2.473   0.009 -0.1363  0.4748 -0.0494
 7750TIP3   OH223210   4.266   0.634   4.800 -0.2569  0.3834  0.4730
 7750TIP3    H123211   4.323   0.557   4.800 -1.6343 -0.8534  3.9000
 7750TIP3    H223212   4.184   0.602   4.761 -1.5554 -0.7541  3.7332
 7751TIP3   OH223213   5.465   6.913   4.379  0.3289  0.3630  0.7549
 7751TIP3    H123214   5.526   6.902   4.452  1.1602  3.2608  0.6220
 7751TIP3    H223215   5.504   6.983   4.326 -0.9043 -0.7491 -1.7905
 7752TIP3   OH223216   3.723   3.796   2.014  0.2561 -0.1712  0.2108
 7752TIP3    H123217   3.721   3.745   2.096  0.0240 -0.2669  0.1439
 7752TIP3    H223218   3.707   3.732   1.945 -1.3667  0.1942  0.2127
 7753TIP3   OH223219   4.696   1.387   3.696  0.2690  0.0179 -0.1155
 7753TIP3    H123220   4.679   1.428   3.781 -1.7230  1.1952 -1.0367
 7753TIP3    H223221   4.780   1.343   3.708 -0.9611 -1.8224  3.2039
 7754TIP3   OH223222   1.392   1.352   4.182  0.5609  0.6059  0.1788
 7754TIP3    H123223   1.349   1.426   4.140  0.9335  2.1188  2.2619
 7754TIP3    H223224   1.485   1.377   4.185  0.9286 -0.6248 -0.3841
 7755TIP3   OH223225   1.845   2.750   4.797  0.1081 -0.0539  0.5499
 7755TIP3    H123226   1.845   2.772   4.890 -0.1452 -1.2743  0.8558
 7755TIP3    H223227   1.938   2.746   4.773  0.2122 -1.1433  1.1061
 7756TIP3   OH223228   2.948   3.175   3.410  0.5421  0.1849  0.0459
 7756TIP3    H123229   2.984   3.262   3.392  0.3178  0.2267 -0.2031
 7756TIP3    H223230   2.864   3.175   3.365  1.0505 -0.5742 -0.9622
 7757TIP3   OH223231   3.619   6.561   4.482 -0.5981 -0.2533 -0.7822
 7757TIP3    H123232   3.670   6.622   4.430  2.8067 -2.3464 -0.1943
 7757TIP3    H223233   3.585   6.613   4.555  1.4430  1.1376 -0.7551
 7758TIP3   OH223234   0.130   6.187   3.149 -0.0058  0.5528  0.0400
 7758TIP3    H123235   0.121   6.282   3.153  1.4326  0.7313 -0.4405
 7758TIP3    H223236   0.212   6.168   3.194 -1.0428 -0.6445  1.5753
 7759TIP3   OH223237   4.588   0.555   1.310  0.0518  0.3598  0.1169
 7759TIP3    H123238   4.583   0.637   1.361 -0.9510  0.7742 -0.6085
 7759TIP3    H223239   4.681   0.542   1.294  0.3523  0.5277  1.5549
 7760TIP3   OH223240   6.284   6.499   2.250 -0.2428 -0.6165 -0.0285
 7760TIP3    H123241   6.282   6.552   2.330  0.6208 -1.4618  0.5681
 7760TIP3    H223242   6.337   6.550   2.189  1.1151 -1.0255  0.7518
 7761TIP3   OH223243   1.381   7.134   4.946  0.1945 -0.1259  0.4851
 7761TIP3    H123244   1.369   7.209   4.888  0.4747 -0.6594 -0.2732
 7761TIP3    H223245   1.475   7.120   4.949  0.1072 -0.8235  0.1299
 7762TIP3   OH223246   2.449   3.838   1.138  0.3327 -0.3746 -0.0363
 7762TIP3    H123247   2.404   3.920   1.117 -0.2944 -0.0422  2.3092
 7762TIP3    H223248   2.380   3.772   1.134  0.7764 -0.7760 -1.6195
 7763TIP3   OH223249   5.052   2.707   3.002  0.0878  0.2485 -0.3937
 7763TIP3    H123250   5.084   2.688   2.914 -1.3275  0.1552 -0.9033
 7763TIP3    H223251   5.044   2.803   3.004 -0.3004  0.2183 -0.5156
 7764TIP3   OH223252   1.498   5.233   2.770  0.8336  0.1835 -0.8381
 7764TIP3    H123253   1.563   5.288   2.727  0.0962  1.1807 -0.7152
 7764TIP3    H223254   1.537   5.211   2.855  1.1367  0.5232 -0.8877
 7765TIP3   OH223255   5.254   4.608   5.330 -0.1915  0.4261  0.8049
 7765TIP3    H123256   5.212   4.543   5.386 -0.2313  1.2121  1.6972
 7765TIP3    H223257   5.260   4.687   5.383 -0.3613  1.2430 -0.3484
 7766TIP3   OH223258   3.606   6.995   4.461  0.2775 -0.1168 -0.3504
 7766TIP3    H123259   3.684   6.941   4.471  0.3832  0.3415  1.7466
 7766TIP3    H223260   3.636   7.084   4.480 -0.9583 -0.1024  1.8848
 7767TIP3   OH223261   5.819   4.992   4.807  0.0728 -0.2195 -0.2062
 7767TIP3    H123262   5.780   4.925   4.863 -0.5830 -0.1105 -0.5184
 7767TIP3    H223263   5.834   5.067   4.865 -0.3418 -0.2065 -0.1072
 7768TIP3   OH223264   0.812   3.024   3.813  0.7050 -0.2752 -0.6949
 7768TIP3    H123265   0.780   2.972   3.887 -0.6228 -0.9092 -1.6871
 7768TIP3    H223266   0.839   2.960   3.748 -0.6676  0.2188 -1.8120
 7769TIP3   OH223267   5.268   0.337   2.436 -0.1713 -0.1985  0.5240
 7769TIP3    H123268   5.176   0.315   2.424 -0.0231 -0.0132 -1.2422
 7769TIP3    H223269   5.314   0.283   2.371  0.9192  0.0317  1.0818
 7770TIP3   OH223270   7.037   4.425   0.819  0.6606  0.1080 -0.1442
 7770TIP3    H123271   7.059   4.333   0.830  0.9643  0.2315  0.3164
 7770TIP3    H223272   6.971   4.443   0.886  0.0870  0.0577 -0.6865
 7771TIP3   OH223273   1.704   0.097   5.772 -0.2258  0.3775  0.2428
 7771TIP3    H123274   1.744   0.174   5.811  0.0189  0.7266 -0.6775
 7771TIP3    H223275   1.632   0.131   5.719 -0.0426 -0.0142 -0.2622
 7772TIP3   OH223276   4.229   4.860   2.325 -0.1375 -0.0471  0.2678
 7772TIP3    H123277   4.241   4.766   2.311 -0.0012  0.1120 -0.7333
 7772TIP3    H223278   4.300   4.901   2.275 -0.2415  0.5914  0.6361
 7773TIP3   OH223279   4.045   6.217   1.537 -0.0662 -0.1236 -0.0359
 7773TIP3    H123280   4.066   6.132   1.574 -0.7066 -1.8369 -3.2494
 7773TIP3    H223281   4.127   6.249   1.501 -0.0213  0.1910  0.3371
 7774TIP3   OH223282   2.245   5.712   2.581 -0.2972  0.0898  0.3862
 7774TIP3    H123283   2.297   5.788   2.610  0.2861 -0.6171  1.2229
 7774TIP3    H223284   2.269   5.702   2.489  1.5067 -0.5406  0.8782
 7775TIP3   OH223285   4.286   0.958   0.402  0.2092  0.8307  0.5500
 7775TIP3    H123286   4.227   0.893   0.365  1.2886  0.4333 -0.5248
 7775TIP3    H223287   4.320   1.006   0.326  0.0870  2.0989  1.2543
 7776TIP3   OH223288   5.124   4.089   3.294 -0.2283  0.0978  0.6035
 7776TIP3    H123289   5.161   4.177   3.282  0.2134  0.0339  1.3599
 7776TIP3    H223290   5.188   4.031   3.253 -0.6452  0.1448 -0.1160
 7777TIP3   OH223291   2.196   1.526   5.894  0.0080 -0.0875  0.5677
 7777TIP3    H123292   2.166   1.617   5.896  0.0642  0.0367 -1.7975
 7777TIP3    H223293   2.275   1.526   5.948  0.0608  1.2873  0.5360
 7778TIP3   OH223294   7.313   0.996   5.723 -0.0421  0.5092 -0.4018
 7778TIP3    H123295   7.385   1.029   5.669 -1.4217 -0.7971 -3.2512
 7778TIP3    H223296   7.248   1.066   5.722  0.1516  0.6991  0.0561
 7779TIP3   OH223297   0.499   4.460   5.919 -0.0944 -0.5641  0.2396
 7779TIP3    H123298   0.414   4.495   5.948  0.0885 -0.9660  1.3388
 7779TIP3    H223299   0.487   4.442   5.826 -0.4377  1.6657 -0.2057
 7780TIP3   OH223300   6.474   3.214   0.432  0.1495 -0.3907  0.3468
 7780TIP3    H123301   6.554   3.255   0.464 -0.1691  0.4306  0.1286
 7780TIP3    H223302   6.431   3.282   0.381 -0.1381 -1.1719 -0.4820
 7781TIP3   OH223303   4.466   1.697   5.216  0.0165  0.7125 -0.1156
 7781TIP3    H123304   4.529   1.635   5.253  0.0848  1.2649  0.7141
 7781TIP3    H223305   4.486   1.780   5.259  1.1515  1.8032 -2.5073
 7782TIP3   OH223306   3.779   1.635   3.567  0.1866  0.1259  0.1923
 7782TIP3    H123307   3.782   1.553   3.616  0.2957 -0.3088 -0.5289
 7782TIP3    H223308   3.842   1.623   3.496 -1.1249  0.1273 -1.0077
 7783TIP3   OH223309   2.936   1.385   5.232  0.3319  0.5985 -0.0912
 7783TIP3    H123310   2.974   1.321   5.292 -0.5704 -1.6040 -1.7216
 7783TIP3    H223311   3.007   1.406   5.171  0.1061 -0.3731 -0.7040
 7784TIP3   OH223312   1.944   0.382   2.220 -0.2795 -0.1165  0.6502
 7784TIP3    H123313   1.960   0.418   2.133 -0.1831 -3.4824 -0.8805
 7784TIP3    H223314   2.017   0.413   2.273 -0.2456  1.8597 -0.4600
 7785TIP3   OH223315   2.037   5.985   2.748  0.1671 -0.2494 -0.1026
 7785TIP3    H123316   1.958   5.948   2.786  0.6677 -0.6409  0.5728
 7785TIP3    H223317   2.012   6.075   2.725  0.1629  0.4558  2.3154
 7786TIP3   OH223318   1.688   0.856   5.372 -0.0336 -0.6158 -0.2843
 7786TIP3    H123319   1.670   0.853   5.278 -0.2969 -2.1158 -0.2150
 7786TIP3    H223320   1.737   0.776   5.390 -2.3569 -1.8218  1.2770
 7787TIP3   OH223321   0.818   2.344   3.879  0.3608  0.5605 -0.0271
 7787TIP3    H123322   0.796   2.426   3.832 -1.5584 -0.0084 -0.2105
 7787TIP3    H223323   0.831   2.280   3.809  0.3159  0.3513  0.1574
 7788TIP3   OH223324   5.338   6.900   4.107 -0.6991 -0.4831  0.3997
 7788TIP3    H123325   5.357   6.818   4.062 -1.8772 -1.0037  0.8042
 7788TIP3    H223326   5.378   6.889   4.194  1.3374  0.4137 -0.3587
 7789TIP3   OH223327   0.165   2.297   4.845 -0.7584  0.0550  0.2451
 7789TIP3    H123328   0.123   2.246   4.914 -0.5026 -1.0761 -0.4065
 7789TIP3    H223329   0.201   2.231   4.785 -1.8113  0.9862 -1.4877
 7790TIP3   OH223330   2.362   0.500   0.419  0.1001 -0.1099  0.6170
 7790TIP3    H123331   2.394   0.590   0.409  0.8492 -0.3319  0.9865
 7790TIP3    H223332   2.277   0.510   0.464  0.5385  0.3711  1.3580
 7791TIP3   OH223333   4.546   0.901   6.128  0.5229 -0.5666 -0.3216
 7791TIP3    H123334   4.471   0.955   6.104  1.7841  2.4441  1.8237
 7791TIP3    H223335   4.580   0.942   6.208  4.4836 -1.6994 -1.2070
 7792TIP3   OH223336   1.720   2.634   5.249 -0.2254 -0.7170  0.3877
 7792TIP3    H123337   1.708   2.693   5.174 -1.0414 -1.1307  0.1810
 7792TIP3    H223338   1.777   2.565   5.215 -1.9311 -1.8179 -0.4158
 7793TIP3   OH223339   7.219   5.237   5.289  0.7147 -0.0481  0.3233
 7793TIP3    H123340   7.249   5.222   5.199 -0.3072 -1.0289  0.1303
 7793TIP3    H223341   7.196   5.150   5.322 -1.1407  0.5656  0.7286
 7794TIP3   OH223342   4.930   5.308   3.957 -0.0970 -0.3437 -0.4932
 7794TIP3    H123343   4.846   5.345   3.983 -0.0879 -1.1846  0.8600
 7794TIP3    H223344   4.962   5.265   4.037  1.5515 -0.1453 -1.0120
 7795TIP3   OH223345   6.955   7.171   6.119  0.6110 -0.3443 -0.0187
 7795TIP3    H123346   7.004   7.095   6.088  0.4407 -0.7904  0.7587
 7795TIP3    H223347   6.894   7.134   6.183  0.9858  0.5435  0.8663
 7796TIP3   OH223348   2.308   0.563   4.632 -0.4153 -0.0863 -0.1598
 7796TIP3    H123349   2.369   0.637   4.622  0.7953 -1.1519 -0.8593
 7796TIP3    H223350   2.221   0.602   4.619  0.1566  1.2950 -0.0372
 7797TIP3   OH223351   3.385   3.317   4.799 -0.2956  0.1704 -0.0624
 7797TIP3    H123352   3.455   3.252   4.805 -1.8444 -1.6520 -0.8125
 7797TIP3    H223353   3.347   3.320   4.887 -0.2534  0.0336 -0.0398
 7798TIP3   OH223354   5.888   4.882   5.675  0.3376  0.4774  0.2768
 7798TIP3    H123355   5.865   4.909   5.586 -0.5904 -0.7456  0.1155
 7798TIP3    H223356   5.974   4.921   5.690  1.0361 -0.2215 -1.5852
 7799TIP3   OH223357   5.777   2.823   5.042  0.7461 -0.3065  0.1237
 7799TIP3    H123358   5.743   2.822   5.132  1.9089  0.1834  0.6016
 7799TIP3    H223359   5.800   2.915   5.027 -1.4595  0.0635 -1.5161
 7800TIP3   OH223360   7.027   3.760   6.120  0.3673  0.3283  0.1689
 7800TIP3    H123361   7.016   3.760   6.025  0.9971 -0.5025  0.0891
 7800TIP3    H223362   6.942   3.790   6.153 -0.0875 -0.0276 -0.6321
 7801TIP3   OH223363   5.285   6.301   1.945 -0.1509  0.0584 -0.5496
 7801TIP3    H123364   5.348   6.253   1.891 -1.0303 -2.6168  0.6344
 7801TIP3    H223365   5.334   6.325   2.023 -0.5623 -2.2532  0.4914
 7802TIP3   OH223366   4.881   1.729   3.241 -0.1608 -0.3238 -0.0802
 7802TIP3    H123367   4.888   1.638   3.269 -1.7031 -0.2593  0.6090
 7802TIP3    H223368   4.968   1.766   3.256  0.9724 -2.0446 -1.8162
 7803TIP3   OH223369   6.345   6.076   0.358 -0.0659  0.3969 -0.9486
 7803TIP3    H123370   6.361   6.097   0.266 -1.0249  1.9328 -0.8011
 7803TIP3    H223371   6.389   6.146   0.407 -2.9694  2.0437 -0.4247
 7804TIP3   OH223372   3.379   3.984   2.570  0.1419 -0.3993 -0.5721
 7804TIP3    H123373   3.311   4.042   2.604  0.3861 -0.0617 -0.6503
 7804TIP3    H223374   3.460   4.017   2.609  0.1846 -1.2041  0.0528
 7805TIP3   OH223375   1.632   3.369   2.394  0.0391 -0.7635 -0.2092
 7805TIP3    H123376   1.656   3.391   2.304 -1.1687 -0.0138 -0.3745
 7805TIP3    H223377   1.606   3.452   2.433 -1.5497 -1.3885  0.1459
 7806TIP3   OH223378   4.089   0.362   1.421 -0.3011 -0.6563  0.0047
 7806TIP3    H123379   4.152   0.423   1.460 -0.0811 -1.2125  0.5379
 7806TIP3    H223380   4.143   0.290   1.389 -0.4004  0.0920 -1.9881
 7807TIP3   OH223381   1.055   1.638   3.094 -0.0131 -0.3119 -0.1514
 7807TIP3    H123382   0.987   1.620   3.159  1.9650  0.2791  2.2392
 7807TIP3    H223383   1.123   1.573   3.111  0.3831 -0.4247 -1.9762
 7808TIP3   OH223384   5.145   3.828   5.355  0.3344 -0.1159 -0.4870
 7808TIP3    H123385   5.143   3.923   5.352 -1.6845 -0.0956 -0.0567
 7808TIP3    H223386   5.213   3.807   5.420 -1.8259  1.2008  2.4179
 7809TIP3   OH223387   0.999   6.342   0.542 -0.7339 -0.1517  0.3129
 7809TIP3    H123388   1.003   6.282   0.616  0.5651 -0.5922 -0.0890
 7809TIP3    H223389   1.090   6.369   0.528 -1.1794  1.3068 -0.0169
 7810TIP3   OH223390   1.229   7.127   3.229  0.0435 -0.1778  0.1349
 7810TIP3    H123391   1.237   7.132   3.324 -0.9004  0.4278  0.2030
 7810TIP3    H223392   1.151   7.179   3.209  0.2579 -0.2540 -0.9767
 7811TIP3   OH223393   3.257   5.803   4.216 -0.1989  0.3619  0.4559
 7811TIP3    H123394   3.297   5.822   4.131 -2.0754 -0.1483 -0.5966
 7811TIP3    H223395   3.194   5.875   4.230  0.5810  0.8352  1.7879
 7812TIP3   OH223396   2.239   0.980   1.237 -0.4673  0.2329 -0.6925
 7812TIP3    H123397   2.277   1.060   1.200  1.2943 -0.2894 -0.0955
 7812TIP3    H223398   2.203   0.934   1.161  0.3977  0.6040 -1.3535
 7813TIP3   OH223399   5.507   0.241   1.155 -0.0457  0.0111  0.0827
 7813TIP3    H123400   5.504   0.249   1.060 -1.9541 -1.0890  0.0199
 7813TIP3    H223401   5.575   0.175   1.172  0.4783  0.3954 -0.4741
 7814TIP3   OH223402   2.470   2.985   4.236 -0.0633 -0.1878 -0.0908
 7814TIP3    H123403   2.441   3.071   4.267  1.3670  0.1503  0.3978
 7814TIP3    H223404   2.397   2.926   4.256 -0.6587  0.7321  0.5060
 7815TIP3   OH223405   1.126   4.018   0.252  0.1962 -0.0819  0.3628
 7815TIP3    H123406   1.124   3.961   0.176  1.7907 -0.2467  0.4176
 7815TIP3    H223407   1.150   3.961   0.325 -0.2384  0.2783  0.7966
 7816TIP3   OH223408   0.877   2.455   0.768 -0.0288 -0.1411  0.1282
 7816TIP3    H123409   0.905   2.485   0.681  0.5901  1.9684  0.9785
 7816TIP3    H223410   0.833   2.531   0.806  0.2556 -0.8166  1.8968
 7817TIP3   OH223411   7.427   5.409   3.557  0.1250 -0.2167  0.8757
 7817TIP3    H123412   7.380   5.329   3.580  0.6991 -0.2679  1.9112
 7817TIP3    H223413   7.432   5.407   3.461 -0.8505 -0.8440  0.8220
 7818TIP3   OH223414   4.032   6.608   5.369 -0.2471 -0.0256  0.4603
 7818TIP3    H123415   4.042   6.526   5.320 -2.9746 -0.4693  0.4836
 7818TIP3    H223416   4.033   6.581   5.461  0.1990  0.1633  0.5127
 7819TIP3   OH223417   3.929   5.065   0.301  0.3569 -0.3420  0.0874
 7819TIP3    H123418   4.022   5.048   0.317  0.4050  0.1899  0.3734
 7819TIP3    H223419   3.898   4.985   0.258  1.0990 -0.2611 -0.6226
 7820TIP3   OH223420   7.294   3.650   5.903  0.4259  0.0866 -0.5586
 7820TIP3    H123421   7.235   3.575   5.914  1.8394 -0.9652  0.2848
 7820TIP3    H223422   7.372   3.612   5.862  1.2713  1.0265  0.1364
 7821TIP3   OH223423   4.167   7.095   5.154 -0.5572 -0.3433 -0.5667
 7821TIP3    H123424   4.198   7.009   5.123  2.3960  0.6552 -0.7262
 7821TIP3    H223425   4.075   7.081   5.176  0.1828 -3.9704  0.9200
 7822TIP3   OH223426   5.890   4.613   4.907  0.7769  0.5331 -0.1637
 7822TIP3    H123427   5.846   4.611   4.821 -1.5170 -0.5880  0.9339
 7822TIP3    H223428   5.967   4.557   4.895 -0.3438 -0.9088 -1.1440
 7823TIP3   OH223429   6.210   1.260   5.906 -0.1085 -0.4027 -0.0782
 7823TIP3    H123430   6.169   1.198   5.965 -1.0334  0.0417 -0.2277
 7823TIP3    H223431   6.149   1.267   5.833  0.2083  0.3247 -0.2833
 7824TIP3   OH223432   5.744   3.271   0.191  0.0960  0.1900 -0.2627
 7824TIP3    H123433   5.761   3.200   0.252  1.5979 -0.5675 -1.4751
 7824TIP3    H223434   5.797   3.344   0.224  0.1569  0.0892 -0.1358
 7825TIP3   OH223435   3.364   1.801   5.806 -0.9564 -0.4483 -0.5287
 7825TIP3    H123436   3.363   1.801   5.711  0.1297  1.8041 -0.6206
 7825TIP3    H223437   3.454   1.825   5.829 -1.3622 -0.3187  1.0363
 7826TIP3   OH223438   7.389   0.535   0.823  0.4735  0.1807  0.3591
 7826TIP3    H123439   7.455   0.466   0.824  0.8568  0.3774 -2.3804
 7826TIP3    H223440   7.306   0.488   0.811  0.4890  0.1015  0.5568
 7827TIP3   OH223441   4.276   2.247   5.461 -0.6719  0.0512  0.3896
 7827TIP3    H123442   4.278   2.185   5.388 -1.2429  0.2600  0.1846
 7827TIP3    H223443   4.336   2.211   5.525 -0.6585 -0.4807  0.0860
 7828TIP3   OH223444   4.435   0.095   1.521  0.2215  0.4478 -0.1027
 7828TIP3    H123445   4.425   0.073   1.428 -1.0446  0.2331  0.0710
 7828TIP3    H223446   4.468   0.185   1.521 -0.3585  0.6668 -0.7569
 7829TIP3   OH223447   1.736   5.156   1.347 -0.0510  0.0184  0.0475
 7829TIP3    H123448   1.783   5.141   1.265  0.7199 -0.5880  0.5826
 7829TIP3    H223449   1.800   5.196   1.404 -0.3402 -0.3175  0.6156
 7830TIP3   OH223450   5.138   2.200   5.974 -0.1322 -0.3758 -0.1846
 7830TIP3    H123451   5.124   2.126   6.033 -0.6046  0.0729  0.2753
 7830TIP3    H223452   5.123   2.278   6.028  0.0140  0.0572 -0.7476
 7831TIP3   OH223453   6.657   6.333   1.105 -0.2316 -0.3653  0.9512
 7831TIP3    H123454   6.576   6.381   1.123  0.2772  0.2383  1.7115
 7831TIP3    H223455   6.637   6.279   1.029 -0.7224  1.3294 -0.1714
 7832TIP3   OH223456   3.996   5.967   3.087 -0.0765  0.1888  0.3166
 7832TIP3    H123457   3.995   5.871   3.088  0.3574  0.0668  3.8630
 7832TIP3    H223458   3.978   5.991   2.996  0.9031 -3.2362 -0.9211
 7833TIP3   OH223459   6.654   0.024   2.299 -0.0204 -0.2295  0.3564
 7833TIP3    H123460   6.667   0.117   2.315  0.7321  0.2018 -2.2583
 7833TIP3    H223461   6.731  -0.002   2.248  0.9606 -2.8725  2.8656
 7834TIP3   OH223462   6.774   5.413   0.091  0.2958  0.5420 -0.1026
 7834TIP3    H123463   6.748   5.374   0.007  0.6089  0.8855 -0.3619
 7834TIP3    H223464   6.698   5.465   0.118 -0.8935 -1.7173  1.1916
 7835TIP3   OH223465   2.406   6.872   2.573 -0.1043  0.1491  0.4476
 7835TIP3    H123466   2.448   6.950   2.608 -1.5140  1.5569 -0.8237
 7835TIP3    H223467   2.320   6.870   2.614  0.2981 -1.3974  1.3054
 7836TIP3   OH223468   3.302   4.147   6.199  0.0155 -0.2130 -0.0063
 7836TIP3    H123469   3.379   4.184   6.154 -0.5627 -1.1438 -1.8586
 7836TIP3    H223470   3.266   4.220   6.249  0.9283  0.7751 -0.7474
 7837TIP3   OH223471   3.504   2.713   5.168  0.0011  0.2673 -0.2895
 7837TIP3    H123472   3.504   2.701   5.263  1.4960 -0.7506 -0.3773
 7837TIP3    H223473   3.415   2.694   5.141 -0.0884 -0.9369  0.7522
 7838TIP3   OH223474   6.940   3.057   0.664 -0.5219  0.0446  0.0312
 7838TIP3    H123475   6.975   2.991   0.725 -1.0320 -0.3516 -0.1028
 7838TIP3    H223476   6.961   3.141   0.706 -1.1524 -0.2248  0.9187
 7839TIP3   OH223477   7.512   5.908   0.803 -0.0682 -0.2198 -0.1605
 7839TIP3    H123478   7.501   5.879   0.893 -1.2765 -1.4529 -0.6620
 7839TIP3    H223479   7.604   5.931   0.796 -0.0826  0.4487  1.5275
 7840TIP3   OH223480   1.984   3.875   5.337 -0.0008 -0.6061 -0.2669
 7840TIP3    H123481   2.073   3.895   5.310  0.2098 -0.4411  0.5351
 7840TIP3    H223482   1.929   3.928   5.279  0.4067 -0.8841 -0.9155
 7841TIP3   OH223483   7.235   6.740   5.971  0.3102  0.3073  0.0057
 7841TIP3    H123484   7.241   6.666   5.910  0.8330 -0.3265  0.8113
 7841TIP3    H223485   7.271   6.707   6.053  0.0398  1.2928  0.5389
 7842TIP3   OH223486   4.773   0.807   4.203  0.3780  0.1267 -0.0844
 7842TIP3    H123487   4.765   0.754   4.124  0.4744 -2.7664  1.7173
 7842TIP3    H223488   4.859   0.849   4.195  1.2284 -1.6187 -0.7044
 7843TIP3   OH223489   2.512   5.618   3.598 -0.3065 -0.3371  0.1137
 7843TIP3    H123490   2.432   5.654   3.635  0.3428  1.7432 -0.3095
 7843TIP3    H223491   2.582   5.653   3.654  0.4359 -0.0829 -0.9206
 7844TIP3   OH223492   4.412   3.888   1.710  0.6301  0.0890 -0.1297
 7844TIP3    H123493   4.479   3.920   1.770 -0.1636  0.4354  0.5982
 7844TIP3    H223494   4.460   3.863   1.631  1.2552  4.1871 -1.2694
 7845TIP3   OH223495   0.897   2.024   2.950 -0.0076 -0.3121 -0.5787
 7845TIP3    H123496   0.846   1.979   3.018 -2.5990 -0.1403 -2.2542
 7845TIP3    H223497   0.970   1.966   2.932  0.6277 -0.5001  2.1020
 7846TIP3   OH223498   7.234   0.523  -0.022 -0.1957 -0.2251 -0.4135
 7846TIP3    H123499   7.209   0.540   0.069 -0.9940 -1.0053 -0.4723
 7846TIP3    H223500   7.327   0.545  -0.026  0.0513 -0.9357  0.7921
 7847TIP3   OH223501   5.237   5.904   3.013  0.3898  0.3674 -0.3905
 7847TIP3    H123502   5.200   5.842   2.950 -1.1512 -0.0651  0.8836
 7847TIP3    H223503   5.293   5.850   3.069  0.8992  0.5591 -0.7094
 7848TIP3   OH223504   2.075   3.993   3.405  0.2648  0.0995  0.1156
 7848TIP3    H123505   2.149   4.042   3.441 -0.2264  1.3417 -0.5067
 7848TIP3    H223506   1.998   4.047   3.423 -0.1399  0.2103 -1.7282
 7849TIP3   OH223507   1.988   4.268   3.088  0.1824 -0.4220  0.6898
 7849TIP3    H123508   2.015   4.348   3.043  2.0646 -2.0504 -1.2850
 7849TIP3    H223509   2.044   4.265   3.166  1.1814 -0.5259 -0.0110
 7850TIP3   OH223510   0.242   4.234   1.937  0.0578  0.1514 -0.1247
 7850TIP3    H123511   0.174   4.166   1.939  0.7334 -0.5298  1.2710
 7850TIP3    H223512   0.225   4.287   2.015  0.3148  0.8206 -0.5134
 7851TIP3   OH223513   4.474   0.021   2.280  0.5950 -0.0347 -0.1044
 7851TIP3    H123514   4.525   0.085   2.331 -0.1054 -0.2934  0.9616
 7851TIP3    H223515   4.473   0.057   2.191  0.0025  1.6030  0.5130
 7852TIP3   OH223516   1.112   1.692   4.234  0.2194 -0.3453  0.3939
 7852TIP3    H123517   1.064   1.619   4.195 -2.4276  0.7738  1.3632
 7852TIP3    H223518   1.197   1.690   4.189 -1.3150 -1.3251 -2.8056
 7853TIP3   OH223519   4.399   5.581   4.055  0.0218 -0.0120  0.3758
 7853TIP3    H123520   4.324   5.591   4.115  0.2615 -0.7169  0.8037
 7853TIP3    H223521   4.384   5.647   3.988 -1.9257 -1.2496 -0.5180
 7854TIP3   OH223522   2.132   1.321   1.358  0.2848  0.2311 -0.1690
 7854TIP3    H123523   2.080   1.241   1.368  0.2650  0.1885 -0.5729
 7854TIP3    H223524   2.172   1.335   1.444 -0.0183  0.0022  0.0118
 7855TIP3   OH223525   1.448   1.917   3.931  0.1614 -0.5793  0.5679
 7855TIP3    H123526   1.489   1.966   4.002  0.7585  0.2031 -0.2834
 7855TIP3    H223527   1.365   1.962   3.914 -1.4456 -2.5198  2.6938
 7856TIP3   OH223528   4.048   3.923   3.039  0.0489  0.4226  0.0932
 7856TIP3    H123529   4.112   3.878   2.984 -0.0872  0.1186  0.1814
 7856TIP3    H223530   3.968   3.925   2.987 -0.0827  0.1259  0.2860
 7857TIP3   OH223531   7.320   1.554   4.143  0.6351  0.0239 -0.0355
 7857TIP3    H123532   7.351   1.613   4.074 -1.2912  0.7615 -0.3268
 7857TIP3    H223533   7.273   1.611   4.205  0.7594 -0.8847  0.9356
 7858TIP3   OH223534   2.082   0.967   3.898 -0.4251  0.5422 -0.2466
 7858TIP3    H123535   2.040   0.881   3.891 -2.0327  1.2168  0.5979
 7858TIP3    H223536   2.144   0.969   3.825  1.5375 -2.3043  1.1204
 7859TIP3   OH223537   3.268   4.404   5.215  0.4693  0.3079  0.0351
 7859TIP3    H123538   3.265   4.449   5.131  0.8265 -0.9351 -0.6732
 7859TIP3    H223539   3.313   4.322   5.196  0.1575 -0.1863  1.3526
 7860TIP3   OH223540   2.642   6.449   5.764  0.1745 -0.2676 -0.1932
 7860TIP3    H123541   2.602   6.536   5.757 -0.3822 -0.5406 -0.4415
 7860TIP3    H223542   2.582   6.399   5.819  0.0181 -0.7733 -0.8211
 7861TIP3   OH223543   6.856   0.472   5.130 -0.3810 -0.1193 -0.0660
 7861TIP3    H123544   6.835   0.520   5.050  2.5049  0.9160 -0.3391
 7861TIP3    H223545   6.854   0.380   5.105  2.0583  0.2225 -1.8762
 7862TIP3   OH223546   1.506   2.733   2.002  0.5188  0.0518 -0.1788
 7862TIP3    H123547   1.489   2.701   1.913 -0.1320 -1.1090  0.3353
 7862TIP3    H223548   1.572   2.673   2.037 -1.7231 -1.7389  1.2873
 7863TIP3   OH223549   5.480   7.039   2.576 -0.0448 -0.4968 -0.5011
 7863TIP3    H123550   5.552   6.980   2.557  0.5386 -0.1138  0.4731
 7863TIP3    H223551   5.483   7.052   2.671  1.4940  3.1150 -0.8820
 7864TIP3   OH223552   4.936   0.205   1.647  0.1579  0.3124  0.0954
 7864TIP3    H123553   4.899   0.294   1.644  1.2850  0.7797 -1.8621
 7864TIP3    H223554   4.876   0.152   1.596 -0.8165 -0.2279  1.7297
 7865TIP3   OH223555   6.350   2.002   0.610  0.3182 -0.1197 -0.2367
 7865TIP3    H123556   6.298   2.015   0.530 -0.4003 -2.1765 -0.1658
 7865TIP3    H223557   6.312   1.924   0.650  0.7663  0.7852  2.0657
 7866TIP3   OH223558   3.514   4.779   5.169 -0.1316 -0.3552  0.0859
 7866TIP3    H123559   3.488   4.700   5.121 -0.2220 -0.3143  0.0676
 7866TIP3    H223560   3.432   4.813   5.204 -0.4563  1.0832 -1.9294
 7867TIP3   OH223561   3.817   1.436   0.716  0.3969 -0.5877  0.3598
 7867TIP3    H123562   3.758   1.452   0.642 -0.7204 -2.5831  0.7609
 7867TIP3    H223563   3.893   1.393   0.677  0.4284 -0.3923  0.2015
 7868TIP3   OH223564   2.407   5.010   4.001  0.0431  0.0276  0.4246
 7868TIP3    H123565   2.361   4.957   4.067 -1.4307  0.0248 -0.5718
 7868TIP3    H223566   2.378   5.100   4.018 -1.0668 -0.0835 -0.7626
 7869TIP3   OH223567   5.970   4.381   2.295  0.0273 -0.8782  0.2008
 7869TIP3    H123568   5.952   4.290   2.273 -2.2505  0.0684 -2.2449
 7869TIP3    H223569   6.064   4.383   2.313  0.4669 -3.3757 -1.4324
 7870TIP3   OH223570   4.505   1.869   2.465  0.0348  0.5905  0.3011
 7870TIP3    H123571   4.574   1.838   2.524  0.7555  1.6837  0.0735
 7870TIP3    H223572   4.423   1.849   2.510  0.4604 -1.3613  0.2736
 7871TIP3   OH223573   4.727   2.770   0.223  0.2359 -0.9812 -0.0212
 7871TIP3    H123574   4.822   2.772   0.213  0.2572 -1.9310 -0.1150
 7871TIP3    H223575   4.710   2.693   0.277 -0.4474 -0.4832  0.5047
 7872TIP3   OH223576   3.972   1.218   4.312  0.1969  0.6988  0.1040
 7872TIP3    H123577   4.031   1.294   4.319  1.5870 -0.3702  0.5866
 7872TIP3    H223578   3.968   1.199   4.219  1.8150 -0.0665  0.1533
 7873TIP3   OH223579   2.026   4.866   2.748  0.0321 -0.0722 -0.4000
 7873TIP3    H123580   2.008   4.775   2.771 -0.2427 -0.0360 -0.4613
 7873TIP3    H223581   1.939   4.903   2.731 -0.3812  1.2912  3.5364
 7874TIP3   OH223582   0.229   0.195   2.007 -0.2870  0.1345 -0.0581
 7874TIP3    H123583   0.222   0.260   2.077 -0.8298  0.3596 -0.3142
 7874TIP3    H223584   0.275   0.241   1.936  2.1858 -0.7350  0.8958
 7875TIP3   OH223585   4.013   1.716   1.154 -0.3389  0.4358 -0.1042
 7875TIP3    H123586   3.991   1.643   1.095  0.3820 -0.6669  0.9623
 7875TIP3    H223587   4.083   1.763   1.108  0.7260 -0.8392  0.1627
 7876TIP3   OH223588   6.459   1.889   4.485  0.3564  0.1451  0.6475
 7876TIP3    H123589   6.366   1.868   4.493  0.6591 -0.8977  1.6601
 7876TIP3    H223590   6.476   1.888   4.390 -0.9720  1.9033  0.3423
 7877TIP3   OH223591   3.558   0.539   1.887 -0.0130 -0.2261  0.5187
 7877TIP3    H123592   3.628   0.550   1.823  0.2140 -1.0969  0.6019
 7877TIP3    H223593   3.587   0.589   1.963  0.4382 -0.4387  0.4891
 7878TIP3   OH223594   1.681   1.133   2.523 -0.3572 -0.2854 -0.2450
 7878TIP3    H123595   1.715   1.112   2.610  0.4848 -0.6783 -0.6553
 7878TIP3    H223596   1.618   1.203   2.538  1.9888  1.8541  0.3856
 7879TIP3   OH223597   3.686   3.502   0.517 -0.6723 -0.0641 -0.3221
 7879TIP3    H123598   3.776   3.511   0.547 -1.3988  0.6849  1.9330
 7879TIP3    H223599   3.680   3.559   0.440  0.3861  1.2386  0.5144
 7880TIP3   OH223600   0.299   6.499   0.880 -0.8132 -0.7124  0.3418
 7880TIP3    H123601   0.205   6.518   0.880 -0.7642 -0.4758  0.3325
 7880TIP3    H223602   0.339   6.573   0.924 -0.4102  0.2964 -1.6003
 7881TIP3   OH223603   0.543   0.454   1.349  0.1293  0.0112  0.4440
 7881TIP3    H123604   0.487   0.523   1.314  0.0260  0.5241  1.5842
 7881TIP3    H223605   0.632   0.483   1.328  0.0371 -0.1707 -0.2320
 7882TIP3   OH223606   3.356   4.637   4.399 -0.2195 -0.2577 -0.2557
 7882TIP3    H123607   3.431   4.696   4.387 -0.5684  0.1533 -0.4314
 7882TIP3    H223608   3.283   4.696   4.419 -0.5292 -0.6484 -0.2372
 7883TIP3   OH223609   5.330   3.459   1.427  0.3275 -0.1707 -0.4238
 7883TIP3    H123610   5.243   3.419   1.433  0.3894 -0.3099 -0.4819
 7883TIP3    H223611   5.391   3.388   1.443  0.4125  0.1020  0.5660
 7884TIP3   OH223612   0.744   1.072   0.147  0.2747  0.2432 -0.1926
 7884TIP3    H123613   0.652   1.092   0.164 -0.2573 -0.3264 -2.1729
 7884TIP3    H223614   0.742   1.012   0.073  2.1398 -1.8166  1.3028
 7885TIP3   OH223615   7.350   7.092   2.516 -0.6891  0.0232  0.0439
 7885TIP3    H123616   7.330   7.087   2.422  0.4119  0.6863 -0.2432
 7885TIP3    H223617   7.445   7.099   2.520 -0.7603  0.6291  1.1921
 7886TIP3   OH223618   0.441   6.499   2.956 -0.4001  0.5118  0.5780
 7886TIP3    H123619   0.473   6.468   3.041  1.1744 -0.4186 -0.3129
 7886TIP3    H223620   0.420   6.418   2.908  3.1253  0.6950 -1.5496
 7887TIP3   OH223621   6.241   5.814   0.871 -0.2607  0.4374 -0.0525
 7887TIP3    H123622   6.147   5.806   0.883 -0.3954 -1.1681 -1.7014
 7887TIP3    H223623   6.278   5.789   0.955 -1.2771 -0.8992  0.0252
 7888TIP3   OH223624   6.374   2.029   2.187 -0.1628  0.3856  0.1211
 7888TIP3    H123625   6.354   2.118   2.216  2.1931  2.0005 -2.6066
 7888TIP3    H223626   6.465   2.015   2.215 -0.3256 -0.9702  0.0437
 7889TIP3   OH223627   0.338   6.683   3.714 -0.6245  0.2184 -0.2453
 7889TIP3    H123628   0.364   6.645   3.797 -2.6064 -2.1305 -0.5710
 7889TIP3    H223629   0.414   6.734   3.685  0.9776 -0.8686  1.8260
 7890TIP3   OH223630   1.090   5.751   2.210  0.4884 -0.1930 -0.0447
 7890TIP3    H123631   1.016   5.699   2.180  0.7607 -1.0204  0.6740
 7890TIP3    H223632   1.062   5.842   2.199 -0.3856 -0.4900 -0.3622
 7891TIP3   OH223633   6.140   0.648   2.652  0.2079 -0.2893  0.1203
 7891TIP3    H123634   6.179   0.564   2.626 -0.2016 -0.3948 -0.1563
 7891TIP3    H223635   6.123   0.692   2.569  0.8602  0.2716  0.2781
 7892TIP3   OH223636   2.961   6.793   0.200 -0.2570 -0.0517 -0.2540
 7892TIP3    H123637   2.973   6.838   0.116 -0.2458 -2.0027 -1.3668
 7892TIP3    H223638   2.982   6.702   0.181 -0.5591 -0.6003  1.8259
 7893TIP3   OH223639   7.075   1.234   0.761 -0.3074  0.1701 -0.0483
 7893TIP3    H123640   7.075   1.217   0.667  0.5292  0.6471 -0.1459
 7893TIP3    H223641   7.135   1.308   0.772 -0.3442  0.0778  0.8710
 7894TIP3   OH223642   4.217   2.206   5.967  0.0222  0.2989  0.2244
 7894TIP3    H123643   4.260   2.232   6.048  1.0150  0.2781 -0.2742
 7894TIP3    H223644   4.220   2.285   5.912 -1.5486  0.6206  0.5512
 7895TIP3   OH223645   5.041   3.720   0.352 -0.0824 -0.1000 -0.2028
 7895TIP3    H123646   5.123   3.726   0.304 -0.4043  1.2238 -0.6242
 7895TIP3    H223647   5.035   3.802   0.401 -0.7369 -0.5570  0.5163
 7896TIP3   OH223648   3.981   5.945   4.071 -0.5042  0.6303  0.8133
 7896TIP3    H123649   3.917   6.015   4.086 -1.6568 -0.4625  1.2060
 7896TIP3    H223650   3.999   5.910   4.158 -1.3569 -0.7436  0.4699
 7897TIP3   OH223651   5.816   2.704   3.210  0.2182 -0.2353  0.2782
 7897TIP3    H123652   5.905   2.668   3.215  0.6755  0.9404  0.9917
 7897TIP3    H223653   5.777   2.682   3.295 -0.4308 -1.3255 -0.2724
 7898TIP3   OH223654   3.882   4.196   3.592  0.4435 -0.2834 -0.2781
 7898TIP3    H123655   3.910   4.105   3.585 -0.7159 -0.8149  1.3717
 7898TIP3    H223656   3.922   4.227   3.674 -1.3103 -0.1678  0.5811
 7899TIP3   OH223657   3.762   6.258   5.690 -0.1712 -0.3270  0.5442
 7899TIP3    H123658   3.851   6.239   5.663 -0.1540  0.9520 -0.3784
 7899TIP3    H223659   3.757   6.225   5.780  1.1194 -0.6919  0.5049
 7900TIP3   OH223660   1.122   0.140   3.396  0.1145 -0.7205 -0.2336
 7900TIP3    H123661   1.172   0.154   3.315 -0.2281 -1.0859 -0.5094
 7900TIP3    H223662   1.067   0.218   3.404 -0.9901 -1.3807 -1.1847
 7901TIP3   OH223663   0.555   5.800   3.253  0.4758 -0.2298 -0.0837
 7901TIP3    H123664   0.599   5.784   3.170  0.4339  2.3314 -0.6630
 7901TIP3    H223665   0.620   5.845   3.307  0.0733 -0.6655  0.7904
 7902TIP3   OH223666   7.371   5.066   0.740  0.4375  0.2392 -0.0887
 7902TIP3    H123667   7.346   5.037   0.828  0.7884 -0.2801 -0.1589
 7902TIP3    H223668   7.464   5.086   0.746  0.0656  2.0705  0.1381
 7903TIP3   OH223669   0.271   7.157   6.115 -0.5684 -0.0499  0.6606
 7903TIP3    H123670   0.363   7.157   6.087 -0.4979 -0.6632  0.8624
 7903TIP3    H223671   0.267   7.089   6.182 -1.3824 -0.7480 -0.0654
 7904TIP3   OH223672   2.082   3.897   4.537  0.3081  0.1508  0.2351
 7904TIP3    H123673   2.092   3.965   4.603 -0.6619  0.4867  0.0540
 7904TIP3    H223674   2.002   3.851   4.562 -1.7065  2.0568 -2.2132
 7905TIP3   OH223675   3.660   5.721   1.690  0.4770 -0.1988 -0.2753
 7905TIP3    H123676   3.659   5.809   1.653  1.0073 -0.0989 -0.0640
 7905TIP3    H223677   3.680   5.734   1.783  1.5935 -0.6041 -0.4442
 7906TIP3   OH223678   0.838   1.306   3.890  0.1685 -0.2555  0.1075
 7906TIP3    H123679   0.761   1.346   3.849 -1.1423 -1.1178  1.6169
 7906TIP3    H223680   0.912   1.351   3.850 -1.1091  0.7486 -1.2601
 7907TIP3   OH223681   3.141   1.531   0.129  0.6324  0.1251 -0.1672
 7907TIP3    H123682   3.196   1.456   0.152 -1.2587 -0.9430  1.1745
 7907TIP3    H223683   3.200   1.606   0.138  2.3287 -1.0765 -0.5725
 7908TIP3   OH223684   6.598   2.553   4.911  0.3060 -0.5787 -0.3560
 7908TIP3    H123685   6.551   2.538   4.829 -0.2894 -0.0836 -0.1138
 7908TIP3    H223686   6.617   2.647   4.911 -0.3570 -0.4291  0.4038
 7909TIP3   OH223687   5.982   0.045   2.774 -0.2392 -0.8591 -0.4766
 7909TIP3    H123688   5.970  -0.048   2.796  1.3719 -0.7325  1.1467
 7909TIP3    H223689   6.063   0.048   2.724  0.5875 -0.1857  0.8434
 7910TIP3   OH223690   4.426   2.134   5.658  0.0672 -0.6542  0.3972
 7910TIP3    H123691   4.468   2.134   5.745 -0.6609 -3.3243  0.8299
 7910TIP3    H223692   4.492   2.096   5.600 -0.8854 -2.8712  0.6703
 7911TIP3   OH223693   2.575   3.711   5.943 -0.2285 -0.4697  0.2568
 7911TIP3    H123694   2.508   3.648   5.969  0.6858 -1.3044  0.6171
 7911TIP3    H223695   2.543   3.746   5.859 -0.7339 -1.4223  0.0413
 7912TIP3   OH223696   5.613   3.484   0.783 -0.0974 -0.1900  0.3391
 7912TIP3    H123697   5.664   3.404   0.769  0.1858  0.3169 -1.9032
 7912TIP3    H223698   5.678   3.549   0.811  0.0996 -0.1334 -0.2423
 7913TIP3   OH223699   2.581   6.423   2.312 -0.0805 -0.2264  0.1305
 7913TIP3    H123700   2.582   6.452   2.403  0.9449 -1.4347  0.5348
 7913TIP3    H223701   2.497   6.378   2.303  0.2974 -1.1135  0.8410
 7914TIP3   OH223702   1.153   3.809   2.003  0.0017  0.8236  0.0180
 7914TIP3    H123703   1.212   3.859   1.946  1.9023 -1.4165 -0.1583
 7914TIP3    H223704   1.096   3.762   1.942  1.9139 -1.4271 -0.2346
 7915TIP3   OH223705   0.094   2.281   4.140 -0.1930 -0.4403  0.1698
 7915TIP3    H123706   0.182   2.319   4.137  0.0686 -1.0533 -2.9949
 7915TIP3    H223707   0.038   2.345   4.097 -0.7907 -1.2208 -0.2500
 7916TIP3   OH223708   5.439   6.361   1.585  0.3164 -0.4261  0.3092
 7916TIP3    H123709   5.400   6.448   1.590 -0.6351 -0.6693 -1.7957
 7916TIP3    H223710   5.494   6.364   1.507  1.1800 -1.3749  0.8653
 7917TIP3   OH223711   1.534   6.251   3.825  0.0000  0.0213  0.0063
 7917TIP3    H123712   1.493   6.165   3.814  2.2987 -0.9929 -1.6794
 7917TIP3    H223713   1.471   6.313   3.790 -0.3858 -1.3642 -1.9002
 7918TIP3   OH223714   1.126   0.052   6.138  0.0957  0.0789 -0.0557
 7918TIP3    H123715   1.176   0.098   6.071  0.9753 -0.8237 -0.0512
 7918TIP3    H223716   1.036   0.053   6.106  0.3191  0.6329 -0.6920
 7919TIP3   OH223717   4.480   1.281   1.601  0.0492 -0.1670 -0.3428
 7919TIP3    H123718   4.404   1.285   1.542  0.3952  1.3757 -0.7403
 7919TIP3    H223719   4.487   1.370   1.635  1.9526 -0.1772 -0.6444
 7920TIP3   OH223720   4.088   6.290   2.990  0.6309  0.2150 -0.2668
 7920TIP3    H123721   4.035   6.321   2.917  1.1567 -0.3372 -0.8912
 7920TIP3    H223722   4.127   6.369   3.027  0.6449  0.4593 -0.8035
 7921TIP3   OH223723   4.716   3.963   1.313  1.0467  0.0659 -0.4985
 7921TIP3    H123724   4.791   3.990   1.366  1.0297  1.7939 -1.2854
 7921TIP3    H223725   4.752   3.953   1.225  1.1182 -2.9822 -0.2284
 7922TIP3   OH223726   5.320   1.387   5.274 -0.3309 -0.6710  0.0225
 7922TIP3    H123727   5.397   1.369   5.219  0.9537  0.7085  1.2795
 7922TIP3    H223728   5.332   1.478   5.302 -1.6508 -0.9059  1.4746
 7923TIP3   OH223729   3.743   0.931   4.321 -0.2679 -0.0546  0.7377
 7923TIP3    H123730   3.662   0.946   4.369  0.3132  0.4102  1.5951
 7923TIP3    H223731   3.812   0.965   4.378  0.5006 -0.0878 -0.1420
 7924TIP3   OH223732   1.196   6.685   5.953 -0.1710 -0.4698  0.4128
 7924TIP3    H123733   1.133   6.615   5.971 -0.9686 -0.6822 -2.6505
 7924TIP3    H223734   1.142   6.759   5.927  0.7103  1.0983  2.7536
 7925TIP3   OH223735   1.841   5.350   2.357 -0.0542  0.3762  0.0020
 7925TIP3    H123736   1.930   5.374   2.383  0.6714  0.7980 -2.5605
 7925TIP3    H223737   1.834   5.257   2.378  0.7125  0.5110  0.9168
 7926TIP3   OH223738   1.431   6.292   5.063  0.0862  0.0827 -0.0919
 7926TIP3    H123739   1.397   6.236   5.133  0.5373 -1.2711 -0.9202
 7926TIP3    H223740   1.433   6.235   4.986  0.8890  1.1475 -0.8792
 7927TIP3   OH223741   0.689   1.684   3.517  0.0757  0.0854  0.3249
 7927TIP3    H123742   0.626   1.616   3.493  1.4103 -0.6844 -1.1542
 7927TIP3    H223743   0.646   1.766   3.495 -1.2726 -0.2768  1.4439
 7928TIP3   OH223744   2.416   1.547   3.246  0.0545 -0.1660  0.2187
 7928TIP3    H123745   2.463   1.497   3.313  0.6222 -0.1381 -0.1593
 7928TIP3    H223746   2.357   1.603   3.296 -0.0474 -0.6662  0.6734
 7929TIP3   OH223747   2.391   4.595   3.995 -0.3071  0.5384  0.7076
 7929TIP3    H123748   2.369   4.506   4.024 -0.8262  0.7635  1.0090
 7929TIP3    H223749   2.369   4.595   3.901 -1.7687  0.7972  1.0271
 7930TIP3   OH223750   7.497   6.214   0.844 -0.2785 -0.0159 -0.4432
 7930TIP3    H123751   7.565   6.147   0.838  0.5361  0.4873  1.9843
 7930TIP3    H223752   7.417   6.171   0.813  0.4261 -1.7661  0.0621
 7931TIP3   OH223753   0.957   0.065   3.684 -0.0757  0.1786 -0.2438
 7931TIP3    H123754   0.969   0.091   3.592 -0.1576  0.3355 -0.2120
 7931TIP3    H223755   0.973  -0.029   3.685  0.3823  0.2564 -0.3354
 7932TIP3   OH223756   3.420   5.104   0.714  1.0334  0.4629 -0.5478
 7932TIP3    H123757   3.403   5.109   0.620 -0.1764  0.2664 -0.3644
 7932TIP3    H223758   3.422   5.196   0.742 -2.3972  0.5886 -0.2047
 7933TIP3   OH223759   4.211   5.431   5.670 -0.2631 -0.2334 -0.2054
 7933TIP3    H123760   4.236   5.390   5.753  2.7897  0.5452 -0.6254
 7933TIP3    H223761   4.231   5.365   5.604  1.3202  0.6025 -0.6040
 7934TIP3   OH223762   1.360   0.610   0.630 -0.2767 -0.1814  0.3150
 7934TIP3    H123763   1.267   0.592   0.619 -0.1004 -0.3572 -1.1006
 7934TIP3    H223764   1.377   0.687   0.576  0.3559 -0.0167  0.7289
 7935TIP3   OH223765   5.829   2.763   5.398 -0.4132  0.5417  0.6476
 7935TIP3    H123766   5.799   2.774   5.488 -0.3465  0.4224  0.6848
 7935TIP3    H223767   5.799   2.676   5.373  0.4442  0.1680  0.9016
 7936TIP3   OH223768   3.459   3.733   4.263  0.4695  0.0206  0.4680
 7936TIP3    H123769   3.445   3.757   4.354  1.1657 -0.0264  0.5943
 7936TIP3    H223770   3.426   3.643   4.256 -0.6910  0.4365  0.3729
 7937TIP3   OH223771   0.635   6.021   2.123  0.4032 -0.4367 -0.4327
 7937TIP3    H123772   0.721   6.015   2.164  0.1523 -0.6498  0.0601
 7937TIP3    H223773   0.573   6.006   2.194 -0.0265 -1.1727 -0.9526
 7938TIP3   OH223774   7.086   4.558   2.586 -0.2906 -0.0211  0.0348
 7938TIP3    H123775   7.033   4.479   2.597  0.8762 -0.5930  1.9178
 7938TIP3    H223776   7.164   4.543   2.638 -0.6792  2.9850  1.7326
 7939TIP3   OH223777   6.506   5.544   0.675  0.3568 -0.5623  0.3435
 7939TIP3    H123778   6.571   5.610   0.698  0.3372 -0.2256 -0.5470
 7939TIP3    H223779   6.492   5.556   0.581 -1.8156  0.1078  0.7150
 7940TIP3   OH223780   1.378   5.628   3.004  0.4077 -0.0216  0.0028
 7940TIP3    H123781   1.297   5.591   3.039  0.2291 -0.5881 -0.9547
 7940TIP3    H223782   1.443   5.559   3.017  0.2389 -0.4248 -1.1290
 7941TIP3   OH223783   4.607   7.074   0.916 -0.1677 -0.6972 -0.4050
 7941TIP3    H123784   4.522   7.096   0.878 -0.0113  0.4195 -0.1611
 7941TIP3    H223785   4.631   6.991   0.876 -1.5191 -1.1952 -0.2366
 7942TIP3   OH223786   5.048   1.486   0.974 -0.1109 -0.2194  0.1494
 7942TIP3    H123787   5.083   1.510   1.060 -0.5008 -1.5488  0.6960
 7942TIP3    H223788   5.115   1.515   0.912  0.2649  0.5741  0.9044
 7943TIP3   OH223789   0.728   4.900   0.656  0.0585  0.1008 -0.3245
 7943TIP3    H123790   0.673   4.890   0.734  0.4965 -1.0112 -0.1354
 7943TIP3    H223791   0.667   4.904   0.583 -0.3654  1.2625  0.0715
 7944TIP3   OH223792   0.962   1.917   0.993  0.6886  0.4052 -0.0041
 7944TIP3    H123793   1.031   1.850   0.997 -1.4398 -1.9104  0.1367
 7944TIP3    H223794   0.880   1.868   0.993 -1.0114  3.0032 -0.9821
 7945TIP3   OH223795   7.058   3.086   2.343  0.2725 -0.3502  0.1475
 7945TIP3    H123796   7.070   2.992   2.329 -2.2442 -0.7576  0.2817
 7945TIP3    H223797   6.992   3.091   2.412  0.4970  1.5476  0.2724
 7946TIP3   OH223798   1.768   4.097   1.351 -0.2021  0.0666  0.1455
 7946TIP3    H123799   1.785   4.105   1.258  2.1836  0.0974  0.5281
 7946TIP3    H223800   1.807   4.175   1.390  0.2635 -0.7283  1.3221
 7947TIP3   OH223801   3.173   6.826   2.436  0.1376 -0.2037  0.5253
 7947TIP3    H123802   3.185   6.786   2.522 -0.3176  0.9440  1.1412
 7947TIP3    H223803   3.165   6.920   2.454  1.1134  0.1784 -0.8715
 7948TIP3   OH223804   7.404   0.185   1.222 -0.5638  0.5891 -0.3786
 7948TIP3    H123805   7.401   0.174   1.317 -0.6402 -0.3434 -0.4743
 7948TIP3    H223806   7.456   0.264   1.208  1.5914 -0.5911  0.3815
 7949TIP3   OH223807   4.735   6.871   3.668  0.7784  0.0223 -0.0011
 7949TIP3    H123808   4.705   6.853   3.757  0.9687 -0.6239 -0.0656
 7949TIP3    H223809   4.803   6.806   3.651 -0.7052 -1.2623 -1.3751
 7950TIP3   OH223810   2.000   5.084   5.291 -0.2489  0.8175 -0.2939
 7950TIP3    H123811   1.959   5.113   5.210 -1.8530  1.1572  0.6030
 7950TIP3    H223812   1.927   5.073   5.352  0.8294 -0.2934  0.8499
 7951TIP3   OH223813   5.274   5.164   3.631  0.1828  0.1383 -0.2490
 7951TIP3    H123814   5.353   5.112   3.616  1.5490  2.3452 -1.1909
 7951TIP3    H223815   5.249   5.144   3.721  1.7117 -0.7419  0.0169
 7952TIP3   OH223816   3.756   2.512   1.515 -0.8821 -0.0156 -0.0156
 7952TIP3    H123817   3.785   2.589   1.564  0.9574  0.1080 -1.2084
 7952TIP3    H223818   3.757   2.441   1.580 -1.8450  0.7866  0.9092
 7953TIP3   OH223819   2.708   1.904   2.440  0.1869  0.5691 -0.2550
 7953TIP3    H123820   2.727   1.884   2.348 -1.5672 -0.2260 -0.4850
 7953TIP3    H223821   2.793   1.927   2.478  1.3061 -1.1402 -1.5606
 7954TIP3   OH223822   0.089   0.869   5.510  0.1022 -0.2434 -0.0572
 7954TIP3    H123823   0.094   0.850   5.417 -3.1019  0.7273 -0.5342
 7954TIP3    H223824   0.115   0.787   5.553 -0.6760 -1.4783 -1.8427
 7955TIP3   OH223825   2.606   7.140   3.740  0.4092  0.0101 -0.0194
 7955TIP3    H123826   2.602   7.137   3.836  0.0871  0.0674 -0.0292
 7955TIP3    H223827   2.614   7.048   3.714 -1.0862 -0.1463  0.0077
 7956TIP3   OH223828   6.392   3.982   0.450  0.0858 -0.0489  0.1627
 7956TIP3    H123829   6.412   3.901   0.402  2.3617  0.6563 -0.2144
 7956TIP3    H223830   6.338   3.954   0.523  2.4423 -2.3045  1.2058
 7957TIP3   OH223831   2.438   6.319   5.982  0.0950  0.6053 -0.0350
 7957TIP3    H123832   2.460   6.256   5.913 -1.6011 -2.1016  1.6527
 7957TIP3    H223833   2.344   6.308   5.995  0.4622  0.1986  3.3038
 7958TIP3   OH223834   2.162   5.484   1.657  0.4634 -0.4490  0.3738
 7958TIP3    H123835   2.236   5.515   1.708 -0.4529  0.6604  1.0900
 7958TIP3    H223836   2.114   5.426   1.716  0.1081 -0.2068  0.3251
 7959TIP3   OH223837   2.321   3.823   4.620 -0.6844 -0.1408 -0.0390
 7959TIP3    H123838   2.244   3.841   4.567  0.1934 -1.3831 -1.8180
 7959TIP3    H223839   2.296   3.748   4.674 -1.4471  0.8824  1.0797
 7960TIP3   OH223840   7.161   6.804   0.763  0.1952  0.1236 -0.1209
 7960TIP3    H123841   7.219   6.775   0.833 -0.6842  1.1588  1.0874
 7960TIP3    H223842   7.202   6.884   0.729 -0.1296  0.4430  0.2297
 7961TIP3   OH223843   6.205   2.533   4.680  0.6594  0.7237 -0.1289
 7961TIP3    H123844   6.157   2.615   4.681 -0.5945  0.0149  0.6378
 7961TIP3    H223845   6.143   2.468   4.713  1.8677 -0.3917  0.0540
 7962TIP3   OH223846   7.164   6.539   2.478  0.0703 -0.2015  0.1068
 7962TIP3    H123847   7.202   6.543   2.566 -0.2934 -3.6975  0.5804
 7962TIP3    H223848   7.137   6.447   2.468 -2.3177  0.6465 -2.6668
 7963TIP3   OH223849   0.938   1.015   0.547 -0.1289  0.0855  0.6681
 7963TIP3    H123850   1.027   1.027   0.513  0.7699  1.3045  3.1684
 7963TIP3    H223851   0.884   1.075   0.495  0.7313  0.2456 -0.0689
 7964TIP3   OH223852   1.020   0.118   1.694 -0.1971 -0.1183 -0.3742
 7964TIP3    H123853   1.038   0.120   1.788 -0.0892 -0.8848 -0.3715
 7964TIP3    H223854   1.077   0.184   1.657 -1.7893  1.7389  0.3369
 7965TIP3   OH223855   4.531   6.111   5.824 -0.1110  0.3109  0.2942
 7965TIP3    H123856   4.609   6.058   5.841 -0.4100 -0.2548 -0.0610
 7965TIP3    H223857   4.486   6.114   5.909 -1.0232 -1.5556 -0.0766
 7966TIP3   OH223858   5.153   3.257   0.715  0.2364  0.0533  0.4639
 7966TIP3    H123859   5.206   3.327   0.677 -1.5149 -0.1959 -2.7854
 7966TIP3    H223860   5.198   3.177   0.690 -0.7533 -0.1044 -0.8908
 7967TIP3   OH223861   0.656   6.173   3.549 -0.2564 -0.2451 -0.3003
 7967TIP3    H123862   0.601   6.096   3.538  0.0754 -0.6931  1.0816
 7967TIP3    H223863   0.699   6.161   3.633  1.1786  0.5829 -0.8665
 7968TIP3   OH223864   5.394   2.427   2.583 -0.2110 -0.2941 -0.2182
 7968TIP3    H123865   5.332   2.414   2.655 -0.5234  2.7163  0.1924
 7968TIP3    H223866   5.338   2.441   2.506 -0.0658  1.0775 -0.1041
 7969TIP3   OH223867   6.205   2.708   5.687 -0.2962 -0.3759 -0.2520
 7969TIP3    H123868   6.149   2.638   5.654  0.1217 -1.8292  1.9205
 7969TIP3    H223869   6.145   2.776   5.716 -0.8822 -1.2392  0.6011
 7970TIP3   OH223870   6.879   5.736   0.239  0.5318 -0.1091 -0.5631
 7970TIP3    H123871   6.959   5.706   0.281  0.8663  0.6215 -0.6671
 7970TIP3    H223872   6.894   5.720   0.145  0.2595 -0.6436 -0.5198
 7971TIP3   OH223873   0.125   0.355   5.750 -0.1779  1.0097 -0.1563
 7971TIP3    H123874   0.161   0.379   5.835  0.0189  0.4311 -0.0755
 7971TIP3    H223875   0.172   0.276   5.725 -1.8887 -0.1934  0.2696
 7972TIP3   OH223876   4.509   1.762   5.703 -0.4777 -0.1090  0.5791
 7972TIP3    H123877   4.452   1.802   5.637  1.1471  0.7283 -0.3887
 7972TIP3    H223878   4.584   1.730   5.653 -0.4128 -1.8691  1.7199
 7973TIP3   OH223879   2.909   1.156   1.738 -0.3577  0.6659  0.2014
 7973TIP3    H123880   2.988   1.129   1.785 -0.9422 -0.8326  0.3805
 7973TIP3    H223881   2.841   1.158   1.805 -0.4342  2.2632  0.1079
 7974TIP3   OH223882   7.600   2.058   4.853 -0.4237 -0.0952 -0.5810
 7974TIP3    H123883   7.561   2.036   4.938 -1.5057 -1.6692 -1.4305
 7974TIP3    H223884   7.601   1.975   4.805  0.6552  0.6541 -1.9249
 7975TIP3   OH223885   6.510   5.836   3.889  0.4230  0.8860  0.0639
 7975TIP3    H123886   6.582   5.781   3.858  1.7529  1.9893  1.0654
 7975TIP3    H223887   6.520   5.918   3.842 -1.1666  0.5407 -0.9484
 7976TIP3   OH223888   0.373   7.089   2.571  0.0674  0.3115 -0.4896
 7976TIP3    H123889   0.312   7.015   2.575 -0.7032  0.9315  2.7134
 7976TIP3    H223890   0.460   7.048   2.572 -0.3440 -0.6055  0.7170
 7977TIP3   OH223891   4.338   1.557   1.120  0.1047  0.4200  0.5088
 7977TIP3    H123892   4.339   1.642   1.164 -0.8218  2.0185 -2.3386
 7977TIP3    H223893   4.386   1.571   1.039 -1.2865 -1.3433 -0.6952
 7978TIP3   OH223894   5.155   2.233   0.852  0.2336  0.2816  0.1580
 7978TIP3    H123895   5.072   2.184   0.849  1.0593 -1.1779  0.0080
 7978TIP3    H223896   5.206   2.190   0.920  0.7590  1.3798  0.4821
 7979TIP3   OH223897   3.461   7.132   2.449  0.1379 -0.0996  0.3270
 7979TIP3    H123898   3.473   7.042   2.477 -0.4862 -0.1138  0.5720
 7979TIP3    H223899   3.549   7.164   2.430  0.5294 -0.2505  1.8073
 7980TIP3   OH223900   6.380   4.386   4.166 -0.0491 -0.3782  0.4382
 7980TIP3    H123901   6.366   4.460   4.225 -1.4718 -0.6682  0.4779
 7980TIP3    H223902   6.419   4.318   4.221  1.1215  0.2631  0.4359
 7981TIP3   OH223903   4.735   0.048   1.551 -0.1948 -0.2256 -0.0577
 7981TIP3    H123904   4.762   0.042   1.459  0.7421 -0.6422  0.2342
 7981TIP3    H223905   4.645   0.016   1.552 -0.2388 -0.1527 -0.8356
 7982TIP3   OH223906   2.770   0.493   3.375  0.1930  0.2280  0.7526
 7982TIP3    H123907   2.711   0.421   3.398  1.3129 -1.4639 -1.2983
 7982TIP3    H223908   2.797   0.529   3.460 -1.2789 -1.0080  1.8243
 7983TIP3   OH223909   3.569   2.450   3.163  0.2074 -0.3902  0.0729
 7983TIP3    H123910   3.531   2.439   3.250  0.6414 -1.2134  0.1638
 7983TIP3    H223911   3.574   2.362   3.127  2.1566 -0.3372  0.1319
 7984TIP3   OH223912   2.112   5.014   4.243  0.0298  0.3966 -0.3273
 7984TIP3    H123913   2.146   4.926   4.224  1.3250  0.6647  0.5660
 7984TIP3    H223914   2.076   5.045   4.160 -0.9408 -1.1675 -0.5329
 7985TIP3   OH223915   6.632   6.631   4.850  0.0076  0.2537  0.1962
 7985TIP3    H123916   6.602   6.543   4.872 -0.0725  0.3806  0.5984
 7985TIP3    H223917   6.679   6.620   4.767  1.9438 -0.5708  1.3298
 7986TIP3   OH223918   4.438   0.345   2.289 -0.5189 -0.0704  0.0810
 7986TIP3    H123919   4.370   0.396   2.334 -1.0385 -1.0990  0.4809
 7986TIP3    H223920   4.492   0.310   2.359 -0.2883 -0.2462 -0.1848
 7987TIP3   OH223921   4.864   2.743   3.517  0.1471 -0.0382  0.0134
 7987TIP3    H123922   4.871   2.834   3.548  0.7504 -0.3647  0.8790
 7987TIP3    H223923   4.864   2.690   3.597  0.5581 -0.8443 -0.5074
 7988TIP3   OH223924   2.884   5.760   2.982  0.2836 -0.2079  0.1315
 7988TIP3    H123925   2.800   5.735   3.020 -0.4100  3.0232  1.0756
 7988TIP3    H223926   2.904   5.845   3.023  4.0190 -0.8198 -0.0894
 7989TIP3   OH223927   1.181   4.902   4.787 -0.3931  0.0770  0.5022
 7989TIP3    H123928   1.223   4.984   4.763  1.6452 -0.6217  1.4184
 7989TIP3    H223929   1.144   4.918   4.873 -2.0343  0.6763 -0.2802
 7990TIP3   OH223930   0.002   6.543   5.063  0.5648 -0.0707 -0.3470
 7990TIP3    H123931  -0.072   6.526   5.005  0.1741  0.7214 -0.0921
 7990TIP3    H223932   0.079   6.534   5.006  0.2604 -0.6304 -0.6733
 7991TIP3   OH223933   2.494   1.606   2.657  0.1864 -0.0062 -0.2187
 7991TIP3    H123934   2.468   1.625   2.747 -3.4185 -2.7932 -0.4076
 7991TIP3    H223935   2.521   1.514   2.659  3.1173  0.7334 -1.5470
 7992TIP3   OH223936   3.623   4.374   3.881  0.4308  0.1210  0.3861
 7992TIP3    H123937   3.697   4.315   3.880  1.7933  1.7392  0.6375
 7992TIP3    H223938   3.591   4.376   3.791  0.2493 -1.0784  0.4092
 7993TIP3   OH223939   4.246   5.619   5.213  0.1023 -0.0416  0.2913
 7993TIP3    H123940   4.287   5.540   5.250 -0.5826 -1.0799 -1.0675
 7993TIP3    H223941   4.154   5.595   5.203 -0.2462  1.1728  0.4242
 7994TIP3   OH223942   2.663   4.061   3.005 -0.2169  0.1768  0.8067
 7994TIP3    H123943   2.731   4.058   2.938 -1.1709  2.7065 -0.3910
 7994TIP3    H223944   2.583   4.035   2.959 -0.9098  2.0971  0.8348
 7995TIP3   OH223945   5.532   0.585   1.030 -0.2109  0.2003  0.0416
 7995TIP3    H123946   5.619   0.553   1.007 -0.1436  0.2083  0.2805
 7995TIP3    H223947   5.535   0.679   1.010  0.4336  0.5790  1.7183
 7996TIP3   OH223948   5.089   3.338   1.416  0.1401  0.1609 -0.1236
 7996TIP3    H123949   5.005   3.359   1.458  0.2602  0.7234 -0.1666
 7996TIP3    H223950   5.101   3.245   1.435 -0.7159 -0.0445 -0.5139
 7997TIP3   OH223951   3.005   2.661   3.719 -0.1611  0.3965 -0.3015
 7997TIP3    H123952   3.057   2.707   3.784 -0.6654  0.2302  0.2348
 7997TIP3    H223953   2.919   2.650   3.761  0.3465 -2.3899  0.2538
 7998TIP3   OH223954   4.993   1.933   4.467  1.0728  0.2940 -0.0165
 7998TIP3    H123955   4.971   1.842   4.488 -0.7589  0.4975 -0.8237
 7998TIP3    H223956   5.088   1.937   4.474  1.1902 -1.6523  0.1466
 7999TIP3   OH223957   0.181   3.402   5.593  0.0435 -0.3830  0.4537
 7999TIP3    H123958   0.216   3.462   5.659 -0.2486  0.0555  0.2213
 7999TIP3    H223959   0.200   3.315   5.626 -0.6271 -0.1820  1.4032
 8000TIP3   OH223960   2.749   0.243   0.468  0.4446 -0.2816 -0.1039
 8000TIP3    H123961   2.675   0.243   0.408  0.6749 -1.6492 -0.4200
 8000TIP3    H223962   2.816   0.191   0.424  1.6451  1.0052  0.1308
 8001TIP3   OH223963   5.627   5.261   5.146  0.0078 -0.3480  0.1234
 8001TIP3    H123964   5.537   5.231   5.137  0.3523 -0.7720 -4.7892
 8001TIP3    H223965   5.622   5.356   5.138 -0.0705 -0.3570  0.0634
 8002TIP3   OH223966   7.284   5.387   1.264  0.1983  0.0904 -0.0909
 8002TIP3    H123967   7.242   5.305   1.239  0.2123 -0.0051  0.1903
 8002TIP3    H223968   7.318   5.423   1.182  0.8494 -0.5568 -0.1203
 8003TIP3   OH223969   5.776   4.718   3.461  0.0655  0.1966 -0.0998
 8003TIP3    H123970   5.726   4.677   3.532  2.5929 -1.6209  0.7751
 8003TIP3    H223971   5.773   4.811   3.481 -0.2949 -0.1583  1.7594
 8004TIP3   OH223972   5.027   6.753   1.797  0.2072 -0.6023 -0.2158
 8004TIP3    H123973   5.060   6.670   1.833  1.0649  0.1476  0.7887
 8004TIP3    H223974   4.932   6.748   1.810  0.4440 -0.4964  1.9542
 8005TIP3   OH223975   0.395   2.857   3.491 -0.0502  0.8351 -0.1730
 8005TIP3    H123976   0.351   2.838   3.408 -1.2514  0.3606  0.5407
 8005TIP3    H223977   0.395   2.952   3.497 -1.1684  0.8477 -0.1145
 8006TIP3   OH223978   0.709   3.261   3.523 -0.0575 -0.4724  0.0846
 8006TIP3    H123979   0.791   3.293   3.559 -0.9839  3.4939 -0.8585
 8006TIP3    H223980   0.649   3.258   3.598 -0.4346  2.0929 -0.0297
 8007TIP3   OH223981   2.270   0.706   3.014  0.1873  0.5320  0.1346
 8007TIP3    H123982   2.248   0.633   3.072 -1.0724  0.7554 -0.0354
 8007TIP3    H223983   2.355   0.736   3.045  0.1469 -0.2098  1.0155
 8008TIP3   OH223984   1.155   6.992   6.096  0.4032 -0.5018 -0.1548
 8008TIP3    H123985   1.101   6.978   6.018 -0.5927  2.3591 -0.1156
 8008TIP3    H223986   1.193   7.079   6.084  2.1716 -0.9756  1.4920
 8009TIP3   OH223987   5.834   1.676   4.989  0.3608 -0.3188  0.0654
 8009TIP3    H123988   5.844   1.582   4.971  1.6353 -0.6521  2.1207
 8009TIP3    H223989   5.921   1.703   5.021 -0.1070  1.4676 -0.0787
 8010TIP3   OH223990   2.941   3.594   3.889 -0.2877 -0.2694  0.3776
 8010TIP3    H123991   3.027   3.568   3.920  0.1546  0.3420 -0.3144
 8010TIP3    H223992   2.883   3.579   3.964  0.3488 -0.9970  0.7421
 8011TIP3   OH223993   4.951   2.414   5.699 -0.0466 -0.5432 -0.0384
 8011TIP3    H123994   4.916   2.346   5.757  0.0675 -1.9608 -1.5598
 8011TIP3    H223995   4.885   2.483   5.701 -1.0980 -1.5229  0.1047
 8012TIP3   OH223996   0.744   1.880   3.783 -0.7842  0.8094  0.1163
 8012TIP3    H123997   0.796   1.885   3.702 -0.7445 -0.8432 -0.0020
 8012TIP3    H223998   0.809   1.863   3.852 -0.8865  1.5882  0.4169
 8013TIP3   OH223999   2.299   4.476   2.001 -0.6595 -0.4427 -0.2633
 8013TIP3    H124000   2.241   4.403   2.023 -0.5663 -0.8112 -1.2051
 8013TIP3    H224001   2.384   4.436   1.984 -0.5047 -0.0667 -0.3987
 8014TIP3   OH224002   5.073   4.532   2.490  0.2493 -0.4320  0.4310
 8014TIP3    H124003   5.059   4.596   2.561 -0.5345 -0.9482  0.7537
 8014TIP3    H224004   5.006   4.465   2.504  0.1185 -0.5779 -0.7701
 8015TIP3   OH224005   2.460   4.767   1.213 -0.1806  0.0078  0.0151
 8015TIP3    H124006   2.388   4.753   1.275 -0.9065  0.3485 -0.7243
 8015TIP3    H224007   2.425   4.736   1.129  1.0180 -1.0805 -0.1167
 8016TIP3   OH224008   3.442   4.052   5.438  0.7066 -0.1161 -0.4026
 8016TIP3    H124009   3.507   3.984   5.418  2.0448  0.4560  1.6706
 8016TIP3    H224010   3.369   4.004   5.478  1.0236 -0.4900 -0.2595
 8017TIP3   OH224011   0.112   1.176   2.899  0.3372 -0.2537 -0.0880
 8017TIP3    H124012   0.148   1.160   2.812  2.1942  0.9225  0.4023
 8017TIP3    H224013   0.018   1.167   2.888  0.5533 -0.5391 -2.1236
 8018TIP3   OH224014   1.385   4.107   4.540  0.0248 -0.1827  0.4387
 8018TIP3    H124015   1.436   4.030   4.563  1.5788  0.3511 -1.0468
 8018TIP3    H224016   1.408   4.126   4.449 -0.8639  1.5971  0.5335
 8019TIP3   OH224017   5.537   4.713   0.713 -0.1808  0.0349 -0.1873
 8019TIP3    H124018   5.535   4.805   0.684  1.5781  0.6540  1.4488
 8019TIP3    H224019   5.584   4.667   0.644  0.9979  0.8308  0.0594
 8020TIP3   OH224020   0.937   1.223   3.464 -0.3523 -0.0546 -0.1626
 8020TIP3    H124021   0.842   1.228   3.460 -0.3899 -1.0747 -1.6880
 8020TIP3    H224022   0.961   1.273   3.542 -2.2066 -0.7463  0.9208
 8021TIP3   OH224023   2.286   1.825   6.178 -0.6962  0.1198  0.2205
 8021TIP3    H124024   2.290   1.919   6.163 -1.1103  0.4793  2.1408
 8021TIP3    H224025   2.282   1.815   6.273 -2.0518 -1.7810  0.0403
 8022TIP3   OH224026   5.388   6.149   3.373 -0.4045  0.2590  0.4620
 8022TIP3    H124027   5.356   6.213   3.436  2.0081  0.8420  1.1999
 8022TIP3    H224028   5.475   6.181   3.348 -0.1854 -1.3827 -1.1358
 8023TIP3   OH224029   5.169   2.582   2.415  0.0153 -0.0338 -0.6441
 8023TIP3    H124030   5.102   2.518   2.393  0.4872  0.1090 -2.6411
 8023TIP3    H224031   5.120   2.660   2.443 -0.5674 -0.7487  0.4087
 8024TIP3   OH224032   3.776   1.519   3.131 -0.2042 -0.1863  0.4144
 8024TIP3    H124033   3.711   1.589   3.122  0.5399  0.3088 -1.5545
 8024TIP3    H224034   3.838   1.552   3.197  0.5045  1.3533 -0.9604
 8025TIP3   OH224035   6.938   0.410   5.798 -0.9475 -0.2012 -0.4231
 8025TIP3    H124036   6.917   0.493   5.754 -0.6710 -0.0873 -0.3418
 8025TIP3    H224037   6.895   0.417   5.883 -1.3751 -0.3675 -0.6203
 8026TIP3   OH224038   2.673   4.410   3.901 -0.4340  0.1719 -0.3660
 8026TIP3    H124039   2.658   4.370   3.987  0.9172  1.4049  0.4893
 8026TIP3    H224040   2.599   4.469   3.889 -0.5243  0.1526  0.0617
 8027TIP3   OH224041   7.554   2.308   2.900  0.2514 -0.0403 -0.5861
 8027TIP3    H124042   7.640   2.325   2.864  0.2828 -0.4478 -0.7157
 8027TIP3    H224043   7.493   2.338   2.833  0.3108 -2.6043 -1.9235
 8028TIP3   OH224044   4.452   3.905   0.787 -0.3710  0.0905 -0.3034
 8028TIP3    H124045   4.378   3.854   0.754 -0.4300 -0.2783  0.4004
 8028TIP3    H224046   4.416   3.956   0.859 -0.4674  1.6293 -1.3799
 8029TIP3   OH224047   7.079   1.348   1.909  0.3068 -0.2731 -0.0499
 8029TIP3    H124048   7.012   1.387   1.853  1.5532  1.5374 -0.3316
 8029TIP3    H224049   7.117   1.278   1.857 -0.2485 -0.2536 -0.4890
 8030TIP3   OH224050   4.222   6.903   4.911  0.1870  0.3616  0.4160
 8030TIP3    H124051   4.215   6.809   4.926  0.7619 -0.0372 -1.5981
 8030TIP3    H224052   4.144   6.925   4.860  0.2298  0.9356  0.5907
 8031TIP3   OH224053   3.511   3.657   1.817 -0.3946 -0.0445  0.1497
 8031TIP3    H124054   3.468   3.729   1.770 -0.1378 -1.2209 -2.0257
 8031TIP3    H224055   3.459   3.580   1.794  0.8761 -0.9617  0.2633
 8032TIP3   OH224056   5.200   2.320   5.726  0.2109  0.2820  0.4171
 8032TIP3    H124057   5.123   2.369   5.698 -0.6624  0.3925  2.8016
 8032TIP3    H224058   5.172   2.275   5.806  2.3369 -0.4825  0.7938
 8033TIP3   OH224059   1.103   2.872   4.585 -0.0764  0.0549  0.1430
 8033TIP3    H124060   1.139   2.932   4.651 -2.5669  0.1359  1.5709
 8033TIP3    H224061   1.138   2.786   4.609  0.4354  0.3584  0.4926
 8034TIP3   OH224062   3.060   3.574   5.225  0.0953 -0.0347  0.1143
 8034TIP3    H124063   3.099   3.658   5.251 -0.6142  0.4919 -0.4659
 8034TIP3    H224064   3.013   3.594   5.144 -1.4149 -0.6304  0.8044
 8035TIP3   OH224065   3.669   5.889   3.643  0.3545 -0.7161 -0.0243
 8035TIP3    H124066   3.705   5.909   3.730  0.7005 -0.7982 -0.1521
 8035TIP3    H224067   3.649   5.796   3.646  0.1062 -0.6633  0.0604
 8036TIP3   OH224068   0.426   4.452   5.649  0.3644 -0.8384 -0.2195
 8036TIP3    H124069   0.381   4.506   5.585 -0.3082 -0.7881  0.2923
 8036TIP3    H224070   0.518   4.453   5.620  0.6548  1.7119  0.5623
 8037TIP3   OH224071   6.107   6.986   5.838  0.1271 -0.7810 -0.1980
 8037TIP3    H124072   6.122   6.979   5.743  1.5896 -0.9709  0.0316
 8037TIP3    H224073   6.081   7.077   5.851  1.0442 -0.4430 -0.6507
 8038TIP3   OH224074   2.751   0.831   5.027 -0.1212 -0.0866  0.2912
 8038TIP3    H124075   2.797   0.888   4.966  0.3503 -0.2837  0.4622
 8038TIP3    H224076   2.668   0.810   4.982  1.1515 -2.0772 -1.3339
 8039TIP3   OH224077   1.441   6.683   2.614  0.6934  0.3120  0.0704
 8039TIP3    H124078   1.487   6.733   2.682 -1.2169  1.2481  0.7352
 8039TIP3    H224079   1.392   6.617   2.662  3.8964 -3.0771 -0.8272
 8040TIP3   OH224080   1.077   5.169   4.901  0.6416 -0.0101  0.0062
 8040TIP3    H124081   0.984   5.158   4.884  0.2015  2.7680  0.0823
 8040TIP3    H224082   1.086   5.154   4.995 -0.1214  1.4861  0.3518
 8041TIP3   OH224083   3.069   0.576   4.975 -0.1890  0.2986  0.3191
 8041TIP3    H124084   2.987   0.529   4.989 -0.3225  0.3598 -0.2453
 8041TIP3    H224085   3.135   0.507   4.964 -0.5886  0.1823 -1.7913
 8042TIP3   OH224086   1.196   1.769   0.989  0.1397 -0.2491  0.2115
 8042TIP3    H124087   1.217   1.739   0.900 -0.5702  0.1361 -0.0981
 8042TIP3    H224088   1.259   1.839   1.006 -1.2168  1.3603 -0.9709
 8043TIP3   OH224089   0.952   4.732   5.582 -0.0248 -0.0114 -0.0126
 8043TIP3    H124090   0.966   4.807   5.524  0.0329 -0.6456 -0.8492
 8043TIP3    H224091   1.013   4.746   5.655 -0.0492  0.7723 -0.1350
 8044TIP3   OH224092   6.734   1.462   3.391 -0.3848  0.5749 -0.5577
 8044TIP3    H124093   6.698   1.419   3.314 -1.5872 -1.3645  0.9731
 8044TIP3    H224094   6.785   1.394   3.435  0.0623  1.5405  0.4783
 8045TIP3   OH224095   3.713   7.170   2.695  0.2862 -0.0153  0.0883
 8045TIP3    H124096   3.685   7.079   2.689  2.4282 -0.7956  0.9940
 8045TIP3    H224097   3.738   7.194   2.606 -0.8152 -0.0999 -0.2587
 8046TIP3   OH224098   2.869   5.480   0.495  0.0159  0.0106 -0.5224
 8046TIP3    H124099   2.817   5.408   0.460 -0.8414 -0.3277  1.2982
 8046TIP3    H224100   2.960   5.454   0.479 -0.2630 -1.5981  0.2223
 8047TIP3   OH224101   2.620   1.205   5.414  0.4688 -0.1712 -0.0807
 8047TIP3    H124102   2.682   1.155   5.466  1.4574  0.2562 -0.8029
 8047TIP3    H224103   2.571   1.140   5.364 -0.3737 -0.5730  1.2190
 8048TIP3   OH224104   3.939   6.513   2.531  0.0457 -1.0609  0.2294
 8048TIP3    H124105   3.850   6.512   2.568  0.5377  0.3017  1.5477
 8048TIP3    H224106   3.925   6.517   2.436 -1.4751  3.4374  0.4007
 8049TIP3   OH224107   6.779   2.594   2.025  0.4118 -0.0485 -0.2576
 8049TIP3    H124108   6.847   2.661   2.031  2.4398 -1.7567 -2.2647
 8049TIP3    H224109   6.761   2.586   1.931 -0.3878 -1.6824 -0.0090
 8050TIP3   OH224110   3.803   6.214   3.681 -0.0892  0.3621 -0.1376
 8050TIP3    H124111   3.894   6.205   3.652 -0.3715 -0.8710 -0.6876
 8050TIP3    H224112   3.791   6.141   3.743 -1.1166 -0.3721 -1.1723
 8051TIP3   OH224113   2.025   3.010   6.170  0.2611 -0.8186 -0.7410
 8051TIP3    H124114   2.083   2.966   6.232 -2.0726 -0.7451  1.7312
 8051TIP3    H224115   2.080   3.029   6.094  2.7946 -2.8008  0.4311
 8052TIP3   OH224116   2.547   1.705   2.898 -0.1566 -0.0323 -0.5766
 8052TIP3    H124117   2.530   1.741   2.984 -1.2995 -0.0525 -0.7746
 8052TIP3    H224118   2.641   1.689   2.896  0.4283  2.8709 -0.4630
 8053TIP3   OH224119   2.799   0.202   4.294  0.0817  0.3658 -0.1197
 8053TIP3    H124120   2.785   0.109   4.311 -0.6071 -0.0193 -2.5192
 8053TIP3    H224121   2.892   0.216   4.311 -0.2185 -0.1741  2.4977
 8054TIP3   OH224122   7.027   3.117   3.979  0.2848 -0.3798 -0.2645
 8054TIP3    H124123   7.050   3.025   3.967  0.1680 -0.1150 -3.1703
 8054TIP3    H224124   7.111   3.161   3.991  0.3912 -0.7624  0.4387
 8055TIP3   OH224125   6.251   7.019   4.102 -0.3551  0.1965 -0.3114
 8055TIP3    H124126   6.332   7.006   4.152 -0.8275  2.6916  1.2813
 8055TIP3    H224127   6.277   7.007   4.011  1.8418  0.9277  0.1554
 8056TIP3   OH224128   4.147   3.044   5.475 -0.4708 -0.2816 -0.0502
 8056TIP3    H124129   4.125   3.128   5.516  2.3472  0.0439  1.0144
 8056TIP3    H224130   4.241   3.050   5.457 -0.6112 -2.4123 -1.9644
 8057TIP3   OH224131   1.251   2.687   5.947  0.5190 -0.0777 -0.1215
 8057TIP3    H124132   1.183   2.645   5.895 -0.6639 -0.6194  1.7825
 8057TIP3    H224133   1.220   2.776   5.962 -0.8696 -0.8835  2.4266
 8058TIP3   OH224134   4.781   4.314   0.112 -0.5948 -0.2158 -0.1199
 8058TIP3    H124135   4.727   4.393   0.114 -1.9339 -1.0627 -0.9730
 8058TIP3    H224136   4.854   4.336   0.055 -1.4309  0.1360 -1.0795
 8059TIP3   OH224137   6.453   6.760   2.557  0.0736  0.2011 -0.2497
 8059TIP3    H124138   6.359   6.771   2.543 -0.0494  3.5344  2.1057
 8059TIP3    H224139   6.494   6.793   2.477 -0.6900 -0.6917 -1.0336
 8060TIP3   OH224140   2.354   6.427   3.832 -0.3712 -0.5437 -1.0002
 8060TIP3    H124141   2.391   6.348   3.793 -0.2617  0.0455 -2.1131
 8060TIP3    H224142   2.308   6.395   3.910  0.9749 -1.5027 -0.5625
 8061TIP3   OH224143   2.147   2.275   5.085  0.0664 -0.1713 -0.1935
 8061TIP3    H124144   2.207   2.273   5.159 -1.0938  0.9882  0.8316
 8061TIP3    H224145   2.119   2.366   5.079  0.8353 -0.0439 -2.6808
 8062TIP3   OH224146   3.975   3.929   3.543 -0.6771 -0.2108  0.2465
 8062TIP3    H124147   3.948   3.838   3.547  0.9482 -0.7041  0.6141
 8062TIP3    H224148   4.038   3.933   3.471 -0.7780  0.6361  0.1871
 8063TIP3   OH224149   2.567   0.802   1.905  0.0323 -0.1514  0.0289
 8063TIP3    H124150   2.602   0.854   1.977  0.6002  0.3590 -0.6065
 8063TIP3    H224151   2.642   0.781   1.851 -0.6886  1.6760 -1.8091
 8064TIP3   OH224152   5.843  -0.006   4.124 -0.1719 -0.3049  0.5031
 8064TIP3    H124153   5.829  -0.032   4.033 -1.6641 -1.0555  0.9157
 8064TIP3    H224154   5.871   0.085   4.119 -1.7852  0.1793 -0.6446
 8065TIP3   OH224155   6.776   1.599   2.823  0.3449  0.2638  0.1115
 8065TIP3    H124156   6.807   1.678   2.867  1.0915  0.0469 -0.0194
 8065TIP3    H224157   6.682   1.613   2.813  0.5893  1.5254 -0.6776
 8066TIP3   OH224158   7.395   0.998   5.185  0.3275  0.2154 -0.3349
 8066TIP3    H124159   7.330   1.065   5.203 -1.7424 -2.0868  1.4258
 8066TIP3    H224160   7.368   0.960   5.101  0.0599 -0.0151 -0.1441
 8067TIP3   OH224161   4.203   4.496   2.132  0.1143 -0.0896  0.0623
 8067TIP3    H124162   4.246   4.559   2.074 -0.0592  0.4366  0.4888
 8067TIP3    H224163   4.191   4.545   2.214  0.3510 -0.8164  0.5344
 8068TIP3   OH224164   0.953   1.940   0.111 -0.3196  0.6907  0.2760
 8068TIP3    H124165   0.930   1.925   0.202  1.5240 -3.6161  0.2595
 8068TIP3    H224166   0.899   1.879   0.062  0.6530  0.9835 -1.2390
 8069TIP3   OH224167   5.324   6.995   1.184 -0.6659 -0.3962 -0.3567
 8069TIP3    H124168   5.410   6.999   1.226 -0.3427  0.1105 -1.0485
 8069TIP3    H224169   5.262   6.990   1.256 -0.1198  0.4463  0.1758
 8070TIP3   OH224170   1.798   2.302   2.380 -0.0931  0.2351  0.2192
 8070TIP3    H124171   1.789   2.223   2.327  0.6006  1.2497 -1.5031
 8070TIP3    H224172   1.745   2.285   2.458 -1.6578 -1.1034 -1.0684
 8071TIP3   OH224173   7.310   3.406   1.780  0.4529  0.3100 -0.4755
 8071TIP3    H124174   7.368   3.424   1.707  1.3377  1.2153  0.4118
 8071TIP3    H224175   7.222   3.406   1.741  0.8039  1.8951 -1.3839
 8072TIP3   OH224176   7.207   0.879   2.459 -0.1145 -0.4434  0.2381
 8072TIP3    H124177   7.271   0.902   2.391  0.5298  2.5465  1.6966
 8072TIP3    H224178   7.259   0.837   2.527 -0.1321 -0.2603  0.3652
 8073TIP3   OH224179   3.091   2.564   2.010  0.1179  0.1774 -0.0937
 8073TIP3    H124180   2.995   2.560   2.005 -0.0514  1.5426  1.1788
 8073TIP3    H224181   3.121   2.531   1.926 -1.4273 -1.4663 -0.0711
 8074TIP3   OH224182   2.653   1.662   5.705 -0.3143 -0.4086 -0.4383
 8074TIP3    H124183   2.573   1.621   5.672 -0.4886  0.2019 -0.7886
 8074TIP3    H224184   2.724   1.621   5.656 -0.4577 -0.5609 -0.5182
 8075TIP3   OH224185   0.194   1.873   5.335  0.2632  0.1018 -0.4063
 8075TIP3    H124186   0.165   1.831   5.255 -0.1749 -1.3324  0.4647
 8075TIP3    H224187   0.290   1.864   5.334  0.1467 -1.5010  0.0328
 8076TIP3   OH224188   6.270   6.868   0.674 -0.5571 -0.0541 -0.4933
 8076TIP3    H124189   6.275   6.777   0.644 -2.1535  0.0065 -1.0386
 8076TIP3    H224190   6.197   6.905   0.625 -2.1718  0.5564  2.1774
 8077TIP3   OH224191   6.573   5.717   1.071 -0.3470  0.4126 -0.5884
 8077TIP3    H124192   6.478   5.716   1.084 -0.5635 -0.3604 -2.0208
 8077TIP3    H224193   6.594   5.629   1.039  0.5530  1.1620 -2.1537
 8078TIP3   OH224194   5.431   5.525   6.099 -0.8144 -0.1275  0.0233
 8078TIP3    H124195   5.510   5.528   6.046 -0.7808  1.7082  0.0990
 8078TIP3    H224196   5.412   5.432   6.110  2.0741 -0.6785  1.1553
 8079TIP3   OH224197   5.486   7.069   2.866 -1.2979 -0.2231  0.8583
 8079TIP3    H124198   5.433   7.145   2.844  1.1277  1.6624  1.0622
 8079TIP3    H224199   5.487   7.067   2.962 -1.7804 -0.8605  0.8578
 8080TIP3   OH224200   4.189   6.808   4.453  0.7163  0.0962  0.3748
 8080TIP3    H124201   4.272   6.847   4.480  0.8921 -0.1595  0.1969
 8080TIP3    H224202   4.210   6.718   4.428  0.2554 -0.2318  1.1195
 8081TIP3   OH224203   0.860   1.832   6.188 -0.2721 -0.6509  0.5415
 8081TIP3    H124204   0.914   1.897   6.233  1.7747 -1.9690  0.1633
 8081TIP3    H224205   0.834   1.874   6.106 -1.1053  0.5371  1.3903
 8082TIP3   OH224206   0.015   2.929   1.163 -0.6487  0.5006  0.2648
 8082TIP3    H124207   0.077   2.898   1.097 -1.6411 -1.8979  0.3481
 8082TIP3    H224208   0.063   2.920   1.246 -0.7177 -0.2936  0.2248
 8083TIP3   OH224209   6.151   0.306   6.216  0.0308  1.1549 -0.3212
 8083TIP3    H124210   6.077   0.246   6.210 -0.0451  1.3057 -0.9052
 8083TIP3    H224211   6.125   0.382   6.164  0.5300  1.2754 -0.4027
 8084TIP3   OH224212   7.305   5.190   1.857  0.0569 -0.0564 -0.7667
 8084TIP3    H124213   7.383   5.140   1.877  0.2262  0.5990  0.3273
 8084TIP3    H224214   7.333   5.282   1.864 -0.9751  0.1972  0.4853
 8085TIP3   OH224215   7.127   1.927   1.572  0.8704 -0.0149  0.0188
 8085TIP3    H124216   7.151   2.002   1.518 -1.9321  1.4943  0.6762
 8085TIP3    H224217   7.182   1.933   1.649  1.0149  1.0981 -0.1664
 8086TIP3   OH224218   6.028   0.758   0.098  0.6161 -0.3268 -0.2031
 8086TIP3    H124219   5.998   0.717   0.017  0.4245 -0.7227  0.0574
 8086TIP3    H224220   5.966   0.727   0.164  0.5147  0.3343  0.0180
 8087TIP3   OH224221   6.314   3.068   1.254 -0.1426 -0.0763 -0.1823
 8087TIP3    H124222   6.248   3.027   1.310  1.5828 -0.2128  1.8976
 8087TIP3    H224223   6.313   3.160   1.278  0.3070 -0.0546 -0.2326
 8088TIP3   OH224224   6.638   6.870   5.278  0.1681  0.1019 -0.3969
 8088TIP3    H124225   6.609   6.851   5.189  1.0557 -0.1583 -0.6420
 8088TIP3    H224226   6.729   6.841   5.280  1.1633  2.9586 -0.3532
 8089TIP3   OH224227   1.578   4.430   4.080 -1.1433  0.2668 -0.4223
 8089TIP3    H124228   1.539   4.359   4.029 -0.0613 -0.2038 -0.6429
 8089TIP3    H224229   1.621   4.485   4.014  0.3136 -0.3783 -0.0659
 8090TIP3   OH224230   1.331   5.519   4.718 -0.0120 -0.1157  0.1874
 8090TIP3    H124231   1.423   5.515   4.745  0.0030  2.2802  0.7693
 8090TIP3    H224232   1.325   5.462   4.642  2.1475  0.2837 -0.3354
 8091TIP3   OH224233   6.487   4.077   3.442  0.2763  0.5975  0.0757
 8091TIP3    H124234   6.527   4.161   3.464  1.0449  0.2005  0.2404
 8091TIP3    H224235   6.473   4.082   3.347  1.2557  0.5276 -0.0821
 8092TIP3   OH224236   4.902   6.595   3.110  0.1029  0.0430  0.2362
 8092TIP3    H124237   4.915   6.645   3.191  0.7869  0.3653 -0.0654
 8092TIP3    H224238   4.846   6.652   3.056 -0.1282 -0.0519  0.3775
 8093TIP3   OH224239   6.523   5.013   2.050 -0.0936 -0.0055 -0.1633
 8093TIP3    H124240   6.489   4.984   1.966 -3.2430  1.4153  0.4396
 8093TIP3    H224241   6.583   5.085   2.029 -0.3945 -0.0466 -1.2168
 8094TIP3   OH224242   6.891   3.389   0.106  0.6709 -0.0585  0.4530
 8094TIP3    H124243   6.901   3.365   0.014 -0.8495  0.3111  0.1718
 8094TIP3    H224244   6.920   3.480   0.111  0.7040 -0.0626  0.3306
 8095TIP3   OH224245   0.238   4.366   6.005  0.2491  0.1575  0.0798
 8095TIP3    H124246   0.260   4.355   5.912  0.1312  2.6543 -0.3212
 8095TIP3    H224247   0.148   4.335   6.012  0.1798  0.1517 -0.7106
 8096TIP3   OH224248   4.240   5.498   6.149  0.0399 -0.2682  0.4246
 8096TIP3    H124249   4.235   5.593   6.140 -1.0638 -0.4087 -0.8786
 8096TIP3    H224250   4.151   5.472   6.173  0.0898 -1.0491 -0.2015
 8097TIP3   OH224251   2.580   2.249   2.929  0.1740  0.0414 -0.0749
 8097TIP3    H124252   2.570   2.344   2.919  0.2407  0.0626  0.0563
 8097TIP3    H224253   2.504   2.222   2.980  0.8040  0.2140  0.9916
 8098TIP3   OH224254   2.456   3.112   3.204 -0.5300  0.4999  0.3070
 8098TIP3    H124255   2.371   3.085   3.170 -0.7387 -2.6698  2.8743
 8098TIP3    H224256   2.517   3.094   3.133 -1.4712 -1.6050 -0.0440
 8099TIP3   OH224257   3.928   2.081   4.691  0.6149 -0.6191 -0.2633
 8099TIP3    H124258   4.003   2.028   4.719  1.0159 -0.7471 -1.4753
 8099TIP3    H224259   3.891   2.116   4.771  1.3774 -1.3715  0.4338
 8100TIP3   OH224260   7.516   4.324   5.959  0.2064  0.6455  0.4038
 8100TIP3    H124261   7.500   4.232   5.937  2.2605  0.2590  0.3735
 8100TIP3    H224262   7.487   4.372   5.881  1.8895 -0.2409 -0.8320
 8101TIP3   OH224263   2.630   6.195   4.899  0.3339 -0.0049 -0.0282
 8101TIP3    H124264   2.674   6.253   4.961 -2.6362 -0.0801  2.3790
 8101TIP3    H224265   2.600   6.253   4.828  1.0535  0.6239  0.1691
 8102TIP3   OH224266   6.717   2.194   1.755  0.1665  0.4041 -0.1384
 8102TIP3    H124267   6.679   2.171   1.670  0.2135  0.9586 -0.3137
 8102TIP3    H224268   6.644   2.232   1.804 -0.1664 -1.0379  0.5268
 8103TIP3   OH224269   4.840   3.188   2.248 -0.1324  0.8844 -0.3787
 8103TIP3    H124270   4.851   3.268   2.300 -0.2049  0.4497  0.3271
 8103TIP3    H224271   4.881   3.120   2.301 -1.1120  0.2556 -0.4092
 8104TIP3   OH224272   6.777   1.952   2.442 -0.3394  0.3755 -0.4055
 8104TIP3    H124273   6.704   1.940   2.381 -0.6175 -0.0989  0.0230
 8104TIP3    H224274   6.847   1.899   2.406 -0.5201  0.0549 -0.2865
 8105TIP3   OH224275   2.192   6.472   0.212  0.3212  0.1796  0.1058
 8105TIP3    H124276   2.229   6.484   0.300  0.5384  0.2283  0.0103
 8105TIP3    H224277   2.227   6.388   0.183  1.3208  0.7700 -0.4514
 8106TIP3   OH224278   3.399   3.809   0.371 -0.5196  0.2174  0.6680
 8106TIP3    H124279   3.388   3.762   0.454 -1.1720 -0.9685 -0.0737
 8106TIP3    H224280   3.465   3.760   0.324  0.1252  1.1086  0.6129
 8107TIP3   OH224281   3.961   5.688   4.917 -0.0942 -0.0607 -0.4483
 8107TIP3    H124282   4.043   5.697   4.868 -0.7707  0.0156 -1.5915
 8107TIP3    H224283   3.973   5.608   4.968  0.5302 -0.2958 -0.9462
 8108TIP3   OH224284   7.204   6.731   3.634 -0.2409  0.2459 -0.3171
 8108TIP3    H124285   7.165   6.748   3.720  2.4105 -0.1174  1.0869
 8108TIP3    H224286   7.266   6.659   3.650 -0.8011 -0.9382 -2.9277
 8109TIP3   OH224287   5.099   2.803   5.203 -0.3410  0.0383 -0.2219
 8109TIP3    H124288   5.139   2.817   5.289 -0.7944 -0.6654  0.1172
 8109TIP3    H224289   5.010   2.839   5.212 -1.0970 -1.8247  0.2749
 8110TIP3   OH224290   5.629   5.635   1.593  0.2290  0.4574  0.4306
 8110TIP3    H124291   5.600   5.717   1.632  0.4248  2.0001 -2.3913
 8110TIP3    H224292   5.716   5.620   1.630 -0.5043  0.5634  2.2598
 8111TIP3   OH224293   4.867   7.041   2.276 -0.6765  0.4183 -0.2498
 8111TIP3    H124294   4.956   7.073   2.266 -0.3287 -0.6031 -0.5562
 8111TIP3    H224295   4.812   7.119   2.265  0.2355  1.8909  3.7662
 8112TIP3   OH224296   3.530   1.517   2.264  0.2535 -0.1904 -0.1718
 8112TIP3    H124297   3.479   1.537   2.185  1.5957  2.3024 -0.5067
 8112TIP3    H224298   3.477   1.552   2.336  1.2327  2.1294 -0.4939
 8113TIP3   OH224299   4.029   3.354   2.542 -0.3886 -0.1486  0.2334
 8113TIP3    H124300   3.982   3.393   2.468 -0.8456 -1.7036 -0.3181
 8113TIP3    H224301   4.122   3.367   2.520 -0.5247  0.9701  0.2654
 8114TIP3   OH224302   7.382   2.864   6.005  0.0266 -0.2451  0.1998
 8114TIP3    H124303   7.303   2.812   6.021 -0.4240 -0.1121 -1.3892
 8114TIP3    H224304   7.424   2.821   5.930  0.9830  0.2203  0.4523
 8115TIP3   OH224305   4.719   2.730   5.431 -0.1240 -0.0423  0.1954
 8115TIP3    H124306   4.759   2.804   5.476 -0.0626 -0.3462  0.6525
 8115TIP3    H224307   4.788   2.696   5.375 -0.7545  1.5020 -1.6141
 8116TIP3   OH224308   0.675   0.758   1.792  0.1167 -0.2245  0.2656
 8116TIP3    H124309   0.728   0.715   1.859 -1.5808 -1.1098  1.0912
 8116TIP3    H224310   0.676   0.697   1.718 -0.9796 -1.0049  0.8569
 8117TIP3   OH224311   6.212   5.280   5.144  0.3628  0.0724 -0.4322
 8117TIP3    H124312   6.223   5.294   5.050 -0.8240  0.6647 -0.4973
 8117TIP3    H224313   6.287   5.324   5.184  1.8327 -1.6499 -1.1716
 8118TIP3   OH224314   1.541   5.836   4.199  0.1185 -0.8492  0.0275
 8118TIP3    H124315   1.609   5.865   4.259 -0.7954  1.1684  0.1742
 8118TIP3    H224316   1.489   5.774   4.250  0.4038 -0.5211  0.7286
 8119TIP3   OH224317   2.568   6.005   6.053 -0.2165  0.3366  0.2240
 8119TIP3    H124318   2.566   6.100   6.041 -0.6251  0.6415  2.3405
 8119TIP3    H224319   2.658   5.980   6.031 -0.2676  1.1082 -0.9320
 8120TIP3   OH224320   1.640   0.833   3.074  0.1889  0.2125  0.0560
 8120TIP3    H124321   1.674   0.757   3.121 -1.5096  0.9799  2.7332
 8120TIP3    H224322   1.709   0.899   3.083  1.0580 -0.4997 -1.0516
 8121TIP3   OH224323   2.507   6.637   3.927  0.6493 -0.1862 -0.0573
 8121TIP3    H124324   2.451   6.578   3.877  1.0717 -0.7792  0.1493
 8121TIP3    H224325   2.593   6.594   3.926  1.2125  0.9252 -0.7372
 8122TIP3   OH224326   1.445   6.635   2.344  0.1097  0.0014 -0.3610
 8122TIP3    H124327   1.516   6.574   2.325 -1.6028 -1.9275 -0.8513
 8122TIP3    H224328   1.451   6.651   2.439  1.1750 -0.1305 -0.3993
 8123TIP3   OH224329   7.477   6.278   3.703  0.6782 -0.0223  0.1896
 8123TIP3    H124330   7.481   6.276   3.799 -0.2768 -0.1096  0.2310
 8123TIP3    H224331   7.476   6.371   3.681 -0.5253  0.0103  0.3370
 8124TIP3   OH224332   3.092   4.659   5.327  0.1909 -0.4583  0.2761
 8124TIP3    H124333   3.042   4.648   5.246  1.8853 -1.0909 -0.7369
 8124TIP3    H224334   3.113   4.570   5.355 -0.7266 -0.2676  1.6827
 8125TIP3   OH224335   0.896   3.209   0.156  0.4650 -0.6650 -0.3896
 8125TIP3    H124336   0.849   3.290   0.177 -0.6060 -1.5269  0.6296
 8125TIP3    H224337   0.943   3.230   0.075 -1.0247  0.5088 -1.0225
 8126TIP3   OH224338   6.279   1.510   3.066 -0.0895 -0.0238 -0.4470
 8126TIP3    H124339   6.353   1.456   3.037 -1.3427 -1.4328 -1.1827
 8126TIP3    H224340   6.315   1.598   3.073  1.8857 -0.8081  0.1301
 8127TIP3   OH224341   3.295   0.586   2.477 -0.0452 -0.1796 -0.7684
 8127TIP3    H124342   3.265   0.631   2.397 -2.6086 -0.5102 -0.1039
 8127TIP3    H224343   3.242   0.506   2.480  1.1512 -0.9647  0.4544
 8128TIP3   OH224344   1.741   6.166   0.027  0.0543  0.1438  0.0112
 8128TIP3    H124345   1.720   6.094   0.085  1.6225 -0.7503 -0.4673
 8128TIP3    H224346   1.665   6.173  -0.031 -0.0345 -1.2703 -0.0760
 8129TIP3   OH224347   0.983   3.978   3.408 -0.4113  0.1312 -0.5152
 8129TIP3    H124348   0.954   3.887   3.415 -1.6053  0.3147 -2.3585
 8129TIP3    H224349   0.917   4.028   3.455 -1.4005  0.2684 -1.9971
 8130TIP3   OH224350   1.349   5.087   4.086 -0.1987  0.2211  0.7442
 8130TIP3    H124351   1.290   5.144   4.137 -0.9023  0.9955 -0.8650
 8130TIP3    H224352   1.294   5.012   4.063 -0.4279  0.7052 -0.3307
 8131TIP3   OH224353   2.768   6.771   5.079  0.6073  0.4821  0.4555
 8131TIP3    H124354   2.828   6.769   5.005 -0.8454 -0.5522 -0.7618
 8131TIP3    H224355   2.811   6.718   5.147  2.0045  1.5388  0.4343
 8132TIP3   OH224356   4.248   1.319   5.119 -0.0309  0.1865  0.3208
 8132TIP3    H124357   4.255   1.276   5.033 -0.4618 -2.1898  1.3705
 8132TIP3    H224358   4.228   1.410   5.099 -1.7169 -0.6122 -2.1028
 8133TIP3   OH224359   6.840   1.802   5.687  0.2039  0.5851 -0.1368
 8133TIP3    H124360   6.931   1.830   5.686  0.0485  1.1847  1.2592
 8133TIP3    H224361   6.809   1.820   5.776 -0.6767 -1.5481  0.0590
 8134TIP3   OH224362   2.821   0.122   2.795 -0.1042 -0.0679 -0.1118
 8134TIP3    H124363   2.812   0.053   2.730  2.1752 -0.3633 -0.1703
 8134TIP3    H224364   2.749   0.183   2.775  0.0009 -0.6017 -2.3226
 8135TIP3   OH224365   2.051   1.128   1.768  0.7404 -0.1330  0.0664
 8135TIP3    H124366   1.988   1.194   1.741  2.4097  1.0134 -1.2642
 8135TIP3    H224367   2.016   1.046   1.735  0.1821  0.5477 -1.1072
 8136TIP3   OH224368   6.170   1.707   5.654  0.1031  0.6456 -0.0663
 8136TIP3    H124369   6.236   1.776   5.668 -0.8422  1.3658  0.9696
 8136TIP3    H224370   6.120   1.705   5.735 -0.2471 -0.9030 -0.2947
 8137TIP3   OH224371   6.454   3.114   6.121  0.1122  0.3201 -0.0765
 8137TIP3    H124372   6.511   3.084   6.050  0.0611 -0.3203  0.1468
 8137TIP3    H224373   6.496   3.194   6.153  0.3754  0.3702 -0.5376
 8138TIP3   OH224374   6.852   2.092   1.990  0.3647 -0.0521  0.1223
 8138TIP3    H124375   6.902   2.163   2.032 -0.3532  0.1778  0.6130
 8138TIP3    H224376   6.793   2.137   1.930 -0.5837 -0.1585  0.9436
 8139TIP3   OH224377   5.063   6.402   2.971 -0.8336 -1.2272  0.4303
 8139TIP3    H124378   5.071   6.433   2.881 -3.4226 -1.8997 -0.0970
 8139TIP3    H224379   5.030   6.477   3.020  1.1409 -0.6788  1.0098
 8140TIP3   OH224380   5.782   6.691   3.816  0.3382  0.2940  0.1039
 8140TIP3    H124381   5.792   6.754   3.887  0.6957 -0.2148  0.5145
 8140TIP3    H224382   5.738   6.616   3.856 -0.6195  0.5044 -0.5159
 8141TIP3   OH224383   3.193   4.869   3.206 -0.2282 -0.1343  0.4822
 8141TIP3    H124384   3.200   4.963   3.222  1.3650  0.0213 -0.8360
 8141TIP3    H224385   3.157   4.833   3.288 -1.0411  1.6122  0.9429
 8142TIP3   OH224386   4.174   0.713   3.277 -0.1362 -0.1687 -0.2779
 8142TIP3    H124387   4.127   0.629   3.279 -1.8287  0.7548  0.5539
 8142TIP3    H224388   4.105   0.779   3.277  1.1573  1.2743  1.5032
 8143TIP3   OH224389   4.136   2.715   5.680 -0.6754  0.0010 -0.2456
 8143TIP3    H124390   4.187   2.723   5.599  0.4891 -0.4757  0.4151
 8143TIP3    H224391   4.074   2.644   5.663 -0.2357 -0.2953 -0.6254
 8144TIP3   OH224392   2.742   2.537   4.799 -0.1495 -0.5952 -0.7965
 8144TIP3    H124393   2.707   2.551   4.887 -1.2345 -0.7291 -1.1888
 8144TIP3    H224394   2.815   2.476   4.812 -0.1738 -0.4660  0.0277
 8145TIP3   OH224395   5.639   2.234   2.696 -0.6248 -0.0275  0.0269
 8145TIP3    H124396   5.710   2.282   2.654 -1.5965  2.3231  0.8964
 8145TIP3    H224397   5.682   2.175   2.757  0.6421 -0.6049 -1.3586
 8146TIP3   OH224398   6.746   4.267   1.334 -0.1547  0.0751 -0.0089
 8146TIP3    H124399   6.680   4.257   1.402 -0.9874 -1.1341 -0.9355
 8146TIP3    H224400   6.797   4.186   1.337 -0.0849  0.0811 -0.7003
 8147TIP3   OH224401   1.310   4.158   0.522  0.1460  0.5375 -0.0823
 8147TIP3    H124402   1.376   4.208   0.570 -0.6210  0.5206  1.0187
 8147TIP3    H224403   1.338   4.067   0.530  1.6527  0.7228 -2.2546
 8148TIP3   OH224404   1.046   1.415   1.117 -0.6368 -0.3361 -0.1962
 8148TIP3    H124405   1.093   1.493   1.146 -1.6131 -0.5438  2.1381
 8148TIP3    H224406   0.962   1.448   1.085  0.2552 -0.1565 -2.5293
 8149TIP3   OH224407   5.149   6.744   0.847 -0.2226  0.2027 -0.6336
 8149TIP3    H124408   5.240   6.773   0.846 -0.8489  2.3686 -0.1587
 8149TIP3    H224409   5.112   6.778   0.765 -0.5659 -0.7921 -0.8976
 8150TIP3   OH224410   5.502   2.250   0.423  0.1577 -0.2686 -0.3357
 8150TIP3    H124411   5.571   2.184   0.420  1.3357  0.9102 -0.0430
 8150TIP3    H224412   5.511   2.290   0.510 -1.3843 -0.5970 -0.0004
 8151TIP3   OH224413   2.272   4.577   5.567 -0.4583  0.5886  0.3480
 8151TIP3    H124414   2.338   4.508   5.575 -0.6271  0.4583  0.6426
 8151TIP3    H224415   2.189   4.531   5.562 -0.4617  0.7146 -0.9955
 8152TIP3   OH224416   2.501   6.674   2.215  0.8908 -0.5666  0.5186
 8152TIP3    H124417   2.524   6.648   2.126  0.4999  0.2402  0.1694
 8152TIP3    H224418   2.524   6.598   2.269  1.0243 -1.1089 -0.2802
 8153TIP3   OH224419   1.866   6.919   3.910 -0.2443 -0.1830  0.2779
 8153TIP3    H124420   1.948   6.872   3.924 -0.2733 -0.3867 -0.2043
 8153TIP3    H224421   1.850   6.965   3.992  0.3752 -0.1089  0.3618
 8154TIP3   OH224422   3.558   4.791   2.436  0.3910  0.1125 -0.2772
 8154TIP3    H124423   3.553   4.852   2.363  0.0903  0.1291 -0.2449
 8154TIP3    H224424   3.631   4.733   2.414  0.0264 -0.1569 -0.8004
 8155TIP3   OH224425   3.674   5.727   1.989  0.2063 -0.6051 -0.1061
 8155TIP3    H124426   3.586   5.689   2.000  0.2308 -1.0286 -1.1852
 8155TIP3    H224427   3.731   5.651   1.979  0.7499 -0.3333  0.9126
 8156TIP3   OH224428   3.862   3.251   5.316  0.5358  0.0850  0.4908
 8156TIP3    H124429   3.927   3.206   5.261 -0.3137 -0.0784 -0.4029
 8156TIP3    H224430   3.778   3.216   5.287 -0.0641  1.3494  0.6347
 8157TIP3   OH224431   4.656   3.414   3.863 -0.2118  0.5709 -0.4404
 8157TIP3    H124432   4.703   3.378   3.938 -0.5910 -0.0502 -0.4911
 8157TIP3    H224433   4.565   3.418   3.892 -0.6297 -1.1279 -1.3561
 8158TIP3   OH224434   2.940   6.256   1.683  0.1065 -0.2978  0.6488
 8158TIP3    H124435   2.988   6.276   1.764  1.1561  1.8584 -0.4434
 8158TIP3    H224436   2.851   6.238   1.713  0.4749  0.4144  2.3095
 8159TIP3   OH224437   6.688   3.639   3.657  0.1174 -0.4490 -0.1499
 8159TIP3    H124438   6.612   3.663   3.604  0.5162 -0.8495 -0.9161
 8159TIP3    H224439   6.672   3.548   3.683 -0.3332 -0.0916  0.8922
 8160TIP3   OH224440   3.378   6.640   4.721 -0.2519 -0.0256  0.6299
 8160TIP3    H124441   3.296   6.626   4.674 -0.5694 -3.6427  1.9399
 8160TIP3    H224442   3.352   6.676   4.806 -0.1753  1.2048  0.1594
 8161TIP3   OH224443   5.573   6.774   2.964  0.0299  0.1787 -0.8490
 8161TIP3    H124444   5.553   6.690   3.005 -1.0273  0.0697 -1.5519
 8161TIP3    H224445   5.559   6.759   2.870 -0.4633  1.2132 -0.9509
 8162TIP3   OH224446   1.179   0.407   0.343 -0.0744 -0.1951 -0.1124
 8162TIP3    H124447   1.108   0.468   0.321 -0.3428 -0.2720  0.5172
 8162TIP3    H224448   1.259   0.458   0.331 -0.2961  0.2808  0.3917
 8163TIP3   OH224449   1.686   1.194   3.567 -0.0665  0.0562 -0.0406
 8163TIP3    H124450   1.629   1.256   3.522 -0.9850 -1.3371 -0.8999
 8163TIP3    H224451   1.629   1.119   3.586  1.0924 -0.6994  0.5649
 8164TIP3   OH224452   1.643   1.482   4.168  0.1348  0.1530  0.1063
 8164TIP3    H124453   1.637   1.538   4.091 -1.0392 -1.4988 -1.0600
 8164TIP3    H224454   1.726   1.508   4.210  1.3207  0.4106 -2.2509
 8165TIP3   OH224455   0.541   6.892   5.903 -0.0274  0.3748 -0.8056
 8165TIP3    H124456   0.561   6.977   5.942 -0.4209 -0.6712  1.8510
 8165TIP3    H224457   0.624   6.845   5.905  0.0188  0.4179 -1.5568
 8166TIP3   OH224458   3.834   2.598   2.305 -0.0156  0.3160  0.1539
 8166TIP3    H124459   3.754   2.650   2.299 -0.1396 -0.0194 -1.4852
 8166TIP3    H224460   3.811   2.514   2.265  0.4145 -0.7652  2.0200
 8167TIP3   OH224461   3.399   3.270   0.367 -0.1458 -0.2305  0.6338
 8167TIP3    H124462   3.486   3.256   0.404  0.9284  2.5044 -0.5843
 8167TIP3    H224463   3.341   3.275   0.443  1.2170  0.6491  1.6534
 8168TIP3   OH224464   3.154   2.051   2.886  0.4068 -0.4419 -0.4268
 8168TIP3    H124465   3.201   2.131   2.909  0.5248 -0.0739 -1.8789
 8168TIP3    H224466   3.096   2.035   2.961  0.6357  0.8000  0.0352
 8169TIP3   OH224467   2.015   1.826   5.389  0.0367  0.0915 -0.3819
 8169TIP3    H124468   2.107   1.844   5.406 -0.1184 -0.1335  0.7870
 8169TIP3    H224469   1.969   1.860   5.466 -0.5299 -2.6392  0.6203
 8170TIP3   OH224470   6.094   1.998   4.997  0.1960  0.0797  0.5848
 8170TIP3    H124471   6.074   2.046   4.917  1.0808  0.1818  0.4233
 8170TIP3    H224472   6.053   2.049   5.066 -0.4577  0.0637  0.2200
 8171TIP3   OH224473   3.909   3.584   2.843  0.2068  0.4901  0.2821
 8171TIP3    H124474   3.893   3.624   2.928  0.3816  1.8068 -0.2801
 8171TIP3    H224475   3.842   3.621   2.786  0.7370  0.4310 -0.3899
 8172TIP3   OH224476   0.897   6.683   4.321  0.3211 -0.0457  0.1733
 8172TIP3    H124477   0.931   6.594   4.312  0.4784  0.0671 -0.4177
 8172TIP3    H224478   0.853   6.684   4.405  2.2126 -0.0737  1.2229
 8173TIP3   OH224479   5.453   0.318   0.205  0.5882  0.3730 -0.3222
 8173TIP3    H124480   5.362   0.335   0.229  0.7865  0.1749  0.5819
 8173TIP3    H224481   5.474   0.387   0.141 -0.5452 -0.2746 -1.4517
 8174TIP3   OH224482   7.486   0.453   3.475 -0.8226  0.2765 -0.1105
 8174TIP3    H124483   7.495   0.505   3.555  0.8839 -0.7381  0.4128
 8174TIP3    H224484   7.393   0.427   3.474 -0.7113 -0.3847  2.0155
 8175TIP3   OH224485   4.307   5.583   1.550 -0.4881  0.1968  0.3358
 8175TIP3    H124486   4.242   5.654   1.550  1.8959  2.5079  0.7369
 8175TIP3    H224487   4.315   5.558   1.458 -0.4886  1.2912  0.0333
 8176TIP3   OH224488   0.368   1.173   1.311 -0.4163 -0.1939 -0.3193
 8176TIP3    H124489   0.433   1.221   1.362  0.3170 -0.3140 -1.1188
 8176TIP3    H224490   0.286   1.185   1.359  0.1408  0.1884  0.5538
 8177TIP3   OH224491   0.492   6.696   4.671  0.3793  0.2190 -0.5471
 8177TIP3    H124492   0.399   6.713   4.655  0.4162  0.7190 -0.2552
 8177TIP3    H224493   0.494   6.644   4.751  0.3336 -0.1376 -0.7727
 8178TIP3   OH224494   1.601   1.695   2.203  0.2288  0.4848 -0.3579
 8178TIP3    H124495   1.679   1.746   2.180  0.4577 -0.5919 -2.1217
 8178TIP3    H224496   1.533   1.761   2.217  1.5819  1.4993  2.0386
 8179TIP3   OH224497   3.202   0.212   2.196  0.2862 -0.4875  0.1584
 8179TIP3    H124498   3.187   0.132   2.146 -0.6226 -0.1484 -0.1167
 8179TIP3    H224499   3.147   0.202   2.274  0.7765 -0.4760  0.5117
 8180TIP3   OH224500   7.396   5.957   5.619  0.4951  0.2172 -0.1533
 8180TIP3    H124501   7.315   5.962   5.670  0.3480  2.3736 -0.4999
 8180TIP3    H224502   7.464   5.940   5.684  0.2192  2.1978  0.7236
 8181TIP3   OH224503   7.527   0.407   1.825  0.2356  0.1448 -0.1011
 8181TIP3    H124504   7.512   0.499   1.847  1.9173  0.6053 -0.7521
 8181TIP3    H224505   7.566   0.409   1.738  0.2851 -1.2021 -0.1369
 8182TIP3   OH224506   1.885   5.594   0.306 -0.1597  0.2014 -0.8236
 8182TIP3    H124507   1.831   5.671   0.327  1.1148  0.5617  1.5965
 8182TIP3    H224508   1.959   5.630   0.258  0.7401  0.6742  0.8202
 8183TIP3   OH224509   6.939   0.683   2.502  0.2824  0.1388 -0.5734
 8183TIP3    H124510   6.996   0.649   2.572  0.0319 -0.9613 -0.8776
 8183TIP3    H224511   6.851   0.654   2.526  0.3357 -1.3036 -1.9082
 8184TIP3   OH224512   1.226   6.295   0.795  0.2078 -0.0425 -0.4793
 8184TIP3    H124513   1.164   6.226   0.822 -0.5923  0.0887 -1.8973
 8184TIP3    H224514   1.195   6.373   0.840 -0.4135 -0.0761 -0.8273
 8185TIP3   OH224515   4.225   1.781   0.577 -0.0641 -0.3499 -0.1967
 8185TIP3    H124516   4.254   1.809   0.664 -1.5354  0.4181  0.0758
 8185TIP3    H224517   4.305   1.778   0.525  0.5486  1.4978  0.5576
 8186TIP3   OH224518   4.839   2.402   2.629 -0.2708 -0.0375  0.0608
 8186TIP3    H124519   4.856   2.408   2.535  0.7228 -1.3646  0.1285
 8186TIP3    H224520   4.851   2.491   2.661 -0.5248  0.4153 -1.0367
 8187TIP3   OH224521   3.856   5.549   1.541 -0.3023 -0.6841  0.0042
 8187TIP3    H124522   3.805   5.589   1.612 -1.5803 -3.2181  0.6415
 8187TIP3    H224523   3.931   5.509   1.586  0.5366  0.2461 -0.5214
 8188TIP3   OH224524   5.408  -0.025   3.115  0.7750  0.3274 -0.1389
 8188TIP3    H124525   5.354   0.054   3.111  0.1866 -0.0291  0.5245
 8188TIP3    H224526   5.493   0.005   3.147  0.2498  0.5584  1.0976
 8189TIP3   OH224527   3.605   5.633   6.111 -0.2659 -0.4319 -0.4067
 8189TIP3    H124528   3.688   5.629   6.159 -0.8134  0.8171  0.7031
 8189TIP3    H224529   3.538   5.628   6.179 -1.0943 -0.4392 -1.2058
 8190TIP3   OH224530   2.426   2.189   3.247  0.7961  0.1335  0.0084
 8190TIP3    H124531   2.418   2.093   3.254 -1.5558  0.2849  0.1371
 8190TIP3    H224532   2.348   2.215   3.198  1.1854  2.0410  0.3617
 8191TIP3   OH224533   1.352   0.265   1.859 -0.2695  0.0376 -0.1473
 8191TIP3    H124534   1.421   0.298   1.801 -0.7528  0.0734 -0.7140
 8191TIP3    H224535   1.397   0.206   1.918  0.0174 -1.1621 -1.5104
 8192TIP3   OH224536   1.987   5.659   5.152 -0.1881 -0.3760 -0.0761
 8192TIP3    H124537   1.903   5.701   5.130  0.6360  0.3360 -2.0721
 8192TIP3    H224538   2.030   5.646   5.067  0.3586 -3.7251  0.6038
 8193TIP3   OH224539   0.330   2.030   1.484  0.0004 -0.7346 -0.7053
 8193TIP3    H124540   0.356   1.986   1.403 -0.8053 -0.7133 -0.9815
 8193TIP3    H224541   0.390   1.995   1.550  1.4771  0.1529 -1.5240
 8194TIP3   OH224542   5.685   0.238   0.296  0.8217  0.4851 -0.8578
 8194TIP3    H124543   5.710   0.149   0.271  0.5219 -0.3654  1.5593
 8194TIP3    H224544   5.592   0.243   0.277  0.5348 -0.2449  0.2348
 8195TIP3   OH224545   3.938   1.760   4.976  0.1275  0.1206  0.1068
 8195TIP3    H124546   3.959   1.728   4.888 -1.1755 -0.9056  0.1368
 8195TIP3    H224547   3.981   1.845   4.981 -0.0759  0.3836 -1.6773
 8196TIP3   OH224548   5.913   5.915   5.159 -0.4178  0.4311 -0.2369
 8196TIP3    H124549   5.983   5.917   5.093  0.3858  0.0516  0.5797
 8196TIP3    H224550   5.941   5.978   5.225 -0.7124  0.0839  0.2225
 8197TIP3   OH224551   6.200   6.975   5.544 -0.0754 -0.2948 -0.0281
 8197TIP3    H124552   6.151   7.054   5.520  1.7535  0.6827 -0.8022
 8197TIP3    H224553   6.258   6.960   5.469  0.3781 -1.7566  0.5803
 8198TIP3   OH224554   6.865   2.353   2.151 -0.1538  0.3921  0.3390
 8198TIP3    H124555   6.954   2.367   2.183 -0.2500 -2.6851  2.3059
 8198TIP3    H224556   6.836   2.440   2.124  3.2424  1.5906  0.0303
 8199TIP3   OH224557   2.185   6.478   4.433  0.1657  0.4668 -0.1107
 8199TIP3    H124558   2.090   6.473   4.437  0.1211 -1.6468 -1.8225
 8199TIP3    H224559   2.212   6.390   4.404  2.5703  1.2663 -0.5013
 8200TIP3   OH224560   7.524   5.986   4.639  0.3444 -0.6761 -0.3244
 8200TIP3    H124561   7.493   6.016   4.725 -1.7842  0.8036 -1.5275
 8200TIP3    H224562   7.600   6.041   4.621  1.1679 -1.3933  0.8156
 8201TIP3   OH224563   0.295   3.371   3.192  0.0268  0.6018  0.2652
 8201TIP3    H124564   0.277   3.389   3.284  2.1518 -1.3384  1.1590
 8201TIP3    H224565   0.390   3.385   3.182  0.2583 -1.3297 -1.0158
 8202TIP3   OH224566   6.612   3.164   2.186  0.5556  0.5137  0.3730
 8202TIP3    H124567   6.685   3.160   2.125  0.2324  1.6993 -0.1066
 8202TIP3    H224568   6.574   3.076   2.183  0.2325  0.6815 -1.5164
 8203TIP3   OH224569   3.275   1.629   1.218  0.0366 -0.2188  0.5033
 8203TIP3    H124570   3.244   1.710   1.259 -0.2254 -0.1491  0.1722
 8203TIP3    H224571   3.230   1.559   1.265  1.5329 -0.2818  1.9313
 8204TIP3   OH224572   1.560   7.132   5.695 -0.0038  0.2041 -0.3759
 8204TIP3    H124573   1.515   7.090   5.622  1.2337 -0.9456 -0.5077
 8204TIP3    H224574   1.505   7.208   5.717 -2.8268 -1.9184  0.4652
 8205TIP3   OH224575   0.923   1.932   4.809  0.2687  0.0225 -0.2674
 8205TIP3    H124576   0.985   1.860   4.799 -0.8762 -1.0527  0.0650
 8205TIP3    H224577   0.949   1.975   4.890  0.3503 -0.6583  0.0751
 8206TIP3   OH224578   3.363   3.650   5.059 -0.5549 -0.0883  0.2177
 8206TIP3    H124579   3.297   3.706   5.018 -0.3869 -0.2001 -0.2103
 8206TIP3    H224580   3.423   3.627   4.988  0.5346  0.8340  0.8018
 8207TIP3   OH224581   2.939   2.757   1.024  0.2816  1.1685 -0.6427
 8207TIP3    H124582   3.006   2.725   0.964 -1.2605 -1.0695 -1.2909
 8207TIP3    H224583   2.863   2.774   0.968 -0.3595  1.6553  0.3371
 8208TIP3   OH224584   5.056   5.434   4.887 -0.2619 -0.0014  0.1346
 8208TIP3    H124585   5.076   5.430   4.793 -0.5650  1.5791 -0.0292
 8208TIP3    H224586   4.986   5.370   4.899  0.1827 -0.6471 -0.5891
 8209TIP3   OH224587   2.212   0.761   3.498 -0.1220  0.5095  0.1509
 8209TIP3    H124588   2.254   0.733   3.579 -1.4730  0.7641  0.9703
 8209TIP3    H224589   2.275   0.820   3.457  0.6886  0.1606  0.8730
 8210TIP3   OH224590   3.847   5.496   1.970 -0.2319  0.3275 -0.1750
 8210TIP3    H124591   3.787   5.448   1.912  0.2399  0.8958 -1.1598
 8210TIP3    H224592   3.913   5.431   1.994 -0.7774 -0.0833  0.2572
 8211TIP3   OH224593   2.633   4.089   3.762 -0.5442 -0.3557  0.0065
 8211TIP3    H124594   2.582   4.027   3.709 -0.1436 -0.3271 -0.4198
 8211TIP3    H224595   2.633   4.170   3.711  0.4297 -0.5341 -0.2793
 8212TIP3   OH224596   3.923   6.682   4.193  0.1778  0.1327  0.6300
 8212TIP3    H124597   4.006   6.634   4.197  0.3407  0.4652  3.4765
 8212TIP3    H224598   3.945   6.770   4.221 -1.1918  0.0712  2.0311
 8213TIP3   OH224599   0.775   6.743   5.907 -0.0263 -0.8372  0.1361
 8213TIP3    H124600   0.806   6.662   5.948 -1.5847 -0.9480  1.2066
 8213TIP3    H224601   0.800   6.735   5.815  0.0421 -2.4403  0.2670
 8214TIP3   OH224602   0.406   0.940   0.157 -0.0476  0.9206 -0.3676
 8214TIP3    H124603   0.425   1.021   0.203  2.6808  1.0838 -1.5817
 8214TIP3    H224604   0.385   0.967   0.068  0.3221  0.3440 -0.6379
 8215TIP3   OH224605   0.444   2.294   2.590 -0.0301  0.0965 -0.1376
 8215TIP3    H124606   0.511   2.323   2.652  1.6406  0.2778 -1.9085
 8215TIP3    H224607   0.433   2.367   2.530 -0.8465 -0.4333 -0.6648
 8216TIP3   OH224608   1.424   1.584   3.015 -0.1354 -0.2300 -0.5860
 8216TIP3    H124609   1.422   1.532   3.095 -0.7234  2.2338  1.1006
 8216TIP3    H224610   1.479   1.534   2.955 -0.9325 -2.9194  0.7617
 8217TIP3   OH224611   6.351   3.624   5.889 -0.1853 -0.2688 -0.2342
 8217TIP3    H124612   6.301   3.705   5.901  1.1530  0.6799 -0.8106
 8217TIP3    H224613   6.436   3.653   5.855  0.2887 -1.9318 -0.5598
 8218TIP3   OH224614   0.176   3.696   3.769  0.1354 -0.2803  0.0410
 8218TIP3    H124615   0.157   3.770   3.827 -0.0873  0.5715 -1.0711
 8218TIP3    H224616   0.173   3.734   3.681 -1.6377 -1.9327 -0.6844
 8219TIP3   OH224617   5.484   3.513   0.416  0.0269  0.4214  0.9434
 8219TIP3    H124618   5.423   3.444   0.390  1.2629 -0.4451  0.2513
 8219TIP3    H224619   5.459   3.534   0.507  0.2649 -1.6720  1.5377
 8220TIP3   OH224620   0.997   2.044   5.030  0.7234 -0.2993  0.1974
 8220TIP3    H124621   1.003   1.977   5.098 -0.8296 -1.8333 -1.0495
 8220TIP3    H224622   1.010   2.127   5.076 -2.2356 -1.0700  2.7895
 8221TIP3   OH224623   7.520   7.031   1.087  0.0414 -0.8069 -0.3471
 8221TIP3    H124624   7.609   7.052   1.117 -0.3100 -0.0802  0.2192
 8221TIP3    H224625   7.526   7.034   0.991  0.7037 -1.0848 -0.3181
 8222TIP3   OH224626   1.613   1.467   2.826  0.0909 -0.3312 -0.3962
 8222TIP3    H124627   1.684   1.469   2.762 -0.9773  0.3830 -1.5942
 8222TIP3    H224628   1.563   1.388   2.804  0.2028 -0.5640  0.1391
 8223TIP3   OH224629   4.163   3.203   3.110  0.9763 -0.1233 -0.1555
 8223TIP3    H124630   4.222   3.155   3.052  2.5219  0.3494  0.9587
 8223TIP3    H224631   4.098   3.243   3.051 -0.2113 -3.2506 -1.1549
 8224TIP3   OH224632   3.014   5.529   5.088 -0.1238 -0.5845  0.0407
 8224TIP3    H124633   2.925   5.549   5.116 -0.1285 -1.0361  0.3616
 8224TIP3    H224634   3.013   5.435   5.068  0.3279 -0.6401  0.2484
 8225TIP3   OH224635   7.072   1.865   4.499  0.3669 -0.0835  0.1121
 8225TIP3    H124636   7.010   1.908   4.558  0.1197  0.9934 -0.8944
 8225TIP3    H224637   7.158   1.897   4.526  0.3124 -0.0602  0.2572
 8226TIP3   OH224638   2.536   3.542   4.931 -0.0308 -0.4413 -0.0453
 8226TIP3    H124639   2.544   3.520   4.838 -0.5267 -3.1325  0.4726
 8226TIP3    H224640   2.625   3.533   4.966  0.4395  1.9414 -0.4408
 8227TIP3   OH224641   7.231   7.047   1.748 -0.1366  0.1970  0.3318
 8227TIP3    H124642   7.248   6.956   1.770  1.0696  0.1604 -0.6690
 8227TIP3    H224643   7.184   7.082   1.825  1.8550 -0.5179  1.9751
 8228TIP3   OH224644   1.872   1.811   4.140 -0.0367  0.4295 -0.3546
 8228TIP3    H124645   1.886   1.880   4.076  1.2727  0.5151 -0.0065
 8228TIP3    H224646   1.849   1.858   4.220  0.5949  0.4694 -0.1864
 8229TIP3   OH224647   3.253   2.846   2.087 -0.3239 -0.9296 -0.7208
 8229TIP3    H124648   3.220   2.758   2.066 -2.3559 -0.4876  0.3505
 8229TIP3    H224649   3.213   2.903   2.021 -1.9646 -0.3619  0.6863
 8230TIP3   OH224650   1.646   2.227   3.103  0.4166  0.2454 -0.4386
 8230TIP3    H124651   1.589   2.257   3.174  2.1408  0.7678  0.7662
 8230TIP3    H224652   1.585   2.206   3.032 -1.5069 -1.7112  1.6278
 8231TIP3   OH224653   4.801   0.122   0.502 -0.5254 -0.4519  0.1339
 8231TIP3    H124654   4.797   0.200   0.446 -0.6410 -0.7957 -0.3424
 8231TIP3    H224655   4.799   0.049   0.441  0.9389 -0.8225  0.4974
 8232TIP3   OH224656   2.692   5.929   5.301  0.2238 -0.0869  0.0489
 8232TIP3    H124657   2.609   5.929   5.349 -0.0218 -0.2454 -0.3682
 8232TIP3    H224658   2.712   6.022   5.287 -0.6677 -0.0612 -1.1741
 8233TIP3   OH224659   0.836   0.752   2.270  0.5667  0.0431 -0.3136
 8233TIP3    H124660   0.917   0.800   2.287  0.7783 -0.8004  1.1958
 8233TIP3    H224661   0.795   0.743   2.355 -0.2006 -1.1550 -0.7918
 8234TIP3   OH224662   4.925   3.768   0.017  0.0862 -0.7868 -0.1838
 8234TIP3    H124663   4.927   3.855   0.058  0.6922 -0.5989 -0.6013
 8234TIP3    H224664   4.832   3.752   0.002  0.0542  1.4671 -3.5690
 8235TIP3   OH224665   2.902   2.613   5.932 -0.4593  0.3347 -0.1324
 8235TIP3    H124666   2.995   2.599   5.952 -0.7119  0.0968  0.9008
 8235TIP3    H224667   2.877   2.689   5.984 -1.5927 -1.4021  2.0034
 8236TIP3   OH224668   2.441   2.428   5.515  0.0801 -0.4360 -0.1156
 8236TIP3    H124669   2.406   2.512   5.488  0.4795 -0.0976  0.4032
 8236TIP3    H224670   2.536   2.438   5.508  0.1226 -0.9164 -0.2703
 8237TIP3   OH224671   3.278   3.220   1.073 -0.2534 -0.1869  0.2539
 8237TIP3    H124672   3.315   3.158   1.134  0.8798 -1.7059 -1.8461
 8237TIP3    H224673   3.306   3.306   1.105  2.1185 -1.0680  0.7164
 8238TIP3   OH224674   7.527   3.413   5.037  0.0208  0.2138 -0.0624
 8238TIP3    H124675   7.537   3.349   4.966  1.8512  1.2686 -0.8301
 8238TIP3    H224676   7.550   3.497   4.997 -0.8679  1.1521  1.3011
 8239TIP3   OH224677   5.186   2.372   1.350 -0.0326  0.1742 -1.1542
 8239TIP3    H124678   5.191   2.292   1.297 -0.3885 -1.4541  1.1252
 8239TIP3    H224679   5.097   2.405   1.337 -2.1350 -3.2701  2.3588
 8240TIP3   OH224680   7.529   2.590   4.634 -0.1788 -0.0199 -0.1611
 8240TIP3    H124681   7.565   2.632   4.557 -0.0218  0.2440  0.0533
 8240TIP3    H224682   7.481   2.659   4.680 -0.4605 -0.2284 -0.1406
 8241TIP3   OH224683   4.407   0.915   2.181 -0.5085  0.1127 -0.3381
 8241TIP3    H124684   4.349   0.886   2.111 -1.8238 -0.2430  0.8505
 8241TIP3    H224685   4.376   1.002   2.205 -0.2470  0.1204 -0.0107
 8242TIP3   OH224686   3.519   2.891   1.042 -0.2079  0.5450 -0.3320
 8242TIP3    H124687   3.598   2.871   1.093 -0.6186 -0.1756  0.0325
 8242TIP3    H224688   3.454   2.918   1.106 -0.5380  0.2319 -0.5276
 8243TIP3   OH224689   3.868   2.085   5.794  0.9066  0.2057 -0.4674
 8243TIP3    H124690   3.935   2.140   5.753  1.0586  0.8894  0.6321
 8243TIP3    H224691   3.794   2.144   5.807 -0.0236 -0.6066 -1.8990
 8244TIP3   OH224692   5.698   5.023   0.085 -0.3376  0.4168 -0.2105
 8244TIP3    H124693   5.657   4.939   0.104  0.4564  0.0153 -0.2330
 8244TIP3    H224694   5.792   5.006   0.092 -0.1449  1.1299 -0.9314
 8245TIP3   OH224695   2.979   0.676   0.405  0.0333  0.3807  0.0555
 8245TIP3    H124696   2.985   0.771   0.409 -0.7215  0.4163  0.6501
 8245TIP3    H224697   2.992   0.654   0.313  0.1686  1.0606 -0.0890
 8246TIP3   OH224698   0.343   3.118   3.807  0.2448  0.1732  0.1318
 8246TIP3    H124699   0.270   3.176   3.826 -0.4963 -0.1013 -1.6242
 8246TIP3    H224700   0.317   3.033   3.843 -0.4927 -0.0038 -0.7695
 8247TIP3   OH224701   7.254   3.488   0.609 -0.3729 -0.0798 -0.2391
 8247TIP3    H124702   7.251   3.442   0.525  0.9293 -0.4620 -0.0989
 8247TIP3    H224703   7.333   3.542   0.604 -1.5893  1.7840 -0.1903
 8248TIP3   OH224704   6.936   3.337   0.644 -0.7840 -0.1536  0.2138
 8248TIP3    H124705   6.999   3.352   0.573 -3.0972  0.7390 -1.7949
 8248TIP3    H224706   6.948   3.411   0.703 -2.3417  2.0875 -2.1026
 8249TIP3   OH224707   7.562   4.380   1.481  0.3791  0.2631 -0.1209
 8249TIP3    H124708   7.553   4.321   1.556  0.9934  0.4855  0.1348
 8249TIP3    H224709   7.498   4.450   1.498  0.8530  0.5713  0.4561
 8250TIP3   OH224710   0.810   1.186   2.259  0.1980  0.3450 -0.1327
 8250TIP3    H124711   0.838   1.095   2.253  0.4988  0.5025 -1.8699
 8250TIP3    H224712   0.730   1.190   2.207 -0.7926  0.7360  1.3878
 8251TIP3   OH224713   2.730   7.011   4.509  0.5506  0.3103  0.0645
 8251TIP3    H124714   2.659   6.976   4.456  1.0123 -0.5289 -0.0265
 8251TIP3    H224715   2.808   7.003   4.453  0.5953  1.9479 -0.1370
 8252TIP3   OH224716   4.595   1.853   2.206  0.0029 -0.7598 -0.7215
 8252TIP3    H124717   4.611   1.759   2.205 -1.0913 -0.9794  0.3522
 8252TIP3    H224718   4.572   1.873   2.296 -0.3566  0.4355 -1.0547
 8253TIP3   OH224719   2.373   2.971   5.500 -0.5384  0.0094  0.5285
 8253TIP3    H124720   2.294   3.003   5.456  0.6246  0.6844 -1.1735
 8253TIP3    H224721   2.445   3.010   5.451  0.8768 -0.2471  2.2841
 8254TIP3   OH224722   2.658   5.189   5.217 -0.1362 -0.4976  0.3556
 8254TIP3    H124723   2.619   5.202   5.131  0.8105  0.9999  0.1209
 8254TIP3    H224724   2.738   5.140   5.200 -0.7309 -1.6068  0.5964
 8255TIP3   OH224725   4.329   4.015   4.791  0.3815 -0.2238  0.1143
 8255TIP3    H124726   4.304   3.972   4.873  1.0300  0.9068  0.9446
 8255TIP3    H224727   4.332   3.945   4.726  0.3666 -1.2371  1.1828
 8256TIP3   OH224728   7.520   1.738   3.570  0.3920 -0.5387 -0.2083
 8256TIP3    H124729   7.498   1.809   3.509 -1.0564 -0.3274  0.5081
 8256TIP3    H224730   7.555   1.669   3.514  0.3972  0.1684 -1.1063
 8257TIP3   OH224731   5.543   1.887   5.507 -0.0105 -0.0899 -0.0670
 8257TIP3    H124732   5.461   1.934   5.526  0.3679  0.5301  0.0680
 8257TIP3    H224733   5.517   1.814   5.451 -1.1113 -1.6565  2.3272
 8258TIP3   OH224734   4.779   6.616   5.932 -0.2991 -0.0060  0.3510
 8258TIP3    H124735   4.763   6.569   5.850 -0.1662 -1.8266  1.3367
 8258TIP3    H224736   4.863   6.582   5.963 -0.9567 -0.2677  1.8841
 8259TIP3   OH224737   4.449   7.057   4.931  0.1214 -0.1137  0.5763
 8259TIP3    H124738   4.381   6.993   4.911  0.1524  0.0136  0.0264
 8259TIP3    H224739   4.472   7.095   4.846  0.8349 -0.1104  0.7608
 8260TIP3   OH224740   1.373   6.303   3.504 -0.0896  0.5719 -0.3362
 8260TIP3    H124741   1.304   6.340   3.559 -1.5343 -1.1023 -0.9291
 8260TIP3    H224742   1.326   6.258   3.434  1.6568  0.6603 -1.6366
 8261TIP3   OH224743   7.233   5.649   2.014  0.0577 -0.3166  0.4805
 8261TIP3    H124744   7.206   5.599   2.091  0.3461  0.0134  0.7982
 8261TIP3    H224745   7.185   5.609   1.941  1.0913 -1.7764  0.5585
 8262TIP3   OH224746   1.046   1.429   3.641  0.1368  0.1723  0.1941
 8262TIP3    H124747   1.104   1.431   3.717  0.8277  0.0706 -0.3254
 8262TIP3    H224748   0.969   1.478   3.669 -0.2528 -1.0758  1.4692
 8263TIP3   OH224749   6.657   3.260   2.565  0.1675  0.2497  0.0979
 8263TIP3    H124750   6.583   3.204   2.587 -0.2312  0.1774 -1.3493
 8263TIP3    H224751   6.724   3.200   2.532 -0.0406  0.5493 -0.8937
 8264TIP3   OH224752   1.444   4.539   1.491  0.5595  0.8111 -0.3385
 8264TIP3    H124753   1.360   4.564   1.529 -0.6617 -1.6347 -1.2243
 8264TIP3    H224754   1.447   4.585   1.407 -1.6694 -1.7410 -1.9779
 8265TIP3   OH224755   2.115   5.438   4.687  0.4397  0.3681 -0.2122
 8265TIP3    H124756   2.035   5.469   4.643 -0.1547 -1.9154 -0.8725
 8265TIP3    H224757   2.102   5.463   4.779 -1.0631  0.0307 -0.2990
 8266TIP3   OH224758   3.453   0.554   5.390  0.1644  0.0400  0.4144
 8266TIP3    H124759   3.535   0.587   5.428 -0.1418  0.0406  1.0782
 8266TIP3    H224760   3.480   0.514   5.307  0.4125  3.0279 -1.0913
 8267TIP3   OH224761   0.440   3.619   0.430 -0.8133  0.0862  0.1739
 8267TIP3    H124762   0.415   3.702   0.389 -0.9431  0.6895  1.4292
 8267TIP3    H224763   0.530   3.633   0.460 -0.6959 -0.3671  0.0334
 8268TIP3   OH224764   2.292   3.466   1.814 -0.3513 -0.3088  0.5239
 8268TIP3    H124765   2.271   3.550   1.772  0.5710 -0.2244  0.2157
 8268TIP3    H224766   2.387   3.468   1.825 -0.2307 -1.6308 -0.1459
 8269TIP3   OH224767   5.381   1.460   2.870  0.4917  0.0876 -0.1665
 8269TIP3    H124768   5.304   1.418   2.831  0.4145  0.8487 -0.8706
 8269TIP3    H224769   5.456   1.417   2.829  0.4105  0.8412 -1.1508
 8270TIP3   OH224770   7.025   3.627   0.475 -0.1548 -0.0157  0.1134
 8270TIP3    H124771   7.097   3.667   0.426  0.2300 -0.5211  0.2564
 8270TIP3    H224772   7.026   3.535   0.448  0.5076 -0.4591  1.5765
 8271TIP3   OH224773   2.073   3.101   5.227  0.2659  0.2429 -0.0589
 8271TIP3    H124774   2.063   3.101   5.323  0.2566  0.3637 -0.0604
 8271TIP3    H224775   2.028   3.181   5.199 -2.0053 -1.0467 -0.3889
 8272TIP3   OH224776   5.888   1.213   3.321 -0.6070  0.1990  0.0569
 8272TIP3    H124777   5.886   1.119   3.339 -0.6911  0.5068  1.8161
 8272TIP3    H224778   5.955   1.223   3.254 -1.6391 -1.2659 -1.2841
 8273TIP3   OH224779   1.639   5.730   3.290  0.6748  0.3608 -0.7665
 8273TIP3    H124780   1.606   5.730   3.380 -1.6189  1.5057 -1.5522
 8273TIP3    H224781   1.594   5.656   3.249  0.8288  0.5551 -1.2815
 8274TIP3   OH224782   5.780   1.709   6.110 -0.7284 -0.1074  0.2197
 8274TIP3    H124783   5.855   1.743   6.060 -0.4049 -0.1362  0.6814
 8274TIP3    H224784   5.813   1.631   6.153 -0.4578  0.8823  1.9183
 8275TIP3   OH224785   3.075   5.548   5.868 -0.0310  0.2969  0.7297
 8275TIP3    H124786   3.132   5.476   5.843  0.2431  0.2502  1.4528
 8275TIP3    H224787   3.135   5.618   5.894 -0.2855  0.0334  2.0938
 8276TIP3   OH224788   5.772   6.603   5.565  0.3388 -0.4896  0.0387
 8276TIP3    H124789   5.723   6.524   5.585  0.4935  0.0300  2.9209
 8276TIP3    H224790   5.854   6.572   5.527  1.0393 -1.8789  2.4937
 8277TIP3   OH224791   6.557   0.195   5.928  0.3455 -0.1136  0.2063
 8277TIP3    H124792   6.568   0.128   5.996  0.3542  2.1278  2.5902
 8277TIP3    H224793   6.511   0.267   5.973  0.2179  1.4469 -2.2318
 8278TIP3   OH224794   3.965   3.978   5.101  0.1209 -0.4027  0.8916
 8278TIP3    H124795   3.925   4.062   5.123 -0.1565 -0.5174  0.8380
 8278TIP3    H224796   3.986   3.986   5.008  1.2991  0.0836  1.1851
 8279TIP3   OH224797   1.324   2.852   3.011  0.4978  0.0314  0.6424
 8279TIP3    H124798   1.301   2.880   3.100  1.2795 -0.0711  0.8843
 8279TIP3    H224799   1.416   2.878   3.001  0.6178 -0.5897  0.1172
 8280TIP3   OH224800   3.453   2.751   1.552  0.0537 -0.3167 -0.4118
 8280TIP3    H124801   3.394   2.689   1.595 -0.3935  0.5491  0.2551
 8280TIP3    H224802   3.527   2.698   1.523 -0.2100 -1.1244  0.3479
 8281TIP3   OH224803   6.970   5.273   5.036 -0.1920 -0.0018  0.8045
 8281TIP3    H124804   6.929   5.344   5.084 -1.0744 -0.6116  0.9664
 8281TIP3    H224805   6.924   5.194   5.065  0.3552 -0.5703  0.1702
 8282TIP3   OH224806   6.352   2.676   3.223 -0.0041 -0.4499  0.4230
 8282TIP3    H124807   6.269   2.645   3.186 -0.3983  1.6135 -0.5899
 8282TIP3    H224808   6.329   2.709   3.309 -0.1889 -0.1600  0.2649
 8283TIP3   OH224809   3.486   2.654   2.354  0.3615 -0.4964  0.0763
 8283TIP3    H124810   3.415   2.611   2.306 -1.1065  1.6370  0.2184
 8283TIP3    H224811   3.532   2.706   2.288 -0.1376  0.5092  0.4919
 8284TIP3   OH224812   0.594   0.200   1.425 -0.5433  0.8455  0.4633
 8284TIP3    H124813   0.680   0.210   1.467 -1.1313  0.0259  1.9393
 8284TIP3    H224814   0.568   0.289   1.402  1.3465  0.9710 -1.3920
 8285TIP3   OH224815   6.595   4.216   1.563 -0.1427 -0.0351 -0.2166
 8285TIP3    H124816   6.656   4.257   1.624 -1.4079 -0.4020  1.3768
 8285TIP3    H224817   6.543   4.157   1.618 -3.1323  1.5621 -1.0907
 8286TIP3   OH224818   0.361   3.654   5.223  0.2411  0.8856 -0.5183
 8286TIP3    H124819   0.271   3.684   5.208  1.1414  3.2038 -1.7183
 8286TIP3    H224820   0.413   3.700   5.158  2.2701 -0.8098 -0.1940
 8287TIP3   OH224821   5.452   2.264   3.051 -0.1374  0.2713  0.3097
 8287TIP3    H124822   5.471   2.280   3.143 -0.7004 -1.4042  0.7636
 8287TIP3    H224823   5.371   2.312   3.034 -0.0609  0.5423  0.7030
 8288TIP3   OH224824   1.985   4.837   3.388  0.5030  0.0926 -0.1249
 8288TIP3    H124825   2.021   4.762   3.436 -0.6607  0.1884  0.9638
 8288TIP3    H224826   1.993   4.812   3.296  0.9159 -1.0002  0.1844
 8289TIP3   OH224827   4.157   6.569   1.585 -0.2042  0.2972 -0.0564
 8289TIP3    H124828   4.182   6.507   1.654  0.1022  1.3733  0.8288
 8289TIP3    H224829   4.239   6.612   1.561 -0.3434  0.0638 -0.9733
 8290TIP3   OH224830   1.508   1.684   5.987  0.4648 -0.2718 -0.1029
 8290TIP3    H124831   1.525   1.777   6.002 -0.7347  0.0710 -0.7237
 8290TIP3    H224832   1.563   1.661   5.912  3.7630 -1.1031  2.3854
 8291TIP3   OH224833   6.136   6.261   1.438  0.2438 -0.3528  0.0258
 8291TIP3    H124834   6.119   6.349   1.473  0.1627  0.4593 -1.9474
 8291TIP3    H224835   6.099   6.262   1.350  0.8767 -2.1496 -0.3109
 8292TIP3   OH224836   1.512   0.411   0.527 -0.2481  0.1725  0.0021
 8292TIP3    H124837   1.538   0.479   0.464  1.0516 -0.5299 -0.2441
 8292TIP3    H224838   1.467   0.460   0.596 -0.8105  1.0798 -0.9648
 8293TIP3   OH224839   7.289   1.693   0.380  0.0885 -0.5456 -0.2403
 8293TIP3    H124840   7.238   1.614   0.363 -0.4596 -0.5000  1.0901
 8293TIP3    H224841   7.332   1.677   0.464  1.6138 -0.2392 -0.9215
 8294TIP3   OH224842   1.670   5.842   3.970 -0.2908 -0.1796  0.0754
 8294TIP3    H124843   1.655   5.752   3.942 -0.2295 -0.5787  1.2635
 8294TIP3    H224844   1.620   5.851   4.051  0.3228  0.6150  0.3830
 8295TIP3   OH224845   2.970   3.786   4.728  0.4543  0.3309  0.1519
 8295TIP3    H124846   2.907   3.849   4.763  0.2333  0.5916 -0.6703
 8295TIP3    H224847   2.920   3.736   4.664  0.3467 -1.4189  1.5424
 8296TIP3   OH224848   4.232   6.370   1.154  0.1813 -0.6124 -0.4114
 8296TIP3    H124849   4.262   6.346   1.241 -1.4843 -1.6895 -0.0932
 8296TIP3    H224850   4.181   6.450   1.167 -1.4835 -1.6833 -0.0856
 8297TIP3   OH224851   7.207   5.536   2.820  0.8907 -0.4788  0.0589
 8297TIP3    H124852   7.157   5.604   2.776  0.6173  0.1503  1.3051
 8297TIP3    H224853   7.218   5.468   2.754 -0.4762 -0.0550 -0.6452
 8298TIP3   OH224854   1.154   5.105   0.917  0.2734  0.4486  0.7755
 8298TIP3    H124855   1.188   5.125   1.005  1.0842  0.9236  0.3689
 8298TIP3    H224856   1.077   5.051   0.933  1.3335 -0.8401  1.7415
 8299TIP3   OH224857   5.777   2.712   3.503 -0.5514  0.5864 -0.2515
 8299TIP3    H124858   5.802   2.619   3.502 -0.1830  0.6855 -1.2773
 8299TIP3    H224859   5.694   2.713   3.552  0.4968  0.0217  1.6473
 8300TIP3   OH224860   7.328   2.184   1.167 -0.5475 -0.1314  0.1534
 8300TIP3    H124861   7.408   2.184   1.115  0.2102 -0.5645  1.2944
 8300TIP3    H224862   7.263   2.227   1.111  0.5124  0.3743 -0.7202
 8301TIP3   OH224863   5.985   5.530   0.345 -0.2697 -0.1238  0.8575
 8301TIP3    H124864   6.041   5.480   0.285 -1.3818  1.3028 -1.5345
 8301TIP3    H224865   5.897   5.494   0.331 -0.8279  1.3975  0.2648
 8302TIP3   OH224866   1.303   6.460   0.068  0.2943 -0.7854  0.1219
 8302TIP3    H124867   1.333   6.545   0.033 -0.9865 -1.4025 -2.7785
 8302TIP3    H224868   1.222   6.480   0.114  0.0417 -0.4096 -0.4773
 8303TIP3   OH224869   4.029   5.201   2.176 -0.2846 -1.0241 -0.1035
 8303TIP3    H124870   4.106   5.148   2.157  0.6994  0.2326  0.1852
 8303TIP3    H224871   3.976   5.147   2.235 -1.1424 -3.1099 -2.6091
 8304TIP3   OH224872   3.321   3.966   1.350  0.3214  0.4230  0.6178
 8304TIP3    H124873   3.292   3.884   1.392  0.4225 -0.1901 -0.4602
 8304TIP3    H224874   3.275   3.966   1.265  0.1361  1.6135  0.7114
 8305TIP3   OH224875   5.851   6.858   5.587  0.1774  0.0882  0.4607
 8305TIP3    H124876   5.895   6.850   5.671 -0.9871 -0.7649  1.0215
 8305TIP3    H224877   5.789   6.784   5.585 -0.5345  0.6764 -0.7030
 8306TIP3   OH224878   2.338   4.181   3.007 -0.1529  0.1256  0.0010
 8306TIP3    H124879   2.298   4.107   3.054  1.6278 -1.4834 -0.8686
 8306TIP3    H224880   2.412   4.207   3.061 -0.0528  0.4530 -0.2917
 8307TIP3   OH224881   7.580   1.415   4.177 -0.3401  0.0209 -0.9762
 8307TIP3    H124882   7.496   1.463   4.180  0.0428  0.6832 -0.2620
 8307TIP3    H224883   7.642   1.474   4.221  1.1236  0.7175 -3.7864
 8308TIP3   OH224884   0.324   0.980   4.817  0.3536  0.2488 -0.0738
 8308TIP3    H124885   0.235   1.015   4.812  0.1712 -0.3574 -2.8702
 8308TIP3    H224886   0.377   1.043   4.768  0.9967 -0.6190 -0.5111
 8309TIP3   OH224887   0.872   6.128   1.992  0.0652  0.5252 -0.1896
 8309TIP3    H124888   0.785   6.161   1.967  0.6790  0.9762 -1.9063
 8309TIP3    H224889   0.870   6.124   2.087 -2.0290 -0.0098 -0.2030
 8310TIP3   OH224890   3.099   2.458   4.371 -0.0711  0.2168  0.3949
 8310TIP3    H124891   3.067   2.538   4.414 -0.9937 -0.0926  0.3108
 8310TIP3    H224892   3.021   2.403   4.362  0.0084  0.4108 -2.0098
 8311TIP3   OH224893   1.920   2.101   3.109  0.2318  0.0555  0.2107
 8311TIP3    H124894   1.841   2.151   3.088  0.6217  0.1713 -1.0219
 8311TIP3    H224895   1.911   2.020   3.060  1.4203  0.5708 -0.9334
 8312TIP3   OH224896   3.401   1.191   2.951  0.2246 -0.0367  0.1089
 8312TIP3    H124897   3.456   1.269   2.947 -0.4433  0.6515  2.8270
 8312TIP3    H224898   3.456   1.121   2.916  1.9219  1.0863  0.4247
 8313TIP3   OH224899   1.983   6.704   4.239 -0.4679  0.5872  0.4023
 8313TIP3    H124900   1.895   6.740   4.234  0.5528  3.6946  2.2492
 8313TIP3    H224901   2.013   6.699   4.148 -1.9452  1.0024 -0.1291
 8314TIP3   OH224902   2.994   6.439   4.098 -0.1510 -0.3744  0.4807
 8314TIP3    H124903   2.953   6.354   4.110 -0.4000 -0.0802  1.7857
 8314TIP3    H224904   3.075   6.435   4.149 -1.0407  0.7733  2.0487
 8315TIP3   OH224905   4.108   4.695   1.088 -0.4132 -0.6636 -0.3136
 8315TIP3    H124906   4.029   4.692   1.141  0.0674 -1.4571  0.3791
 8315TIP3    H224907   4.162   4.623   1.120  0.3425 -0.5036 -1.1723
 8316TIP3   OH224908   4.906   1.117   2.178 -0.0550 -0.1031 -0.0352
 8316TIP3    H124909   4.928   1.200   2.137 -0.8029  0.7061  1.1413
 8316TIP3    H224910   4.810   1.117   2.182 -0.0157 -0.3138  1.3638
 8317TIP3   OH224911   5.706   2.724   4.693  0.2669  0.0344  0.3944
 8317TIP3    H124912   5.663   2.809   4.706 -0.2345  0.1218 -1.4612
 8317TIP3    H224913   5.637   2.666   4.662  1.1806 -0.1087 -1.6009
 8318TIP3   OH224914   5.491   1.666   1.867  0.3508 -0.4699 -0.2222
 8318TIP3    H124915   5.398   1.683   1.853  0.5482 -0.4936 -1.7207
 8318TIP3    H224916   5.527   1.751   1.890 -0.1381 -0.5899  1.0894
 8319TIP3   OH224917   2.550   2.743   6.044 -0.2315 -0.5772  0.0174
 8319TIP3    H124918   2.513   2.670   6.094 -0.5692 -1.5383 -1.5802
 8319TIP3    H224919   2.624   2.772   6.097  0.5407 -2.7457  0.2320
 8320TIP3   OH224920   5.808   2.520   6.217 -0.4196 -0.5604 -0.1891
 8320TIP3    H124921   5.851   2.508   6.133  2.4184  0.9266  0.9095
 8320TIP3    H224922   5.733   2.576   6.198 -0.8239 -1.6077 -1.9157
 8321TIP3   OH224923   5.569   6.511   0.082 -0.2713  0.3092 -0.5502
 8321TIP3    H124924   5.656   6.487   0.113  0.3170  2.6477 -0.2382
 8321TIP3    H224925   5.509   6.455   0.132  1.0123 -1.9588 -1.3761
 8322TIP3   OH224926   6.981   0.693   0.705  0.1044  0.1073  0.0297
 8322TIP3    H124927   6.981   0.618   0.646 -0.4436 -0.7515  1.0908
 8322TIP3    H224928   7.050   0.750   0.671 -1.0357  0.2690 -2.1916
 8323TIP3   OH224929   6.220   4.414   0.581 -0.4378  0.4723 -0.8170
 8323TIP3    H124930   6.212   4.486   0.644  1.3646 -0.6149  0.7766
 8323TIP3    H224931   6.308   4.378   0.597 -0.3084 -0.5096 -3.2900
 8324TIP3   OH224932   0.642   4.014   6.159 -0.4459  0.2555 -0.4285
 8324TIP3    H124933   0.675   4.056   6.080  0.1132 -0.1187 -0.3985
 8324TIP3    H224934   0.573   4.072   6.191 -1.6062 -0.2328 -1.9262
 8325TIP3   OH224935   7.028   2.423   4.675 -0.2363 -0.3305 -0.4386
 8325TIP3    H124936   7.007   2.514   4.695  0.1996 -0.4898  0.8195
 8325TIP3    H224937   7.122   2.416   4.689 -0.5072 -1.3383  1.0787
 8326TIP3   OH224938   3.686   5.951   1.558  0.1697 -0.0388  0.0681
 8326TIP3    H124939   3.686   5.965   1.463 -2.0956  0.7604  0.1434
 8326TIP3    H224940   3.776   5.971   1.584  1.7040 -3.0181 -2.2113
 8327TIP3   OH224941   1.600   0.569   3.275  0.2094  0.1202 -0.0357
 8327TIP3    H124942   1.665   0.624   3.318 -0.7350  2.2483 -1.2021
 8327TIP3    H224943   1.578   0.502   3.341  0.6447  1.7321  1.8359
 8328TIP3   OH224944   1.505   5.139   5.384  0.2343 -0.0044 -0.1573
 8328TIP3    H124945   1.501   5.197   5.460  0.8376 -1.3645  0.9502
 8328TIP3    H224946   1.422   5.090   5.387 -0.2846  0.7758 -1.0997
 8329TIP3   OH224947   1.925   5.777   3.409 -0.0120  0.1081  0.2067
 8329TIP3    H124948   1.831   5.791   3.401 -0.2793 -1.4233  0.3515
 8329TIP3    H224949   1.962   5.820   3.332 -1.0500 -1.0617 -0.9946
 8330TIP3   OH224950   1.885   1.744   1.606 -0.1718  0.2188  0.0351
 8330TIP3    H124951   1.902   1.739   1.512  2.8939 -0.4188  0.5201
 8330TIP3    H224952   1.906   1.834   1.629 -0.0814  0.1447  0.2416
 8331TIP3   OH224953   6.233   0.862   4.192 -0.3771 -0.5876  0.2692
 8331TIP3    H124954   6.159   0.803   4.199 -1.3040  0.4857 -0.1305
 8331TIP3    H224955   6.211   0.919   4.118  1.3535 -0.9383 -0.5669
 8332TIP3   OH224956   6.899   0.849   4.554  0.3072 -0.0661  0.4610
 8332TIP3    H124957   6.877   0.906   4.628 -0.5582 -0.1810  0.3109
 8332TIP3    H224958   6.893   0.760   4.589 -1.6360 -0.1965 -0.0851
 8333TIP3   OH224959   3.576   1.536   5.877  0.2283 -0.0377 -0.0618
 8333TIP3    H124960   3.518   1.469   5.913  0.3688 -0.2072 -0.1481
 8333TIP3    H224961   3.574   1.607   5.941  1.5057 -0.8689  0.9609
 8334TIP3   OH224962   0.770   6.262   1.567 -0.4765 -0.6978  0.1969
 8334TIP3    H124963   0.827   6.199   1.522  2.0236  1.2995  0.3684
 8334TIP3    H224964   0.728   6.310   1.496 -0.8597 -1.2151  0.0638
 8335TIP3   OH224965   6.466   2.485   4.668 -0.3496 -0.2308  0.4272
 8335TIP3    H124966   6.461   2.414   4.604 -0.0969  0.3861 -0.2880
 8335TIP3    H224967   6.376   2.517   4.675 -0.2099  0.3817 -0.4173
 8336TIP3   OH224968   1.372   5.824   1.012 -0.5633 -0.0926  0.0038
 8336TIP3    H124969   1.407   5.747   1.056 -0.2367 -1.3012 -2.2096
 8336TIP3    H224970   1.427   5.896   1.042 -0.4911 -0.7998  1.6638
 8337TIP3   OH224971   6.048   6.977   0.393  0.2046  0.3857 -0.0126
 8337TIP3    H124972   5.968   7.013   0.353 -0.1897 -0.8535 -0.3878
 8337TIP3    H224973   6.117   6.993   0.329  0.0077  0.3773 -0.2284
 8338TIP3   OH224974   2.684   5.607   1.045 -0.1735  0.4381 -0.0327
 8338TIP3    H124975   2.710   5.516   1.053  0.1056  0.4112 -1.1609
 8338TIP3    H224976   2.591   5.608   1.068  0.0096  0.0078  0.7519
 8339TIP3   OH224977   2.651   5.637   1.653  0.3002  0.3374 -0.6310
 8339TIP3    H124978   2.726   5.666   1.704  0.2416 -1.2063  0.3934
 8339TIP3    H224979   2.603   5.717   1.633  1.8077  1.2658 -0.6697
 8340TIP3   OH224980   6.567   6.617   0.502 -0.0144 -0.2055  0.1426
 8340TIP3    H124981   6.569   6.648   0.592  3.0871  1.0982 -0.2436
 8340TIP3    H224982   6.617   6.535   0.503  0.4727  0.0701 -0.4282
 8341TIP3   OH224983   0.982   6.945   4.258 -0.1553 -0.0681  0.0602
 8341TIP3    H124984   0.969   6.865   4.309  3.3126 -2.0691 -1.8526
 8341TIP3    H224985   1.041   6.999   4.311  0.8162 -0.6770 -0.3799
 8342TIP3   OH224986   0.365   1.899   1.009 -0.9612 -0.3339 -0.0299
 8342TIP3    H124987   0.349   1.859   1.095 -1.0448  0.5784  0.3947
 8342TIP3    H224988   0.348   1.993   1.023 -0.4361 -0.0963 -0.9060
 8343TIP3   OH224989   3.407   6.451   4.305  0.2821 -0.5718  0.5096
 8343TIP3    H124990   3.415   6.382   4.370  0.9104 -0.0061  1.0469
 8343TIP3    H224991   3.443   6.529   4.348  1.0811 -0.2777 -0.6461
 8344TIP3   OH224992   1.010   0.813   2.651 -0.2812 -0.2059  0.1265
 8344TIP3    H124993   1.025   0.729   2.606  1.4675  0.8338 -1.3889
 8344TIP3    H224994   1.093   0.831   2.696 -0.5529  0.8165  0.2350
 8345TIP3   OH224995   7.360   0.079   0.946  0.1634 -0.1067  0.1915
 8345TIP3    H124996   7.378   0.125   1.027 -1.6158  0.6485  0.2091
 8345TIP3    H224997   7.273   0.041   0.958  0.7577 -1.8228 -0.5754
 8346TIP3   OH224998   0.749   2.709   2.773 -0.5168  0.2624  0.2739
 8346TIP3    H124999   0.814   2.688   2.840  1.1915 -1.8791 -1.8587
 8346TIP3    H225000   0.799   2.752   2.704 -1.8298  0.6598 -0.4601
 8347TIP3   OH225001   4.033   2.274   5.658 -0.0854  0.3820 -0.3061
 8347TIP3    H125002   3.993   2.360   5.644 -1.4432 -0.1838 -0.0853
 8347TIP3    H225003   4.110   2.274   5.601 -0.2127  1.6325 -0.5231
 8348TIP3   OH225004  -0.002   5.765   4.896  0.0870 -0.3107 -0.0461
 8348TIP3    H125005   0.022   5.810   4.977 -0.7480 -2.2658  1.3483
 8348TIP3    H225006   0.059   5.799   4.831  0.6760  1.4404  1.3457
 8349TIP3   OH225007   5.452   6.288   1.279  0.3201  0.2754 -0.0813
 8349TIP3    H125008   5.433   6.336   1.198  1.6010  2.1034  0.6564
 8349TIP3    H225009   5.367   6.280   1.322 -0.4342 -0.9127 -1.6356
 8350TIP3   OH225010   7.170   4.044   3.578 -0.0303  0.4716 -0.0585
 8350TIP3    H125011   7.242   3.981   3.584  0.1383  0.7869  1.9482
 8350TIP3    H225012   7.208   4.126   3.609 -0.9491  0.9015 -0.0463
 8351TIP3   OH225013   6.157   6.154   3.427  0.1792 -0.2117  0.2613
 8351TIP3    H125014   6.187   6.237   3.463  0.9605 -0.5580  0.4387
 8351TIP3    H225015   6.135   6.174   3.336 -1.3876  0.5713  0.7869
 8352TIP3   OH225016   3.726   2.097   2.136  0.2518  0.2017  0.3079
 8352TIP3    H125017   3.757   2.010   2.112  1.4703  0.1579  1.8504
 8352TIP3    H225018   3.685   2.086   2.221  0.3053  1.1031  0.4658
 8353TIP3   OH225019   1.936   7.013   1.650  1.0569 -0.0092 -0.3852
 8353TIP3    H125020   1.912   7.036   1.740  1.8980 -1.3955  0.2112
 8353TIP3    H225021   1.893   7.080   1.596  1.2795  1.3787  1.0959
 8354TIP3   OH225022   0.149   2.050   0.048 -0.2393  0.0588 -0.4570
 8354TIP3    H125023   0.215   2.048   0.118 -1.0667  0.0410  0.3398
 8354TIP3    H225024   0.067   2.067   0.093 -0.5793  1.6448 -1.6170
 8355TIP3   OH225025   3.465   5.055   0.981 -0.1317 -0.2488 -0.4378
 8355TIP3    H125026   3.382   5.100   0.996  0.3318  0.1541  1.1936
 8355TIP3    H225027   3.495   5.086   0.896 -1.1254  0.4430 -0.5445
 8356TIP3   OH225028   0.960   2.062   2.372  0.3374 -0.0622  0.1203
 8356TIP3    H125029   0.970   1.994   2.439 -0.7178  0.8200  1.2350
 8356TIP3    H225030   0.871   2.094   2.386  0.9486  1.8072 -0.1105
 8357TIP3   OH225031   6.206   5.012   5.431 -0.1945 -0.0901  0.5660
 8357TIP3    H125032   6.220   4.930   5.479 -0.1081 -0.2000  0.3562
 8357TIP3    H225033   6.275   5.070   5.462  1.1754 -0.8333 -0.9225
 8358TIP3   OH225034   6.266   5.285   3.456 -0.0805  0.0081  0.1012
 8358TIP3    H125035   6.319   5.214   3.419  0.7701  0.6914 -0.0296
 8358TIP3    H225036   6.221   5.245   3.531 -1.3359 -1.2388 -1.2417
 8359TIP3   OH225037   4.681   1.096   3.275  0.5952  0.1904  0.0714
 8359TIP3    H125038   4.750   1.052   3.226 -0.2972 -1.4080  0.2044
 8359TIP3    H225039   4.640   1.027   3.327 -1.2977  1.0372 -0.2178
 8360TIP3   OH225040   6.577   5.341   3.677  0.6879  0.1072 -0.4484
 8360TIP3    H125041   6.569   5.368   3.585 -2.0332  2.5292  0.3327
 8360TIP3    H225042   6.489   5.350   3.712  1.5545 -1.2000  2.3292
 8361TIP3   OH225043   3.837   6.360   1.264 -0.2402 -0.1323 -0.0583
 8361TIP3    H125044   3.756   6.310   1.264 -0.3665  0.0295 -1.5967
 8361TIP3    H225045   3.907   6.294   1.259 -0.1629 -0.3434  2.5069
 8362TIP3   OH225046   6.783   6.477   3.851 -0.1272 -0.7673  0.3690
 8362TIP3    H125047   6.777   6.572   3.861  1.3916 -0.7131  0.9730
 8362TIP3    H225048   6.802   6.445   3.939 -1.8516 -1.7805  0.4212
 8363TIP3   OH225049   6.747   6.010   2.781  0.3373  0.1301 -0.2094
 8363TIP3    H125050   6.730   6.099   2.750  0.1276  0.0721 -0.2653
 8363TIP3    H225051   6.765   6.021   2.874 -1.0489  0.0933  0.0929
 8364TIP3   OH225052   5.381   6.487   5.055 -0.0181  0.8758  0.1729
 8364TIP3    H125053   5.394   6.541   4.977 -1.6076  1.3151  0.1866
 8364TIP3    H225054   5.353   6.402   5.021 -0.9504  1.1409  0.2566
 8365TIP3   OH225055   5.055   2.759   0.436 -0.1187 -0.1920  0.2829
 8365TIP3    H125056   5.010   2.789   0.516  2.4165  0.8318  1.4329
 8365TIP3    H225057   5.109   2.686   0.465  0.5310 -0.0726 -0.5781
 8366TIP3   OH225058   6.480   1.351   5.271  0.6393 -0.2115 -0.1162
 8366TIP3    H125059   6.392   1.333   5.303  0.1326 -0.6943 -1.6996
 8366TIP3    H225060   6.478   1.443   5.244  0.8814  0.0165  0.6212
 8367TIP3   OH225061   0.458   5.097   0.574  0.4047 -0.3647 -0.1108
 8367TIP3    H125062   0.540   5.132   0.538  0.1369 -0.8309 -1.2269
 8367TIP3    H225063   0.485   5.043   0.648  0.8357  2.1261  1.6859
 8368TIP3   OH225064   1.997   0.672   2.346  0.0616 -0.3479  0.2397
 8368TIP3    H125065   1.958   0.747   2.391 -1.0556 -0.9716  0.3493
 8368TIP3    H225066   1.972   0.683   2.254  1.4504  0.3621 -0.0894
 8369TIP3   OH225067   2.870   1.361   4.355 -0.0175  0.5628 -0.0955
 8369TIP3    H125068   2.847   1.442   4.401  0.5641 -0.5588  2.3072
 8369TIP3    H225069   2.801   1.299   4.378  1.3754 -0.6348  1.0745
 8370TIP3   OH225070   2.607   0.413   2.803  0.3553 -0.1450 -0.0209
 8370TIP3    H125071   2.660   0.471   2.749 -1.6715  0.9918 -0.9007
 8370TIP3    H225072   2.517   0.434   2.780 -0.5546 -4.1636 -0.9926
 8371TIP3   OH225073   6.309   5.366   2.985 -0.3947 -0.1680  0.1999
 8371TIP3    H125074   6.327   5.377   2.891  0.3642  1.7575  0.5272
 8371TIP3    H225075   6.231   5.419   3.001 -0.2758 -0.1503  0.7318
 8372TIP3   OH225076   3.322   4.840   4.663 -0.0032  0.2745 -0.0897
 8372TIP3    H125077   3.284   4.817   4.748  2.2972 -0.3397  0.8573
 8372TIP3    H225078   3.344   4.933   4.671 -1.8115  0.8041 -0.8814
 8373TIP3   OH225079   4.497   2.421   4.968 -0.0770 -0.6176 -0.0725
 8373TIP3    H125080   4.532   2.503   4.933  0.3086 -0.9703 -0.5206
 8373TIP3    H225081   4.439   2.388   4.900 -0.7973 -0.3649  0.4022
 8374TIP3   OH225082   1.455   0.920   4.257 -0.4544  0.2492  0.2157
 8374TIP3    H125083   1.530   0.907   4.199 -1.7151 -1.7631 -1.0652
 8374TIP3    H225084   1.404   0.989   4.215  0.0405  0.7688  0.4516
 8375TIP3   OH225085   6.804   0.173   2.979  0.2979  0.2685  0.3901
 8375TIP3    H125086   6.793   0.135   2.891 -0.3348 -0.3623  0.7281
 8375TIP3    H225087   6.786   0.266   2.967  3.5737  0.8947 -0.8038
 8376TIP3   OH225088   3.569   3.826   3.821  0.3630  0.9824  0.7192
 8376TIP3    H125089   3.537   3.894   3.762 -1.4043  0.7133  1.2899
 8376TIP3    H225090   3.557   3.863   3.909  1.0746  0.6139  0.9800
 8377TIP3   OH225091   0.322   0.228   0.463  0.1259 -0.2223  0.4690
 8377TIP3    H125092   0.260   0.175   0.514  0.3371  0.9342  1.9813
 8377TIP3    H225093   0.272   0.305   0.437  0.4468 -0.1003  0.2077
 8378TIP3   OH225094   2.169   1.875   4.825  0.4376  0.1375 -0.0933
 8378TIP3    H125095   2.163   1.902   4.917  1.9050 -0.1972  0.1263
 8378TIP3    H225096   2.128   1.947   4.776  1.4265  1.2910  0.6994
 8379TIP3   OH225097   3.472   3.910   2.072 -0.7283 -0.6804  0.2850
 8379TIP3    H125098   3.564   3.888   2.076  0.0150  2.1459  1.1963
 8379TIP3    H225099   3.465   3.995   2.115 -3.8254 -0.9322  0.5573
 8380TIP3   OH225100   3.649   1.173   0.638  0.2537  0.1124  0.9687
 8380TIP3    H125101   3.569   1.217   0.668 -0.9040 -1.4860  0.3757
 8380TIP3    H225102   3.706   1.171   0.715 -1.6532 -1.7079  2.4397
 8381TIP3   OH225103   4.045   1.300   3.204 -0.2067  1.1002 -0.1286
 8381TIP3    H125104   4.077   1.216   3.236  1.6705  0.3491 -3.4740
 8381TIP3    H225105   3.952   1.300   3.226 -0.4212 -2.1702 -0.5289
 8382TIP3   OH225106   4.308   5.464   4.829 -0.0127  0.2061  0.0033
 8382TIP3    H125107   4.241   5.407   4.866 -0.2602  1.6696  2.0280
 8382TIP3    H225108   4.379   5.405   4.803 -1.0745 -1.1617  0.1025
 8383TIP3   OH225109   1.094   5.331   1.680  0.5783 -0.8313 -0.4534
 8383TIP3    H125110   1.059   5.284   1.756  1.6310 -0.0230  0.5699
 8383TIP3    H225111   1.048   5.415   1.681  2.0624  0.0187  0.5764
 8384TIP3   OH225112   4.977   7.102   0.416 -0.7236 -0.0559 -0.3152
 8384TIP3    H125113   5.071   7.083   0.411 -0.9959 -1.3886 -0.5796
 8384TIP3    H225114   4.968   7.155   0.496 -0.0584 -1.9902  1.1290
 8385TIP3   OH225115   5.011   5.954   6.069  0.0985 -0.2216  0.2180
 8385TIP3    H125116   5.086   5.946   6.010 -0.3998 -0.6581 -0.3708
 8385TIP3    H225117   5.012   5.872   6.119  0.7552  0.3205  1.1035
 8386TIP3   OH225118   4.454   2.919   3.715  0.0913  0.2813 -0.2978
 8386TIP3    H125119   4.517   2.870   3.767 -0.9264 -1.0370 -0.2348
 8386TIP3    H225120   4.497   3.002   3.696  1.4273 -0.1779  0.5841
 8387TIP3   OH225121   0.510   5.615   4.051 -0.7145 -0.3283 -0.2004
 8387TIP3    H125122   0.434   5.558   4.039 -0.6884 -0.1845 -1.1570
 8387TIP3    H225123   0.576   5.579   3.993 -0.3184  0.0149  0.0353
 8388TIP3   OH225124   6.527   0.106   5.548 -0.3343 -0.2181  0.8685
 8388TIP3    H125125   6.559   0.175   5.607 -0.6948 -0.6307  1.5546
 8388TIP3    H225126   6.465   0.056   5.600 -1.0860 -0.2629 -0.0322
 8389TIP3   OH225127   5.961   0.402   0.268  0.2388  0.2169  0.1325
 8389TIP3    H125128   5.874   0.398   0.229 -0.2410 -1.2860  1.2456
 8389TIP3    H225129   6.021   0.407   0.194 -0.7960  2.5018 -0.6393
 8390TIP3   OH225130   4.513   4.744   3.396  0.0303  0.5792 -0.2504
 8390TIP3    H125131   4.560   4.751   3.479 -1.4769  0.6652  0.6442
 8390TIP3    H225132   4.537   4.823   3.347  0.0946  1.0782  0.5708
 8391TIP3   OH225133   5.583   0.011   5.365 -0.1277 -0.8883 -0.1464
 8391TIP3    H125134   5.675   0.026   5.343  0.2656 -0.7219  1.5193
 8391TIP3    H225135   5.584  -0.016   5.457 -1.9472  2.0583  0.8834
 8392TIP3   OH225136   3.568   5.708   4.220 -0.2189 -0.0025 -0.2678
 8392TIP3    H125137   3.474   5.708   4.238 -0.0612 -0.0201  0.5902
 8392TIP3    H225138   3.601   5.788   4.261  0.0459  0.3539 -1.1448
 8393TIP3   OH225139   4.538   2.920   0.070 -0.6011  0.3518  0.2066
 8393TIP3    H125140   4.581   3.006   0.064  0.1600 -0.1133 -1.9603
 8393TIP3    H225141   4.594   2.869   0.128 -0.2815  0.8842  0.3789
 8394TIP3   OH225142   3.527   6.851   0.802  0.1451 -0.5021 -0.4847
 8394TIP3    H125143   3.573   6.880   0.723  0.7101 -0.4930 -0.1564
 8394TIP3    H225144   3.478   6.928   0.831  0.4848 -0.3016 -0.4393
 8395TIP3   OH225145   5.417   0.882   5.808  0.2264 -0.4017 -0.6565
 8395TIP3    H125146   5.499   0.921   5.841  0.5409 -0.4912 -1.3146
 8395TIP3    H225147   5.441   0.845   5.724 -0.1242 -1.8399 -0.1436
 8396TIP3   OH225148   1.472   0.209   4.003 -0.7262  0.3878  0.2753
 8396TIP3    H125149   1.487   0.216   4.097 -1.5486  1.2473  0.3654
 8396TIP3    H225150   1.559   0.206   3.964 -0.3716 -1.0019  1.1127
 8397TIP3   OH225151   5.190   6.959   5.136  0.1809 -0.2937  0.2795
 8397TIP3    H125152   5.180   6.867   5.109  1.2843 -0.1492 -0.7219
 8397TIP3    H225153   5.136   6.967   5.214  0.0158 -1.7823  0.3521
 8398TIP3   OH225154   0.962   5.623   0.933 -0.1651  0.2379  0.0685
 8398TIP3    H125155   1.004   5.538   0.917 -1.8787 -0.4027 -1.4322
 8398TIP3    H225156   0.930   5.617   1.023 -0.4085 -0.7979 -0.0722
 8399TIP3   OH225157   2.110   0.060   3.208 -0.1772 -0.1397  0.4661
 8399TIP3    H125158   2.201   0.034   3.199 -0.3534 -0.3087 -0.9408
 8399TIP3    H225159   2.087   0.099   3.124 -1.5112 -0.4477  0.6678
 8400TIP3   OH225160   3.405   5.251   4.484 -0.6126  0.4771 -0.0921
 8400TIP3    H125161   3.483   5.302   4.465 -0.8354  1.5002  1.5220
 8400TIP3    H225162   3.401   5.186   4.414  1.1790  0.9587 -0.6995
 8401TIP3   OH225163   2.066   1.933   1.658  0.6592 -0.3430  0.0010
 8401TIP3    H125164   2.102   1.862   1.711  1.0358  0.7496  1.2554
 8401TIP3    H225165   2.064   2.008   1.717 -3.9663 -0.3241  0.1870
 8402TIP3   OH225166   6.303   6.560   0.628 -0.2221 -0.4119 -0.0793
 8402TIP3    H125167   6.246   6.485   0.641 -1.0567  0.1867 -0.1517
 8402TIP3    H225168   6.366   6.556   0.699  0.0057 -1.4048 -0.3212
 8403TIP3   OH225169   6.733   5.928   1.090  0.2630  0.5183  0.2126
 8403TIP3    H125170   6.691   5.844   1.072  1.8295 -0.4739  1.0219
 8403TIP3    H225171   6.661   5.986   1.116 -0.8110 -0.6236 -0.1343
 8404TIP3   OH225172   1.414   2.619   3.394  0.0516 -0.7184 -0.0259
 8404TIP3    H125173   1.444   2.570   3.317  0.6445 -0.4738  0.0489
 8404TIP3    H225174   1.428   2.559   3.467  0.8207 -0.4283  0.0718
 8405TIP3   OH225175   0.891   2.927   0.174  0.5708  0.1171  0.0109
 8405TIP3    H125176   0.892   3.022   0.165  2.1453  0.6465  3.7529
 8405TIP3    H225177   0.835   2.910   0.250  0.4862 -1.9199 -0.4324
 8406TIP3   OH225178   3.249   1.103   2.702  0.3320  0.1548 -0.2659
 8406TIP3    H125179   3.333   1.089   2.745  1.1221  1.6739 -1.2199
 8406TIP3    H225180   3.217   1.014   2.684  2.0719 -0.4736 -0.5250
 8407TIP3   OH225181   3.767   3.903   2.451 -0.3784 -0.3620 -0.3402
 8407TIP3    H125182   3.707   3.844   2.496 -0.2436 -0.7122 -0.6206
 8407TIP3    H225183   3.842   3.849   2.429  0.8604  0.4488  1.5892
 8408TIP3   OH225184   7.516   0.322   2.077 -0.4218  0.2180 -0.1429
 8408TIP3    H125185   7.605   0.333   2.112 -0.9313 -0.0101  1.2987
 8408TIP3    H225186   7.514   0.379   2.000  1.2050 -0.3657 -0.6556
 8409TIP3   OH225187   2.470   1.052   0.528 -0.2087  0.4047 -0.1985
 8409TIP3    H125188   2.401   1.117   0.541  0.3879  1.1808 -0.8254
 8409TIP3    H225189   2.433   0.988   0.467 -0.3802  0.8198 -0.5311
 8410TIP3   OH225190   4.840   6.816   5.730 -0.3797 -0.2124  0.5892
 8410TIP3    H125191   4.819   6.737   5.780  0.0993 -1.3619 -0.9672
 8410TIP3    H225192   4.756   6.857   5.713 -0.8475 -1.4895 -0.3076
 8411TIP3   OH225193   2.516   5.104   2.089 -0.0851 -0.4305  0.8058
 8411TIP3    H125194   2.602   5.105   2.046  0.0560  1.8059  0.9920
 8411TIP3    H225195   2.516   5.025   2.143  2.2016 -0.0475  1.4630
 8412TIP3   OH225196   5.844   3.389   3.560  0.2323  0.1371  0.7109
 8412TIP3    H125197   5.930   3.348   3.552  0.6451  1.3475 -2.0644
 8412TIP3    H225198   5.782   3.316   3.554  1.0273 -0.5562  0.7572
 8413TIP3   OH225199   5.735   1.559   0.498  0.1960 -0.2526 -0.2638
 8413TIP3    H125200   5.780   1.508   0.431  0.0078  0.8439 -1.2469
 8413TIP3    H225201   5.650   1.579   0.460  0.9592  2.4563 -0.7718
 8414TIP3   OH225202   4.160   4.649   0.430 -0.3672 -0.3168 -0.1274
 8414TIP3    H125203   4.190   4.635   0.520 -0.9625  2.6462  0.6200
 8414TIP3    H225204   4.065   4.640   0.434 -0.3218 -1.2974 -0.7492
 8415TIP3   OH225205   0.205   5.591   2.009  0.6322 -0.1967 -0.2536
 8415TIP3    H125206   0.155   5.664   1.972  1.1433  0.1444 -0.2779
 8415TIP3    H225207   0.166   5.514   1.968 -0.2618  0.0156  0.1772
 8416TIP3   OH225208   2.181   4.052   1.618  0.4445  0.5126 -0.3921
 8416TIP3    H125209   2.265   4.046   1.572  0.1165 -1.3372 -0.8279
 8416TIP3    H225210   2.200   4.020   1.706  0.3720  0.9382 -0.2193
 8417TIP3   OH225211   0.236   6.549   4.256  0.2303  0.3900  0.1094
 8417TIP3    H125212   0.204   6.633   4.222  1.0658  0.7301  0.1406
 8417TIP3    H225213   0.192   6.539   4.340  0.6345  1.1260  0.4190
 8418TIP3   OH225214   2.703   0.120   4.573 -0.3473  0.1018  0.3605
 8418TIP3    H125215   2.773   0.055   4.586 -0.3283 -0.0722 -0.6076
 8418TIP3    H225216   2.696   0.163   4.658  0.9418  0.1175  0.4821
 8419TIP3   OH225217   3.632   5.314   1.384 -0.3600  0.5796 -0.1009
 8419TIP3    H125218   3.697   5.286   1.449 -0.8679 -1.4784 -0.4072
 8419TIP3    H225219   3.548   5.292   1.423 -0.7722  1.2482 -0.6005
 8420TIP3   OH225220   6.804   2.358   4.054 -0.1707  0.0019  0.1948
 8420TIP3    H125221   6.842   2.272   4.035  0.8785  0.4193  0.2827
 8420TIP3    H225222   6.711   2.341   4.069 -0.4745 -0.7939 -2.1696
 8421TIP3   OH225223   7.505   0.535   0.188 -0.2616  0.3674 -0.0711
 8421TIP3    H125224   7.476   0.580   0.268 -0.3265 -0.2162  0.2440
 8421TIP3    H225225   7.450   0.457   0.184  0.3920 -0.0969 -0.1705
 8422TIP3   OH225226   3.551   6.128   0.999  0.2017  0.3665  0.3446
 8422TIP3    H125227   3.645   6.112   0.984  0.0809 -0.1364  0.1124
 8422TIP3    H225228   3.535   6.214   0.960  0.2626 -0.1769 -0.9180
 8423TIP3   OH225229   2.448   5.339   3.111  0.1404  0.1299 -0.6035
 8423TIP3    H125230   2.537   5.331   3.077  1.3490  2.0236  1.8126
 8423TIP3    H225231   2.393   5.348   3.033  2.0414 -0.8943 -2.1565
 8424TIP3   OH225232   6.715   3.252   0.921 -0.0994 -0.0580  0.0806
 8424TIP3    H125233   6.625   3.224   0.937 -0.0551  0.4195  1.2450
 8424TIP3    H225234   6.715   3.284   0.831 -1.2417  0.4772  0.2550
 8425TIP3   OH225235   0.438   0.219   2.856  0.3443 -0.0929  0.0881
 8425TIP3    H125236   0.486   0.225   2.773 -1.1026  0.2885 -0.7502
 8425TIP3    H225237   0.442   0.308   2.892 -1.1030  0.3726 -0.8092
 8426TIP3   OH225238   2.586   4.650   4.250  0.8989  0.0609  0.4171
 8426TIP3    H125239   2.535   4.586   4.300  0.8114  0.2420  0.5604
 8426TIP3    H225240   2.548   4.646   4.162  1.8035 -1.0910  0.0431
 8427TIP3   OH225241   0.616   2.721   3.416  0.0278 -0.2255 -0.1660
 8427TIP3    H125242   0.529   2.755   3.438  0.0006 -0.0560 -0.5158
 8427TIP3    H225243   0.612   2.628   3.438  0.2364  0.0672  1.1999
 8428TIP3   OH225244   3.073   5.713   6.120 -0.5376  0.2092  0.0021
 8428TIP3    H125245   3.145   5.764   6.157  0.8184  1.6501 -4.0360
 8428TIP3    H225246   3.089   5.623   6.149  0.7121  1.0539  2.1578
 8429TIP3   OH225247   5.707   3.877   2.198  0.0434 -0.0868 -0.0564
 8429TIP3    H125248   5.679   3.957   2.241 -1.6137  0.2934 -1.6933
 8429TIP3    H225249   5.737   3.820   2.269 -0.3651  1.3333  1.3094
 8430TIP3   OH225250   2.645   5.967   2.682 -0.7657  0.5840  0.0675
 8430TIP3    H125251   2.626   6.028   2.610 -1.7242 -0.1996 -0.3698
 8430TIP3    H225252   2.573   5.979   2.744 -0.6640  0.2867  0.2442
 8431TIP3   OH225253   3.836   6.178   4.750 -0.3294 -0.1338 -0.1182
 8431TIP3    H125254   3.876   6.091   4.746  0.5459  0.0642  2.3303
 8431TIP3    H225255   3.777   6.173   4.825 -1.0027  1.1068 -0.5448
 8432TIP3   OH225256   3.469   3.607   0.653 -0.0565 -0.7896  0.6083
 8432TIP3    H125257   3.521   3.684   0.674  0.6180 -1.4625  1.5301
 8432TIP3    H225258   3.530   3.547   0.610 -0.1988 -1.3452  1.1531
 8433TIP3   OH225259   3.409   0.024   4.175 -0.5543  0.1470  0.4904
 8433TIP3    H125260   3.420   0.114   4.207 -0.6512  0.6451 -0.8038
 8433TIP3    H225261   3.438  -0.031   4.248 -1.7467  1.1860  1.8134
 8434TIP3   OH225262   2.508   4.845   2.759  0.2239 -0.4150  0.3343
 8434TIP3    H125263   2.585   4.866   2.812  0.3206  0.8946 -0.2863
 8434TIP3    H225264   2.439   4.902   2.793  0.1641  0.1053 -0.6438
 8435TIP3   OH225265   6.356   5.812   0.254 -0.0671  0.1639  0.5691
 8435TIP3    H125266   6.308   5.797   0.172  0.2747  0.8549  0.2271
 8435TIP3    H225267   6.308   5.882   0.297  0.3529  0.5370  0.4456
 8436TIP3   OH225268   7.397   0.183   4.176  0.4523  0.3210  0.5406
 8436TIP3    H125269   7.310   0.154   4.146  1.2977 -1.2114 -0.5478
 8436TIP3    H225270   7.378   0.259   4.231 -1.7409 -1.1537  1.9938
 8437TIP3   OH225271   5.088   3.483   6.025 -0.0950 -0.4930  0.8036
 8437TIP3    H125272   5.057   3.569   6.053  0.3410 -0.3695  0.8994
 8437TIP3    H225273   5.084   3.486   5.929  0.0795 -0.3126  0.8036
 8438TIP3   OH225274   0.424   6.538   1.977  0.7299  0.1665 -0.3314
 8438TIP3    H125275   0.497   6.557   2.036  0.6628 -0.0494 -0.1776
 8438TIP3    H225276   0.367   6.615   1.983  0.2730 -0.2312  0.5638
 8439TIP3   OH225277   1.030   5.848   0.808 -0.1881  0.7277  0.1282
 8439TIP3    H125278   1.013   5.768   0.856  0.0432  0.9795  0.6369
 8439TIP3    H225279   0.943   5.881   0.785 -0.2935  0.5032  0.2035
 8440TIP3   OH225280   1.134   4.896   5.079  0.3655  0.0992 -0.0382
 8440TIP3    H125281   1.189   4.826   5.113 -1.0767 -2.0051 -1.7301
 8440TIP3    H225282   1.165   4.975   5.123  3.6909 -1.1759  0.1528
 8441TIP3   OH225283   3.888   1.902   3.195  0.2587 -0.0865 -0.4472
 8441TIP3    H125284   3.893   1.880   3.102  0.2091  0.3268 -0.5510
 8441TIP3    H225285   3.887   1.818   3.240  0.3051 -0.2878 -0.8210
 8442TIP3   OH225286   2.820   4.115   2.527  0.5408  0.7944 -0.1531
 8442TIP3    H125287   2.842   4.208   2.515 -1.1095  1.1504 -0.7500
 8442TIP3    H225288   2.842   4.074   2.443 -1.6503  1.3152 -1.0624
 8443TIP3   OH225289   5.418   6.024   2.344  0.1212 -0.0488  0.1042
 8443TIP3    H125290   5.337   6.004   2.297  0.7462 -0.7718 -0.7111
 8443TIP3    H225291   5.451   5.938   2.371  1.3737  0.0707 -0.9006
 8444TIP3   OH225292   0.725   1.777   1.039  0.1748  0.1887 -0.1518
 8444TIP3    H125293   0.648   1.723   1.019  0.2050  0.8651 -2.3291
 8444TIP3    H225294   0.690   1.849   1.093 -0.6009  0.1084 -0.5287
 8445TIP3   OH225295   5.426   0.500   2.980  0.2693  0.5433 -0.0578
 8445TIP3    H125296   5.460   0.438   2.916  1.8754  0.6806  0.6055
 8445TIP3    H225297   5.493   0.502   3.049 -0.4489  1.9037  0.6376
 8446TIP3   OH225298   2.572   0.766   3.518  0.0382  0.0167  0.0608
 8446TIP3    H125299   2.521   0.707   3.462  0.8257  0.3187 -0.9919
 8446TIP3    H225300   2.640   0.710   3.556  0.6070  0.1608 -0.7127
 8447TIP3   OH225301   1.511   4.868   5.126  0.5476 -0.0035 -0.4517
 8447TIP3    H125302   1.490   4.954   5.091 -1.0565 -0.1077  0.1880
 8447TIP3    H225303   1.550   4.821   5.052  1.3255  1.2081 -0.8339
 8448TIP3   OH225304   1.238   6.413   0.410  0.1486 -0.1036 -0.2672
 8448TIP3    H125305   1.179   6.412   0.335 -1.6685 -0.0104  1.1201
 8448TIP3    H225306   1.313   6.359   0.382 -0.1626  0.4602 -2.3560
 8449TIP3   OH225307   0.078   1.769   2.923 -0.0974 -0.2616  0.7390
 8449TIP3    H125308   0.087   1.835   2.853  1.1605  0.3132  1.4023
 8449TIP3    H225309  -0.007   1.787   2.963  0.2577  1.0307  0.9528
 8450TIP3   OH225310   1.889   3.482   4.258 -0.4960 -0.4625 -0.1243
 8450TIP3    H125311   1.874   3.576   4.242  0.1413 -0.5203 -1.1752
 8450TIP3    H225312   1.955   3.480   4.327 -0.6080 -0.1298 -0.0040
 8451TIP3   OH225313   5.959   1.926   0.261 -0.0354 -0.1235 -0.2492
 8451TIP3    H125314   5.917   1.851   0.219 -0.4249 -0.2671  0.3876
 8451TIP3    H225315   5.897   1.955   0.327  0.3740  0.3877 -0.0790
 8452TIP3   OH225316   2.818   3.090   4.376  0.9635 -0.0848 -0.3353
 8452TIP3    H125317   2.723   3.080   4.374  0.6911  1.9827 -0.2782
 8452TIP3    H225318   2.849   3.020   4.433 -0.8033  0.8393  1.8884
 8453TIP3   OH225319   1.672   3.103   0.513  0.2586  1.1531  0.5168
 8453TIP3    H125320   1.691   3.048   0.589  0.3808  0.5026  0.0217
 8453TIP3    H225321   1.757   3.133   0.483  0.6770 -1.8499 -1.7673
 8454TIP3   OH225322   1.331   5.387   5.841  0.1637 -0.4116 -0.0461
 8454TIP3    H125323   1.356   5.465   5.891  1.1422 -0.1594 -0.8894
 8454TIP3    H225324   1.236   5.381   5.851 -0.0608  1.4140 -0.6976
 8455TIP3   OH225325   1.896   3.141   1.538 -0.4351 -0.4768 -0.0664
 8455TIP3    H125326   1.897   3.091   1.457  0.0139 -1.0574  0.2876
 8455TIP3    H225327   1.807   3.177   1.543 -0.3741 -0.1790 -0.9626
 8456TIP3   OH225328   3.004   0.216   2.431  0.0867 -0.4782  0.0879
 8456TIP3    H125329   2.933   0.278   2.415  1.3620  0.8390 -0.7851
 8456TIP3    H225330   2.960   0.133   2.450 -1.6895  0.6743  1.3620
 8457TIP3   OH225331   1.258   3.391   2.694  0.1272  0.1161  0.1713
 8457TIP3    H125332   1.293   3.362   2.609 -0.7925 -1.6429  0.3329
 8457TIP3    H225333   1.180   3.337   2.706  0.3389  0.2148  2.2384
 8458TIP3   OH225334   5.668   3.805   2.767 -0.1241  0.8201 -0.7546
 8458TIP3    H125335   5.728   3.760   2.827 -0.3704  1.5094  0.0303
 8458TIP3    H225336   5.698   3.895   2.767  0.0712  0.7702 -1.9457
 8459TIP3   OH225337   1.267   4.440   3.722 -0.1355  0.2592  0.1733
 8459TIP3    H125338   1.272   4.406   3.811  0.9880 -1.7923 -0.6095
 8459TIP3    H225339   1.353   4.481   3.708  0.0932 -0.3748 -0.3080
 8460TIP3   OH225340   4.298   2.816   5.130  0.0241 -0.1286  0.6415
 8460TIP3    H125341   4.373   2.772   5.169  0.1237  0.3306  0.9871
 8460TIP3    H225342   4.331   2.904   5.108  0.0066 -0.4158 -0.6108
 8461TIP3   OH225343   1.781   1.425   5.855  0.3164  0.0040 -0.3244
 8461TIP3    H125344   1.856   1.411   5.913  2.1170  0.8030 -2.3525
 8461TIP3    H225345   1.762   1.519   5.863 -0.0423 -0.0680 -0.3235
 8462TIP3   OH225346   5.029   1.126   5.458 -0.5598 -0.3959 -0.2902
 8462TIP3    H125347   5.087   1.073   5.513 -1.4474 -2.2286 -1.0100
 8462TIP3    H225348   5.083   1.154   5.385 -0.2277 -0.9263 -0.2532
 8463TIP3   OH225349   5.286   2.567   0.170  0.5843  0.0641 -0.3081
 8463TIP3    H125350   5.371   2.530   0.193  0.0814 -0.5038  0.6696
 8463TIP3    H225351   5.234   2.492   0.141 -0.0480  0.1787  0.5037
 8464TIP3   OH225352   1.400   5.663   0.783  0.0830  0.0755 -0.1736
 8464TIP3    H125353   1.310   5.631   0.773  0.1532 -0.1082 -0.2119
 8464TIP3    H225354   1.392   5.734   0.846 -0.0781  0.0032 -0.1098
 8465TIP3   OH225355   0.718   2.691   0.789  0.1539  0.4961  0.2209
 8465TIP3    H125356   0.731   2.777   0.830  2.2493 -0.3156  1.4249
 8465TIP3    H225357   0.660   2.709   0.714  0.2030  2.8724  0.6636
 8466TIP3   OH225358   1.286   5.827   4.734 -0.4483  0.0672  0.1073
 8466TIP3    H125359   1.276   5.733   4.752 -0.7028 -0.2130 -1.3766
 8466TIP3    H225360   1.244   5.839   4.649 -0.1821  1.4895  0.1640
 8467TIP3   OH225361   7.465   4.385   2.342  0.1377  0.4647 -0.5251
 8467TIP3    H125362   7.420   4.302   2.359  0.6891  0.2969  0.1172
 8467TIP3    H225363   7.403   4.435   2.289  0.1118 -0.6644 -1.5997
 8468TIP3   OH225364   4.715   4.755   6.170 -0.1464 -0.4494  0.5083
 8468TIP3    H125365   4.751   4.686   6.225 -0.1082 -0.4030  0.5414
 8468TIP3    H225366   4.733   4.836   6.218 -0.0625 -0.4049  0.4012
 8469TIP3   OH225367   2.637   5.381   3.525 -0.6165  0.0134  0.5083
 8469TIP3    H125368   2.594   5.461   3.553 -0.0455  1.3763 -2.2421
 8469TIP3    H225369   2.730   5.395   3.545 -0.3052  0.7064 -1.2856
 8470TIP3   OH225370   0.808   5.168   2.549 -0.8245 -0.5858  0.1434
 8470TIP3    H125371   0.901   5.162   2.571 -0.6225  0.5341 -0.3374
 8470TIP3    H225372   0.762   5.141   2.629 -0.1121  2.2753  1.6517
 8471TIP3   OH225373   2.131   5.835   2.968 -0.4275 -0.5559 -0.1267
 8471TIP3    H125374   2.045   5.869   2.991  0.4031  0.9024  1.0081
 8471TIP3    H225375   2.160   5.889   2.894  0.5464  0.7412  1.1438
 8472TIP3   OH225376   2.264   2.110   3.557  0.2227  0.1460 -0.0925
 8472TIP3    H125377   2.233   2.039   3.501  0.5581 -0.3918  0.3916
 8472TIP3    H225378   2.227   2.190   3.518  0.4704 -0.2118 -1.0802
 8473TIP3   OH225379   3.498   3.061   2.749  0.1704 -0.0279  0.2489
 8473TIP3    H125380   3.471   3.004   2.677  1.0039 -0.0056 -0.0834
 8473TIP3    H225381   3.548   3.005   2.808 -0.2234  0.0335  0.6502
 8474TIP3   OH225382   5.508   1.811   1.528  0.2660  0.0208 -0.1261
 8474TIP3    H125383   5.419   1.846   1.530 -0.2920 -1.1110 -2.3718
 8474TIP3    H225384   5.564   1.889   1.518 -0.4248  0.7358  1.3162
 8475TIP3   OH225385   3.126   4.298   3.512 -0.4106 -0.1791  0.7138
 8475TIP3    H125386   3.043   4.272   3.552 -0.7586  0.2549  0.2815
 8475TIP3    H225387   3.184   4.223   3.528 -1.0154 -0.6773  0.6321
 8476TIP3   OH225388   7.160   6.573   3.869  0.3258 -0.6673 -0.6613
 8476TIP3    H125389   7.157   6.527   3.953 -2.7580 -0.3658 -0.5213
 8476TIP3    H225390   7.163   6.502   3.804 -2.5934 -1.1725 -0.3835
 8477TIP3   OH225391   0.246   4.493   0.039  0.1612 -0.5017  0.2005
 8477TIP3    H125392   0.225   4.510  -0.052  3.6984 -2.4837 -1.1806
 8477TIP3    H225393   0.236   4.578   0.082 -0.3984  0.7869 -2.2798
 8478TIP3   OH225394   4.492   6.844   1.711 -0.0483 -0.4728 -0.2146
 8478TIP3    H125395   4.587   6.833   1.712  0.0349  0.1527 -0.2543
 8478TIP3    H225396   4.462   6.790   1.638  0.1356 -1.6279  0.5360
 8479TIP3   OH225397   2.432   0.905   3.999  0.2888 -0.5064 -0.4806
 8479TIP3    H125398   2.519   0.894   3.962  0.5663  2.1662 -0.7648
 8479TIP3    H225399   2.375   0.856   3.940  1.3682 -0.7475 -1.3649
 8480TIP3   OH225400   6.765   3.324   1.855 -0.1574  0.7184  0.1888
 8480TIP3    H125401   6.796   3.311   1.765  0.1058  0.3929  0.3279
 8480TIP3    H225402   6.735   3.415   1.856 -0.6205  0.5789 -0.3653
 8481TIP3   OH225403   1.923   4.496   3.298 -0.0315 -0.0329  0.4385
 8481TIP3    H125404   2.010   4.528   3.274 -0.0933 -0.0065  0.2467
 8481TIP3    H225405   1.937   4.443   3.376  0.2547 -0.5858  0.0185
 8482TIP3   OH225406   2.541   5.400   4.273  0.0773  0.2931 -0.4531
 8482TIP3    H125407   2.607   5.462   4.303 -0.9420  0.5673  1.3481
 8482TIP3    H225408   2.587   5.317   4.263  0.8702  0.6907 -0.1238
 8483TIP3   OH225409   5.224   0.532   5.102  0.0165 -0.6547  0.3009
 8483TIP3    H125410   5.300   0.559   5.050  0.6074 -1.7135  0.5846
 8483TIP3    H225411   5.153   0.527   5.038  1.2870 -4.5725 -1.1277
 8484TIP3   OH225412   5.051   1.841   0.607 -0.1503 -0.0463  0.3999
 8484TIP3    H125413   5.100   1.862   0.687  2.3386 -0.0668 -1.0213
 8484TIP3    H225414   5.090   1.760   0.575 -0.8967  0.1082 -0.9887
 8485TIP3   OH225415   1.088   0.268   0.559  0.4495 -0.2074 -0.8024
 8485TIP3    H125416   0.997   0.257   0.533  0.5899 -0.1202 -1.3438
 8485TIP3    H225417   1.127   0.321   0.489  1.5975 -2.6023 -2.1135
 8486TIP3   OH225418   0.219   2.661   1.685 -0.3089 -0.1097 -0.5640
 8486TIP3    H125419   0.165   2.701   1.617  0.4823  1.4038 -0.3602
 8486TIP3    H225420   0.279   2.731   1.712  0.9622 -1.3750  0.0405
 8487TIP3   OH225421   4.891   2.900   4.407  0.0408 -0.0966 -0.0063
 8487TIP3    H125422   4.901   2.828   4.344  0.1088 -0.5669  0.5288
 8487TIP3    H225423   4.805   2.885   4.446 -0.3276  0.6336 -0.5280
 8488TIP3   OH225424   5.872   6.748   1.550  0.3349  0.0994 -0.0425
 8488TIP3    H125425   5.829   6.686   1.609 -0.0469  0.3993 -0.0017
 8488TIP3    H225426   5.948   6.701   1.517  0.2682 -0.2505  0.2977
 8489TIP3   OH225427   2.787   2.180   1.194  0.0491  0.3806  0.1984
 8489TIP3    H125428   2.728   2.250   1.164 -0.1196  0.2456  0.2161
 8489TIP3    H225429   2.736   2.100   1.187 -0.8035  0.5800  2.9486
 8490TIP3   OH225430   5.668   3.571   2.625  0.7225 -0.0159  0.3464
 8490TIP3    H125431   5.633   3.499   2.677  2.3869 -0.3735  1.0375
 8490TIP3    H225432   5.628   3.649   2.663 -1.7132 -0.5557 -0.9133
 8491TIP3   OH225433   7.460   3.870   4.275 -0.0113  0.4931 -0.1419
 8491TIP3    H125434   7.458   3.901   4.366  0.5166 -0.4213  0.2004
 8491TIP3    H225435   7.451   3.775   4.282  1.6520  0.2377 -0.9192
 8492TIP3   OH225436   2.361   2.155   0.273 -0.3390  0.0770 -0.1052
 8492TIP3    H125437   2.393   2.193   0.354 -0.3604  0.3047 -0.2028
 8492TIP3    H225438   2.278   2.114   0.297  0.7562 -1.9285  0.5042
 8493TIP3   OH225439   2.832   7.037   4.761 -0.7297 -0.3729  0.0940
 8493TIP3    H125440   2.793   7.017   4.676  0.5264  2.2745 -1.2510
 8493TIP3    H225441   2.781   7.111   4.794  0.2368  0.1315  0.5115
 8494TIP3   OH225442   2.206   4.719   1.075  0.4309  0.2237 -0.3122
 8494TIP3    H125443   2.164   4.730   0.990 -2.7905 -0.6138  1.0168
 8494TIP3    H225444   2.138   4.741   1.139  2.3997 -0.1268  2.0980
 8495TIP3   OH225445   1.625   1.675   1.644  0.0317 -0.1023 -0.0439
 8495TIP3    H125446   1.714   1.702   1.620  0.4682 -0.9256  0.6269
 8495TIP3    H225447   1.569   1.717   1.578  0.7486  1.7291  0.4380
 8496TIP3   OH225448   6.371   1.107   1.247 -0.9130 -0.0009  0.7254
 8496TIP3    H125449   6.300   1.111   1.184 -1.7536 -1.3719  1.5348
 8496TIP3    H225450   6.442   1.157   1.207 -1.3485 -0.9577 -1.3638
 8497TIP3   OH225451   3.933   5.757   1.313 -0.0158  0.5561 -0.3933
 8497TIP3    H125452   3.870   5.781   1.245 -0.5877  4.3791  1.1955
 8497TIP3    H225453   3.881   5.706   1.376  0.2373 -1.9773 -2.1195
 8498TIP3   OH225454   6.246   4.180   5.037 -0.2641 -0.1218 -0.1326
 8498TIP3    H125455   6.256   4.217   4.950 -0.8775  0.7931  0.1637
 8498TIP3    H225456   6.270   4.088   5.027  0.8310  0.2365 -0.9970
 8499TIP3   OH225457   2.362   2.660   2.035  0.1843 -0.3809  0.1482
 8499TIP3    H125458   2.326   2.721   1.970 -0.7868  0.0958  1.0956
 8499TIP3    H225459   2.319   2.577   2.016 -0.3988 -0.1450  0.4296
 8500TIP3   OH225460   3.381   4.982   2.050 -0.1293  0.9765  0.2663
 8500TIP3    H125461   3.308   4.924   2.031  1.7754 -0.7780 -2.3949
 8500TIP3    H225462   3.354   5.067   2.018 -1.4437  0.6733  0.5030
 8501TIP3   OH225463   6.049   3.250   4.266  0.0470  0.6373 -0.0300
 8501TIP3    H125464   6.107   3.183   4.231 -3.5455 -3.0995  0.4580
 8501TIP3    H225465   6.027   3.304   4.190  2.1327  0.6385 -0.6934
 8502TIP3   OH225466   3.505   5.247   2.561 -0.2499  0.4487 -0.0345
 8502TIP3    H125467   3.441   5.244   2.491 -1.6557  0.4691  1.2001
 8502TIP3    H225468   3.534   5.157   2.572 -1.0229  0.2307  0.2386
 8503TIP3   OH225469   5.715   5.789   4.582  0.1301  0.3511 -0.0945
 8503TIP3    H125470   5.763   5.799   4.664  0.6524 -0.4099 -0.2942
 8503TIP3    H225471   5.630   5.828   4.599  0.1530 -0.0007  0.8817
 8504TIP3   OH225472   0.268   6.017   4.854 -0.1798 -0.0895 -0.7591
 8504TIP3    H125473   0.194   6.042   4.909 -0.7054 -2.4350 -0.3022
 8504TIP3    H225474   0.345   6.048   4.902 -0.7460  0.1549  0.0120
 8505TIP3   OH225475   7.462   5.363   0.493 -0.3526 -0.1943  0.0388
 8505TIP3    H125476   7.525   5.433   0.475  0.6917 -0.6554  1.7292
 8505TIP3    H225477   7.467   5.306   0.417  1.1803 -0.1485  0.0836
 8506TIP3   OH225478   4.441   2.648   3.513  0.1658 -0.0224  0.6302
 8506TIP3    H125479   4.354   2.659   3.475  0.1854  1.3549  0.9599
 8506TIP3    H225480   4.501   2.672   3.443  0.3273 -1.5041  0.2201
 8507TIP3   OH225481   4.400   5.903   1.464 -0.3436 -0.0298 -0.6347
 8507TIP3    H125482   4.431   5.814   1.481  3.1158  1.4874  2.4412
 8507TIP3    H225483   4.307   5.902   1.487  0.3650 -2.1850  2.6927
 8508TIP3   OH225484   2.866   5.148   1.685 -0.0954 -0.3642 -0.4299
 8508TIP3    H125485   2.777   5.115   1.675 -0.1745 -0.3675  0.2286
 8508TIP3    H225486   2.860   5.240   1.659 -0.2311 -0.4379 -0.6599
 8509TIP3   OH225487   3.344   0.448   2.171 -0.4036  0.6178  0.6539
 8509TIP3    H125488   3.328   0.465   2.078 -0.9798  1.4044  0.8840
 8509TIP3    H225489   3.302   0.363   2.187 -0.9921  0.8527  0.3719
 8510TIP3   OH225490   0.363   6.323   0.307 -0.1535 -0.2808  0.0455
 8510TIP3    H125491   0.318   6.275   0.377  1.1722 -1.4187  0.1556
 8510TIP3    H225492   0.386   6.256   0.243  0.1157  0.5014 -0.7017
 8511TIP3   OH225493   0.347   4.089   3.233  0.0655  0.0711 -0.0853
 8511TIP3    H125494   0.323   4.162   3.176  2.1134  1.3148  0.5616
 8511TIP3    H225495   0.406   4.036   3.180 -0.3075 -0.3536 -0.0767
 8512TIP3   OH225496   0.891   1.626   1.221  0.1024 -0.1306  0.2572
 8512TIP3    H125497   0.984   1.647   1.216  0.4997 -1.8646 -0.1826
 8512TIP3    H225498   0.852   1.674   1.148  0.6794  0.3932  0.2793
 8513TIP3   OH225499   6.902   6.056   4.449  0.3002  0.4366 -0.4829
 8513TIP3    H125500   6.915   5.979   4.503  0.1575  0.6998 -0.0691
 8513TIP3    H225501   6.989   6.079   4.419  0.6734  1.4379  1.2321
 8514TIP3   OH225502   3.863   5.888   4.740 -0.2792  0.0262 -1.0302
 8514TIP3    H125503   3.767   5.894   4.737 -0.5086  0.1526  2.3406
 8514TIP3    H225504   3.880   5.805   4.784  1.0092  1.0462  0.5144
 8515TIP3   OH225505   0.771   1.795   2.259 -0.3200 -0.2741 -0.0570
 8515TIP3    H125506   0.750   1.715   2.308  0.4361  0.1570  1.0167
 8515TIP3    H225507   0.858   1.819   2.290  0.1736  0.0453 -1.6125
 8516TIP3   OH225508   1.517   7.117   4.078 -0.0010  0.2139  0.1871
 8516TIP3    H125509   1.562   7.154   4.003 -0.7929 -0.4391 -0.6342
 8516TIP3    H225510   1.570   7.143   4.154  0.3821  1.5494 -0.5118
 8517TIP3   OH225511   4.072   3.049   1.312  0.1236  0.1694  0.4496
 8517TIP3    H125512   4.015   3.125   1.322  0.3241  0.3054  0.5698
 8517TIP3    H225513   4.158   3.080   1.340  0.2666 -0.0211  0.2216
 8518TIP3   OH225514   6.715   1.850   4.816 -0.3318 -0.8206 -0.1137
 8518TIP3    H125515   6.651   1.791   4.855  0.7140 -2.0303 -0.1829
 8518TIP3    H225516   6.699   1.934   4.860 -2.7340 -0.7449 -0.9846
 8519TIP3   OH225517   2.204   6.421   1.211 -0.7490 -0.4890 -0.0352
 8519TIP3    H125518   2.154   6.395   1.134 -0.0127  0.7249 -0.9531
 8519TIP3    H225519   2.141   6.471   1.265 -0.6359  0.7937 -1.0480
 8520TIP3   OH225520   3.411   5.285   6.112  0.4997  0.1142  0.0698
 8520TIP3    H125521   3.315   5.278   6.117  0.2464  1.7155 -1.4807
 8520TIP3    H225522   3.437   5.216   6.051  0.3239 -0.2007  0.3460
 8521TIP3   OH225523   4.369   2.084   2.774  0.1798  0.0088 -0.1504
 8521TIP3    H125524   4.391   2.145   2.844 -0.4987 -0.0459  0.1139
 8521TIP3    H225525   4.448   2.030   2.764 -0.5383 -1.7380  2.3969
 8522TIP3   OH225526   2.153   2.250   3.124 -0.3261  0.0485  0.0514
 8522TIP3    H125527   2.180   2.265   3.034 -0.0145  1.5489  0.3692
 8522TIP3    H225528   2.086   2.182   3.118 -0.5380  0.3503 -1.3380
 8523TIP3   OH225529   4.155   7.086   4.649  0.2620 -0.1001 -0.4678
 8523TIP3    H125530   4.127   6.995   4.651  1.5073 -0.5218 -1.0427
 8523TIP3    H225531   4.074   7.137   4.659 -0.7963 -1.2319 -2.4741
 8524TIP3   OH225532   0.588   5.691   3.581 -0.3846  0.4959 -0.6188
 8524TIP3    H125533   0.571   5.631   3.508 -2.4969  0.4125 -0.1020
 8524TIP3    H225534   0.528   5.664   3.650 -0.0794  2.0414  0.3062
 8525TIP3   OH225535   5.931   0.155   6.149  0.0731  0.0607  0.5663
 8525TIP3    H125536   5.880   0.092   6.200 -0.6937 -1.0293 -1.4052
 8525TIP3    H225537   5.892   0.151   6.061  1.4312  1.7021 -0.1728
 8526TIP3   OH225538   4.237   3.631   1.088 -0.1114 -0.4818 -0.2357
 8526TIP3    H125539   4.332   3.642   1.075 -0.2450 -0.2868 -1.1140
 8526TIP3    H225540   4.227   3.536   1.102  0.0838 -0.7024 -1.4544
 8527TIP3   OH225541   2.444   4.280   2.393 -0.1332  0.2845  0.2035
 8527TIP3    H125542   2.442   4.292   2.488  1.0121  2.5675  0.0148
 8527TIP3    H225543   2.373   4.333   2.360  0.2633  0.5176 -0.2881
 8528TIP3   OH225544   3.969   6.568   5.636 -0.0969 -0.6352 -0.3771
 8528TIP3    H125545   4.012   6.491   5.673  0.2839 -0.1502  0.2024
 8528TIP3    H225546   4.027   6.641   5.658 -0.3108 -0.2187 -1.1668
 8529TIP3   OH225547   6.241   3.813   0.928  0.1524  0.1836  0.0425
 8529TIP3    H125548   6.336   3.824   0.930  0.1355  0.6063 -0.9037
 8529TIP3    H225549   6.228   3.718   0.916  0.5708  0.4443 -3.4867
 8530TIP3   OH225550   3.430   0.171   4.726 -0.0294  0.4090  0.1387
 8530TIP3    H125551   3.488   0.133   4.793 -0.7409 -0.9415  0.0197
 8530TIP3    H225552   3.453   0.264   4.725  0.4834  0.3355  1.7678
 8531TIP3   OH225553   2.260   0.130   1.690  0.1323 -0.3034 -0.0827
 8531TIP3    H125554   2.239   0.043   1.725  0.7925 -0.1577  0.7277
 8531TIP3    H225555   2.335   0.158   1.743 -0.4167  0.9880  0.0326
 8532TIP3   OH225556   6.960   1.684   0.143 -0.9165 -0.1266  0.2082
 8532TIP3    H125557   6.868   1.701   0.162 -0.9513 -1.0382  0.9313
 8532TIP3    H225558   7.009   1.735   0.208 -0.8071  2.0607 -1.4870
 8533TIP3   OH225559   2.202   3.705   0.801  0.0753 -0.1239 -0.0573
 8533TIP3    H125560   2.289   3.667   0.813 -0.2567 -0.8998 -0.0175
 8533TIP3    H225561   2.212   3.797   0.826  1.0026 -0.0734 -0.5688
 8534TIP3   OH225562   2.996   0.307   2.932  0.4847  0.3049 -0.2556
 8534TIP3    H125563   2.980   0.311   3.026  0.2769 -2.9022 -0.0446
 8534TIP3    H225564   2.919   0.263   2.896  1.1419  0.3102 -1.7629
 8535TIP3   OH225565   5.066   0.777   1.510 -0.2464  0.7620  0.5549
 8535TIP3    H125566   5.109   0.743   1.432  3.5917  0.1546  2.6908
 8535TIP3    H225567   5.023   0.701   1.549 -0.5438  0.6684  0.0588
 8536TIP3   OH225568   6.071   3.012   0.924 -0.1281  0.3466 -0.2567
 8536TIP3    H125569   6.162   2.999   0.951 -0.5070 -2.2217  0.0833
 8536TIP3    H225570   6.064   2.968   0.839 -1.6853 -2.4222  1.1531
 8537TIP3   OH225571   3.445   1.939   4.898  0.2077 -0.3801  0.1683
 8537TIP3    H125572   3.508   1.934   4.826  0.4089  1.1862  0.1968
 8537TIP3    H225573   3.491   1.989   4.966 -0.8897  0.4220  0.3573
 8538TIP3   OH225574   1.970   0.479   3.184 -0.2940  0.1950 -0.1890
 8538TIP3    H125575   1.933   0.444   3.265  0.6541  0.8690  0.5630
 8538TIP3    H225576   2.058   0.509   3.209 -0.4789  1.6344 -1.1454
 8539TIP3   OH225577   5.068   2.726   1.207 -0.7271  0.8460  0.3724
 8539TIP3    H125578   5.002   2.784   1.169 -0.0648  1.8285  0.6952
 8539TIP3    H225579   5.040   2.638   1.182 -1.2320  1.3597 -0.9153
 8540TIP3   OH225580   7.004   2.583   2.779  0.8001  0.5383 -0.1808
 8540TIP3    H125581   7.090   2.615   2.805  1.4961  0.6820 -2.4013
 8540TIP3    H225582   6.973   2.533   2.854  2.0145  1.9586  1.3550
 8541TIP3   OH225583   3.295   4.329   4.047  0.1498 -0.1354  0.1246
 8541TIP3    H125584   3.293   4.347   4.141 -0.5910 -0.6263  0.2058
 8541TIP3    H225585   3.272   4.412   4.006  0.9973  0.2261  0.3459
 8542TIP3   OH225586   4.776   6.899   1.492  0.6159 -0.0697 -0.4751
 8542TIP3    H125587   4.792   6.814   1.452  0.4000 -0.1242 -0.4471
 8542TIP3    H225588   4.854   6.916   1.545  1.1523  0.2678 -1.3624
 8543TIP3   OH225589   2.926   2.197   3.519  0.4326  0.0750  0.1133
 8543TIP3    H125590   2.953   2.289   3.526  0.0961  0.1062  1.1021
 8543TIP3    H225591   2.894   2.189   3.429 -0.7665  1.2742  0.3938
 8544TIP3   OH225592   1.352   2.310   1.767 -0.0100  0.0542  0.1704
 8544TIP3    H125593   1.404   2.235   1.796 -1.1330 -0.8021  0.0417
 8544TIP3    H225594   1.295   2.274   1.699  0.8775  1.4891 -1.4052
 8545TIP3   OH225595   6.757   0.295   0.559  0.5316  0.1688 -0.0094
 8545TIP3    H125596   6.742   0.202   0.577  2.7672  0.2235  3.2152
 8545TIP3    H225597   6.671   0.335   0.565 -0.5501 -1.6835 -1.8972
 8546TIP3   OH225598   1.709   1.695   5.802 -0.5039  0.1097 -0.2256
 8546TIP3    H125599   1.694   1.788   5.818 -0.5177  0.2659 -1.1066
 8546TIP3    H225600   1.673   1.679   5.715  0.5408 -0.4508 -0.5825
 8547TIP3   OH225601   3.222   5.281   5.024 -0.5293 -0.1443 -0.1886
 8547TIP3    H125602   3.191   5.332   5.099  0.4822  2.2180 -1.2780
 8547TIP3    H225603   3.301   5.238   5.055 -0.9523 -0.4451  0.5143
 8548TIP3   OH225604   7.353   1.241   1.537 -0.1514  0.0160  0.7232
 8548TIP3    H125605   7.411   1.165   1.539  1.5422  1.2253  3.8146
 8548TIP3    H225606   7.406   1.314   1.570 -1.5686  2.7636 -2.4067
 8549TIP3   OH225607   1.251   5.368   2.794 -0.0231 -0.3100  0.7064
 8549TIP3    H125608   1.334   5.321   2.789 -0.4718 -1.2266  1.5651
 8549TIP3    H225609   1.230   5.390   2.704  1.9550  1.3863  0.5818
 8550TIP3   OH225610   4.893   5.833   5.513 -0.6639 -0.3353  0.2163
 8550TIP3    H125611   4.859   5.754   5.472  1.0733 -1.1941  0.3657
 8550TIP3    H225612   4.866   5.904   5.454  0.2173 -1.3542 -1.4945
 8551TIP3   OH225613   5.180   2.819   5.457  0.2325 -0.3011  0.1965
 8551TIP3    H125614   5.256   2.866   5.493 -0.5338  0.6154  0.6478
 8551TIP3    H225615   5.134   2.787   5.534 -1.4839  1.7631  0.1060
 8552TIP3   OH225616   6.721   5.727   5.059 -0.4662 -0.4028  0.1335
 8552TIP3    H125617   6.776   5.773   4.996 -1.7225 -0.7955 -1.3323
 8552TIP3    H225618   6.765   5.643   5.072  1.8935  1.0944  2.9031
 8553TIP3   OH225619   5.074   1.111   2.518  0.5562  0.0244  0.4124
 8553TIP3    H125620   5.076   1.055   2.595  0.2481 -3.0803 -1.6422
 8553TIP3    H225621   4.994   1.086   2.472  1.2060  1.0647 -1.3738
 8554TIP3   OH225622   2.197   6.659   0.759  0.2417  0.4930 -0.3931
 8554TIP3    H125623   2.130   6.607   0.803  1.5902 -2.7597 -1.8852
 8554TIP3    H225624   2.279   6.613   0.775  1.2883  1.1146 -3.2685
 8555TIP3   OH225625   4.597   0.475   5.264 -0.5336 -0.2538 -0.1752
 8555TIP3    H125626   4.502   0.468   5.262 -0.7867  2.2255  0.3882
 8555TIP3    H225627   4.616   0.560   5.224  1.3823 -0.3070  0.5196
 8556TIP3   OH225628   0.089   5.574   1.005  0.0946 -0.6222  0.5947
 8556TIP3    H125629   0.172   5.619   1.016  0.7290 -1.6080  0.0325
 8556TIP3    H225630   0.087   5.550   0.912 -0.7259 -0.7757  0.6426
 8557TIP3   OH225631   6.614   2.638   6.039  0.1178  0.1759 -0.3473
 8557TIP3    H125632   6.542   2.623   5.977  0.3255  1.5727 -0.9498
 8557TIP3    H225633   6.667   2.707   5.999  1.2851 -0.1748  0.5336
 8558TIP3   OH225634   3.900   6.872   0.296 -0.2268  0.3629  0.1883
 8558TIP3    H125635   3.866   6.869   0.385 -0.1741 -0.6618  0.1884
 8558TIP3    H225636   3.842   6.814   0.246 -0.1240  0.7546 -0.4012
 8559TIP3   OH225637   4.756   2.361   3.588  0.2315 -0.2054 -0.1392
 8559TIP3    H125638   4.810   2.348   3.510 -0.0388  1.1407 -0.5663
 8559TIP3    H225639   4.812   2.411   3.647  1.1802 -2.8868  1.3960
 8560TIP3   OH225640   4.177   2.855   3.819 -0.1589  0.6132 -0.5951
 8560TIP3    H125641   4.262   2.841   3.778 -0.0921 -0.0300 -0.2498
 8560TIP3    H225642   4.179   2.946   3.850  0.4611  0.5484 -0.4445
 8561TIP3   OH225643   4.567   4.298   3.010  0.4412  0.6624 -0.7250
 8561TIP3    H125644   4.557   4.209   2.976  1.4613 -1.1795  3.1753
 8561TIP3    H225645   4.493   4.308   3.070  1.0157  1.9319 -0.2007
 8562TIP3   OH225646   6.634   3.065   4.291 -0.2169  0.1764 -0.1574
 8562TIP3    H125647   6.588   3.121   4.229  1.0144  0.3958 -0.9178
 8562TIP3    H225648   6.687   3.126   4.343 -0.4169 -0.1041  0.3753
 8563TIP3   OH225649   7.255   3.049   2.104  0.5286 -0.3141  0.3779
 8563TIP3    H125650   7.177   3.020   2.151  0.3375  1.4998  1.2494
 8563TIP3    H225651   7.326   3.039   2.167  0.2007  2.5689  1.3318
 8564TIP3   OH225652   1.215   1.322   6.050  0.0615 -0.0778  0.0131
 8564TIP3    H125653   1.184   1.351   6.136  0.1894 -0.1397  0.0820
 8564TIP3    H225654   1.183   1.388   5.989  0.4361  0.2719  0.1811
 8565TIP3   OH225655   6.398   2.682   5.873 -0.0357 -0.5775  0.4627
 8565TIP3    H125656   6.435   2.608   5.825  1.9282  1.3407 -1.2407
 8565TIP3    H225657   6.334   2.720   5.813  0.9278  0.6244  0.1519
 8566TIP3   OH225658   2.593   0.583   0.788  0.2627 -0.3812  0.1310
 8566TIP3    H125659   2.532   0.516   0.759 -0.8542  0.4447  0.5031
 8566TIP3    H225660   2.547   0.666   0.774  1.1443  0.2446  0.7697
 8567TIP3   OH225661   4.773   3.703   3.183 -0.1107  0.3723  0.9295
 8567TIP3    H125662   4.700   3.712   3.244 -0.0139 -1.4759  1.3752
 8567TIP3    H225663   4.808   3.792   3.175 -3.0979  1.5514 -0.2545
 8568TIP3   OH225664   0.282   4.592   3.720 -0.4627 -0.4223  0.3182
 8568TIP3    H125665   0.273   4.608   3.814  0.9475 -0.8149  0.5542
 8568TIP3    H225666   0.204   4.544   3.695 -1.5369  0.9126  0.9847
 8569TIP3   OH225667   1.361   0.302   4.975  0.0246  0.0567  0.0753
 8569TIP3    H125668   1.396   0.391   4.980  2.5975 -0.7195 -1.8314
 8569TIP3    H225669   1.422   0.255   4.917 -1.3010 -2.9200  0.8718
 8570TIP3   OH225670   2.917   0.838   1.163 -0.1829 -0.1019  0.0002
 8570TIP3    H125671   2.840   0.873   1.119  0.4077 -0.2939 -1.2420
 8570TIP3    H225672   2.930   0.752   1.124  1.0359  0.1995 -0.3185
 8571TIP3   OH225673   3.153   6.125   4.465  0.2926 -0.2018 -0.0525
 8571TIP3    H125674   3.069   6.125   4.420 -0.3974 -1.7628  1.1148
 8571TIP3    H225675   3.138   6.071   4.543  1.8946  0.9612  1.1383
 8572TIP3   OH225676   5.365   4.121   0.790 -0.1552 -0.1322 -0.1837
 8572TIP3    H125677   5.417   4.146   0.714  0.1228 -0.0666  0.0277
 8572TIP3    H225678   5.414   4.051   0.831 -0.5618 -0.5187 -0.3511
 8573TIP3   OH225679   1.770   2.217   3.924  0.0128 -0.1710 -0.3075
 8573TIP3    H125680   1.799   2.129   3.899  1.2129  0.3963 -0.9827
 8573TIP3    H225681   1.847   2.258   3.962 -0.5273  0.6133 -0.0347
 8574TIP3   OH225682   0.321   1.997   4.431  0.3113 -0.4690 -0.5824
 8574TIP3    H125683   0.413   2.023   4.428  0.5048 -1.2049 -1.9879
 8574TIP3    H225684   0.323   1.908   4.465 -0.0213 -0.0245  0.6516
 8575TIP3   OH225685   4.060   3.846   0.244  0.1913  0.4529  0.0596
 8575TIP3    H125686   4.109   3.764   0.250 -0.8676 -0.1171  2.0208
 8575TIP3    H225687   3.983   3.824   0.192 -0.4358 -0.0223  1.1555
 8576TIP3   OH225688   2.897   5.390   1.890 -0.0509  0.2601 -0.1123
 8576TIP3    H125689   2.826   5.381   1.954 -0.3955  1.7409 -0.2579
 8576TIP3    H225690   2.854   5.388   1.805 -0.1727  2.6983 -0.1807
 8577TIP3   OH225691   1.446   0.521   5.188  0.4094 -0.2365 -0.1932
 8577TIP3    H125692   1.483   0.551   5.272  1.5323  0.6938 -0.9898
 8577TIP3    H225693   1.429   0.428   5.201 -1.4789  0.2941  1.7783
 8578TIP3   OH225694   2.581   0.311   2.097 -0.5213 -0.5932 -0.6429
 8578TIP3    H125695   2.668   0.304   2.057 -0.3972 -0.4197 -0.4127
 8578TIP3    H225696   2.553   0.221   2.111 -0.4481 -0.6508 -0.8715
 8579TIP3   OH225697   7.530   3.018   2.058 -0.3457 -0.0225 -0.4113
 8579TIP3    H125698   7.481   3.073   1.997 -0.0199  0.6962 -0.0388
 8579TIP3    H225699   7.556   2.942   2.006  0.3040  0.7786 -1.2994
 8580TIP3   OH225700   7.012   4.886   5.590  0.1969 -0.3181  0.2679
 8580TIP3    H125701   6.947   4.893   5.660 -1.1312 -1.0160 -0.8571
 8580TIP3    H225702   7.064   4.809   5.614 -0.6800 -0.9520  0.1599
 8581TIP3   OH225703   5.749   4.627   1.934  0.2437  0.3576  0.4135
 8581TIP3    H125704   5.818   4.664   1.878  0.7287  0.1809  0.8880
 8581TIP3    H225705   5.707   4.703   1.973 -0.1850  0.4915 -0.2786
 8582TIP3   OH225706   6.664   2.061   5.000  0.0717  0.2014  0.3996
 8582TIP3    H125707   6.695   2.015   5.079  0.0979  0.0674  0.3121
 8582TIP3    H225708   6.572   2.038   4.993 -0.0732  0.6916  0.7237
 8583TIP3   OH225709   7.340   7.139   1.279 -0.2228  0.1250 -0.5103
 8583TIP3    H125710   7.406   7.096   1.225 -0.5394 -0.2182 -0.6291
 8583TIP3    H225711   7.310   7.070   1.339 -1.9004 -0.3082 -1.7692
 8584TIP3   OH225712   5.108   4.137   1.414 -0.5567  0.3169 -0.0648
 8584TIP3    H125713   5.179   4.074   1.428  0.7393  2.1618  2.4529
 8584TIP3    H225714   5.143   4.221   1.444 -2.3653  2.2496 -2.7917
 8585TIP3   OH225715   6.327   4.646   4.284  0.1942 -0.2819 -0.0018
 8585TIP3    H125716   6.292   4.699   4.356 -0.0931  0.2932 -0.5528
 8585TIP3    H225717   6.254   4.641   4.221  1.1606  1.2063 -1.3213
 8586TIP3   OH225718   2.593   2.837   4.028 -0.1431  0.6030  0.4529
 8586TIP3    H125719   2.513   2.813   3.981  1.5662 -0.7768 -1.9571
 8586TIP3    H225720   2.562   2.875   4.111 -3.2773  1.3651 -0.9368
 8587TIP3   OH225721   0.934   1.241   0.007 -0.4198 -0.3370 -0.4201
 8587TIP3    H125722   0.864   1.307   0.013 -0.3868 -0.4123  1.2766
 8587TIP3    H225723   0.905   1.170   0.064  0.6205 -0.7637 -0.3976
 8588TIP3   OH225724   3.730   0.403   0.232  0.5540  0.2805  0.3453
 8588TIP3    H125725   3.726   0.337   0.163 -0.1285 -0.9590  1.5092
 8588TIP3    H225726   3.707   0.355   0.312 -0.0930  1.9662  1.2217
 8589TIP3   OH225727   4.906   5.040   0.467 -0.3314  0.2786  0.2530
 8589TIP3    H125728   4.919   4.947   0.484  0.5766  0.3853  0.2016
 8589TIP3    H225729   4.815   5.047   0.439 -0.1277 -0.7309 -0.7349
 8590TIP3   OH225730   5.248   3.505   5.524 -0.5921 -0.7754  0.4405
 8590TIP3    H125731   5.296   3.440   5.473 -0.6364 -1.2760  1.0138
 8590TIP3    H225732   5.170   3.524   5.472  0.6735  0.8039 -0.9943
 8591TIP3   OH225733   6.580   4.220   0.962  0.3722 -0.0614 -0.6516
 8591TIP3    H125734   6.647   4.229   0.894  2.2567  1.2499  1.2300
 8591TIP3    H225735   6.624   4.172   1.033 -1.9627 -2.6471 -0.7955
 8592TIP3   OH225736   6.500   3.666   1.134  0.3058  0.2277 -0.1228
 8592TIP3    H125737   6.535   3.748   1.097  0.2586 -0.1527 -1.0450
 8592TIP3    H225738   6.493   3.607   1.058  2.0455 -1.2317  0.7761
 8593TIP3   OH225739   6.884   7.141   2.870 -0.0527 -0.6024  0.3400
 8593TIP3    H125740   6.978   7.159   2.868 -0.2768  0.5658 -0.4385
 8593TIP3    H225741   6.867   7.109   2.959  1.3863 -2.6954 -0.0545
 8594TIP3   OH225742   0.483   1.853   3.532  0.0460  0.0680  0.4299
 8594TIP3    H125743   0.443   1.937   3.554 -2.7700 -1.0793  0.2090
 8594TIP3    H225744   0.466   1.798   3.608 -0.5798 -1.0181 -0.4630
 8595TIP3   OH225745   6.847   2.163   3.755  0.3307  0.1643 -0.0451
 8595TIP3    H125746   6.839   2.076   3.715  1.1183  0.7446 -1.5555
 8595TIP3    H225747   6.900   2.148   3.834  0.8175 -0.6670 -0.5120
 8596TIP3   OH225748   0.074   5.089   1.158 -0.6949 -0.4026  0.1489
 8596TIP3    H125749   0.134   5.153   1.195  0.6604 -0.3739 -1.9161
 8596TIP3    H225750  -0.002   5.140   1.129 -0.7155 -0.1055  0.7125
 8597TIP3   OH225751   7.054   3.630   5.623 -0.2138  0.0689  0.0634
 8597TIP3    H125752   7.095   3.544   5.631 -1.0438 -0.3970 -0.5106
 8597TIP3    H225753   7.115   3.681   5.570  0.9520  0.3026  1.5640
 8598TIP3   OH225754   5.591   3.715   3.612 -0.4777 -0.1061 -0.4074
 8598TIP3    H125755   5.642   3.730   3.691 -1.8044 -1.1921  0.7006
 8598TIP3    H225756   5.656   3.698   3.544  0.8384 -5.4610  1.7199
 8599TIP3   OH225757   2.736   3.125   5.122  0.4213 -0.1798  0.4783
 8599TIP3    H125758   2.774   3.038   5.127  0.9248  0.0473  0.6531
 8599TIP3    H225759   2.811   3.185   5.123  0.0903  0.2494  0.1725
 8600TIP3   OH225760   7.417   1.939   1.378  0.5810  0.0591 -0.1785
 8600TIP3    H125761   7.339   1.988   1.353 -0.4577 -1.3288  0.1947
 8600TIP3    H225762   7.481   1.958   1.309 -0.1766  1.0060 -0.6366
 8601TIP3   OH225763   3.113   0.510   4.345 -0.0551 -0.4597 -0.5622
 8601TIP3    H125764   3.197   0.547   4.371 -0.0482 -0.6386 -0.3309
 8601TIP3    H225765   3.070   0.486   4.427  0.3723 -1.9267 -0.7491
 8602TIP3   OH225766   5.652   5.979   5.095  0.2874  0.6934  0.2148
 8602TIP3    H125767   5.732   5.950   5.140 -0.1406 -1.3086 -0.2147
 8602TIP3    H225768   5.613   5.898   5.062 -1.5977  1.7007 -0.1386
 8603TIP3   OH225769   6.119   4.672   3.109 -0.2604  0.3889  0.5137
 8603TIP3    H125770   6.040   4.719   3.085  0.6888  2.0466  0.4971
 8603TIP3    H225771   6.124   4.600   3.045  0.5520  2.8546 -2.4594
 8604TIP3   OH225772   1.170   6.571   5.194  0.4272  0.2403  0.1342
 8604TIP3    H125773   1.235   6.538   5.256  0.0103  0.8199  0.8938
 8604TIP3    H225774   1.194   6.662   5.179  0.9600 -0.0880 -1.1481
 8605TIP3   OH225775   1.051   3.194   5.378 -0.4299  0.2052  0.4403
 8605TIP3    H125776   1.024   3.284   5.360  0.3785  0.5587  0.9662
 8605TIP3    H225777   1.011   3.143   5.308 -1.1037  0.9378  0.2823
 8606TIP3   OH225778   4.355   6.857   0.983  0.4223  0.2044 -0.4959
 8606TIP3    H125779   4.348   6.941   0.938  1.2443  0.4793 -0.1367
 8606TIP3    H225780   4.269   6.817   0.974 -0.0231  1.1554 -0.5332
 8607TIP3   OH225781   5.026   4.602   3.869  0.3228  0.1281 -0.7303
 8607TIP3    H125782   4.981   4.581   3.951 -0.1474  2.7485 -0.2329
 8607TIP3    H225783   5.105   4.547   3.871 -1.3047 -2.3921 -0.2347
 8608TIP3   OH225784   2.996   6.324   1.406 -0.0823 -0.0928  0.6109
 8608TIP3    H125785   2.968   6.255   1.346  1.1930 -0.4770  0.4295
 8608TIP3    H225786   2.993   6.283   1.492 -1.5276  0.3379  0.7882
 8609TIP3   OH225787   6.307   1.314   4.085 -0.3039 -0.5916 -0.1787
 8609TIP3    H125788   6.351   1.289   4.166 -1.4119 -0.2646  0.5484
 8609TIP3    H225789   6.216   1.330   4.111 -0.4375  0.6144 -1.2693
 8610TIP3   OH225790   3.366   4.417   1.954 -0.7365 -0.1472 -0.2989
 8610TIP3    H125791   3.413   4.425   2.037  0.5949 -1.8602 -0.8373
 8610TIP3    H225792   3.417   4.469   1.892 -0.8414 -0.1526 -0.3899
 8611TIP3   OH225793   5.105   6.514   1.891 -0.4056  0.2331 -0.0411
 8611TIP3    H125794   5.176   6.453   1.912  0.2221  1.0574  0.3015
 8611TIP3    H225795   5.029   6.458   1.878  0.2708 -0.6689 -0.2945
 8612TIP3   OH225796   1.407   5.992   5.752  0.4030  0.4016  0.1198
 8612TIP3    H125797   1.405   5.897   5.742  0.4805  0.6097 -2.3821
 8612TIP3    H225798   1.459   6.007   5.831  1.6135 -1.5904 -0.2356
 8613TIP3   OH225799   5.579   5.645   4.241  0.0211  0.2693 -0.1155
 8613TIP3    H125800   5.530   5.653   4.323 -1.2940 -0.1966 -0.8345
 8613TIP3    H225801   5.642   5.575   4.258 -0.2894  0.1301  0.4724
 8614TIP3   OH225802   5.400   3.750   2.180  0.0528  0.7433  0.2089
 8614TIP3    H125803   5.454   3.812   2.230 -0.2208  1.2906 -0.1615
 8614TIP3    H225804   5.352   3.701   2.247  0.6475  0.5871  0.5231
 8615TIP3   OH225805   4.165   2.652   3.437 -0.1428  0.4156 -0.0120
 8615TIP3    H125806   4.107   2.622   3.507  0.6754 -0.8529  0.1475
 8615TIP3    H225807   4.108   2.704   3.379 -0.9396  1.0499  1.2954
 8616TIP3   OH225808   3.660   0.992   4.587  0.4080  0.3299 -0.0498
 8616TIP3    H125809   3.588   1.024   4.533 -0.1162 -2.4706 -1.1870
 8616TIP3    H225810   3.635   1.015   4.677 -2.6722 -1.6689 -0.2321
 8617TIP3   OH225811   6.347   3.023   4.853  0.0922  0.7621 -0.4534
 8617TIP3    H125812   6.411   3.081   4.896  0.0945 -0.2657  1.0103
 8617TIP3    H225813   6.398   2.977   4.786 -0.0088  2.7124 -1.9631
 8618TIP3   OH225814   4.361   6.825   2.674  0.0181  0.0175  0.6406
 8618TIP3    H125815   4.401   6.899   2.629  0.5639 -0.1018  0.9304
 8618TIP3    H225816   4.282   6.862   2.715 -0.0691  0.2897  0.2332
 8619TIP3   OH225817  -0.009   0.752   2.912  0.0670  0.8438  0.4312
 8619TIP3    H125818   0.052   0.746   2.838 -2.5254  1.8172 -1.9519
 8619TIP3    H225819  -0.033   0.661   2.931  1.6829  0.4952  0.9743
 8620TIP3   OH225820   2.641   2.892   0.481 -0.0446  1.0600 -0.8357
 8620TIP3    H125821   2.578   2.932   0.421 -1.4269  0.0479 -0.1289
 8620TIP3    H225822   2.617   2.928   0.567 -2.1391 -1.9872  0.0374
 8621TIP3   OH225823   3.993   2.298   3.727 -0.5227  0.5119  0.3003
 8621TIP3    H125824   3.942   2.268   3.803 -0.7218 -1.1027 -0.4443
 8621TIP3    H225825   3.974   2.234   3.658  1.0872  0.9096 -0.5594
 8622TIP3   OH225826   3.005   5.074   2.170  0.1697 -0.2151  0.6992
 8622TIP3    H125827   3.060   5.009   2.126  2.6495  1.3119  1.3309
 8622TIP3    H225828   2.999   5.044   2.260 -0.8273 -0.8426  0.4347
 8623TIP3   OH225829   0.465   5.388   5.201  0.1170  0.1313 -0.4736
 8623TIP3    H125830   0.532   5.449   5.235 -0.6828 -0.1515  1.8208
 8623TIP3    H225831   0.411   5.442   5.144  1.4610  0.7022 -1.2607
 8624TIP3   OH225832   2.721   1.357   4.647  0.1074 -0.2109  0.0413
 8624TIP3    H125833   2.664   1.324   4.716  2.1144  0.5101  2.1604
 8624TIP3    H225834   2.779   1.284   4.627 -0.8193 -0.6071 -1.3727
 8625TIP3   OH225835   7.247   6.755   2.069 -0.2969 -0.0319 -0.0663
 8625TIP3    H125836   7.307   6.785   2.137  0.9978  1.0603 -1.6267
 8625TIP3    H225837   7.226   6.665   2.094 -0.1355  0.4352  1.9257
 8626TIP3   OH225838   7.037   2.125   2.472  0.1382  0.1862 -0.0930
 8626TIP3    H125839   6.999   2.051   2.425  0.1093 -0.1714  0.4838
 8626TIP3    H225840   6.966   2.189   2.477 -0.1780 -0.2004  0.3820
 8627TIP3   OH225841   1.847   0.265   5.975  0.1226 -0.3005  0.1409
 8627TIP3    H125842   1.842   0.185   6.027 -0.3685  0.3573  1.1355
 8627TIP3    H225843   1.884   0.330   6.034 -0.2881  0.4251 -0.3783
 8628TIP3   OH225844   0.042   5.727   2.325  0.1920 -0.1422 -0.2599
 8628TIP3    H125845  -0.042   5.731   2.371  0.9130 -0.4220  1.1412
 8628TIP3    H225846   0.024   5.762   2.238 -0.5032  3.7256  1.2636
 8629TIP3   OH225847   6.381   0.905   0.071 -0.2980 -0.1054  0.7501
 8629TIP3    H125848   6.285   0.909   0.071 -0.3258 -0.2469 -0.7881
 8629TIP3    H225849   6.401   0.820   0.111 -0.8667 -0.6637 -0.1305
 8630TIP3   OH225850   2.494   6.853   5.618 -0.1359  0.3149 -0.1566
 8630TIP3    H125851   2.496   6.925   5.681  0.9632 -0.1956  0.4210
 8630TIP3    H225852   2.484   6.775   5.672 -0.6129 -0.0194 -0.7262
 8631TIP3   OH225853   4.886   1.144   5.096 -0.0383  0.0434 -0.2725
 8631TIP3    H125854   4.955   1.108   5.041 -0.1821 -0.1716 -0.3145
 8631TIP3    H225855   4.906   1.238   5.102 -1.2726  0.5258 -2.6000
 8632TIP3   OH225856   5.684   1.390   0.731  0.0799  0.2114  0.2349
 8632TIP3    H125857   5.723   1.421   0.649  1.0253  1.0785  0.9979
 8632TIP3    H225858   5.652   1.469   0.775 -0.6101 -0.2676  0.6177
 8633TIP3   OH225859   4.418   6.647   5.241 -0.0273 -1.1103 -0.1863
 8633TIP3    H125860   4.336   6.696   5.240 -0.4512 -1.6309  2.2386
 8633TIP3    H225861   4.485   6.714   5.255 -0.2818 -0.9092  0.0888
 8634TIP3   OH225862   7.225   6.255   2.906  0.0494  0.3996 -0.4379
 8634TIP3    H125863   7.207   6.336   2.953  2.0673  0.8000 -0.2480
 8634TIP3    H225864   7.241   6.191   2.974 -0.8101  0.0005 -0.5951
 8635TIP3   OH225865   5.336   4.867   0.932  0.7538  0.1124 -0.1361
 8635TIP3    H125866   5.311   4.884   0.842  0.7343  0.6240 -0.0342
 8635TIP3    H225867   5.264   4.815   0.968  1.2898 -1.0804 -0.7420
 8636TIP3   OH225868   2.465   0.266   3.986 -0.1653  0.2457 -0.1862
 8636TIP3    H125869   2.558   0.273   4.006 -0.3602 -0.4241  1.0740
 8636TIP3    H225870   2.422   0.267   4.071 -1.3890  1.3583 -0.7814
 8637TIP3   OH225871   2.294   1.988   1.221 -0.4871 -0.3234 -0.1138
 8637TIP3    H125872   2.209   2.031   1.233 -0.9317 -1.4121  0.8758
 8637TIP3    H225873   2.272   1.898   1.195  0.2554 -1.2010  2.0537
 8638TIP3   OH225874   1.277   3.012   5.446  0.2050  0.3044  0.3647
 8638TIP3    H125875   1.209   3.068   5.409  0.5026  0.4270 -0.0044
 8638TIP3    H225876   1.248   2.995   5.535  0.3379  1.4250  0.6321
 8639TIP3   OH225877   3.678   0.498   3.625  0.9976  0.6093  0.1600
 8639TIP3    H125878   3.736   0.566   3.589  1.5374  0.5296  0.8483
 8639TIP3    H225879   3.619   0.546   3.684  1.0102  0.5628  0.2110
 8640TIP3   OH225880   5.115   1.633   4.180  0.3590 -0.0132 -0.3743
 8640TIP3    H125881   5.181   1.565   4.164  1.0700  0.3005  1.0767
 8640TIP3    H225882   5.106   1.677   4.096 -0.3568 -2.0849 -1.4548
 8641TIP3   OH225883   5.700   3.719   0.498 -0.0697 -0.1622 -0.3508
 8641TIP3    H125884   5.708   3.766   0.581 -0.5108  1.5180 -1.2227
 8641TIP3    H225885   5.607   3.721   0.478 -0.0298 -0.9951 -0.6431
 8642TIP3   OH225886   0.459   4.948   4.781 -0.1588 -0.5815  0.4886
 8642TIP3    H125887   0.476   5.039   4.756  1.1591 -0.4276  1.8692
 8642TIP3    H225888   0.373   4.930   4.743  0.7122  0.3369 -2.1897
 8643TIP3   OH225889   3.275   3.817   0.788  0.8926  0.2997  0.1634
 8643TIP3    H125890   3.307   3.905   0.765  0.3003  0.7299  0.9612
 8643TIP3    H225891   3.243   3.782   0.705 -1.6624  2.0133  0.3138
 8644TIP3   OH225892   3.785   3.306   4.692 -0.0611 -0.0730  0.3108
 8644TIP3    H125893   3.793   3.364   4.767  0.2455  0.0528  0.1793
 8644TIP3    H225894   3.814   3.220   4.725 -1.9530 -0.5235  0.9398
 8645TIP3   OH225895   6.794   2.215   6.190 -0.8200 -0.0636 -0.5327
 8645TIP3    H125896   6.758   2.147   6.133 -2.1858  0.0507  0.1603
 8645TIP3    H225897   6.860   2.169   6.242 -2.0592 -1.0050  0.2571
 8646TIP3   OH225898   0.638   3.739   4.782  0.7106  0.4769 -0.3652
 8646TIP3    H125899   0.720   3.690   4.794  0.6829  0.8069  1.3317
 8646TIP3    H225900   0.575   3.672   4.754  1.2893  0.0246 -0.6344
 8647TIP3   OH225901   7.443   6.684   4.051 -0.2776  0.3093  0.1407
 8647TIP3    H125902   7.446   6.740   3.974  0.8903  0.3609  0.2040
 8647TIP3    H225903   7.406   6.739   4.120  0.5861  0.9276  0.1254
 8648TIP3   OH225904   3.683   3.633   5.929 -0.2108  0.1391 -0.3393
 8648TIP3    H125905   3.715   3.544   5.912 -0.4306  0.2301 -1.3393
 8648TIP3    H225906   3.645   3.629   6.016  1.2990 -0.3055  0.3255
 8649TIP3   OH225907   1.234   4.265   2.115 -0.5833  0.3400 -0.0335
 8649TIP3    H125908   1.162   4.231   2.062  0.7539 -0.2280 -1.5671
 8649TIP3    H225909   1.279   4.327   2.058  1.0059 -0.4152  0.3383
 8650TIP3   OH225910   6.758   2.897   0.912 -0.4831  0.3546 -0.5116
 8650TIP3    H125911   6.775   2.987   0.938  0.0501 -0.5660  2.7649
 8650TIP3    H225912   6.663   2.889   0.910 -0.5819  1.3357 -2.5349
 8651TIP3   OH225913   5.841   6.534   0.491 -0.2724  0.0230 -0.3162
 8651TIP3    H125914   5.771   6.598   0.504  0.9476  1.2817  0.1924
 8651TIP3    H225915   5.921   6.586   0.483  0.7427 -1.4298  0.0276
 8652TIP3   OH225916   0.350   6.234   2.077 -0.5020  0.2972 -0.3228
 8652TIP3    H125917   0.326   6.285   1.999  0.4821  0.5723 -0.4675
 8652TIP3    H225918   0.444   6.252   2.089 -0.6629  0.3540  1.0010
 8653TIP3   OH225919   0.786   5.927   3.319  0.0313  1.0365 -0.3764
 8653TIP3    H125920   0.817   5.935   3.409  0.5669 -0.3051 -0.4096
 8653TIP3    H225921   0.864   5.941   3.265  0.0487  0.3247 -0.5574
 8654TIP3   OH225922   2.317   5.012   0.844 -0.2497  0.0306  0.1375
 8654TIP3    H125923   2.381   4.991   0.912  1.6916  0.0501 -1.5929
 8654TIP3    H225924   2.362   5.075   0.788 -1.7811 -0.0294 -1.2162
 8655TIP3   OH225925   7.185   1.557   0.718  0.6423  0.0721  0.2168
 8655TIP3    H125926   7.253   1.616   0.684  0.0281  1.4748  1.3232
 8655TIP3    H225927   7.218   1.530   0.804  0.4815 -0.4588  0.1130
 8656TIP3   OH225928   1.516   1.290   5.044 -0.3908  0.2690  0.2535
 8656TIP3    H125929   1.421   1.284   5.050 -0.6886  2.6640 -1.1481
 8656TIP3    H225930   1.539   1.364   5.100  0.4824  0.6025 -0.5274
 8657TIP3   OH225931   3.769   3.181   1.671  0.1712 -0.2838 -0.3524
 8657TIP3    H125932   3.783   3.126   1.748 -1.9532  1.4757  1.4298
 8657TIP3    H225933   3.856   3.194   1.634  0.9747 -3.1191  0.2950
 8658TIP3   OH225934   7.399   6.704   0.419 -0.5217  0.1046  0.0131
 8658TIP3    H125935   7.441   6.721   0.504  0.0431 -1.1789  0.0142
 8658TIP3    H225936   7.409   6.609   0.406 -2.4783 -0.0666 -0.5019
 8659TIP3   OH225937   5.937   3.614   5.811  0.1227  0.1843 -0.2726
 8659TIP3    H125938   5.883   3.614   5.732  0.6541  1.4373 -0.6586
 8659TIP3    H225939   6.017   3.568   5.785  0.2417  0.4765 -0.4298
 8660TIP3   OH225940   3.152   2.917   5.496 -0.2500 -0.3087 -0.3397
 8660TIP3    H125941   3.118   2.830   5.518 -2.0637 -0.0756 -1.9066
 8660TIP3    H225942   3.134   2.969   5.574 -0.9488 -0.9034 -0.0836
 8661TIP3   OH225943   4.012   0.449   3.830 -0.3071  0.1595 -0.1622
 8661TIP3    H125944   4.027   0.354   3.839  0.0830  0.1470 -0.9059
 8661TIP3    H225945   3.917   0.458   3.828 -0.3865 -0.5060 -2.7881
 8662TIP3   OH225946   6.104   2.353   1.912 -0.6556 -0.2990 -0.0892
 8662TIP3    H125947   6.078   2.361   2.004 -1.0790 -1.4456 -0.0928
 8662TIP3    H225948   6.022   2.332   1.866 -0.4538  0.2967 -0.7387
 8663TIP3   OH225949   6.105   2.626   1.112  0.1601 -0.1420 -0.1854
 8663TIP3    H125950   6.113   2.611   1.018 -2.5824 -1.4657 -0.2864
 8663TIP3    H225951   6.157   2.556   1.152 -1.3700 -1.6469 -0.7413
 8664TIP3   OH225952   6.260   2.373   5.456  0.5250  0.2102 -0.3225
 8664TIP3    H125953   6.186   2.417   5.496  0.5539  0.0276 -0.0696
 8664TIP3    H225954   6.240   2.372   5.362 -0.4432 -1.0566 -0.1266
 8665TIP3   OH225955   7.062   0.038   1.679 -0.0117  0.0564 -0.5806
 8665TIP3    H125956   7.123   0.016   1.609  0.1862 -1.9428  0.1541
 8665TIP3    H225957   7.116   0.043   1.757 -0.3191  1.7050 -0.4467
 8666TIP3   OH225958   5.431   0.375   0.882 -0.0916 -0.1214 -0.8229
 8666TIP3    H125959   5.465   0.445   0.937 -0.3011 -1.0830  0.5866
 8666TIP3    H225960   5.336   0.387   0.884 -0.1061 -0.2310 -0.8560
 8667TIP3   OH225961   2.519   3.789   4.453  0.2683  0.5795  0.2374
 8667TIP3    H125962   2.554   3.871   4.418 -2.5076  0.6949 -2.6567
 8667TIP3    H225963   2.446   3.816   4.508 -0.3782  0.0654 -0.3639
 8668TIP3   OH225964   3.179   2.765   3.328 -0.2356  0.0110  0.0877
 8668TIP3    H125965   3.243   2.836   3.328  0.2627 -0.4114 -1.4214
 8668TIP3    H225966   3.094   2.808   3.323  0.0996  0.5403 -2.9224
 8669TIP3   OH225967   5.881   5.783   5.828  0.1674  0.5263 -0.0918
 8669TIP3    H125968   5.919   5.800   5.914 -0.0391  1.2356 -0.1323
 8669TIP3    H225969   5.946   5.728   5.784  0.1986  0.0197  0.5696
 8670TIP3   OH225970   6.132   1.331   1.018  0.0489 -0.1422 -0.0517
 8670TIP3    H125971   6.094   1.418   1.005 -0.8848 -0.7603 -1.6910
 8670TIP3    H225972   6.131   1.319   1.113 -1.7786  0.7874  0.0879
 8671TIP3   OH225973   6.780   3.920   5.244  0.3664 -0.2744  0.5981
 8671TIP3    H125974   6.828   3.994   5.206  2.4724 -1.5982  0.5062
 8671TIP3    H225975   6.728   3.886   5.171 -1.7928  1.8819  0.9833
 8672TIP3   OH225976   5.151   1.093   1.173 -0.1190 -0.2495  0.3773
 8672TIP3    H125977   5.093   1.031   1.218  0.7701 -0.9585  0.5586
 8672TIP3    H225978   5.120   1.092   1.083  0.5884 -1.8236  0.1246
 8673TIP3   OH225979   4.993   5.401   3.014 -0.1691 -0.0234 -0.1485
 8673TIP3    H125980   4.928   5.407   3.084  0.4246 -0.4867  0.4615
 8673TIP3    H225981   4.958   5.456   2.944 -0.9161  0.2209  0.3988
 8674TIP3   OH225982   4.870   1.125   4.762  0.0817 -0.3072  0.1526
 8674TIP3    H125983   4.941   1.094   4.817  0.2198  0.3933  0.3766
 8674TIP3    H225984   4.904   1.121   4.673  0.7403  0.8854  0.3299
 8675TIP3   OH225985   1.482   2.916   0.165  0.5070  0.2733  0.5596
 8675TIP3    H125986   1.555   2.934   0.105  1.2994  0.8616  1.6634
 8675TIP3    H225987   1.448   2.832   0.135  0.6460  0.7081 -0.9259
 8676TIP3   OH225988   6.175   6.575   1.801  0.2615 -0.4018 -0.3911
 8676TIP3    H125989   6.207   6.516   1.869  0.4802  0.3834  0.2037
 8676TIP3    H225990   6.083   6.592   1.826  0.1810 -0.5463 -0.5935
 8677TIP3   OH225991   1.943   6.239   2.626  0.0240 -0.6302 -0.2193
 8677TIP3    H125992   1.872   6.298   2.651  0.1616 -0.7497  0.4636
 8677TIP3    H225993   1.951   6.251   2.531 -1.2165 -0.9667 -0.3821
 8678TIP3   OH225994   6.919   3.031   3.579  0.2687 -0.1621  0.4425
 8678TIP3    H125995   6.871   2.950   3.562 -0.0280  0.3628 -1.5089
 8678TIP3    H225996   6.975   3.043   3.502  1.4483  0.7197  1.3835
 8679TIP3   OH225997   0.832   6.561   4.685 -0.5860  0.5472  0.1939
 8679TIP3    H125998   0.757   6.536   4.739  0.5077 -0.3824  1.3637
 8679TIP3    H225999   0.868   6.638   4.729  0.2865 -0.1887  0.8061
 8680TIP3   OH226000   5.693   4.545   5.214  0.3516  0.0212 -0.0815
 8680TIP3    H126001   5.675   4.460   5.173 -0.8204  0.6217 -0.8651
 8680TIP3    H226002   5.744   4.592   5.148  1.6116 -0.2979  0.6294
 8681TIP3   OH226003   1.119   7.124   4.421 -0.1385 -0.2203  0.2144
 8681TIP3    H126004   1.141   7.134   4.514  0.9522 -1.4929  0.1184
 8681TIP3    H226005   1.136   7.210   4.383  0.8868 -0.1021  0.9024
 8682TIP3   OH226006   1.240   2.074   2.875 -0.1982  0.0864  0.1772
 8682TIP3    H126007   1.216   2.072   2.782  1.2013  0.0057 -0.1963
 8682TIP3    H226008   1.196   1.997   2.912 -0.3887 -0.1452 -0.5124
 8683TIP3   OH226009   1.914   6.168   1.811 -0.2577  0.1201  0.6831
 8683TIP3    H126010   1.894   6.088   1.861  2.2033  0.8529  3.0887
 8683TIP3    H226011   1.901   6.142   1.719 -2.5076 -2.0803  1.4956
 8684TIP3   OH226012   5.627   2.750   4.398 -0.3875 -0.2182  0.3822
 8684TIP3    H126013   5.561   2.777   4.334  0.2128 -1.1935 -0.7049
 8684TIP3    H226014   5.600   2.661   4.423  0.4388 -0.5923 -0.0096
 8685TIP3   OH226015   5.708   5.589   1.267  0.3103  0.3351  0.1575
 8685TIP3    H126016   5.691   5.604   1.360 -0.5521  0.3211  0.0123
 8685TIP3    H226017   5.745   5.501   1.263 -0.5963 -0.0694  0.3950
 8686TIP3   OH226018   5.064   1.413   1.595 -0.0247  0.2809 -0.3999
 8686TIP3    H126019   5.154   1.438   1.617  0.2193  0.5408 -1.6212
 8686TIP3    H226020   5.067   1.390   1.502 -0.9970 -0.8249 -0.1822
 8687TIP3   OH226021   3.052   4.313   0.659 -0.0722  0.1783  0.0368
 8687TIP3    H126022   3.125   4.333   0.600  1.1735 -1.9447  0.7530
 8687TIP3    H226023   3.094   4.290   0.742 -1.5979 -0.4009  0.6770
 8688TIP3   OH226024   2.336   2.396   1.306 -0.0548  0.2477  0.1621
 8688TIP3    H126025   2.250   2.438   1.297 -0.7213 -0.9401  0.8442
 8688TIP3    H226026   2.363   2.377   1.216  0.1352  1.8350 -0.1509
 8689TIP3   OH226027   6.711   1.278   5.138 -0.7231  0.0756 -0.3156
 8689TIP3    H126028   6.749   1.207   5.190  0.3278  1.7563  1.3362
 8689TIP3    H226029   6.620   1.284   5.169  0.3475  2.2497  2.9010
 8690TIP3   OH226030   1.657   1.816   1.339 -0.4473  0.0269  0.4832
 8690TIP3    H126031   1.575   1.778   1.369 -0.5130 -1.3541 -1.2793
 8690TIP3    H226032   1.655   1.906   1.371 -2.0916 -0.3336  1.4794
 8691TIP3   OH226033   7.398   0.233   0.058  0.0346  0.1240  0.1999
 8691TIP3    H126034   7.350   0.290   0.119 -0.9082 -0.7104  0.2578
 8691TIP3    H226035   7.330   0.194   0.003  0.5793 -1.4393  0.5797
 8692TIP3   OH226036   6.362   3.587   5.030 -0.3228  0.2247  0.0396
 8692TIP3    H126037   6.372   3.493   5.046 -1.2775  0.1393  0.2452
 8692TIP3    H226038   6.412   3.604   4.951  1.5145 -0.0608  1.0959
 8693TIP3   OH226039   2.758   6.161   3.407  0.0088  0.0209 -0.1392
 8693TIP3    H126040   2.833   6.103   3.397  0.9376  1.2223 -0.3303
 8693TIP3    H226041   2.716   6.132   3.488  0.9931 -0.3085  0.2626
 8694TIP3   OH226042   4.208   5.750   1.962  0.2135  0.7315  0.1927
 8694TIP3    H126043   4.263   5.671   1.958  1.1154  1.0527  3.2534
 8694TIP3    H226044   4.268   5.821   1.939  1.1005  1.0222  3.0020
 8695TIP3   OH226045   6.431   5.290   4.307  0.1692  0.1689  0.2045
 8695TIP3    H126046   6.427   5.379   4.272 -0.3166  0.5174  1.1125
 8695TIP3    H226047   6.403   5.298   4.398  0.4896 -0.8587  0.4148
 8696TIP3   OH226048   6.280   5.739   5.556 -0.1972  0.1883  0.9336
 8696TIP3    H126049   6.193   5.737   5.596 -0.3976 -1.8621  0.5262
 8696TIP3    H226050   6.304   5.646   5.546  1.2863  0.6775 -0.5427
 8697TIP3   OH226051   1.711   3.184   1.867 -0.0089 -0.6934 -0.4428
 8697TIP3    H126052   1.723   3.156   1.776 -0.9260  0.5392 -0.9705
 8697TIP3    H226053   1.645   3.124   1.901 -0.2184 -0.6919 -0.8350
 8698TIP3   OH226054   4.444   2.180   0.768 -0.5249 -0.2406  0.5137
 8698TIP3    H126055   4.375   2.218   0.822 -0.1188 -1.5572  2.0186
 8698TIP3    H226056   4.490   2.120   0.826  0.3853 -1.1849 -1.1160
 8699TIP3   OH226057   1.711   3.066   6.213 -0.6674  0.3088 -0.0421
 8699TIP3    H126058   1.749   3.143   6.171 -0.8605 -0.1665 -1.1326
 8699TIP3    H226059   1.621   3.092   6.233 -0.0677  1.1454  1.7702
 8700TIP3   OH226060   2.704   3.668   4.640 -0.5147  0.0598 -0.1941
 8700TIP3    H126061   2.655   3.721   4.578 -3.3142 -1.5249  0.4850
 8700TIP3    H226062   2.702   3.718   4.722 -2.7450 -0.7483  0.3229
 8701TIP3   OH226063   1.556   2.213   0.632 -0.1572  0.2717  0.1206
 8701TIP3    H126064   1.622   2.235   0.567 -0.3950 -2.2042 -1.0852
 8701TIP3    H226065   1.473   2.244   0.594 -0.1076  0.2553  0.0001
 8702TIP3   OH226066   1.428   2.390   5.498 -0.3430  0.0671  0.0015
 8702TIP3    H126067   1.369   2.316   5.488 -1.2765  0.6249  1.0346
 8702TIP3    H226068   1.437   2.400   5.593  1.1549  0.2132 -0.1351
 8703TIP3   OH226069   0.325   5.720   1.085  0.0680  0.0558  0.0753
 8703TIP3    H126070   0.349   5.654   1.150 -0.8475 -0.2020  0.1580
 8703TIP3    H226071   0.289   5.792   1.136  1.8941  1.0366  0.0628
 8704TIP3   OH226072   6.501   1.144   4.633 -0.1338 -0.3528 -0.0552
 8704TIP3    H126073   6.515   1.230   4.671 -0.0182 -1.0338  1.4928
 8704TIP3    H226074   6.488   1.085   4.707 -0.1403 -1.6965 -1.0615
 8705TIP3   OH226075   4.454   5.816   1.133 -0.4947  0.2162 -0.1692
 8705TIP3    H126076   4.519   5.821   1.063  0.4520  1.8474  0.7534
 8705TIP3    H226077   4.499   5.768   1.203 -0.3859  1.0515  0.3467
 8706TIP3   OH226078   4.581   6.863   5.341 -0.2844  0.6552 -0.3921
 8706TIP3    H126079   4.602   6.906   5.258  0.1079  1.1332 -0.0472
 8706TIP3    H226080   4.666   6.841   5.378 -0.4771 -0.6910 -0.6980
 8707TIP3   OH226081   4.497   3.234   0.791  0.2070  0.5468 -0.0468
 8707TIP3    H126082   4.579   3.243   0.840 -0.7685  0.4782  1.6803
 8707TIP3    H226083   4.440   3.184   0.849 -0.6609 -0.5221 -1.7430
 8708TIP3   OH226084   1.303   1.846   3.474  0.3920  0.7237  0.2957
 8708TIP3    H126085   1.250   1.918   3.440  0.4831 -0.1738 -1.8951
 8708TIP3    H226086   1.271   1.833   3.563 -1.0035  2.1392  0.0490
 8709TIP3   OH226087   2.122   1.028   0.906  0.7116  0.1673 -0.3073
 8709TIP3    H126088   2.058   1.082   0.861  1.0203  1.6973  0.9699
 8709TIP3    H226089   2.070   0.970   0.962  0.4075  0.9370  0.2242
 8710TIP3   OH226090  -0.026   5.471   2.996 -0.2957 -0.7280  0.4200
 8710TIP3    H126091   0.056   5.497   3.038  1.2559  0.7405 -3.0917
 8710TIP3    H226092   0.002   5.417   2.922 -2.1985  1.5798 -2.1753
 8711TIP3   OH226093   4.763   6.052   2.592  0.0322 -0.1176  0.7110
 8711TIP3    H126094   4.765   5.972   2.644  0.4327 -0.6255 -0.0536
 8711TIP3    H226095   4.727   6.025   2.507  0.9488  0.3234  0.1622
 8712TIP3   OH226096   2.058   6.610   3.607  0.3144  0.5111  0.5050
 8712TIP3    H126097   2.100   6.549   3.547 -2.4405  1.6157 -2.8669
 8712TIP3    H226098   1.990   6.559   3.650  0.2265  0.4348  0.2765
 8713TIP3   OH226099   5.264   2.159   1.146  0.5857  0.2796 -0.1112
 8713TIP3    H126100   5.357   2.134   1.150  0.2144 -1.0810  0.6800
 8713TIP3    H226101   5.218   2.077   1.132 -0.4702  1.0595 -1.4010
 8714TIP3   OH226102   3.453   2.289   2.208 -0.8493 -0.9671 -0.4216
 8714TIP3    H126103   3.379   2.303   2.267 -0.4870 -1.3896  0.1412
 8714TIP3    H226104   3.425   2.328   2.125 -0.8615  0.8323  0.3729
 8715TIP3   OH226105   4.821   3.626   2.667 -0.1106 -0.3375 -0.8456
 8715TIP3    H126106   4.788   3.620   2.757  1.0313  0.0547 -0.3871
 8715TIP3    H226107   4.749   3.667   2.618 -0.5610 -0.1127 -0.0145
 8716TIP3   OH226108   6.581   6.730   1.152  0.1597 -0.4069 -0.4584
 8716TIP3    H126109   6.503   6.768   1.193  0.9297  0.0306  0.6443
 8716TIP3    H226110   6.601   6.788   1.079  0.0944  0.1268 -0.0604
 8717TIP3   OH226111   7.594   4.011   1.934  0.7282 -0.5794 -0.5559
 8717TIP3    H126112   7.508   4.001   1.893  0.0632 -3.5295  1.2510
 8717TIP3    H226113   7.577   4.063   2.013  0.9133  0.1061 -0.9590
 8718TIP3   OH226114   6.497   1.894   4.211 -0.2341 -0.6247  0.2775
 8718TIP3    H126115   6.442   1.889   4.134 -0.4524  0.3026  0.3674
 8718TIP3    H226116   6.581   1.856   4.183 -0.1976  0.0255 -0.5143
 8719TIP3   OH226117   0.860   0.279   1.453  0.0325  0.0720 -0.1015
 8719TIP3    H126118   0.888   0.231   1.530 -1.2618  0.8567  0.9010
 8719TIP3    H226119   0.918   0.354   1.448 -0.9638  0.9759  1.1864
 8720TIP3   OH226120   7.149   6.221   4.502 -0.4041  0.2048  0.0415
 8720TIP3    H126121   7.204   6.167   4.445  0.7124  1.8816 -0.5526
 8720TIP3    H226122   7.152   6.178   4.587  1.3738 -0.0664 -0.1326
 8721TIP3   OH226123   3.472   3.828   4.755 -0.3047 -0.8897  0.1015
 8721TIP3    H126124   3.509   3.760   4.812 -1.5124 -0.8879  0.9153
 8721TIP3    H226125   3.378   3.823   4.769 -0.4279  1.0023  0.2401
 8722TIP3   OH226126   1.245   3.160   5.108  0.6398 -0.5045 -0.2499
 8722TIP3    H126127   1.287   3.187   5.190  0.6333  0.0799 -0.4303
 8722TIP3    H226128   1.189   3.234   5.085 -1.2316 -1.6287  0.4650
 8723TIP3   OH226129   4.783   5.483   2.382 -0.1398  0.2217 -0.3295
 8723TIP3    H126130   4.782   5.396   2.423 -3.1212  1.2743  2.2234
 8723TIP3    H226131   4.876   5.505   2.376  0.6537 -2.5099  0.3183
 8724TIP3   OH226132   6.411   6.765   1.846 -0.8173 -0.2571  0.2275
 8724TIP3    H126133   6.396   6.825   1.773 -0.9281  0.9653  1.2200
 8724TIP3    H226134   6.377   6.680   1.815  1.9732 -0.6012 -2.3161
 8725TIP3   OH226135   0.956   1.810   2.545 -0.8716  0.4659 -0.2997
 8725TIP3    H126136   0.866   1.787   2.568 -0.9372  0.7494 -0.2594
 8725TIP3    H226137   1.005   1.797   2.627 -0.5977 -1.0402 -0.6728
 8726TIP3   OH226138   6.536   3.541   1.358 -0.0203  0.1432 -0.3021
 8726TIP3    H126139   6.626   3.561   1.384 -0.0167 -0.5274  0.2172
 8726TIP3    H226140   6.524   3.590   1.276  0.8423  0.1621 -0.4291
 8727TIP3   OH226141   2.490   7.137   2.406 -0.0207 -0.4367 -0.4884
 8727TIP3    H126142   2.501   7.071   2.338 -1.9730  0.0111 -1.3015
 8727TIP3    H226143   2.557   7.116   2.471  0.1725 -2.4715 -1.2793
 8728TIP3   OH226144   7.210   1.503   5.560 -0.3206 -0.0261  0.2283
 8728TIP3    H126145   7.237   1.563   5.491 -0.9240 -1.0784 -0.9766
 8728TIP3    H226146   7.121   1.476   5.536 -0.3630 -0.8013  1.1531
 8729TIP3   OH226147   7.228   5.629   5.660 -0.3130 -0.4373 -0.1711
 8729TIP3    H126148   7.269   5.542   5.662 -0.4925 -0.5166  0.1180
 8729TIP3    H226149   7.248   5.667   5.745  2.0843  0.9097 -1.2234
 8730TIP3   OH226150   0.403   2.784   5.643 -0.5030 -0.0135  0.3520
 8730TIP3    H126151   0.379   2.692   5.639 -0.4382 -0.0129 -2.6718
 8730TIP3    H226152   0.324   2.828   5.674 -0.2309 -1.0927  2.7791
 8731TIP3   OH226153   4.179   1.568   4.940  0.4450  0.0647  0.1879
 8731TIP3    H126154   4.245   1.528   4.884 -0.0862  0.0375 -0.4344
 8731TIP3    H226155   4.100   1.570   4.886  0.3889  1.7214  0.2817
 8732TIP3   OH226156   6.870   4.487   1.486 -0.1503  1.0606  0.3201
 8732TIP3    H126157   6.847   4.447   1.570  0.7217  1.5256  0.7992
 8732TIP3    H226158   6.814   4.443   1.422 -0.9662  0.8351  1.1694
 8733TIP3   OH226159   4.265   1.001   1.278 -0.0456  0.8444  0.6801
 8733TIP3    H126160   4.173   1.017   1.297 -0.5727  0.5545 -1.3762
 8733TIP3    H226161   4.303   1.089   1.271 -0.6635  1.0296 -0.5778
 8734TIP3   OH226162   1.002   4.315   1.911  0.3190  0.3388 -0.0825
 8734TIP3    H126163   0.973   4.405   1.927 -0.2154 -0.0842  1.5300
 8734TIP3    H226164   1.025   4.314   1.818 -0.1535  1.9997 -0.2612
 8735TIP3   OH226165   2.832   4.261   1.417  0.1435 -0.5809  0.1207
 8735TIP3    H126166   2.803   4.325   1.353  0.9052 -1.5150 -1.2089
 8735TIP3    H226167   2.891   4.310   1.475 -1.9072  0.6873  1.2582
 8736TIP3   OH226168   4.338   3.243   0.089 -0.0658 -0.2647  0.5995
 8736TIP3    H126169   4.292   3.170   0.130 -0.9424 -0.1319 -0.1245
 8736TIP3    H226170   4.269   3.295   0.048  0.7014  0.1128 -0.2440
 8737TIP3   OH226171   0.747   3.728   5.496  0.6543  0.0365 -0.4829
 8737TIP3    H126172   0.784   3.641   5.508 -0.2336 -0.3057 -0.1759
 8737TIP3    H226173   0.675   3.733   5.559 -0.1150  0.5138 -1.3658
 8738TIP3   OH226174   6.000   6.555   5.368  0.0785  0.1619  0.0341
 8738TIP3    H126175   5.985   6.481   5.309  0.9103 -0.0754  0.0911
 8738TIP3    H226176   6.095   6.554   5.382  0.2664  1.9150 -0.8288
 8739TIP3   OH226177   1.588   4.940   5.910 -0.5783 -0.0577  0.2820
 8739TIP3    H126178   1.555   4.885   5.840  1.0245  1.0018 -1.3926
 8739TIP3    H226179   1.545   4.907   5.989  0.3763 -3.7573 -0.5676
 8740TIP3   OH226180   6.820   2.019   0.731 -0.4198  0.4917  0.2396
 8740TIP3    H126181   6.779   2.102   0.709  0.6132  0.8656 -0.3335
 8740TIP3    H226182   6.861   2.034   0.816 -1.0023  0.2774  0.5658
 8741TIP3   OH226183   5.398   3.779   5.498 -0.0217 -0.3997 -0.0501
 8741TIP3    H126184   5.389   3.705   5.557  2.4459  0.5387  1.6421
 8741TIP3    H226185   5.487   3.773   5.464  0.5813  2.2049  0.8212
 8742TIP3   OH226186   7.282   5.747   5.916 -0.5997 -0.0761 -0.1020
 8742TIP3    H126187   7.365   5.788   5.891 -2.4762  3.4023 -1.4052
 8742TIP3    H226188   7.253   5.796   5.993 -1.2300 -1.6240  0.6982
 8743TIP3   OH226189   6.050   4.268   2.897 -0.2730  0.2097 -0.7287
 8743TIP3    H126190   5.995   4.235   2.826 -0.0610  0.9605 -1.2609
 8743TIP3    H226191   6.050   4.198   2.962 -0.7082 -0.3775 -1.3412
 8744TIP3   OH226192   2.066   2.837   2.973  0.5197 -0.1723  0.7717
 8744TIP3    H126193   2.079   2.764   2.913 -0.2134 -0.5233  1.0272
 8744TIP3    H226194   2.115   2.812   3.052  2.1480  0.6440  0.0811
 8745TIP3   OH226195   2.126   4.188   5.665  0.0867 -0.0904  0.2949
 8745TIP3    H126196   2.082   4.190   5.580 -0.3719 -0.3226  0.5234
 8745TIP3    H226197   2.151   4.096   5.677  1.5658  0.1966 -0.2920
 8746TIP3   OH226198   2.736   3.742   1.940 -0.4104  0.0575 -0.3347
 8746TIP3    H126199   2.767   3.669   1.993  0.4756 -0.2014 -1.1742
 8746TIP3    H226200   2.815   3.773   1.894 -1.0514  0.5883 -1.1025
 8747TIP3   OH226201   3.229   4.674   0.334 -0.6616 -0.0182  0.3858
 8747TIP3    H126202   3.202   4.720   0.414 -0.6530 -0.3386  0.5751
 8747TIP3    H226203   3.147   4.660   0.286 -0.3974  2.6348 -1.0180
 8748TIP3   OH226204   3.189   2.227   5.574 -0.0735 -0.1918 -0.3442
 8748TIP3    H126205   3.151   2.176   5.645 -0.3042 -0.8754 -0.9529
 8748TIP3    H226206   3.216   2.162   5.509  1.8749  0.2715 -0.0761
 8749TIP3   OH226207   5.069   1.331   3.499 -0.2510  0.0935  0.3985
 8749TIP3    H126208   5.035   1.256   3.548 -0.4509 -0.2851 -0.3036
 8749TIP3    H226209   5.164   1.328   3.512 -0.2094 -0.5603  0.0074
 8750TIP3   OH226210   0.747   3.504   3.429 -0.2777  0.4870 -0.1554
 8750TIP3    H126211   0.825   3.449   3.426 -1.8699 -1.9857  0.0796
 8750TIP3    H226212   0.703   3.478   3.510 -1.1086  2.1982 -0.0062
 8751TIP3   OH226213   3.852   3.913   2.835  0.0669  0.1315 -0.0864
 8751TIP3    H126214   3.858   4.001   2.800 -0.4434  0.3681  0.4023
 8751TIP3    H226215   3.773   3.914   2.889 -0.9912 -1.1166 -1.5143
 8752TIP3   OH226216   5.560   5.623   0.448  0.0559  0.6478  0.7068
 8752TIP3    H126217   5.555   5.595   0.356  0.9612  1.3119  0.4477
 8752TIP3    H226218   5.647   5.595   0.477 -0.8511 -1.0982  1.8963
 8753TIP3   OH226219   4.699   0.133   3.390  0.1542  0.3434 -0.3184
 8753TIP3    H126220   4.652   0.080   3.326  0.6629 -0.4948 -0.0014
 8753TIP3    H226221   4.765   0.075   3.427  0.7712  1.2150 -0.0127
 8754TIP3   OH226222   6.735   3.864   1.566  0.5755  0.0065  0.1067
 8754TIP3    H126223   6.784   3.797   1.613 -1.5943 -2.0197 -0.2719
 8754TIP3    H226224   6.654   3.875   1.617 -0.3524  0.2246 -1.3317
 8755TIP3   OH226225   7.161   5.593   4.647 -0.2025  0.6354  0.1957
 8755TIP3    H126226   7.123   5.582   4.560 -2.2112  0.5351  1.0236
 8755TIP3    H226227   7.224   5.522   4.655 -2.9377 -1.9897  0.2713
 8756TIP3   OH226228   4.887   5.569   3.657  0.1610  0.2339 -0.0072
 8756TIP3    H126229   4.792   5.581   3.658 -0.0367 -0.9590  2.0675
 8756TIP3    H226230   4.901   5.495   3.598  0.1098  1.9732 -2.3180
 8757TIP3   OH226231   0.282   5.747   1.429 -0.5464  0.0845  0.6998
 8757TIP3    H126232   0.298   5.703   1.513  0.5245 -1.1049 -0.0972
 8757TIP3    H226233   0.262   5.676   1.368  1.1557  0.6596 -0.6246
 8758TIP3   OH226234   2.814   1.917   5.657  0.4225  0.2007  0.3007
 8758TIP3    H126235   2.806   1.917   5.752 -0.7748  1.4907  0.2312
 8758TIP3    H226236   2.907   1.934   5.640  0.7959 -0.8133  1.2144
 8759TIP3   OH226237   2.009   5.703   0.017  0.5444 -0.2999 -0.2542
 8759TIP3    H126238   2.003   5.764   0.091  1.2995 -2.3110  1.5608
 8759TIP3    H226239   2.103   5.693   0.001  0.4522 -1.2257 -0.2872
 8760TIP3   OH226240   2.017   5.331   0.859 -0.3572 -0.3363  0.2550
 8760TIP3    H126241   1.987   5.384   0.932 -0.1750 -0.2667  0.2808
 8760TIP3    H226242   1.937   5.308   0.811 -0.5142 -0.6855  0.6753
 8761TIP3   OH226243   7.030   3.519   1.912  0.0485 -0.2771  0.1257
 8761TIP3    H126244   7.066   3.431   1.923  0.9865  0.0198 -0.4321
 8761TIP3    H226245   6.951   3.519   1.966  0.3130 -1.2905  0.5518
 8762TIP3   OH226246   1.792   5.718   2.734  0.2020 -0.1003 -0.3525
 8762TIP3    H126247   1.802   5.813   2.723 -0.8946  0.1098  0.3543
 8762TIP3    H226248   1.749   5.690   2.654 -1.5758  0.3803  0.3884
 8763TIP3   OH226249   4.681   4.452   1.355 -0.2452 -0.2770 -0.1098
 8763TIP3    H126250   4.690   4.383   1.289  1.5161 -0.1261 -0.0983
 8763TIP3    H226251   4.756   4.510   1.338 -0.0118  0.0205  1.7322
 8764TIP3   OH226252   5.621   2.458   1.700 -0.0236  0.3041  0.4085
 8764TIP3    H126253   5.637   2.366   1.720  1.8866  0.2911 -0.8691
 8764TIP3    H226254   5.638   2.466   1.606  2.5405  2.3760  0.9038
 8765TIP3   OH226255   2.653   7.151   5.710 -0.1011 -0.2863  0.0574
 8765TIP3    H126256   2.687   7.073   5.753  0.1481  0.0481  0.4721
 8765TIP3    H226257   2.723   7.215   5.717 -1.2528  0.8667  2.1336
 8766TIP3   OH226258   6.650   7.047   2.160 -0.2727 -0.1567 -0.3251
 8766TIP3    H126259   6.603   7.099   2.225 -0.4934  1.1081 -1.4422
 8766TIP3    H226260   6.732   7.022   2.203 -0.9441 -0.4095  0.8403
 8767TIP3   OH226261   7.364   4.432   5.424  0.2059  0.1900  0.7070
 8767TIP3    H126262   7.348   4.409   5.516 -1.4525 -1.1689  0.1446
 8767TIP3    H226263   7.419   4.361   5.391 -0.6994 -0.3150  0.2308
 8768TIP3   OH226264   3.918   3.656   1.400 -0.2110  0.0037  0.2857
 8768TIP3    H126265   3.875   3.649   1.485  0.7175 -2.1232  0.6311
 8768TIP3    H226266   4.006   3.623   1.414 -0.0049 -0.3033 -1.4697
 8769TIP3   OH226267   3.197   4.880   2.523 -0.8666  0.0231 -0.1866
 8769TIP3    H126268   3.191   4.975   2.533  1.0974  0.2870 -0.8945
 8769TIP3    H226269   3.276   4.856   2.572 -0.0855 -0.8862 -1.8080
 8770TIP3   OH226270   2.299   5.310   4.507  0.0568  0.0623  0.4321
 8770TIP3    H126271   2.237   5.353   4.567 -0.2455 -0.0073  0.1754
 8770TIP3    H226272   2.276   5.218   4.510 -0.0192  0.0685  0.1478
 8771TIP3   OH226273   4.731   6.531   5.681 -0.5368  0.1473 -0.1428
 8771TIP3    H126274   4.665   6.581   5.633 -0.5397 -0.6353 -0.9839
 8771TIP3    H226275   4.718   6.440   5.652 -0.5951 -0.3618  1.4221
 8772TIP3   OH226276   1.747   4.356   1.696  0.1513  0.0843 -0.4818
 8772TIP3    H126277   1.772   4.342   1.787 -0.9527  2.5176  0.2641
 8772TIP3    H226278   1.652   4.362   1.697 -0.0186 -1.4704 -2.0959
 8773TIP3   OH226279   0.926   3.617   0.605  0.7867  0.3154 -0.0482
 8773TIP3    H126280   0.941   3.534   0.651  0.5989 -0.0103 -0.5632
 8773TIP3    H226281   0.962   3.683   0.663  0.9347 -0.1286  0.3751
 8774TIP3   OH226282   6.479   3.276   4.531 -0.2361 -0.4079 -0.6359
 8774TIP3    H126283   6.571   3.259   4.508 -0.7317 -0.8470 -2.3968
 8774TIP3    H226284   6.429   3.249   4.454 -1.9372 -0.9741  0.6088
 8775TIP3   OH226285   2.136   5.512   1.156 -0.1253 -0.1239  0.2172
 8775TIP3    H126286   2.148   5.588   1.212  0.2406 -0.1705  0.2015
 8775TIP3    H226287   2.223   5.491   1.123 -0.4427  0.3377 -0.9486
 8776TIP3   OH226288   3.392   1.267   0.726  0.4790  0.5426  0.2466
 8776TIP3    H126289   3.342   1.277   0.645  0.2578  0.1201  0.3281
 8776TIP3    H226290   3.356   1.333   0.785  0.4353  0.6488  0.1009
 8777TIP3   OH226291   5.260   2.874   1.711  0.1320 -0.3144  0.8864
 8777TIP3    H126292   5.266   2.903   1.802 -1.7933 -0.6308  1.1703
 8777TIP3    H226293   5.167   2.883   1.690  0.0819 -2.7408 -0.2097
 8778TIP3   OH226294   2.272   1.126   5.935  0.6926 -0.5595 -0.1531
 8778TIP3    H126295   2.233   1.185   6.000  0.0982  0.1410 -1.1071
 8778TIP3    H226296   2.347   1.175   5.901  0.5104 -0.5669 -0.5718
 8779TIP3   OH226297   2.916   6.754   2.382  0.4886 -0.0182  0.1878
 8779TIP3    H126298   3.007   6.781   2.377  0.9846 -1.6005  0.1022
 8779TIP3    H226299   2.911   6.675   2.328 -0.8932 -0.0755  0.3539
 8780TIP3   OH226300   2.697   6.656   3.365  0.0190 -0.0726 -0.3053
 8780TIP3    H126301   2.629   6.642   3.431  1.7166 -0.1259  1.5061
 8780TIP3    H226302   2.674   6.740   3.324 -0.3044  0.6772  1.3480
 8781TIP3   OH226303   1.019   1.161   2.584  0.1340 -0.2240  0.3902
 8781TIP3    H126304   0.951   1.216   2.545  1.2231 -1.1864 -3.2676
 8781TIP3    H226305   1.014   1.179   2.678 -3.0157  2.0787 -0.0689
 8782TIP3   OH226306   1.298   4.483   2.933  0.2237  0.2929  0.3089
 8782TIP3    H126307   1.287   4.480   3.028  0.7224  0.3803  0.3720
 8782TIP3    H226308   1.393   4.493   2.920  0.1398  0.4584 -0.1927
 8783TIP3   OH226309   6.708   2.633   2.668  0.2887 -0.3893  0.1166
 8783TIP3    H126310   6.631   2.576   2.658  0.2877 -0.6180  1.2408
 8783TIP3    H226311   6.750   2.601   2.748  0.1796  1.3305  0.8873
 8784TIP3   OH226312   4.978   2.823   2.409 -0.5792  0.1830 -0.3150
 8784TIP3    H126313   4.965   2.917   2.423  3.1145  0.9023 -0.4697
 8784TIP3    H226314   4.991   2.816   2.314 -0.8337 -0.4727 -0.3004
 8785TIP3   OH226315   6.044   3.829   2.189  0.2456  0.0815  0.0939
 8785TIP3    H126316   6.099   3.797   2.117  0.9299 -0.2868  0.7725
 8785TIP3    H226317   6.041   3.756   2.251 -0.9493  0.1176  0.1177
 8786TIP3   OH226318   2.112   0.954   2.148 -0.3094  0.2005 -0.0886
 8786TIP3    H126319   2.141   0.910   2.068 -1.7705 -1.8106  0.3765
 8786TIP3    H226320   2.024   0.919   2.163  0.0874  0.1656  2.6244
 8787TIP3   OH226321   3.501   6.507   2.301  0.2881 -0.3447 -0.2018
 8787TIP3    H126322   3.514   6.567   2.228  1.2188  0.0476  0.2701
 8787TIP3    H226323   3.425   6.454   2.276 -1.0380  1.5071 -0.3038
 8788TIP3   OH226324   0.999   4.584   1.538 -0.2355  0.2127  0.0931
 8788TIP3    H126325   1.070   4.539   1.491 -0.4549  0.2989 -0.3292
 8788TIP3    H226326   0.935   4.605   1.470 -1.4350 -1.3016  0.6906
 8789TIP3   OH226327   7.081   7.119   1.980 -0.2421  0.4331  0.3602
 8789TIP3    H126328   7.052   7.206   2.010  0.3642  2.1208 -3.4046
 8789TIP3    H226329   7.047   7.059   2.046 -2.1305  3.3589  2.2976
 8790TIP3   OH226330   0.361   3.298   0.759 -0.0255 -0.1486 -0.3314
 8790TIP3    H126331   0.418   3.369   0.731 -0.3663 -0.3112 -1.4587
 8790TIP3    H226332   0.331   3.325   0.846  1.8690 -0.1351  0.3513
 8791TIP3   OH226333   1.990   1.375   5.997 -0.6505  0.1774  0.4073
 8791TIP3    H126334   2.063   1.435   5.985 -0.5405 -0.3878 -2.1517
 8791TIP3    H226335   2.024   1.308   6.056  0.5608  0.4692  0.0598
 8792TIP3   OH226336   5.686   0.934   5.940  0.0603  0.2752  0.3979
 8792TIP3    H126337   5.705   0.946   5.847  1.3620 -1.4827  0.3887
 8792TIP3    H226338   5.716   0.846   5.959 -0.3735  0.5320  2.4623
 8793TIP3   OH226339   3.158   5.705   0.968  0.1090 -0.4959 -0.2325
 8793TIP3    H126340   3.077   5.719   1.017 -0.3545 -0.7294 -0.9182
 8793TIP3    H226341   3.222   5.761   1.011 -0.1000 -1.2385  1.1061
 8794TIP3   OH226342   5.076   6.239   1.165 -0.6025  0.2456  0.1155
 8794TIP3    H126343   5.130   6.179   1.113  1.8826  2.3442  0.1213
 8794TIP3    H226344   5.096   6.216   1.256 -0.8243  0.0952  0.1270
 8795TIP3   OH226345   7.525   3.338   4.130  0.0341 -0.1566 -0.9275
 8795TIP3    H126346   7.431   3.354   4.136  0.1845  0.3215  1.2860
 8795TIP3    H226347   7.556   3.399   4.063 -1.0669  0.5917 -0.7793
 8796TIP3   OH226348   5.383   6.735   5.711  0.2897  0.2446  0.8763
 8796TIP3    H126349   5.296   6.709   5.683 -0.5084  1.4923  2.1040
 8796TIP3    H226350   5.429   6.652   5.726 -1.0790 -0.4414  1.4046
 8797TIP3   OH226351   5.197   1.015   5.622  0.2992  0.7060 -0.5470
 8797TIP3    H126352   5.229   1.023   5.711  0.3838 -0.2201 -0.4762
 8797TIP3    H226353   5.276   1.003   5.569  0.1529 -2.2645 -0.2922
 8798TIP3   OH226354   5.908   6.949   0.734  0.1781  0.2885  0.1426
 8798TIP3    H126355   5.876   6.911   0.652  1.1176 -0.1515 -0.0406
 8798TIP3    H226356   5.835   6.943   0.795 -0.4024  0.2449 -0.5494
 8799TIP3   OH226357   2.530   1.876   4.283 -0.1917  0.4619 -0.3085
 8799TIP3    H126358   2.539   1.781   4.271 -2.6056  0.2517 -1.2307
 8799TIP3    H226359   2.487   1.885   4.368 -1.4059  0.5590 -0.8981
 8800TIP3   OH226360   4.029   0.760   1.130  0.0840  0.3521  0.3368
 8800TIP3    H126361   4.001   0.740   1.219  1.9536 -0.3118  0.8208
 8800TIP3    H226362   3.954   0.804   1.091 -1.0250  0.0551  2.0142
 8801TIP3   OH226363   2.348   4.807   3.060 -0.5524  0.5571  0.6900
 8801TIP3    H126364   2.333   4.875   2.994 -0.2971  1.0524  1.1372
 8801TIP3    H226365   2.344   4.853   3.143  1.0269  0.2888  0.9441
 8802TIP3   OH226366   6.293   3.401   5.751 -0.0052 -0.0434 -0.1817
 8802TIP3    H126367   6.208   3.418   5.711  0.0878  1.7043  0.2587
 8802TIP3    H226368   6.313   3.481   5.799  2.8449  0.4770 -1.9593
 8803TIP3   OH226369   2.205   0.201   2.212  0.0329 -0.2962 -0.5579
 8803TIP3    H126370   2.232   0.252   2.288  0.5316 -0.6237 -0.5083
 8803TIP3    H226371   2.157   0.127   2.248  1.0806 -0.9616 -0.4867
 8804TIP3   OH226372   5.619   4.608   2.467  0.5975  0.7320 -0.1174
 8804TIP3    H126373   5.590   4.544   2.531  0.8129 -0.5968 -1.2951
 8804TIP3    H226374   5.651   4.681   2.519 -0.7138  0.3825  1.2497
 8805TIP3   OH226375   5.797   3.123   5.005  0.4120  0.7849  0.8484
 8805TIP3    H126376   5.827   3.213   5.015 -0.1820  1.1631 -0.5499
 8805TIP3    H226377   5.701   3.130   5.003  0.3668  0.5007 -1.9034
 8806TIP3   OH226378   6.976   0.903   3.660  0.1231 -0.5953  0.2946
 8806TIP3    H126379   7.047   0.880   3.720  1.6904 -0.2171 -1.3515
 8806TIP3    H226380   6.916   0.955   3.714  0.1062 -2.4344  2.2040
 8807TIP3   OH226381   1.568   4.848   0.278 -0.1307  0.5242 -0.6036
 8807TIP3    H126382   1.597   4.926   0.325  1.1167 -0.7840  0.9381
 8807TIP3    H226383   1.645   4.821   0.227  0.0022 -0.5306  0.1062
 8808TIP3   OH226384   6.422   4.154   0.244 -0.2606 -0.3867 -0.2490
 8808TIP3    H126385   6.379   4.099   0.310  0.3332 -2.2091 -1.3186
 8808TIP3    H226386   6.473   4.093   0.191  1.1943  1.3338 -0.9328
 8809TIP3   OH226387   1.320   0.115   0.503  0.4651  0.0004  0.3957
 8809TIP3    H126388   1.238   0.157   0.527  0.8585  0.7882  0.3689
 8809TIP3    H226389   1.372   0.184   0.461  1.3895 -0.3286  0.9666
 8810TIP3   OH226390   5.833   0.290   3.651  0.1044  0.0984 -0.4012
 8810TIP3    H126391   5.900   0.352   3.624  1.0193 -0.5044  0.4361
 8810TIP3    H226392   5.866   0.251   3.732 -1.0820 -0.4823 -0.1609
 8811TIP3   OH226393   6.936   1.192   3.793 -0.7131  0.0194 -0.0723
 8811TIP3    H126394   7.014   1.231   3.831  0.5113 -2.2411 -0.0797
 8811TIP3    H226395   6.889   1.154   3.867 -1.1230  0.2357 -0.2175
 8812TIP3   OH226396   0.738   6.817   0.059  0.5128  0.0461  0.1404
 8812TIP3    H126397   0.716   6.900   0.017 -0.4539 -0.5361 -0.5574
 8812TIP3    H226398   0.655   6.783   0.091  0.9470 -0.4888  0.7220
 8813TIP3   OH226399   1.322   4.742   0.296 -0.2589  0.5605  0.0877
 8813TIP3    H126400   1.315   4.702   0.383  2.0271 -0.6843 -0.2199
 8813TIP3    H226401   1.410   4.780   0.295 -0.4782  1.0701 -1.4899
 8814TIP3   OH226402   4.341   0.966   1.697 -0.1788  0.3798 -0.1618
 8814TIP3    H126403   4.340   0.947   1.604 -1.2964  1.5689 -0.4195
 8814TIP3    H226404   4.251   0.988   1.718 -0.1266 -0.7438  1.4086
 8815TIP3   OH226405   7.006   2.033   3.174 -0.3867  0.1066  0.0311
 8815TIP3    H126406   6.931   2.048   3.115 -0.9321 -0.8199  0.4729
 8815TIP3    H226407   6.967   1.998   3.254  0.4976 -0.0328  0.4108
 8816TIP3   OH226408   5.537   3.054   2.129 -0.1759 -0.0600  0.1113
 8816TIP3    H126409   5.564   3.146   2.121  1.3818 -0.5219 -0.3323
 8816TIP3    H226410   5.612   3.004   2.096 -0.6032 -1.5289  1.2520
 8817TIP3   OH226411   6.388   2.764   0.256  0.1556  0.4423  0.2096
 8817TIP3    H126412   6.294   2.778   0.252 -0.2793 -1.9763 -0.0103
 8817TIP3    H226413   6.405   2.697   0.189  1.6573 -0.7113  1.6536
 8818TIP3   OH226414   3.990   1.540   0.938  0.7448  0.4003  0.2820
 8818TIP3    H126415   3.913   1.561   0.885  1.0853  2.4451  0.5362
 8818TIP3    H226416   4.062   1.532   0.875  0.6365  0.0872  0.1957
 8819TIP3   OH226417   1.941   2.289   5.627 -0.1988 -0.3733 -0.4497
 8819TIP3    H126418   1.874   2.357   5.627 -0.3235 -0.4600 -2.1575
 8819TIP3    H226419   1.927   2.241   5.709  0.7584  2.4333  1.4899
 8820TIP3   OH226420   3.822   2.933   4.336 -0.0463 -0.7675 -0.2476
 8820TIP3    H126421   3.760   3.006   4.332 -0.2262 -0.8662  0.5791
 8820TIP3    H226422   3.791   2.872   4.269 -1.1862 -1.0654  0.5195
 8821TIP3   OH226423   0.247   1.567   0.925 -0.6613  0.2465  0.1852
 8821TIP3    H126424   0.239   1.531   1.013 -0.3563 -3.1458 -0.9854
 8821TIP3    H226425   0.165   1.613   0.910 -0.3142  1.7864  2.5089
 8822TIP3   OH226426   1.344   2.064   2.597 -0.4481 -0.1456  0.4837
 8822TIP3    H126427   1.409   1.995   2.605 -0.2219  0.0032 -0.0453
 8822TIP3    H226428   1.332   2.075   2.502 -1.1684 -0.1081  0.5718
 8823TIP3   OH226429   3.989   6.361   4.404  0.6009  0.4948 -0.0396
 8823TIP3    H126430   3.907   6.328   4.367  0.9311 -2.2976  1.4649
 8823TIP3    H226431   3.965   6.388   4.493  1.1266  0.5541  0.0856
 8824TIP3   OH226432   1.926   4.828   3.953 -0.0553  0.4736  0.0089
 8824TIP3    H126433   1.971   4.779   4.022 -1.4515 -0.1957  0.4827
 8824TIP3    H226434   1.967   4.798   3.872  1.5809  1.2417  0.5118
 8825TIP3   OH226435   3.612   1.047   3.073 -0.0037 -0.0911  0.2670
 8825TIP3    H126436   3.629   1.115   3.138 -1.9315  0.5553  0.1324
 8825TIP3    H226437   3.628   0.965   3.120  0.0143  0.3991  1.1374
 8826TIP3   OH226438   3.037   4.778   5.588 -0.0944 -0.0882 -0.3964
 8826TIP3    H126439   3.040   4.756   5.495 -3.2639  1.7133 -1.0740
 8826TIP3    H226440   3.048   4.874   5.590 -1.9252  0.1577  0.8175
 8827TIP3   OH226441   1.180   5.002   1.524 -0.6781 -0.0530  0.0646
 8827TIP3    H126442   1.144   4.925   1.569 -0.0949 -1.1384 -1.2573
 8827TIP3    H226443   1.110   5.029   1.464 -0.3154 -0.5164 -0.5781
 8828TIP3   OH226444   2.331   0.308   4.750  0.3282 -0.0975  0.1658
 8828TIP3    H126445   2.331   0.394   4.708  0.0016  0.4578  1.2762
 8828TIP3    H226446   2.244   0.301   4.790  0.3542 -0.9466  0.0856
 8829TIP3   OH226447   3.700   6.528   5.689  0.5021  0.4889  0.1130
 8829TIP3    H126448   3.704   6.433   5.703 -0.2225  0.3974 -0.2513
 8829TIP3    H226449   3.788   6.551   5.658  0.3660 -0.2381 -0.8524
 8830TIP3   OH226450   1.832   0.749   5.985  0.1107 -0.0169  0.0927
 8830TIP3    H126451   1.796   0.673   5.940 -0.4237  0.3473 -0.1006
 8830TIP3    H226452   1.798   0.742   6.075  0.0783 -0.0213  0.0802
 8831TIP3   OH226453   5.399   1.502   0.421  0.0997  0.1172  0.4399
 8831TIP3    H126454   5.390   1.591   0.387  0.0210 -0.0790 -0.0569
 8831TIP3    H226455   5.399   1.446   0.344 -0.3513 -0.3613  0.7745
 8832TIP3   OH226456   3.626   5.606   3.273  0.3722  0.2686 -0.1994
 8832TIP3    H126457   3.624   5.681   3.213 -1.1164 -0.1935 -0.7631
 8832TIP3    H226458   3.575   5.539   3.229  1.4286 -0.9949  0.4423
 8833TIP3   OH226459   3.332   0.310   5.245 -0.3111 -0.4820 -0.3810
 8833TIP3    H126460   3.240   0.288   5.234 -0.2795 -0.7195 -0.2013
 8833TIP3    H226461   3.356   0.356   5.165 -0.4057 -1.0500 -0.7391
 8834TIP3   OH226462   2.697   5.329   2.587 -0.1172  0.1405  0.3051
 8834TIP3    H126463   2.738   5.415   2.574 -0.9329  0.7497  1.4591
 8834TIP3    H226464   2.607   5.350   2.615 -0.4887 -1.1017  0.0946
 8835TIP3   OH226465   5.653   2.047   1.462  0.6281 -0.9224 -0.8833
 8835TIP3    H126466   5.622   2.046   1.371  0.5628  1.7932 -0.9948
 8835TIP3    H226467   5.743   2.079   1.456  1.3387 -2.6898 -0.1049
 8836TIP3   OH226468   5.252   1.046   6.015 -0.0801  0.2841  0.2587
 8836TIP3    H126469   5.240   1.025   5.922 -1.1577  3.6564 -0.5089
 8836TIP3    H226470   5.315   1.118   6.015 -1.8577  1.9349  1.8883
 8837TIP3   OH226471   2.356   2.859   1.396 -0.2905  0.0060 -0.1055
 8837TIP3    H126472   2.275   2.911   1.397  0.5755  1.4113 -0.8359
 8837TIP3    H226473   2.362   2.827   1.306  0.8110  1.3311 -0.5397
 8838TIP3   OH226474   2.713   7.079   0.921 -0.0267  0.1555  0.2740
 8838TIP3    H126475   2.655   7.154   0.936 -1.2928 -1.0211  1.5424
 8838TIP3    H226476   2.699   7.056   0.829 -0.6972  0.6168  0.2535
 8839TIP3   OH226477   4.932   0.104   4.438  0.0694  0.4835  0.2524
 8839TIP3    H126478   4.904   0.190   4.468  1.0582  1.1299 -0.5701
 8839TIP3    H226479   4.997   0.076   4.502 -0.6469  0.0887  0.8193
 8840TIP3   OH226480   1.062   4.704   4.234  0.2052 -0.1101  0.2008
 8840TIP3    H126481   0.996   4.724   4.300 -2.3014  0.7615 -2.3775
 8840TIP3    H226482   1.053   4.610   4.219 -1.2219  0.1565 -0.8144
 8841TIP3   OH226483   0.091   2.998   2.933  0.1561 -0.0972  0.2716
 8841TIP3    H126484   0.130   2.992   2.846 -0.4295 -1.2275  0.0633
 8841TIP3    H226485   0.157   3.042   2.986  1.5608 -1.5497 -0.1780
 8842TIP3   OH226486   0.846   4.254   2.652 -0.4708  0.1191 -0.2629
 8842TIP3    H126487   0.756   4.268   2.623  0.1993  2.1042 -1.5444
 8842TIP3    H226488   0.859   4.315   2.724 -0.1121 -0.0611 -0.1700
 8843TIP3   OH226489   5.951   0.842   4.441 -0.4343 -0.1159 -0.2659
 8843TIP3    H126490   5.870   0.892   4.428 -0.6486  0.0043  1.3685
 8843TIP3    H226491   5.937   0.794   4.523 -0.7342 -3.8899 -2.2937
 8844TIP3   OH226492   6.383   2.257   0.405  0.5992 -0.3996 -0.6191
 8844TIP3    H126493   6.467   2.259   0.359  0.4650 -0.1877 -0.8629
 8844TIP3    H226494   6.337   2.181   0.368  0.2051  0.1815 -1.3693
 8845TIP3   OH226495   3.201   0.654   4.631  0.1799  0.8790  0.3855
 8845TIP3    H126496   3.115   0.636   4.667  0.6293 -0.2261  0.9379
 8845TIP3    H226497   3.220   0.744   4.658 -0.2966  0.7209  1.2726
 8846TIP3   OH226498   6.266   1.722   4.797  0.5166  0.4309 -0.0796
 8846TIP3    H126499   6.361   1.717   4.804  0.5391 -0.1932 -0.6050
 8846TIP3    H226500   6.243   1.650   4.737 -0.2600  0.7182 -0.1457
 8847TIP3   OH226501   5.389   1.595   4.880  0.0625 -0.0375  0.0428
 8847TIP3    H126502   5.449   1.522   4.862 -0.0048 -0.0160 -0.2770
 8847TIP3    H226503   5.447   1.670   4.895  0.1193 -0.0477 -0.1252
 8848TIP3   OH226504   0.076   4.798   0.724 -0.5301  0.1565 -0.5563
 8848TIP3    H126505   0.053   4.889   0.744 -0.6589  0.5547 -2.3324
 8848TIP3    H226506  -0.007   4.758   0.698 -0.6241 -0.7294  1.0207
 8849TIP3   OH226507   7.463   6.552   3.702 -0.0774 -0.2113 -0.2557
 8849TIP3    H126508   7.438   6.574   3.792  0.2757 -0.8906  0.0184
 8849TIP3    H226509   7.545   6.600   3.688  0.1448 -0.5156 -0.0238
 8850TIP3   OH226510   6.859   6.757   0.581 -0.2639  0.6939 -0.1156
 8850TIP3    H126511   6.952   6.774   0.592  0.0892 -0.3233 -1.3055
 8850TIP3    H226512   6.818   6.791   0.661  0.9508  2.3477 -0.1569
 8851TIP3   OH226513   2.728   0.342   4.047 -0.9427  0.8740  0.2962
 8851TIP3    H126514   2.752   0.434   4.052  0.1598  0.5606  1.4838
 8851TIP3    H226515   2.754   0.306   4.133  1.4463 -1.1677 -1.1368
 8852TIP3   OH226516   3.383   1.269   0.281  0.3713 -0.3091 -0.2923
 8852TIP3    H126517   3.466   1.220   0.277 -0.2044 -1.2772 -0.6757
 8852TIP3    H226518   3.395   1.340   0.217  0.9437 -0.3625 -0.2559
 8853TIP3   OH226519   3.925   1.677   1.780  0.4136  0.1427  0.0094
 8853TIP3    H126520   4.020   1.684   1.770  1.0528 -2.3031  2.8759
 8853TIP3    H226521   3.890   1.752   1.732  3.7523  1.0471 -1.2827
 8854TIP3   OH226522   3.149   1.805   4.899  0.2648  0.4116  0.2673
 8854TIP3    H126523   3.232   1.845   4.925  0.5873 -0.2738  0.3001
 8854TIP3    H226524   3.089   1.826   4.971  0.9211 -0.7133  1.1746
 8855TIP3   OH226525   2.602   0.996   2.609  0.6532  0.0826 -0.0498
 8855TIP3    H126526   2.655   1.033   2.679 -0.9989  1.1674  0.6702
 8855TIP3    H226527   2.553   0.925   2.650  0.6659 -0.1520 -0.4305
 8856TIP3   OH226528   6.740   3.092   3.204  0.4408 -0.4689  0.2188
 8856TIP3    H126529   6.833   3.099   3.183  0.0184  0.4658 -1.4550
 8856TIP3    H226530   6.731   3.139   3.287  1.7103 -2.0253  1.3097
 8857TIP3   OH226531   6.638   4.866   3.615  0.7462  0.1612 -0.4027
 8857TIP3    H126532   6.681   4.948   3.641  0.3784  0.8506 -1.8549
 8857TIP3    H226533   6.554   4.894   3.578 -0.4414 -1.0618  1.1967
 8858TIP3   OH226534   6.484   6.423   5.401 -0.4331 -0.2615  0.0663
 8858TIP3    H126535   6.398   6.399   5.367  0.2193  1.1331 -2.8912
 8858TIP3    H226536   6.511   6.347   5.453 -2.0621 -2.1055 -1.6015
 8859TIP3   OH226537   6.660   3.747   3.228  0.0074  0.3349 -0.2602
 8859TIP3    H126538   6.567   3.733   3.213 -0.3150  1.1770  0.8413
 8859TIP3    H226539   6.690   3.667   3.271  0.4959 -1.2182 -3.1835
 8860TIP3   OH226540   1.943   1.245   4.996  0.0123 -0.0145  0.0097
 8860TIP3    H126541   1.883   1.188   5.043 -1.6659  1.4752 -0.2269
 8860TIP3    H226542   1.932   1.331   5.037  0.8586  0.6269 -1.0382
 8861TIP3   OH226543   2.119   1.610   2.699  0.3546  0.5534  0.2089
 8861TIP3    H126544   2.149   1.619   2.608  0.1522 -0.2084  0.0603
 8861TIP3    H226545   2.172   1.672   2.748 -0.4249  1.9722 -0.6283
 8862TIP3   OH226546   4.328   6.385   2.335  0.0180  0.0602  0.4452
 8862TIP3    H126547   4.375   6.457   2.292  0.1086  0.3288  0.9885
 8862TIP3    H226548   4.236   6.413   2.333 -0.0379 -0.1461  0.0057
 8863TIP3   OH226549   0.561   3.453   1.229  0.3421 -0.4329 -0.5040
 8863TIP3    H126550   0.487   3.482   1.283 -0.0354 -0.4225 -1.0101
 8863TIP3    H226551   0.554   3.357   1.229  1.1074 -0.4966  0.5082
 8864TIP3   OH226552   2.983   6.088   2.697 -0.5687  1.3924 -0.2638
 8864TIP3    H126553   2.888   6.072   2.690 -0.1567 -1.5425 -0.7218
 8864TIP3    H226554   2.994   6.136   2.778 -2.3113 -0.5455  1.2400
 8865TIP3   OH226555   7.318   0.589   2.249  0.0000 -0.0181 -0.4891
 8865TIP3    H126556   7.361   0.616   2.168  0.1416 -1.6349 -0.9995
 8865TIP3    H226557   7.243   0.646   2.257  1.7096  2.3169 -0.0286
 8866TIP3   OH226558   5.942   3.209   0.531  0.5298 -0.1148  0.3655
 8866TIP3    H126559   5.874   3.275   0.517  0.8475  0.2920  0.7183
 8866TIP3    H226560   5.897   3.138   0.578  0.1673 -0.1879 -0.0863
 8867TIP3   OH226561   2.317   6.862   0.471 -0.1892  0.4071  0.7628
 8867TIP3    H126562   2.310   6.935   0.533 -0.5581  0.7283  0.3575
 8867TIP3    H226563   2.403   6.824   0.488 -0.3008  0.4585  1.5002
 8868TIP3   OH226564   6.985   6.744   4.425  0.3819 -0.2309 -0.4076
 8868TIP3    H126565   6.915   6.689   4.462  0.5622 -0.5549 -0.5484
 8868TIP3    H226566   6.992   6.817   4.487  0.3755 -0.5421 -0.0361
 8869TIP3   OH226567   5.791   6.825   0.267  0.1874 -0.3188  0.0851
 8869TIP3    H126568   5.879   6.791   0.256  1.0210  1.2337  1.5358
 8869TIP3    H226569   5.803   6.915   0.300 -1.9114  0.6001 -1.4231
 8870TIP3   OH226570   5.724   5.676   6.156 -0.6851  0.2639  0.1951
 8870TIP3    H126571   5.745   5.754   6.104 -1.2021 -0.7370 -1.6155
 8870TIP3    H226572   5.629   5.668   6.149 -0.5072 -1.3994 -1.0499
 8871TIP3   OH226573   0.329   4.194   4.483  0.7372  0.2538 -0.3035
 8871TIP3    H126574   0.353   4.102   4.483 -1.6529 -0.4470  1.0416
 8871TIP3    H226575   0.235   4.195   4.467  0.6715  2.4511 -0.1056
 8872TIP3   OH226576   7.529   0.910   2.674  0.4762 -0.3396 -0.1639
 8872TIP3    H126577   7.496   0.995   2.647  0.5990 -0.3688 -0.4052
 8872TIP3    H226578   7.507   0.905   2.767  0.3742 -0.0902 -0.1725
 8873TIP3   OH226579   1.869   1.531   0.024  0.2366 -1.1503 -0.3169
 8873TIP3    H126580   1.960   1.560   0.024  0.0688 -0.6233 -0.6204
 8873TIP3    H226581   1.870   1.447  -0.022  0.2112  0.0072 -2.5573
 8874TIP3   OH226582   6.032   4.511   0.111  0.1143  0.2599 -0.5087
 8874TIP3    H126583   6.072   4.532   0.195  0.3355  1.6403 -0.9410
 8874TIP3    H226584   6.103   4.521   0.047 -0.4295  0.7605 -1.0448
 8875TIP3   OH226585   4.269   5.782   0.799 -0.3631  0.4092 -0.4926
 8875TIP3    H126586   4.314   5.702   0.772  0.6551  1.6622 -2.7798
 8875TIP3    H226587   4.336   5.832   0.846 -1.1595 -0.2638  1.4524
 8876TIP3   OH226588   6.575   1.989   3.852 -0.2329 -0.4351  0.2277
 8876TIP3    H126589   6.653   1.977   3.906 -0.7914 -2.0125  0.7580
 8876TIP3    H226590   6.543   2.076   3.874  0.9413 -0.0795  0.5779
 8877TIP3   OH226591   1.658   6.010   3.231 -0.2093  0.0643  0.2717
 8877TIP3    H126592   1.739   6.033   3.275  1.0376 -0.2922 -1.7161
 8877TIP3    H226593   1.655   5.914   3.234 -0.9303  0.1001  0.9412
 8878TIP3   OH226594   2.192   4.405   3.684  0.3579 -0.2397 -0.2148
 8878TIP3    H126595   2.205   4.314   3.712  0.1346 -0.2416 -0.1186
 8878TIP3    H226596   2.253   4.455   3.739 -1.2481 -0.0451  1.4969
 8879TIP3   OH226597   2.894   2.084   3.807 -0.6104  0.5213  0.2141
 8879TIP3    H126598   2.877   1.995   3.775  1.6738  0.2029 -0.3045
 8879TIP3    H226599   2.842   2.140   3.750  0.2966 -0.3253 -1.5433
 8880TIP3   OH226600   5.163   4.614   0.699  0.4338 -0.2385 -0.4291
 8880TIP3    H126601   5.109   4.693   0.692  0.0295 -0.6023 -1.5465
 8880TIP3    H226602   5.208   4.609   0.615  1.6824 -0.3364  0.2211
 8881TIP3   OH226603   6.883   4.123   0.110 -0.2675 -0.5692 -0.1072
 8881TIP3    H126604   6.852   4.206   0.147 -1.4853 -1.0723  0.0613
 8881TIP3    H226605   6.823   4.106   0.037 -1.0821 -2.0859  0.8675
 8882TIP3   OH226606   6.060   4.419   1.063 -0.4895 -0.3769 -0.2652
 8882TIP3    H126607   6.030   4.407   0.973 -2.5611 -0.0929  0.3207
 8882TIP3    H226608   6.154   4.403   1.060 -0.7961 -2.2061 -2.1384
 8883TIP3   OH226609   2.123   7.058   0.131 -0.1312 -1.0007  0.3689
 8883TIP3    H126610   2.140   7.025   0.043  2.0233 -0.1605  0.4240
 8883TIP3    H226611   2.073   7.139   0.116  1.4785 -0.0646 -0.2152
 8884TIP3   OH226612   5.154   4.126   5.351 -0.7542  0.0932 -0.7261
 8884TIP3    H126613   5.061   4.133   5.331 -1.1553 -1.1684  0.5681
 8884TIP3    H226614   5.162   4.159   5.441  0.4400  2.3340 -1.5691
 8885TIP3   OH226615   7.379   1.449   2.677 -0.2260  0.4684 -0.3058
 8885TIP3    H126616   7.399   1.463   2.769 -1.8487 -0.6763  0.2747
 8885TIP3    H226617   7.455   1.402   2.643  0.6422  1.4054  0.2834
 8886TIP3   OH226618   0.126   4.353   4.187  0.2979  0.3375  0.2667
 8886TIP3    H126619   0.062   4.416   4.154  0.0351  0.5210  1.0977
 8886TIP3    H226620   0.153   4.389   4.271 -0.7237 -1.2084  1.3185
 8887TIP3   OH226621   0.753   5.143   1.542 -0.2644  0.0670 -0.0947
 8887TIP3    H126622   0.722   5.066   1.591  1.0870  0.0485  0.7712
 8887TIP3    H226623   0.752   5.214   1.606 -1.0752  0.6863 -0.7795
 8888TIP3   OH226624   4.305   6.270   5.517 -0.5821  0.0878  0.1387
 8888TIP3    H126625   4.349   6.322   5.583 -1.8486  1.8163 -0.3157
 8888TIP3    H226626   4.262   6.200   5.565 -0.1769  0.3881  0.9469
 8889TIP3   OH226627   6.643   4.527   4.625 -0.1519  0.4110 -0.6529
 8889TIP3    H126628   6.730   4.494   4.603 -0.3230 -0.6973  0.2642
 8889TIP3    H226629   6.620   4.585   4.552  1.0321  0.1242 -1.2730
 8890TIP3   OH226630   6.633   6.877   1.933  0.0071  0.2705 -0.0479
 8890TIP3    H126631   6.610   6.948   1.992  0.3864 -0.6241  1.2221
 8890TIP3    H226632   6.554   6.824   1.926  0.2648 -0.2072  0.5338
 8891TIP3   OH226633   5.477   6.835   1.786 -0.0644 -0.4429 -0.7856
 8891TIP3    H126634   5.551   6.896   1.791 -0.9580  0.6540 -0.3027
 8891TIP3    H226635   5.402   6.887   1.816 -1.0110 -1.5536 -1.1659
 8892TIP3   OH226636   7.222   4.707   4.382 -0.1132  0.1320 -0.0125
 8892TIP3    H126637   7.224   4.750   4.467 -2.2808 -1.1757  0.7798
 8892TIP3    H226638   7.314   4.689   4.362  0.5804  2.0679  1.1644
 8893TIP3   OH226639   3.127   0.799   5.521  0.1064 -0.3386 -0.2665
 8893TIP3    H126640   3.178   0.723   5.548 -1.1243 -0.7762  0.9426
 8893TIP3    H226641   3.052   0.762   5.474 -0.5505  0.1067  0.4115
 8894TIP3   OH226642   4.862   4.966   3.235  0.5140 -0.4432 -0.6098
 8894TIP3    H126643   4.787   5.000   3.283  1.7307  1.8734 -0.2004
 8894TIP3    H226644   4.885   4.885   3.281 -2.6014 -2.1163 -1.7181
 8895TIP3   OH226645   5.878   6.741   4.409 -0.9422 -0.5198  0.4237
 8895TIP3    H126646   5.919   6.707   4.329 -2.8357 -0.5705 -0.5918
 8895TIP3    H226647   5.928   6.701   4.480  0.5393 -0.8067 -0.7220
 8896TIP3   OH226648   4.564   7.140   3.383 -0.6251  0.0354  0.3027
 8896TIP3    H126649   4.645   7.102   3.416 -0.9935 -0.3225  0.8212
 8896TIP3    H226650   4.575   7.143   3.288  0.2642  0.6344  0.4231
 8897TIP3   OH226651   0.820   0.649   1.986  0.4241 -0.1894  0.2009
 8897TIP3    H126652   0.871   0.569   1.974 -0.2185 -0.7063  0.8239
 8897TIP3    H226653   0.854   0.686   2.067  1.3392  0.6692 -0.5397
 8898TIP3   OH226654   5.392   5.624   1.400 -0.1134 -0.0539 -0.2258
 8898TIP3    H126655   5.326   5.683   1.436 -0.9450 -1.1709  0.1318
 8898TIP3    H226656   5.429   5.581   1.476  2.4136  1.8716 -0.2216
 8899TIP3   OH226657   2.850   0.074   5.461 -0.2454  0.6927  0.1293
 8899TIP3    H126658   2.766   0.120   5.450 -0.7446 -0.1930  0.1095
 8899TIP3    H226659   2.901   0.131   5.518 -1.4682  0.5227  1.4663
 8900TIP3   OH226660   3.452   3.725   2.681  0.3839 -0.0150 -0.1980
 8900TIP3    H126661   3.426   3.809   2.645  3.4827  1.0777 -0.1657
 8900TIP3    H226662   3.399   3.715   2.760  0.5938  2.3878  0.3208
 8901TIP3   OH226663   0.257   2.572   5.422  0.0523  0.3229  0.3214
 8901TIP3    H126664   0.330   2.566   5.360 -0.3287  0.7285 -0.1851
 8901TIP3    H226665   0.293   2.546   5.506  0.2367 -1.6911 -0.3338
 8902TIP3   OH226666   3.225   0.822   1.954 -0.5003  0.4335 -0.0629
 8902TIP3    H126667   3.267   0.797   1.871  1.1053  2.7046 -0.0063
 8902TIP3    H226668   3.191   0.910   1.938 -1.7707  0.1947  1.1602
 8903TIP3   OH226669   4.684   5.328   5.643  0.1684 -0.2885  0.0221
 8903TIP3    H126670   4.691   5.276   5.563 -0.5586  0.2841 -0.4348
 8903TIP3    H226671   4.676   5.264   5.713 -0.0999 -0.7975 -0.4619
 8904TIP3   OH226672   1.616   1.807   5.541  0.4413 -0.0631 -0.5555
 8904TIP3    H126673   1.541   1.749   5.556  2.5931 -2.4232  2.5720
 8904TIP3    H226674   1.621   1.816   5.446 -2.9205 -0.9011 -0.9450
 8905TIP3   OH226675   3.920   4.210   5.217 -0.4067  0.3550 -0.3731
 8905TIP3    H126676   3.964   4.265   5.153  0.6121  0.3199  0.2730
 8905TIP3    H226677   3.881   4.273   5.279 -1.1411  0.3830 -0.8591
 8906TIP3   OH226678   3.481   2.236   5.356 -0.6030 -0.1793  0.5802
 8906TIP3    H126679   3.443   2.160   5.399 -2.5329 -0.3079 -1.2216
 8906TIP3    H226680   3.406   2.283   5.319  0.8045  0.7301 -1.3068
 8907TIP3   OH226681   4.451   3.968   4.297 -0.6225  0.5549  0.4360
 8907TIP3    H126682   4.378   4.013   4.254 -1.8305 -1.3940  0.3541
 8907TIP3    H226683   4.526   3.985   4.239 -1.8730 -0.6688 -1.6885
 8908TIP3   OH226684   2.216   5.465   5.580 -0.0333  0.1635  0.3422
 8908TIP3    H126685   2.148   5.397   5.580 -0.6831  0.7487  1.6850
 8908TIP3    H226686   2.169   5.544   5.609  0.1348  1.8499 -3.3962
 8909TIP3   OH226687   2.787   0.813   5.661  0.0540  0.4361 -0.4060
 8909TIP3    H126688   2.870   0.788   5.701  0.0708  1.5622  0.2947
 8909TIP3    H226689   2.753   0.731   5.622  0.4241 -0.5038  1.1761
 8910TIP3   OH226690   7.313   5.781   4.828 -0.3204 -0.3456 -0.0716
 8910TIP3    H126691   7.259   5.725   4.772  0.4856 -1.0918 -0.1156
 8910TIP3    H226692   7.403   5.759   4.804  0.0862  2.6003 -1.7517
 8911TIP3   OH226693   1.119   0.632   3.307 -0.0157  0.4924  0.9175
 8911TIP3    H126694   1.035   0.667   3.337 -0.3025 -1.2324  2.2910
 8911TIP3    H226695   1.183   0.663   3.371 -0.3246 -1.6007  2.3457
 8912TIP3   OH226696   3.772   1.956   5.147  0.2014  0.4240  0.1894
 8912TIP3    H126697   3.753   1.882   5.090 -2.1507  0.0798  1.2993
 8912TIP3    H226698   3.729   2.031   5.104 -0.1869  0.4810  0.6652
 8913TIP3   OH226699   4.547   0.183   0.233  0.3531 -0.3739  0.0030
 8913TIP3    H126700   4.468   0.233   0.253  0.5662  0.0360 -0.1657
 8913TIP3    H226701   4.619   0.237   0.265  0.6106 -0.3709 -0.5650
 8914TIP3   OH226702   6.039   1.551   2.018 -0.4414  0.0307  0.4403
 8914TIP3    H126703   5.995   1.551   1.933 -1.0020 -0.1877  0.7273
 8914TIP3    H226704   5.990   1.488   2.071  0.8185 -0.9462  0.4684
 8915TIP3   OH226705   3.815   1.363   2.066 -0.0590  0.2700  0.4702
 8915TIP3    H126706   3.849   1.437   2.116 -1.1121  0.7541  0.4780
 8915TIP3    H226707   3.889   1.336   2.011 -0.2690  2.7246 -1.1711
 8916TIP3   OH226708   5.695   4.330   3.428 -0.1436  0.4020  0.1369
 8916TIP3    H126709   5.775   4.378   3.406 -0.3924  0.1958 -1.2722
 8916TIP3    H226710   5.661   4.375   3.506  0.8405  1.0669  0.2020
 8917TIP3   OH226711   3.802   0.874   3.207  0.6632 -0.0021  0.1016
 8917TIP3    H126712   3.793   0.811   3.135 -0.5073  0.3533 -0.0793
 8917TIP3    H226713   3.868   0.937   3.176 -0.2450  0.4716 -0.9170
 8918TIP3   OH226714   6.159   5.660   3.976  0.0608  0.1873 -0.2262
 8918TIP3    H126715   6.134   5.738   3.926  1.9941  0.9832 -0.0322
 8918TIP3    H226716   6.135   5.682   4.067  0.4424  0.5083 -0.1983
 8919TIP3   OH226717   0.652   5.280   5.647 -0.1448 -0.3923 -0.2508
 8919TIP3    H126718   0.563   5.249   5.664 -0.7635  0.2689 -2.0344
 8919TIP3    H226719   0.694   5.281   5.733 -0.7862 -3.8180  0.2388
 8920TIP3   OH226720   0.546   5.894   5.731  0.1089 -0.2057 -0.5701
 8920TIP3    H126721   0.611   5.854   5.675 -0.7899 -1.7588 -0.5479
 8920TIP3    H226722   0.524   5.827   5.795 -1.1958  0.4211 -0.3154
 8921TIP3   OH226723   6.143   1.306   2.759  0.2201 -0.0411  0.5947
 8921TIP3    H126724   6.231   1.344   2.756  0.0955  0.3051 -2.2225
 8921TIP3    H226725   6.092   1.369   2.811  1.3577  0.3950  1.2243
 8922TIP3   OH226726   5.536   4.134   0.537  0.0242  0.3569  0.3741
 8922TIP3    H126727   5.611   4.081   0.511 -0.3435 -0.3926  0.7793
 8922TIP3    H226728   5.527   4.200   0.468 -0.9143 -1.5574 -1.4639
 8923TIP3   OH226729   6.287   4.410   3.575 -0.0159  0.7749 -0.1922
 8923TIP3    H126730   6.242   4.378   3.653 -0.4271  1.1532 -0.2673
 8923TIP3    H226731   6.289   4.334   3.516  0.8037  0.3196  0.3900
 8924TIP3   OH226732   4.540   4.716   5.526  0.0939  0.2187 -0.1983
 8924TIP3    H126733   4.606   4.703   5.593  0.5591  0.3102 -0.6290
 8924TIP3    H226734   4.578   4.782   5.467  0.1039 -0.5327 -1.0596
 8925TIP3   OH226735   1.625   2.990   2.280 -0.3699  0.3016  0.0610
 8925TIP3    H126736   1.695   2.940   2.323  0.4126 -0.4656 -1.9835
 8925TIP3    H226737   1.651   3.082   2.292  0.0654  0.0845  0.8222
 8926TIP3   OH226738   6.081   2.837   1.842 -0.1619  0.6034 -0.1409
 8926TIP3    H126739   6.007   2.789   1.805  0.4721  0.0836 -0.7521
 8926TIP3    H226740   6.142   2.846   1.769 -0.4830  2.8212 -0.2037
 8927TIP3   OH226741   0.317   5.627   0.060  0.2774  0.5837  0.0312
 8927TIP3    H126742   0.386   5.609  -0.004 -0.8886 -1.9143 -0.6522
 8927TIP3    H226743   0.336   5.568   0.133 -1.4052 -0.5989 -0.4337
 8928TIP3   OH226744   2.649   7.056   0.653  0.0240  0.0928 -0.1307
 8928TIP3    H126745   2.662   7.135   0.600  1.6273  0.1035  0.2342
 8928TIP3    H226746   2.708   6.991   0.615  1.1136  0.0594  1.4975
 8929TIP3   OH226747   6.722   2.539   1.735 -0.0174  0.2405 -0.0697
 8929TIP3    H126748   6.817   2.537   1.723  0.1134  1.3210  0.7066
 8929TIP3    H226749   6.687   2.533   1.646  0.7499 -0.7952 -0.3275
 8930TIP3   OH226750   2.794   1.622   4.471  0.1852 -0.1654  0.6068
 8930TIP3    H126751   2.734   1.569   4.524 -1.1798 -0.3497 -1.0485
 8930TIP3    H226752   2.808   1.701   4.523 -1.1090 -0.3414  1.2645
 8931TIP3   OH226753   2.391   4.358   1.745  0.0716  0.8777 -0.0566
 8931TIP3    H126754   2.443   4.431   1.778  0.5819  0.3828  0.2553
 8931TIP3    H226755   2.452   4.283   1.746 -0.3433  0.5270 -0.6876
 8932TIP3   OH226756   6.401   0.504   0.027  0.1002 -0.1839 -0.0513
 8932TIP3    H126757   6.456   0.494   0.104  2.9936  2.7515 -1.4477
 8932TIP3    H226758   6.433   0.438  -0.034 -0.0539 -0.4914  0.1999
 8933TIP3   OH226759   1.721   3.514   6.128  0.2934 -0.0037  0.5790
 8933TIP3    H126760   1.788   3.448   6.143  0.0441 -0.2382  0.6523
 8933TIP3    H226761   1.639   3.466   6.129  0.2494 -0.0640 -1.5871
 8934TIP3   OH226762   7.070   1.209   2.824  0.1069 -0.2249  0.0142
 8934TIP3    H126763   7.093   1.234   2.734  1.4340  1.2979  0.7473
 8934TIP3    H226764   7.108   1.277   2.879 -1.6577 -0.5008  1.6897
 8935TIP3   OH226765   0.166   0.157   1.360 -0.6045  0.0679  0.7286
 8935TIP3    H126766   0.080   0.115   1.369 -0.3573 -0.8274 -0.7946
 8935TIP3    H226767   0.198   0.166   1.450 -0.4403 -3.5314  1.1781
 8936TIP3   OH226768   5.641   1.772   5.142  0.6645 -0.1274 -0.2140
 8936TIP3    H126769   5.703   1.726   5.085  0.5777 -0.3111 -0.1613
 8936TIP3    H226770   5.652   1.729   5.227 -0.4934 -1.0677 -0.5109
 8937TIP3   OH226771   2.540   5.047   4.643  0.2337 -0.0990 -0.2349
 8937TIP3    H126772   2.469   5.039   4.580  0.7423 -0.1533 -0.8062
 8937TIP3    H226773   2.580   4.960   4.644 -0.2470 -0.3248  0.7413
 8938TIP3   OH226774   6.664   2.293   0.987 -0.1421 -0.1715  0.6968
 8938TIP3    H126775   6.636   2.236   0.915 -0.3638 -2.1391  2.2546
 8938TIP3    H226776   6.733   2.347   0.949  0.5929 -1.9890 -0.6846
 8939TIP3   OH226777   4.943   3.078   2.526  0.5730 -0.1299  0.0941
 8939TIP3    H126778   5.025   3.042   2.560  0.3892  0.4748  1.2086
 8939TIP3    H226779   4.907   3.128   2.598  0.1581  1.1957 -0.9924
 8940TIP3   OH226780   4.401   1.461   0.577 -0.7219 -0.6485 -0.4159
 8940TIP3    H126781   4.369   1.491   0.492 -1.2903 -0.8767 -0.2808
 8940TIP3    H226782   4.453   1.383   0.557  0.0601 -0.0686 -0.6739
 8941TIP3   OH226783   4.453   2.802   1.926 -0.0121 -0.1812  0.1556
 8941TIP3    H126784   4.452   2.710   1.899  0.5489 -0.1665  0.0777
 8941TIP3    H226785   4.361   2.823   1.943 -0.2388 -0.5134 -0.6391
 8942TIP3   OH226786   6.618   0.868   4.494 -0.7025 -0.1629  0.1606
 8942TIP3    H126787   6.585   0.924   4.564 -1.4594 -0.0659 -0.2597
 8942TIP3    H226788   6.707   0.845   4.521 -1.1534 -0.5486  1.4083
 8943TIP3   OH226789   0.516   3.697   1.058  0.7236 -0.1489  0.1611
 8943TIP3    H126790   0.533   3.634   1.128 -2.5777 -1.3496  0.0624
 8943TIP3    H226791   0.601   3.712   1.017  2.0522 -2.5507  1.8226
 8944TIP3   OH226792   2.913   6.008   3.069  0.1467  0.2569 -0.5052
 8944TIP3    H126793   2.826   6.033   3.101  1.8946  3.3535  2.4778
 8944TIP3    H226794   2.937   6.078   3.008  0.9377  0.0111 -0.4829
 8945TIP3   OH226795   6.087   5.353   1.370  0.4661 -0.1785 -0.5138
 8945TIP3    H126796   6.107   5.441   1.337 -0.3933  0.3168  0.2074
 8945TIP3    H226797   6.170   5.321   1.404  0.3215  1.4416  1.5977
 8946TIP3   OH226798   6.017   2.827   1.277  0.3512  0.1725 -0.4213
 8946TIP3    H126799   6.037   2.774   1.199  1.7261  2.3356 -1.6495
 8946TIP3    H226800   6.073   2.790   1.345  2.2183  0.7149 -1.5778
 8947TIP3   OH226801   6.604   5.543   5.708 -0.5878  0.6001  0.4746
 8947TIP3    H126802   6.612   5.633   5.739  2.6861  0.3078  0.8379
 8947TIP3    H226803   6.618   5.490   5.786  0.2068 -0.1934 -0.1990
 8948TIP3   OH226804   4.462   4.357   2.109  0.5318  0.0156 -0.0636
 8948TIP3    H126805   4.440   4.451   2.112 -1.5528 -0.4429  1.7450
 8948TIP3    H226806   4.489   4.337   2.199  2.0271 -0.9340 -0.6924
 8949TIP3   OH226807   0.517   2.876   1.535 -0.2543 -0.3067  0.1694
 8949TIP3    H126808   0.603   2.914   1.515 -0.2315  0.0232  0.8465
 8949TIP3    H226809   0.527   2.838   1.622 -0.5406 -1.0772 -0.1302
 8950TIP3   OH226810   4.307   3.044   0.471  0.2163  0.3174  0.0448
 8950TIP3    H126811   4.376   3.110   0.469  1.1309 -0.6170 -1.2261
 8950TIP3    H226812   4.257   3.059   0.391  0.4331 -0.4918 -0.2587
 8951TIP3   OH226813   7.564   6.409   1.154 -0.0142 -0.0890 -0.0927
 8951TIP3    H126814   7.530   6.405   1.243 -0.0414  1.5944 -0.0063
 8951TIP3    H226815   7.660   6.409   1.165 -0.0038  1.5158  0.0527
 8952TIP3   OH226816   0.657   1.023   5.004 -0.7700  0.1137  0.0375
 8952TIP3    H126817   0.565   1.044   5.020 -1.4887  0.0200 -3.1898
 8952TIP3    H226818   0.658   0.928   4.994 -0.3048  0.1068  0.1433
 8953TIP3   OH226819   4.393   0.175   4.972  0.4810  0.1837  0.2137
 8953TIP3    H126820   4.472   0.121   4.973  0.5090  0.1886  2.3169
 8953TIP3    H226821   4.404   0.236   5.045 -0.5747  1.5389 -0.7145
 8954TIP3   OH226822   4.652   5.133   6.126  0.4507 -0.0899 -0.3672
 8954TIP3    H126823   4.683   5.078   6.054  0.4788 -0.2163 -0.2573
 8954TIP3    H226824   4.729   5.148   6.180  0.4099 -0.0698 -0.3141
 8955TIP3   OH226825   0.106   5.414   5.497  0.5776  0.1161 -0.0646
 8955TIP3    H126826   0.155   5.395   5.417  2.1023 -3.0397  1.4354
 8955TIP3    H226827   0.016   5.388   5.477  1.2504 -2.1784 -0.3381
 8956TIP3   OH226828   5.019   3.241   1.986 -0.5033  0.3467 -0.3603
 8956TIP3    H126829   5.077   3.288   1.925  1.8393 -1.9536 -0.0598
 8956TIP3    H226830   5.033   3.285   2.071 -0.3729  0.7450 -0.5854
 8957TIP3   OH226831   1.417   5.775   1.532  0.2687  0.2295 -0.3047
 8957TIP3    H126832   1.508   5.799   1.517 -0.1857  1.1690 -1.8177
 8957TIP3    H226833   1.420   5.711   1.603  2.0742  0.3794 -0.2008
 8958TIP3   OH226834   5.747   2.709   5.659  0.1386  0.3104 -0.1100
 8958TIP3    H126835   5.739   2.787   5.714  0.6842  0.5060 -0.2979
 8958TIP3    H226836   5.665   2.662   5.672  0.7226 -0.2567  1.7708
 8959TIP3   OH226837   2.876   1.460   0.081  0.1810  0.3622  0.7424
 8959TIP3    H126838   2.965   1.493   0.095  0.8446 -1.4318  0.9486
 8959TIP3    H226839   2.878   1.421  -0.007  0.1529 -1.3095  1.4454
 8960TIP3   OH226840   5.769   5.300   3.924 -0.0355  0.6326  0.1618
 8960TIP3    H126841   5.804   5.383   3.956  2.2469  0.2866 -1.1672
 8960TIP3    H226842   5.833   5.235   3.954 -1.1545 -0.4829  0.1827
 8961TIP3   OH226843   7.219   6.279   6.071  0.1407  0.0571 -0.0203
 8961TIP3    H126844   7.225   6.307   5.980  0.0864  0.1655  0.0083
 8961TIP3    H226845   7.305   6.242   6.091  0.3419  0.5431  0.0475
 8962TIP3   OH226846   2.046   1.751   3.159 -0.6034 -0.1797 -0.5355
 8962TIP3    H126847   1.954   1.778   3.159 -0.1587  1.5130  0.8327
 8962TIP3    H226848   2.069   1.747   3.067 -1.2097  2.6313 -0.9053
 8963TIP3   OH226849   2.064   0.112   0.877 -0.1051  0.2379 -0.1298
 8963TIP3    H126850   1.999   0.178   0.853 -0.0573  1.3120  2.3950
 8963TIP3    H226851   2.148   0.156   0.868  0.0447 -0.0259 -0.0325
 8964TIP3   OH226852   6.114   3.818   1.302 -0.4697  0.9882 -0.3095
 8964TIP3    H126853   6.148   3.871   1.229 -1.2542  1.1413 -0.5732
 8964TIP3    H226854   6.020   3.833   1.301 -0.3596  2.2851  1.7466
 8965TIP3   OH226855   7.360   2.580   3.862  0.3426  0.1157 -0.0065
 8965TIP3    H126856   7.342   2.658   3.811  1.1938  0.3965  0.1063
 8965TIP3    H226857   7.369   2.510   3.797  1.8697  0.5517 -0.3154
 8966TIP3   OH226858   7.082   6.652   0.055 -0.2364  0.2194 -0.2240
 8966TIP3    H126859   7.154   6.615   0.004 -0.8263  0.8091 -1.5355
 8966TIP3    H226860   7.097   6.621   0.144  0.4110 -1.4738 -0.8813
 8967TIP3   OH226861   6.294   4.123   2.275 -0.0299  0.2176  0.0961
 8967TIP3    H126862   6.241   4.146   2.352 -1.8333  1.8133 -1.4757
 8967TIP3    H226863   6.230   4.118   2.203  1.6501 -0.5629 -1.4281
 8968TIP3   OH226864   5.253   0.723   3.264  0.0438 -0.2142  0.0725
 8968TIP3    H126865   5.267   0.747   3.356 -1.7438 -1.7359  0.8145
 8968TIP3    H226866   5.317   0.654   3.247  1.0408  0.7445 -0.1611
 8969TIP3   OH226867   6.560   4.344   5.499 -0.0720  0.0562  0.4145
 8969TIP3    H126868   6.597   4.257   5.484  0.9214  0.3952  0.8760
 8969TIP3    H226869   6.579   4.392   5.418 -1.5292 -0.4400 -0.2633
 8970TIP3   OH226870   5.876   0.477   3.296 -0.0305  0.2892  0.0177
 8970TIP3    H126871   5.950   0.451   3.242  0.7486  0.4562  0.9874
 8970TIP3    H226872   5.891   0.434   3.381 -1.2157  0.0517  0.1274
 8971TIP3   OH226873   7.435   3.657   0.248 -0.2232 -0.2917  0.0938
 8971TIP3    H126874   7.378   3.645   0.325 -0.4992 -2.8326 -0.4125
 8971TIP3    H226875   7.431   3.573   0.203  1.5275  0.4998 -1.6433
 8972TIP3   OH226876   3.451   0.216   5.474 -0.0954  0.1667  0.2072
 8972TIP3    H126877   3.373   0.224   5.528 -0.9981  0.2407 -1.0624
 8972TIP3    H226878   3.427   0.257   5.391  1.6487  1.1377  0.1387
 8973TIP3   OH226879   1.690   0.905   4.125 -0.3842 -0.2228 -0.2032
 8973TIP3    H126880   1.766   0.852   4.103 -0.4475  0.2616 -1.7335
 8973TIP3    H226881   1.709   0.992   4.088 -0.1693  0.9555  2.4756
 8974TIP3   OH226882   0.552   3.176   4.626 -0.4818  0.3191 -0.2186
 8974TIP3    H126883   0.557   3.179   4.721 -2.0915 -0.0443 -0.0863
 8974TIP3    H226884   0.611   3.104   4.601  1.8095  1.9484  0.2624
 8975TIP3   OH226885   0.819   1.460   0.936 -0.1818  0.1843 -0.3980
 8975TIP3    H126886   0.862   1.385   0.897 -0.7808 -0.2926 -0.1512
 8975TIP3    H226887   0.762   1.494   0.866  0.4997  0.7509 -0.6897
 8976TIP3   OH226888   4.615   1.043   4.249 -0.0707 -0.4316 -1.0094
 8976TIP3    H126889   4.591   1.057   4.340 -1.0034  1.8255 -1.5253
 8976TIP3    H226890   4.641   0.951   4.244  0.6414 -0.4394  1.6393
 8977TIP3   OH226891   2.643   3.527   0.301 -0.3805  0.1794 -0.8080
 8977TIP3    H126892   2.553   3.528   0.268 -0.8563 -0.1263  0.4201
 8977TIP3    H226893   2.645   3.598   0.365 -0.0233 -0.4336 -0.1297
 8978TIP3   OH226894   4.783   5.816   4.647 -0.7386  0.3456  0.6988
 8978TIP3    H126895   4.872   5.845   4.628 -1.1083  0.3531 -1.2371
 8978TIP3    H226896   4.774   5.823   4.742  1.1834  0.7235  0.8738
 8979TIP3   OH226897   0.453   2.187   0.460  0.0770  0.4493 -0.7132
 8979TIP3    H126898   0.443   2.098   0.493  1.5417  0.4110 -0.2906
 8979TIP3    H226899   0.499   2.233   0.530 -1.4522  1.8004 -0.5477
 8980TIP3   OH226900   5.326   5.748   1.830 -0.4734  0.1963  0.2937
 8980TIP3    H126901   5.242   5.787   1.854  0.0050  0.9433  0.8163
 8980TIP3    H226902   5.333   5.670   1.886 -0.7433  0.2216  0.3676
 8981TIP3   OH226903   5.573   5.712   5.045  0.2704 -0.2127 -0.0337
 8981TIP3    H126904   5.512   5.660   4.993 -1.3722  0.8722  0.7456
 8981TIP3    H226905   5.580   5.665   5.128 -0.6891  0.4192  0.4211
 8982TIP3   OH226906   0.251   3.347   2.903  0.0671 -0.2894 -0.8372
 8982TIP3    H126907   0.258   3.314   2.993 -1.6856  1.4387  0.0130
 8982TIP3    H226908   0.228   3.439   2.913  0.6623  0.1647 -3.0863
 8983TIP3   OH226909   2.199   1.015   5.624  0.5933  0.0979  0.1714
 8983TIP3    H126910   2.292   0.995   5.621  0.8274  0.6418  2.2107
 8983TIP3    H226911   2.192   1.105   5.591  0.8336  0.1323  0.2137
 8984TIP3   OH226912   0.889   3.081   5.795 -0.0679  0.6984 -0.0321
 8984TIP3    H126913   0.828   3.149   5.820 -0.9083  0.5881 -1.6203
 8984TIP3    H226914   0.834   3.011   5.759  0.9145  0.1255 -0.4835
 8985TIP3   OH226915   6.058   6.222   6.004  0.0379 -0.2173  0.2843
 8985TIP3    H126916   6.012   6.306   5.996  0.8758  0.2925  0.7524
 8985TIP3    H226917   6.075   6.212   6.097 -0.5965 -1.2152  0.3112
 8986TIP3   OH226918   0.755   5.958   0.826  0.1311 -0.7538  0.1373
 8986TIP3    H126919   0.736   5.898   0.755 -0.5413  0.6953 -0.9584
 8986TIP3    H226920   0.692   5.935   0.894  0.1471 -1.5289 -0.1000
 8987TIP3   OH226921   3.287   2.365   4.150 -0.0623 -0.1029  0.1796
 8987TIP3    H126922   3.227   2.417   4.204  0.3747  0.4354  0.1524
 8987TIP3    H226923   3.365   2.356   4.205  0.7569  1.2545 -0.7139
 8988TIP3   OH226924   2.928   5.423   1.077  0.1744  0.3732  0.2416
 8988TIP3    H126925   3.004   5.420   1.019  0.3359  1.3600  0.3937
 8988TIP3    H226926   2.948   5.491   1.141 -0.6160  0.2898  0.5943
 8989TIP3   OH226927   2.314   1.913   0.558 -0.2833  0.3617  0.0272
 8989TIP3    H126928   2.350   1.876   0.476  0.0324  0.0703  0.2934
 8989TIP3    H226929   2.321   1.841   0.621  0.7322  0.9923  0.6647
 8990TIP3   OH226930   4.912   6.080   2.957  0.3446 -0.3997 -0.0887
 8990TIP3    H126931   4.980   6.058   2.893  0.1236 -2.5989  0.3730
 8990TIP3    H226932   4.956   6.136   3.020  0.9012  0.7622 -1.4354
 8991TIP3   OH226933   6.185   1.662   2.743  0.1751 -0.4464  0.2918
 8991TIP3    H126934   6.186   1.753   2.774  0.4056 -0.2888 -0.1709
 8991TIP3    H226935   6.127   1.663   2.667  0.6888 -0.5451 -0.1135
 8992TIP3   OH226936   4.171   0.963   2.447 -0.6779  0.6948  0.2819
 8992TIP3    H126937   4.204   1.037   2.396 -0.9993  0.9869  0.4984
 8992TIP3    H226938   4.152   0.896   2.382 -0.6939  0.9181  0.0571
 8993TIP3   OH226939   0.230   6.530   1.266  0.4611  0.4233 -0.6357
 8993TIP3    H126940   0.281   6.449   1.264 -0.7228 -0.3572 -0.0435
 8993TIP3    H226941   0.252   6.571   1.349 -1.5535 -1.0643  0.7063
 8994TIP3   OH226942   6.212   7.150   2.560  0.4906  0.1574  0.1920
 8994TIP3    H126943   6.136   7.150   2.618 -1.0837  0.8811 -1.7220
 8994TIP3    H226944   6.283   7.186   2.613  0.2623 -2.8828  2.8485
 8995TIP3   OH226945   1.775   2.940   5.319 -0.0681  0.2244 -0.2964
 8995TIP3    H126946   1.809   3.002   5.383  0.7566  0.7594 -1.2323
 8995TIP3    H226947   1.681   2.958   5.315 -0.4347 -0.8460  1.8499
 8996TIP3   OH226948   6.394   2.007   2.600  0.2130 -0.3891  0.2820
 8996TIP3    H126949   6.399   1.916   2.571 -0.9603 -0.6608  0.8921
 8996TIP3    H226950   6.446   2.055   2.535 -0.0970 -1.3319 -0.7055
 8997TIP3   OH226951   3.215   6.709   2.186  0.6837  0.5459  0.6936
 8997TIP3    H126952   3.162   6.779   2.147  2.0156  2.4453  2.1214
 8997TIP3    H226953   3.222   6.733   2.278 -0.5303 -2.6419  1.7492
 8998TIP3   OH226954   0.240   4.383   0.664  0.2008 -0.0301 -0.2350
 8998TIP3    H126955   0.206   4.443   0.731  0.4194  1.1368 -1.1400
 8998TIP3    H226956   0.235   4.433   0.582  0.0931 -1.3699 -1.0725
 8999TIP3   OH226957   2.907   3.017   1.969  0.3899 -0.5119 -0.2113
 8999TIP3    H126958   2.887   2.950   2.035 -0.7066  0.2759  0.2907
 8999TIP3    H226959   2.994   2.994   1.937 -0.1828 -2.5140 -0.4722
 9000TIP3   OH226960   1.831   3.478   0.725 -0.6978 -0.4668  0.4658
 9000TIP3    H126961   1.781   3.398   0.706 -1.0766 -0.6117  1.9888
 9000TIP3    H226962   1.818   3.493   0.818  0.2569  0.7842  0.4187
 9001TIP3   OH226963   5.759   0.266   5.631  0.2612 -0.3388  0.0216
 9001TIP3    H126964   5.747   0.270   5.536 -0.9807 -0.5960  0.1496
 9001TIP3    H226965   5.706   0.337   5.665 -0.4749 -1.1495  0.6048
 9002TIP3   OH226966   2.217   4.823   2.535  0.5341 -0.1583  0.0751
 9002TIP3    H126967   2.265   4.742   2.550 -1.0143 -0.9929  0.7011
 9002TIP3    H226968   2.160   4.832   2.612  0.1807  1.1499 -0.3149
 9003TIP3   OH226969   1.355   3.888   1.847 -0.2999  0.2550 -0.2071
 9003TIP3    H126970   1.409   3.967   1.848 -0.4665  0.4041 -1.6121
 9003TIP3    H226971   1.373   3.848   1.762 -0.3962 -1.1016  0.3898
 9004TIP3   OH226972   4.399   2.679   5.771 -0.2160 -0.2902  0.2169
 9004TIP3    H126973   4.450   2.758   5.790 -1.6395  0.9870 -0.9836
 9004TIP3    H226974   4.311   2.712   5.753 -0.5083 -1.9867 -1.8659
 9005TIP3   OH226975   7.026   2.260   4.388  0.0028 -0.0285 -0.6226
 9005TIP3    H126976   6.965   2.333   4.388  0.9069  0.7621 -1.4302
 9005TIP3    H226977   6.970   2.182   4.383 -0.9769  0.5772  0.4461
 9006TIP3   OH226978   6.156   5.123   4.266 -0.0098 -0.5809 -0.3459
 9006TIP3    H126979   6.245   5.158   4.257 -0.1204 -0.0430  0.5849
 9006TIP3    H226980   6.128   5.149   4.354 -1.1551 -0.5923 -0.6887
 9007TIP3   OH226981   6.916   7.107   5.398 -0.0924 -0.7194 -0.4432
 9007TIP3    H126982   6.932   7.039   5.332  0.5262 -3.0493  1.9331
 9007TIP3    H226983   6.903   7.059   5.480  0.7305  2.0484  1.4815
 9008TIP3   OH226984   5.038   4.477   4.896 -0.4383  0.0058  0.7075
 9008TIP3    H126985   4.985   4.537   4.948 -2.1286 -0.7875 -0.0218
 9008TIP3    H226986   5.030   4.393   4.942  1.4832  0.1699  1.4366
 9009TIP3   OH226987   6.216   1.737   0.630  0.4642 -0.6265 -0.4273
 9009TIP3    H126988   6.261   1.656   0.654  1.4934  0.7346  2.6847
 9009TIP3    H226989   6.124   1.720   0.649  0.8274 -0.7353  1.3988
 9010TIP3   OH226990   1.152   1.470   2.267  0.5855  0.3072  0.6136
 9010TIP3    H126991   1.204   1.550   2.257 -2.4997  2.1814 -3.8372
 9010TIP3    H226992   1.199   1.404   2.216  1.0100  0.5333  0.7100
 9011TIP3   OH226993   7.176   3.475   4.267 -0.0707 -0.0352  0.1278
 9011TIP3    H126994   7.154   3.418   4.341  0.7449 -1.8402 -0.9349
 9011TIP3    H226995   7.260   3.514   4.290  0.5391 -1.1553 -0.0956
 9012TIP3   OH226996   3.632   2.215   4.787  0.4254  0.4193  0.0059
 9012TIP3    H126997   3.688   2.242   4.859  1.2000 -1.5877  0.2400
 9012TIP3    H226998   3.545   2.205   4.826 -0.0860  3.1033 -0.2606
 9013TIP3   OH226999   5.719   3.404   2.204 -0.0019  0.0305 -0.0166
 9013TIP3    H127000   5.685   3.355   2.280 -0.5456  0.2856 -0.0918
 9013TIP3    H227001   5.739   3.491   2.239 -0.1476  0.1138 -0.1415
 9014TIP3   OH227002   1.466   6.654   0.656 -0.0993  0.0640  0.0051
 9014TIP3    H127003   1.472   6.729   0.715  1.3702 -0.0744  0.0513
 9014TIP3    H227004   1.527   6.674   0.585 -1.6184  0.0986 -1.3627
 9015TIP3   OH227005   2.047   3.984   5.975 -0.0325  0.3858 -0.7227
 9015TIP3    H127006   2.097   4.041   6.033  0.7233  0.0827 -1.0610
 9015TIP3    H227007   1.957   4.013   5.984  0.2082  0.9503 -0.1054
 9016TIP3   OH227008   5.610   3.023   2.825 -0.3804  0.3678 -0.0053
 9016TIP3    H127009   5.671   2.971   2.877 -2.2594 -1.6571  0.3509
 9016TIP3    H227010   5.618   2.988   2.737  0.0510  1.1662 -0.2943
 9017TIP3   OH227011   1.706   1.342   2.266  0.0007  0.5563 -0.1555
 9017TIP3    H127012   1.625   1.347   2.316 -0.1656 -1.6908 -0.0895
 9017TIP3    H227013   1.700   1.259   2.218  2.2013  0.3658 -0.2377
 9018TIP3   OH227014   2.974   2.111   1.664  0.8838  0.7592 -0.3144
 9018TIP3    H127015   2.961   2.018   1.647  2.9988  0.5714 -1.1310
 9018TIP3    H227016   2.946   2.154   1.583 -0.5501  0.9161  0.2325
 9019TIP3   OH227017   5.061   2.434   2.992 -0.2383  0.2392 -0.0345
 9019TIP3    H127018   4.971   2.408   2.977 -0.1049  0.3259 -1.0078
 9019TIP3    H227019   5.057   2.529   3.007 -0.6129 -0.1156  2.6178
 9020TIP3   OH227020   5.524   3.422   4.618 -0.4680 -0.0125 -0.5791
 9020TIP3    H127021   5.453   3.419   4.682  0.3128  0.2160  0.3173
 9020TIP3    H227022   5.511   3.344   4.564  0.4349 -1.7585  1.5844
 9021TIP3   OH227023   0.566   5.063   3.746 -0.2864 -0.4298  0.3281
 9021TIP3    H127024   0.549   4.978   3.705 -0.0011 -0.2031 -0.2833
 9021TIP3    H227025   0.615   5.112   3.679 -1.3866  0.5960  0.2371
 9022TIP3   OH227026   5.291   4.928   0.674  0.1263 -0.0300 -0.0632
 9022TIP3    H127027   5.338   4.958   0.597  0.3025 -2.5755 -1.0272
 9022TIP3    H227028   5.214   4.985   0.679  0.8634  1.1243 -1.2194
 9023TIP3   OH227029   3.085   0.022   2.908  0.0308  0.6237 -0.4281
 9023TIP3    H127030   3.016   0.066   2.859 -0.5000 -0.5080 -0.7506
 9023TIP3    H227031   3.144  -0.011   2.840  1.4618  2.4360 -0.1194
 9024TIP3   OH227032   6.376   1.446   4.532  0.1622  0.5083 -0.0763
 9024TIP3    H127033   6.322   1.522   4.511  0.8943  1.4969  1.4056
 9024TIP3    H227034   6.462   1.482   4.554  0.9172 -0.8739 -0.5974
 9025TIP3   OH227035   3.298   2.669   1.035  0.5250 -0.1914  0.3143
 9025TIP3    H127036   3.229   2.640   0.975 -0.1042 -1.7774  1.7316
 9025TIP3    H227037   3.355   2.725   0.981 -0.3892 -0.9751 -1.5493
 9026TIP3   OH227038   0.585   0.327   5.071  0.3319  0.2962 -0.2545
 9026TIP3    H127039   0.572   0.272   5.148  1.2457 -0.1169 -0.3820
 9026TIP3    H227040   0.497   0.348   5.041 -0.0522  0.9628  1.2513
 9027TIP3   OH227041   2.513   6.853   4.383 -0.1942 -0.8718  0.3008
 9027TIP3    H127042   2.427   6.829   4.417 -0.7256  0.7987  0.2583
 9027TIP3    H227043   2.500   6.858   4.288 -1.2540  3.2661  0.4796
 9028TIP3   OH227044   2.051   0.333   1.259  0.1375 -0.3548 -0.0644
 9028TIP3    H127045   2.132   0.311   1.305  0.3917 -1.9476 -1.2250
 9028TIP3    H227046   2.029   0.256   1.208 -0.8231  0.8959 -1.6556
 9029TIP3   OH227047   2.221   1.640   1.496  0.2747 -0.1081  0.0983
 9029TIP3    H127048   2.158   1.607   1.559  0.2995 -0.6085 -0.1388
 9029TIP3    H227049   2.169   1.664   1.419  0.3659 -0.4753 -0.0794
 9030TIP3   OH227050   5.280   4.056   1.751 -0.0732 -0.2965 -0.3698
 9030TIP3    H127051   5.254   4.106   1.828 -1.4416 -3.1113  1.1520
 9030TIP3    H227052   5.197   4.028   1.712  0.6111  0.4400 -2.5012
 9031TIP3   OH227053   5.488   5.344   3.842 -0.3701 -0.5001 -0.4337
 9031TIP3    H127054   5.572   5.309   3.872 -0.5040  0.5025  1.2713
 9031TIP3    H227055   5.501   5.363   3.750  0.9721 -1.2436 -0.4228
 9032TIP3   OH227056   3.756   2.391   2.588 -0.4542 -0.3212 -0.0261
 9032TIP3    H127057   3.742   2.349   2.503  1.9227 -1.0452 -0.1305
 9032TIP3    H227058   3.848   2.376   2.607 -0.3927  1.7841  1.6631
 9033TIP3   OH227059   4.538   4.701   5.026 -0.0547 -0.9279  0.1981
 9033TIP3    H127060   4.577   4.663   5.105 -0.2581 -0.2795  0.6129
 9033TIP3    H227061   4.545   4.795   5.039 -0.1769 -0.8208 -0.5193
 9034TIP3   OH227062   0.505   0.427   0.299  0.4371  0.2665  0.0775
 9034TIP3    H127063   0.520   0.502   0.356 -1.7210  0.2900  0.6946
 9034TIP3    H227064   0.425   0.386   0.333 -0.6753  0.0059 -2.6107
 9035TIP3   OH227065   0.850   6.581   5.193 -0.8094  0.3485 -0.0267
 9035TIP3    H127066   0.821   6.490   5.187 -0.1181  0.1475 -0.4391
 9035TIP3    H227067   0.932   6.584   5.145 -0.5094  1.0633  0.4974
 9036TIP3   OH227068   6.693   1.046   1.852 -0.5278  0.5375  0.5268
 9036TIP3    H127069   6.632   1.065   1.923  0.4171  1.3155  1.1643
 9036TIP3    H227070   6.776   1.084   1.881  0.1027  0.0819 -0.6028
 9037TIP3   OH227071   7.527   1.977   5.107  0.2169 -0.2366  0.1473
 9037TIP3    H127072   7.535   2.061   5.152 -0.5580 -0.3219  0.4661
 9037TIP3    H227073   7.492   1.918   5.173 -1.1534 -0.3068 -0.6099
 9038TIP3   OH227074   5.392   6.734   5.228  0.0672  0.7531  0.4159
 9038TIP3    H127075   5.370   6.649   5.191 -0.9033  0.9706  0.4599
 9038TIP3    H227076   5.356   6.731   5.317 -0.1953  1.2867  0.3323
 9039TIP3   OH227077   1.965   0.441   6.145  0.5219 -0.8968  0.7084
 9039TIP3    H127078   2.043   0.490   6.122 -0.1594 -0.7003 -1.4359
 9039TIP3    H227079   1.912   0.502   6.197 -0.4267  0.8722 -2.1169
 9040TIP3   OH227080   7.384   3.704   2.601  0.6404 -0.1775  0.1072
 9040TIP3    H127081   7.356   3.615   2.581  0.6081 -0.0873 -0.2593
 9040TIP3    H227082   7.304   3.757   2.592  0.1426 -0.4030  2.4308
 9041TIP3   OH227083   4.937   4.846   5.232 -0.0094 -0.2438  0.2403
 9041TIP3    H127084   4.982   4.929   5.247 -0.2183  0.1846 -1.3123
 9041TIP3    H227085   4.961   4.821   5.143 -2.0749 -0.4675 -0.3161
 9042TIP3   OH227086   2.094   5.037   6.024 -0.0628 -0.1313 -0.1729
 9042TIP3    H127087   2.048   5.089   5.959 -0.6726 -0.8905 -0.3631
 9042TIP3    H227088   2.150   4.978   5.973 -0.6607 -0.8366 -0.0225
 9043TIP3   OH227089   6.151   2.276   4.198 -0.0094 -0.9534  0.4313
 9043TIP3    H127090   6.198   2.262   4.115 -1.8394 -1.3258 -0.5863
 9043TIP3    H227091   6.143   2.371   4.205 -0.1449 -0.9290 -0.0054
 9044TIP3   OH227092   4.707   0.672   2.629 -0.2606 -0.0017  0.3639
 9044TIP3    H127093   4.683   0.629   2.547  1.8033 -0.1792 -0.1914
 9044TIP3    H227094   4.632   0.655   2.687 -1.3460 -0.6909 -1.1605
 9045TIP3   OH227095   1.232   2.973   1.191 -0.3191 -0.2867 -0.0594
 9045TIP3    H127096   1.247   2.991   1.284 -2.4718 -1.7104  0.6318
 9045TIP3    H227097   1.245   3.057   1.148  3.6061 -0.1316  1.0386
 9046TIP3   OH227098   4.268   2.915   2.456  0.1189  0.0775 -0.1478
 9046TIP3    H127099   4.186   2.952   2.423 -0.7059 -0.1935  1.4922
 9046TIP3    H227100   4.259   2.821   2.444  0.6619  0.1195 -0.9472
 9047TIP3   OH227101   7.552   3.522   2.252 -0.0509 -0.2504 -0.3036
 9047TIP3    H127102   7.484   3.511   2.319  0.0001 -0.8211 -0.3407
 9047TIP3    H227103   7.513   3.487   2.172  1.0108 -2.6238  0.1150
 9048TIP3   OH227104   5.885   4.684   0.775  0.1039  0.1075  0.2207
 9048TIP3    H127105   5.807   4.692   0.831  0.0691  2.2754 -0.0528
 9048TIP3    H227106   5.917   4.774   0.767  1.9004 -0.5842 -0.7385
 9049TIP3   OH227107   5.635   0.861   3.493  0.1900  0.4051 -0.4601
 9049TIP3    H127108   5.704   0.796   3.500 -1.3771 -1.4657 -1.4117
 9049TIP3    H227109   5.564   0.828   3.548 -0.6601  1.2622 -0.9996
 9050TIP3   OH227110   3.498   2.516   4.457  0.0448 -0.5181 -0.4104
 9050TIP3    H127111   3.493   2.432   4.411 -2.4232 -1.3759  1.2112
 9050TIP3    H227112   3.565   2.503   4.524 -0.8700 -1.5331  0.3468
 9051TIP3   OH227113   1.064   2.661   2.765  0.0929 -0.4155  0.4660
 9051TIP3    H127114   1.047   2.746   2.805  0.7259 -0.2954  0.4872
 9051TIP3    H227115   1.067   2.679   2.671 -0.4226 -0.5292  0.4258
 9052TIP3   OH227116   4.049   0.759   4.520 -0.0888 -0.2224 -0.4433
 9052TIP3    H127117   4.041   0.852   4.500 -2.4117  0.6456  3.5194
 9052TIP3    H227118   3.971   0.720   4.481  1.0463 -0.6937 -2.3855
 9053TIP3   OH227119   4.116   4.926   4.251  0.5744  0.5736 -0.0091
 9053TIP3    H127120   4.185   4.862   4.264  0.3960  0.1907 -0.8733
 9053TIP3    H227121   4.113   4.940   4.156 -0.8849  0.1751 -0.0465
 9054TIP3   OH227122   3.710   3.153   1.391  0.3325  0.1256 -0.6124
 9054TIP3    H127123   3.735   3.181   1.478  0.9705 -0.9297 -0.4326
 9054TIP3    H227124   3.618   3.179   1.382  0.7362  1.7112 -0.2791
 9055TIP3   OH227125   2.315   0.078   3.506  1.0596  0.5263 -0.3699
 9055TIP3    H127126   2.291  -0.012   3.526 -0.1041  0.8454 -0.2475
 9055TIP3    H227127   2.376   0.072   3.433 -1.4494 -0.2570 -2.5776
 9056TIP3   OH227128   3.584   6.035   4.294  0.2011  0.3141  0.1017
 9056TIP3    H127129   3.547   6.082   4.220 -0.0887  0.2162  0.1830
 9056TIP3    H227130   3.508   6.012   4.348  0.2301 -1.0118 -0.3741
 9057TIP3   OH227131   2.389   1.481   2.989  0.0260 -0.3391 -0.1494
 9057TIP3    H127132   2.409   1.492   3.082  2.5511 -0.0559 -0.6474
 9057TIP3    H227133   2.390   1.570   2.954  3.9485 -0.6587 -1.2262
 9058TIP3   OH227134   3.856   1.461   5.770 -0.4631 -0.2859 -0.1193
 9058TIP3    H127135   3.805   1.476   5.690  0.8689  1.8581 -0.6303
 9058TIP3    H227136   3.798   1.488   5.841 -0.4808  1.0070 -0.6095
 9059TIP3   OH227137   1.333   4.443   1.921  0.2330 -0.2342  0.3742
 9059TIP3    H127138   1.369   4.415   1.837  1.1706 -1.3675  1.1278
 9059TIP3    H227139   1.252   4.488   1.898  1.0667  0.5432 -1.2238
 9060TIP3   OH227140   6.220   6.052   3.709 -0.7176  0.3288 -0.3236
 9060TIP3    H127141   6.175   5.972   3.738  0.3931 -0.2050 -0.0459
 9060TIP3    H227142   6.170   6.079   3.631 -0.7094 -1.0295 -0.8379
 9061TIP3   OH227143   0.690   7.133   0.712  0.0114  0.2841  0.8062
 9061TIP3    H127144   0.740   7.193   0.767  0.0673 -0.7498  1.9289
 9061TIP3    H227145   0.752   7.063   0.691 -1.0417 -1.2763  2.6373
 9062TIP3   OH227146   1.270   3.478   4.223  0.0678 -0.1423 -0.6192
 9062TIP3    H127147   1.335   3.475   4.153 -0.0275  0.9976 -0.7848
 9062TIP3    H227148   1.282   3.396   4.271  0.0085 -1.0292 -2.0646
 9063TIP3   OH227149   2.582   5.664   2.852 -0.2016  0.3903 -0.2915
 9063TIP3    H127150   2.524   5.589   2.837 -0.3089  0.2422  0.8149
 9063TIP3    H227151   2.586   5.674   2.947 -1.0652  2.4866 -0.4269
 9064TIP3   OH227152   3.541   3.511   4.936 -0.8103  0.2566  0.1483
 9064TIP3    H127153   3.633   3.529   4.916 -0.6872  1.5797  1.6849
 9064TIP3    H227154   3.514   3.447   4.870  0.4083  1.9440 -2.1696
 9065TIP3   OH227155   1.070   0.468   1.512  0.1564 -0.3778 -0.2907
 9065TIP3    H127156   1.153   0.447   1.553 -1.1288 -0.5148  2.4798
 9065TIP3    H227157   1.078   0.561   1.488 -0.0418  0.7745  3.4214
 9066TIP3   OH227158   1.804   0.199   4.251 -0.0082  0.1172 -0.3462
 9066TIP3    H127159   1.806   0.112   4.290  0.7446  0.9546  1.6142
 9066TIP3    H227160   1.868   0.195   4.180  1.3435 -0.4911  0.8459
 9067TIP3   OH227161   4.557   4.734   2.400  0.1792 -0.2671 -0.1813
 9067TIP3    H127162   4.530   4.759   2.311 -0.1968 -0.8464 -0.2367
 9067TIP3    H227163   4.598   4.648   2.389  0.2688 -0.2725  0.1879
 9068TIP3   OH227164   2.279   0.982   4.975 -0.0509  0.8323  0.1166
 9068TIP3    H127165   2.349   0.946   4.921 -0.5189 -2.0783  1.2946
 9068TIP3    H227166   2.203   0.929   4.955 -0.9299  1.4322  1.6831
 9069TIP3   OH227167   3.059   3.027   5.716 -0.0193 -0.0695  0.5319
 9069TIP3    H127168   3.130   3.089   5.701 -0.9893  0.5223 -2.0962
 9069TIP3    H227169   2.984   3.081   5.740 -0.4089 -0.3518 -0.0140
 9070TIP3   OH227170   0.802   2.808   5.531 -0.6881  0.0323 -0.3510
 9070TIP3    H127171   0.894   2.800   5.557 -0.0399 -0.8780 -2.6790
 9070TIP3    H227172   0.755   2.827   5.613  1.5602  0.6304  0.8656
 9071TIP3   OH227173   4.416   0.783   1.127 -0.2604  0.2838  0.2659
 9071TIP3    H127174   4.361   0.855   1.156 -0.0267  0.3524  0.5422
 9071TIP3    H227175   4.380   0.758   1.042  0.3505  1.4569 -0.3541
 9072TIP3   OH227176   3.940   1.446   4.591  0.4280  0.1332  0.3621
 9072TIP3    H127177   4.014   1.386   4.588  2.4521  2.4191  0.9664
 9072TIP3    H227178   3.902   1.443   4.503  2.1025 -0.1245 -0.3827
 9073TIP3   OH227179   1.124   6.356   2.629 -0.6460  0.5264  0.2085
 9073TIP3    H127180   1.082   6.291   2.573  0.3336  1.0349 -1.1647
 9073TIP3    H227181   1.114   6.439   2.582 -0.0121  1.0125  0.8934
 9074TIP3   OH227182   4.956   4.271   1.192 -0.4594  0.6028 -0.0715
 9074TIP3    H127183   5.005   4.196   1.160  0.2094  0.4761  1.1913
 9074TIP3    H227184   4.873   4.268   1.144  0.5272  0.4898 -1.8204
 9075TIP3   OH227185   3.629   2.277   1.371  0.0759 -0.4344 -0.4552
 9075TIP3    H127186   3.673   2.294   1.287  1.4742 -0.7075  0.1993
 9075TIP3    H227187   3.668   2.340   1.432 -0.0116 -1.0874  0.2864
 9076TIP3   OH227188   2.944   4.344   2.408  0.7554 -0.1653  0.5032
 9076TIP3    H127189   2.881   4.400   2.362 -0.2670 -0.8902  0.9599
 9076TIP3    H227190   2.998   4.404   2.458  0.9839  0.5408 -0.5585
 9077TIP3   OH227191   4.942   2.318   4.612  0.1370  0.4097 -0.0935
 9077TIP3    H127192   5.017   2.334   4.556  0.4235 -1.1742 -0.2202
 9077TIP3    H227193   4.980   2.301   4.699 -0.1138  0.2691 -0.0102
 9078TIP3   OH227194   4.701   6.132   3.616 -0.3724 -0.2729  0.1541
 9078TIP3    H127195   4.674   6.118   3.525  1.7769  0.3558 -0.6291
 9078TIP3    H227196   4.752   6.055   3.639  2.6403  1.2956 -0.6754
 9079TIP3   OH227197   2.151   1.998   5.063 -0.1894  0.7995  0.2184
 9079TIP3    H127198   2.215   2.005   5.134  0.8768  2.8580 -0.8532
 9079TIP3    H227199   2.121   2.088   5.049 -2.1986  0.0840 -0.3503
 9080TIP3   OH227200   0.645   6.933   0.377 -0.0140  0.5713  0.0127
 9080TIP3    H127201   0.623   7.023   0.351 -0.1440  0.4449 -0.3089
 9080TIP3    H227202   0.741   6.932   0.378 -0.0105  0.8707  0.5629
 9081TIP3   OH227203   5.836   4.089   0.727 -0.3089 -0.5285  0.1664
 9081TIP3    H127204   5.788   4.148   0.785 -0.7524 -0.4445 -0.2877
 9081TIP3    H227205   5.773   4.020   0.705 -0.2570 -0.3581 -0.5232
 9082TIP3   OH227206   3.973   4.885   2.219 -0.2491 -0.0291  0.3687
 9082TIP3    H127207   3.917   4.926   2.285 -1.1488 -0.6270 -0.0069
 9082TIP3    H227208   4.056   4.869   2.264 -0.1246  1.5245  0.7263
 9083TIP3   OH227209   6.738   4.886   0.278 -0.1194  0.1867 -0.3401
 9083TIP3    H127210   6.647   4.856   0.288  0.3993 -1.2293  0.4291
 9083TIP3    H227211   6.789   4.822   0.328  1.5111 -0.2493 -2.4539
 9084TIP3   OH227212   6.202   1.435   4.742 -0.2562  0.4827 -0.1032
 9084TIP3    H127213   6.137   1.461   4.678 -2.4040  0.1884  1.8241
 9084TIP3    H227214   6.269   1.390   4.691 -1.9741  0.0333 -2.1102
 9085TIP3   OH227215   4.769   6.539   4.135  0.6028  0.3129  0.1383
 9085TIP3    H127216   4.692   6.509   4.184  0.7583 -1.2076 -0.5100
 9085TIP3    H227217   4.734   6.559   4.048  0.9159 -0.3403 -0.1445
 9086TIP3   OH227218   2.491   5.679   2.041  0.1940 -0.4787 -0.0452
 9086TIP3    H127219   2.445   5.681   2.124  0.5166 -1.0400  0.1533
 9086TIP3    H227220   2.527   5.590   2.035  0.0958 -0.4779 -0.8248
 9087TIP3   OH227221   3.122   5.481   3.357  0.1197  0.0288 -0.4941
 9087TIP3    H127222   3.174   5.459   3.434 -1.6018  0.0693  0.7486
 9087TIP3    H227223   3.146   5.415   3.292  0.5211 -0.9248  0.5839
 9088TIP3   OH227224   1.511   6.890   0.789 -0.2660  0.3352  0.4929
 9088TIP3    H127225   1.602   6.918   0.793 -0.5287  1.1908  0.5975
 9088TIP3    H227226   1.464   6.954   0.843 -0.8409 -0.4688  0.9754
 9089TIP3   OH227227   7.327   3.381   3.719 -0.1089 -0.1086 -0.1955
 9089TIP3    H127228   7.402   3.440   3.716 -0.5380  0.4287 -1.3393
 9089TIP3    H227229   7.251   3.440   3.726 -0.4519 -0.6113  0.3560
 9090TIP3   OH227230   6.829   2.448   4.420  0.1435 -0.2191 -0.8638
 9090TIP3    H127231   6.799   2.511   4.354  1.8803  0.2796 -1.2206
 9090TIP3    H227232   6.827   2.497   4.502  1.4332  0.3261 -1.1305
 9091TIP3   OH227233   5.926   5.769   3.059 -0.8103 -0.5439  0.2761
 9091TIP3    H127234   5.938   5.864   3.058 -1.1414 -0.4960  0.6284
 9091TIP3    H227235   5.831   5.757   3.051 -0.6345 -0.8983 -1.9865
 9092TIP3   OH227236   5.550   5.865   1.727 -0.1869  0.4430  0.1913
 9092TIP3    H127237   5.464   5.825   1.739  0.3250 -0.6870  0.1710
 9092TIP3    H227238   5.595   5.850   1.811  0.2956  0.2599 -0.0970
 9093TIP3   OH227239   3.897   4.158   2.472  0.2469  0.2003  0.0508
 9093TIP3    H127240   3.980   4.137   2.514  0.4753 -1.7599 -1.2254
 9093TIP3    H227241   3.870   4.076   2.430 -2.1321  0.8917  0.0805
 9094TIP3   OH227242   0.905   2.475   1.908 -0.7087 -0.0346 -0.1719
 9094TIP3    H127243   0.977   2.479   1.845 -1.3254 -0.9163 -0.9534
 9094TIP3    H227244   0.947   2.467   1.993  0.1156 -0.2765 -0.6008
 9095TIP3   OH227245   7.533   2.892   0.884 -0.1580 -0.4489  0.1415
 9095TIP3    H127246   7.512   2.882   0.977 -0.3471  0.3605  0.1871
 9095TIP3    H227247   7.459   2.939   0.847 -0.3050 -1.1812 -0.5251
 9096TIP3   OH227248   2.805   2.081   4.952 -0.2623 -0.3596  0.2097
 9096TIP3    H127249   2.731   2.036   4.992 -0.4762 -0.1173  0.0861
 9096TIP3    H227250   2.834   2.144   5.019 -1.0172  0.4875 -0.2491
 9097TIP3   OH227251   0.691   5.025   5.440  0.3859  0.2449 -0.6634
 9097TIP3    H127252   0.640   5.099   5.472  1.3555  0.7997 -0.3538
 9097TIP3    H227253   0.736   4.991   5.517 -0.3998 -0.9637 -0.7221
 9098TIP3   OH227254   3.612   0.814   1.858  0.2549 -0.2935  0.1869
 9098TIP3    H127255   3.532   0.785   1.813  0.9640 -0.9654 -0.6784
 9098TIP3    H227256   3.682   0.764   1.817  1.1066  0.1348  1.0812
 9099TIP3   OH227257   2.978   1.898   2.562 -0.0927 -0.4886  0.0644
 9099TIP3    H127258   2.998   1.898   2.655 -1.8376 -0.9360  0.4777
 9099TIP3    H227259   3.062   1.882   2.519  0.7043 -0.4750  1.5564
 9100TIP3   OH227260   0.164   3.126   5.687 -0.5789 -0.3099 -0.2578
 9100TIP3    H127261   0.223   3.140   5.613  0.3866  0.0389  0.5415
 9100TIP3    H227262   0.194   3.044   5.727  0.9967  1.0477  1.5622
 9101TIP3   OH227263   1.169   6.250   1.073 -0.0468 -0.5043 -0.2147
 9101TIP3    H127264   1.183   6.159   1.048 -0.4534 -0.9847  1.2084
 9101TIP3    H227265   1.090   6.276   1.025 -0.4757 -1.2134  0.0868
 9102TIP3   OH227266   0.770   5.590   5.299 -0.0519  0.3901  0.5518
 9102TIP3    H127267   0.708   5.529   5.338 -0.3825  1.2634  1.4379
 9102TIP3    H227268   0.716   5.662   5.267  0.4792  1.1821  1.3726
 9103TIP3   OH227269   6.032   3.166   1.825 -0.1662  0.0467 -0.2364
 9103TIP3    H127270   6.084   3.088   1.847  0.1563  0.6735  1.3860
 9103TIP3    H227271   6.095   3.226   1.785 -0.2356 -0.2102 -0.7344
 9104TIP3   OH227272   5.711   2.664   4.067  0.2608  0.0811  0.3776
 9104TIP3    H127273   5.739   2.608   4.140  2.4401  1.3835  0.6019
 9104TIP3    H227274   5.789   2.677   4.014 -0.1208  2.9143  0.3469
 9105TIP3   OH227275   6.824   3.533   1.036 -0.7368  0.1481 -0.0863
 9105TIP3    H127276   6.840   3.532   1.130 -1.0456 -1.3896 -0.0235
 9105TIP3    H227277   6.769   3.456   1.020  2.1668 -1.7128 -2.0011
 9106TIP3   OH227278   3.015   4.255   5.345  0.3708 -0.2003  0.4361
 9106TIP3    H127279   3.047   4.318   5.410  0.7520 -1.3989  1.4722
 9106TIP3    H227280   3.077   4.260   5.273  0.7319  0.1937  0.7729
 9107TIP3   OH227281   1.386   2.595   2.400 -0.2659  0.1109  0.2862
 9107TIP3    H127282   1.476   2.588   2.433 -1.1803 -0.4261  2.9657
 9107TIP3    H227283   1.361   2.685   2.418 -0.2610  0.2615 -0.4660
 9108TIP3   OH227284   3.816   2.214   0.252 -0.1057  0.5341  0.3225
 9108TIP3    H127285   3.754   2.267   0.202 -0.8245 -0.6274 -0.0653
 9108TIP3    H227286   3.786   2.221   0.343 -1.6996 -1.0998 -0.0115
 9109TIP3   OH227287   2.787   5.139   3.379 -0.4222 -0.7670  0.0872
 9109TIP3    H127288   2.846   5.189   3.437 -0.4412 -1.2031  0.4920
 9109TIP3    H227289   2.826   5.147   3.292  0.0362 -0.7438  0.2924
 9110TIP3   OH227290   2.063   2.337   4.755 -1.0823  0.6803 -0.3159
 9110TIP3    H127291   2.047   2.348   4.661 -1.2177  0.4648 -0.3183
 9110TIP3    H227292   2.042   2.246   4.772  0.3328  0.3299 -0.3545
 9111TIP3   OH227293   3.727   0.594   5.395  0.2808 -0.1096 -0.3898
 9111TIP3    H127294   3.761   0.677   5.428  0.5406  0.0133 -0.9642
 9111TIP3    H227295   3.802   0.535   5.396 -0.3447 -0.9591  1.9863
 9112TIP3   OH227296   0.563   3.859   5.771  0.1425  0.4306 -0.7599
 9112TIP3    H127297   0.477   3.827   5.745 -0.2449  0.3170  0.6024
 9112TIP3    H227298   0.564   3.852   5.866  1.3403  1.2563 -0.6871
 9113TIP3   OH227299   4.176   3.384   0.708  0.3091  0.5369  0.3718
 9113TIP3    H127300   4.258   3.432   0.696  0.5167  0.1238  0.1605
 9113TIP3    H227301   4.181   3.350   0.798  1.3961 -1.4269 -0.3751
 9114TIP3   OH227302   5.319   4.703   3.389 -0.5132 -0.7515 -0.0765
 9114TIP3    H127303   5.364   4.645   3.327  0.7557  0.5338 -0.4246
 9114TIP3    H227304   5.243   4.736   3.340  0.1358 -0.2272 -0.7575
 9115TIP3   OH227305   0.979   4.334   2.433  0.7190 -0.2894  0.4312
 9115TIP3    H127306   0.921   4.313   2.507 -2.6804  1.2783 -1.5539
 9115TIP3    H227307   0.968   4.260   2.373  0.1074  0.3435 -0.2647
 9116TIP3   OH227308   4.906   4.539   4.638  0.8395  0.1505 -0.3475
 9116TIP3    H127309   4.963   4.601   4.593  0.6140  0.7647  0.2116
 9116TIP3    H227310   4.963   4.496   4.702  0.4519  1.5008  0.9275
 9117TIP3   OH227311   5.667   6.734   5.255  0.1526 -0.2918  0.1536
 9117TIP3    H127312   5.715   6.654   5.235  0.4644 -0.2649  0.7878
 9117TIP3    H227313   5.575   6.710   5.241  0.2499 -0.7361  0.2639
 9118TIP3   OH227314   3.299   6.544   4.041  0.4994 -0.2457 -0.6809
 9118TIP3    H127315   3.338   6.624   4.006  1.1503  0.7120  1.9724
 9118TIP3    H227316   3.343   6.531   4.126 -0.8018 -2.4683 -0.2628
 9119TIP3   OH227317   0.904   5.050   3.446  0.1515  0.1969  0.0148
 9119TIP3    H127318   0.850   5.095   3.382 -0.3189  0.3098  0.4881
 9119TIP3    H227319   0.994   5.063   3.416 -0.1016 -0.2897 -0.9695
 9120TIP3   OH227320   7.075   4.026   2.974 -0.4704  0.6133 -0.0245
 9120TIP3    H127321   7.085   4.031   2.879  0.7021  0.7009  0.0825
 9120TIP3    H227322   7.164   4.011   3.006 -1.0533 -1.0338  0.9700
 9121TIP3   OH227323   6.612   5.351   1.330  0.7879  0.2706 -0.4605
 9121TIP3    H127324   6.566   5.411   1.389  1.1065 -0.6059  0.7171
 9121TIP3    H227325   6.654   5.288   1.389  0.9235 -0.7682 -1.6481
 9122TIP3   OH227326   4.194   1.897   1.031 -0.7895  0.6076  0.0390
 9122TIP3    H127327   4.151   1.980   1.013 -0.7945  0.4630 -0.6209
 9122TIP3    H227328   4.255   1.885   0.959 -1.8374 -0.6701 -0.6728
 9123TIP3   OH227329   1.871   3.670   2.256  0.4055  0.4493 -0.7347
 9123TIP3    H127330   1.871   3.591   2.202  0.1997 -1.9723  2.4843
 9123TIP3    H227331   1.780   3.697   2.259  0.4762  0.8716 -1.8521
 9124TIP3   OH227332   4.151   1.950   4.900  0.4467 -0.2581  0.0418
 9124TIP3    H127333   4.153   1.902   4.983 -0.7029  0.8596  0.7456
 9124TIP3    H227334   4.239   1.987   4.892  1.6827 -3.0753 -0.9474
 9125TIP3   OH227335   4.373   4.169   5.380  0.1602  0.4110 -0.4364
 9125TIP3    H127336   4.281   4.145   5.395  0.1028  1.1892  0.5468
 9125TIP3    H227337   4.368   4.244   5.320  0.0999  1.0364  0.3400
 9126TIP3   OH227338   3.145   0.540   2.905  0.1859  0.1249 -0.0977
 9126TIP3    H127339   3.100   0.457   2.913 -2.9666  1.7893  1.0791
 9126TIP3    H227340   3.114   0.577   2.822  1.1110  0.4173 -0.3315
 9127TIP3   OH227341   1.363   7.032   3.744 -0.0562  0.2294 -0.1011
 9127TIP3    H127342   1.449   7.015   3.782  0.0872  1.2982  0.0960
 9127TIP3    H227343   1.317   7.083   3.810 -0.4981  0.4777 -0.5881
 9128TIP3   OH227344   0.785   5.633   3.768  0.0464 -0.5322  0.5867
 9128TIP3    H127345   0.740   5.561   3.812  0.3396 -1.3396 -0.3964
 9128TIP3    H227346   0.733   5.650   3.690  0.8359 -0.7566 -0.0061
 9129TIP3   OH227347   3.082   6.582   1.433 -0.2087 -1.1156  0.0935
 9129TIP3    H127348   3.009   6.640   1.412 -0.6782 -1.8069 -0.2236
 9129TIP3    H227349   3.052   6.495   1.407  0.7150 -1.4184 -0.0020
 9130TIP3   OH227350   5.500   7.062   0.292 -0.4634 -0.3336  0.5422
 9130TIP3    H127351   5.564   7.053   0.362  0.0184  0.3243  0.1933
 9130TIP3    H227352   5.518   6.988   0.233  0.3963  0.2159  0.1140
 9131TIP3   OH227353   2.933   3.711   5.025  0.1952  0.4342  0.2226
 9131TIP3    H127354   2.857   3.655   5.046 -1.9039  2.8792 -0.3342
 9131TIP3    H227355   2.929   3.721   4.930  0.4907  1.5593  0.3200
 9132TIP3   OH227356   7.031   6.254   1.499  0.3529 -0.0977 -0.0170
 9132TIP3    H127357   7.029   6.210   1.414  0.2902 -0.4596  0.1680
 9132TIP3    H227358   6.942   6.243   1.533  0.3606  0.1011  0.0654
 9133TIP3   OH227359   5.175   2.664   5.992  0.1201 -0.2880  0.3086
 9133TIP3    H127360   5.240   2.650   6.062  0.0649 -0.6136  0.2965
 9133TIP3    H227361   5.097   2.694   6.038 -0.3089 -1.6720  0.5332
 9134TIP3   OH227362   6.374   5.587   0.448  0.1911 -0.3512  0.1199
 9134TIP3    H127363   6.382   5.494   0.425  0.7515 -0.1652 -0.4689
 9134TIP3    H227364   6.335   5.628   0.370  0.5945  0.0187  0.1074
 9135TIP3   OH227365   2.734   2.603   3.801 -0.5049 -0.0131  0.7148
 9135TIP3    H127366   2.653   2.641   3.768 -1.2861 -2.3439 -0.3193
 9135TIP3    H227367   2.725   2.509   3.783  2.4099 -0.3590  0.6183
 9136TIP3   OH227368   3.998   2.233   2.571 -0.1359 -0.5717  0.1256
 9136TIP3    H127369   4.055   2.283   2.631 -0.9049  0.3942  0.0715
 9136TIP3    H227370   3.980   2.151   2.618 -0.3630 -0.0156  1.0337
 9137TIP3   OH227371   2.850   4.947   5.856  0.4279  0.1898  0.7536
 9137TIP3    H127372   2.897   5.030   5.867 -0.2449  0.8721 -1.0031
 9137TIP3    H227373   2.831   4.943   5.762  1.5133 -2.5887  0.5649
 9138TIP3   OH227374   1.867   1.676   2.804  0.3946 -0.1104  0.3265
 9138TIP3    H127375   1.956   1.642   2.792 -0.1310 -1.1560 -0.9092
 9138TIP3    H227376   1.811   1.610   2.763 -0.9063  0.8282  0.5423
 9139TIP3   OH227377   6.073   7.131   0.857  0.2005 -0.7328  0.0366
 9139TIP3    H127378   6.016   7.094   0.790  0.1521 -0.3830 -0.1180
 9139TIP3    H227379   6.123   7.057   0.891  1.8926 -0.6017 -1.9628
 9140TIP3   OH227380   3.999   6.719   0.904 -0.6490  0.0356  0.8505
 9140TIP3    H127381   3.960   6.635   0.878  0.2017 -0.2760  0.5238
 9140TIP3    H227382   4.058   6.696   0.976 -0.1392  0.2937  0.5164
 9141TIP3   OH227383   3.665   3.921   4.377 -0.7267 -0.1361 -0.4788
 9141TIP3    H127384   3.594   3.946   4.436 -0.7345 -1.9494  0.3361
 9141TIP3    H227385   3.680   3.999   4.323  0.2372  2.1547  2.7848
 9142TIP3   OH227386   0.795   5.067   0.046 -0.3309 -0.2026 -0.2011
 9142TIP3    H127387   0.807   4.980   0.086  0.2013  0.0648  0.2306
 9142TIP3    H227388   0.863   5.121   0.086 -0.3025  0.2745 -0.8893
 9143TIP3   OH227389   0.028   4.479   3.437  0.1119 -0.7358  0.0325
 9143TIP3    H127390   0.116   4.461   3.404  0.7026  2.2631 -0.3214
 9143TIP3    H227391  -0.010   4.538   3.372 -1.2297 -0.0217  1.4147
 9144TIP3   OH227392   5.902   1.182   1.019  0.4666 -0.1420  0.4820
 9144TIP3    H127393   5.842   1.133   0.964  1.3091  0.0706 -0.6556
 9144TIP3    H227394   5.848   1.215   1.091 -1.1544  1.3586 -1.3250
 9145TIP3   OH227395   1.226   1.433   5.404 -0.0536  0.3732  0.1778
 9145TIP3    H127396   1.143   1.390   5.424 -0.3983  0.7122 -0.4817
 9145TIP3    H227397   1.283   1.411   5.477 -0.6587 -0.0450  0.5299
 9146TIP3   OH227398   6.011   0.205   4.432 -0.4671  0.8060  0.1367
 9146TIP3    H127399   6.038   0.137   4.494 -1.8083  0.0124 -0.0941
 9146TIP3    H227400   5.923   0.230   4.460 -2.1644 -1.2768 -2.6680
 9147TIP3   OH227401   5.128   5.966   3.633 -0.2770  0.3970 -0.6281
 9147TIP3    H127402   5.096   5.974   3.544 -0.8557 -0.9951 -0.5677
 9147TIP3    H227403   5.065   5.908   3.677  1.0718 -0.5762  0.1168
 9148TIP3   OH227404   7.304   0.813   0.873 -0.0468 -0.2011 -0.1398
 9148TIP3    H127405   7.335   0.728   0.843  0.9865  0.2239 -0.3218
 9148TIP3    H227406   7.214   0.797   0.902 -0.4357 -1.0060 -1.6776
 9149TIP3   OH227407   2.752   3.910   4.857  0.0395  0.1566 -0.7775
 9149TIP3    H127408   2.660   3.890   4.841 -0.5525  2.1498 -0.1552
 9149TIP3    H227409   2.753   3.957   4.940  1.8719 -1.4112  0.1599
 9150TIP3   OH227410   3.607   2.012   3.781 -0.3961 -0.1895  0.1429
 9150TIP3    H127411   3.630   1.945   3.717 -1.5037 -0.6047  0.1618
 9150TIP3    H227412   3.690   2.033   3.824  0.1138 -0.9287 -0.4504
 9151TIP3   OH227413   6.065   0.468   4.749  0.1612  0.0832 -0.3875
 9151TIP3    H127414   6.105   0.554   4.761 -0.4198  0.1827  0.9516
 9151TIP3    H227415   6.026   0.472   4.661  0.0825  1.2166 -0.3171
 9152TIP3   OH227416   2.501   5.693   3.331  0.0503 -0.4592 -0.4621
 9152TIP3    H127417   2.449   5.620   3.297 -0.3123 -0.2736 -0.3203
 9152TIP3    H227418   2.494   5.684   3.426 -0.3160 -0.0196 -0.4442
 9153TIP3   OH227419   1.795   3.261   0.170  0.0807  0.6248  0.0754
 9153TIP3    H127420   1.879   3.260   0.125 -0.5688  1.7019 -1.2290
 9153TIP3    H227421   1.745   3.330   0.126 -1.3948  0.1760  0.9826
 9154TIP3   OH227422   3.522   6.215   3.169 -0.6054 -0.9032  0.0890
 9154TIP3    H127423   3.516   6.164   3.089  0.2201  0.9800 -1.2452
 9154TIP3    H227424   3.616   6.219   3.188 -0.2588  2.6165 -1.6477
 9155TIP3   OH227425   5.539   7.004   5.714  0.1690 -0.2221  0.2814
 9155TIP3    H127426   5.502   7.043   5.793  0.6178  0.6020  0.1017
 9155TIP3    H227427   5.526   6.910   5.725  0.1359 -0.1139  1.2877
 9156TIP3   OH227428   0.876   1.694   1.754 -0.0149 -0.2006  0.5218
 9156TIP3    H127429   0.914   1.644   1.826 -1.6273 -0.2823  1.3770
 9156TIP3    H227430   0.932   1.676   1.679  1.3430 -0.6209  1.6025
 9157TIP3   OH227431   4.606   1.111   4.515 -0.0774  0.7229 -0.3377
 9157TIP3    H127432   4.660   1.191   4.513  0.2367  0.5430  0.4085
 9157TIP3    H227433   4.606   1.085   4.608 -1.4169  0.6859 -0.3302
 9158TIP3   OH227434   7.307   4.507   4.721 -0.0790 -0.3241  0.1110
 9158TIP3    H127435   7.340   4.594   4.696 -2.3985  0.3811 -0.7132
 9158TIP3    H227436   7.288   4.516   4.815  1.4578 -0.5932  0.4879
 9159TIP3   OH227437   2.096   2.082   3.804  0.7251  0.0658  0.2980
 9159TIP3    H127438   2.183   2.108   3.774  0.1475  2.5681  0.6050
 9159TIP3    H227439   2.047   2.063   3.724  0.8741  1.0436 -0.0425
 9160TIP3   OH227440   2.911   5.662   5.581  0.1804  0.2377 -0.6065
 9160TIP3    H127441   2.988   5.641   5.634  0.8349 -0.8037 -1.9113
 9160TIP3    H227442   2.890   5.580   5.536 -0.4502  1.0450 -1.8301
 9161TIP3   OH227443   3.418   4.195   1.791 -0.2765  0.0056 -1.0174
 9161TIP3    H127444   3.488   4.223   1.732 -1.1733  0.9467 -1.6720
 9161TIP3    H227445   3.383   4.276   1.827  0.4081 -0.5509  1.0476
 9162TIP3   OH227446   4.584   5.300   5.038  0.5472  0.4256 -0.1590
 9162TIP3    H127447   4.536   5.283   4.957  0.0301 -0.1196  0.2527
 9162TIP3    H227448   4.676   5.303   5.011  0.3700  0.4103 -0.7901
 9163TIP3   OH227449   0.746   2.755   0.015  0.3634 -0.2501  0.0357
 9163TIP3    H127450   0.812   2.811   0.056 -0.2784  0.8474 -0.3724
 9163TIP3    H227451   0.682   2.739   0.084 -0.3426  0.9943 -0.2943
 9164TIP3   OH227452   1.541   1.912   5.291  0.1858 -0.3034 -0.0770
 9164TIP3    H127453   1.608   1.979   5.277  1.4078 -1.0640  1.7571
 9164TIP3    H227454   1.458   1.959   5.284  0.9712  1.1285 -0.1127
 9165TIP3   OH227455   1.737   0.435   3.646  0.2853 -0.1932 -0.5303
 9165TIP3    H127456   1.643   0.441   3.631  0.3336  2.7103 -0.0786
 9165TIP3    H227457   1.746   0.433   3.742  0.6833 -2.4508 -0.5412
 9166TIP3   OH227458   4.576   6.967   2.058  0.3042  0.0389  0.1324
 9166TIP3    H127459   4.592   7.052   2.017 -0.7113 -0.0623 -0.5037
 9166TIP3    H227460   4.533   6.915   1.990  0.0689 -0.6855  0.8126
 9167TIP3   OH227461   4.052   5.770   4.280 -0.1684  0.0827  0.3213
 9167TIP3    H127462   4.093   5.851   4.311 -1.0379  0.2316  1.1467
 9167TIP3    H227463   3.982   5.754   4.343 -0.5520 -0.8539 -0.3291
 9168TIP3   OH227464   4.464   2.919   4.844 -0.0552 -0.2589  0.0191
 9168TIP3    H127465   4.542   2.868   4.863  0.6021  0.4329 -0.7112
 9168TIP3    H227466   4.397   2.854   4.824  0.3598 -0.8600  0.5573
 9169TIP3   OH227467   7.434   4.105   5.625  0.6477 -0.6073  0.3110
 9169TIP3    H127468   7.423   4.012   5.645 -0.9912 -0.2655  1.1827
 9169TIP3    H227469   7.396   4.115   5.537 -0.5259 -0.5326  0.8062
 9170TIP3   OH227470   6.344   2.279   3.293  0.0283 -0.6164  0.0909
 9170TIP3    H127471   6.363   2.191   3.325 -0.8735 -1.1537 -0.7983
 9170TIP3    H227472   6.258   2.300   3.330  0.1351 -0.2014  0.1127
 9171TIP3   OH227473   0.583   1.508   4.504 -0.1041  0.0520  0.0839
 9171TIP3    H127474   0.652   1.575   4.501 -1.6613  1.8048 -4.3327
 9171TIP3    H227475   0.509   1.553   4.544 -0.6801  0.5801 -1.4926
 9172TIP3   OH227476   1.100   4.629   5.807  0.6047 -0.6600  0.3571
 9172TIP3    H127477   1.131   4.669   5.888  2.5040 -2.2271  0.4960
 9172TIP3    H227478   1.164   4.560   5.789 -1.4238 -2.3600 -0.8481
 9173TIP3   OH227479   1.312   2.102   0.034  0.2232 -0.1593  0.2696
 9173TIP3    H127480   1.346   2.012   0.036  0.3092 -0.2279 -1.7121
 9173TIP3    H227481   1.358   2.147   0.104  0.4110 -1.5781  1.1023
 9174TIP3   OH227482   1.401   0.856   0.504  0.2869 -0.3535 -0.1734
 9174TIP3    H127483   1.446   0.884   0.584 -1.5316  0.9068  0.4732
 9174TIP3    H227484   1.406   0.932   0.446 -0.6139 -0.3275 -0.2346
 9175TIP3   OH227485   0.277   1.997   3.140 -0.1297 -0.1696  0.0589
 9175TIP3    H127486   0.317   2.027   3.058 -0.4764 -1.1100 -0.4681
 9175TIP3    H227487   0.184   2.014   3.129 -0.0971  0.4111  0.5874
 9176TIP3   OH227488   4.949   3.020   3.594 -0.2686 -0.1047  0.7116
 9176TIP3    H127489   4.983   3.109   3.595  2.0858 -0.8754 -0.9536
 9176TIP3    H227490   4.895   3.014   3.673  1.0522  2.2258  1.9103
 9177TIP3   OH227491   0.916   1.868   3.997  0.6685  0.1157  0.7226
 9177TIP3    H127492   0.868   1.857   4.079 -0.6263  1.1165  0.1401
 9177TIP3    H227493   0.963   1.950   4.009  0.1083  0.5047  0.3112
 9178TIP3   OH227494   2.689   0.330   5.327  0.2734 -0.1185 -0.2159
 9178TIP3    H127495   2.620   0.361   5.386  1.0598 -0.6170  1.0292
 9178TIP3    H227496   2.666   0.239   5.310 -0.1037  0.1056 -0.9222
 9179TIP3   OH227497   2.237   0.729   1.365 -0.1725 -0.0632  0.2401
 9179TIP3    H127498   2.267   0.666   1.300  0.1800  1.7368 -1.4362
 9179TIP3    H227499   2.259   0.815   1.328  2.6409  1.0849  3.9599
 9180TIP3   OH227500   3.136   5.734   0.698  0.2321 -0.1402  0.2402
 9180TIP3    H127501   3.153   5.718   0.791 -0.5177  0.9939  0.5883
 9180TIP3    H227502   3.043   5.756   0.694 -0.0606 -1.4624 -0.9677
 9181TIP3   OH227503   1.264   1.137   3.792 -0.2456  0.4492 -0.2452
 9181TIP3    H127504   1.322   1.099   3.858  0.3812  1.6231 -0.0857
 9181TIP3    H227505   1.176   1.109   3.818  0.2068 -1.1472 -0.3461
 9182TIP3   OH227506   2.136   6.953   5.196 -0.5859 -0.1021  0.5982
 9182TIP3    H127507   2.058   6.995   5.232 -0.2336  1.5142 -0.3950
 9182TIP3    H227508   2.208   6.985   5.251 -0.5588 -1.3127  1.2966
 9183TIP3   OH227509   6.950   5.240   3.993 -0.4326 -0.1233  0.3672
 9183TIP3    H127510   7.018   5.259   4.058 -1.6215  0.4852  1.4929
 9183TIP3    H227511   6.951   5.145   3.984  1.2526 -0.0633 -0.4357
 9184TIP3   OH227512   7.067   3.661   3.970  0.2137 -0.1191  0.1150
 9184TIP3    H127513   7.046   3.727   3.904 -1.0557 -0.1075  0.5008
 9184TIP3    H227514   7.131   3.704   4.028  0.4315  0.2834 -0.4202
 9185TIP3   OH227515   2.591   3.228   0.906  0.1569  0.0134  0.6295
 9185TIP3    H127516   2.673   3.246   0.953 -0.1750 -1.5809  1.9283
 9185TIP3    H227517   2.535   3.187   0.972 -0.7227 -1.3694 -0.9300
 9186TIP3   OH227518   0.828   0.285   2.578 -0.4897  0.3255 -0.5494
 9186TIP3    H127519   0.914   0.256   2.550 -0.2560 -0.2651  0.6939
 9186TIP3    H227520   0.838   0.304   2.672 -1.8671 -0.4531 -0.2111
 9187TIP3   OH227521   7.306   3.782   6.144 -0.5120 -0.2655  0.3150
 9187TIP3    H127522   7.296   3.759   6.052 -2.3332 -0.7699  0.5980
 9187TIP3    H227523   7.216   3.792   6.176  0.0972  0.3951  1.9146
 9188TIP3   OH227524   0.525   6.734   0.524  0.2792 -0.1245 -0.0817
 9188TIP3    H127525   0.552   6.662   0.467  1.5675  0.1363  0.1654
 9188TIP3    H227526   0.555   6.813   0.479 -3.3735  0.5709 -1.6556
 9189TIP3   OH227527   4.534   2.926   5.884  0.1347  0.6669  0.2061
 9189TIP3    H127528   4.599   2.982   5.842 -0.1158 -0.1874 -1.3853
 9189TIP3    H227529   4.460   2.984   5.901  0.7238  1.3065  0.6269
 9190TIP3   OH227530   5.990   6.797   6.058  0.0463 -0.3274 -0.2547
 9190TIP3    H127531   5.928   6.730   6.030  0.1916 -0.2436 -0.8028
 9190TIP3    H227532   5.985   6.864   5.989 -1.0430  0.8454  0.9212
 9191TIP3   OH227533   4.857   4.398   2.577 -0.0743  0.0411  0.0419
 9191TIP3    H127534   4.874   4.462   2.646 -0.0423 -0.8729  0.9075
 9191TIP3    H227535   4.893   4.316   2.611  1.1949 -0.1488 -1.6685
 9192TIP3   OH227536   3.956   0.166   6.118 -0.4588 -0.2370 -0.0008
 9192TIP3    H127537   3.962   0.076   6.085 -1.4308 -0.0046 -0.8716
 9192TIP3    H227538   3.873   0.198   6.083 -0.4295  0.7887  0.8434
 9193TIP3   OH227539   4.431   1.759   1.716 -0.1465  0.3586 -0.0823
 9193TIP3    H127540   4.470   1.674   1.698  0.2895  0.3371  0.9086
 9193TIP3    H227541   4.414   1.758   1.810 -3.1267  0.1327 -0.5243
 9194TIP3   OH227542   3.027   0.651   3.166 -0.2318  0.1466  0.4064
 9194TIP3    H127543   3.078   0.615   3.094 -1.1074  0.5725 -0.4517
 9194TIP3    H227544   3.047   0.594   3.240 -0.3316 -1.1215 -0.5011
 9195TIP3   OH227545   4.068   6.463   2.250 -0.3890  0.0129  0.0987
 9195TIP3    H127546   3.984   6.505   2.234  1.3113  2.8562 -2.6315
 9195TIP3    H227547   4.123   6.534   2.285  1.5704 -0.9718 -0.8479
 9196TIP3   OH227548   1.284   3.309   0.075 -0.7963  0.2266 -0.9712
 9196TIP3    H127549   1.222   3.376   0.104 -1.4542 -0.6402 -0.3245
 9196TIP3    H227550   1.250   3.227   0.112  0.7701 -0.2624 -0.5499
 9197TIP3   OH227551   4.589   5.849   4.208 -0.4663  0.5985 -0.3231
 9197TIP3    H127552   4.501   5.845   4.171 -0.8585  2.1293  0.3506
 9197TIP3    H227553   4.644   5.804   4.144 -1.8001 -0.9099 -0.4727
 9198TIP3   OH227554   0.769   5.415   1.300  0.7520 -0.2096 -0.0346
 9198TIP3    H127555   0.713   5.389   1.227 -1.2496 -0.4043  1.4908
 9198TIP3    H227556   0.810   5.496   1.271 -1.6371  0.8613 -0.6306
 9199TIP3   OH227557   5.522   2.937   0.524  0.0535 -0.2599  0.3355
 9199TIP3    H127558   5.512   2.891   0.441 -1.6707 -0.0671  0.4132
 9199TIP3    H227559   5.538   2.867   0.588  0.7804 -0.4536 -0.0469
 9200TIP3   OH227560   0.743   0.993   1.972 -0.0626  0.1768  0.2162
 9200TIP3    H127561   0.838   0.977   1.975 -0.0378  0.2412 -0.1405
 9200TIP3    H227562   0.706   0.910   1.941 -0.3206 -0.5319  2.2479
 9201TIP3   OH227563   5.585   5.269   0.124 -0.5415 -0.9287 -0.0731
 9201TIP3    H127564   5.634   5.190   0.104 -2.5022 -1.9295 -1.1965
 9201TIP3    H227565   5.495   5.239   0.140 -0.9249  0.8556  1.4945
 9202TIP3   OH227566   0.054   3.325   0.755  0.6011  0.6325 -0.9040
 9202TIP3    H127567   0.104   3.313   0.835 -1.6986 -0.4927  0.4454
 9202TIP3    H227568   0.073   3.247   0.703 -0.8766 -0.5366  0.2655
 9203TIP3   OH227569   2.294   1.212   2.497  0.2125  0.3505  0.0942
 9203TIP3    H127570   2.284   1.138   2.557  0.5505  0.2121 -0.0202
 9203TIP3    H227571   2.354   1.180   2.430 -0.0204  0.5681 -0.2165
 9204TIP3   OH227572   6.115   1.145   6.128 -0.5794  0.5234  0.3553
 9204TIP3    H127573   6.156   1.182   6.205  2.5389 -0.7580 -0.5135
 9204TIP3    H227574   6.128   1.050   6.137 -3.7189 -0.0426  0.0938
 9205TIP3   OH227575   0.694   0.169   3.294  0.2347 -0.7528  0.0748
 9205TIP3    H127576   0.673   0.205   3.380  1.4037  1.2791 -0.4171
 9205TIP3    H227577   0.685   0.243   3.234 -0.6355 -2.1459 -1.5926
 9206TIP3   OH227578   3.838   6.109   5.944  0.1382 -0.4104 -0.4921
 9206TIP3    H127579   3.779   6.050   5.991  0.6064 -1.8437 -1.6269
 9206TIP3    H227580   3.914   6.055   5.922  1.6776  1.2523  0.4547
 9207TIP3   OH227581   3.194   0.873   3.329 -0.1608  0.5830  0.4730
 9207TIP3    H127582   3.218   0.897   3.240 -1.5525 -1.6505 -0.6047
 9207TIP3    H227583   3.275   0.843   3.368  0.3860  1.1599 -0.1957
 9208TIP3   OH227584   2.742   3.501   4.043 -0.5079 -0.3726  0.1799
 9208TIP3    H127585   2.756   3.424   4.099 -2.6588 -1.8444 -1.1136
 9208TIP3    H227586   2.691   3.561   4.098  0.3343 -0.2690  0.8765
 9209TIP3   OH227587   7.244   4.616   3.246  0.1485  0.4003 -0.0945
 9209TIP3    H127588   7.219   4.538   3.296  1.4996 -0.4052 -0.6220
 9209TIP3    H227589   7.196   4.688   3.288  0.2632 -0.4338  1.5532
 9210TIP3   OH227590   0.297   5.403   4.032 -0.6490 -0.0348  0.6804
 9210TIP3    H127591   0.295   5.383   3.938  2.4755 -1.4509  0.7807
 9210TIP3    H227592   0.358   5.339   4.068 -0.6881  1.3825  3.4746
 9211TIP3   OH227593   1.262   2.262   4.539  0.0064  0.0815  0.0008
 9211TIP3    H127594   1.335   2.267   4.601  1.4402  1.0883 -1.6853
 9211TIP3    H227595   1.206   2.194   4.575  2.6700 -2.0729  0.4607
 9212TIP3   OH227596   4.330   6.320   1.457  0.9144  0.8963  0.0498
 9212TIP3    H127597   4.350   6.253   1.392 -1.2145 -0.0711  0.3168
 9212TIP3    H227598   4.416   6.347   1.491  1.9771  0.2576 -1.9566
 9213TIP3   OH227599   3.869   5.006   0.694  0.1011  0.2503 -0.0165
 9213TIP3    H127600   3.907   4.932   0.742 -1.4929 -0.4311  0.2611
 9213TIP3    H227601   3.795   4.968   0.646 -0.6304  1.6311 -0.0185
 9214TIP3   OH227602   7.239   0.583   6.028  0.4598  0.2037  0.2204
 9214TIP3    H127603   7.271   0.641   5.958 -0.7411  0.7886  0.1144
 9214TIP3    H227604   7.149   0.562   6.001  0.2743 -0.2516  1.1687
 9215TIP3   OH227605   1.971   0.629   0.842  0.2829  0.2307  0.2419
 9215TIP3    H127606   1.953   0.600   0.931 -1.7068 -1.1861 -0.5794
 9215TIP3    H227607   2.045   0.575   0.814  1.2679  1.0434  1.1573
 9216TIP3   OH227608   5.247   1.557   0.790 -0.8522 -0.0903  0.1782
 9216TIP3    H127609   5.323   1.615   0.781 -0.7856  0.0642  1.4493
 9216TIP3    H227610   5.257   1.493   0.720 -1.1242  1.6169 -1.5135
 9217TIP3   OH227611   1.783   4.861   4.410 -0.4245  0.4163 -0.0734
 9217TIP3    H127612   1.708   4.882   4.354 -0.0332 -0.1833 -0.8449
 9217TIP3    H227613   1.777   4.923   4.483 -0.7051  1.5049 -0.9999
 9218TIP3   OH227614   7.009   3.365   0.382  0.4058  0.1001 -0.3031
 9218TIP3    H127615   7.030   3.272   0.383 -0.6302 -0.1563  0.9443
 9218TIP3    H227616   6.948   3.376   0.310 -1.0562 -0.6022  0.7835
 9219TIP3   OH227617   2.797   2.412   3.109  0.6926  0.1900  0.1128
 9219TIP3    H127618   2.715   2.412   3.059 -0.2480 -0.0046  1.5805
 9219TIP3    H227619   2.789   2.337   3.168  2.2759 -0.2860 -0.2470
 9220TIP3   OH227620   2.840   6.359   0.697 -0.0886  0.4756 -0.7103
 9220TIP3    H127621   2.895   6.328   0.625 -0.6798  1.1503 -1.4613
 9220TIP3    H227622   2.801   6.440   0.665  1.0730  1.8132  1.0383
 9221TIP3   OH227623   4.365   0.328   0.413 -0.3567  0.4663 -0.3357
 9221TIP3    H127624   4.280   0.341   0.455  0.0476  2.4256 -0.0315
 9221TIP3    H227625   4.412   0.267   0.471 -1.3819 -0.2885 -0.2859
 9222TIP3   OH227626   2.379   6.374   2.719 -0.0618  0.4182 -0.4302
 9222TIP3    H127627   2.431   6.337   2.789 -0.6658  1.2505  0.4835
 9222TIP3    H227628   2.332   6.300   2.681 -0.3223  0.0664  0.5593
 9223TIP3   OH227629   0.462   2.490   1.692  0.8669  0.0295 -0.1421
 9223TIP3    H127630   0.426   2.418   1.744  0.8592  1.1852  1.5362
 9223TIP3    H227631   0.389   2.551   1.682  1.6446  1.2273  1.1434
 9224TIP3   OH227632   1.257   6.512   3.294  0.7902  0.5370 -0.0809
 9224TIP3    H127633   1.168   6.492   3.324  1.1667  1.4619  1.8025
 9224TIP3    H227634   1.283   6.588   3.345  2.5424  0.5182 -0.8690
 9225TIP3   OH227635   3.653   0.655   0.246  0.1110  0.0073  0.1321
 9225TIP3    H127636   3.558   0.664   0.234  0.3741  1.5149 -1.1820
 9225TIP3    H227637   3.667   0.561   0.251 -1.4598 -0.2516  0.4961
 9226TIP3   OH227638   0.421   1.104   5.065  0.9713 -0.6597 -0.3325
 9226TIP3    H127639   0.468   1.188   5.060 -0.1473  0.0356  0.5492
 9226TIP3    H227640   0.329   1.127   5.055  0.7400 -1.9833 -1.7100
 9227TIP3   OH227641   5.433   6.124   0.904  0.1850  0.1230  0.8730
 9227TIP3    H127642   5.419   6.070   0.826 -0.2518  0.1992  0.8983
 9227TIP3    H227643   5.520   6.099   0.935 -0.8423 -2.1769  2.1355
 9228TIP3   OH227644   3.884   5.834   5.591 -0.0138  0.1938 -0.2737
 9228TIP3    H127645   3.914   5.743   5.596  2.3900  0.9740  1.5704
 9228TIP3    H227646   3.835   5.846   5.672  0.8643  0.8682  0.1770
 9229TIP3   OH227647   0.137   6.309   5.307 -0.7942 -0.2393 -0.3494
 9229TIP3    H127648   0.171   6.257   5.380 -0.5030 -0.3133 -0.5359
 9229TIP3    H227649   0.122   6.396   5.344 -2.1845 -0.6880  0.2137
 9230TIP3   OH227650   5.943   4.384   4.697 -0.4016  0.1371 -0.2210
 9230TIP3    H127651   6.002   4.427   4.635 -0.4519 -1.6788 -1.6093
 9230TIP3    H227652   5.999   4.324   4.746 -0.5996  0.5789  0.5530
 9231TIP3   OH227653   5.957   3.667   1.865 -0.4676  0.2375 -0.5467
 9231TIP3    H127654   6.015   3.592   1.879 -1.3688 -0.7214 -1.6932
 9231TIP3    H227655   5.883   3.631   1.815 -1.4563  1.6738 -0.1879
 9232TIP3   OH227656   0.880   1.675   2.867 -0.0107 -0.3395  0.2019
 9232TIP3    H127657   0.921   1.657   2.951  0.2655  1.4466  0.4933
 9232TIP3    H227658   0.915   1.608   2.808  1.9325  0.0278  0.8727
 9233TIP3   OH227659   5.008   5.224   0.138 -0.4288  0.0063 -0.1334
 9233TIP3    H127660   5.010   5.302   0.194  1.4388  0.8668 -1.2846
 9233TIP3    H227661   4.991   5.258   0.050 -0.6843 -1.0191 -0.4995
 9234TIP3   OH227662   4.471   1.102   0.736  0.1947  0.8841 -0.1954
 9234TIP3    H127663   4.504   1.153   0.663  1.6759  0.7021  0.3133
 9234TIP3    H227664   4.467   1.164   0.809  1.4781  0.4454  0.2824
 9235TIP3   OH227665   1.851   1.503   1.309  0.0635  0.0373  0.6043
 9235TIP3    H127666   1.922   1.439   1.309  0.3737  0.3603 -0.2774
 9235TIP3    H227667   1.783   1.463   1.364 -0.0524 -1.4176 -0.5108
 9236TIP3   OH227668   3.776   3.026   3.330  0.0379  0.2838  0.3438
 9236TIP3    H127669   3.762   2.949   3.385 -1.3655  0.5062  0.3418
 9236TIP3    H227670   3.862   3.013   3.292 -0.1259 -1.2400  0.4297
 9237TIP3   OH227671   4.702   4.535   0.383  0.4956  0.2927 -0.0752
 9237TIP3    H127672   4.617   4.494   0.367  0.0960  0.7631  0.7625
 9237TIP3    H227673   4.722   4.513   0.474  1.1296  0.4465 -0.1726
 9238TIP3   OH227674   6.542   7.043   5.710  0.4108 -0.1464 -0.0865
 9238TIP3    H127675   6.543   7.079   5.621  0.8116  1.3528  0.4913
 9238TIP3    H227676   6.599   6.967   5.706 -2.0569 -2.0610 -1.8487
 9239TIP3   OH227677   0.104   0.763   2.146  0.1863 -0.5006  0.1445
 9239TIP3    H127678   0.138   0.695   2.203 -0.0284  0.0887  0.9866
 9239TIP3    H227679   0.094   0.840   2.202  1.9051  0.7077 -1.0973
 9240TIP3   OH227680   3.565   2.925   0.488  0.3840  0.0678  0.3355
 9240TIP3    H127681   3.546   2.912   0.581 -0.3466 -0.2109  0.1563
 9240TIP3    H227682   3.605   3.012   0.484  2.9306 -0.9561  1.2175
 9241TIP3   OH227683   6.219   0.676   5.785 -0.0469 -0.5628 -0.1173
 9241TIP3    H127684   6.283   0.612   5.756 -0.1571 -0.7345  0.0175
 9241TIP3    H227685   6.136   0.629   5.786 -0.5006  0.1306 -2.0454
 9242TIP3   OH227686   1.807   0.429   5.165 -0.1400  0.1238 -1.1572
 9242TIP3    H127687   1.774   0.442   5.076 -0.4199  0.7019 -0.9778
 9242TIP3    H227688   1.729   0.406   5.216  0.0766 -0.5595 -1.1275
 9243TIP3   OH227689   3.608   4.637   5.954 -0.4406 -0.0700  0.5358
 9243TIP3    H127690   3.522   4.624   5.993 -1.6934  1.4478 -1.5190
 9243TIP3    H227691   3.613   4.573   5.883  1.4148 -2.1424  2.3524
 9244TIP3   OH227692   0.882   0.267   4.293  0.2738  0.3038  0.3798
 9244TIP3    H127693   0.977   0.253   4.295 -0.0407 -2.1337  1.0741
 9244TIP3    H227694   0.848   0.197   4.238 -1.2515  0.2409  1.3306
 9245TIP3   OH227695   4.647   5.085   3.796 -0.1421  0.3531 -0.4771
 9245TIP3    H127696   4.653   5.179   3.776  0.5733  0.9147  2.0099
 9245TIP3    H227697   4.654   5.042   3.711 -1.2117  2.5582 -1.7611
 9246TIP3   OH227698   5.368   3.958   4.543  0.1050 -0.7050 -0.1185
 9246TIP3    H127699   5.367   3.884   4.603  0.5001  0.2399  1.0843
 9246TIP3    H227700   5.377   4.035   4.599 -0.8932  0.3083 -1.2926
 9247TIP3   OH227701   0.283   6.673   5.304  0.0995  0.2359 -0.1178
 9247TIP3    H127702   0.248   6.619   5.375  0.6961  0.6073  0.4728
 9247TIP3    H227703   0.339   6.614   5.254  0.2099  0.1387  0.1187
 9248TIP3   OH227704   5.572   3.683   6.199 -0.4858 -0.8380 -0.3506
 9248TIP3    H127705   5.653   3.721   6.164 -0.1029 -0.9207  0.4216
 9248TIP3    H227706   5.524   3.653   6.122 -2.2943  3.8925 -1.4424
 9249TIP3   OH227707   3.215   6.095   3.299 -0.5599  0.0216 -0.0807
 9249TIP3    H127708   3.194   6.154   3.227 -0.9318  0.1896  0.1636
 9249TIP3    H227709   3.130   6.063   3.330 -0.3436 -0.9983 -0.5038
 9250TIP3   OH227710   0.963   1.400   4.373 -0.0185 -0.3620 -0.1641
 9250TIP3    H127711   1.020   1.376   4.300 -0.8586  1.1591 -1.3842
 9250TIP3    H227712   0.881   1.355   4.355 -0.0880 -0.3481  0.1072
 9251TIP3   OH227713   1.758   4.906   2.090  0.4515 -0.1897  0.1498
 9251TIP3    H127714   1.672   4.934   2.057  0.5679  0.1854  0.1589
 9251TIP3    H227715   1.819   4.972   2.057  1.1522 -1.8258 -2.1013
 9252TIP3   OH227716   6.484   5.269   0.661  0.8782 -0.2590  0.3229
 9252TIP3    H127717   6.509   5.360   0.643 -0.2801  0.1367  0.6099
 9252TIP3    H227718   6.518   5.219   0.586 -1.1323  0.8787 -1.4821
 9253TIP3   OH227719   5.770   2.499   1.006 -0.1229 -0.4856  0.0194
 9253TIP3    H127720   5.686   2.453   1.001 -1.5408  1.8969 -0.0187
 9253TIP3    H227721   5.794   2.495   1.099  0.0334 -1.6531 -0.0610
 9254TIP3   OH227722   2.218   6.048   3.727  0.3607 -0.1047  0.2893
 9254TIP3    H127723   2.259   6.037   3.641  0.5024 -1.9791  0.5522
 9254TIP3    H227724   2.141   6.102   3.711  1.3718  1.0763 -0.6957
 9255TIP3   OH227725   0.511   0.854   1.037  0.5438  0.1215  0.3047
 9255TIP3    H127726   0.440   0.802   1.075 -0.4759  1.6197  0.5320
 9255TIP3    H227727   0.583   0.844   1.099  0.6322 -1.5876 -0.0376
 9256TIP3   OH227728   0.305   1.539   3.723 -0.0019  0.5407 -0.0815
 9256TIP3    H127729   0.393   1.560   3.755  0.2451 -0.8196  0.2232
 9256TIP3    H227730   0.248   1.604   3.762  0.7977  1.1122  0.1601
 9257TIP3   OH227731   0.662   3.292   0.395  0.0735  0.3191  0.4889
 9257TIP3    H127732   0.690   3.372   0.349 -0.9717 -0.5526 -1.8008
 9257TIP3    H227733   0.588   3.260   0.344  0.0257 -1.7512  1.7649
 9258TIP3   OH227734   7.277   3.797   5.146  0.2163 -0.2505  0.3217
 9258TIP3    H127735   7.340   3.865   5.124  1.2219 -0.7534  1.5414
 9258TIP3    H227736   7.258   3.811   5.239  1.1317 -2.1394  0.8370
 9259TIP3   OH227737   3.798   4.808   0.167 -0.2509  0.0468 -0.2125
 9259TIP3    H127738   3.715   4.845   0.138 -0.2182  1.3846  1.2754
 9259TIP3    H227739   3.824   4.747   0.097 -2.0413  0.2495 -1.0845
 9260TIP3   OH227740   3.755   6.336   5.404 -0.1779  0.2289  0.0309
 9260TIP3    H127741   3.766   6.243   5.422  0.9319  0.3394 -0.0006
 9260TIP3    H227742   3.832   6.378   5.444 -1.3497  1.3039  1.2870
 9261TIP3   OH227743   6.639   1.641   3.585  0.2914  0.2972 -0.2002
 9261TIP3    H127744   6.549   1.637   3.552  0.7864  0.2360 -1.5747
 9261TIP3    H227745   6.689   1.582   3.530  1.3682  1.0436 -0.0680
 9262TIP3   OH227746   0.436   0.103   2.402  0.0710  0.2126  0.7377
 9262TIP3    H127747   0.403   0.108   2.312  2.0352 -1.0218 -0.1218
 9262TIP3    H227748   0.383   0.033   2.442  1.9032 -2.2780 -0.8519
 9263TIP3   OH227749   0.262   4.513   2.150 -0.4892  0.0626 -0.1272
 9263TIP3    H127750   0.178   4.512   2.104 -1.3681 -1.2773  1.3829
 9263TIP3    H227751   0.249   4.456   2.225  1.7552 -0.0621  0.2486
 9264TIP3   OH227752   1.605   6.391   4.376  0.2749 -0.0741  0.8006
 9264TIP3    H127753   1.637   6.331   4.443 -1.4966 -0.4831  1.3489
 9264TIP3    H227754   1.541   6.340   4.327  2.7539 -0.3890 -2.4762
 9265TIP3   OH227755   0.215   5.623   5.808 -0.6622  0.1553  0.1064
 9265TIP3    H127756   0.239   5.541   5.763  0.3727 -0.2446  1.3342
 9265TIP3    H227757   0.294   5.647   5.856 -0.7290  2.2700 -0.7614
 9266TIP3   OH227758   0.763   4.236   5.481  0.1088 -0.0212 -0.0031
 9266TIP3    H127759   0.711   4.171   5.527  0.5019 -0.2194  0.1691
 9266TIP3    H227760   0.798   4.189   5.405 -0.0344  0.1351 -0.1669
 9267TIP3   OH227761   4.538   5.592   2.378 -0.2277 -0.1209  0.0809
 9267TIP3    H127762   4.622   5.547   2.370  0.5930  0.9836  1.7564
 9267TIP3    H227763   4.482   5.551   2.313  1.9274 -0.1543 -1.8682
 9268TIP3   OH227764   7.443   6.341   1.385 -0.1237 -0.1235  0.0964
 9268TIP3    H127765   7.394   6.284   1.445  0.0885 -0.1222  0.2703
 9268TIP3    H227766   7.508   6.383   1.440  0.7533 -0.9063 -0.3130
 9269TIP3   OH227767   1.140   3.747   1.090 -0.0433 -0.1801  0.0286
 9269TIP3    H127768   1.053   3.709   1.090 -0.8127  1.4864  0.0705
 9269TIP3    H227769   1.189   3.695   1.155 -1.5840  0.1033  1.4921
 9270TIP3   OH227770   2.311   5.988   0.972 -0.0922  0.1360  0.5736
 9270TIP3    H127771   2.350   5.936   0.903  2.1000  1.7682  0.4771
 9270TIP3    H227772   2.273   5.924   1.033 -2.3322 -1.3386 -2.1613
 9271TIP3   OH227773   5.353   3.496   0.661  0.2414 -0.1318 -0.2755
 9271TIP3    H127774   5.294   3.523   0.732  0.9342  0.8527 -0.0640
 9271TIP3    H227775   5.428   3.457   0.707  0.6250  0.3766 -0.4621
 9272TIP3   OH227776   0.045   0.230   5.320 -0.0222  0.4783  0.3425
 9272TIP3    H127777   0.074   0.156   5.374 -0.8767  0.6017  0.9932
 9272TIP3    H227778  -0.009   0.283   5.379  3.3866  3.6247  1.0368
 9273TIP3   OH227779   5.008   3.683   1.211  0.0884 -0.1113 -0.2500
 9273TIP3    H127780   4.990   3.721   1.297  1.0369  1.5529 -0.7171
 9273TIP3    H227781   5.104   3.687   1.203  0.1146 -1.4591 -0.8710
 9274TIP3   OH227782   7.440   5.770   4.295  0.1692 -0.4109 -0.4510
 9274TIP3    H127783   7.453   5.831   4.223 -1.4360 -0.1652 -0.5753
 9274TIP3    H227784   7.388   5.699   4.257 -1.7749  0.3170  0.7011
 9275TIP3   OH227785   3.434   1.976   0.645  0.6330 -0.2758  0.2328
 9275TIP3    H127786   3.521   1.997   0.678  0.4058  0.2908  0.4885
 9275TIP3    H227787   3.375   2.001   0.715  0.2507 -0.4950 -0.0076
 9276TIP3   OH227788   7.459   1.496   1.222 -0.2162  0.0579  0.5078
 9276TIP3    H127789   7.482   1.413   1.265  1.4423  0.5289  0.6039
 9276TIP3    H227790   7.543   1.531   1.193 -0.9691  1.4103 -0.0853
 9277TIP3   OH227791   4.368   1.755   1.999  0.1405  0.2397  0.0857
 9277TIP3    H127792   4.424   1.692   2.045 -1.0720 -0.8380  0.1144
 9277TIP3    H227793   4.279   1.729   2.021 -0.4155  2.4099  0.6933
 9278TIP3   OH227794   3.966   0.693   1.427  0.2247 -0.0035  0.1088
 9278TIP3    H127795   3.920   0.770   1.460  0.6839 -0.3066  1.4929
 9278TIP3    H227796   3.904   0.621   1.439  0.4770 -0.1526  0.5210
 9279TIP3   OH227797   0.861   7.031   5.112  0.3186  0.2001 -0.1679
 9279TIP3    H127798   0.934   7.013   5.053 -0.3230 -0.3017 -0.8306
 9279TIP3    H227799   0.815   6.947   5.119  1.0890 -0.0986  2.0683
 9280TIP3   OH227800   0.844   1.923   5.920 -0.7678  0.7604  0.2641
 9280TIP3    H127801   0.787   1.874   5.861  0.9467 -0.1924 -0.6956
 9280TIP3    H227802   0.824   2.014   5.902 -1.7775  0.4590 -0.2342
 9281TIP3   OH227803   1.730   5.602   5.412 -0.0354  0.4354  0.1369
 9281TIP3    H127804   1.707   5.568   5.326 -1.3556 -0.0962  0.6625
 9281TIP3    H227805   1.740   5.525   5.467  2.2166  0.6988  0.1732
 9282TIP3   OH227806   1.506   0.194   4.271  0.2944  0.4067 -0.3851
 9282TIP3    H127807   1.507   0.107   4.312  1.5706  1.1026  1.1476
 9282TIP3    H227808   1.598   0.211   4.252 -0.0381  1.1033 -1.4465
 9283TIP3   OH227809   0.399   2.946   0.241 -0.0438 -0.0903 -0.1929
 9283TIP3    H127810   0.405   3.037   0.213  0.5638 -0.1508 -0.2634
 9283TIP3    H227811   0.323   2.944   0.300 -0.5619  0.2864 -0.8421
 9284TIP3   OH227812   6.129   2.806   0.195  0.5217 -0.7804 -0.3098
 9284TIP3    H127813   6.074   2.876   0.230  1.5738  0.7238 -1.5072
 9284TIP3    H227814   6.070   2.751   0.144  0.0731  0.8298 -1.6136
 9285TIP3   OH227815   3.507   0.860   5.020 -0.0892  0.2947 -0.1884
 9285TIP3    H127816   3.542   0.949   5.026  1.0089 -0.1031 -0.3707
 9285TIP3    H227817   3.429   0.861   5.075  0.5672  1.0543  0.7634
 9286TIP3   OH227818   5.798   4.819   3.744 -0.2685  0.1476  0.1510
 9286TIP3    H127819   5.820   4.897   3.795  0.3065 -0.0363  0.1889
 9286TIP3    H227820   5.860   4.818   3.672 -0.5616 -0.0372 -0.1043
 9287TIP3   OH227821   5.715   0.152   2.365 -0.1998  0.2141 -0.5619
 9287TIP3    H127822   5.796   0.106   2.344  0.3899  0.6655  0.6590
 9287TIP3    H227823   5.680   0.179   2.280  0.6007 -0.5185 -1.1395
 9288TIP3   OH227824   2.247   3.635   4.805  0.4180 -0.0992  0.2997
 9288TIP3    H127825   2.171   3.673   4.848 -1.7521 -0.4679 -2.8576
 9288TIP3    H227826   2.239   3.541   4.822  0.3785 -0.0935  0.3138
 9289TIP3   OH227827   5.311   4.781   4.432  0.3985  0.0251  0.3070
 9289TIP3    H127828   5.237   4.827   4.471  1.9096 -0.5252  4.2291
 9289TIP3    H227829   5.276   4.696   4.405 -0.8214  0.6259 -0.0841
 9290TIP3   OH227830   1.085   3.289   5.897 -0.8083 -0.3728 -0.0734
 9290TIP3    H127831   1.147   3.271   5.827  0.2182  0.4854  0.5888
 9290TIP3    H227832   1.023   3.216   5.893  1.3276 -2.3403  0.4577
 9291TIP3   OH227833   3.064   6.973   2.797  0.3514  0.1185  0.2320
 9291TIP3    H127834   3.092   7.057   2.834 -0.2761  0.5976 -0.3475
 9291TIP3    H227835   3.141   6.940   2.752  0.5542  0.4692  0.3122
 9292TIP3   OH227836   0.259   5.449   4.912  0.3093 -0.7573 -0.2845
 9292TIP3    H127837   0.238   5.455   4.819  0.4874  1.5661 -0.2217
 9292TIP3    H227838   0.339   5.397   4.915  0.1077 -1.1605 -1.3917
 9293TIP3   OH227839   2.831   6.493   2.650  0.0707 -0.2915  0.0960
 9293TIP3    H127840   2.791   6.408   2.630 -2.4971  1.1264 -1.3426
 9293TIP3    H227841   2.760   6.556   2.640  2.1155  2.1814  0.0004
 9294TIP3   OH227842   2.047   1.666   5.660 -0.2828 -0.1447  0.8285
 9294TIP3    H127843   2.121   1.723   5.680 -0.2704 -0.4940  1.8361
 9294TIP3    H227844   2.079   1.607   5.592 -0.6580  1.7722 -1.0923
 9295TIP3   OH227845   1.772   5.133   5.426 -0.4703  0.1871  0.2689
 9295TIP3    H127846   1.754   5.119   5.519 -1.4789 -0.0613  0.0398
 9295TIP3    H227847   1.687   5.131   5.383 -0.2249  2.1028 -0.4501
 9296TIP3   OH227848   0.487   0.675   0.769 -0.6121 -0.0013  0.1326
 9296TIP3    H127849   0.523   0.764   0.767  0.9449 -0.5855  0.6500
 9296TIP3    H227850   0.428   0.675   0.844 -2.6148  1.2609 -1.3145
 9297TIP3   OH227851   6.381   3.629   0.577 -0.2171  0.2402 -0.4286
 9297TIP3    H127852   6.311   3.694   0.577 -0.0215  0.4569 -0.7652
 9297TIP3    H227853   6.400   3.615   0.484 -1.3521 -1.4929 -0.4435
 9298TIP3   OH227854   2.563   4.241   4.545  0.0413  0.1639 -0.4019
 9298TIP3    H127855   2.590   4.182   4.475  0.1290  1.4647 -1.5087
 9298TIP3    H227856   2.467   4.237   4.544  0.0538 -0.3172 -0.1362
 9299TIP3   OH227857   1.866   1.797   2.147  0.0788 -0.6584 -0.3903
 9299TIP3    H127858   1.864   1.702   2.134  0.6392 -0.5401 -1.4441
 9299TIP3    H227859   1.959   1.819   2.152 -0.0382 -0.3955  1.9453
 9300TIP3   OH227860   6.095   1.710   5.041  0.2347  0.1675  0.0354
 9300TIP3    H127861   6.087   1.801   5.013 -0.9296 -0.1739 -0.8224
 9300TIP3    H227862   6.169   1.676   4.991  1.1614  0.8191  0.9174
 9301TIP3   OH227863   6.002   5.990   2.660 -0.1632 -0.5498 -0.1534
 9301TIP3    H127864   5.907   6.001   2.661 -0.1165  0.0325 -1.1429
 9301TIP3    H227865   6.029   6.015   2.572  1.0416  0.4527  0.4531
 9302TIP3   OH227866   6.956   2.115   4.013  0.2620 -0.0752  0.1057
 9302TIP3    H127867   7.005   2.128   4.095 -0.7819 -0.1817  0.7713
 9302TIP3    H227868   6.894   2.045   4.034 -0.6365  0.5282 -0.4923
 9303TIP3   OH227869   5.220   0.466   0.219  0.4664 -0.0667 -0.6128
 9303TIP3    H127870   5.223   0.526   0.292  1.7797 -0.7927 -0.0413
 9303TIP3    H227871   5.211   0.522   0.142  0.1758  0.7615  0.0125
 9304TIP3   OH227872   7.435   2.136   1.935 -0.6526  0.1259 -0.2118
 9304TIP3    H127873   7.490   2.088   1.872  0.5118  0.6672  0.3667
 9304TIP3    H227874   7.488   2.211   1.960 -1.7142  0.7169  0.3042
 9305TIP3   OH227875   4.480   6.803   5.984 -0.0340  0.2628 -0.3834
 9305TIP3    H127876   4.550   6.868   5.989 -0.3211  0.5791 -0.4868
 9305TIP3    H227877   4.400   6.851   6.008 -0.4262  0.2234 -1.5517
 9306TIP3   OH227878   2.131   6.547   2.725  0.3413  0.2837  0.2846
 9306TIP3    H127879   2.144   6.617   2.788  1.6419  1.1422 -0.8717
 9306TIP3    H227880   2.217   6.505   2.717  0.1882  0.1359 -0.8174
 9307TIP3   OH227881   0.021   4.245   1.239  0.0164 -0.1926 -0.2051
 9307TIP3    H127882   0.008   4.304   1.314 -0.3665 -0.2074 -0.2608
 9307TIP3    H227883   0.104   4.201   1.258 -0.0653 -0.1764  0.2008
 9308TIP3   OH227884   1.484   0.387   0.839  0.0200  0.7180 -0.3037
 9308TIP3    H127885   1.493   0.291   0.833  3.1020  0.9647 -1.4853
 9308TIP3    H227886   1.562   0.415   0.887 -1.8305  2.5710  1.8106
 9309TIP3   OH227887   6.537   6.847   0.251 -0.1144 -0.5118 -0.5003
 9309TIP3    H127888   6.628   6.837   0.225 -0.1898 -0.1814 -0.9041
 9309TIP3    H227889   6.536   6.925   0.307 -0.1996 -0.3447 -0.7366
 9310TIP3   OH227890   6.825   0.792   5.372 -0.0517  0.1933  0.2379
 9310TIP3    H127891   6.735   0.765   5.387 -0.2828 -1.1266 -2.6454
 9310TIP3    H227892   6.878   0.718   5.403 -0.3714 -1.3968 -2.6505
 9311TIP3   OH227893   1.659   5.397   0.036 -0.4574 -0.2986 -0.1021
 9311TIP3    H127894   1.603   5.447   0.095  0.4115 -0.3656  0.8061
 9311TIP3    H227895   1.711   5.341   0.093 -0.4847 -1.2869 -1.0264
 9312TIP3   OH227896   4.216   5.947   4.373  0.9036 -0.8113 -0.3308
 9312TIP3    H127897   4.274   5.896   4.429 -0.9477 -2.6394  0.0381
 9312TIP3    H227898   4.199   6.027   4.422  0.3089 -1.8292  1.1967
 9313TIP3   OH227899   1.465   2.564   0.626 -0.2926  0.0358  0.0067
 9313TIP3    H127900   1.415   2.637   0.591 -2.4125  0.0404  2.7580
 9313TIP3    H227901   1.435   2.488   0.576 -1.7427  0.3211  0.4239
 9314TIP3   OH227902   2.421   5.057   0.238  0.2805 -0.5174  0.1612
 9314TIP3    H127903   2.370   5.102   0.306 -1.9952 -1.5444 -0.7824
 9314TIP3    H227904   2.444   4.973   0.278  1.2681 -0.0800  0.5632
 9315TIP3   OH227905   2.450   2.783   4.501 -0.0184  0.5239  0.7050
 9315TIP3    H127906   2.529   2.733   4.483 -0.0857  0.1889  1.3217
 9315TIP3    H227907   2.394   2.768   4.425  0.6668  1.1000  0.0716
 9316TIP3   OH227908   6.238   6.927   6.107  0.5078  0.6997  0.5437
 9316TIP3    H127909   6.151   6.900   6.137  0.5131  1.7976  1.6305
 9316TIP3    H227910   6.226   7.017   6.077  0.5870 -0.2041 -2.5704
 9317TIP3   OH227911   7.160   3.486   2.625  0.1126 -0.1219  0.3862
 9317TIP3    H127912   7.153   3.547   2.698  0.8246 -1.5651  1.7177
 9317TIP3    H227913   7.075   3.492   2.581 -0.4751  0.5168  1.5593
 9318TIP3   OH227914   2.041   1.512   5.300  0.6271 -0.1502  0.4613
 9318TIP3    H127915   2.023   1.601   5.330 -1.3484 -0.1323 -0.6740
 9318TIP3    H227916   2.115   1.522   5.239 -0.8988  1.0887 -1.3098
 9319TIP3   OH227917   0.500   2.194   0.826 -0.3007 -0.3869 -0.0393
 9319TIP3    H127918   0.412   2.219   0.853 -0.4130 -1.1513  0.3306
 9319TIP3    H227919   0.557   2.261   0.864 -0.5224 -1.0401  1.5105
 9320TIP3   OH227920   1.924   0.580   0.227 -0.3751 -0.2231 -0.1738
 9320TIP3    H127921   2.009   0.548   0.197  0.9507  0.5047  2.5464
 9320TIP3    H227922   1.905   0.527   0.304 -1.0513  1.4464  0.8532
 9321TIP3   OH227923   1.862   2.616   0.805  0.1856  0.1003  0.5794
 9321TIP3    H127924   1.950   2.603   0.769 -0.4502 -1.1413 -0.5988
 9321TIP3    H227925   1.848   2.710   0.801  0.6651  0.1258 -1.2205
 9322TIP3   OH227926   3.271   5.645   5.508 -0.3149  0.6695  0.1765
 9322TIP3    H127927   3.363   5.619   5.517 -0.8725 -2.2487 -1.2552
 9322TIP3    H227928   3.221   5.566   5.531 -2.3412  1.2655 -1.8012
 9323TIP3   OH227929   3.582   3.843   2.985 -0.3642  0.2191  0.1010
 9323TIP3    H127930   3.495   3.872   2.960 -0.1430  1.1693  0.3983
 9323TIP3    H227931   3.567   3.762   3.034 -1.0334  0.1038 -0.2853
 9324TIP3   OH227932   1.497   2.161   2.278  0.6325 -0.4404 -0.0389
 9324TIP3    H127933   1.453   2.077   2.288 -0.1890 -0.1744 -1.2488
 9324TIP3    H227934   1.435   2.225   2.315  1.5286 -0.4188  1.4713
 9325TIP3   OH227935   1.789   7.185   5.566 -0.2124 -0.1553  0.2643
 9325TIP3    H127936   1.714   7.182   5.626 -1.1411 -0.0859 -0.8648
 9325TIP3    H227937   1.838   7.105   5.585 -3.0304 -2.6715 -2.0195
 9326TIP3   OH227938   7.424   3.146   5.973  0.0319 -0.0201  0.4086
 9326TIP3    H127939   7.422   3.054   6.001  0.5032 -0.0272  0.4228
 9326TIP3    H227940   7.382   3.146   5.887 -1.6059  0.0301  1.1793
 9327TIP3   OH227941   3.803   4.116   1.567 -0.5898  0.4806  0.0229
 9327TIP3    H127942   3.758   4.092   1.648 -2.2514 -0.6291 -1.1546
 9327TIP3    H227943   3.794   4.039   1.511  1.5133  0.7918 -0.8510
 9328TIP3   OH227944   3.909   3.609   5.756 -0.0378 -0.0148  0.1886
 9328TIP3    H127945   3.816   3.630   5.752 -0.3476 -0.4676  3.0625
 9328TIP3    H227946   3.926   3.591   5.849  2.5254 -1.7559 -0.5117
 9329TIP3   OH227947   1.662   0.950   1.555  0.1880 -0.2279  0.2034
 9329TIP3    H127948   1.684   1.040   1.580 -0.4388 -0.0604  0.1722
 9329TIP3    H227949   1.701   0.939   1.468  0.0202  0.1123  0.0838
 9330TIP3   OH227950   2.774   1.104   1.511 -0.4858  0.1543  0.3384
 9330TIP3    H127951   2.699   1.046   1.523  0.1711 -0.8866 -0.3986
 9330TIP3    H227952   2.801   1.127   1.599 -1.0526 -0.2696  0.6327
 9331TIP3   OH227953   1.332   0.525   2.114 -0.6095 -0.2141  0.5628
 9331TIP3    H127954   1.284   0.556   2.038 -1.1234 -1.1960  0.4728
 9331TIP3    H227955   1.286   0.565   2.189 -0.5482  0.1611  0.4046
 9332TIP3   OH227956   4.040   5.956   2.052 -0.4914 -0.5521 -0.3150
 9332TIP3    H127957   4.082   5.877   2.018  0.6246  0.2980 -0.9854
 9332TIP3    H227958   4.030   5.939   2.146 -0.0499 -1.3947 -0.4109
 9333TIP3   OH227959   2.896   6.200   0.267  0.4135  0.4463 -0.3979
 9333TIP3    H127960   2.884   6.112   0.231 -0.2929 -0.2262  1.3608
 9333TIP3    H227961   2.949   6.187   0.346 -1.3128  1.3061  0.9734
 9334TIP3   OH227962   7.117   0.790   4.875  0.9105  0.3669 -0.3141
 9334TIP3    H127963   7.152   0.713   4.920  0.8627  0.1177 -0.7054
 9334TIP3    H227964   7.054   0.827   4.937  1.2147  0.3162  0.0348
 9335TIP3   OH227965   2.326   0.504   2.730  0.5198  0.3813  0.1932
 9335TIP3    H127966   2.355   0.500   2.639 -0.9123 -0.2175 -0.2695
 9335TIP3    H227967   2.235   0.536   2.725  0.8353  1.5804  1.5146
 9336TIP3   OH227968   3.327   1.503   2.536  0.1910 -0.2029 -0.3710
 9336TIP3    H127969   3.302   1.481   2.626 -0.5756  0.4121 -0.4263
 9336TIP3    H227970   3.306   1.596   2.528  1.6286  0.1053 -0.7283
 9337TIP3   OH227971   2.239   1.692   2.116  0.1628 -0.3836 -0.5278
 9337TIP3    H127972   2.331   1.704   2.139  0.1949  0.3553 -0.9953
 9337TIP3    H227973   2.219   1.602   2.142  0.8458 -0.3543  0.1401
 9338TIP3   OH227974   3.869   0.447   5.033  0.1884 -0.3727 -0.4035
 9338TIP3    H127975   3.957   0.440   5.069 -0.5283 -1.3804  1.3368
 9338TIP3    H227976   3.844   0.539   5.046  1.1266  0.0195 -1.3231
 9339TIP3   OH227977   1.404   6.879   4.151  0.3605  0.0063 -0.5309
 9339TIP3    H127978   1.403   6.916   4.240 -2.2379  1.7127 -1.1572
 9339TIP3    H227979   1.468   6.932   4.104  1.4331 -0.6197  0.1724
 9340TIP3   OH227980   3.018   6.028   5.904 -0.4566 -0.0877 -0.8796
 9340TIP3    H127981   3.066   6.042   5.985  0.0012 -0.8112 -1.0078
 9340TIP3    H227982   2.968   6.108   5.890 -0.4637  0.0734  0.0637
 9341TIP3   OH227983   0.654   6.840   0.813 -0.1556 -0.6165 -0.1617
 9341TIP3    H127984   0.717   6.770   0.799 -1.2463 -1.3848 -1.4191
 9341TIP3    H227985   0.639   6.877   0.726 -0.1857  0.6764  0.3681
 9342TIP3   OH227986   0.217   4.216   5.095  0.2050 -0.1879  0.0930
 9342TIP3    H127987   0.259   4.270   5.162 -0.0119 -0.2809  0.3073
 9342TIP3    H227988   0.234   4.126   5.123  0.1309 -0.2270  0.0130
 9343TIP3   OH227989   1.474   6.629   0.996 -0.0500  0.5236 -0.0609
 9343TIP3    H127990   1.448   6.703   1.049  0.6200 -0.0359  1.0880
 9343TIP3    H227991   1.554   6.658   0.951 -0.7044  1.0497 -0.9053
 9344TIP3   OH227992   5.178   3.980   4.185  0.3193 -1.0356 -0.3702
 9344TIP3    H127993   5.108   3.915   4.186  0.7900 -1.5511  0.4435
 9344TIP3    H227994   5.187   4.005   4.093 -2.8445  1.1889 -0.2292
 9345TIP3   OH227995   3.257   5.291   0.214  0.2608 -0.2177 -0.1537
 9345TIP3    H127996   3.321   5.339   0.161  0.3248 -2.0261 -1.8158
 9345TIP3    H227997   3.243   5.209   0.167 -1.2470 -1.0470  1.6046
 9346TIP3   OH227998   0.150   3.182   0.349 -0.1439  0.1841 -0.1330
 9346TIP3    H127999   0.237   3.148   0.371 -0.2154  1.1943  1.9592
 9346TIP3    H228000   0.161   3.277   0.350 -0.9195  0.3274 -1.5850
 9347TIP3   OH228001   0.083  -0.001   1.060 -0.4248  0.2413 -0.1021
 9347TIP3    H128002   0.151  -0.051   1.105 -2.1416 -2.0381  0.1653
 9347TIP3    H228003   0.128   0.076   1.027  2.0616 -0.6752  0.8689
 9348TIP3   OH228004   0.051   3.549   0.967 -0.2604 -0.1075 -0.1305
 9348TIP3    H128005   0.096   3.633   0.972 -2.7255  1.3384 -0.7117
 9348TIP3    H228006  -0.024   3.565   0.911 -0.9073 -2.6892 -0.1241
 9349TIP3   OH228007   4.819   0.312   0.302  0.9984  0.1575  0.0127
 9349TIP3    H128008   4.890   0.264   0.260 -0.3638 -0.8059 -1.3225
 9349TIP3    H228009   4.844   0.404   0.296  1.2886 -0.0110 -2.1741
 9350TIP3   OH228010   2.978   3.878   5.633 -0.0936 -0.4130 -0.6024
 9350TIP3    H128011   2.907   3.814   5.629  1.0574 -1.9845  1.9219
 9350TIP3    H228012   2.971   3.916   5.721  1.4000  0.3525 -0.7769
 9351TIP3   OH228013   4.851   0.645   1.809  0.4006  0.1379 -0.0629
 9351TIP3    H128014   4.938   0.681   1.825  1.0524 -1.6865  0.8878
 9351TIP3    H228015   4.791   0.702   1.857  1.0800  1.3352 -0.6135
 9352TIP3   OH228016   4.358   0.679   3.094 -0.4516 -0.7472  0.5533
 9352TIP3    H128017   4.341   0.715   3.007 -0.5946 -1.4545  0.2829
 9352TIP3    H228018   4.279   0.699   3.144  0.9432  2.8177  1.6300
 9353TIP3   OH228019   5.044   3.437   0.419  0.0992  0.6091 -0.0777
 9353TIP3    H128020   5.051   3.529   0.394 -3.5555  0.7486 -1.1725
 9353TIP3    H228021   4.950   3.421   0.427  0.6544 -2.4729  2.4895
 9354TIP3   OH228022   3.503   4.255   5.652 -0.7270  0.0268  0.7982
 9354TIP3    H128023   3.450   4.188   5.610 -2.0774  1.5872 -0.1231
 9354TIP3    H228024   3.497   4.234   5.746 -1.5692 -0.8212  0.5759
 9355TIP3   OH228025   3.328   3.608   5.471  0.6752  0.3534 -0.2132
 9355TIP3    H128026   3.313   3.518   5.440  0.7590  0.5729 -0.9220
 9355TIP3    H228027   3.412   3.632   5.431  0.4817  0.8694 -0.3084
 9356TIP3   OH228028   1.623   6.994   1.616  0.0100 -0.5954  0.3691
 9356TIP3    H128029   1.665   6.911   1.639 -2.9613 -2.5026 -0.5679
 9356TIP3    H228030   1.578   7.022   1.695  0.6770 -0.0308  0.5653
 9357TIP3   OH228031   1.624   6.832   3.590 -0.3999 -0.2339 -0.3827
 9357TIP3    H128032   1.602   6.844   3.683 -0.9175 -1.6169 -0.2968
 9357TIP3    H228033   1.637   6.737   3.582  2.5558  0.1311 -1.0915
 9358TIP3   OH228034   2.222   3.641   5.667 -0.8483 -0.4908 -0.9874
 9358TIP3    H128035   2.134   3.631   5.702 -0.3353 -0.2055  0.4661
 9358TIP3    H228036   2.227   3.577   5.596 -1.0826 -3.1252  1.2052
 9359TIP3   OH228037   3.341   1.661   4.575 -0.0280  0.0883  0.2516
 9359TIP3    H128038   3.349   1.755   4.562 -1.1141  0.3811  1.4699
 9359TIP3    H228039   3.256   1.638   4.538  0.9452 -0.7578 -1.5904
 9360TIP3   OH228040   1.385   6.425   2.112 -0.1858 -0.0320  0.3059
 9360TIP3    H128041   1.383   6.491   2.182 -0.5372 -0.7069  0.9543
 9360TIP3    H228042   1.412   6.473   2.034 -0.8747  0.9760  0.6665
 9361TIP3   OH228043   2.968   0.324   5.568 -0.7760  0.4266 -0.3817
 9361TIP3    H128044   2.908   0.398   5.564 -0.4209  0.8564  1.4267
 9361TIP3    H228045   3.013   0.334   5.652  1.2902 -0.2899 -1.3463
 9362TIP3   OH228046   1.230   5.534   2.593 -0.4755 -0.1854 -0.4415
 9362TIP3    H128047   1.270   5.484   2.522 -2.2213 -0.9981 -0.9031
 9362TIP3    H228048   1.192   5.610   2.550  1.3372  1.1237  0.1310
 9363TIP3   OH228049   2.569   1.836   5.363 -0.5066 -0.4167 -0.5395
 9363TIP3    H128050   2.510   1.779   5.313 -0.4557  1.0249 -2.3600
 9363TIP3    H228051   2.654   1.794   5.357 -1.0759 -1.9028  1.1054
 9364TIP3   OH228052   0.639   2.302   1.482  0.6473 -0.2059 -0.2918
 9364TIP3    H128053   0.601   2.243   1.547 -1.4717 -0.1043 -1.3584
 9364TIP3    H228054   0.618   2.390   1.514  1.7523 -0.0765  0.1072
 9365TIP3   OH228055   5.708   0.981   3.937 -0.0300 -0.2344  0.0741
 9365TIP3    H128056   5.794   1.020   3.949  1.2780 -3.0453  0.7419
 9365TIP3    H228057   5.685   1.000   3.846  0.5746  1.8274  0.3116
 9366TIP3   OH228058   5.600   4.642   3.956  0.1472  0.4349  0.1949
 9366TIP3    H128059   5.662   4.577   3.990 -1.2452 -3.2824 -3.5005
 9366TIP3    H228060   5.656   4.704   3.909  1.3645 -0.1147  0.8510
 9367TIP3   OH228061   4.150   1.988   2.656 -0.1185  0.0402 -0.0325
 9367TIP3    H128062   4.128   1.901   2.689  1.0745 -0.1526  0.3033
 9367TIP3    H228063   4.223   2.017   2.711 -0.6497  1.3556  0.0141
 9368TIP3   OH228064   2.272   4.007   3.221  0.2177 -0.4649  0.0001
 9368TIP3    H128065   2.341   4.035   3.281 -0.0993  0.6669 -0.1376
 9368TIP3    H228066   2.192   4.015   3.273 -0.1560  1.3342 -0.7963
 9369TIP3   OH228067   4.927   0.741   4.967  0.1893  0.2182 -0.0940
 9369TIP3    H128068   4.886   0.690   5.037  0.3427 -0.3475 -0.4106
 9369TIP3    H228069   4.978   0.809   5.012  0.7196 -0.4757  0.3612
 9370TIP3   OH228070   4.606   0.312   2.482 -0.1087  0.0544  0.3074
 9370TIP3    H128071   4.669   0.251   2.443  1.6652  1.3156  1.0324
 9370TIP3    H228072   4.637   0.399   2.456 -0.7087  0.7785  1.8535
 9371TIP3   OH228073   1.955   5.949   1.966 -0.3915  0.2332  0.5640
 9371TIP3    H128074   1.977   5.866   1.924 -1.0136 -0.3417  1.3397
 9371TIP3    H228075   1.980   5.937   2.058 -0.2522  1.0008  0.6363
 9372TIP3   OH228076   3.561   0.191   4.985 -0.4600  0.0553 -0.0273
 9372TIP3    H128077   3.623   0.190   5.058 -0.4924 -2.0304  0.0215
 9372TIP3    H228078   3.497   0.258   5.009  0.3534  0.4490  1.1276
 9373TIP3   OH228079   6.194   1.359   0.482 -0.2754 -0.5951 -0.0458
 9373TIP3    H128080   6.224   1.393   0.567 -1.0948 -0.7030  0.2894
 9373TIP3    H228081   6.261   1.295   0.458  0.5106  0.1743  0.0167
 9374TIP3   OH228082   4.112   0.747   2.269  0.3288 -0.0902  0.2015
 9374TIP3    H128083   4.105   0.652   2.277  0.2333 -0.0202  1.0338
 9374TIP3    H228084   4.061   0.768   2.191 -0.1929 -0.6578  0.3780
 9375TIP3   OH228085   5.512   4.199   1.783 -0.1806 -0.8093  0.0408
 9375TIP3    H128086   5.547   4.173   1.868 -1.1941 -0.3725  0.6043
 9375TIP3    H228087   5.436   4.142   1.770 -0.7902 -0.0157  0.0303
 9376TIP3   OH228088   1.574   5.314   1.554 -0.1053  0.5721 -0.2216
 9376TIP3    H128089   1.487   5.275   1.565 -0.3348  1.3112  0.7906
 9376TIP3    H228090   1.627   5.245   1.516 -1.4046  0.4487 -1.9293
 9377TIP3   OH228091   1.950   5.212   1.497  0.2563 -1.1271 -0.6629
 9377TIP3    H128092   1.972   5.178   1.584 -0.7275  0.2196  0.1709
 9377TIP3    H228093   2.032   5.251   1.466  0.6556 -1.7400 -0.3959
 9378TIP3   OH228094   3.643   5.187   4.905  0.1765  0.0431  0.1252
 9378TIP3    H128095   3.656   5.093   4.890 -1.4535 -0.6034  2.2194
 9378TIP3    H228096   3.554   5.204   4.877  0.0688  0.6953  0.8272
 9379TIP3   OH228097   2.976   3.807   1.360  0.0966  0.0830 -0.0150
 9379TIP3    H128098   2.924   3.856   1.424  0.8344  0.2279  0.4913
 9379TIP3    H228099   2.918   3.737   1.331 -0.6697  0.7411 -0.0987
 9380TIP3   OH228100   3.689   5.555   5.030 -0.7665 -0.1285 -0.3631
 9380TIP3    H128101   3.597   5.566   5.008 -0.5164  0.4109 -1.1776
 9380TIP3    H228102   3.734   5.549   4.945  0.1046  0.9553  0.0034
 9381TIP3   OH228103   4.507   6.120   5.388 -0.1920  0.3449 -0.1488
 9381TIP3    H128104   4.458   6.188   5.434  0.4270 -0.5738  1.9860
 9381TIP3    H228105   4.442   6.052   5.369  0.1070 -0.8637  2.6608
 9382TIP3   OH228106   4.615   5.223   0.813  0.1035  0.1164  0.1288
 9382TIP3    H128107   4.680   5.158   0.837 -1.7701 -2.2101 -0.7512
 9382TIP3    H228108   4.565   5.238   0.894  0.0757 -0.0887  0.1488
 9383TIP3   OH228109   6.113   3.402   6.041 -0.3548  0.3912 -0.4325
 9383TIP3    H128110   6.160   3.466   5.988 -0.5876  0.2255 -0.8357
 9383TIP3    H228111   6.140   3.422   6.131 -2.2711  2.6261 -0.2652
 9384TIP3   OH228112   4.515   3.960   3.882 -0.0149 -0.7169 -0.3847
 9384TIP3    H128113   4.440   3.951   3.941  0.1918  0.5671  0.1043
 9384TIP3    H228114   4.591   3.968   3.940  0.0750  1.7412 -0.7201
 9385TIP3   OH228115   1.890   3.713   4.594 -0.0756 -0.1931  0.7084
 9385TIP3    H128116   1.808   3.667   4.609 -0.1685 -0.3870 -0.2915
 9385TIP3    H228117   1.934   3.662   4.525  0.7980  0.0052  1.1016
 9386TIP3   OH228118   1.236   5.395   0.662 -0.0249 -0.1938  0.1325
 9386TIP3    H128119   1.180   5.343   0.604  1.0464 -0.3354 -0.8044
 9386TIP3    H228120   1.286   5.451   0.603  2.4225 -1.6165  0.7005
 9387TIP3   OH228121   1.201   1.959   4.517 -0.2750 -0.4225  0.1821
 9387TIP3    H128122   1.214   1.864   4.518  0.6163 -0.3172 -0.6922
 9387TIP3    H228123   1.288   1.996   4.527 -0.4504  0.3037 -0.8241
 9388TIP3   OH228124   5.165   2.671   4.657  0.5763 -0.1191 -0.1196
 9388TIP3    H128125   5.159   2.746   4.716  1.1775  0.7139 -1.0832
 9388TIP3    H228126   5.226   2.611   4.700  0.6319  0.2625  0.3313
 9389TIP3   OH228127   0.496   5.308   4.887  0.4588  0.2475 -0.3602
 9389TIP3    H128128   0.543   5.321   4.804  1.4271  0.7489  0.2577
 9389TIP3    H228129   0.564   5.291   4.951 -0.3290 -0.8091  0.2294
 9390TIP3   OH228130   4.115   0.010   0.611  0.1992 -0.2958 -0.2692
 9390TIP3    H128131   4.092   0.101   0.593 -0.5251 -0.6073 -0.9602
 9390TIP3    H228132   4.162  -0.020   0.533  0.6424 -0.4470  0.0521
 9391TIP3   OH228133   1.282   2.652   1.452  0.1036  0.1530  0.6581
 9391TIP3    H128134   1.229   2.572   1.448 -0.7209  0.7003  0.1348
 9391TIP3    H228135   1.217   2.722   1.456  0.6231  1.0829 -3.2824
 9392TIP3   OH228136   4.230   4.252   1.968  0.4634  0.5315 -0.0315
 9392TIP3    H128137   4.198   4.314   2.033  0.4948  1.3495 -0.7727
 9392TIP3    H228138   4.154   4.198   1.947  0.6224 -0.1967  1.1613
 9393TIP3   OH228139   6.646   2.786   4.379  0.1754  0.6391  0.3174
 9393TIP3    H128140   6.652   2.881   4.378 -0.9453  0.7233 -0.4136
 9393TIP3    H228141   6.688   2.759   4.297  1.1568  0.4465  0.8745
 9394TIP3   OH228142   4.746   5.357   0.272  0.1698  0.3195 -0.4493
 9394TIP3    H128143   4.663   5.405   0.273  0.6564  1.1856 -1.2198
 9394TIP3    H228144   4.719   5.265   0.274 -0.8082  0.5879 -0.5507
 9395TIP3   OH228145   5.280   6.164   4.786  0.3362  0.1065 -0.3598
 9395TIP3    H128146   5.285   6.069   4.798  0.3562  0.0677 -0.6814
 9395TIP3    H228147   5.371   6.194   4.795  0.0054  0.4831  2.8956
 9396TIP3   OH228148   3.097   5.707   2.518 -0.5937  0.2703  0.2927
 9396TIP3    H128149   3.074   5.792   2.480 -0.0314  0.0548 -0.5404
 9396TIP3    H228150   3.135   5.730   2.603  0.0109  0.8883 -0.1328
 9397TIP3   OH228151   5.798   3.697   6.043  0.2534 -0.4769 -0.4871
 9397TIP3    H128152   5.787   3.788   6.016 -0.2531 -0.8108 -1.4229
 9397TIP3    H228153   5.840   3.654   5.968 -0.5953 -1.2759 -0.5186
 9398TIP3   OH228154   4.841   7.077   2.971  0.1896 -0.1292 -0.1966
 9398TIP3    H128155   4.915   7.081   3.032  0.1984 -1.0056 -0.1402
 9398TIP3    H228156   4.797   6.994   2.992 -1.2112  0.6808  0.2335
 9399TIP3   OH228157   6.628   5.973   0.228  0.9841  0.1547 -0.1276
 9399TIP3    H128158   6.698   5.997   0.288  0.7493 -1.2270  0.7468
 9399TIP3    H228159   6.577   5.907   0.276  0.3063 -0.3829 -1.5289
 9400TIP3   OH228160   0.895   5.503   2.523  0.0054 -0.3047  1.0687
 9400TIP3    H128161   0.965   5.440   2.540  0.1555 -0.5538 -0.4178
 9400TIP3    H228162   0.940   5.579   2.486 -0.5928 -0.9301 -1.0650
 9401TIP3   OH228163   1.271   1.416   1.513  0.1155 -0.2210 -0.0822
 9401TIP3    H128164   1.314   1.473   1.450 -1.3039  2.2052  0.9970
 9401TIP3    H228165   1.335   1.404   1.583  0.4030  0.0931 -0.2901
 9402TIP3   OH228166   5.141   5.687   0.501  0.3911 -0.0495  0.1835
 9402TIP3    H128167   5.224   5.678   0.548 -0.1204 -1.8199  0.8617
 9402TIP3    H228168   5.091   5.751   0.552  0.8968  0.1494  0.4380
 9403TIP3   OH228169   3.579   3.357   0.875  0.2422 -0.1834  0.0105
 9403TIP3    H128170   3.636   3.336   0.801 -0.7850 -0.7917 -0.6324
 9403TIP3    H228171   3.492   3.363   0.837 -0.3470 -0.7781  1.2055
 9404TIP3   OH228172   7.148   4.307   4.049  0.3297  0.9327  0.0149
 9404TIP3    H128173   7.059   4.343   4.052 -0.1071 -0.1798  2.4867
 9404TIP3    H228174   7.168   4.284   4.140  1.9309 -1.7627 -0.9122
 9405TIP3   OH228175   5.833   2.462   2.945 -0.0298  0.2801 -0.2390
 9405TIP3    H128176   5.806   2.383   2.993  0.2037  1.6146  2.2913
 9405TIP3    H228177   5.907   2.496   2.995  0.0714  1.9354 -1.4341
 9406TIP3   OH228178   3.347   4.602   3.807 -0.0406 -0.4435 -0.1438
 9406TIP3    H128179   3.291   4.572   3.736 -0.0983 -2.5618  0.7061
 9406TIP3    H228180   3.286   4.624   3.878 -0.0351  2.3834 -0.9016
 9407TIP3   OH228181   5.292   3.262   3.972 -0.3701  0.4810 -0.2961
 9407TIP3    H128182   5.306   3.232   4.062  0.8241 -0.5436 -0.7838
 9407TIP3    H228183   5.359   3.217   3.921 -0.8477  1.2484 -1.6713
 9408TIP3   OH228184   0.931   2.957   1.881  0.1280 -0.7444 -0.2615
 9408TIP3    H128185   0.950   3.034   1.935 -0.2721  0.4262 -1.7240
 9408TIP3    H228186   0.964   2.884   1.933  0.2009  0.3563  1.3452
 9409TIP3   OH228187   1.618   6.094   1.394  0.3907  0.2169  0.3211
 9409TIP3    H128188   1.541   6.040   1.410  1.0947 -0.3894  1.9801
 9409TIP3    H228189   1.594   6.181   1.429  0.2159  0.2113  0.2113
 9410TIP3   OH228190   5.502  -0.001   0.105 -0.5834  0.7101 -0.0177
 9410TIP3    H128191   5.408   0.015   0.114 -0.6049  1.7009 -1.5934
 9410TIP3    H228192   5.535   0.075   0.056  0.6365 -0.6609 -1.4310
 9411TIP3   OH228193   1.109   5.976   6.000  0.5090  0.3024  0.0014
 9411TIP3    H128194   1.103   5.917   6.075 -0.7507  0.2302 -0.1468
 9411TIP3    H228195   1.185   5.944   5.951  0.9555 -0.0463  0.8859
 9412TIP3   OH228196   2.097   0.942   5.327  0.3161 -0.5241  0.4392
 9412TIP3    H128197   2.074   0.997   5.252 -1.7716 -0.1927  1.2649
 9412TIP3    H228198   2.166   0.991   5.372 -1.5373  1.5503  1.1983
 9413TIP3   OH228199   2.779   4.863   0.292  0.9918  0.1748  0.0046
 9413TIP3    H128200   2.760   4.778   0.331  2.1522 -0.2249 -0.2820
 9413TIP3    H228201   2.784   4.923   0.366 -1.3041  0.3297  0.1184
 9414TIP3   OH228202   4.429   5.379   2.891  0.4859  0.2961 -0.1471
 9414TIP3    H128203   4.347   5.343   2.856 -0.8730 -0.1859  3.2193
 9414TIP3    H228204   4.431   5.469   2.858  0.6521 -0.7705 -3.3866
 9415TIP3   OH228205   7.132   0.393   3.879  0.0296 -0.0161  0.1634
 9415TIP3    H128206   7.133   0.357   3.791  1.6177  1.4268 -0.4575
 9415TIP3    H228207   7.160   0.321   3.935 -1.9816 -1.2527 -0.3220
 9416TIP3   OH228208   6.054   0.980   1.289 -0.4773 -0.5188  0.6952
 9416TIP3    H128209   6.069   0.939   1.374  0.7240  1.2864  1.4232
 9416TIP3    H228210   5.968   1.021   1.297  0.8932  2.4216  2.3745
 9417TIP3   OH228211   6.418   2.740   1.169 -0.9599 -0.0276 -0.1628
 9417TIP3    H128212   6.366   2.689   1.231  1.8732  0.2180  2.6766
 9417TIP3    H228213   6.489   2.682   1.143 -2.0164 -0.0936 -3.3241
 9418TIP3   OH228214   5.709   0.443   1.501 -0.8231  0.5195  0.5398
 9418TIP3    H128215   5.615   0.457   1.511 -1.1213 -0.2269 -0.9483
 9418TIP3    H228216   5.718   0.349   1.485  0.1874  0.5619  0.7676
 9419TIP3   OH228217   5.144   3.678   3.025 -0.1760 -0.2164 -0.1715
 9419TIP3    H128218   5.199   3.611   2.985 -0.6652 -1.6883  1.4450
 9419TIP3    H228219   5.176   3.685   3.115 -0.6536  1.1657 -0.0822
 9420TIP3   OH228220   1.315   3.744   0.754 -0.6045  0.4232  0.4116
 9420TIP3    H128221   1.341   3.653   0.767 -1.5573  0.4377  2.8887
 9420TIP3    H228222   1.372   3.794   0.812 -1.3467  1.1853  0.5029
 9421TIP3   OH228223   1.482   2.820   4.099  0.4274 -0.0115 -0.2063
 9421TIP3    H128224   1.557   2.765   4.120  0.9065  1.1649  1.3860
 9421TIP3    H228225   1.413   2.791   4.159 -0.6272 -1.4457 -2.0159
 9422TIP3   OH228226   5.375   2.584   1.362 -0.0886  0.1870 -0.0694
 9422TIP3    H128227   5.459   2.539   1.372  0.4778  0.7464 -1.8788
 9422TIP3    H228228   5.310   2.514   1.371  0.6530 -0.5747 -0.4267
 9423TIP3   OH228229   2.681   4.433   2.343 -0.6789 -0.0434 -0.4517
 9423TIP3    H128230   2.675   4.451   2.437 -1.4895 -0.7444 -0.3643
 9423TIP3    H228231   2.617   4.364   2.327 -0.4835  0.0028 -1.5092
 9424TIP3   OH228232   1.831   5.282   4.634  0.0089  0.0668  0.7454
 9424TIP3    H128233   1.861   5.318   4.718 -1.3524  1.0350  0.8457
 9424TIP3    H228234   1.737   5.269   4.647 -0.7053  2.4145 -1.3521
 9425TIP3   OH228235   1.944   5.508   4.468 -0.2377  0.2548  0.6120
 9425TIP3    H128236   1.972   5.466   4.386 -1.6407  1.6235 -0.6170
 9425TIP3    H228237   1.890   5.441   4.511  0.5637 -0.4984  0.4955
 9426TIP3   OH228238   0.467   5.936   3.530  0.2810  0.3878  0.2988
 9426TIP3    H128239   0.401   5.909   3.467 -0.6619  1.8593  0.6014
 9426TIP3    H228240   0.510   5.855   3.557  0.3456 -0.3219 -1.8022
 9427TIP3   OH228241   6.246   3.317   1.751 -0.5113 -0.4828 -0.4570
 9427TIP3    H128242   6.297   3.391   1.717  0.5784 -1.1652 -0.3515
 9427TIP3    H228243   6.300   3.240   1.732 -1.4300 -1.2112 -0.1754
 9428TIP3   OH228244   1.430   4.047   2.102 -0.1756 -0.4233 -0.9048
 9428TIP3    H128245   1.487   4.050   2.024  2.0161  1.0750  0.6455
 9428TIP3    H228246   1.362   4.112   2.084  0.5613  0.2318 -1.4193
 9429TIP3   OH228247   1.417   0.961   4.891  0.5887 -0.1218  0.5757
 9429TIP3    H128248   1.500   1.006   4.908 -1.4909  3.5584  2.2068
 9429TIP3    H228249   1.422   0.881   4.944  2.6770  0.5581  1.4934
 9430TIP3   OH228250   0.332   1.434   1.163 -0.0808 -0.1232 -0.0898
 9430TIP3    H128251   0.381   1.441   1.245  0.3796  1.4080 -0.4743
 9430TIP3    H228252   0.384   1.375   1.109  0.2836 -0.1090  0.2429
 9431TIP3   OH228253   5.899   3.551   4.946  0.9985 -0.1542 -0.3419
 9431TIP3    H128254   5.847   3.531   4.868 -1.1697  0.3054  0.9065
 9431TIP3    H228255   5.846   3.615   4.994  2.9747  0.7296  0.7965
 9432TIP3   OH228256   4.515   6.822   2.896 -0.3641 -0.1299  0.1602
 9432TIP3    H128257   4.491   6.742   2.943  0.9704 -0.1943  0.7805
 9432TIP3    H228258   4.467   6.817   2.814 -1.1835 -1.0045  0.6650
 9433TIP3   OH228259   0.563   0.220   2.621  0.1420  0.6469 -0.2087
 9433TIP3    H128260   0.658   0.231   2.617  0.0410  2.1564  0.5505
 9433TIP3    H228261   0.538   0.196   2.532  1.1216  1.4698 -0.7335
 9434TIP3   OH228262   5.180   4.180   0.042  0.3553  0.2467  0.2740
 9434TIP3    H128263   5.233   4.148  -0.030  0.7629  2.4706 -0.5074
 9434TIP3    H228264   5.228   4.154   0.121 -0.3043 -2.5647 -0.1521
 9435TIP3   OH228265   0.666   2.201   2.905  0.7075  0.3433 -0.0410
 9435TIP3    H128266   0.717   2.125   2.876 -1.2049 -0.7622 -0.6545
 9435TIP3    H228267   0.673   2.263   2.832 -0.5822 -0.6978 -1.0957
 9436TIP3   OH228268   1.465   2.909   2.769  0.0607  0.0503  0.3042
 9436TIP3    H128269   1.523   2.909   2.846 -1.4672  0.7712  1.5285
 9436TIP3    H228270   1.435   3.000   2.763  0.7458  0.1907 -1.6719
 9437TIP3   OH228271   2.155   6.558   5.707 -0.3595 -0.2820  0.2873
 9437TIP3    H128272   2.093   6.557   5.634 -1.4598 -0.9345  1.1937
 9437TIP3    H228273   2.103   6.532   5.783  1.4050 -2.7226  0.7959
 9438TIP3   OH228274   4.503   2.193   3.184  0.4002  0.2738  0.0323
 9438TIP3    H128275   4.532   2.127   3.246 -0.5952 -0.8572 -0.6673
 9438TIP3    H228276   4.512   2.276   3.231 -1.1245 -0.6116  2.0171
 9439TIP3   OH228277   0.368   1.067   4.462 -0.0654  0.0994  0.2657
 9439TIP3    H128278   0.375   0.975   4.489 -0.3073 -1.0406 -3.0660
 9439TIP3    H228279   0.458   1.101   4.470  0.7187 -1.4195 -1.3600
 9440TIP3   OH228280   0.217   6.653   0.158 -0.8753 -0.9791  0.0926
 9440TIP3    H128281   0.230   6.696   0.242 -1.1402 -0.4201 -0.1485
 9440TIP3    H228282   0.305   6.627   0.130 -0.6241  0.0099 -0.0716
 9441TIP3   OH228283   6.477   6.936   1.373 -0.8336 -0.2523 -0.0557
 9441TIP3    H128284   6.420   6.992   1.319 -2.0600 -1.1274  0.2710
 9441TIP3    H228285   6.547   6.993   1.402 -1.8176  1.0133 -0.0772
 9442TIP3   OH228286   3.719   5.452   2.383 -0.3465 -0.3920 -0.1527
 9442TIP3    H128287   3.659   5.459   2.308 -0.7136 -0.1491  0.1596
 9442TIP3    H228288   3.664   5.470   2.459  0.3647  1.0427  0.0600
 9443TIP3   OH228289   3.793   0.728   3.446  0.4644 -0.5903 -0.5745
 9443TIP3    H128290   3.794   0.784   3.368  0.9898 -0.7385 -0.6779
 9443TIP3    H228291   3.847   0.653   3.421  1.0242 -0.4152  0.0988
 9444TIP3   OH228292   2.588   6.655   0.195 -0.1549  0.0459  0.3187
 9444TIP3    H128293   2.616   6.737   0.236 -0.2479  0.1920  0.0854
 9444TIP3    H228294   2.622   6.659   0.106  1.0078 -0.7548  0.6875
 9445TIP3   OH228295   1.966   0.095   4.708 -0.0171  0.1387 -0.2377
 9445TIP3    H128296   1.929   0.015   4.744 -0.9692  0.5854 -0.1860
 9445TIP3    H228297   2.059   0.076   4.697 -0.1407 -0.7968  0.2428
 9446TIP3   OH228298   7.453   0.602   1.498 -0.3668 -0.2683 -0.3978
 9446TIP3    H128299   7.518   0.539   1.527 -0.7064 -1.3862 -1.9304
 9446TIP3    H228300   7.457   0.673   1.563  2.3801 -0.2550 -0.4915
 9447TIP3   OH228301   1.346   2.952   1.796  0.1832 -0.3057 -0.3356
 9447TIP3    H128302   1.321   2.865   1.764  1.3216 -0.6429 -0.3584
 9447TIP3    H228303   1.287   2.968   1.870 -0.5789 -0.7415 -0.8366
 9448TIP3   OH228304   6.789   4.508   5.289  0.0220 -0.2565  0.5715
 9448TIP3    H128305   6.803   4.592   5.247 -2.0819  0.4385  1.1334
 9448TIP3    H228306   6.874   4.465   5.286  1.5783  2.5057  1.6890
 9449TIP3   OH228307   1.859   4.399   2.700 -0.3782 -0.0899  0.2295
 9449TIP3    H128308   1.800   4.330   2.669 -0.8725  0.5736 -0.3438
 9449TIP3    H228309   1.828   4.479   2.656  0.8245  0.3092  0.0794
 9450TIP3   OH228310   2.653   1.219   0.765 -0.2153  0.9282 -0.0073
 9450TIP3    H128311   2.650   1.163   0.687 -1.2211  0.0685  0.6127
 9450TIP3    H228312   2.741   1.258   0.763  0.8823 -1.3378 -0.0395
 9451TIP3   OH228313   3.292   6.321   2.230 -0.4248 -0.2830  0.1157
 9451TIP3    H128314   3.328   6.247   2.279 -0.9985 -0.5595  0.1255
 9451TIP3    H228315   3.225   6.282   2.174 -0.4639  0.1760 -0.1600
 9452TIP3   OH228316   3.331   6.207   5.320  0.6186  0.2273  0.2194
 9452TIP3    H128317   3.406   6.163   5.280 -0.1735  0.5279 -1.6952
 9452TIP3    H228318   3.284   6.137   5.365  1.5965 -0.1054  0.7596
 9453TIP3   OH228319   6.551   3.441   5.307  0.1170  0.1100  0.4359
 9453TIP3    H128320   6.487   3.381   5.270 -2.2305  1.8368  1.5002
 9453TIP3    H228321   6.557   3.416   5.400 -1.5485  1.9575  1.1015
 9454TIP3   OH228322   6.255   6.931   0.203  0.0451 -0.2212  0.2644
 9454TIP3    H128323   6.306   6.978   0.137 -0.1629  0.0870  0.3230
 9454TIP3    H228324   6.316   6.865   0.238  0.1450 -0.4069 -0.2558
 9455TIP3   OH228325   1.933   1.366   3.070 -0.5458  0.1284 -0.0904
 9455TIP3    H128326   1.987   1.390   3.145 -1.1312  0.1895  0.3267
 9455TIP3    H228327   1.995   1.349   2.999 -0.0204  0.8109  0.1939
 9456TIP3   OH228328   5.602   7.132   2.051  0.4211 -0.4587  0.2827
 9456TIP3    H128329   5.638   7.065   1.993  0.0082 -1.1542  0.8220
 9456TIP3    H228330   5.518   7.155   2.013 -0.1403 -1.3746  0.9321
 9457TIP3   OH228331   4.596   6.557   3.903  0.0080 -0.9280  0.0664
 9457TIP3    H128332   4.526   6.500   3.935 -1.3149  0.4883 -0.1288
 9457TIP3    H228333   4.624   6.516   3.821 -0.7874 -1.4031  0.0131
 9458TIP3   OH228334   2.764   3.304   4.767  0.0407  0.2454 -0.4023
 9458TIP3    H128335   2.775   3.210   4.786  1.2862  0.1175 -1.5704
 9458TIP3    H228336   2.853   3.339   4.771 -0.4778  1.5377  0.6378
 9459TIP3   OH228337   6.190   3.799   5.720  0.3921  0.5178  0.2930
 9459TIP3    H128338   6.128   3.765   5.656  0.0043 -1.8817  1.7905
 9459TIP3    H228339   6.276   3.791   5.678  0.1608 -1.1536  0.0922
 9460TIP3   OH228340   6.328   1.212   1.743  0.4932 -0.0636  0.2632
 9460TIP3    H128341   6.291   1.134   1.784  1.4518 -0.2979  0.7198
 9460TIP3    H228342   6.292   1.212   1.654  0.4130 -0.9717  0.2859
 9461TIP3   OH228343   6.747   4.963  -0.009  0.2212 -0.1074 -0.1660
 9461TIP3    H128344   6.789   4.934   0.072  0.0540  0.7845  0.2593
 9461TIP3    H228345   6.811   5.023  -0.048  0.5377 -0.9732 -0.9899
 9462TIP3   OH228346   5.667   3.987   4.497 -0.2106 -0.0279 -0.2118
 9462TIP3    H128347   5.573   4.002   4.490 -0.0248  0.5615 -1.9352
 9462TIP3    H228348   5.695   3.968   4.407  1.6780  2.1080 -0.1730
 9463TIP3   OH228349   6.294   0.073   5.187 -0.5011  0.1986 -0.8676
 9463TIP3    H128350   6.376   0.029   5.208 -0.2475  0.0394 -2.1226
 9463TIP3    H228351   6.257   0.022   5.114 -2.2105 -0.3213  0.2868
 9464TIP3   OH228352   3.719   0.233   4.303 -0.6773  0.3339  0.5606
 9464TIP3    H128353   3.750   0.261   4.217  1.8746 -1.2526  0.8559
 9464TIP3    H228354   3.685   0.313   4.343  0.7426  1.7284 -0.8529
 9465TIP3   OH228355   0.680   6.500   5.788  0.0489  0.0877 -0.1649
 9465TIP3    H128356   0.646   6.412   5.773 -0.2160 -0.1774  1.8136
 9465TIP3    H228357   0.603   6.557   5.781 -0.0379 -0.0050  0.0539
 9466TIP3   OH228358   7.457   5.926   4.083  0.3172 -0.1770 -0.5940
 9466TIP3    H128359   7.523   5.996   4.090 -0.0225  0.2925 -1.7328
 9466TIP3    H228360   7.449   5.911   3.989 -2.4252  0.9922 -0.6454
 9467TIP3   OH228361   2.198   1.994   2.009  0.1440  0.4911  0.0464
 9467TIP3    H128362   2.227   1.904   1.997 -0.1763  0.3700  0.2021
 9467TIP3    H228363   2.140   1.992   2.085 -1.7456  0.4082 -1.3229
 9468TIP3   OH228364   2.474   0.185   3.271 -0.3362  0.4309  0.5239
 9468TIP3    H128365   2.534   0.181   3.196 -0.0879 -0.1024  0.7531
 9468TIP3    H228366   2.407   0.249   3.244  0.3233  1.0286  0.2650
 9469TIP3   OH228367   2.860   6.296   0.969  0.0597  0.1153  0.5864
 9469TIP3    H128368   2.841   6.202   0.978 -1.2970  0.3308  0.1863
 9469TIP3    H228369   2.856   6.312   0.875  0.4862  0.5451  0.6395
 9470TIP3   OH228370   2.143   7.159   6.178  0.0560 -0.0367 -0.1840
 9470TIP3    H128371   2.196   7.080   6.174  0.4747  0.2006  0.4955
 9470TIP3    H228372   2.200   7.229   6.147 -0.6348 -0.1427 -1.7578
 9471TIP3   OH228373   0.670   3.937   4.976  0.1594 -0.8112 -0.0832
 9471TIP3    H128374   0.649   3.864   4.919 -0.7834  1.1690 -2.4811
 9471TIP3    H228375   0.742   3.982   4.930  0.2879  0.1083  0.9852
 9472TIP3   OH228376   4.839   0.957   3.112 -0.1276  0.1094  0.2212
 9472TIP3    H128377   4.885   0.899   3.172 -2.5644 -0.6121  1.5216
 9472TIP3    H228378   4.909   0.996   3.059  2.0090 -0.2895  2.5403
 9473TIP3   OH228379   6.013   3.098   1.315 -0.2434  0.3925  0.2436
 9473TIP3    H128380   5.939   3.125   1.261  0.1104  0.3975 -0.2469
 9473TIP3    H228381   6.034   3.010   1.284  0.1432  0.5075  0.1749
 9474TIP3   OH228382   0.834   1.342   2.515 -0.0023  0.3285  0.2594
 9474TIP3    H128383   0.763   1.372   2.571  0.3709  3.7480 -0.8679
 9474TIP3    H228384   0.790   1.310   2.436 -0.3595  0.1677  0.5200
 9475TIP3   OH228385   6.607   1.451   0.252 -0.1098 -0.1956 -0.1686
 9475TIP3    H128386   6.682   1.392   0.258 -0.8340 -1.0061  2.7247
 9475TIP3    H228387   6.614   1.507   0.329 -1.7553  0.5752 -0.5422
 9476TIP3   OH228388   6.124   6.953   1.686  0.2381  0.1187 -0.4315
 9476TIP3    H128389   6.190   6.899   1.643  0.4969  0.2729 -0.2333
 9476TIP3    H228390   6.172   7.030   1.717  0.3683 -0.6638  1.4654
 9477TIP3   OH228391   0.564   5.832   4.496 -0.0892  0.0770  0.6539
 9477TIP3    H128392   0.498   5.873   4.441  0.3012  0.0328  0.1497
 9477TIP3    H228393   0.585   5.750   4.451  0.1220 -0.0292  0.9442
 9478TIP3   OH228394   5.495   5.732   3.989 -0.3857 -0.1836 -0.9056
 9478TIP3    H128395   5.453   5.648   3.970 -1.3697 -0.0773  0.5686
 9478TIP3    H228396   5.554   5.713   4.062  0.0084  0.2379 -1.1126
 9479TIP3   OH228397   6.274   3.339   4.714  0.5486 -0.1289 -0.2679
 9479TIP3    H128398   6.224   3.385   4.647  0.1320 -1.0372 -0.6032
 9479TIP3    H228399   6.347   3.300   4.666  0.0546 -1.0800 -0.2775
 9480TIP3   OH228400   0.870   5.960   5.892 -0.2291 -0.2765  0.4036
 9480TIP3    H128401   0.944   5.955   5.953  0.6355 -1.1849 -0.6709
 9480TIP3    H228402   0.905   6.007   5.816 -0.6434 -0.9949 -0.2435
 9481TIP3   OH228403   7.196   4.951   5.050  0.0730 -0.2649 -0.4501
 9481TIP3    H128404   7.132   4.883   5.070 -0.4857  0.6963  1.1740
 9481TIP3    H228405   7.281   4.910   5.067 -0.0481 -1.4667 -2.3896
 9482TIP3   OH228406   4.020   4.327   3.059  0.1019  0.4152  0.5477
 9482TIP3    H128407   3.975   4.278   3.128  0.2635 -0.1208  0.2766
 9482TIP3    H228408   4.028   4.416   3.094  0.2716  0.1267  1.2598
 9483TIP3   OH228409   6.026   1.649   0.965  0.4845  0.0165  0.5555
 9483TIP3    H128410   6.009   1.662   0.872  2.8922 -1.8256 -0.2608
 9483TIP3    H228411   6.091   1.715   0.987  2.4050 -1.5574 -0.0349
 9484TIP3   OH228412   4.970   2.303   0.048 -0.1140 -0.2608 -0.8027
 9484TIP3    H128413   4.969   2.223  -0.006 -1.9011 -2.0929  1.6912
 9484TIP3    H228414   5.039   2.287   0.112 -1.3748 -0.4966  0.5506
 9485TIP3   OH228415   3.314   5.906   5.914  0.1409 -1.0403  0.3579
 9485TIP3    H128416   3.231   5.941   5.947 -1.1188 -1.6652 -1.9506
 9485TIP3    H228417   3.337   5.836   5.975 -1.3001 -1.2038  0.7394
 9486TIP3   OH228418   7.392   1.362   3.477  0.0627  0.4514 -0.2466
 9486TIP3    H128419   7.456   1.419   3.434  0.5719  0.7019  0.8175
 9486TIP3    H228420   7.444   1.305   3.533 -0.7104  2.2322  2.5127
 9487TIP3   OH228421   1.260   3.818   5.681  0.2166  0.1447 -0.0503
 9487TIP3    H128422   1.263   3.880   5.608 -1.7336  0.9616  0.4951
 9487TIP3    H228423   1.218   3.866   5.752 -2.0772 -1.9859  0.1661
 9488TIP3   OH228424   0.327   1.513   5.844 -0.9675  0.1771 -0.2156
 9488TIP3    H128425   0.291   1.432   5.807 -0.8366 -0.4207  0.9022
 9488TIP3    H228426   0.327   1.497   5.939 -0.2305  1.1991 -0.0339
 9489TIP3   OH228427   2.058   3.584   2.428 -0.1931 -0.3071  0.1003
 9489TIP3    H128428   2.124   3.596   2.360 -1.0288  0.6501 -0.5828
 9489TIP3    H228429   1.979   3.623   2.391 -0.6947  0.1552  1.5796
 9490TIP3   OH228430   2.157   1.234   3.926  0.1707  0.0548 -0.4830
 9490TIP3    H128431   2.144   1.139   3.919  1.7780 -0.1225 -1.5142
 9490TIP3    H228432   2.237   1.243   3.978  0.5378  0.8185 -1.1687
 9491TIP3   OH228433   7.416   1.689   0.632  0.0940 -0.2250 -0.0206
 9491TIP3    H128434   7.504   1.678   0.596  0.2145  0.1887  0.1463
 9491TIP3    H228435   7.427   1.748   0.707 -0.1724 -0.9931  0.6405
 9492TIP3   OH228436   6.737   3.486   4.931  0.3850 -0.3777 -0.7297
 9492TIP3    H128437   6.742   3.565   4.877 -0.6460  0.7212  0.6957
 9492TIP3    H228438   6.787   3.421   4.883  0.0375  0.7149 -2.6922
 9493TIP3   OH228439   1.033   6.312   1.377 -0.4455  0.2911  0.0656
 9493TIP3    H128440   1.025   6.217   1.367  0.3876  0.3438 -1.4452
 9493TIP3    H228441   1.038   6.326   1.472 -0.2557 -1.2029  0.2966
 9494TIP3   OH228442   3.686   0.299   5.590 -0.0494  0.7055  0.2532
 9494TIP3    H128443   3.675   0.394   5.588  1.5902  0.9181 -0.0620
 9494TIP3    H228444   3.604   0.264   5.554 -0.2570  2.0457 -0.6227
 9495TIP3   OH228445   3.239   3.716   1.457  0.0739 -0.5040  0.2169
 9495TIP3    H128446   3.224   3.728   1.551  1.1796 -1.4095  0.5363
 9495TIP3    H228447   3.156   3.680   1.424 -0.1295 -0.7456  0.9627
 9496TIP3   OH228448   2.110   2.975   0.934 -0.2060 -0.4800  0.1911
 9496TIP3    H128449   2.019   2.989   0.960 -0.2897 -0.1979 -0.2517
 9496TIP3    H228450   2.112   2.886   0.900 -0.5829 -0.0920 -0.9069
 9497TIP3   OH228451   3.496   3.462   2.331  0.3868 -0.4879  0.0868
 9497TIP3    H128452   3.520   3.388   2.386 -0.4984 -0.5336  0.4389
 9497TIP3    H228453   3.435   3.513   2.384  1.6696  1.0136  0.2094
 9498TIP3   OH228454   3.377   0.677   4.401 -0.2092  0.1229 -0.1306
 9498TIP3    H128455   3.377   0.755   4.345  1.7029  0.8908  0.8325
 9498TIP3    H228456   3.325   0.703   4.477 -2.1925 -0.6743 -1.1256
 9499TIP3   OH228457   6.710   2.859   2.546 -0.4686 -0.1980  0.4429
 9499TIP3    H128458   6.702   2.773   2.588 -0.5858 -0.6417 -0.4491
 9499TIP3    H228459   6.620   2.883   2.522 -0.4351  0.1721  0.6809
 9500TIP3   OH228460   7.433   5.802   3.120  0.1614 -0.2235  0.3006
 9500TIP3    H128461   7.510   5.802   3.063  0.3823  0.4687  0.5938
 9500TIP3    H228462   7.365   5.843   3.067  0.4552  0.7193  0.6488
 9501TIP3   OH228463   6.169   3.804   1.971  0.0852  0.0425  0.0656
 9501TIP3    H128464   6.180   3.890   1.930  1.3351 -0.8143 -1.5249
 9501TIP3    H228465   6.105   3.759   1.916 -0.5418 -0.0807  0.8743
 9502TIP3   OH228466   0.435   1.104   3.262  0.1229 -0.3536  0.5231
 9502TIP3    H128467   0.399   1.185   3.224  1.0479 -0.9532 -1.8441
 9502TIP3    H228468   0.374   1.035   3.233  0.3192 -0.7324  0.9962
 9503TIP3   OH228469   3.043   1.220   5.712  0.1977 -0.3822 -0.2382
 9503TIP3    H128470   3.041   1.176   5.797  1.4795  0.4651  0.2858
 9503TIP3    H228471   2.952   1.234   5.689 -0.1834  0.4385  1.6036
 9504TIP3   OH228472   7.321   2.108   4.745  0.4978  0.0821  0.5136
 9504TIP3    H128473   7.349   2.177   4.804 -0.4405  2.0386 -1.1883
 9504TIP3    H228474   7.376   2.119   4.667  1.2549 -1.9937  0.7051
 9505TIP3   OH228475   6.712   5.270   2.107 -0.8858  0.1083  0.1175
 9505TIP3    H128476   6.804   5.294   2.116 -0.8491 -0.4719  1.5913
 9505TIP3    H228477   6.701   5.249   2.014  0.5227 -0.0574 -0.0264
 9506TIP3   OH228478   6.711   1.016   3.731 -0.3609  0.1492  0.2181
 9506TIP3    H128479   6.677   1.043   3.817 -1.5519 -0.2609 -0.0950
 9506TIP3    H228480   6.674   1.079   3.670 -2.5264 -1.5924 -0.4223
 9507TIP3   OH228481   6.936   3.347   4.680  0.1510 -0.8164  0.7130
 9507TIP3    H128482   6.971   3.425   4.723  0.2827 -0.1289 -0.5945
 9507TIP3    H228483   6.997   3.277   4.702  2.4447  0.3198 -1.4595
 9508TIP3   OH228484   1.410   5.047   3.457  0.2579  0.2170  0.3790
 9508TIP3    H128485   1.441   5.079   3.542 -0.6900  0.8939  0.4873
 9508TIP3    H228486   1.341   5.108   3.433  0.9534  0.4263 -1.1962
 9509TIP3   OH228487   3.728   5.441   0.197  0.2555 -0.7166  0.0973
 9509TIP3    H128488   3.714   5.384   0.272  1.3379  0.3986  1.1945
 9509TIP3    H228489   3.756   5.382   0.126 -1.0710 -1.8167  0.4542
 9510TIP3   OH228490   6.201   1.239   3.451 -0.3133 -0.4307  0.0469
 9510TIP3    H128491   6.263   1.168   3.467 -1.2107 -1.4291 -0.7528
 9510TIP3    H228492   6.175   1.228   3.359 -0.9103  0.5776  0.0814
 9511TIP3   OH228493   3.094   2.878   1.615  0.7594 -0.2723 -0.6254
 9511TIP3    H128494   3.047   2.856   1.534  1.3779 -0.8521 -0.8422
 9511TIP3    H228495   3.029   2.869   1.684  0.1494  0.5090 -1.0878
 9512TIP3   OH228496   7.189   5.487   0.228 -0.1635 -0.1229 -0.4625
 9512TIP3    H128497   7.161   5.551   0.163  1.4394  1.7349  0.5709
 9512TIP3    H228498   7.143   5.511   0.308 -0.5912 -1.1379 -0.3851
 9513TIP3   OH228499   2.369   2.259   0.862 -0.9206 -0.3535 -0.2415
 9513TIP3    H128500   2.422   2.310   0.924  0.9779 -0.8134 -1.3951
 9513TIP3    H228501   2.362   2.173   0.902 -2.0149  0.0788  0.5505
 9514TIP3   OH228502   4.253   3.656   4.722 -0.1716  0.1333  0.3731
 9514TIP3    H128503   4.250   3.561   4.711  1.2329  0.0034  0.9909
 9514TIP3    H228504   4.328   3.672   4.778  0.9045  1.7644 -1.4006
 9515TIP3   OH228505   0.091   6.777   2.225  0.2867 -0.1957 -0.0062
 9515TIP3    H128506   0.089   6.721   2.303 -0.6727 -1.4789 -0.9247
 9515TIP3    H228507   0.120   6.720   2.154  2.5761  1.3020 -0.3948
 9516TIP3   OH228508   3.234   4.132   0.425 -0.3284 -0.3010 -0.1874
 9516TIP3    H128509   3.254   4.223   0.403  1.0244 -0.9078 -1.7015
 9516TIP3    H228510   3.156   4.112   0.373 -0.0658 -0.2749 -0.5956
 9517TIP3   OH228511   5.744   3.770   4.703  0.0627 -0.2317 -0.0769
 9517TIP3    H128512   5.776   3.680   4.695 -0.2703 -0.6170  2.1764
 9517TIP3    H228513   5.668   3.763   4.761  0.7223  1.6216  1.0889
 9518TIP3   OH228514   3.100   5.049   0.177 -0.6656 -0.0410  0.2320
 9518TIP3    H128515   3.008   5.028   0.164 -0.9102  0.7645  0.6056
 9518TIP3    H228516   3.122   5.012   0.262 -0.0248 -2.1668 -0.7745
 9519TIP3   OH228517   2.883   6.031   5.649 -0.6690  0.0076 -0.4051
 9519TIP3    H128518   2.971   6.062   5.627 -0.6761 -0.8272 -1.6904
 9519TIP3    H228519   2.898   5.966   5.719 -0.4026  0.7678  0.2645
 9520TIP3   OH228520   2.861   0.222   3.781  0.0924 -0.0187 -0.2008
 9520TIP3    H128521   2.919   0.175   3.841 -0.7616  0.0865  0.7343
 9520TIP3    H228522   2.799   0.266   3.838 -0.2503  0.7497 -1.1442
 9521TIP3   OH228523   2.436   1.569   1.660  0.1397  0.1653  0.0705
 9521TIP3    H128524   2.449   1.477   1.684  1.3273  0.5460  0.9954
 9521TIP3    H228525   2.383   1.565   1.580  1.4402 -1.3879 -0.8007
 9522TIP3   OH228526   4.833   2.198   5.875 -0.3129  0.7565 -0.3993
 9522TIP3    H128527   4.852   2.104   5.872  0.4350  0.8409  0.8605
 9522TIP3    H228528   4.753   2.208   5.823  0.9313 -0.1877 -2.6346
 9523TIP3   OH228529   6.396   0.486   3.380 -0.1758  0.2067 -0.0041
 9523TIP3    H128530   6.436   0.573   3.372 -1.1483  0.5498 -1.3763
 9523TIP3    H228531   6.468   0.430   3.410  1.3184  0.8341 -2.1893
 9524TIP3   OH228532   6.246   3.055   1.999  0.4018  0.1421  0.2436
 9524TIP3    H128533   6.199   3.024   2.076  2.8910  0.2101  1.8737
 9524TIP3    H228534   6.269   2.975   1.951 -0.0509  0.0277  0.2096
 9525TIP3   OH228535   7.567   4.470   5.152 -0.0490 -0.0761  0.4530
 9525TIP3    H128536   7.617   4.551   5.144  0.3244 -0.2310  1.1049
 9525TIP3    H228537   7.504   4.487   5.222  1.0456 -0.8248  1.6751
 9526TIP3   OH228538   5.173   4.409   5.518 -0.2760  0.1684 -0.2224
 9526TIP3    H128539   5.100   4.372   5.568 -0.1157 -0.6016 -0.5356
 9526TIP3    H228540   5.236   4.437   5.584 -0.5774  0.2587  0.0326
 9527TIP3   OH228541   7.343   2.626   0.946  0.1686  0.2494 -0.0981
 9527TIP3    H128542   7.302   2.712   0.955 -1.1023 -0.3916  0.4133
 9527TIP3    H228543   7.407   2.622   1.018  0.8887  1.1040 -0.6730
 9528TIP3   OH228544   2.322   0.991   3.400 -0.3850 -0.1582  0.4891
 9528TIP3    H128545   2.405   1.035   3.383 -0.4824 -0.6327 -1.5815
 9528TIP3    H228546   2.258   1.040   3.348 -0.8079 -1.6111 -0.4309
 9529TIP3   OH228547   6.792   6.802   3.854 -0.2215 -0.2481 -0.0882
 9529TIP3    H128548   6.755   6.887   3.879 -0.9051 -0.7753  0.7483
 9529TIP3    H228549   6.774   6.795   3.761 -1.9382 -0.3139  0.2121
 9530TIP3   OH228550   6.986   1.932   2.696 -0.7745 -0.1522  0.4703
 9530TIP3    H128551   6.909   1.982   2.670  0.7506  0.7165 -2.7839
 9530TIP3    H228552   7.056   1.997   2.705  0.0479 -1.1331  1.5397
 9531TIP3   OH228553   6.069   6.280   2.518 -0.2616 -0.0294  0.2577
 9531TIP3    H128554   6.005   6.264   2.587 -1.6556 -1.9249 -1.3719
 9531TIP3    H228555   6.107   6.195   2.499  0.5162  0.5460 -0.9202
 9532TIP3   OH228556   0.639   1.939   1.240 -0.1387 -0.2913  0.4629
 9532TIP3    H128557   0.611   1.874   1.304  0.4839  0.1706  1.2240
 9532TIP3    H228558   0.560   1.989   1.220  0.2662  1.8846  3.6009
 9533TIP3   OH228559   6.176   2.080   0.397  0.7852  0.4009 -0.3678
 9533TIP3    H128560   6.128   2.120   0.470  1.0146  2.8072 -1.4499
 9533TIP3    H228561   6.108   2.040   0.343  0.5304 -0.6022  0.6462
 9534TIP3   OH228562   4.844   1.869   1.012 -0.2902  0.0305  0.0006
 9534TIP3    H128563   4.902   1.881   1.087  0.2708 -0.4531 -0.3548
 9534TIP3    H228564   4.860   1.945   0.957 -1.9853  1.3209  1.1881
 9535TIP3   OH228565   5.162   5.470   5.638 -0.1209 -0.3836 -0.5074
 9535TIP3    H128566   5.184   5.539   5.700 -0.7639  1.3687 -2.1408
 9535TIP3    H228567   5.243   5.453   5.591 -0.2647  0.2078 -0.9795
 9536TIP3   OH228568   2.934   0.621   5.464 -0.4641  0.4899  0.1795
 9536TIP3    H128569   2.907   0.636   5.374 -0.1610  3.0872  0.4255
 9536TIP3    H228570   2.852   0.609   5.512 -0.7043  0.3450 -0.2675
 9537TIP3   OH228571   4.076   3.886   4.795 -0.1558  0.1306 -0.5152
 9537TIP3    H128572   4.115   3.801   4.817  0.0287  0.5542  0.8724
 9537TIP3    H228573   4.130   3.918   4.722 -0.5284 -1.1372 -1.3808
 9538TIP3   OH228574   7.170   3.808   3.218  0.6144 -0.1639  0.3162
 9538TIP3    H128575   7.216   3.870   3.161 -1.3056  0.9731 -0.1177
 9538TIP3    H228576   7.151   3.733   3.161  0.2511  0.2047 -0.0590
 9539TIP3   OH228577   2.723   5.742   4.671 -0.0542  0.3709  0.1719
 9539TIP3    H128578   2.784   5.698   4.731 -2.0239  0.3502  2.2989
 9539TIP3    H228579   2.718   5.832   4.704 -1.1222  0.3793  0.0155
 9540TIP3   OH228580   1.961   0.960   2.697  0.2340  0.7731  0.5294
 9540TIP3    H128581   2.050   0.977   2.665 -0.3835  0.2135 -1.6367
 9540TIP3    H228582   1.970   0.883   2.753  0.5430 -2.5340 -3.6152
 9541TIP3   OH228583   3.313   6.343   1.743  0.2968 -0.0890 -0.4055
 9541TIP3    H128584   3.368   6.413   1.709  1.8705 -0.0461  1.9624
 9541TIP3    H228585   3.312   6.277   1.675  3.2879 -0.0485 -0.5956
 9542TIP3   OH228586   4.455   2.826   2.722 -0.3314  1.0344  0.2463
 9542TIP3    H128587   4.384   2.773   2.759  1.9515 -3.8745 -1.4427
 9542TIP3    H228588   4.420   2.859   2.639 -1.5822  1.4997  0.9305
 9543TIP3   OH228589   0.271   3.408   1.002  0.1470 -0.0563 -0.4613
 9543TIP3    H128590   0.203   3.468   0.972 -0.2201 -1.2067 -2.0612
 9543TIP3    H228591   0.314   3.454   1.074 -2.5511  0.5627  0.8943
 9544TIP3   OH228592   6.733   2.291   4.869 -0.2955  0.6361  0.1042
 9544TIP3    H128593   6.711   2.218   4.927  0.2821  1.3944  1.3188
 9544TIP3    H228594   6.652   2.343   4.865 -0.5650  0.1918 -0.3912
 9545TIP3   OH228595   6.296   4.973   0.934 -0.0125 -0.5441 -0.2439
 9545TIP3    H128596   6.385   4.978   0.900  0.5298  1.3031  1.2330
 9545TIP3    H228597   6.307   4.942   1.024 -0.6884  0.8360  0.3484
 9546TIP3   OH228598   3.527   3.053   3.818 -0.4801  0.2658 -0.3427
 9546TIP3    H128599   3.452   3.044   3.877  0.2840 -1.5961  0.4335
 9546TIP3    H228600   3.495   3.021   3.734 -0.7811  0.2246 -0.2156
 9547TIP3   OH228601   1.954   4.548   5.228 -0.1034  0.4198  0.1537
 9547TIP3    H128602   1.999   4.543   5.312 -0.9829 -0.3958  0.5948
 9547TIP3    H228603   1.887   4.615   5.241  0.3160  0.9060 -0.1758
 9548TIP3   OH228604   5.002   7.051   3.650 -0.5049 -0.0860 -0.0252
 9548TIP3    H128605   5.030   6.960   3.638 -0.9196 -0.1625 -0.4612
 9548TIP3    H228606   5.071   7.102   3.607 -0.5896 -0.2286 -0.3353
 9549TIP3   OH228607   4.512   0.149   4.488  0.0415  0.6159 -0.1786
 9549TIP3    H128608   4.559   0.199   4.554  2.1611  0.3755 -1.4029
 9549TIP3    H228609   4.548   0.060   4.496  1.9421  1.0104 -2.9100
 9550TIP3   OH228610   1.141   2.177   1.674  0.6596 -0.5227 -0.2298
 9550TIP3    H128611   1.094   2.104   1.714  0.3286 -0.0878  0.1884
 9550TIP3    H228612   1.171   2.143   1.590 -1.2109 -0.5527 -0.9406
 9551TIP3   OH228613   0.500   2.919   5.387 -0.7190 -0.1098 -0.2175
 9551TIP3    H128614   0.583   2.963   5.372  0.1680 -2.2532 -2.2510
 9551TIP3    H228615   0.509   2.879   5.474 -0.8508  2.0275  0.8521
 9552TIP3   OH228616   1.533   0.581   5.455 -0.1053  0.5907 -0.0046
 9552TIP3    H128617   1.609   0.597   5.510  0.7462 -2.0844 -0.2436
 9552TIP3    H228618   1.462   0.561   5.517  0.3219 -0.3530  0.2062
 9553TIP3   OH228619   4.034   0.443   2.334 -0.4135  0.2015 -0.6218
 9553TIP3    H128620   4.022   0.380   2.263 -1.2443 -1.5278  0.9961
 9553TIP3    H228621   4.028   0.392   2.414 -0.1425  2.1924  0.7524
 9554TIP3   OH228622   5.948   0.302   1.898 -0.4370 -0.2698 -0.1055
 9554TIP3    H128623   6.018   0.268   1.842  0.4388 -1.1040  1.4080
 9554TIP3    H228624   5.897   0.225   1.923 -1.3850  0.2150 -0.4920
 9555TIP3   OH228625   7.233   7.051   3.988  0.2866  0.1455  0.2444
 9555TIP3    H128626   7.263   7.042   4.079  1.1291 -0.3026 -0.0682
 9555TIP3    H228627   7.189   6.968   3.969  1.0497 -0.1873 -0.0929
 9556TIP3   OH228628   1.345   3.266   1.896  0.0790 -0.3111  0.0252
 9556TIP3    H128629   1.272   3.206   1.881 -1.5274  1.2898  0.8934
 9556TIP3    H228630   1.366   3.300   1.809 -0.1057 -0.9230 -0.2630
 9557TIP3   OH228631   1.951   2.957   1.338 -0.0087 -0.3999 -0.1283
 9557TIP3    H128632   1.895   2.884   1.366 -1.3772  0.8608  0.6004
 9557TIP3    H228633   1.920   2.977   1.249  0.6621 -0.9773 -0.4942
 9558TIP3   OH228634   3.276   4.424   0.474 -0.7470  0.2382  0.9854
 9558TIP3    H128635   3.330   4.457   0.546 -1.4486 -0.2206  1.7432
 9558TIP3    H228636   3.275   4.496   0.411 -1.5670  1.3892  2.2337
 9559TIP3   OH228637   5.934   2.254   3.746 -0.0418  0.0294  0.5512
 9559TIP3    H128638   6.006   2.315   3.732 -1.0982  0.7246 -2.6586
 9559TIP3    H228639   5.890   2.288   3.825  0.0154  2.8823 -0.5132
 9560TIP3   OH228640   0.660   2.301   6.127  0.3461 -0.1313 -0.6473
 9560TIP3    H128641   0.681   2.391   6.152  0.6814 -0.8294  1.8480
 9560TIP3    H228642   0.564   2.297   6.130  0.3235  0.1626 -0.9128
 9561TIP3   OH228643   1.493   4.201   5.731  0.2782  0.1446  0.1026
 9561TIP3    H128644   1.470   4.176   5.821 -1.1167 -0.9492 -0.5112
 9561TIP3    H228645   1.520   4.119   5.690  0.9279  0.6378 -0.4812
 9562TIP3   OH228646   7.575   3.508   3.672 -0.1122  0.2044  0.6532
 9562TIP3    H128647   7.626   3.589   3.673  2.8209 -1.3911 -1.7660
 9562TIP3    H228648   7.556   3.492   3.580 -3.1726 -0.4991  1.2900
 9563TIP3   OH228649   2.974   1.248   1.188  0.0485 -0.0064 -0.0761
 9563TIP3    H128650   2.891   1.203   1.173  0.3556 -0.3232 -0.9185
 9563TIP3    H228651   3.040   1.179   1.179  0.3958  0.2109  0.7426
 9564TIP3   OH228652   4.999   5.237   5.560 -0.4721  0.2626  0.0299
 9564TIP3    H128653   5.040   5.323   5.571 -3.0024  1.5911 -0.1137
 9564TIP3    H228654   4.997   5.199   5.647  1.3334 -0.0131 -0.0252
 9565TIP3   OH228655   1.009   3.636   1.866 -0.2991 -0.4922  0.7910
 9565TIP3    H128656   1.033   3.571   1.800  3.3571 -0.0665  1.4537
 9565TIP3    H228657   0.915   3.646   1.858 -0.4199 -2.7941 -2.1483
 9566TIP3   OH228658   0.035   7.044   4.832 -0.4486 -0.2691  0.2665
 9566TIP3    H128659   0.101   7.005   4.889 -0.0983 -0.2782 -0.1399
 9566TIP3    H228660   0.033   7.136   4.856  0.5481 -0.0270 -0.4971
 9567TIP3   OH228661   5.728   4.181   5.370 -0.1660  0.3841  0.8191
 9567TIP3    H128662   5.811   4.213   5.404 -1.0227  0.4189  2.9959
 9567TIP3    H228663   5.724   4.215   5.280  1.3776  1.7868  1.2449
 9568TIP3   OH228664   2.972   2.283   5.823  0.2231 -0.3169 -0.2691
 9568TIP3    H128665   2.886   2.241   5.825 -0.8636  1.8042  0.7763
 9568TIP3    H228666   2.998   2.291   5.915  1.2792 -0.3720 -0.5421
 9569TIP3   OH228667   5.358   1.068   1.409  0.0435  0.2775 -0.0605
 9569TIP3    H128668   5.387   1.146   1.361 -1.0200 -0.2838 -1.7135
 9569TIP3    H228669   5.335   1.006   1.340  1.0018 -1.5739  1.2228
 9570TIP3   OH228670   1.068   3.455   0.369  0.6828  0.2347 -0.7350
 9570TIP3    H128671   1.064   3.363   0.343 -0.1727  0.8013 -2.8630
 9570TIP3    H228672   0.989   3.468   0.422  0.6786 -0.2045 -0.6306
 9571TIP3   OH228673   7.036   7.104   3.698  0.3301  0.0457  0.3909
 9571TIP3    H128674   6.946   7.074   3.680  0.3444 -1.8202  2.9466
 9571TIP3    H228675   7.028   7.199   3.705 -1.2136  0.0275 -0.5953
 9572TIP3   OH228676   7.570   2.948   4.695 -0.2888  0.1183 -0.3905
 9572TIP3    H128677   7.640   2.908   4.644 -0.1118  0.2019 -0.2170
 9572TIP3    H228678   7.580   2.910   4.783 -1.3175 -0.9338 -0.6894
 9573TIP3   OH228679   6.189   0.338   5.854  0.4005  0.0147  0.1232
 9573TIP3    H128680   6.175   0.420   5.900  0.9112  1.4185 -2.0941
 9573TIP3    H228681   6.283   0.322   5.860  0.0781 -1.5516  2.2626
 9574TIP3   OH228682   5.589   4.710   6.117 -0.7343  0.1502  0.0960
 9574TIP3    H128683   5.667   4.662   6.091 -0.8543 -0.2890  0.5332
 9574TIP3    H228684   5.613   4.802   6.107 -0.6546  0.0066 -1.1950
 9575TIP3   OH228685   5.689   5.139   2.622  0.0231 -0.2310 -0.4153
 9575TIP3    H128686   5.668   5.097   2.538 -2.2533 -0.3178  0.1334
 9575TIP3    H228687   5.659   5.229   2.611  1.5125  0.2918 -0.3267
 9576TIP3   OH228688   6.607   3.253   1.351  0.5589 -0.5278 -0.4325
 9576TIP3    H128689   6.688   3.301   1.335  0.4919 -0.3667 -0.2854
 9576TIP3    H228690   6.537   3.318   1.343  0.3126 -0.9602 -2.0848
 9577TIP3   OH228691   4.988   6.996   5.329  0.5491  0.2651  0.1514
 9577TIP3    H128692   4.952   6.909   5.316 -1.7996  1.2320 -0.4375
 9577TIP3    H228693   4.966   7.018   5.420 -0.7746  0.9796 -0.3030
 9578TIP3   OH228694   0.718   5.379   0.245 -0.1480 -0.1220 -0.1868
 9578TIP3    H128695   0.703   5.450   0.307  0.0412 -0.2256 -0.0225
 9578TIP3    H228696   0.663   5.401   0.169 -1.3325 -0.6199  0.4988
 9579TIP3   OH228697   5.881   5.500   4.108  0.1260  0.1112 -0.6034
 9579TIP3    H128698   5.832   5.466   4.183  0.9497  2.3443  1.0505
 9579TIP3    H228699   5.957   5.441   4.101  0.9091  0.7764  1.4305
 9580TIP3   OH228700   4.361   0.503   1.127 -0.3925 -0.5668  0.1226
 9580TIP3    H128701   4.434   0.540   1.176  0.3534 -2.3329  0.4261
 9580TIP3    H228702   4.401   0.439   1.068 -1.7335 -2.4864  1.1749
 9581TIP3   OH228703   2.075   3.171   0.082  0.6098 -0.3191 -0.1180
 9581TIP3    H128704   2.052   3.084   0.049  1.2075 -0.2288 -0.7833
 9581TIP3    H228705   2.133   3.154   0.157  1.3750 -0.5005 -0.7324
 9582TIP3   OH228706   3.427   4.822   0.699 -1.3272  0.1343 -0.3802
 9582TIP3    H128707   3.417   4.914   0.723  0.5214  0.4170 -0.5606
 9582TIP3    H228708   3.496   4.788   0.757 -1.0004 -0.7466 -1.2418
 9583TIP3   OH228709   0.385   4.480   3.479 -0.0651  0.5837 -0.2429
 9583TIP3    H128710   0.369   4.516   3.567  1.0831 -1.6894  0.9768
 9583TIP3    H228711   0.476   4.505   3.459  1.0690 -2.1701  1.0101
 9584TIP3   OH228712   4.379   0.691   0.254 -0.6898 -0.1161  0.4516
 9584TIP3    H128713   4.300   0.695   0.307 -0.9365 -1.1183  0.1811
 9584TIP3    H228714   4.360   0.625   0.187  0.7467 -1.1546  1.0046
 9585TIP3   OH228715   3.941   3.933   6.021  0.5660 -0.1989 -0.2783
 9585TIP3    H128716   4.022   3.973   5.991  0.0273  1.6222  0.5281
 9585TIP3    H228717   3.932   3.962   6.112 -0.5197 -1.1364 -0.0543
 9586TIP3   OH228718   5.467   3.277   1.087 -0.1982  0.5309 -0.4105
 9586TIP3    H128719   5.517   3.236   1.016  1.3830  0.0968  0.8840
 9586TIP3    H228720   5.398   3.213   1.107  2.1855 -1.6580  1.5223
 9587TIP3   OH228721   7.022   1.482   4.323  0.3352  0.1472  0.3332
 9587TIP3    H128722   7.070   1.400   4.336  0.5376  0.4099  1.2774
 9587TIP3    H228723   6.975   1.469   4.240  0.1553 -1.0225  0.5976
 9588TIP3   OH228724   2.366   1.751   0.345  0.0903  0.0788  0.4950
 9588TIP3    H128725   2.331   1.741   0.257 -1.0756  2.0247  0.6761
 9588TIP3    H228726   2.452   1.791   0.332  0.2675 -0.3797  0.2244
 9589TIP3   OH228727   1.508   1.638   3.440 -0.3504 -0.0603  0.6824
 9589TIP3    H128728   1.560   1.688   3.377 -0.4049 -1.0483 -0.1790
 9589TIP3    H228729   1.435   1.696   3.462 -0.8991 -0.0636 -0.9735
 9590TIP3   OH228730   3.924   0.648   2.581  0.2319  0.3069  0.3815
 9590TIP3    H128731   3.914   0.739   2.552 -0.9368  0.6962  1.9072
 9590TIP3    H228732   3.892   0.597   2.506 -0.0519  1.1828 -0.1213
 9591TIP3   OH228733   1.904   0.685   5.428  0.3403 -0.7711 -0.6256
 9591TIP3    H128734   1.867   0.641   5.505 -0.7580  1.3128  0.1080
 9591TIP3    H228735   1.953   0.759   5.464 -0.0594  0.1514 -1.9072
 9592TIP3   OH228736   5.851   0.799   5.358  0.1356  0.1357  0.1732
 9592TIP3    H128737   5.814   0.826   5.274  0.8710  0.6503  0.0145
 9592TIP3    H228738   5.885   0.711   5.342 -1.3751 -0.5320  0.4351
 9593TIP3   OH228739   0.332   3.857   2.477  0.3351 -0.4845 -0.1603
 9593TIP3    H128740   0.252   3.804   2.483 -0.3541  0.6711  2.4037
 9593TIP3    H228741   0.337   3.902   2.561  2.4025  1.3687 -1.1729
 9594TIP3   OH228742   5.286   6.113   5.620 -0.0769 -0.2812 -0.2992
 9594TIP3    H128743   5.285   6.114   5.716 -0.7486  2.2554 -0.2675
 9594TIP3    H228744   5.213   6.057   5.596 -0.7384  0.1326  0.6870
 9595TIP3   OH228745   3.073   1.909   1.052  0.5188 -0.2873  0.2575
 9595TIP3    H128746   3.096   2.002   1.042  2.4046 -0.7217  0.1529
 9595TIP3    H228747   3.004   1.895   0.987  0.9932  0.7995 -0.5345
 9596TIP3   OH228748   5.681   1.075   3.676  0.0941 -0.4690 -0.6238
 9596TIP3    H128749   5.750   1.128   3.636  1.3647 -0.4326  1.4488
 9596TIP3    H228750   5.657   1.011   3.610  0.8354  0.6573 -2.0265
 9597TIP3   OH228751   3.095   5.220   1.280 -0.2980  0.1576 -0.4885
 9597TIP3    H128752   3.133   5.307   1.282 -0.3336  0.2708 -2.5784
 9597TIP3    H228753   3.001   5.235   1.268 -0.3613 -0.1456 -0.3713
 9598TIP3   OH228754   1.628   3.969   3.684  0.3573 -0.1142 -0.0532
 9598TIP3    H128755   1.568   3.901   3.653  2.1072 -1.9221  0.3598
 9598TIP3    H228756   1.706   3.959   3.629  0.6417  1.6351 -0.0202
 9599TIP3   OH228757   3.887   2.103   3.580  0.2776 -0.5995 -0.3085
 9599TIP3    H128758   3.813   2.089   3.521  0.7157 -1.2668 -0.7068
 9599TIP3    H228759   3.895   2.020   3.629 -0.0790 -0.0608  0.6912
 9600TIP3   OH228760   0.808   6.633   0.807 -0.4435 -0.0817 -0.5004
 9600TIP3    H128761   0.897   6.611   0.781 -0.4967  0.3326 -1.0759
 9600TIP3    H228762   0.760   6.550   0.803 -0.1177 -0.2782 -0.3359
 9601TIP3   OH228763   0.994   5.132   0.230 -0.3493  0.1009  0.1826
 9601TIP3    H128764   1.006   5.074   0.306 -2.5707 -0.0952  0.4691
 9601TIP3    H228765   1.041   5.212   0.254 -0.9183  0.0103  1.7497
 9602TIP3   OH228766   3.981   5.575   5.574 -0.7647  0.5249  0.2635
 9602TIP3    H128767   4.058   5.568   5.631 -0.6088 -1.3643 -0.1214
 9602TIP3    H228768   3.973   5.489   5.533 -2.9286  0.7419  0.0819
 9603TIP3   OH228769   1.120   0.821   1.606 -0.2880 -0.3250  0.2897
 9603TIP3    H128770   1.117   0.901   1.553 -1.0522 -0.8929 -0.5429
 9603TIP3    H228771   1.030   0.808   1.635  0.5328  2.0261  4.9644
 9604TIP3   OH228772   6.962   2.966   5.800  0.3011  0.5880  0.5335
 9604TIP3    H128773   6.931   2.885   5.842 -2.4658  1.2633  0.0056
 9604TIP3    H228774   7.046   2.943   5.761 -1.0977 -2.5074 -0.9327
 9605TIP3   OH228775   3.575   0.391   2.299  0.0216 -0.7847  0.0938
 9605TIP3    H128776   3.487   0.403   2.262 -0.6182 -2.7963  0.8279
 9605TIP3    H228777   3.622   0.470   2.273 -1.4461 -0.4743 -1.9236
 9606TIP3   OH228778   5.303   3.752   0.214 -0.1008  0.3684 -0.6791
 9606TIP3    H128779   5.290   3.814   0.142 -0.2755  0.4527 -0.5762
 9606TIP3    H228780   5.345   3.804   0.283 -0.1469  0.3452 -0.6338
 9607TIP3   OH228781   2.157   0.694   0.576 -0.0830 -0.0719  0.1049
 9607TIP3    H128782   2.203   0.714   0.658  0.1477  0.6064 -0.1846
 9607TIP3    H228783   2.080   0.750   0.578  0.0091  0.0679 -0.2190
 9608TIP3   OH228784   2.408   3.965   3.662  0.0045  0.1669 -0.2904
 9608TIP3    H128785   2.418   3.882   3.615 -0.7340  0.9969 -2.0078
 9608TIP3    H228786   2.325   4.000   3.630 -0.7578  0.6215  1.9791
 9609TIP3   OH228787   3.120   3.238   1.682  0.3902  0.6180 -0.0051
 9609TIP3    H128788   3.146   3.225   1.591  1.1557 -3.3111  0.6250
 9609TIP3    H228789   3.025   3.221   1.683  0.4667  0.1925  0.0043
 9610TIP3   OH228790   2.538   5.071   1.380  0.7668 -0.0703 -0.3820
 9610TIP3    H128791   2.503   4.985   1.354  2.4301 -0.4283 -1.5664
 9610TIP3    H228792   2.612   5.085   1.322  1.3161  1.6028  0.6735
 9611TIP3   OH228793   3.419   6.714   5.598 -0.2351  0.4406 -0.4601
 9611TIP3    H128794   3.503   6.669   5.605 -1.5087 -1.9645  0.8616
 9611TIP3    H228795   3.372   6.668   5.529 -0.8519  1.0769 -0.4804
 9612TIP3   OH228796   6.226   6.854   2.047  0.2871 -0.2101  0.2718
 9612TIP3    H128797   6.270   6.789   1.992 -3.9290 -2.0937 -1.3287
 9612TIP3    H228798   6.246   6.938   2.005  1.9574 -0.9713 -0.5383
 9613TIP3   OH228799   3.387   5.304   2.311  0.1021  0.4006 -0.2784
 9613TIP3    H128800   3.341   5.359   2.374 -1.2652  0.9993 -1.7351
 9613TIP3    H228801   3.412   5.363   2.240  2.8703  0.0244  0.2782
 9614TIP3   OH228802   6.545   3.162   1.808  0.0212  0.9088 -0.3128
 9614TIP3    H128803   6.599   3.216   1.750 -0.9208  0.4239 -1.6780
 9614TIP3    H228804   6.605   3.137   1.879  1.6213  0.3860 -1.7714
 9615TIP3   OH228805   5.857   4.588   3.249  0.5957  0.6696  0.1778
 9615TIP3    H128806   5.947   4.564   3.270  0.2584 -0.2726  0.5745
 9615TIP3    H228807   5.819   4.617   3.332  0.0014 -0.6832  0.4005
 9616TIP3   OH228808   5.222   1.391   4.056  0.4407  0.6374 -0.1731
 9616TIP3    H128809   5.239   1.329   4.126 -0.3102  0.5060 -0.0953
 9616TIP3    H228810   5.163   1.344   3.996 -0.1446  1.2677 -0.1093
 9617TIP3   OH228811   1.866   3.196   2.803  0.5344 -0.1008  0.2100
 9617TIP3    H128812   1.834   3.286   2.816  1.1769 -0.1635  2.8991
 9617TIP3    H228813   1.820   3.166   2.725 -2.2152  1.4795  1.0534
 9618TIP3   OH228814   1.302   2.160   6.036  0.2888 -0.0049  0.6326
 9618TIP3    H128815   1.281   2.251   6.015  0.1229  0.1059  1.2570
 9618TIP3    H228816   1.254   2.143   6.117 -0.1120 -0.8106  0.2399
 9619TIP3   OH228817   0.158   6.054   0.819 -0.0649  0.3998 -0.1885
 9619TIP3    H128818   0.229   6.118   0.811  1.7126 -1.6323 -1.8398
 9619TIP3    H228819   0.186   5.995   0.889 -0.4289 -0.0674 -0.4302
 9620TIP3   OH228820   1.416   5.400   0.215 -0.6830  0.0445 -0.0284
 9620TIP3    H128821   1.358   5.471   0.187 -1.0237  0.0714  0.7375
 9620TIP3    H228822   1.481   5.443   0.272 -2.3289 -0.5912  2.4796
 9621TIP3   OH228823   6.832   0.585   4.311  0.5445  0.0800 -0.7238
 9621TIP3    H128824   6.922   0.580   4.344  0.8823 -0.2324 -1.6592
 9621TIP3    H228825   6.839   0.639   4.232 -0.2707  0.9242 -0.2358
 9622TIP3   OH228826   0.507   4.525   0.330  0.4598  0.1408  0.1010
 9622TIP3    H128827   0.427   4.577   0.344 -0.5197 -1.0847 -0.7541
 9622TIP3    H228828   0.572   4.589   0.302 -0.6211  0.9790 -0.5777
 9623TIP3   OH228829   6.296   5.197   1.452 -0.0562  0.0300  0.5968
 9623TIP3    H128830   6.274   5.104   1.457 -0.1836  0.0562  0.5233
 9623TIP3    H228831   6.379   5.205   1.499 -0.1247 -0.0944  0.7383
 9624TIP3   OH228832   6.100   4.157   0.752  0.2082 -0.1755 -0.2087
 9624TIP3    H128833   6.100   4.253   0.753  1.8267 -0.1519  0.6878
 9624TIP3    H228834   6.010   4.134   0.728 -0.4420  1.5626  0.3567
 9625TIP3   OH228835   2.268   6.171   5.596  0.5816  0.5688 -0.5321
 9625TIP3    H128836   2.193   6.121   5.564 -0.0793  1.8657 -1.0440
 9625TIP3    H228837   2.303   6.215   5.519  0.3565  1.9290  0.1069
 9626TIP3   OH228838   4.438   5.262   1.544 -0.5791  0.3696  0.0054
 9626TIP3    H128839   4.345   5.280   1.529 -1.4161 -1.7739  2.0909
 9626TIP3    H228840   4.459   5.308   1.625 -0.4867 -0.9984  0.7887
 9627TIP3   OH228841   7.223   2.961   2.727  0.4537  0.4741 -0.8606
 9627TIP3    H128842   7.212   3.048   2.688  0.3622  0.5638 -0.6362
 9627TIP3    H228843   7.166   2.905   2.675  0.6821  0.5056 -1.1469
 9628TIP3   OH228844   6.472   2.211   0.775 -0.1644  0.1380  0.1507
 9628TIP3    H128845   6.489   2.279   0.710  1.6614 -0.5503 -0.1481
 9628TIP3    H228846   6.465   2.130   0.723  1.4687 -0.4456  0.7687
 9629TIP3   OH228847   6.122   2.564   5.046 -0.1226  0.0624  0.0342
 9629TIP3    H128848   6.194   2.626   5.037  0.7547 -0.6703  1.5405
 9629TIP3    H228849   6.047   2.608   5.008  0.7466  1.5508 -0.0269
 9630TIP3   OH228850   1.085   3.868   4.630  0.0889 -0.2229  0.3916
 9630TIP3    H128851   1.039   3.951   4.619 -0.0341 -0.3522 -0.0457
 9630TIP3    H228852   1.174   3.894   4.656  0.6630  0.1257 -1.7546
 9631TIP3   OH228853   2.505   5.500   2.436  0.2513  0.1367 -0.3215
 9631TIP3    H128854   2.471   5.583   2.402 -0.2577 -0.6472 -1.8269
 9631TIP3    H228855   2.440   5.435   2.409  0.4423 -0.7153  1.1757
 9632TIP3   OH228856   3.803   7.107   3.461 -0.4219 -0.1424  0.1527
 9632TIP3    H128857   3.897   7.088   3.453 -0.6092 -0.6787 -0.9840
 9632TIP3    H228858   3.789   7.180   3.402 -0.7175 -0.0494  0.3387
 9633TIP3   OH228859   0.477   6.366   3.513  0.2919  0.3888 -0.2358
 9633TIP3    H128860   0.466   6.384   3.607  0.1747 -1.7228  0.2068
 9633TIP3    H228861   0.548   6.302   3.510 -0.8193 -0.8453 -1.4254
 9634TIP3   OH228862   3.559   6.577   4.912 -0.0083 -0.3100  0.3213
 9634TIP3    H128863   3.508   6.511   4.958  2.2118 -1.2251  1.6059
 9634TIP3    H228864   3.515   6.586   4.827 -2.1697 -1.1158  1.2868
 9635TIP3   OH228865   4.719   1.767   4.263 -0.1467  0.0973 -0.2022
 9635TIP3    H128866   4.724   1.676   4.232  1.2916 -0.0673  0.4314
 9635TIP3    H228867   4.693   1.759   4.355 -1.0922  0.3977 -0.4381
 9636TIP3   OH228868   6.063   2.603   3.234  0.1864  0.0488  0.1134
 9636TIP3    H128869   6.078   2.547   3.158  1.7765  1.1661 -0.4353
 9636TIP3    H228870   6.091   2.549   3.309  0.5927 -0.3070 -0.2913
 9637TIP3   OH228871   6.427   7.010   3.339 -0.1911  0.2082 -0.0273
 9637TIP3    H128872   6.438   7.101   3.312  0.8522 -0.3328 -1.5725
 9637TIP3    H228873   6.339   6.987   3.309  0.5300 -0.0428 -2.1206
 9638TIP3   OH228874   6.631   4.194   1.914 -0.0975  0.0598 -0.9610
 9638TIP3    H128875   6.693   4.240   1.971  0.7136 -1.7528 -0.3086
 9638TIP3    H228876   6.589   4.130   1.971 -0.9721 -0.2319 -1.9073
 9639TIP3   OH228877   3.388   2.384   1.969 -0.6421 -0.3243 -0.8622
 9639TIP3    H128878   3.323   2.410   1.903 -1.3003 -0.5822 -0.3320
 9639TIP3    H228879   3.419   2.467   2.005 -3.6026 -0.0867  1.6568
 9640TIP3   OH228880   5.406   3.317   5.354  0.3891  0.7068  0.1325
 9640TIP3    H128881   5.485   3.265   5.364 -0.1773  0.1069  1.7947
 9640TIP3    H228882   5.408   3.347   5.263  1.0645 -1.7077 -0.7244
 9641TIP3   OH228883   6.557   3.614   6.146 -0.4880  0.3518  0.2381
 9641TIP3    H128884   6.540   3.707   6.133 -1.2483 -0.1205 -2.6390
 9641TIP3    H228885   6.629   3.612   6.210  0.9898  2.9946 -1.1964
 9642TIP3   OH228886   6.275   0.016   2.383 -0.3666 -0.5245 -0.4782
 9642TIP3    H128887   6.318  -0.037   2.316 -1.5782 -0.2369 -1.5347
 9642TIP3    H228888   6.321   0.100   2.381  0.3848 -0.9189 -0.0799
 9643TIP3   OH228889   5.757   1.227   0.500 -0.5525  0.4172 -0.4459
 9643TIP3    H128890   5.663   1.211   0.507 -0.2282 -0.9257  2.1748
 9643TIP3    H228891   5.796   1.140   0.491  0.4767  0.9304 -1.2079
 9644TIP3   OH228892   0.328   4.354   5.299 -0.1383  0.2245 -0.4507
 9644TIP3    H128893   0.380   4.279   5.329 -0.2114  0.5751  0.6145
 9644TIP3    H228894   0.387   4.429   5.309  0.2796  0.2031 -2.4791
 9645TIP3   OH228895   4.211   1.774   5.104 -0.2648  0.5126  0.0554
 9645TIP3    H128896   4.195   1.690   5.062  0.9127  1.0536 -1.5653
 9645TIP3    H228897   4.305   1.776   5.121  0.1242  2.2801 -1.8521
 9646TIP3   OH228898   3.796   3.766   4.194  0.4781  0.2914  0.3927
 9646TIP3    H128899   3.737   3.775   4.269  1.0029 -0.8366  0.9587
 9646TIP3    H228900   3.766   3.833   4.132  0.6975  1.9871  2.0343
 9647TIP3   OH228901   4.508   4.655   1.471 -0.6037 -0.4259 -0.0165
 9647TIP3    H128902   4.507   4.692   1.383  2.5472 -0.5404 -0.2168
 9647TIP3    H228903   4.576   4.588   1.468  0.9114  0.7869  2.9212
 9648TIP3   OH228904   4.829   6.409   1.192 -0.3777 -0.0362  0.0451
 9648TIP3    H128905   4.907   6.355   1.174 -0.7895 -0.8187  0.5322
 9648TIP3    H228906   4.773   6.397   1.116  0.0531  0.6976 -0.4041
 9649TIP3   OH228907   6.133   5.408   4.102 -0.1475  0.5534  0.1799
 9649TIP3    H128908   6.153   5.319   4.071  1.8354  1.2604 -0.7118
 9649TIP3    H228909   6.135   5.462   4.023  0.5882  1.6829  0.9332
 9650TIP3   OH228910   7.472   5.974   5.892  0.1271  0.1222 -0.0537
 9650TIP3    H128911   7.444   6.045   5.949 -0.6940  0.6849 -1.1330
 9650TIP3    H228912   7.568   5.972   5.901 -0.0918 -2.0509  3.9433
 9651TIP3   OH228913   4.758   5.082   5.494 -0.3216 -0.3681  0.0729
 9651TIP3    H128914   4.730   4.994   5.469  0.3510 -0.1550 -1.5500
 9651TIP3    H228915   4.810   5.069   5.573  0.1681 -1.5029 -0.4042
 9652TIP3   OH228916   1.084   5.940   4.519 -0.4790  0.3284  0.1238
 9652TIP3    H128917   1.022   5.992   4.469 -0.1654 -0.6287 -1.3121
 9652TIP3    H228918   1.166   5.990   4.516 -0.5317  0.4001 -0.0730
 9653TIP3   OH228919   2.384   1.513   1.336  0.1513  0.0914 -0.2913
 9653TIP3    H128920   2.382   1.551   1.248 -2.6761  0.0706 -0.3277
 9653TIP3    H228921   2.337   1.577   1.390  0.3838 -0.6880  0.8662
 9654TIP3   OH228922   3.428   1.922   2.640 -0.2428  0.1862 -0.0375
 9654TIP3    H128923   3.430   1.950   2.548 -0.1289  0.0538 -0.0761
 9654TIP3    H228924   3.340   1.886   2.652 -0.1070 -0.2116 -0.2201
 9655TIP3   OH228925   1.478   6.909   4.756  0.2931  0.3145 -0.6745
 9655TIP3    H128926   1.534   6.970   4.709 -1.9248  0.4197 -3.3878
 9655TIP3    H228927   1.401   6.960   4.781 -0.0362 -0.5629  0.1909
 9656TIP3   OH228928   0.508   6.028   4.972  0.1898 -0.2380 -0.1748
 9656TIP3    H128929   0.581   5.974   5.002  0.9194  1.3975  1.0848
 9656TIP3    H228930   0.541   6.072   4.894  1.3064  1.9365  1.4199
 9657TIP3   OH228931   1.657   1.847   0.650  0.4463  0.1412  0.4750
 9657TIP3    H128932   1.691   1.817   0.566 -0.1958 -2.0470  0.9407
 9657TIP3    H228933   1.715   1.808   0.715  0.2575  0.8799  1.1042
 9658TIP3   OH228934   0.567   2.993   5.978 -0.0830  0.0047  0.5416
 9658TIP3    H128935   0.494   3.027   6.030 -1.3053  0.1759 -1.1964
 9658TIP3    H228936   0.598   2.917   6.026 -1.2335  0.0922  1.4575
 9659TIP3   OH228937   4.310   2.089   2.437  0.2687  0.1832  0.1254
 9659TIP3    H128938   4.283   2.031   2.509  0.8622  0.0842  0.2738
 9659TIP3    H228939   4.341   2.029   2.369  1.6198  0.3355  0.5791
 9660TIP3   OH228940   2.782   5.913   5.008 -0.6160  0.7213  0.1741
 9660TIP3    H128941   2.730   5.850   4.958 -0.6023  2.2555 -1.9051
 9660TIP3    H228942   2.768   5.888   5.100 -2.7704 -0.6019 -0.4312
 9661TIP3   OH228943   1.855   3.538   1.003 -0.5717 -0.6491 -0.6768
 9661TIP3    H128944   1.851   3.633   1.009 -2.3404 -0.6489 -1.3475
 9661TIP3    H228945   1.855   3.508   1.094  0.0390 -0.0194 -0.4658
 9662TIP3   OH228946   2.223   1.555   3.689  0.8260 -0.1309 -0.1656
 9662TIP3    H128947   2.288   1.519   3.749 -1.6942 -2.0382  1.6710
 9662TIP3    H228948   2.167   1.481   3.667 -1.0752  1.4959 -1.1708
 9663TIP3   OH228949   5.805   5.531   4.396  0.4469  0.7420  0.1288
 9663TIP3    H128950   5.755   5.461   4.439  0.2745 -1.0276 -2.6115
 9663TIP3    H228951   5.787   5.609   4.447 -0.7793 -0.8864  2.3640
 9664TIP3   OH228952   5.009   3.731   1.485 -0.3039 -0.2262  0.4418
 9664TIP3    H128953   4.929   3.754   1.533  0.0649 -1.3261  1.6112
 9664TIP3    H228954   5.080   3.755   1.543  0.1785 -0.8398  0.1149
 9665TIP3   OH228955   3.298   2.361   2.624 -0.0778 -0.0849  0.2943
 9665TIP3    H128956   3.331   2.350   2.713  0.2608 -0.7545  0.0961
 9665TIP3    H228957   3.369   2.407   2.578 -0.2733  0.3059  0.3809
 9666TIP3   OH228958   0.059   1.037   5.236  0.6086  0.4858 -0.4578
 9666TIP3    H128959   0.096   0.954   5.206  0.1345 -0.4734  1.4401
 9666TIP3    H228960  -0.035   1.021   5.240  0.6148  0.6353  1.1686
 9667TIP3   OH228961   3.176   3.454   4.031  0.6634 -0.3390 -0.2823
 9667TIP3    H128962   3.262   3.461   3.989  0.4312 -1.2416 -0.9485
 9667TIP3    H228963   3.139   3.373   3.995 -0.5930  0.2005 -0.2486
 9668TIP3   OH228964   4.131   6.175   4.548 -0.4461  0.8086 -0.0892
 9668TIP3    H128965   4.075   6.183   4.625  1.1425  1.3598  1.0595
 9668TIP3    H228966   4.094   6.236   4.484 -1.6515  0.5117  0.3007
 9669TIP3   OH228967   1.385   2.852   2.213  0.6463 -0.1685 -0.4140
 9669TIP3    H128968   1.418   2.782   2.156  1.2581 -1.8066  1.7849
 9669TIP3    H228969   1.462   2.879   2.263 -0.3994 -1.1105  1.8730
 9670TIP3   OH228970   6.818   3.775   0.301  0.0433 -0.5857 -0.3787
 9670TIP3    H128971   6.858   3.693   0.273  3.9698  1.2371 -0.6622
 9670TIP3    H228972   6.864   3.843   0.252 -2.7767  1.9010  0.1282
 9671TIP3   OH228973   3.554   1.389   5.218 -0.1343  0.8797  0.4047
 9671TIP3    H128974   3.619   1.397   5.148  0.1647  1.7348  0.7603
 9671TIP3    H228975   3.598   1.340   5.287  0.2132  1.6097  0.7165
 9672TIP3   OH228976   0.661   0.481   0.664 -0.2483 -0.0131 -0.6744
 9672TIP3    H128977   0.618   0.557   0.704 -0.1749 -0.2912 -0.0570
 9672TIP3    H228978   0.603   0.457   0.592 -0.8106  0.0030 -0.2399
 9673TIP3   OH228979   4.466   7.040   4.216 -0.6075  0.7103 -0.1725
 9673TIP3    H128980   4.553   7.058   4.251 -1.5154  2.0392  1.5625
 9673TIP3    H228981   4.460   7.093   4.137  0.4277 -0.0120 -0.7460
 9674TIP3   OH228982   2.190   5.431   2.687 -0.8481 -0.2506 -0.0366
 9674TIP3    H128983   2.172   5.378   2.610 -1.5484  0.8746 -0.6762
 9674TIP3    H228984   2.198   5.521   2.654  1.3852 -0.0548  0.8648
 9675TIP3   OH228985   2.980   0.527   2.501 -0.2733 -0.3345 -0.3390
 9675TIP3    H128986   2.963   0.565   2.415 -0.9418 -0.8969 -0.4607
 9675TIP3    H228987   2.901   0.476   2.521 -0.3631  0.2264  0.8465
 9676TIP3   OH228988   4.640   5.365   1.365  0.4627 -0.4587 -0.3056
 9676TIP3    H128989   4.548   5.353   1.391 -0.7386  1.2191 -3.3021
 9676TIP3    H228990   4.689   5.351   1.446 -2.4797 -0.5607  1.6324
 9677TIP3   OH228991   1.892   2.111   5.426 -0.0651 -0.0534  0.0478
 9677TIP3    H128992   1.907   2.194   5.473 -1.3384  0.5858 -0.6033
 9677TIP3    H228993   1.873   2.048   5.495 -2.6014  1.0214  0.4616
 9678TIP3   OH228994   1.110   5.660   4.462  0.2900 -0.3784 -0.6592
 9678TIP3    H128995   1.101   5.755   4.468 -3.1539 -0.5503 -0.9408
 9678TIP3    H228996   1.069   5.627   4.542 -0.4054 -1.6323 -1.4897
 9679TIP3   OH228997   4.310   5.987   0.602  0.2329  0.2251  0.4111
 9679TIP3    H128998   4.296   5.896   0.629 -1.3553  0.1246 -0.6169
 9679TIP3    H228999   4.389   6.014   0.650 -0.7016 -0.8567  2.7368
 9680TIP3   OH229000   2.302   1.955   5.488  0.6211  0.2897  0.0979
 9680TIP3    H129001   2.308   2.031   5.546  0.9769 -0.5949  1.2552
 9680TIP3    H229002   2.338   1.986   5.404  0.3863  1.4986  0.4198
 9681TIP3   OH229003   5.899   5.165   4.145  0.2587  0.0182  0.6577
 9681TIP3    H129004   5.988   5.176   4.180  0.4883  2.5242 -0.4314
 9681TIP3    H229005   5.842   5.178   4.220  0.7869  3.2591  0.6717
 9682TIP3   OH229006   2.805   0.826   1.735  0.3750 -0.3597  0.1198
 9682TIP3    H129007   2.877   0.764   1.728  1.3960  0.8319 -0.3029
 9682TIP3    H229008   2.759   0.819   1.651  0.1585 -0.9095  0.2790
 9683TIP3   OH229009   3.752   3.677   1.629  0.6966 -0.0680 -0.1303
 9683TIP3    H129010   3.764   3.745   1.696  0.9014 -0.6802  0.4696
 9683TIP3    H229011   3.751   3.595   1.679 -0.2838 -0.4630 -0.7602
 9684TIP3   OH229012   7.310   5.630   0.561 -0.4679 -0.2664  0.1483
 9684TIP3    H129013   7.216   5.617   0.547 -0.2860 -2.1976  0.4405
 9684TIP3    H229014   7.326   5.596   0.649  0.7708 -1.5201 -0.5347
 9685TIP3   OH229015   5.947   5.336   2.320 -0.4141  0.8043  0.1665
 9685TIP3    H129016   5.947   5.324   2.415  1.3857  0.0817  0.1074
 9685TIP3    H229017   6.034   5.308   2.292 -1.1816  0.2332 -1.7974
 9686TIP3   OH229018   3.072   4.892   2.887 -0.0634  0.2014  0.0359
 9686TIP3    H129019   3.008   4.959   2.913  0.2787 -0.0775  1.6782
 9686TIP3    H229020   3.043   4.813   2.931 -0.7573 -0.9266 -2.2998
 9687TIP3   OH229021   5.061   1.670   4.453  0.0681  0.1897  0.0497
 9687TIP3    H129022   5.081   1.675   4.359 -0.4421 -0.5028 -0.1007
 9687TIP3    H229023   5.146   1.668   4.495  0.3214 -0.9339 -0.4835
 9688TIP3   OH229024   4.723   6.070   2.151 -0.0418  0.0351 -0.1831
 9688TIP3    H129025   4.769   6.003   2.101  1.1674 -0.0749  1.0150
 9688TIP3    H229026   4.665   6.112   2.087  1.0820 -0.4087 -1.5536
 9689TIP3   OH229027   3.498   5.843   0.575  0.4601  0.3283  0.2105
 9689TIP3    H129028   3.470   5.926   0.615  1.2044  0.5009  0.3900
 9689TIP3    H229029   3.419   5.808   0.536 -0.2009  0.3783  1.4401
 9690TIP3   OH229030   7.240   7.062   0.678  0.1132  0.0781 -0.0395
 9690TIP3    H129031   7.280   7.057   0.591  4.0880  4.1446  1.1853
 9690TIP3    H229032   7.163   7.118   0.666  0.7737  0.8216 -0.9289
 9691TIP3   OH229033   0.712   0.325   1.753  0.2069  0.0176 -0.6186
 9691TIP3    H129034   0.695   0.323   1.847 -0.1253 -0.1075 -0.6820
 9691TIP3    H229035   0.762   0.406   1.740  0.2067  0.0647 -0.3435
 9692TIP3   OH229036   0.898   5.976   5.296 -0.2748 -0.6298 -0.9664
 9692TIP3    H129037   0.920   6.067   5.315 -0.9393 -0.2196 -2.0745
 9692TIP3    H229038   0.982   5.930   5.295 -0.0879 -0.6501  2.4407
 9693TIP3   OH229039   5.055   2.405   0.457  0.2328 -0.2930 -0.1304
 9693TIP3    H129040   5.146   2.437   0.450  0.9028 -2.1166 -0.2548
 9693TIP3    H229041   5.050   2.334   0.394 -1.0614 -0.7460  0.4545
 9694TIP3   OH229042   1.181   3.396   1.289  0.2920 -0.0455 -0.0838
 9694TIP3    H129043   1.133   3.476   1.310  0.7004  0.1020  0.3320
 9694TIP3    H229044   1.205   3.406   1.197  2.1098  1.2935  0.4738
 9695TIP3   OH229045   6.327   4.779   2.416 -0.5064  0.0980  0.0554
 9695TIP3    H129046   6.348   4.871   2.403  0.2778 -0.1230 -0.3332
 9695TIP3    H229047   6.241   4.767   2.376  0.6003  0.0488 -2.4482
 9696TIP3   OH229048   7.311   0.403   5.744 -0.4593 -0.3916  0.3884
 9696TIP3    H129049   7.306   0.399   5.840  0.7701  3.5239  0.8020
 9696TIP3    H229050   7.220   0.403   5.715 -0.8600 -1.0527  1.5598
 9697TIP3   OH229051   0.134   6.403   0.080  0.2655 -0.0367  0.0482
 9697TIP3    H129052   0.196   6.353   0.133 -0.0645 -1.1682 -0.5933
 9697TIP3    H229053   0.121   6.485   0.128  0.5262 -0.7203  1.3296
 9698TIP3   OH229054   1.033   1.856   3.334 -0.1471  0.6128 -0.2382
 9698TIP3    H129055   1.006   1.940   3.297 -1.7182 -0.6227 -2.0899
 9698TIP3    H229056   1.080   1.813   3.263  0.0742 -0.3318  0.4665
 9699TIP3   OH229057   2.264   5.629   3.686 -0.1238 -0.1755 -0.0164
 9699TIP3    H129058   2.170   5.642   3.673 -0.2128 -1.1964 -0.4805
 9699TIP3    H229059   2.284   5.680   3.764 -0.9785  0.3930 -0.1489
 9700TIP3   OH229060   1.229   0.164   1.492 -0.1435 -1.1753 -0.0650
 9700TIP3    H129061   1.324   0.160   1.499 -0.1379 -2.0446 -0.5760
 9700TIP3    H229062   1.202   0.073   1.478 -1.0861 -0.9974  0.5046
 9701TIP3   OH229063   1.936   5.798   4.562 -0.0461 -0.0645 -0.1821
 9701TIP3    H129064   1.862   5.815   4.621  0.8975  0.0994  0.9698
 9701TIP3    H229065   1.939   5.702   4.556 -0.3934 -0.0702 -0.2906
 9702TIP3   OH229066   6.767   6.644   2.077  0.2593 -0.2255  0.2306
 9702TIP3    H129067   6.833   6.578   2.054  0.9594  1.1006 -1.9346
 9702TIP3    H229068   6.785   6.717   2.017 -2.6231  0.5557  0.1872
 9703TIP3   OH229069   2.802   6.568   0.993  0.2050  0.3703  0.3182
 9703TIP3    H129070   2.806   6.577   1.088  0.7239  1.5523  0.2057
 9703TIP3    H229071   2.834   6.480   0.976 -0.3062 -0.0122  1.2636
 9704TIP3   OH229072   3.692   2.302   2.878  0.0040 -0.1526 -0.0237
 9704TIP3    H129073   3.630   2.231   2.898 -1.6249  0.9111 -1.0734
 9704TIP3    H229074   3.695   2.305   2.783 -0.1774  1.3464 -0.0045
 9705TIP3   OH229075   6.750   1.657   2.507 -0.5741 -0.2531  0.2523
 9705TIP3    H129076   6.821   1.599   2.535  0.1749  0.9493  0.9353
 9705TIP3    H229077   6.784   1.745   2.522 -1.7382  0.3702 -0.6287
 9706TIP3   OH229078   4.545   6.155   0.170  0.6113 -0.1473 -0.0533
 9706TIP3    H129079   4.616   6.192   0.222  1.1654 -0.6099 -0.4768
 9706TIP3    H229080   4.476   6.137   0.234  1.4082 -1.0210  0.5907
 9707TIP3   OH229081   2.412   5.904   2.489 -0.0536 -0.1843  0.1531
 9707TIP3    H129082   2.483   5.849   2.523  1.0482 -0.0355 -1.7792
 9707TIP3    H229083   2.395   5.870   2.401 -0.3592  1.6193 -0.5195
 9708TIP3   OH229084   7.567   5.664   6.111 -0.3238  0.3239  0.1080
 9708TIP3    H129085   7.614   5.591   6.153 -0.6483 -0.7560 -1.3002
 9708TIP3    H229086   7.581   5.649   6.017 -2.7166  0.4898 -0.3272
 9709TIP3   OH229087   3.751   6.377   3.454  0.4350 -0.2968  0.3838
 9709TIP3    H129088   3.683   6.427   3.499  0.3753  1.1102 -1.1653
 9709TIP3    H229089   3.801   6.336   3.525  0.5911  2.1320  1.7978
 9710TIP3   OH229090   4.653   0.173   3.850  0.1980  0.2603  0.3935
 9710TIP3    H129091   4.601   0.166   3.770 -0.0532 -1.5764  0.6677
 9710TIP3    H229092   4.728   0.227   3.826 -0.5778  0.9107 -0.6776
 9711TIP3   OH229093   3.858   0.872   5.489 -0.1462  0.6028  0.3045
 9711TIP3    H129094   3.838   0.961   5.520 -0.9611  0.4011  0.3907
 9711TIP3    H229095   3.904   0.831   5.562 -1.6585  0.2745  1.1367
 9712TIP3   OH229096   1.800   6.123   1.176 -0.4033 -0.0108 -0.9382
 9712TIP3    H129097   1.737   6.107   1.246  0.6924 -1.0246 -0.1424
 9712TIP3    H229098   1.774   6.207   1.139 -2.0292 -0.2493 -0.4481
 9713TIP3   OH229099   3.986   0.526   3.507 -0.1983  0.0934 -0.2197
 9713TIP3    H129100   4.059   0.565   3.555  0.7221 -0.1729 -1.3554
 9713TIP3    H229101   4.015   0.437   3.486 -1.4887 -0.5577  0.6509
 9714TIP3   OH229102   2.981   4.090   0.337  0.1407 -0.0918  0.0382
 9714TIP3    H129103   2.925   4.080   0.414 -0.1528 -2.0086 -0.3942
 9714TIP3    H229104   2.938   4.158   0.285 -0.5181  0.0894  0.7890
 9715TIP3   OH229105   1.000   4.929   5.385 -0.0468  0.3785  0.2622
 9715TIP3    H129106   0.978   5.022   5.376  1.4700  0.5981 -2.3752
 9715TIP3    H229107   0.955   4.886   5.312 -0.7425 -1.0063  1.4566
 9716TIP3   OH229108   0.368   2.261   1.816  0.1058  0.2342  0.0629
 9716TIP3    H129109   0.330   2.203   1.882 -0.6175  1.6793  0.9654
 9716TIP3    H229110   0.442   2.211   1.780 -1.4543 -1.8949 -0.3911
 9717TIP3   OH229111   7.207   5.514   2.263 -0.2298  0.4194  0.2474
 9717TIP3    H129112   7.160   5.565   2.330 -0.0107  0.9631 -0.0056
 9717TIP3    H229113   7.208   5.425   2.297 -0.1206  0.6897  0.9752
 9718TIP3   OH229114   0.548   7.130   2.171  0.6805  0.4379  0.0066
 9718TIP3    H129115   0.591   7.100   2.090 -1.0271 -0.3576 -0.6492
 9718TIP3    H229116   0.578   7.068   2.238  0.2948 -0.3324 -0.5137
 9719TIP3   OH229117   1.032   1.046   4.447 -0.2492  0.6074  0.7104
 9719TIP3    H129118   0.941   1.018   4.436 -0.0768  0.5648 -0.8126
 9719TIP3    H229119   1.036   1.080   4.536 -2.2652  2.3974  0.1897
 9720TIP3   OH229120   1.530   2.190   1.976 -0.0747  0.1951  0.3688
 9720TIP3    H129121   1.570   2.175   2.062  0.0885  0.4926  0.3476
 9720TIP3    H229122   1.584   2.140   1.915 -0.2324 -0.0728  0.4480
 9721TIP3   OH229123   1.405   5.650   4.388 -0.2235  0.2832 -0.2639
 9721TIP3    H129124   1.335   5.713   4.404  0.8723  1.0649  1.8036
 9721TIP3    H229125   1.359   5.568   4.368 -1.6848  1.1643 -0.7045
 9722TIP3   OH229126   1.338   4.554   0.053 -0.0305  0.0101  0.3117
 9722TIP3    H129127   1.293   4.583  -0.027 -1.0736 -0.7932  0.5883
 9722TIP3    H229128   1.357   4.635   0.100  1.4749  0.5792 -1.1718
 9723TIP3   OH229129   0.984   2.391   2.374 -0.4606 -0.5805  0.0076
 9723TIP3    H129130   0.997   2.408   2.281 -0.2914  1.9797  0.4108
 9723TIP3    H229131   0.891   2.370   2.383 -0.9720  1.2535 -0.5394
 9724TIP3   OH229132   0.180   2.883   4.532  0.8381  0.3202 -0.3729
 9724TIP3    H129133   0.125   2.879   4.453  1.3167 -0.0997 -0.6934
 9724TIP3    H229134   0.228   2.965   4.523  0.2913  0.6729 -0.1077
 9725TIP3   OH229135   7.180   5.339   0.552 -0.1407  0.0284  0.4942
 9725TIP3    H129136   7.276   5.337   0.547 -0.0144 -3.2414  1.7986
 9725TIP3    H229137   7.161   5.351   0.645 -0.9567 -0.7578  0.4396
 9726TIP3   OH229138   7.488   5.071   3.281  0.0023  0.1411  0.4660
 9726TIP3    H129139   7.408   5.043   3.237  0.3643 -0.3892  0.1344
 9726TIP3    H229140   7.503   5.005   3.349  0.8376 -0.4890 -0.2971
 9727TIP3   OH229141   4.555   1.976   2.981  0.1214  0.1180  0.2520
 9727TIP3    H129142   4.516   1.899   3.023  0.5355  0.0374  0.5072
 9727TIP3    H229143   4.535   2.049   3.040  2.6629 -0.3497  1.8928
 9728TIP3   OH229144   4.494   2.253   1.635  0.3562  0.2436  0.1071
 9728TIP3    H129145   4.422   2.237   1.574  0.0628  1.4825  0.0972
 9728TIP3    H229146   4.458   2.230   1.721  0.8106 -1.6222 -0.1528
 9729TIP3   OH229147   3.592   5.877   5.425 -0.2371  0.0668 -0.7526
 9729TIP3    H129148   3.587   5.957   5.476 -1.7972 -0.3785 -0.1668
 9729TIP3    H229149   3.521   5.884   5.361  2.1606  1.0147 -3.5784
 9730TIP3   OH229150   3.551   7.021   0.114  0.0545  0.3419  0.2240
 9730TIP3    H129151   3.594   7.076   0.179  0.8742 -1.7223  1.5205
 9730TIP3    H229152   3.601   7.036   0.033  1.1660  0.4405  0.9107
 9731TIP3   OH229153   5.316   1.793   3.775 -0.0612  0.0771 -0.2967
 9731TIP3    H129154   5.397   1.793   3.828  0.0562  0.5041 -0.4672
 9731TIP3    H229155   5.334   1.733   3.703  0.8112  1.5453 -1.3636
 9732TIP3   OH229156   3.609   3.790   1.009 -0.1765 -0.0455 -0.5256
 9732TIP3    H129157   3.691   3.784   1.058 -0.4073 -1.3269 -0.2398
 9732TIP3    H229158   3.635   3.821   0.922  0.0218  4.0609  0.8115
 9733TIP3   OH229159   2.890   1.772   1.276 -0.2053 -0.1730 -0.7663
 9733TIP3    H129160   2.917   1.794   1.187 -1.9398  0.2551 -1.2146
 9733TIP3    H229161   2.888   1.676   1.278 -0.9278 -0.1720 -1.4287
 9734TIP3   OH229162   6.435   3.205   0.901  0.4140  0.0981 -0.0083
 9734TIP3    H129163   6.443   3.143   0.829 -2.5237  0.3872 -0.7220
 9734TIP3    H229164   6.360   3.172   0.952  0.5365  1.5609  1.1872
 9735TIP3   OH229165   5.310   0.218   5.771  0.0497 -0.6660  0.0728
 9735TIP3    H129166   5.319   0.269   5.690 -3.2021  1.7495  1.0215
 9735TIP3    H229167   5.359   0.269   5.836  0.1680 -0.9576  0.2096
 9736TIP3   OH229168   6.416   2.835   1.895 -0.1154 -0.0273 -0.0434
 9736TIP3    H129169   6.467   2.845   1.815  0.9388 -0.3713  0.5637
 9736TIP3    H229170   6.345   2.775   1.871 -0.9501  1.3503 -1.1994
 9737TIP3   OH229171   5.114   3.528   4.996 -0.4926  0.3213  0.2115
 9737TIP3    H129172   5.185   3.490   4.944  1.6694  0.8286  2.5840
 9737TIP3    H229173   5.059   3.454   5.019  0.1541 -0.3559 -0.3428
 9738TIP3   OH229174   5.388   4.065   6.195  0.1000 -0.2235 -0.2375
 9738TIP3    H129175   5.352   4.104   6.116  0.4116 -1.5733 -1.0617
 9738TIP3    H229176   5.313   4.024   6.238 -0.3590  1.7425  0.9716
 9739TIP3   OH229177   2.326   4.738   4.497  0.3429 -0.3599  0.1442
 9739TIP3    H129178   2.231   4.746   4.498  0.2720 -1.1588  0.3519
 9739TIP3    H229179   2.346   4.691   4.416  0.5365 -0.3957  0.2120
 9740TIP3   OH229180   4.758   4.953   2.489 -0.0272  0.0171 -0.4964
 9740TIP3    H129181   4.696   4.919   2.555 -3.5447  2.3252 -2.3073
 9740TIP3    H229182   4.774   4.878   2.432 -0.5186 -0.8680  0.4837
 9741TIP3   OH229183   7.120   4.993   5.364  0.3167  0.1168  0.7418
 9741TIP3    H129184   7.073   4.949   5.435  0.9654  0.7928  1.6230
 9741TIP3    H229185   7.152   4.922   5.309 -0.1872 -0.4240  1.1253
 9742TIP3   OH229186   0.847   4.634   4.018 -0.3988  0.1532  0.4929
 9742TIP3    H129187   0.845   4.591   3.933 -1.9957 -0.6183  0.8732
 9742TIP3    H229188   0.936   4.669   4.026 -0.1158 -0.0832 -1.3125
 9743TIP3   OH229189   4.853   0.454   0.744  0.2413  0.2295  0.3304
 9743TIP3    H129190   4.803   0.523   0.786 -0.9594 -0.8573  0.7634
 9743TIP3    H229191   4.873   0.488   0.656 -1.7233  0.5151 -0.0504
 9744TIP3   OH229192   0.549   0.327   3.807 -0.0907 -0.1610 -0.1613
 9744TIP3    H129193   0.502   0.277   3.875 -2.1529 -1.0936 -2.1394
 9744TIP3    H229194   0.635   0.284   3.802  0.1322 -0.0589  1.8115
 9745TIP3   OH229195   4.668   3.597   1.806  1.0886 -0.1576 -0.0299
 9745TIP3    H129196   4.728   3.568   1.875  1.3030  0.2027 -0.0588
 9745TIP3    H229197   4.587   3.620   1.853  0.4945 -1.8815 -0.1293
 9746TIP3   OH229198   2.680   2.624   4.402  0.2156  0.1984  0.7040
 9746TIP3    H129199   2.641   2.537   4.407 -0.8941  0.6802  0.6506
 9746TIP3    H229200   2.714   2.640   4.489 -2.2423  0.8927  1.6162
 9747TIP3   OH229201   7.330   1.724   5.049 -0.2739  0.1359  0.2820
 9747TIP3    H129202   7.298   1.812   5.066 -1.9359 -0.5851  1.2399
 9747TIP3    H229203   7.296   1.702   4.962 -2.5693 -0.6158  1.2849
 9748TIP3   OH229204   3.350   5.793   2.255  0.9962 -0.5349 -0.4294
 9748TIP3    H129205   3.376   5.838   2.175  0.3444  0.4549 -0.0993
 9748TIP3    H229206   3.278   5.735   2.228  0.6615 -0.0758 -0.5408
 9749TIP3   OH229207   5.434   1.261   6.034 -0.0210  0.1952 -0.3735
 9749TIP3    H129208   5.489   1.295   6.104 -0.5288  0.5347 -0.1393
 9749TIP3    H229209   5.487   1.272   5.955  0.6334 -0.3765 -0.0256
 9750TIP3   OH229210   0.225   6.976   1.998 -0.2267  0.3201 -0.0300
 9750TIP3    H129211   0.249   7.042   2.063 -0.6406  1.3210 -0.8697
 9750TIP3    H229212   0.145   7.010   1.958 -0.1801 -0.4597 -0.8071
 9751TIP3   OH229213   3.131   0.427   0.530 -0.1431 -0.4588  0.1602
 9751TIP3    H129214   3.124   0.519   0.508  1.3202  0.0281  1.5287
 9751TIP3    H229215   3.046   0.404   0.568 -0.4800  0.3322 -0.1022
 9752TIP3   OH229216   1.562   4.616   0.802 -0.4335 -0.1929 -0.0410
 9752TIP3    H129217   1.591   4.595   0.891  0.1478 -0.4248 -0.2787
 9752TIP3    H229218   1.633   4.585   0.746 -0.8178 -0.0927 -0.5917
 9753TIP3   OH229219   0.244   7.090   0.377 -0.0200 -0.1300  0.0193
 9753TIP3    H129220   0.244   7.160   0.312 -0.2774 -0.4597 -0.3349
 9753TIP3    H229221   0.323   7.106   0.429 -0.5138  0.9256  0.4839
 9754TIP3   OH229222   0.069   4.068   4.154 -0.6004 -0.0952 -1.1774
 9754TIP3    H129223  -0.019   4.070   4.194  0.8256 -0.0911  2.3643
 9754TIP3    H229224   0.095   4.160   4.149  0.6890 -0.1549  1.8853
 9755TIP3   OH229225   4.257   0.556   1.883  0.1984  0.0624 -0.6043
 9755TIP3    H129226   4.168   0.522   1.891 -0.1451  1.2721  1.2391
 9755TIP3    H229227   4.310   0.499   1.938  0.4614 -0.2114 -1.1261
 9756TIP3   OH229228   3.453   6.262   0.326 -0.2205 -0.5848  0.3934
 9756TIP3    H129229   3.507   6.200   0.375  0.4160  0.8986  1.6233
 9756TIP3    H229230   3.437   6.334   0.386  1.0083  1.5656 -1.6949
 9757TIP3   OH229231   6.535   4.547   3.004  0.1095 -0.8879  0.5048
 9757TIP3    H129232   6.547   4.634   2.967  3.0756 -1.6062 -0.5562
 9757TIP3    H229233   6.451   4.517   2.969  0.1067  0.7037 -0.9874
 9758TIP3   OH229234   2.103   1.679   0.407 -0.2256  0.8508  0.1184
 9758TIP3    H129235   2.087   1.703   0.498  0.1445  1.0905  0.1225
 9758TIP3    H229236   2.197   1.657   0.404 -0.9197 -2.7929  0.6051
 9759TIP3   OH229237   0.412   5.103   4.275  0.0177  0.2756  0.3974
 9759TIP3    H129238   0.398   5.043   4.202 -0.1854  1.1732 -0.3247
 9759TIP3    H229239   0.497   5.143   4.257  0.2937 -0.0057  1.0326
 9760TIP3   OH229240   3.898   1.320   3.980  0.2242  0.2463 -0.0276
 9760TIP3    H129241   3.968   1.256   3.996  0.9035  0.7942 -0.6951
 9760TIP3    H229242   3.941   1.405   3.988 -0.2886  0.5895 -0.7620
 9761TIP3   OH229243   7.143   5.241   3.773  0.3108  0.2098  0.2290
 9761TIP3    H129244   7.085   5.247   3.849  0.8910 -0.2573  0.7205
 9761TIP3    H229245   7.085   5.230   3.698 -0.2246 -0.7344  0.7658
 9762TIP3   OH229246   6.819   6.904   2.707 -0.3597  0.5689  0.4073
 9762TIP3    H129247   6.787   6.925   2.619  1.6689  0.7692 -0.3225
 9762TIP3    H229248   6.879   6.975   2.729 -1.1648  0.7501  2.1592
 9763TIP3   OH229249   4.638   1.282   2.747  0.4394  0.2320 -0.0783
 9763TIP3    H129250   4.673   1.370   2.739  0.3779  0.3342  0.6480
 9763TIP3    H229251   4.606   1.278   2.838  0.8039 -0.6665  0.0200
 9764TIP3   OH229252   5.550   0.753   2.398 -0.5022 -0.6611  0.6058
 9764TIP3    H129253   5.642   0.749   2.423 -0.2566  1.4941  0.2303
 9764TIP3    H229254   5.549   0.720   2.308  0.6110  2.8021 -0.8305
 9765TIP3   OH229255   6.642   3.044   1.174  0.4764 -0.1371  0.2188
 9765TIP3    H129256   6.557   3.020   1.137  0.1127  0.6260  0.5418
 9765TIP3    H229257   6.621   3.105   1.245  1.1165 -1.8489  1.9654
 9766TIP3   OH229258   1.111   4.299   4.761  0.2126  0.0982 -0.0667
 9766TIP3    H129259   1.192   4.307   4.710  1.3143 -3.5784  0.7977
 9766TIP3    H229260   1.050   4.255   4.703 -0.0693 -0.0361  0.3261
 9767TIP3   OH229261   2.914   3.298   2.115  0.5883  0.0055  0.3384
 9767TIP3    H129262   2.946   3.253   2.193  1.4629  1.3340  0.7611
 9767TIP3    H229263   2.881   3.227   2.059  1.1825 -1.0815  1.3276
 9768TIP3   OH229264   3.364   0.307   2.799 -0.3772  0.2459  0.0716
 9768TIP3    H129265   3.297   0.353   2.749 -0.9895  0.7737  1.3322
 9768TIP3    H229266   3.423   0.376   2.830 -0.2978 -0.0062  0.4917
 9769TIP3   OH229267   5.246   2.330   2.830  0.2795  0.1531  0.6788
 9769TIP3    H129268   5.194   2.259   2.791  0.0298 -0.1451  1.5372
 9769TIP3    H229269   5.185   2.377   2.886  0.1777  1.7367 -0.7135
 9770TIP3   OH229270   2.242   6.013   0.343  0.0363 -0.1073  0.6262
 9770TIP3    H129271   2.294   6.040   0.420 -0.9719  1.4366  0.8099
 9770TIP3    H229272   2.183   5.946   0.377  1.4683 -1.4851  0.5357
 9771TIP3   OH229273   0.591   2.266   3.647  0.1962 -0.0611 -0.3592
 9771TIP3    H129274   0.553   2.180   3.628  0.7868 -0.3899 -0.0676
 9771TIP3    H229275   0.563   2.285   3.737 -0.1408  0.1656 -0.5108
 9772TIP3   OH229276   6.481   6.994   3.604  0.0604  0.6984 -0.1838
 9772TIP3    H129277   6.562   6.943   3.597 -0.1517  0.5723 -2.1187
 9772TIP3    H229278   6.444   6.993   3.516 -2.0221  0.8194  0.6260
 9773TIP3   OH229279   5.360   2.249   4.645 -0.5366 -0.4601  0.1508
 9773TIP3    H129280   5.349   2.227   4.552  2.0210 -1.2239 -0.0659
 9773TIP3    H229281   5.340   2.167   4.691  0.5090 -0.8049  0.0341
 9774TIP3   OH229282   1.959   3.550   3.243  1.2091  0.1948 -0.7908
 9774TIP3    H129283   1.964   3.459   3.273 -0.1690 -0.1464 -1.4867
 9774TIP3    H229284   2.002   3.601   3.312 -0.2185 -0.7479  0.8778
 9775TIP3   OH229285   4.008   4.377   0.035  0.0827  0.1019 -0.5023
 9775TIP3    H129286   3.945   4.353   0.103 -0.1647  0.8751 -0.4435
 9775TIP3    H229287   4.093   4.372   0.078 -0.2307  4.3519  1.1762
 9776TIP3   OH229288   7.308   2.663   0.048 -0.5967 -0.7253  0.0640
 9776TIP3    H129289   7.321   2.752   0.081 -0.0836 -1.0416  0.7599
 9776TIP3    H229290   7.317   2.608   0.126  1.4801 -1.5707 -0.7032
 9777TIP3   OH229291   0.227   1.362   4.873  0.2899 -0.4272 -0.3768
 9777TIP3    H129292   0.191   1.329   4.955  0.5413  0.2619  0.0199
 9777TIP3    H229293   0.171   1.325   4.805  0.2202 -1.1913  0.0879
 9778TIP3   OH229294   6.220   4.023   1.792 -0.5427 -0.4462  0.0745
 9778TIP3    H129295   6.266   4.022   1.708 -2.0019 -0.2546 -0.7602
 9778TIP3    H229296   6.267   4.089   1.844  1.1892 -1.4931 -0.0761
 9779TIP3   OH229297   2.378   2.405   2.363  0.1373 -0.9427  0.0101
 9779TIP3    H129298   2.316   2.351   2.315  0.4735 -1.2714 -0.0530
 9779TIP3    H229299   2.453   2.415   2.304  0.3184 -0.8844  0.2455
 9780TIP3   OH229300   3.035   3.171   2.316  0.5641  0.1970  0.1240
 9780TIP3    H129301   3.131   3.176   2.320  0.5150  0.7158  0.7566
 9780TIP3    H229302   3.014   3.087   2.357  0.8327 -0.8079 -1.6659
 9781TIP3   OH229303   3.473   4.335   4.612  0.1033 -0.3825  0.3946
 9781TIP3    H129304   3.487   4.259   4.669 -0.3926 -0.3384  0.5828
 9781TIP3    H229305   3.383   4.325   4.581 -0.2157  0.5056  0.9970
 9782TIP3   OH229306   4.283   2.310   1.257 -0.0949  0.5832 -0.3426
 9782TIP3    H129307   4.240   2.299   1.342  1.0951 -0.8354  0.1107
 9782TIP3    H229308   4.215   2.347   1.201 -1.5727 -0.5208  0.6503
 9783TIP3   OH229309   2.115   6.601   6.016 -0.0442 -0.1761 -0.8938
 9783TIP3    H129310   2.057   6.677   6.016  0.2793  0.0933  0.4322
 9783TIP3    H229311   2.060   6.530   6.049  0.3796  0.0923  0.4175
 9784TIP3   OH229312   6.796   3.593   1.406  0.1414 -0.1310  0.2884
 9784TIP3    H129313   6.879   3.560   1.371 -0.0220  0.3333 -0.5717
 9784TIP3    H229314   6.815   3.684   1.429 -0.1923  0.0486 -0.1447
 9785TIP3   OH229315   7.034   0.107   3.137  0.7146 -0.2444 -0.1911
 9785TIP3    H129316   6.953   0.137   3.096 -0.5606 -2.0526  0.8522
 9785TIP3    H229317   7.097   0.177   3.120 -1.3253  1.7215 -0.1692
 9786TIP3   OH229318   2.969   1.615   0.999  0.5788 -0.6017  0.4618
 9786TIP3    H129319   3.060   1.647   0.999  1.0992 -1.8718 -1.6620
 9786TIP3    H229320   2.960   1.570   0.915 -2.0012 -0.6403  0.6954
 9787TIP3   OH229321   4.494   4.840   5.891 -0.0716 -0.0535  0.3654
 9787TIP3    H129322   4.576   4.883   5.866 -1.0229  1.0129 -1.1385
 9787TIP3    H229323   4.443   4.837   5.810 -1.7268 -0.2112  1.3609
 9788TIP3   OH229324   6.798   6.477   0.509  0.0658  0.1500 -0.7862
 9788TIP3    H129325   6.839   6.562   0.529  2.6257 -1.4898  1.6779
 9788TIP3    H229326   6.871   6.422   0.480 -1.0778 -1.8592 -0.0182
 9789TIP3   OH229327   2.011   1.477   3.962  0.2188  0.1707 -0.1988
 9789TIP3    H129328   1.962   1.470   3.880  1.8324 -1.3991 -1.1157
 9789TIP3    H229329   2.048   1.389   3.975  0.9815  0.7197  1.5759
 9790TIP3   OH229330   4.547   0.199   5.888 -0.3651  0.2615 -0.2078
 9790TIP3    H129331   4.624   0.245   5.921  0.0929 -0.1325 -0.7092
 9790TIP3    H229332   4.572   0.168   5.801 -1.8460  2.0541 -1.3473
 9791TIP3   OH229333   6.376   3.537   2.240  0.5105  0.1786  0.1977
 9791TIP3    H129334   6.339   3.471   2.181 -0.2563 -0.6981  1.6237
 9791TIP3    H229335   6.457   3.498   2.271  0.5348  0.3197  0.3088
 9792TIP3   OH229336   1.007   1.193   5.836  0.0747 -0.2026  0.0151
 9792TIP3    H129337   0.965   1.265   5.789 -1.1552 -1.7644 -1.4038
 9792TIP3    H229338   0.998   1.217   5.929 -0.7362  1.2258 -0.3943
 9793TIP3   OH229339   5.447   6.791   3.596 -0.3523 -0.0302 -0.2612
 9793TIP3    H129340   5.446   6.708   3.644 -0.1678 -1.0959 -2.0285
 9793TIP3    H229341   5.489   6.852   3.657 -0.4501 -1.2192  1.0713
 9794TIP3   OH229342   6.236   6.379   0.221  0.1351  0.3228  0.1624
 9794TIP3    H129343   6.254   6.455   0.277  1.0591  0.5426 -0.4002
 9794TIP3    H229344   6.320   6.361   0.179 -0.7734  0.8782 -2.0394
 9795TIP3   OH229345   0.811   3.448   1.470 -0.2355  0.4098 -0.5215
 9795TIP3    H129346   0.726   3.483   1.495 -0.3909 -0.7224  0.6467
 9795TIP3    H229347   0.797   3.353   1.463  0.5730  0.3567 -1.8451
 9796TIP3   OH229348   3.591   5.885   4.787  0.6159 -0.4244 -0.1041
 9796TIP3    H129349   3.561   5.866   4.877 -0.6948 -0.8221 -0.5914
 9796TIP3    H229350   3.525   5.945   4.753  2.3206  1.5403 -0.0966
 9797TIP3   OH229351   3.913   2.020   1.507  0.1199 -0.7048  0.6533
 9797TIP3    H129352   3.823   2.002   1.533 -0.0459  1.1777  1.5613
 9797TIP3    H229353   3.964   2.003   1.586  0.0549  1.6811  1.2904
 9798TIP3   OH229354   5.544   1.887   3.192  0.3454 -0.2771  0.1128
 9798TIP3    H129355   5.559   1.946   3.266  1.5315 -0.8294  0.3340
 9798TIP3    H229356   5.514   1.805   3.231 -0.6655 -0.0461 -0.1487
 9799TIP3   OH229357   2.224   2.016   0.871  0.5754  0.1435 -0.2069
 9799TIP3    H129358   2.239   1.934   0.917  0.4666  1.0852  1.5780
 9799TIP3    H229359   2.148   1.999   0.816 -0.5146 -0.4756  1.4251
 9800TIP3   OH229360   1.857   4.845   5.958  0.1951 -0.3340  0.2174
 9800TIP3    H129361   1.902   4.899   6.023  0.0796  0.4311 -0.3211
 9800TIP3    H229362   1.768   4.882   5.954 -0.3360 -1.4756  0.8752
 9801TIP3   OH229363   4.485   3.557   4.855  0.6437  0.3085 -0.2069
 9801TIP3    H129364   4.533   3.514   4.784  1.7309 -0.6127  1.0183
 9801TIP3    H229365   4.445   3.484   4.903  0.2863  0.8813  0.3697
 9802TIP3   OH229366   6.470   2.444   2.931  0.3556  0.1732 -0.2045
 9802TIP3    H129367   6.501   2.437   3.021 -0.4062 -3.2190 -0.0794
 9802TIP3    H229368   6.417   2.365   2.917 -3.2386  2.6417 -2.2917
 9803TIP3   OH229369   2.641   4.346   1.225  0.1071 -0.2019  0.2372
 9803TIP3    H129370   2.703   4.316   1.159  2.0740  1.4490  1.2096
 9803TIP3    H229371   2.565   4.376   1.175  1.1947  0.2332 -1.2284
 9804TIP3   OH229372   2.151   2.905   2.392  1.0456  0.5089  0.2903
 9804TIP3    H129373   2.088   2.932   2.324  0.9546  2.1489  0.9761
 9804TIP3    H229374   2.236   2.929   2.356  1.0201  1.1124  0.6204
 9805TIP3   OH229375   3.266   0.231   1.465 -0.1634 -0.2946  0.1813
 9805TIP3    H129376   3.191   0.198   1.417 -0.0038 -0.1472 -0.1744
 9805TIP3    H229377   3.341   0.210   1.410 -0.0550  0.6236 -0.0297
 9806TIP3   OH229378   5.366   1.122   4.977  0.4104 -0.2443  0.3222
 9806TIP3    H129379   5.460   1.134   4.971  0.3246 -0.0333 -1.1257
 9806TIP3    H229380   5.353   1.028   4.966  0.4674 -0.3037  0.7686
 9807TIP3   OH229381   0.268   3.576   1.274 -0.0916 -0.3718  1.2737
 9807TIP3    H129382   0.307   3.627   1.344 -0.1020  1.6891 -0.1571
 9807TIP3    H229383   0.179   3.558   1.304 -0.2384  0.8724  1.6193
 9808TIP3   OH229384   7.054   0.738   0.970  0.0084 -0.1561  0.3502
 9808TIP3    H129385   6.989   0.798   1.007  1.3066  0.3573  1.9580
 9808TIP3    H229386   7.018   0.713   0.885 -1.9406  0.6329  0.8798
 9809TIP3   OH229387   7.194   6.217   2.217 -0.2624  0.1337 -0.4765
 9809TIP3    H129388   7.272   6.231   2.163  0.8054 -0.4511  0.8286
 9809TIP3    H229389   7.200   6.125   2.244 -1.5312  0.0202 -0.5155
 9810TIP3   OH229390   6.247   2.944   4.362 -0.2989  0.0844  0.1566
 9810TIP3    H129391   6.153   2.941   4.377 -0.3004  1.3269  0.5190
 9810TIP3    H229392   6.257   2.993   4.281 -0.0512 -2.3297 -1.3742
 9811TIP3   OH229393   4.875   4.099   1.532 -0.6780  0.2119  0.4773
 9811TIP3    H129394   4.912   4.073   1.616 -0.6709 -0.0275  0.3992
 9811TIP3    H229395   4.951   4.103   1.473 -0.5545  1.1922  0.6779
 9812TIP3   OH229396   3.254   2.661   0.371  0.0953  0.2082  0.4859
 9812TIP3    H129397   3.283   2.736   0.320 -0.9331 -0.0004 -0.4332
 9812TIP3    H229398   3.245   2.591   0.308 -0.5898 -0.2292  1.0590
 9813TIP3   OH229399   5.280   1.217   4.265 -0.1564 -0.2611  0.0585
 9813TIP3    H129400   5.337   1.153   4.223 -0.8566 -1.3469  0.7174
 9813TIP3    H229401   5.265   1.183   4.353  0.3946  1.4155  0.8573
 9814TIP3   OH229402   0.740   0.603   3.884 -0.0614  0.3850  0.3190
 9814TIP3    H129403   0.778   0.542   3.948  0.4487 -0.5475 -0.8486
 9814TIP3    H229404   0.797   0.680   3.888  0.5717 -0.0788  0.2533
 9815TIP3   OH229405   2.952   1.489   0.727 -0.2749 -0.2959 -0.3457
 9815TIP3    H129406   2.968   1.402   0.762 -0.9789 -0.5008 -0.5301
 9815TIP3    H229407   2.992   1.488   0.640 -0.0266 -0.3357 -0.2328
 9816TIP3   OH229408   4.833   1.536   0.696 -0.0062 -0.0136  0.6559
 9816TIP3    H129409   4.760   1.573   0.646 -0.4068  0.6317  1.6966
 9816TIP3    H229410   4.911   1.575   0.656 -0.3684  1.1779  1.0820
 9817TIP3   OH229411   2.962   6.187   4.797 -0.1845  0.5100 -0.4546
 9817TIP3    H129412   3.000   6.103   4.771 -1.3600  0.6741 -2.9359
 9817TIP3    H229413   3.036   6.248   4.796  0.7978 -0.5012  1.8984
 9818TIP3   OH229414   4.712   5.971   4.416  0.2886 -0.1352  0.6048
 9818TIP3    H129415   4.673   5.924   4.342 -1.0262  1.4129  0.2548
 9818TIP3    H229416   4.730   5.903   4.481 -0.7422 -1.2187 -0.2014
 9819TIP3   OH229417   0.200   4.327   2.339 -0.2547 -0.0307  0.2883
 9819TIP3    H129418   0.190   4.313   2.433 -0.5625  0.3121  0.3084
 9819TIP3    H229419   0.134   4.270   2.299 -1.2275  1.0040  0.3540
 9820TIP3   OH229420   4.887   5.198   1.805  0.4409  0.7323  0.0965
 9820TIP3    H129421   4.921   5.153   1.882 -1.4367 -2.1801 -0.5966
 9820TIP3    H229422   4.899   5.136   1.733 -2.3573  1.2304 -0.9578
 9821TIP3   OH229423   6.224   4.981   0.468 -0.1744 -0.3879  0.1105
 9821TIP3    H129424   6.216   5.040   0.543 -0.0983  1.3456 -1.1903
 9821TIP3    H229425   6.210   4.894   0.505 -1.7830  0.5388  1.8607
 9822TIP3   OH229426   7.267   5.681   1.204  0.2939 -0.2753 -0.5932
 9822TIP3    H129427   7.230   5.638   1.281 -0.3373  0.1467 -0.6483
 9822TIP3    H229428   7.192   5.725   1.163  1.1273  2.2221  0.3518
 9823TIP3   OH229429   4.958   5.330   3.519  0.8209  0.5423  0.0259
 9823TIP3    H129430   4.863   5.330   3.506  0.8105  2.7883 -0.1661
 9823TIP3    H229431   4.970   5.282   3.601 -0.4818  0.4100  0.1707
 9824TIP3   OH229432   7.506   5.235   5.354 -0.1831 -0.0158  0.8899
 9824TIP3    H129433   7.590   5.231   5.308  0.2244 -1.2704  1.6856
 9824TIP3    H229434   7.452   5.292   5.300 -0.2713 -2.6220 -2.0740
 9825TIP3   OH229435   6.612   0.458   0.198  0.3717  0.6407 -0.2914
 9825TIP3    H129436   6.587   0.366   0.210 -0.2078  0.7597 -0.5375
 9825TIP3    H229437   6.698   0.454   0.156  0.4597  0.2135 -0.0799
 9826TIP3   OH229438   3.497   4.355   2.770 -0.3528 -0.0638 -0.5263
 9826TIP3    H129439   3.440   4.300   2.824  1.8723 -1.0966  0.9263
 9826TIP3    H229440   3.482   4.444   2.802 -0.3231 -0.4558  0.6114
 9827TIP3   OH229441   7.033   6.560   5.725  0.5448  0.2517 -0.4659
 9827TIP3    H129442   7.102   6.496   5.741 -0.1557 -0.5501 -0.5686
 9827TIP3    H229443   7.079   6.641   5.704  1.4595  0.0267  0.5782
 9828TIP3   OH229444   1.347   0.867   3.038  0.2732  0.0577  0.4771
 9828TIP3    H129445   1.433   0.879   3.078  0.0504 -0.3382  1.0868
 9828TIP3    H229446   1.326   0.775   3.053 -0.1134  0.0656  0.0303
 9829TIP3   OH229447   6.652   5.484   5.425  0.5153  0.5302  0.0337
 9829TIP3    H129448   6.668   5.515   5.514 -1.9287  1.2326  0.2838
 9829TIP3    H229449   6.586   5.415   5.434  1.7178 -0.8458 -1.0821
 9830TIP3   OH229450   2.123   5.030   3.117 -0.1454  0.4622  0.1155
 9830TIP3    H129451   2.127   5.050   3.211 -0.0398  0.9706  0.0047
 9830TIP3    H229452   2.083   5.108   3.078 -1.3801 -0.2539 -0.1130
 9831TIP3   OH229453   7.234   1.877   2.119 -0.1526  0.1359  0.1380
 9831TIP3    H129454   7.217   1.882   2.213 -1.8690  0.2021 -0.1416
 9831TIP3    H229455   7.205   1.962   2.085 -0.0508 -0.0885 -0.5314
 9832TIP3   OH229456   1.105   6.875   2.010 -0.0946  0.7058  0.1768
 9832TIP3    H129457   1.068   6.885   1.922 -0.8168 -2.2513  0.0128
 9832TIP3    H229458   1.196   6.849   1.995 -0.5893 -1.1608  0.1815
 9833TIP3   OH229459   7.424   6.473   4.844  0.0822 -0.3461  0.1007
 9833TIP3    H129460   7.341   6.452   4.801 -0.6557  1.1688  0.7332
 9833TIP3    H229461   7.473   6.390   4.843 -0.9818 -1.0008 -1.2376
 9834TIP3   OH229462   1.720   6.316   1.002  0.0823 -0.5779 -0.0562
 9834TIP3    H129463   1.628   6.323   1.027  0.7751  1.8050  2.3913
 9834TIP3    H229464   1.720   6.318   0.907 -2.4546 -3.0754 -0.2386
 9835TIP3   OH229465   7.265   0.899   2.901 -0.4240 -0.0002  0.0182
 9835TIP3    H129466   7.278   0.804   2.904  2.8274  0.3105 -0.3051
 9835TIP3    H229467   7.221   0.920   2.983 -2.1187 -1.8382 -0.3356
 9836TIP3   OH229468   7.443   1.178   0.484 -0.0600 -0.0411 -1.0656
 9836TIP3    H129469   7.405   1.133   0.560 -0.0527 -0.4528 -1.3061
 9836TIP3    H229470   7.451   1.269   0.513  1.5386 -0.4934  0.0524
 9837TIP3   OH229471   3.666   5.766   3.957  0.5382 -0.3665 -0.2682
 9837TIP3    H129472   3.626   5.736   4.039 -1.9517 -0.3332 -1.3899
 9837TIP3    H229473   3.637   5.703   3.892 -1.2924  1.9933 -1.9140
 9838TIP3   OH229474   3.449   7.081   0.997  0.0805 -0.3433  0.2997
 9838TIP3    H129475   3.521   7.131   0.959  1.5542 -2.9748 -0.6348
 9838TIP3    H229476   3.454   7.100   1.091  1.8148 -0.1972  0.2145
 9839TIP3   OH229477   2.423   6.077   1.828 -0.1620 -0.3843  0.3055
 9839TIP3    H129478   2.431   5.982   1.823 -1.5099 -0.5213  0.3578
 9839TIP3    H229479   2.406   6.105   1.738 -1.6260 -0.4043  0.5612
 9840TIP3   OH229480   4.309   6.259   0.888 -0.3173 -0.2115 -0.0247
 9840TIP3    H129481   4.328   6.299   0.973  2.3072  0.6424 -0.9027
 9840TIP3    H229482   4.325   6.166   0.901 -1.1577 -0.2692  0.6948
 9841TIP3   OH229483   6.040   0.276   1.529 -0.4823 -0.4550 -0.0861
 9841TIP3    H129484   6.088   0.357   1.545 -2.0983  0.6288 -0.4638
 9841TIP3    H229485   6.098   0.226   1.471  0.3265  0.6510 -0.2811
 9842TIP3   OH229486   0.505   1.375   4.249 -0.7929 -0.1319 -0.1043
 9842TIP3    H129487   0.413   1.348   4.258 -0.4624 -0.7523  2.3615
 9842TIP3    H229488   0.530   1.402   4.337  1.4254 -0.0464 -0.7036
 9843TIP3   OH229489   3.546   6.253   1.231  0.0899  0.3821 -0.7493
 9843TIP3    H129490   3.463   6.277   1.272  0.2521  2.9342 -1.7030
 9843TIP3    H229491   3.523   6.229   1.142  0.3250  0.7133 -0.9003
 9844TIP3   OH229492   2.800   4.813   3.198  0.6755 -0.6003  0.3687
 9844TIP3    H129493   2.812   4.903   3.228 -0.7731 -0.4687  0.6199
 9844TIP3    H229494   2.717   4.786   3.236  0.7875 -1.8357 -0.2184
 9845TIP3   OH229495   1.991   6.654   0.206 -0.1984  0.3286  0.8593
 9845TIP3    H129496   2.031   6.720   0.264  1.7316 -1.0382  1.1959
 9845TIP3    H229497   2.054   6.582   0.205 -1.7449 -1.0896 -0.3352
 9846TIP3   OH229498   2.251   4.970   2.866 -0.3134  0.2465 -0.1917
 9846TIP3    H129499   2.210   4.983   2.951  0.4559  0.5992  0.1225
 9846TIP3    H229500   2.177   4.949   2.808 -0.6286 -2.3112  1.0010
 9847TIP3   OH229501   5.329   1.754   2.152 -0.2753 -0.0008 -0.6391
 9847TIP3    H129502   5.260   1.715   2.206 -0.5337  1.7222  0.3501
 9847TIP3    H229503   5.307   1.727   2.063 -1.6547 -0.3051 -0.2316
 9848TIP3   OH229504   5.208   6.026   1.029  0.1716 -0.1192  0.4670
 9848TIP3    H129505   5.136   6.023   0.966 -0.1763 -2.0321  0.9044
 9848TIP3    H229506   5.286   6.039   0.975 -0.1567 -1.4194 -0.3576
 9849TIP3   OH229507   6.483   4.012   2.772 -0.2257  0.0713  0.2170
 9849TIP3    H129508   6.537   4.005   2.851  0.5254 -2.0422 -0.4127
 9849TIP3    H229509   6.545   4.039   2.703 -0.7892  1.4680  0.2245
 9850TIP3   OH229510   3.313   6.108   1.575 -0.0427 -0.1255 -0.5996
 9850TIP3    H129511   3.273   6.119   1.489 -0.9232  1.8531 -0.0132
 9850TIP3    H229512   3.405   6.132   1.562 -0.3063  0.7716 -0.8993
 9851TIP3   OH229513   6.108   4.774   3.366 -0.3209 -0.3392 -0.9128
 9851TIP3    H129514   6.108   4.737   3.278  0.3679  0.1181 -1.1112
 9851TIP3    H229515   6.154   4.857   3.358 -1.3260  0.2936 -0.3564
 9852TIP3   OH229516   2.952   2.817   0.520 -0.2654 -0.3518  0.1097
 9852TIP3    H129517   2.861   2.846   0.527 -0.3769 -0.0441 -1.8894
 9852TIP3    H229518   2.945   2.724   0.495 -0.0443 -0.3400  0.0066
 9853TIP3   OH229519   3.808   3.519   5.325 -0.1553  0.1420 -0.0203
 9853TIP3    H129520   3.833   3.427   5.329 -0.8221 -0.0259  0.3522
 9853TIP3    H229521   3.859   3.555   5.252 -0.8658 -0.8169 -1.0073
 9854TIP3   OH229522   5.687   1.627   4.085 -1.1286 -0.1688  0.1747
 9854TIP3    H129523   5.725   1.595   4.167 -1.3836 -3.3559 -0.8057
 9854TIP3    H229524   5.750   1.603   4.017 -1.5879  1.0946 -0.7405
 9855TIP3   OH229525   0.786   2.193   5.892  0.0324 -0.0430  0.6890
 9855TIP3    H129526   0.824   2.277   5.869 -0.4969  0.1409  0.4814
 9855TIP3    H229527   0.731   2.212   5.968 -2.9699  0.5543 -1.4599
 9856TIP3   OH229528   4.576   4.716   1.162 -0.0170  0.1281 -0.6818
 9856TIP3    H129529   4.490   4.756   1.147  1.2884  3.0141 -1.0736
 9856TIP3    H229530   4.617   4.716   1.075  0.9335  0.2446 -0.2367
 9857TIP3   OH229531   1.054   3.824   4.984 -0.0159 -0.1397 -0.0388
 9857TIP3    H129532   1.014   3.851   5.067  1.3000  1.9396  0.0073
 9857TIP3    H229533   1.029   3.893   4.922 -0.3323 -1.2581 -1.1964
 9858TIP3   OH229534   1.474   6.906   4.420  0.0020 -0.3066  0.0212
 9858TIP3    H129535   1.502   6.955   4.497 -0.0920 -2.3295  1.4044
 9858TIP3    H229536   1.435   6.826   4.455  0.7191 -1.6833 -2.1453
 9859TIP3   OH229537   5.608   1.902   1.902  1.0580 -0.1927 -1.0600
 9859TIP3    H129538   5.660   1.937   1.974 -1.3182 -1.4056  1.4749
 9859TIP3    H229539   5.542   1.969   1.884 -0.5174 -1.2444  0.4517
 9860TIP3   OH229540   7.165   1.824   0.896  0.3242  0.0447  0.3355
 9860TIP3    H129541   7.105   1.833   0.970  0.7414  0.7880  0.5895
 9860TIP3    H229542   7.133   1.746   0.849  0.3416 -0.7198  1.5451
 9861TIP3   OH229543   2.249   2.492   4.891  0.0862 -0.0166 -0.4069
 9861TIP3    H129544   2.188   2.435   4.843 -1.1736  0.8470  0.1321
 9861TIP3    H229545   2.317   2.432   4.922  0.1851 -0.8115 -2.0620
 9862TIP3   OH229546   3.066   0.640   0.789  0.6495  0.6194  0.1988
 9862TIP3    H129547   3.093   0.732   0.786 -1.7111  1.3672 -1.9290
 9862TIP3    H229548   3.036   0.621   0.700 -1.6723 -1.2939  1.2723
 9863TIP3   OH229549   3.795   2.901   5.436  0.2523  0.3973 -0.2593
 9863TIP3    H129550   3.742   2.970   5.396  0.4884  0.5061 -0.3857
 9863TIP3    H229551   3.874   2.946   5.466  0.6604  0.0799 -0.8559
 9864TIP3   OH229552   3.626   0.272   0.461 -0.1309 -0.4978  0.2305
 9864TIP3    H129553   3.581   0.355   0.477 -0.9745 -0.6935 -0.9850
 9864TIP3    H229554   3.683   0.260   0.537 -2.3040 -0.3570  1.9574
 9865TIP3   OH229555   7.169   4.054   0.944  0.0148  0.6567 -0.3049
 9865TIP3    H129556   7.134   4.097   1.022  0.4294  1.0989 -0.3617
 9865TIP3    H229557   7.263   4.069   0.949  0.3540 -1.3266  0.3615
 9866TIP3   OH229558   1.628   6.495   2.843  0.5394 -0.1530 -0.2317
 9866TIP3    H129559   1.533   6.499   2.856  0.3249 -1.2549 -1.2047
 9866TIP3    H229560   1.664   6.561   2.902 -0.7110 -0.8402  1.3804
 9867TIP3   OH229561   7.454   1.045   1.208 -0.5903 -0.5984 -0.5241
 9867TIP3    H129562   7.466   0.951   1.224  1.2764  0.0828  3.1444
 9867TIP3    H229563   7.376   1.068   1.258  0.1876  0.1372  0.3716
 9868TIP3   OH229564   6.884   2.949   1.268  0.0290 -0.4541  0.6185
 9868TIP3    H129565   6.791   2.924   1.262  0.1530 -0.7208 -0.4025
 9868TIP3    H229566   6.892   3.026   1.212  0.0678  0.7066  2.1647
 9869TIP3   OH229567   3.254   1.270   2.195 -0.2298 -0.1615  0.6100
 9869TIP3    H129568   3.164   1.262   2.165 -0.4668  0.6806  1.0677
 9869TIP3    H229569   3.253   1.232   2.284  0.2419 -1.6786  0.0084
 9870TIP3   OH229570   5.350   6.207   0.621 -0.0898 -0.1295  0.1592
 9870TIP3    H129571   5.367   6.113   0.630 -2.0521 -0.3289  2.8362
 9870TIP3    H229572   5.272   6.211   0.566  0.5811  0.0443 -0.8130
 9871TIP3   OH229573   2.275   0.357   2.441 -0.0112 -0.0120  0.6032
 9871TIP3    H129574   2.187   0.343   2.476 -0.3756 -0.1170 -0.3454
 9871TIP3    H229575   2.276   0.449   2.414  0.1774 -0.0132  0.6017
 9872TIP3   OH229576   5.292   0.471   2.073  0.0592 -0.5830 -0.4134
 9872TIP3    H129577   5.308   0.379   2.054 -1.7350 -1.4962  2.0066
 9872TIP3    H229578   5.197   0.480   2.069 -0.0042  0.5107  1.7903
 9873TIP3   OH229579   0.733   3.262   5.885  0.4367 -0.4106  0.5770
 9873TIP3    H129580   0.650   3.227   5.916 -0.5296  0.8746 -0.4589
 9873TIP3    H229581   0.740   3.348   5.928  1.0021 -0.3000  0.2731
 9874TIP3   OH229582   7.327   6.879   3.301  0.0643 -0.7952 -0.0195
 9874TIP3    H129583   7.364   6.958   3.262 -0.4593 -0.3353  0.3889
 9874TIP3    H229584   7.232   6.890   3.292 -0.0068 -1.4982 -0.1838
 9875TIP3   OH229585   0.003   2.438   1.698  1.2236  0.1557 -1.3355
 9875TIP3    H129586   0.033   2.529   1.702  2.2310 -0.1937 -0.4672
 9875TIP3    H229587   0.081   2.388   1.674  1.8184 -0.9546  2.3855
 9876TIP3   OH229588   7.344   2.925   0.347  0.2921 -0.4280  0.5191
 9876TIP3    H129589   7.340   2.834   0.376  1.4457 -1.1618 -1.4619
 9876TIP3    H229590   7.252   2.949   0.333 -0.1670 -0.6743  2.6424
 9877TIP3   OH229591   5.807   2.541   5.896 -0.1528  0.1641 -0.0867
 9877TIP3    H129592   5.780   2.459   5.854 -2.2662  1.3976 -1.2823
 9877TIP3    H229593   5.846   2.592   5.825  1.0879  0.2628  0.6392
 9878TIP3   OH229594   6.117   6.286   4.000  0.2180  0.4490  0.5749
 9878TIP3    H129595   6.137   6.207   4.051 -1.6243 -1.0933 -0.9392
 9878TIP3    H229596   6.203   6.318   3.972  1.0434 -0.8731  1.4463
 9879TIP3   OH229597   2.237   6.232   4.310 -0.1380  0.1139  0.1845
 9879TIP3    H129598   2.224   6.147   4.352  0.3575 -1.8345 -3.2389
 9879TIP3    H229599   2.332   6.244   4.310 -0.2016  0.6800  0.5738
 9880TIP3   OH229600   1.247   3.671   2.227 -0.0456 -0.2036  0.5441
 9880TIP3    H129601   1.261   3.733   2.156  0.8183 -0.5783  0.3750
 9880TIP3    H229602   1.228   3.588   2.184 -1.1859 -0.0699  0.7691
 9881TIP3   OH229603   0.742   5.052   3.005 -0.0733 -0.7650  0.2183
 9881TIP3    H129604   0.678   4.988   3.035  0.8453 -1.5038  0.6546
 9881TIP3    H229605   0.807   5.001   2.957  0.1561 -0.0182 -0.2897
 9882TIP3   OH229606   5.675   6.815   2.474 -0.6326  0.4086  0.5958
 9882TIP3    H129607   5.742   6.748   2.488 -0.0781  1.0181  0.9436
 9882TIP3    H229608   5.715   6.877   2.414  0.2510  2.2725  2.9367
 9883TIP3   OH229609   7.248   2.268   0.735  0.3871 -0.5054  0.0603
 9883TIP3    H129610   7.270   2.360   0.751 -0.2805  0.1553 -2.3962
 9883TIP3    H229611   7.330   2.221   0.748  1.6097  0.9329 -1.9347
 9884TIP3   OH229612   1.313   4.623   2.490 -0.7719 -0.3395 -0.4607
 9884TIP3    H129613   1.279   4.554   2.546  1.2094 -1.0483 -0.0362
 9884TIP3    H229614   1.270   4.609   2.405 -0.7239 -1.8642 -0.2671
 9885TIP3   OH229615   7.064   5.538   3.877  0.4444  0.0590  0.4165
 9885TIP3    H129616   7.126   5.466   3.864 -0.2598 -0.8687  1.8404
 9885TIP3    H229617   7.116   5.611   3.909  1.0564 -0.0801 -0.2483
 9886TIP3   OH229618   4.984   5.134   3.757 -0.3140  0.4057 -0.3747
 9886TIP3    H129619   5.050   5.078   3.799 -1.1836 -0.6439 -0.3520
 9886TIP3    H229620   4.967   5.203   3.821  1.2209  1.0726 -0.6548
 9887TIP3   OH229621   7.034   3.187   5.945  0.0694 -0.2691  0.0708
 9887TIP3    H129622   7.105   3.148   5.996  0.3905 -0.3930 -0.4708
 9887TIP3    H229623   6.995   3.113   5.899  0.9047  0.0834 -1.2420
 9888TIP3   OH229624   4.006   2.988   4.558  0.1464 -0.1980  0.4175
 9888TIP3    H129625   3.936   2.942   4.511  1.1313 -2.1540  0.7533
 9888TIP3    H229626   3.993   3.080   4.536 -2.0151 -0.5945 -0.1878
 9889TIP3   OH229627   6.237   6.042   0.600  0.5686 -0.8743 -0.5390
 9889TIP3    H129628   6.205   5.952   0.597 -0.2627 -0.5905 -0.4939
 9889TIP3    H229629   6.290   6.051   0.520  0.9563 -1.4986 -0.3642
 9890TIP3   OH229630   3.903   2.283   5.058  0.1582  0.4442  0.1488
 9890TIP3    H129631   3.848   2.347   5.104 -1.6093  1.1885 -2.7361
 9890TIP3    H229632   3.921   2.324   4.973  1.0009 -1.9197 -0.8921
 9891TIP3   OH229633   3.634   4.492   5.703 -0.3765  0.0323  0.3754
 9891TIP3    H129634   3.603   4.402   5.696  0.0663 -0.0893 -0.0910
 9891TIP3    H229635   3.645   4.521   5.612  0.7470  0.1077  0.5217
 9892TIP3   OH229636   5.125   4.634   5.804  0.2074 -0.2091 -0.5149
 9892TIP3    H129637   5.062   4.566   5.783  0.9617 -0.7682 -1.0254
 9892TIP3    H229638   5.210   4.595   5.784  0.6373  1.0362 -1.2631
 9893TIP3   OH229639   0.720   6.821   5.218 -0.3509 -0.1652 -0.6433
 9893TIP3    H129640   0.727   6.729   5.192  0.5607  0.5942 -3.5420
 9893TIP3    H229641   0.765   6.827   5.302 -2.5487 -2.7335  0.8564
 9894TIP3   OH229642   2.127   3.091   5.930 -0.3777 -0.7217 -0.1744
 9894TIP3    H129643   2.087   3.129   5.851 -2.2436 -1.2462  0.4586
 9894TIP3    H229644   2.210   3.056   5.900 -0.5917 -0.0199 -1.7010
 9895TIP3   OH229645   5.154   6.703   5.418 -0.1005 -0.3325 -0.7480
 9895TIP3    H129646   5.167   6.649   5.496  0.6240  1.1183  0.1825
 9895TIP3    H229647   5.073   6.671   5.380 -1.1837 -0.2686  1.3308
 9896TIP3   OH229648   0.831   0.593   1.017  0.6418 -0.0844  0.1570
 9896TIP3    H129649   0.912   0.547   0.993  0.0268 -0.4547 -1.2671
 9896TIP3    H229650   0.772   0.524   1.047 -0.0362 -0.1751 -1.3083
 9897TIP3   OH229651   5.763   0.916   6.215  0.3389 -0.2159 -0.2527
 9897TIP3    H129652   5.735   0.935   6.125 -0.5472  3.6561  0.6479
 9897TIP3    H229653   5.697   0.960   6.269  1.4190 -1.5652  2.2835
 9898TIP3   OH229654   0.482   2.692   2.798  0.6147  0.1281  0.1603
 9898TIP3    H129655   0.472   2.599   2.820  1.8413  0.1172  0.7415
 9898TIP3    H229656   0.576   2.706   2.794  0.4618  0.7948 -2.4802
 9899TIP3   OH229657   0.873   6.734   5.659  0.2121  0.5489  0.2873
 9899TIP3    H129658   0.959   6.765   5.628  0.3291  0.0509  0.1125
 9899TIP3    H229659   0.811   6.772   5.598  0.5371 -1.5537 -1.4566
 9900TIP3   OH229660   5.609   2.226   4.188  0.2460 -0.0400 -0.2541
 9900TIP3    H129661   5.703   2.242   4.199 -0.1013  2.3066 -0.1305
 9900TIP3    H229662   5.591   2.253   4.098 -0.8089  2.9323  0.7032
 9901TIP3   OH229663   7.466   2.877   5.399 -0.1490  0.0628 -0.3051
 9901TIP3    H129664   7.544   2.827   5.422 -1.6218 -3.4402 -2.1170
 9901TIP3    H229665   7.497   2.945   5.340  1.7414  0.1596  0.7310
 9902TIP3   OH229666   4.438   4.555   4.135  0.1760  0.2757  0.2434
 9902TIP3    H129667   4.496   4.480   4.147  0.9164  0.2290 -2.8687
 9902TIP3    H229668   4.497   4.631   4.135 -0.2135  0.5831  0.4670
 9903TIP3   OH229669   3.459   3.395   5.343 -0.0119 -0.2354  0.1179
 9903TIP3    H129670   3.519   3.468   5.325  1.1033 -1.0595  0.4282
 9903TIP3    H229671   3.493   3.323   5.291 -2.2536 -0.0546 -1.7772
 9904TIP3   OH229672   2.381   6.962   5.358 -0.2749 -0.6406  0.5352
 9904TIP3    H129673   2.427   7.046   5.352  0.1083 -0.9249 -0.8663
 9904TIP3    H229674   2.413   6.923   5.439  1.6704 -0.6446 -0.1839
 9905TIP3   OH229675   2.075   4.751   3.728 -0.2528 -0.0990  0.3492
 9905TIP3    H129676   2.105   4.702   3.652 -1.2625  0.1650 -0.2297
 9905TIP3    H229677   2.115   4.838   3.718 -0.8383  0.1113 -0.1801
 9906TIP3   OH229678   6.916   6.194   2.129  0.4301 -0.8557 -0.1980
 9906TIP3    H129679   6.860   6.168   2.202  0.1913  0.3871  0.0810
 9906TIP3    H229680   7.003   6.203   2.167  0.4921 -1.1305 -0.2725
 9907TIP3   OH229681   6.028   3.561   4.209  0.0556  0.6477 -0.4009
 9907TIP3    H129682   5.951   3.546   4.264 -0.3247  1.2936 -0.7480
 9907TIP3    H229683   6.101   3.562   4.271 -0.0131 -1.3136 -0.2022
 9908TIP3   OH229684   1.855   2.544   1.339  0.6981 -0.1412  0.1091
 9908TIP3    H129685   1.798   2.534   1.262 -0.4514 -0.6201  0.9867
 9908TIP3    H229686   1.911   2.466   1.338  0.2012 -0.5031  0.1322
 9909TIP3   OH229687   1.813   6.576   5.925 -0.2258  0.1922 -0.0221
 9909TIP3    H129688   1.807   6.633   6.002  0.6199  0.8029 -0.3809
 9909TIP3    H229689   1.844   6.492   5.959  2.6626  1.1867  0.0529
 9910TIP3   OH229690   6.567   4.724   2.788  0.0926 -0.0649  0.2235
 9910TIP3    H129691   6.564   4.700   2.695  2.0838 -0.6864  0.2770
 9910TIP3    H229692   6.544   4.817   2.789 -1.6443 -0.4241 -0.6639
 9911TIP3   OH229693   1.313   1.111   1.707  0.1837  0.0212  0.2186
 9911TIP3    H129694   1.286   1.021   1.691  1.7653 -0.2815 -1.0263
 9911TIP3    H229695   1.241   1.164   1.672 -0.4510 -0.7497  0.3263
 9912TIP3   OH229696   3.155   5.164   6.071  0.0095  0.4360 -0.1761
 9912TIP3    H129697   3.096   5.215   6.015  0.4589  1.5015  0.2970
 9912TIP3    H229698   3.205   5.110   6.009 -0.6817  0.3420 -0.6639
 9913TIP3   OH229699   5.312   3.689   1.574 -0.0279  0.2909  0.2518
 9913TIP3    H129700   5.320   3.618   1.511  2.2141  0.7060 -0.0047
 9913TIP3    H229701   5.304   3.644   1.659  1.4438 -0.2879  0.1060
 9914TIP3   OH229702   2.556   3.503   1.837  0.3117 -0.5784  0.3525
 9914TIP3    H129703   2.634   3.540   1.796 -0.0474 -1.0594 -0.8207
 9914TIP3    H229704   2.582   3.415   1.863 -0.0112 -0.9774 -0.6369
 9915TIP3   OH229705   3.323   3.442   1.719  0.0627 -0.7342 -0.4295
 9915TIP3    H129706   3.253   3.381   1.700 -2.0026  2.2062 -3.3649
 9915TIP3    H229707   3.366   3.457   1.635  0.5695  1.6338  0.1652
 9916TIP3   OH229708   1.351   3.885   6.009 -0.2855 -0.0735 -0.2816
 9916TIP3    H129709   1.428   3.936   5.984 -2.1135  1.5162 -3.4457
 9916TIP3    H229710   1.353   3.809   5.950  0.8966 -2.3349  2.4529
 9917TIP3   OH229711   4.717   6.231   5.618 -0.7266  0.1637  0.3972
 9917TIP3    H129712   4.632   6.193   5.642 -0.5065 -1.9891 -1.8576
 9917TIP3    H229713   4.712   6.243   5.524  1.0380  1.2081  0.4042
 9918TIP3   OH229714   0.629   3.573   5.982  0.3135  0.6673  0.1112
 9918TIP3    H129715   0.598   3.659   6.010 -0.8117 -0.0582  1.1958
 9918TIP3    H229716   0.694   3.548   6.049 -1.6944 -0.6640  1.6732
 9919TIP3   OH229717   6.814   5.167   0.909 -0.2300 -0.6326 -0.1668
 9919TIP3    H129718   6.838   5.120   0.829  1.0069  2.6275 -1.8961
 9919TIP3    H229719   6.896   5.207   0.938 -1.3207  1.0370  0.7343
 9920TIP3   OH229720   5.024   2.941   1.900  0.6032  0.2011 -0.2485
 9920TIP3    H129721   5.021   3.037   1.902  0.2030  0.2179 -1.3068
 9920TIP3    H229722   5.002   2.918   1.810  0.2450 -0.9093  0.1112
 9921TIP3   OH229723   0.870   1.830   0.337 -0.9621  0.5981 -0.0715
 9921TIP3    H129724   0.886   1.735   0.339  0.8793  0.8600 -0.1455
 9921TIP3    H229725   0.809   1.846   0.409 -0.2583 -0.4864  0.7972
 9922TIP3   OH229726   4.675   4.729   1.882 -0.1727 -0.2497 -0.1749
 9922TIP3    H129727   4.611   4.671   1.842  0.4562 -0.4383 -0.9350
 9922TIP3    H229728   4.749   4.729   1.821 -1.1281  3.3753 -1.5723
 9923TIP3   OH229729   1.698   4.747   3.618 -0.1971 -0.0337 -1.1962
 9923TIP3    H129730   1.734   4.775   3.702  1.4550 -0.6391 -1.6660
 9923TIP3    H229731   1.686   4.828   3.569  2.8349  0.1049 -1.8846
 9924TIP3   OH229732   3.839   0.159   5.764  0.0312  0.0484  0.3676
 9924TIP3    H129733   3.784   0.208   5.703 -0.7751  0.2364  1.2132
 9924TIP3    H229734   3.899   0.224   5.801  1.1255 -0.2338 -0.8560
 9925TIP3   OH229735   3.684   6.771   2.737 -0.3247  0.1082 -0.6896
 9925TIP3    H129736   3.736   6.804   2.663 -0.5553  1.0581 -0.4379
 9925TIP3    H229737   3.676   6.677   2.720  1.7635 -0.1387 -0.5635
 9926TIP3   OH229738   1.885   1.477   4.323 -0.2684  0.0910  0.2059
 9926TIP3    H129739   1.972   1.514   4.304 -0.6295  0.6025 -0.5044
 9926TIP3    H229740   1.864   1.511   4.410  0.7077 -0.9405  0.8734
 9927TIP3   OH229741   5.599   6.322   0.629 -0.0861  0.1089  0.4965
 9927TIP3    H129742   5.516   6.275   0.626  0.3786 -0.6964 -0.1946
 9927TIP3    H229743   5.609   6.359   0.541 -0.2344  1.1675  0.9007
 9928TIP3   OH229744   1.755   0.437   2.446  0.5473 -0.1310  0.1644
 9928TIP3    H129745   1.775   0.473   2.360 -2.9986 -2.2610 -1.7978
 9928TIP3    H229746   1.755   0.513   2.504 -0.0956  1.9498 -2.3793
 9929TIP3   OH229747   3.375   0.775   1.708 -0.0048  0.5460 -0.4629
 9929TIP3    H129748   3.338   0.855   1.670 -1.8493 -0.1413 -0.2227
 9929TIP3    H229749   3.362   0.708   1.640 -1.8377 -0.3302  0.6723
 9930TIP3   OH229750   4.041   4.655   5.541  0.2843  0.3683  0.0707
 9930TIP3    H129751   3.990   4.730   5.509  0.1141  0.7161  1.1124
 9930TIP3    H229752   4.128   4.667   5.504 -0.0737  0.4033 -0.7764
 9931TIP3   OH229753   4.271   4.589   3.923  0.0356 -0.3695 -0.4628
 9931TIP3    H129754   4.325   4.591   4.002  0.5046  1.5841 -0.7974
 9931TIP3    H229755   4.333   4.583   3.851 -0.1895  1.3154 -0.8258
 9932TIP3   OH229756   2.672   0.799   3.914  0.2595 -0.1003 -0.0821
 9932TIP3    H129757   2.745   0.820   3.856 -0.0800  0.4918 -0.3020
 9932TIP3    H229758   2.699   0.718   3.958  0.6857 -0.3453 -0.7774
 9933TIP3   OH229759   2.907   4.582   1.311 -0.4494 -0.1689 -0.3182
 9933TIP3    H129760   2.932   4.625   1.393 -0.2018  3.2352 -2.0098
 9933TIP3    H229761   2.812   4.593   1.306 -0.5379 -0.8564 -0.2716
 9934TIP3   OH229762   0.129   6.538   5.484 -0.3126  0.4701 -0.0317
 9934TIP3    H129763   0.044   6.581   5.479 -1.7771 -2.0894  0.9096
 9934TIP3    H229764   0.136   6.508   5.574  0.2718 -1.8042 -0.7616
 9935TIP3   OH229765   2.179   1.328   4.516 -0.4792 -0.4804 -0.3688
 9935TIP3    H129766   2.270   1.330   4.547  0.0064  1.9281 -1.7427
 9935TIP3    H229767   2.129   1.300   4.593  1.2614 -0.4784  0.8411
 9936TIP3   OH229768   4.995   0.288   5.519 -0.0617  0.1861 -0.3900
 9936TIP3    H129769   5.030   0.292   5.608 -1.1553  3.1262  0.0159
 9936TIP3    H229770   5.056   0.340   5.467  0.7093 -1.7229 -1.4986
 9937TIP3   OH229771   7.286   0.484   4.783 -0.2566 -0.2790 -0.0990
 9937TIP3    H129772   7.322   0.519   4.864  0.1078  1.2345 -0.8813
 9937TIP3    H229773   7.297   0.389   4.791  2.1373 -0.0122  0.5252
 9938TIP3   OH229774   0.274   4.262   3.051 -0.0519 -0.7601 -0.1795
 9938TIP3    H129775   0.196   4.246   2.999 -0.1650 -0.8091  0.0019
 9938TIP3    H229776   0.264   4.351   3.083  0.8414 -0.1133 -1.6375
 9939TIP3   OH229777   6.548   2.293   4.462  0.4904 -0.0148  0.3900
 9939TIP3    H129778   6.512   2.233   4.397 -0.3070 -0.5665  1.3028
 9939TIP3    H229779   6.625   2.331   4.420 -0.7423  0.6766 -1.3777
 9940TIP3   OH229780   1.994   3.771   0.486  0.3483 -0.6981  0.0048
 9940TIP3    H129781   1.944   3.788   0.566 -1.4555 -0.5822 -1.1056
 9940TIP3    H229782   2.083   3.800   0.507 -0.5056  1.1313  1.3200
 9941TIP3   OH229783   4.125   2.047   4.461  0.5562 -0.0239  0.3708
 9941TIP3    H129784   4.047   2.076   4.508  0.0406  0.5688 -0.8056
 9941TIP3    H229785   4.184   2.122   4.463  0.3448  0.1708 -0.2920
 9942TIP3   OH229786   5.155   0.003   1.726  0.0161 -0.5760 -0.1855
 9942TIP3    H129787   5.098   0.077   1.705  1.7637  0.7017 -0.6209
 9942TIP3    H229788   5.130  -0.065   1.663 -1.2078 -0.1798 -0.1658
 9943TIP3   OH229789   6.854   0.158   5.102  0.0450  0.5471  0.5311
 9943TIP3    H129790   6.841   0.067   5.078 -1.4962  0.9662 -0.3695
 9943TIP3    H229791   6.865   0.157   5.198 -0.0158 -0.5581  0.5348
 9944TIP3   OH229792   4.581   5.950   3.237 -0.1489 -0.0828  0.8286
 9944TIP3    H129793   4.593   5.954   3.142 -2.3836 -0.2666  0.4895
 9944TIP3    H229794   4.602   6.038   3.267  0.8194 -0.0884  0.2197
 9945TIP3   OH229795   3.875   0.861   0.361  0.3380 -0.0925 -0.1588
 9945TIP3    H129796   3.810   0.799   0.328  0.3590 -0.4276  0.4204
 9945TIP3    H229797   3.854   0.871   0.454 -0.0385  1.2400 -0.3600
 9946TIP3   OH229798   6.678   6.399   5.214  0.1256 -0.2251 -0.6816
 9946TIP3    H129799   6.608   6.385   5.151  0.2342  1.1743 -1.1538
 9946TIP3    H229800   6.633   6.426   5.294 -0.1226 -3.4481  0.3991
 9947TIP3   OH229801   6.060   4.006   3.850  0.0319  0.1962 -0.3113
 9947TIP3    H129802   6.099   4.090   3.828  1.0204  0.3931  1.9338
 9947TIP3    H229803   5.972   4.028   3.880  0.4951  0.5451  0.8565
 9948TIP3   OH229804   3.596   1.651   4.370 -0.8397  0.7330  0.7349
 9948TIP3    H129805   3.553   1.712   4.431 -0.9091 -1.2540  2.8363
 9948TIP3    H229806   3.671   1.699   4.336 -1.2404  2.2106  1.8328
 9949TIP3   OH229807   5.085   5.887   1.858  0.1619  0.3752  0.0596
 9949TIP3    H129808   5.082   5.961   1.919  0.6886 -0.6304  1.3646
 9949TIP3    H229809   5.013   5.903   1.797  0.0266  1.7560  0.5391
 9950TIP3   OH229810   0.236   4.070   6.045 -0.3762  0.0208 -0.0253
 9950TIP3    H129811   0.201   4.033   5.965  0.3902 -0.9821  0.0840
 9950TIP3    H229812   0.310   4.125   6.017 -1.7374  1.8554 -0.2234
 9951TIP3   OH229813   2.793   1.509   0.318 -0.2083  0.7030  0.0588
 9951TIP3    H129814   2.811   1.471   0.232 -0.2564 -0.2562  0.4632
 9951TIP3    H229815   2.706   1.477   0.341 -0.7566  2.0078 -0.0875
 9952TIP3   OH229816   5.037   4.071   4.465  0.4044  0.5811 -0.6595
 9952TIP3    H129817   4.988   4.043   4.543  0.6002  0.6445 -0.5124
 9952TIP3    H229818   5.070   3.989   4.427  1.0937  0.6140 -0.1517
 9953TIP3   OH229819   7.607   0.916   0.656  0.3084 -0.4565  0.0285
 9953TIP3    H129820   7.618   0.828   0.691  1.1046 -0.1342  0.6230
 9953TIP3    H229821   7.554   0.962   0.722  1.2988 -0.0248  0.5510
 9954TIP3   OH229822   3.587   1.654   4.079 -0.4187  0.0781  0.2919
 9954TIP3    H129823   3.550   1.655   4.167 -1.2571  0.2359 -0.0497
 9954TIP3    H229824   3.513   1.676   4.022  0.3755  1.1563 -0.3506
 9955TIP3   OH229825   6.239   3.683   3.338 -0.0253  0.6256 -0.0394
 9955TIP3    H129826   6.178   3.608   3.338  1.7802 -0.9143  0.7302
 9955TIP3    H229827   6.273   3.686   3.249 -0.8871  1.2312 -0.3604
 9956TIP3   OH229828   0.111   1.129   4.054  0.1445  0.0907 -0.5573
 9956TIP3    H129829   0.139   1.185   4.126 -2.1568 -1.1657  1.4847
 9956TIP3    H229830   0.042   1.179   4.009  1.9297  1.0892 -2.3372
 9957TIP3   OH229831   3.925   0.153   3.457 -0.3938  0.0378 -0.1275
 9957TIP3    H129832   3.968   0.075   3.421  0.9499  0.6192  0.1598
 9957TIP3    H229833   3.997   0.204   3.496 -1.3741  0.9754  0.5037
 9958TIP3   OH229834   5.763   0.662   5.962 -0.1221 -0.0871  0.2058
 9958TIP3    H129835   5.845   0.625   5.930 -0.7526 -0.2541 -1.3228
 9958TIP3    H229836   5.707   0.586   5.980 -0.2730  0.0430  0.2930
 9959TIP3   OH229837   5.484   5.012   4.517 -0.4240  0.3909 -0.0283
 9959TIP3    H129838   5.440   4.929   4.501 -0.3424 -0.0735  1.8703
 9959TIP3    H229839   5.448   5.072   4.452 -1.4115 -0.8075 -0.6188
 9960TIP3   OH229840   1.529   0.233   5.595 -0.2322 -0.5751 -0.6051
 9960TIP3    H129841   1.596   0.234   5.526 -0.3864  0.3531 -0.7537
 9960TIP3    H229842   1.446   0.235   5.547 -0.3367  0.8205 -0.4002
 9961TIP3   OH229843   6.188   4.926   5.701 -0.1038 -0.4822  0.5268
 9961TIP3    H129844   6.231   4.904   5.784  0.9612  0.0328  0.1295
 9961TIP3    H229845   6.186   4.844   5.652  0.9096 -0.4054  0.3453
 9962TIP3   OH229846   1.780   1.675   1.102 -0.0002 -0.2633 -0.3383
 9962TIP3    H129847   1.730   1.723   1.167 -0.4432 -1.1010 -0.0486
 9962TIP3    H229848   1.812   1.597   1.149 -0.5851 -1.0328 -1.1895
 9963TIP3   OH229849   3.962   0.080   1.062 -0.5084 -0.4063  0.2806
 9963TIP3    H129850   3.898   0.132   1.110  1.6534  0.5907  2.3224
 9963TIP3    H229851   4.032   0.142   1.042 -0.4264 -1.2794 -2.4998
 9964TIP3   OH229852   0.358   3.568   5.493 -0.2564 -0.9535 -0.5308
 9964TIP3    H129853   0.291   3.502   5.480 -0.8558 -0.4942  0.1415
 9964TIP3    H229854   0.363   3.615   5.409 -1.5243 -0.3229 -0.2817
 9965TIP3   OH229855   3.256   3.787   2.892  0.0012  0.5539 -0.0053
 9965TIP3    H129856   3.192   3.857   2.906 -1.0519 -0.6867  1.7263
 9965TIP3    H229857   3.207   3.718   2.849  0.8929  0.6378 -1.1780
 9966TIP3   OH229858   4.976   4.464   0.455  0.3455 -0.0474  0.2623
 9966TIP3    H129859   4.942   4.428   0.537 -0.2143 -0.7828 -0.2748
 9966TIP3    H229860   4.907   4.446   0.391  0.2083  1.6602 -0.1181
 9967TIP3   OH229861   6.305   1.829   5.362 -0.4150 -0.2855  0.1123
 9967TIP3    H129862   6.338   1.918   5.353 -0.3124 -0.0279  2.4829
 9967TIP3    H229863   6.248   1.817   5.285  2.2676  0.5006 -2.1825
 9968TIP3   OH229864   4.616   6.400   0.998 -0.1004  0.0874  0.0081
 9968TIP3    H129865   4.566   6.481   0.996 -0.5877 -0.2307 -1.8247
 9968TIP3    H229866   4.658   6.395   0.912  0.6434 -1.1629  0.4162
 9969TIP3   OH229867   0.047   1.276   1.169 -0.2467 -0.2731  0.7245
 9969TIP3    H129868  -0.000   1.194   1.153  0.4523 -0.7356  0.9944
 9969TIP3    H229869   0.108   1.255   1.240  0.2899  0.3480  0.4546
 9970TIP3   OH229870   3.587   3.870   0.688  0.1950  0.6590 -0.0458
 9970TIP3    H129871   3.502   3.905   0.711  0.0285  0.8972 -0.9853
 9970TIP3    H229872   3.609   3.911   0.605  0.6140 -0.4267 -0.4977
 9971TIP3   OH229873   1.786   1.159   2.781 -0.1472 -0.1405 -0.4969
 9971TIP3    H129874   1.836   1.233   2.815 -0.0360 -1.2366  1.9110
 9971TIP3    H229875   1.851   1.092   2.762 -0.5288 -0.9757  1.0427
 9972TIP3   OH229876   6.731   5.697   2.100  0.0159  0.2754  0.3323
 9972TIP3    H129877   6.737   5.790   2.076  1.8304  0.5106  1.5016
 9972TIP3    H229878   6.756   5.694   2.192 -3.1569 -1.0417  1.2800
 9973TIP3   OH229879   3.365   0.818   5.234 -0.5227  0.2973 -0.4993
 9973TIP3    H129880   3.382   0.734   5.276 -2.4075 -0.6163 -1.4359
 9973TIP3    H229881   3.420   0.880   5.282  0.3404 -1.3163  0.7155
 9974TIP3   OH229882   3.741   1.792   1.984  0.4849 -0.2554  0.0037
 9974TIP3    H129883   3.685   1.866   1.961 -2.0718 -1.9150  0.4236
 9974TIP3    H229884   3.791   1.774   1.905  0.5529  1.3552 -0.3595
 9975TIP3   OH229885   6.983   1.648   1.548  0.2650  0.4617 -0.5027
 9975TIP3    H129886   7.040   1.576   1.575 -0.3777  0.4353  0.8233
 9975TIP3    H229887   6.915   1.606   1.495  0.1416  0.1589 -0.1061
 9976TIP3   OH229888   0.371   5.684   3.749 -0.3072  0.0323 -0.2201
 9976TIP3    H129889   0.335   5.601   3.780 -0.9439 -0.6439 -2.5651
 9976TIP3    H229890   0.298   5.746   3.756 -0.3702 -0.0484 -0.1620
 9977TIP3   OH229891   1.547   3.304   6.137 -0.0126 -0.1823 -0.1032
 9977TIP3    H129892   1.466   3.352   6.124  0.3359  0.4744  0.1391
 9977TIP3    H229893   1.545   3.236   6.070 -0.1836  0.5880 -0.8928
 9978TIP3   OH229894   0.319   1.696   5.185 -0.0246 -0.2141  0.2781
 9978TIP3    H129895   0.248   1.701   5.122 -0.2780  0.2280  0.5946
 9978TIP3    H229896   0.397   1.720   5.136 -0.3813  1.1984  0.3849
 9979TIP3   OH229897   5.949   2.195   4.728  0.0777 -0.3505 -0.2822
 9979TIP3    H129898   5.923   2.283   4.703  0.2076 -0.6276 -1.4825
 9979TIP3    H229899   5.867   2.152   4.754 -0.2133 -0.2801 -1.0399
 9980TIP3   OH229900   2.515   1.618   4.206  0.0523  0.0389  0.0098
 9980TIP3    H129901   2.531   1.530   4.172 -0.5676 -0.0871  0.0444
 9980TIP3    H229902   2.475   1.665   4.133  0.4133  0.3068 -0.0197
 9981TIP3   OH229903   5.351   4.091   3.604  0.1650 -0.0059  0.1690
 9981TIP3    H129904   5.328   4.012   3.555  1.0931 -0.9073  1.1014
 9981TIP3    H229905   5.443   4.078   3.627  0.5721  1.7538 -0.3593
 9982TIP3   OH229906   3.268   1.645   0.435 -0.0604 -0.3554 -0.0519
 9982TIP3    H129907   3.302   1.647   0.345  1.2147 -0.4288  0.4091
 9982TIP3    H229908   3.346   1.658   0.490 -0.5988 -1.7155  1.0875
 9983TIP3   OH229909   2.523   1.686   3.816 -0.3437  0.0629 -0.3002
 9983TIP3    H129910   2.503   1.593   3.807  1.8842 -0.5976  0.7017
 9983TIP3    H229911   2.469   1.716   3.889 -0.3808 -0.7028 -0.0007
 9984TIP3   OH229912   4.965   3.262   5.728  0.1252  0.2672 -0.1204
 9984TIP3    H129913   4.953   3.194   5.662  3.1210  0.0190 -0.5804
 9984TIP3    H229914   4.934   3.222   5.809  1.2593 -1.5160 -0.4838
 9985TIP3   OH229915   2.717   6.889   0.267 -0.2349 -0.2811 -0.4663
 9985TIP3    H129916   2.802   6.854   0.240  0.2608 -0.6223  1.3803
 9985TIP3    H229917   2.700   6.961   0.207  0.3334 -1.5330 -2.2161
 9986TIP3   OH229918   4.233   1.712   2.335  0.2021  0.0833  0.1602
 9986TIP3    H129919   4.145   1.673   2.339  0.2457  0.0564  0.9968
 9986TIP3    H229920   4.268   1.701   2.423  0.4887  1.3841  0.2258
 9987TIP3   OH229921   3.833   6.386   1.543  0.2213 -0.1218 -0.1854
 9987TIP3    H129922   3.813   6.428   1.459  0.3140 -1.4269 -0.8977
 9987TIP3    H229923   3.908   6.330   1.524 -0.5845 -1.4626  0.4028
 9988TIP3   OH229924   4.651   3.604   1.340  0.0832 -0.3603 -0.8256
 9988TIP3    H129925   4.725   3.580   1.283  0.8439  0.5003 -0.2309
 9988TIP3    H229926   4.580   3.547   1.312  1.1344 -1.6131 -1.0417
 9989TIP3   OH229927   2.408   5.921   5.423 -0.0521 -0.0975  0.1930
 9989TIP3    H129928   2.364   5.840   5.397  0.3831 -0.1897 -0.2683
 9989TIP3    H229929   2.357   5.990   5.382  0.8036 -0.2561 -1.2000
 9990TIP3   OH229930   5.871   0.688   1.560  0.1702 -0.6988 -0.3016
 9990TIP3    H129931   5.846   0.606   1.518  0.7169 -1.8881  1.5363
 9990TIP3    H229932   5.875   0.666   1.654 -2.0010  2.0271  0.5496
 9991TIP3   OH229933   4.063   1.734   2.809 -0.0149 -0.4007 -0.0495
 9991TIP3    H129934   4.120   1.756   2.882 -1.3371  0.8859  0.6617
 9991TIP3    H229935   4.033   1.645   2.827 -1.8047  0.5322  2.0697
 9992TIP3   OH229936   5.179   5.477   0.800  0.1402 -0.0216  0.9545
 9992TIP3    H129937   5.184   5.435   0.714 -0.6446  3.1262 -0.7698
 9992TIP3    H229938   5.250   5.541   0.801 -1.1685  1.4982  1.7064
 9993TIP3   OH229939   5.391   5.684   0.137 -0.3194  0.1122 -0.2790
 9993TIP3    H129940   5.482   5.694   0.108 -0.2150 -1.0298 -0.4044
 9993TIP3    H229941   5.383   5.742   0.213 -0.2941  2.3360 -1.9031
 9994TIP3   OH229942   5.120   0.929   2.704  0.4242  0.2112  0.1040
 9994TIP3    H129943   5.058   0.879   2.756 -0.7418  1.1179 -0.3766
 9994TIP3    H229944   5.206   0.902   2.737 -0.1536 -1.8690  0.0674
 9995TIP3   OH229945   3.520   2.309   3.686  0.0525  0.0828 -0.2761
 9995TIP3    H129946   3.581   2.239   3.711  0.5164  0.4580 -0.3553
 9995TIP3    H229947   3.487   2.342   3.769  1.7567  1.4743 -0.0886
 9996TIP3   OH229948   5.525   1.649   2.993 -0.1438 -0.6996  0.3683
 9996TIP3    H129949   5.467   1.596   2.939 -0.8676 -0.6314  1.0511
 9996TIP3    H229950   5.522   1.607   3.079  0.7771 -0.6548  0.4309
 9997TIP3   OH229951   5.943   3.590   0.496 -0.4941  0.0801 -0.0772
 9997TIP3    H129952   5.859   3.635   0.508 -0.7759 -0.7439  1.2208
 9997TIP3    H229953   5.919   3.500   0.475  0.0719  0.0782 -0.7392
 9998TIP3   OH229954   5.773   1.808   0.878  0.3359 -0.1288  0.1189
 9998TIP3    H129955   5.749   1.882   0.823 -0.0960 -0.0936  0.3448
 9998TIP3    H229956   5.763   1.840   0.968  1.3668 -0.0824  0.2200
 9999TIP3   OH229957   1.548   6.465   0.328 -0.5394  0.0822  0.5438
 9999TIP3    H129958   1.522   6.381   0.366  0.3588  0.7882  2.9542
 9999TIP3    H229959   1.619   6.496   0.385  1.1517  1.1654 -1.9725
10000TIP3   OH229960   2.651   6.084   3.155 -0.1363 -0.1077 -0.2573
10000TIP3    H129961   2.690   6.117   3.237 -1.8951  2.8433 -0.4387
10000TIP3    H229962   2.570   6.041   3.183 -0.0682 -0.3025 -0.3592
10001TIP3   OH229963   5.269   2.470   1.034  0.2977  0.3558  0.0860
10001TIP3    H129964   5.218   2.494   0.957  0.1982  0.6983  0.2555
10001TIP3    H229965   5.205   2.436   1.096  0.3753  0.0998  0.0261
10002TIP3   OH229966   0.823   6.480   5.454  0.0603  1.1175  0.5907
10002TIP3    H129967   0.748   6.525   5.494  0.2881  1.8218  0.2206
10002TIP3    H229968   0.854   6.539   5.387 -0.8362 -0.4068 -1.2610
10003TIP3   OH229969   6.657   4.702   1.459 -0.3209  0.4962 -0.3663
10003TIP3    H129970   6.679   4.776   1.516 -1.1972 -0.8612  1.9082
10003TIP3    H229971   6.736   4.647   1.461 -0.7850 -0.1852  0.7152
10004TIP3   OH229972   1.548   0.289   6.059  0.0501  0.0149 -0.2077
10004TIP3    H129973   1.482   0.221   6.046 -1.6376  1.4391  0.6063
10004TIP3    H229974   1.556   0.331   5.973  0.0384 -0.2574 -0.3445
10005TIP3   OH229975   1.843   3.091   5.965  0.6891  0.2391  0.2134
10005TIP3    H129976   1.932   3.121   5.981  0.8352 -0.3787  0.5861
10005TIP3    H229977   1.836   3.085   5.869  0.9646  0.5261  0.1760
10006TIP3   OH229978   1.470   1.893   0.993  0.1356  0.0088  0.3051
10006TIP3    H129979   1.500   1.812   0.952  0.6278 -0.1718  1.0143
10006TIP3    H229980   1.454   1.952   0.919  3.4798  0.5693 -0.1099
10007TIP3   OH229981   7.273   1.248   5.181  0.0730 -0.4289 -0.4219
10007TIP3    H129982   7.264   1.318   5.117 -0.7748 -0.4124 -0.2972
10007TIP3    H229983   7.211   1.181   5.152  0.5552 -0.9487 -0.2924
10008TIP3   OH229984   7.451   6.309   2.745 -0.6364 -0.1944 -0.1590
10008TIP3    H129985   7.384   6.301   2.813 -0.2905 -0.4456  0.1553
10008TIP3    H229986   7.455   6.222   2.706 -2.2361  0.4077 -1.8589
10009TIP3   OH229987   4.907   5.194   2.801 -0.2749 -0.3860 -0.4294
10009TIP3    H129988   4.936   5.265   2.858  0.5657 -0.1459 -1.1309
10009TIP3    H229989   4.833   5.154   2.847  0.1180  0.0664  0.6179
10010TIP3   OH229990   2.722   5.433   0.773  0.2192 -0.1811  0.4231
10010TIP3    H129991   2.760   5.474   0.695  1.6890 -2.0667  0.0459
10010TIP3    H229992   2.703   5.505   0.832  2.6594  1.0573 -0.1813
10011TIP3   OH229993   1.428   3.847   2.603 -0.3443 -0.1589 -0.0848
10011TIP3    H129994   1.484   3.904   2.656 -0.2534 -0.0962 -0.2478
10011TIP3    H229995   1.466   3.851   2.515 -0.3332 -0.4734 -0.0974
10012TIP3   OH229996   1.658   5.049   5.668 -0.2912 -0.2220  0.2290
10012TIP3    H129997   1.579   5.055   5.615 -0.0419 -0.0061 -0.1231
10012TIP3    H229998   1.628   5.013   5.752 -1.1365  1.8287  0.8677
10013TIP3   OH229999   2.300   3.173   4.992  0.1007  0.0317 -0.3836
10013TIP3    H130000   2.231   3.177   5.058 -0.4083  2.5344 -0.9854
10013TIP3    H230001   2.373   3.222   5.031  0.0590  0.8886 -1.3624
10014TIP3   OH230002   0.200   5.877   0.149  0.1725 -0.0694 -0.0725
10014TIP3    H130003   0.110   5.848   0.131  0.2601  0.1092 -0.8367
10014TIP3    H230004   0.255   5.803   0.123  0.1440 -1.3114  3.0123
10015TIP3   OH230005   3.066   6.470   6.052 -0.1714 -0.4670 -0.0036
10015TIP3    H130006   3.095   6.556   6.082 -1.3451  0.2627 -0.8881
10015TIP3    H230007   3.109   6.408   6.112 -0.6378  0.8044  1.7219
10016TIP3   OH230008   1.300   2.021   4.882  0.1529  0.0216 -0.4426
10016TIP3    H130009   1.309   2.116   4.887  0.0401 -0.0137  0.8656
10016TIP3    H230010   1.383   1.990   4.848 -0.2659  0.6688 -2.1246
10017TIP3   OH230011   4.494   1.840   4.097  0.5403  0.0018 -0.0621
10017TIP3    H130012   4.529   1.919   4.056  0.2084 -0.2802 -0.8969
10017TIP3    H230013   4.570   1.800   4.140  0.8573  0.3983 -0.2483
10018TIP3   OH230014   4.800   3.430   0.637  0.3740  0.7760 -0.1956
10018TIP3    H130015   4.775   3.368   0.569 -0.9893  2.0937 -0.9465
10018TIP3    H230016   4.862   3.382   0.692 -1.5168 -1.6604 -0.0398
10019TIP3   OH230017   0.719   4.417   1.632 -0.0832 -0.2069  0.1781
10019TIP3    H130018   0.681   4.393   1.548  1.5284 -0.5052 -0.4956
10019TIP3    H230019   0.790   4.355   1.645  1.7986  1.8349  0.1834
10020TIP3   OH230020   5.317   6.985   3.117  0.0406 -0.3002  0.3216
10020TIP3    H130021   5.225   6.992   3.144 -0.0776 -1.1871  0.1909
10020TIP3    H230022   5.350   7.075   3.121 -0.5767 -0.0926  1.2656
10021TIP3   OH230023   0.293   5.000   2.402  0.2791  0.4008  0.6337
10021TIP3    H130024   0.320   4.911   2.379 -0.8546  0.3679 -0.6808
10021TIP3    H230025   0.368   5.054   2.378  0.2024  0.0261 -0.5085
10022TIP3   OH230026   1.907   6.030   1.567 -0.6090 -0.1836 -0.1447
10022TIP3    H130027   1.815   6.032   1.540 -1.5492 -0.2362  2.7462
10022TIP3    H230028   1.928   5.937   1.574 -1.2935 -0.2251  1.9488
10023TIP3   OH230029   3.506   1.415   4.505 -0.3938  0.4689 -0.3167
10023TIP3    H130030   3.549   1.463   4.434  0.5864  2.7773  1.6909
10023TIP3    H230031   3.438   1.474   4.537 -1.1292 -0.7117  0.3924
10024TIP3   OH230032   5.704   4.609   4.360 -0.7255 -0.2438  0.5575
10024TIP3    H130033   5.644   4.538   4.338 -0.7017 -0.2807  0.6117
10024TIP3    H230034   5.667   4.686   4.317  0.6823 -0.7954 -1.8151
10025TIP3   OH230035   1.959   3.524   5.685 -0.4372 -0.6666 -0.0815
10025TIP3    H130036   1.950   3.610   5.644  1.0482  0.1492  1.2371
10025TIP3    H230037   1.890   3.521   5.751 -0.4863 -0.5004 -0.1255
10026TIP3   OH230038   2.756   5.234   3.798  0.4910 -0.3014  0.7140
10026TIP3    H130039   2.731   5.303   3.860  0.3503  1.0760 -0.8257
10026TIP3    H230040   2.785   5.281   3.720 -1.0288 -1.9924 -0.9604
10027TIP3   OH230041   4.313   5.895   4.127 -0.5921  0.0862 -0.6673
10027TIP3    H130042   4.280   5.979   4.094 -0.2501 -0.2889 -2.0083
10027TIP3    H230043   4.284   5.893   4.219 -1.0792  1.4151 -0.7635
10028TIP3   OH230044   4.732   6.340   0.528  0.5914 -0.3017 -0.3055
10028TIP3    H130045   4.742   6.282   0.452 -2.8243  0.3567 -1.4324
10028TIP3    H230046   4.646   6.317   0.564  1.9968 -0.4412  3.3441
10029TIP3   OH230047   4.131   2.719   2.262 -0.3848  0.6008  0.5546
10029TIP3    H130048   4.040   2.746   2.253  0.0815  1.8832 -0.7156
10029TIP3    H230049   4.127   2.623   2.272 -1.8397  0.5891  0.0616
10030TIP3   OH230050   6.491   2.651   5.488  0.5839 -0.1367  0.9291
10030TIP3    H130051   6.486   2.711   5.413  0.3324  1.3370  2.0868
10030TIP3    H230052   6.405   2.609   5.491  0.7809 -0.6305  0.0758
10031TIP3   OH230053   5.015   5.985   5.709  1.1166  0.9114 -0.1896
10031TIP3    H130054   4.931   6.019   5.741  1.2096  0.3679  0.6563
10031TIP3    H230055   4.991   5.926   5.637  0.6069 -0.6282  1.1785
10032TIP3   OH230056   2.529   2.047   1.093  0.4701 -0.4813  0.5764
10032TIP3    H130057   2.542   2.138   1.122  0.7524 -0.5389  0.6340
10032TIP3    H230058   2.437   2.029   1.112 -0.3582  0.6874 -1.9489
10033TIP3   OH230059   2.511   3.716   0.752  0.6028  0.5693 -0.0402
10033TIP3    H130060   2.512   3.626   0.720  1.7375  1.1021 -1.6352
10033TIP3    H230061   2.581   3.718   0.818  1.7309  0.6403 -1.1942
10034TIP3   OH230062   0.139   4.344   3.653 -0.0827 -0.5306  0.0427
10034TIP3    H130063   0.087   4.393   3.590 -1.6383 -0.8047  1.0690
10034TIP3    H230064   0.099   4.257   3.656 -0.1403 -0.4788  1.4918
10035TIP3   OH230065   6.598   0.475   5.241  0.2153  0.3091  0.4831
10035TIP3    H130066   6.628   0.433   5.321  0.7107 -0.3436 -0.0256
10035TIP3    H230067   6.679   0.502   5.197 -0.0468  0.6164  0.1798
10036TIP3   OH230068   6.037   2.187   2.481  0.4596  0.2983 -0.2292
10036TIP3    H130069   6.012   2.275   2.508  2.4045  0.6997  0.3755
10036TIP3    H230070   5.978   2.167   2.408 -0.6529  1.7021  0.2429
10037TIP3   OH230071   4.025   5.332   4.719 -0.1546 -0.1396 -0.3331
10037TIP3    H130072   4.029   5.253   4.665  0.7893  0.3103 -0.9322
10037TIP3    H230073   4.061   5.305   4.804 -0.8859 -0.6333 -0.1670
10038TIP3   OH230074   4.386   4.381   0.573  0.6346  0.2439  0.4196
10038TIP3    H130075   4.316   4.332   0.531  1.9112  0.2585 -1.8661
10038TIP3    H230076   4.454   4.389   0.506  1.6813  2.6231  1.6299
10039TIP3   OH230077   1.368   7.000   0.510  0.4840 -0.2608 -0.4351
10039TIP3    H130078   1.436   7.065   0.528 -0.2254  0.7352 -1.2226
10039TIP3    H230079   1.391   6.926   0.565  1.0202  0.8635  0.9301
10040TIP3   OH230080   1.818   6.048   0.399  0.3500 -0.3836 -0.2005
10040TIP3    H130081   1.856   6.135   0.391  0.5792 -0.2996  1.4018
10040TIP3    H230082   1.742   6.060   0.456 -1.0891 -0.8602 -1.9047
10041TIP3   OH230083   2.448   4.461   6.158 -0.3870  0.2720 -0.4989
10041TIP3    H130084   2.455   4.509   6.075  1.8689  0.2528 -0.3983
10041TIP3    H230085   2.525   4.405   6.159  0.0509  0.8016  1.9208
10042TIP3   OH230086   1.557   3.922   5.229  0.0911  0.0887 -0.5079
10042TIP3    H130087   1.473   3.961   5.202  1.3178  2.2191 -1.4575
10042TIP3    H230088   1.538   3.828   5.236 -2.8514  0.6815  1.2360
10043TIP3   OH230089   6.152   4.720   5.548  0.0736  0.2338 -0.2520
10043TIP3    H130090   6.149   4.649   5.485  0.2249  0.9736 -1.1058
10043TIP3    H230091   6.142   4.677   5.633  0.0818 -0.7906 -0.7579
10044TIP3   OH230092   5.442   1.070   4.112  0.2298 -0.5526  0.0883
10044TIP3    H130093   5.412   1.066   4.021  2.3642 -0.8860 -0.6631
10044TIP3    H230094   5.524   1.119   4.108  0.1553 -0.2236  1.9055
10045TIP3   OH230095   6.138   1.507   0.271  0.1626 -0.1819  0.0830
10045TIP3    H130096   6.187   1.587   0.291 -0.5060 -0.2553  2.2805
10045TIP3    H230097   6.156   1.449   0.346 -1.7207 -0.9339  0.0014
10046TIP3   OH230098   7.322   5.600   6.206  0.1169 -0.0959 -0.0054
10046TIP3    H130099   7.243   5.617   6.156 -0.3630 -0.1596  0.7055
10046TIP3    H230100   7.384   5.565   6.143  0.2368  1.7452 -0.9675
10047TIP3   OH230101   6.557   2.813   2.980 -0.1328  0.3925  0.4510
10047TIP3    H130102   6.549   2.777   3.068 -0.2410  1.5386  0.9216
10047TIP3    H230103   6.640   2.778   2.947 -1.0729 -1.7469  0.1723
10048TIP3   OH230104   7.160   2.136   1.398  0.4163  0.1068  0.0789
10048TIP3    H130105   7.228   2.179   1.347  0.4791  1.0409  0.9084
10048TIP3    H230106   7.083   2.193   1.388 -0.1834 -0.8085 -0.6543
10049TIP3   OH230107   1.905   1.889   5.147  0.1776  0.3896  0.7519
10049TIP3    H130108   1.995   1.909   5.120  1.5709 -2.3803  2.7610
10049TIP3    H230109   1.913   1.860   5.238 -2.4551 -1.6521  0.4697
10050TIP3   OH230110   6.574   1.845   0.465  0.5041 -0.5056  0.5611
10050TIP3    H130111   6.514   1.891   0.524  0.4983  2.3570 -1.4754
10050TIP3    H230112   6.661   1.866   0.499  0.4786 -2.0352  1.6732
10051TIP3   OH230113   2.124   6.644   1.359 -0.3288 -0.3444 -0.5594
10051TIP3    H130114   2.167   6.711   1.412 -1.1013  0.8059 -1.3318
10051TIP3    H230115   2.078   6.694   1.291  1.9337 -1.8128 -3.3469
10052TIP3   OH230116   6.209   3.873   4.377 -0.5101 -0.1947  0.0021
10052TIP3    H130117   6.277   3.940   4.389  0.1118 -1.0847  1.8081
10052TIP3    H230118   6.201   3.864   4.282 -1.6599  3.4482 -0.4242
10053TIP3   OH230119   2.666   7.061   0.040  0.0448 -0.2085  0.3013
10053TIP3    H130120   2.572   7.076   0.029  0.0489 -1.2841 -1.8007
10053TIP3    H230121   2.680   6.973   0.004  2.2357  1.0147 -2.1787
10054TIP3   OH230122   4.462   7.105   0.350 -0.2040 -0.7950 -0.5698
10054TIP3    H130123   4.553   7.110   0.378  0.2356 -2.2400 -1.6713
10054TIP3    H230124   4.415   7.073   0.427  0.0152  0.9360  0.3300
10055TIP3   OH230125   1.236   0.599   4.632  0.0873 -0.3164 -0.0285
10055TIP3    H130126   1.188   0.566   4.708 -0.9012 -0.9637 -0.9083
10055TIP3    H230127   1.255   0.691   4.653 -0.6230 -0.3437  0.7771
10056TIP3   OH230128   5.753   5.910   0.735 -0.4163 -0.4058  0.1005
10056TIP3    H130129   5.792   5.861   0.663  0.0843 -2.4257  1.6773
10056TIP3    H230130   5.816   5.904   0.806 -1.3162  0.7404  1.0555
10057TIP3   OH230131   6.502   1.018   2.887 -0.0546  0.4768  0.1962
10057TIP3    H130132   6.473   0.979   2.804 -0.0799 -0.7921  0.7823
10057TIP3    H230133   6.441   0.983   2.952  0.6183  0.6134  0.9085
10058TIP3   OH230134   0.946   4.538   4.932  0.5779  0.1284 -0.2034
10058TIP3    H130135   0.863   4.575   4.963  1.6573  1.7435  0.9199
10058TIP3    H230136   0.943   4.549   4.837 -1.5040 -2.1284 -0.5200
10059TIP3   OH230137   3.055   2.036   2.019 -0.0034  0.1971 -0.8725
10059TIP3    H130138   3.036   2.114   2.071 -2.8595 -0.4678 -0.7467
10059TIP3    H230139   3.109   2.068   1.947 -0.3467  2.1158 -0.3358
10060TIP3   OH230140   5.575   0.491   1.791 -0.4657  0.0433  0.1794
10060TIP3    H130141   5.514   0.500   1.718  0.9321 -1.9146 -1.3527
10060TIP3    H230142   5.573   0.398   1.813  2.7170 -0.3441 -0.7070
10061TIP3   OH230143   1.144   0.790   0.870  0.3254  0.2879 -0.0512
10061TIP3    H130144   1.127   0.767   0.779 -1.1528  1.6920 -0.1898
10061TIP3    H230145   1.171   0.708   0.911 -0.1612 -0.6310 -1.4783
10062TIP3   OH230146   4.646   7.000   5.850  0.2118  0.1170  0.2610
10062TIP3    H130147   4.588   7.051   5.794  1.3893  1.9577  0.6487
10062TIP3    H230148   4.677   7.061   5.916  1.9346 -1.0059  0.5623
10063TIP3   OH230149   1.173   2.743   3.326  0.6628  0.1658  0.7156
10063TIP3    H130150   1.243   2.695   3.369 -0.7214 -0.7165  2.1044
10063TIP3    H230151   1.142   2.684   3.257  0.1211 -0.2046  1.2710
10064TIP3   OH230152   3.783   0.239   4.850  0.3323 -0.1940 -0.1988
10064TIP3    H130153   3.838   0.302   4.895  0.7272 -1.4312  1.1552
10064TIP3    H230154   3.708   0.227   4.909 -0.7650  0.5055 -1.4051
10065TIP3   OH230155   3.154   2.621   2.463 -0.1163  0.4866 -0.4697
10065TIP3    H130156   3.085   2.557   2.481  0.7568 -1.4871 -3.4291
10065TIP3    H230157   3.138   2.691   2.526 -1.7165 -2.1706  2.3693
10066TIP3   OH230158   3.926   7.027   5.268  0.6093  0.2423  0.1350
10066TIP3    H130159   3.908   6.970   5.193 -1.2561  0.8900  0.0453
10066TIP3    H230160   3.891   6.981   5.343 -1.1838  1.3269  0.0249
10067TIP3   OH230161   2.681   0.898   2.135 -0.4245 -0.1959 -0.3075
10067TIP3    H130162   2.691   0.989   2.108 -0.4051 -0.0697  0.1164
10067TIP3    H230163   2.771   0.865   2.144 -0.4306 -0.2221 -0.3392
10068TIP3   OH230164   0.759   1.139   0.415 -0.2296 -0.2146 -0.2107
10068TIP3    H130165   0.754   1.119   0.322 -3.1633 -0.3156 -0.1256
10068TIP3    H230166   0.731   1.230   0.423 -0.9020 -0.4786  0.6329
10069TIP3   OH230167   4.712   0.142   2.119  0.0023  0.2015 -0.2166
10069TIP3    H130168   4.762   0.218   2.088  1.5620 -0.1962  1.1612
10069TIP3    H230169   4.661   0.113   2.043 -0.7246  2.6574 -0.7538
10070TIP3   OH230170   6.486   1.925   2.881 -0.1521 -0.3280  0.6023
10070TIP3    H130171   6.496   2.003   2.935 -2.0446 -0.2791  0.9143
10070TIP3    H230172   6.434   1.954   2.806  1.2761 -0.7185 -0.5976
10071TIP3   OH230173   5.575   0.243   0.684 -0.1918 -0.1526  0.3992
10071TIP3    H130174   5.518   0.291   0.624  1.3688  0.1746 -0.9063
10071TIP3    H230175   5.562   0.285   0.769 -0.5277  1.1109 -0.2561
10072TIP3   OH230176   4.335   0.709   5.520 -0.1418 -0.1792 -0.3287
10072TIP3    H130177   4.341   0.748   5.433  0.9366  0.9695  0.2312
10072TIP3    H230178   4.423   0.677   5.539 -0.1968  0.1858  0.6036
10073TIP3   OH230179   1.029   2.565   1.110  0.1946  0.0644 -0.4356
10073TIP3    H130180   1.103   2.582   1.167 -0.2592 -0.1445  0.2218
10073TIP3    H230181   1.047   2.616   1.031  2.3474 -1.9981 -1.4075
10074TIP3   OH230182   6.196   0.193   4.152 -0.0163 -0.2932  0.3577
10074TIP3    H130183   6.284   0.232   4.153 -0.0762 -0.1205 -0.4607
10074TIP3    H230184   6.198   0.131   4.079 -0.8425  0.3710 -0.2455
10075TIP3   OH230185   7.512   5.415   0.754  0.2605 -0.2501 -0.4080
10075TIP3    H130186   7.486   5.407   0.663  2.1797 -1.4693 -0.9059
10075TIP3    H230187   7.590   5.471   0.752  0.8159 -0.9654  0.3808
10076TIP3   OH230188   5.072   4.741   4.592 -0.1113 -0.1412  0.1093
10076TIP3    H130189   5.043   4.833   4.589  2.2834  0.7404  1.4885
10076TIP3    H230190   5.124   4.735   4.671  0.4626 -2.5370 -0.3739
10077TIP3   OH230191   4.182   6.803   5.199  0.0459 -0.3657  0.5541
10077TIP3    H130192   4.155   6.774   5.113 -2.0084  2.4793  0.0782
10077TIP3    H230193   4.128   6.752   5.260 -0.3393 -0.6101  0.0136
10078TIP3   OH230194   7.136   4.808   3.059 -0.2322  0.1959  0.0485
10078TIP3    H130195   7.201   4.746   3.091  0.5739  0.6872 -0.6036
10078TIP3    H230196   7.095   4.764   2.985 -0.8721 -0.2376  0.6489
10079TIP3   OH230197   5.896   4.767   0.301 -0.1109 -0.0379 -0.2182
10079TIP3    H130198   5.916   4.705   0.372  3.2259 -2.1008 -2.6326
10079TIP3    H230199   5.824   4.726   0.254 -0.3420 -0.1958  0.2624
10080TIP3   OH230200   2.829   3.027   2.754  0.1799 -0.2030 -0.3757
10080TIP3    H130201   2.887   3.042   2.829  1.3131 -1.4067 -0.9789
10080TIP3    H230202   2.742   3.049   2.788  0.9553  1.7682  0.5065
10081TIP3   OH230203   0.422   2.495   4.974 -0.8583 -0.5822 -0.4440
10081TIP3    H130204   0.392   2.564   4.915 -1.8701  0.0075  0.7246
10081TIP3    H230205   0.425   2.417   4.918  1.3484  0.5389 -2.0549
10082TIP3   OH230206   6.638   4.783   1.107  0.3572  0.5372  0.2259
10082TIP3    H130207   6.647   4.723   1.181 -1.3007 -0.1720 -0.1210
10082TIP3    H230208   6.643   4.726   1.030 -0.4136  0.9488 -0.1286
10083TIP3   OH230209   0.580   3.238   3.753 -0.1992 -0.6073  0.0596
10083TIP3    H130210   0.656   3.181   3.768  1.3295  1.1288 -0.6221
10083TIP3    H230211   0.504   3.183   3.772  1.1757 -2.7774 -0.3627
10084TIP3   OH230212   0.844   3.525   4.659 -0.8761 -0.4902  0.5341
10084TIP3    H130213   0.847   3.498   4.751  0.0353  1.4476  1.1289
10084TIP3    H230214   0.932   3.557   4.640 -1.7078  1.5987 -0.1666
10085TIP3   OH230215   6.692   5.142   0.381 -0.1803 -0.4407 -0.4108
10085TIP3    H130216   6.763   5.133   0.445 -3.0533 -0.5016  3.0455
10085TIP3    H230217   6.708   5.072   0.318  3.3129  0.1888 -0.4334
10086TIP3   OH230218   4.397   3.444   0.313 -0.4605 -0.0466  0.2842
10086TIP3    H130219   4.406   3.381   0.384 -0.5053 -0.5449 -0.1476
10086TIP3    H230220   4.383   3.391   0.234  0.8584  0.4470 -0.3090
10087TIP3   OH230221   2.895   6.935   4.094 -0.0275 -0.7091  0.1690
10087TIP3    H130222   2.876   6.968   4.006 -1.4458 -1.1298  0.3040
10087TIP3    H230223   2.957   6.863   4.079  1.0058  0.2586 -0.3333
10088TIP3   OH230224   2.719   5.016   0.801  0.2015 -0.4772 -0.1942
10088TIP3    H130225   2.738   4.933   0.757  1.9477 -0.3844  0.3104
10088TIP3    H230226   2.773   5.081   0.755 -1.3187  0.4670 -0.7441
10089TIP3   OH230227   5.115   5.004   4.423 -0.2373  0.1922  0.2621
10089TIP3    H130228   5.193   5.016   4.370 -0.2544  0.4874  0.3016
10089TIP3    H230229   5.050   4.969   4.362  0.3844 -1.5911  0.5810
10090TIP3   OH230230   0.208   2.390   5.145 -0.1502 -0.3523  0.2347
10090TIP3    H130231   0.283   2.428   5.100 -0.1637 -1.1724 -0.4974
10090TIP3    H230232   0.160   2.466   5.178  1.3553  0.1687  1.3418
10091TIP3   OH230233   0.523   1.440   1.381 -0.4104 -0.2827  0.0926
10091TIP3    H130234   0.577   1.406   1.453 -0.2735  1.9409  1.1469
10091TIP3    H230235   0.579   1.432   1.304  1.0885  0.9540  0.9753
10092TIP3   OH230236   1.227   5.278   0.401  0.0206  0.1903  0.0839
10092TIP3    H130237   1.301   5.230   0.439  0.4882 -1.5820 -2.7564
10092TIP3    H230238   1.267   5.343   0.344 -0.6302  0.3899 -0.1592
10093TIP3   OH230239   1.445   1.626   4.691 -0.2683  0.0330  0.1701
10093TIP3    H130240   1.441   1.635   4.596 -1.8462  2.9659  0.3803
10093TIP3    H230241   1.367   1.576   4.713  0.5037 -1.3237 -0.0826
10094TIP3   OH230242   0.715   0.813   5.958  0.2154  0.1497  0.4589
10094TIP3    H130243   0.694   0.899   5.922 -0.3575 -0.1840 -0.0047
10094TIP3    H230244   0.651   0.800   6.028 -1.1431 -0.8404 -0.9151
10095TIP3   OH230245   0.567   6.662   2.326  0.7027  0.1115 -0.2543
10095TIP3    H130246   0.506   6.684   2.255  1.0556  3.4337  0.3222
10095TIP3    H230247   0.534   6.710   2.402 -0.9061 -4.9296  2.7015
10096TIP3   OH230248   0.608   4.106   0.043 -0.3889  0.0662 -0.1935
10096TIP3    H130249   0.697   4.138   0.028 -0.5298  0.8916  0.5670
10096TIP3    H230250   0.582   4.064  -0.038  0.9474 -0.7918 -0.1924
10097TIP3   OH230251   4.296   4.886   5.699  0.0315  0.5994 -0.0075
10097TIP3    H130252   4.230   4.954   5.691  0.0318  0.5058 -0.8388
10097TIP3    H230253   4.283   4.830   5.623  1.4675  0.9243 -0.5176
10098TIP3   OH230254   3.332   1.498   2.087 -0.6503  0.1700 -0.0489
10098TIP3    H130255   3.291   1.418   2.121 -1.6411  0.7902  0.2680
10098TIP3    H230256   3.276   1.524   2.014 -0.6322  0.8478  0.1718
10099TIP3   OH230257   0.526   5.580   0.323  0.8564 -0.2586 -1.1614
10099TIP3    H130258   0.497   5.669   0.306  2.9769  0.5515 -0.9065
10099TIP3    H230259   0.472   5.525   0.265  0.1351  1.2736 -1.9891
10100TIP3   OH230260   7.628   3.797   5.722 -0.4982 -0.0644  0.3137
10100TIP3    H130261   7.576   3.722   5.753 -0.8049 -0.1014 -0.2863
10100TIP3    H230262   7.587   3.822   5.639 -0.6332  1.0071  0.6909
10101TIP3   OH230263   5.972   4.396   3.440 -0.2433 -0.5529  0.1955
10101TIP3    H130264   5.994   4.320   3.494 -1.0437 -0.3868  0.7732
10101TIP3    H230265   6.000   4.471   3.492 -1.9727 -0.3421  0.8859
10102TIP3   OH230266   5.635   0.089   3.231  0.5115 -0.1710  0.5817
10102TIP3    H130267   5.604   0.119   3.316 -1.0540  1.0270 -0.3692
10102TIP3    H230268   5.658   0.169   3.184  1.1013 -0.8058 -0.2375
10103TIP3   OH230269   1.721   0.518   5.887  0.0336  0.3974  0.1225
10103TIP3    H130270   1.635   0.480   5.869  0.2204  1.1459 -2.8276
10103TIP3    H230271   1.775   0.444   5.915 -0.4935 -0.9459 -2.2101
10104TIP3   OH230272   5.572   3.197   0.590  0.5582  0.8130  0.5276
10104TIP3    H130273   5.534   3.118   0.553 -0.0923  1.2166  0.3206
10104TIP3    H230274   5.604   3.170   0.676  2.1510 -0.1490 -0.3146
10105TIP3   OH230275   3.413   2.682   0.752  0.1350  0.1970 -0.3540
10105TIP3    H130276   3.376   2.756   0.703 -0.3315 -0.3718 -0.8802
10105TIP3    H230277   3.392   2.606   0.698  2.0687 -0.1613 -0.6700
10106TIP3   OH230278   1.366   1.613   4.046 -0.3685 -0.1100  0.0726
10106TIP3    H130279   1.385   1.558   3.969  0.1104  0.5158 -0.2654
10106TIP3    H230280   1.440   1.674   4.051 -0.3875 -0.1477  1.0432
10107TIP3   OH230281   3.026   4.956   4.035  1.0831  0.1071 -0.3276
10107TIP3    H130282   3.031   4.887   4.101  0.5899  0.4472  0.0778
10107TIP3    H230283   2.972   4.918   3.965  0.5897  0.1681  0.0131
10108TIP3   OH230284   0.047   1.893   2.451  0.0273  0.2050  1.3438
10108TIP3    H130285   0.072   1.902   2.543 -1.7474  0.5025  1.8277
10108TIP3    H230286   0.034   1.983   2.421  0.2772  0.0926  0.8972
10109TIP3   OH230287   0.321   1.561   4.062  0.5161 -0.3889  0.4037
10109TIP3    H130288   0.270   1.548   4.142  2.7697 -0.2728  1.9519
10109TIP3    H230289   0.279   1.634   4.018  0.3430  0.8539  2.5183
10110TIP3   OH230290   5.234   5.634   4.713  0.6348 -0.4361 -0.5244
10110TIP3    H130291   5.191   5.620   4.797  2.0119 -1.7120  0.0198
10110TIP3    H230292   5.227   5.550   4.668 -0.3737  0.3269 -1.8529
10111TIP3   OH230293   0.759   0.329   0.336  0.1516 -0.1802  0.0586
10111TIP3    H130294   0.756   0.278   0.417  0.4029 -0.7290 -0.2636
10111TIP3    H230295   0.677   0.377   0.334 -0.9870 -2.0327 -0.5421
10112TIP3   OH230296   3.459   6.231   3.444  0.4336  0.1423  0.5506
10112TIP3    H130297   3.550   6.230   3.415  0.0437  3.6483 -1.3697
10112TIP3    H230298   3.409   6.209   3.365 -0.4602 -1.3781  1.4908
10113TIP3   OH230299   1.479   1.426   6.143  0.2200 -0.0755 -0.2642
10113TIP3    H130300   1.394   1.394   6.111  0.4058 -0.6636 -0.1785
10113TIP3    H230301   1.508   1.487   6.075 -0.0315 -0.2661 -0.5472
10114TIP3   OH230302   1.046   2.130   5.677 -0.2964  0.0071  0.5051
10114TIP3    H130303   0.991   2.108   5.602 -0.7283  0.0314  0.8100
10114TIP3    H230304   1.012   2.214   5.707  0.8915  0.7662 -0.2279
10115TIP3   OH230305   6.147   3.714   5.117 -0.5608  0.0502  0.0246
10115TIP3    H130306   6.099   3.633   5.097  0.6259 -0.6096 -0.2422
10115TIP3    H230307   6.238   3.693   5.098 -0.1782  1.3349  0.3545
10116TIP3   OH230308   5.702   4.450   1.324 -0.0836 -0.3684 -0.3793
10116TIP3    H130309   5.732   4.532   1.363 -0.1535 -0.2064 -0.6610
10116TIP3    H230310   5.664   4.401   1.396  0.5192 -0.4177 -0.0910
10117TIP3   OH230311   2.802   1.334   5.663  0.0837 -0.5556 -0.2590
10117TIP3    H130312   2.758   1.285   5.593  0.5117 -1.4021  0.0545
10117TIP3    H230313   2.832   1.414   5.620  0.8738 -1.3352 -1.2012
10118TIP3   OH230314   2.406   6.821   3.734  0.2055  0.2506 -0.2480
10118TIP3    H130315   2.490   6.852   3.702  0.4211  1.1957  1.1412
10118TIP3    H230316   2.428   6.744   3.786  0.1345  0.1242 -0.4049
10119TIP3   OH230317   2.754   1.236   1.969  0.1364  0.6798 -0.2503
10119TIP3    H130318   2.700   1.298   1.920 -1.2566 -0.3730 -0.0791
10119TIP3    H230319   2.740   1.258   2.061  0.4907  0.7856 -0.2177
10120TIP3   OH230320   3.439   2.283   1.092  0.2763 -0.8995  0.3505
10120TIP3    H130321   3.486   2.365   1.077  0.0186 -1.1196 -2.0509
10120TIP3    H230322   3.507   2.216   1.086  0.0282 -1.0645 -1.1270
10121TIP3   OH230323   0.341   2.869   4.927  0.3811  0.3190  0.3365
10121TIP3    H130324   0.389   2.811   4.868  0.2250  0.5829 -0.0621
10121TIP3    H230325   0.366   2.842   5.015  1.8652  0.9574  0.1376
10122TIP3   OH230326   0.684   3.730   1.783  0.1914  0.1907 -0.5543
10122TIP3    H130327   0.668   3.739   1.877  1.3357 -0.8419 -0.2277
10122TIP3    H230328   0.710   3.817   1.754  2.8196 -0.0552  0.7436
10123TIP3   OH230329   5.358   2.864   2.215  0.8646 -0.2439  0.6018
10123TIP3    H130330   5.425   2.927   2.189  0.5875 -0.1155  0.1964
10123TIP3    H230331   5.286   2.918   2.249  0.0243 -0.2481 -1.1019
10124TIP3   OH230332   1.938   5.495   4.080 -0.2856 -0.6162  0.4585
10124TIP3    H130333   1.940   5.411   4.126 -3.0432 -2.1766 -1.9307
10124TIP3    H230334   1.959   5.474   3.989  1.9806  1.8620  0.2942
10125TIP3   OH230335   4.950   3.772   4.184  0.3793 -0.4064 -0.0028
10125TIP3    H130336   4.990   3.691   4.154  0.6635 -0.3558  0.2373
10125TIP3    H230337   4.947   3.764   4.280  1.5086  0.3640  0.1198
10126TIP3   OH230338   0.603   3.923   0.498 -0.3114 -0.3707  0.5035
10126TIP3    H130339   0.616   3.982   0.423 -0.9990  0.2057  0.8350
10126TIP3    H230340   0.650   3.843   0.473 -0.4678 -0.1598 -0.5118
10127TIP3   OH230341   7.269   0.409   1.461 -0.1379  0.2539  0.0934
10127TIP3    H130342   7.318   0.327   1.468  0.4345  0.5203 -0.6596
10127TIP3    H230343   7.333   0.477   1.484 -0.4821  0.5244  0.2581
10128TIP3   OH230344   5.447   6.130   3.921  0.0246 -0.3650 -0.3653
10128TIP3    H130345   5.418   6.071   3.991 -3.0403 -0.0363 -1.2034
10128TIP3    H230346   5.483   6.206   3.968 -3.5253  0.6454  1.1300
10129TIP3   OH230347   2.541   1.340   2.643 -0.2959  0.1086 -0.6904
10129TIP3    H130348   2.504   1.256   2.617 -0.3282 -0.2651  0.5087
10129TIP3    H230349   2.635   1.330   2.630 -0.2084 -0.4454  0.3387
10130TIP3   OH230350   6.042   3.764   3.675 -0.2856 -0.1305 -0.4413
10130TIP3    H130351   6.068   3.838   3.620  1.3896 -2.0037 -2.3478
10130TIP3    H230352   6.109   3.761   3.744 -0.6937  0.4504 -0.0095
10131TIP3   OH230353   6.690   3.495   2.758  0.1128 -0.4228  0.4698
10131TIP3    H130354   6.615   3.509   2.816  0.9350 -2.2694  2.0857
10131TIP3    H230355   6.659   3.430   2.695 -0.3590  0.6106 -0.4065
10132TIP3   OH230356   7.203   6.756   2.970 -0.3127 -0.1448 -0.0786
10132TIP3    H130357   7.111   6.770   2.993 -0.4427  1.4169 -1.3472
10132TIP3    H230358   7.240   6.710   3.045 -1.7766  0.5273  1.1088
10133TIP3   OH230359   5.611   0.478   5.722  0.0128 -0.7390 -0.3134
10133TIP3    H130360   5.647   0.549   5.667 -0.9033 -0.8576 -1.0934
10133TIP3    H230361   5.519   0.473   5.697 -0.4548 -0.7642  1.3047
10134TIP3   OH230362   1.704   3.407   3.955  0.0005  0.1341 -0.6858
10134TIP3    H130363   1.764   3.345   3.913  1.0114 -0.0416  0.9162
10134TIP3    H230364   1.620   3.392   3.913  0.5157 -1.4249 -1.2257
10135TIP3   OH230365   0.723   1.215   5.234  0.3968  0.5641 -0.1085
10135TIP3    H130366   0.742   1.147   5.169 -2.0037  0.3014 -0.6020
10135TIP3    H230367   0.707   1.166   5.315  0.1592  0.6706 -0.0932
10136TIP3   OH230368   3.808   5.060   2.369  0.2241  0.0358  0.1023
10136TIP3    H130369   3.718   5.038   2.346 -0.4460  3.4852 -1.2596
10136TIP3    H230370   3.800   5.124   2.439  1.6825 -0.1576  0.4787
10137TIP3   OH230371   3.530   1.720   0.989  0.2058 -0.2953 -0.3845
10137TIP3    H130372   3.549   1.759   1.075 -1.3023 -1.5245  0.5755
10137TIP3    H230373   3.596   1.651   0.979  2.1560  1.6431 -1.5636
10138TIP3   OH230374   5.164   3.439   2.737 -0.5032  0.1998  0.5540
10138TIP3    H130375   5.248   3.474   2.769 -0.0227  0.0400 -0.4815
10138TIP3    H230376   5.164   3.347   2.763 -0.1996  0.1164  0.2652
10139TIP3   OH230377   6.931   0.691   3.466 -0.2594  0.2975  0.0223
10139TIP3    H130378   6.918   0.732   3.380 -0.6324 -0.7224 -0.4135
10139TIP3    H230379   6.971   0.760   3.518  0.4628  0.7788 -1.1142
10140TIP3   OH230380   0.355   3.517   5.803 -0.3592 -0.7294  0.4318
10140TIP3    H130381   0.374   3.435   5.849 -0.5737 -0.7141  0.5458
10140TIP3    H230382   0.327   3.577   5.871 -0.5114 -0.6553  0.3035
10141TIP3   OH230383   5.262   5.818   5.089  0.9864  0.3953  0.4526
10141TIP3    H130384   5.177   5.779   5.109  0.5910  0.7945 -0.3608
10141TIP3    H230385   5.257   5.906   5.126  1.6591 -0.1200  1.7899
10142TIP3   OH230386   4.408   2.576   1.271  0.3337  0.3980 -0.1291
10142TIP3    H130387   4.330   2.575   1.327 -0.2403  1.1190 -0.8905
10142TIP3    H230388   4.451   2.492   1.289  0.7023  0.9997  2.1144
10143TIP3   OH230389   1.788   6.946   0.752 -0.1252 -0.4516 -0.0730
10143TIP3    H130390   1.877   6.919   0.729 -0.2268 -0.7566 -0.1207
10143TIP3    H230391   1.760   7.003   0.680  0.0271 -0.3632 -0.0628
10144TIP3   OH230392   4.519   5.128   0.086  0.0730  0.1110 -0.1273
10144TIP3    H130393   4.534   5.189   0.014  0.5997 -1.4680 -1.4148
10144TIP3    H230394   4.425   5.112   0.085  0.3448 -1.6914 -2.0514
10145TIP3   OH230395   3.905   3.820   0.489  0.4357  0.2488 -0.3429
10145TIP3    H130396   3.986   3.851   0.448  0.2360  2.5531  0.8505
10145TIP3    H230397   3.849   3.897   0.493 -1.5299 -1.1218 -0.4097
10146TIP3   OH230398  -0.003   2.161   3.904 -0.5243 -0.5634  0.5750
10146TIP3    H130399   0.058   2.090   3.884 -0.9183 -0.6438 -0.4168
10146TIP3    H230400   0.035   2.205   3.979  0.5379 -0.8770  0.2342
10147TIP3   OH230401   0.498   1.985   4.961  0.9681 -0.2865  0.7478
10147TIP3    H130402   0.408   1.977   4.928  1.0764  0.0532  0.3640
10147TIP3    H230403   0.529   1.894   4.967  0.4684 -0.4297  1.2527
10148TIP3   OH230404   4.069   2.544   4.565  0.0167  0.4129  0.2737
10148TIP3    H130405   4.135   2.613   4.561 -1.0801  1.5265  0.5566
10148TIP3    H230406   4.018   2.554   4.484 -0.8237  0.6639  0.8173
10149TIP3   OH230407   0.700   4.345   4.471  0.1090 -0.0580 -0.5815
10149TIP3    H130408   0.739   4.378   4.551 -0.2036 -1.3292  0.1303
10149TIP3    H230409   0.744   4.393   4.401  1.6088 -0.1365  0.2704
10150TIP3   OH230410   1.581   1.575   2.469  0.2872 -0.6851  0.3734
10150TIP3    H130411   1.595   1.568   2.375  2.0287 -0.2036  0.5609
10150TIP3    H230412   1.644   1.514   2.508  0.2015 -0.2477  1.2392
10151TIP3   OH230413   5.916   3.476   1.665  0.1663  0.8895  0.4263
10151TIP3    H130414   5.909   3.404   1.603  0.8831  2.9301 -2.2115
10151TIP3    H230415   5.826   3.508   1.676  0.2942  2.1366 -1.7212
10152TIP3   OH230416   5.195   2.947   0.931  0.0405 -0.4873  0.0808
10152TIP3    H130417   5.276   2.902   0.955 -0.2201  0.1348  2.3982
10152TIP3    H230418   5.201   2.960   0.836  2.6791 -0.3922  0.2022
10153TIP3   OH230419   2.477   3.898   5.346  0.4277 -0.5744 -0.4172
10153TIP3    H130420   2.422   3.825   5.373 -0.0177  0.0636  0.4459
10153TIP3    H230421   2.561   3.858   5.324 -0.0106 -1.4151 -0.5950
10154TIP3   OH230422   0.582   3.796   2.350 -0.2226 -0.3244 -0.2698
10154TIP3    H130423   0.619   3.752   2.427 -1.0452 -1.4318 -0.4872
10154TIP3    H230424   0.488   3.801   2.368 -0.1732  1.2919 -0.3000
10155TIP3   OH230425   3.342   4.543   6.019  0.2222 -0.1432  0.1519
10155TIP3    H130426   3.299   4.567   5.937 -0.7843 -3.0855 -0.3065
10155TIP3    H230427   3.274   4.496   6.068  0.7128  1.7602  2.8688
10156TIP3   OH230428   4.679   4.355   5.741  0.1469 -0.1513  0.3527
10156TIP3    H130429   4.737   4.285   5.772 -0.2159 -0.8975 -0.5664
10156TIP3    H230430   4.595   4.310   5.726 -0.5666  0.8291  1.3060
10157TIP3   OH230431   4.297   2.554   3.218 -0.0572  0.1877  0.3584
10157TIP3    H130432   4.364   2.491   3.243  0.3005  0.1641 -0.6241
10157TIP3    H230433   4.234   2.552   3.290  0.9761  0.1987  1.2809
10158TIP3   OH230434   0.898   3.800   1.566 -0.1408 -0.5729 -0.0045
10158TIP3    H130435   0.966   3.817   1.631  1.4618  0.1208 -1.7442
10158TIP3    H230436   0.831   3.867   1.583 -1.0146 -1.9488  2.4213
10159TIP3   OH230437   4.552   6.584   1.918 -0.7306  0.5849 -0.4383
10159TIP3    H130438   4.603   6.543   1.988 -1.2505  1.2931  0.3749
10159TIP3    H230439   4.487   6.637   1.964 -1.4878  0.5692 -1.4614
10160TIP3   OH230440   2.808   0.018   2.165 -0.2003 -0.2603 -0.2089
10160TIP3    H130441   2.817   0.101   2.118 -1.8924 -0.6544 -1.3188
10160TIP3    H230442   2.898  -0.007   2.187  0.4024  1.4795 -0.5047
10161TIP3   OH230443   4.814   0.479   5.434  0.7154  0.2720  0.3395
10161TIP3    H130444   4.846   0.393   5.459  0.5793  0.1906  0.2333
10161TIP3    H230445   4.732   0.462   5.388 -0.6134  0.6049  2.4357
10162TIP3   OH230446   3.707   4.658   2.029  0.0007  0.7019  0.3142
10162TIP3    H130447   3.629   4.633   2.079  0.5403 -0.4062  0.6374
10162TIP3    H230448   3.720   4.586   1.968  2.0947 -0.3208  1.8379
10163TIP3   OH230449   4.234   5.988   1.124 -0.3991  0.0217 -0.3046
10163TIP3    H130450   4.308   5.927   1.127 -2.6500 -2.9459 -0.3398
10163TIP3    H230451   4.259   6.058   1.184  1.9617 -1.4576  0.5984
10164TIP3   OH230452   0.989   3.316   2.693  0.0360  0.3483  0.4544
10164TIP3    H130453   0.927   3.245   2.708 -0.4687  0.8672  0.8821
10164TIP3    H230454   0.935   3.385   2.653  0.6995  0.1648 -0.8079
10165TIP3   OH230455   1.463   2.914   6.056  0.5030  0.0743  0.0053
10165TIP3    H130456   1.443   2.825   6.086  2.7328 -0.1403  0.9734
10165TIP3    H230457   1.403   2.969   6.106 -0.4032 -0.7969 -0.0675
10166TIP3   OH230458   1.220   4.291   0.292 -0.4384 -0.6258  0.2457
10166TIP3    H130459   1.265   4.272   0.374  1.9621  0.5057 -0.7018
10166TIP3    H230460   1.166   4.214   0.276  2.0235 -2.6352  0.9618
10167TIP3   OH230461   3.190   6.729   2.676  0.5581  0.1395 -0.2423
10167TIP3    H130462   3.156   6.656   2.728 -1.1146 -0.3692 -1.9064
10167TIP3    H230463   3.285   6.717   2.677  0.3120 -2.9142 -1.5262
10168TIP3   OH230464   6.332   5.166   5.626 -0.1713  0.7000  0.1824
10168TIP3    H130465   6.262   5.105   5.651 -1.0342  2.2596  1.8534
10168TIP3    H230466   6.364   5.201   5.709  1.9753  0.7612 -0.6078
10169TIP3   OH230467   4.518   5.935   0.375 -0.3537  0.2314  0.1280
10169TIP3    H130468   4.446   5.975   0.423 -2.3361 -0.6453 -1.9502
10169TIP3    H230469   4.482   5.853   0.342  0.9606  0.6024 -2.5100
10170TIP3   OH230470   0.911   6.097   4.951 -1.0099  0.2381  0.1670
10170TIP3    H130471   0.915   6.192   4.949  2.4492  0.2045  0.6285
10170TIP3    H230472   0.906   6.071   4.859 -1.3372  0.8223  0.0147
10171TIP3   OH230473   5.999   3.573   2.329  0.0547  0.3575  0.4868
10171TIP3    H130474   6.016   3.494   2.278 -0.0242  0.1938  0.7075
10171TIP3    H230475   6.058   3.566   2.404  0.6325  0.9151  0.0933
10172TIP3   OH230476   5.840   1.204   4.343  0.7923  0.4864 -0.4068
10172TIP3    H130477   5.812   1.114   4.355  2.1351 -0.2545 -2.4398
10172TIP3    H230478   5.785   1.237   4.272  1.0788  0.9170 -0.4318
10173TIP3   OH230479   2.367   1.682   5.203 -0.3050  0.3231  0.0843
10173TIP3    H130480   2.313   1.715   5.131  1.8298  0.7727 -1.4022
10173TIP3    H230481   2.380   1.590   5.184  1.1385  0.6693 -0.7552
10174TIP3   OH230482   4.768   3.102   0.018  0.4375  0.6152 -0.0603
10174TIP3    H130483   4.763   3.122   0.112 -1.1659  1.8498 -0.3597
10174TIP3    H230484   4.837   3.036   0.011 -1.2100 -1.5585  2.3574
10175TIP3   OH230485   6.150   6.706   3.136  0.0804 -0.2843 -0.3882
10175TIP3    H130486   6.181   6.720   3.225 -1.6633 -0.7203  0.3329
10175TIP3    H230487   6.107   6.788   3.113  3.0198  0.9583 -2.0201
10176TIP3   OH230488   4.879   5.466   3.271  0.0472 -0.1051 -0.4437
10176TIP3    H130489   4.963   5.481   3.316 -0.9745 -0.1969  1.6128
10176TIP3    H230490   4.817   5.520   3.319 -1.1696 -0.4209 -1.6326
10177TIP3   OH230491   1.758   4.799   0.544 -0.1527 -0.2039  0.3719
10177TIP3    H130492   1.753   4.705   0.526  0.9583 -0.2869  0.4042
10177TIP3    H230493   1.727   4.840   0.464 -2.2106 -0.5810  0.9244
10178TIP3   OH230494   6.591   2.764   1.438  0.0749 -0.6192 -0.4018
10178TIP3    H130495   6.605   2.826   1.509  0.3080 -0.9561 -0.1506
10178TIP3    H230496   6.507   2.791   1.399  0.8863  0.7842 -1.2726
10179TIP3   OH230497   3.742   2.679   6.141  1.3260  0.0345 -0.1581
10179TIP3    H130498   3.725   2.586   6.153 -1.6544  0.4391 -0.3804
10179TIP3    H230499   3.791   2.684   6.059  3.0620 -1.3971  0.7401
10180TIP3   OH230500   4.214   0.350   0.192  0.1968 -0.0816 -0.4681
10180TIP3    H130501   4.265   0.336   0.113  3.1402 -1.1426  1.4483
10180TIP3    H230502   4.278   0.378   0.257 -1.7953 -0.7207  1.9259
10181TIP3   OH230503   0.674   1.220   4.572  0.1459 -0.6262  0.0535
10181TIP3    H130504   0.588   1.222   4.614 -1.0039 -1.9843 -2.0619
10181TIP3    H230505   0.688   1.311   4.544 -1.0927 -0.5758 -0.4831
10182TIP3   OH230506   0.790   5.988   4.393  0.8685  0.4045  0.1044
10182TIP3    H130507   0.769   6.081   4.405 -1.0270 -0.0303  0.4488
10182TIP3    H230508   0.754   5.945   4.470 -1.6662 -1.0572 -1.7181
10183TIP3   OH230509   0.766   0.819   1.154  0.2570  0.1439 -0.0201
10183TIP3    H130510   0.822   0.897   1.159 -0.4231  0.6752 -0.4929
10183TIP3    H230511   0.802   0.768   1.081  0.1719  0.4486 -0.2774
10184TIP3   OH230512   0.888   4.957   4.094  0.3702 -0.2963  0.4065
10184TIP3    H130513   0.971   4.943   4.138  0.2529  1.6707  1.3593
10184TIP3    H230514   0.839   4.876   4.110  2.8086 -2.4683 -2.1005
10185TIP3   OH230515   2.437   5.657   6.070 -0.4129 -0.6287  0.2021
10185TIP3    H130516   2.406   5.577   6.113 -1.1271 -0.8790 -0.7606
10185TIP3    H230517   2.365   5.720   6.080 -0.1210 -0.3164  0.3718
10186TIP3   OH230518   3.613   0.827   3.917 -0.1227  0.2530  0.4413
10186TIP3    H130519   3.536   0.848   3.864  1.7817  0.1228 -2.5635
10186TIP3    H230520   3.645   0.912   3.947 -0.4256  0.4449  0.2330
10187TIP3   OH230521   6.031   2.910   5.727  0.1199  0.2603 -0.0597
10187TIP3    H130522   5.980   2.885   5.804  2.5385 -0.5761  1.3563
10187TIP3    H230523   6.082   2.986   5.755  1.5367 -0.4641 -0.5682
10188TIP3   OH230524   0.378   1.132   5.878  0.2661 -0.1458 -0.0080
10188TIP3    H130525   0.323   1.113   5.954  0.2055  0.6737  0.1661
10188TIP3    H230526   0.317   1.139   5.805  0.3770 -1.4794 -0.2543
10189TIP3   OH230527   4.389   6.308   0.402 -0.2143  0.2606  0.1229
10189TIP3    H130528   4.319   6.243   0.405  1.2238 -1.3603 -0.0543
10189TIP3    H230529   4.431   6.303   0.488 -0.2974  1.2405  0.2380
10190TIP3   OH230530   3.559   0.536   0.553 -0.5616  0.9598 -0.4619
10190TIP3    H130531   3.535   0.624   0.524  0.9226  1.0290 -1.5539
10190TIP3    H230532   3.623   0.550   0.622  0.5635  0.7567 -1.4372
10191TIP3   OH230533   3.415   1.801   2.131 -0.2146  0.0970  0.6195
10191TIP3    H130534   3.415   1.852   2.050  1.4076  1.0212  1.1539
10191TIP3    H230535   3.426   1.710   2.102  1.7930  0.5480 -0.1677
10192TIP3   OH230536   7.506   2.762   5.777  0.2421 -0.1791  0.9802
10192TIP3    H130537   7.528   2.781   5.686 -0.4708  0.3233  0.9065
10192TIP3    H230538   7.517   2.667   5.784 -1.1338 -0.4643 -0.0557
10193TIP3   OH230539   3.933   4.882   5.428 -0.5957  0.2008 -0.1109
10193TIP3    H130540   3.889   4.877   5.343 -1.1193  0.1878  0.1538
10193TIP3    H230541   3.863   4.905   5.489  0.1671  2.5606 -0.0223
10194TIP3   OH230542   3.428   2.522   1.372 -0.9038  0.2025  0.1035
10194TIP3    H130543   3.471   2.440   1.395 -0.9280 -0.2193 -1.2639
10194TIP3    H230544   3.345   2.521   1.420  0.1371  0.5719  1.9940
10195TIP3   OH230545   2.101   4.151   2.341  0.5572  0.2962 -0.1437
10195TIP3    H130546   2.130   4.073   2.390  0.8637  0.4465 -0.0831
10195TIP3    H230547   2.104   4.222   2.406 -2.7403 -0.1638  0.7200
10196TIP3   OH230548   2.336   1.733   0.779 -0.0673  0.7627  0.1263
10196TIP3    H130549   2.305   1.691   0.860 -0.2349 -0.3871 -0.5101
10196TIP3    H230550   2.425   1.762   0.800 -0.5940  1.7133  1.1437
10197TIP3   OH230551   3.948   5.590   0.179 -0.1403  0.3556  0.1524
10197TIP3    H130552   3.885   5.525   0.150 -0.3564  0.3979  0.5263
10197TIP3    H230553   3.940   5.592   0.275  1.0243 -0.2617  0.2875
10198TIP3   OH230554   6.505   6.260   3.999  0.0668 -0.0913  0.0375
10198TIP3    H130555   6.460   6.249   3.915  0.2724 -0.9294  0.0303
10198TIP3    H230556   6.482   6.348   4.027 -0.5875 -0.0669 -0.5541
10199TIP3   OH230557   4.374   0.392   4.792 -0.3810 -0.4598 -0.2081
10199TIP3    H130558   4.384   0.329   4.863 -0.1235  0.0170  0.1903
10199TIP3    H230559   4.450   0.378   4.736  0.5549  0.5504  0.7388
10200TIP3   OH230560   5.062   3.072   1.440 -0.5748  0.4647 -0.3506
10200TIP3    H130561   4.990   3.058   1.378 -0.5425 -0.8938 -0.1113
10200TIP3    H230562   5.135   3.022   1.404  0.3535  2.0005 -0.7017
10201TIP3   OH230563   6.948   1.731   1.052 -0.0360 -0.4897  0.0344
10201TIP3    H130564   7.001   1.732   1.131  0.4851 -0.6082 -0.3064
10201TIP3    H230565   6.931   1.638   1.036 -0.7271 -0.4265  0.3909
10202TIP3   OH230566   4.480   2.393   4.692 -0.1452 -0.0642 -0.1557
10202TIP3    H130567   4.554   2.354   4.645  0.1986  1.2317 -0.7409
10202TIP3    H230568   4.468   2.479   4.651  0.2738  1.2303  2.1901
10203TIP3   OH230569   2.870   2.887   5.120 -0.5240  0.1688 -0.4884
10203TIP3    H130570   2.949   2.909   5.168  0.7375 -1.3256 -1.7915
10203TIP3    H230571   2.819   2.833   5.180 -0.0774  0.2548 -0.0256
10204TIP3   OH230572   4.671   3.945   2.623 -0.0444 -0.2709 -0.1536
10204TIP3    H130573   4.767   3.947   2.614 -0.1568 -0.5388 -1.6010
10204TIP3    H230574   4.644   4.035   2.610  0.0388 -0.0914  0.8307
10205TIP3   OH230575   1.777   2.027   0.178 -0.4406 -0.0425  0.4286
10205TIP3    H130576   1.786   1.957   0.114 -3.0899 -1.5812  1.5642
10205TIP3    H230577   1.807   1.987   0.260 -0.2473  0.7886  0.7687
10206TIP3   OH230578   7.102   6.806   5.607  1.0819  0.3559 -0.5630
10206TIP3    H130579   7.014   6.845   5.601  0.8557 -0.1175 -0.4139
10206TIP3    H230580   7.161   6.881   5.607  0.8205  0.6489 -2.7378
10207TIP3   OH230581   2.035   0.858   4.980  0.1594 -0.2530 -0.0018
10207TIP3    H130582   2.035   0.817   5.067 -1.0786 -0.4117 -0.0595
10207TIP3    H230583   1.990   0.795   4.924 -0.7604  0.6745 -0.3347
10208TIP3   OH230584   5.108   4.052   4.853  0.6367  0.1043  0.7646
10208TIP3    H130585   5.103   3.977   4.913 -1.1318 -0.1590  0.3349
10208TIP3    H230586   5.062   4.023   4.775  1.1950  1.1506  0.0314
10209TIP3   OH230587   5.662   1.702   3.464  0.5720 -0.4750 -0.0478
10209TIP3    H130588   5.634   1.787   3.498 -0.3089 -0.4820 -0.7193
10209TIP3    H230589   5.597   1.680   3.398  0.1514 -2.1914  0.8740
10210TIP3   OH230590   7.282   3.821   4.069  0.5637  0.1772  0.4152
10210TIP3    H130591   7.226   3.895   4.046  2.3788  1.1456 -1.2637
10210TIP3    H230592   7.337   3.855   4.140  0.3412 -0.0945  0.7167
10211TIP3   OH230593   1.038   4.138   0.653 -0.2585  0.3805  0.0417
10211TIP3    H130594   1.057   4.045   0.665 -0.8787 -0.1186 -2.4562
10211TIP3    H230595   1.117   4.173   0.612 -0.7573  0.5341 -0.7961
10212TIP3   OH230596   2.909   5.056   5.237  0.4357 -0.1673 -0.2381
10212TIP3    H130597   2.882   4.964   5.245  1.5413 -0.3823  2.2067
10212TIP3    H230598   2.990   5.053   5.186  0.3243 -0.5254 -0.3959
10213TIP3   OH230599   6.181   2.092   1.961  0.2773  0.3857 -0.0772
10213TIP3    H130600   6.235   2.074   2.037 -0.2858 -0.0191  0.2359
10213TIP3    H230601   6.156   2.184   1.970  0.7725  0.5293 -0.1409
10214TIP3   OH230602   6.458   5.019   3.879 -0.5521 -0.4739  0.1973
10214TIP3    H130603   6.520   5.065   3.823  0.2308 -3.3047 -1.4084
10214TIP3    H230604   6.492   5.033   3.968 -0.8914  2.6790 -0.0412
10215TIP3   OH230605   7.484   1.317   3.929  0.1277 -0.4646  0.2695
10215TIP3    H130606   7.531   1.382   3.877  0.9199 -0.9321  0.3904
10215TIP3    H230607   7.503   1.340   4.020 -1.0220  0.1769  0.3791
10216TIP3   OH230608   4.376   3.361   3.180 -0.7307  0.3902 -0.9002
10216TIP3    H130609   4.291   3.323   3.157 -1.4818  1.2258  0.4054
10216TIP3    H230610   4.428   3.286   3.210 -1.5983  0.1233 -0.0426
10217TIP3   OH230611   7.193   2.875   1.889 -0.2281  0.3957  0.1634
10217TIP3    H130612   7.227   2.938   1.952  1.1950  0.1575 -0.3449
10217TIP3    H230613   7.215   2.911   1.804 -1.1283  0.1507 -0.1874
10218TIP3   OH230614   3.065   1.697   5.350  0.4558  0.1967 -0.0117
10218TIP3    H130615   3.109   1.733   5.427  0.8928  0.6740 -0.4739
10218TIP3    H230616   3.124   1.629   5.318  0.8045  0.7443 -0.5528
10219TIP3   OH230617   2.469   5.154   2.887  0.3532  0.3024 -0.9820
10219TIP3    H130618   2.528   5.083   2.913  0.1372 -0.0874 -1.5317
10219TIP3    H230619   2.381   5.119   2.902  0.2467  0.8747 -0.1785
10220TIP3   OH230620   5.428   4.987   0.419 -0.1078  0.2762 -0.1319
10220TIP3    H130621   5.501   5.000   0.479  1.1408 -1.5678 -1.1547
10220TIP3    H230622   5.449   5.040   0.343 -0.5911  0.8965  0.1608
10221TIP3   OH230623   1.652   4.637   4.752 -0.4312  0.0423 -0.6233
10221TIP3    H130624   1.559   4.622   4.771 -0.0877 -1.2155  0.1473
10221TIP3    H230625   1.683   4.554   4.716  0.3196  0.5668 -1.2127
10222TIP3   OH230626   0.886   2.827   2.558  0.7448  0.3888  0.0820
10222TIP3    H130627   0.973   2.793   2.535  0.7661  0.5509 -0.0803
10222TIP3    H230628   0.895   2.922   2.550  0.4867  0.3933 -0.1630
10223TIP3   OH230629   2.528   3.809   2.564 -0.2931 -0.2839  0.0151
10223TIP3    H130630   2.530   3.855   2.480 -0.4282  0.6011  0.4876
10223TIP3    H230631   2.486   3.725   2.543 -2.2105  0.7235 -0.4489
10224TIP3   OH230632   4.199   2.985   4.136  0.2885 -0.0475  0.3478
10224TIP3    H130633   4.116   3.028   4.119  0.0821 -0.7830 -0.6060
10224TIP3    H230634   4.245   3.044   4.196 -0.5101  0.8369  0.1152
10225TIP3   OH230635   6.723   5.249   4.291  0.1129  0.1853  0.3088
10225TIP3    H130636   6.639   5.204   4.298 -0.8938  1.9955  0.5110
10225TIP3    H230637   6.730   5.301   4.372  0.0350  2.2380 -0.9245
10226TIP3   OH230638   1.949   6.254   2.343 -0.5447 -0.7437  0.4010
10226TIP3    H130639   1.936   6.339   2.301  0.9250 -0.1364  1.1236
10226TIP3    H230640   1.990   6.200   2.276 -1.0498 -0.7484  0.0907
10227TIP3   OH230641   6.858   7.001   5.634  0.0094 -0.3423 -0.9123
10227TIP3    H130642   6.829   6.941   5.702  3.0980 -0.1467  0.7542
10227TIP3    H230643   6.822   7.086   5.659 -0.2890 -0.5834 -0.5225
10228TIP3   OH230644   7.048   0.202   5.587 -0.5305  0.1910 -0.0879
10228TIP3    H130645   7.046   0.283   5.537  0.9775 -0.0438 -0.5699
10228TIP3    H230646   7.001   0.138   5.532  0.4832  0.1181 -0.9058
10229TIP3   OH230647   4.809   2.867   4.960  0.1205  0.2361  0.4891
10229TIP3    H130648   4.814   2.888   5.053  0.8397  0.7732  0.3378
10229TIP3    H230649   4.757   2.786   4.956 -1.3011  1.0730  1.2167
10230TIP3   OH230650   1.308   3.215   3.416  0.3814  0.1347 -0.1103
10230TIP3    H130651   1.340   3.159   3.487 -0.3858 -0.4135 -0.1873
10230TIP3    H230652   1.276   3.294   3.459  2.8680  1.2385 -0.1096
10231TIP3   OH230653   0.812   1.862   4.283 -0.2801 -0.0218 -0.6603
10231TIP3    H130654   0.854   1.777   4.275 -0.1051 -0.2589  1.9541
10231TIP3    H230655   0.840   1.895   4.369  0.4200  3.1224 -1.9592
10232TIP3   OH230656   1.594   1.511   5.198 -0.4142 -0.2582  0.0748
10232TIP3    H130657   1.643   1.569   5.139  2.1771 -0.8709  1.4791
10232TIP3    H230658   1.542   1.571   5.252 -0.2575  0.5273 -0.6278
10233TIP3   OH230659   0.977   2.330   1.010  0.2863  0.0377  0.2597
10233TIP3    H130660   0.969   2.408   1.065 -0.0932 -1.0989  1.8934
10233TIP3    H230661   0.909   2.340   0.943  1.3014  1.8425 -0.5554
10234TIP3   OH230662   6.621   0.858   0.709  0.4441 -0.1730 -0.5933
10234TIP3    H130663   6.655   0.898   0.789 -0.6546 -0.0613 -0.1648
10234TIP3    H230664   6.687   0.878   0.643  1.1617  0.1070  0.1785
10235TIP3   OH230665   6.884   2.006   5.399  0.5287  0.2295 -0.1178
10235TIP3    H130666   6.807   2.063   5.394 -0.0022 -0.5025 -0.4430
10235TIP3    H230667   6.938   2.047   5.467  0.2175  1.1795 -0.4197
10236TIP3   OH230668   7.543   2.940   2.645  0.4725  0.6735 -0.8801
10236TIP3    H130669   7.606   3.010   2.628 -0.5324  2.9586  3.3015
10236TIP3    H230670   7.458   2.978   2.623 -0.0808  0.9334  1.4061
10237TIP3   OH230671   5.026   5.135   5.826  0.1018  0.6040  0.1016
10237TIP3    H130672   5.058   5.150   5.915  0.3093 -0.3619  0.2020
10237TIP3    H230673   4.932   5.124   5.836  0.2535 -0.6042  0.3707
10238TIP3   OH230674   2.042   3.022   4.377 -0.6341 -0.1918  0.3827
10238TIP3    H130675   2.071   3.000   4.466 -1.4876  2.0059  1.2762
10238TIP3    H230676   1.991   2.946   4.349  0.7419 -1.4774  1.2197
10239TIP3   OH230677   1.640   2.408   1.123 -0.8774  0.2201 -0.0289
10239TIP3    H130678   1.623   2.378   1.034  0.3180  0.0250 -0.2132
10239TIP3    H230679   1.688   2.490   1.112  1.2860 -0.9284  0.3587
10240TIP3   OH230680   5.304   3.647   1.839  0.0394 -0.0825  0.0284
10240TIP3    H130681   5.247   3.689   1.904 -0.1042 -0.3796  0.0937
10240TIP3    H230682   5.393   3.668   1.869  0.0084 -1.3378  1.0878
10241TIP3   OH230683   6.947   1.523   3.833  0.0815 -0.1745  0.0292
10241TIP3    H130684   7.024   1.472   3.807  0.3320 -0.0337  0.4937
10241TIP3    H230685   6.983   1.605   3.866 -0.2918  0.0488 -0.1156
10242TIP3   OH230686   1.095   3.173   1.725 -0.2507  0.1956 -0.1194
10242TIP3    H130687   1.073   3.177   1.632  1.0505  1.0862 -0.4327
10242TIP3    H230688   1.111   3.081   1.743 -0.7720 -0.0105 -0.7212
10243TIP3   OH230689   5.144   3.732   2.714 -0.7708  0.1600 -0.4671
10243TIP3    H130690   5.155   3.719   2.808 -0.7891  0.7660 -0.3760
10243TIP3    H230691   5.155   3.645   2.676 -0.7076 -0.0782  0.0908
10244TIP3   OH230692   3.556   1.225   5.427  0.0106  0.9052 -0.3347
10244TIP3    H130693   3.516   1.187   5.348  0.7663 -0.1616 -0.2207
10244TIP3    H230694   3.495   1.203   5.497  0.1928  0.3246 -0.3519
10245TIP3   OH230695   6.325   4.301   1.032  0.1655 -0.2960  0.2123
10245TIP3    H130696   6.376   4.358   1.090  0.7144  0.5570 -1.0751
10245TIP3    H230697   6.389   4.263   0.972 -0.3821 -1.2266  0.1923
10246TIP3   OH230698   0.396   0.766   4.529 -0.2894 -0.5287  0.3430
10246TIP3    H130699   0.445   0.690   4.498  1.0710  0.3949  0.1306
10246TIP3    H230700   0.423   0.775   4.621 -0.9009 -0.6396  0.5390
10247TIP3   OH230701   3.238   3.152   0.159 -0.1858 -0.2711 -0.1987
10247TIP3    H130702   3.295   3.159   0.237 -1.9251  0.7473  1.0440
10247TIP3    H230703   3.156   3.116   0.193 -0.3842 -1.5232 -1.9218
10248TIP3   OH230704   6.984   2.708   4.643 -0.0799 -0.1376  0.5852
10248TIP3    H130705   6.990   2.757   4.561  0.3768  0.1301  0.7752
10248TIP3    H230706   6.892   2.684   4.650 -0.5052  1.5367  0.9815
10249TIP3   OH230707   3.984   5.233   0.557 -0.0362 -0.0254 -0.2989
10249TIP3    H130708   3.942   5.157   0.597 -0.7288  0.7302  0.4126
10249TIP3    H230709   4.069   5.199   0.526 -0.2897 -1.0585  0.0992
10250TIP3   OH230710   1.539   2.948   1.442  0.4914  0.3493  0.4668
10250TIP3    H130711   1.561   3.021   1.385  0.6447 -0.6414 -0.8044
10250TIP3    H230712   1.604   2.881   1.420 -1.5594 -1.3522 -0.7949
10251TIP3   OH230713   7.243   1.073   3.333  0.2885 -0.1224 -0.3473
10251TIP3    H130714   7.254   1.055   3.426 -0.7831 -1.4270 -0.4447
10251TIP3    H230715   7.321   1.124   3.309  1.4666 -1.2764  0.8753
10252TIP3   OH230716   5.978   5.134   5.985 -0.6189  0.3920  0.2971
10252TIP3    H130717   5.886   5.161   5.981 -0.4651  1.1907  1.5949
10252TIP3    H230718   6.015   5.166   5.903 -0.9850  2.1615  0.7743
10253TIP3   OH230719   4.491   0.395   3.098 -0.3315 -0.6579 -0.2448
10253TIP3    H130720   4.441   0.331   3.150 -0.5122 -1.0083 -0.8449
10253TIP3    H230721   4.463   0.480   3.132  1.0257 -0.8936  1.6193
10254TIP3   OH230722   2.708   6.156   1.804 -0.0754  1.0115  0.1155
10254TIP3    H130723   2.729   6.203   1.884 -2.0190  0.5406  0.9738
10254TIP3    H230724   2.614   6.136   1.812  0.4761 -2.4208 -0.4651
10255TIP3   OH230725   0.987   5.267   3.061 -0.1177 -0.2426  0.2656
10255TIP3    H130726   0.948   5.294   2.978  0.9391  0.3437 -0.0633
10255TIP3    H230727   0.917   5.280   3.125 -0.4317  0.9585 -0.2754
10256TIP3   OH230728   2.110   1.503   3.251 -0.2019  0.0350  0.3501
10256TIP3    H130729   2.102   1.598   3.253 -2.7559 -0.0916 -0.5855
10256TIP3    H230730   2.195   1.487   3.209  0.7050  1.8509  1.3606
10257TIP3   OH230731   7.359   0.228   0.643 -0.0153 -0.3449 -0.0504
10257TIP3    H130732   7.364   0.257   0.734 -2.5294 -0.0190  0.0472
10257TIP3    H230733   7.343   0.134   0.649 -2.6183  0.0471 -0.0263
10258TIP3   OH230734   3.788   0.050   4.655  0.2718  0.3028  0.2342
10258TIP3    H130735   3.869   0.058   4.605  0.1853  0.8429  0.1732
10258TIP3    H230736   3.776   0.136   4.696 -0.8167  0.5770 -0.6076
10259TIP3   OH230737   2.440   5.998   0.582  0.7061  0.8750  0.2174
10259TIP3    H130738   2.508   6.053   0.621  1.6268 -0.6627  0.8857
10259TIP3    H230739   2.489   5.932   0.531 -0.1642 -0.8698  1.5174
10260TIP3   OH230740   0.703   2.450   3.087  0.1143 -0.0986 -0.0465
10260TIP3    H130741   0.711   2.527   3.143 -1.1955 -0.4283  0.6430
10260TIP3    H230742   0.793   2.429   3.061  0.6528  0.6432  1.1365
10261TIP3   OH230743   6.154   6.253   2.821 -0.4202 -0.1287  0.1147
10261TIP3    H130744   6.067   6.259   2.780 -0.3742  1.1039  0.1687
10261TIP3    H230745   6.184   6.344   2.827  1.4125 -0.6225 -1.0366
10262TIP3   OH230746   1.101   4.129   3.926 -0.2720  0.2111  0.1877
10262TIP3    H130747   1.137   4.041   3.924 -2.6701 -0.9337  1.7758
10262TIP3    H230748   1.090   4.149   4.019  0.4704  2.3485 -0.1170
10263TIP3   OH230749   3.210   3.595   3.519  0.5714  0.5580 -0.2959
10263TIP3    H130750   3.148   3.651   3.472  1.3082  1.3187 -0.3937
10263TIP3    H230751   3.225   3.640   3.602 -0.4899 -0.6272  0.5795
10264TIP3   OH230752   0.502   6.222   5.173 -0.0570 -0.0161 -0.0453
10264TIP3    H130753   0.446   6.168   5.229 -0.8784  1.8643  1.0803
10264TIP3    H230754   0.497   6.181   5.087 -2.4755 -0.4596  0.2353
10265TIP3   OH230755   5.527   2.756   3.577 -0.3040  0.0560 -0.4081
10265TIP3    H130756   5.482   2.709   3.508 -0.1722 -1.1557  0.3007
10265TIP3    H230757   5.474   2.742   3.655  0.6464 -0.3961  0.1837
10266TIP3   OH230758   4.227   1.957   5.854 -0.6411  0.5948  0.4159
10266TIP3    H130759   4.272   1.952   5.769  0.3678  0.9222  0.9196
10266TIP3    H230760   4.235   2.048   5.881  0.1532  0.2364  1.4457
10267TIP3   OH230761   7.405   1.156   2.883  0.1895 -0.1415  0.0624
10267TIP3    H130762   7.372   1.159   2.793 -0.0180  0.2242  0.1467
10267TIP3    H230763   7.354   1.087   2.925 -0.6145  0.5382  0.2390
10268TIP3   OH230764   0.703   4.389   2.100  0.3214  0.0512 -0.0436
10268TIP3    H130765   0.609   4.398   2.082  0.6868  1.3920 -1.5279
10268TIP3    H230766   0.714   4.296   2.117 -1.4032 -0.0071  1.0251
10269TIP3   OH230767   1.586   1.140   3.196 -0.9390  0.0066  0.3074
10269TIP3    H130768   1.541   1.060   3.225  0.6807 -0.3785  1.9622
10269TIP3    H230769   1.665   1.108   3.153 -1.5583  0.7124 -1.4694
10270TIP3   OH230770   3.287   4.892   5.320 -0.2438 -0.4503  0.4150
10270TIP3    H130771   3.226   4.823   5.346 -1.4770  0.8415  1.0887
10270TIP3    H230772   3.266   4.966   5.376  1.8682  0.1180  0.5492
10271TIP3   OH230773   7.510   0.374   5.563 -0.3203  0.1742 -0.5206
10271TIP3    H130774   7.437   0.380   5.624 -1.4044 -0.5589 -1.6760
10271TIP3    H230775   7.587   0.364   5.618 -1.1965  0.0212  0.7242
10272TIP3   OH230776   3.200   2.888   0.607 -0.5559  0.3205 -0.0837
10272TIP3    H130777   3.124   2.861   0.556 -0.4520  0.9194 -0.5664
10272TIP3    H230778   3.166   2.904   0.695 -0.7089 -0.8563  0.0810
10273TIP3   OH230779   6.061   4.642   4.149 -0.4426  0.5168 -0.0929
10273TIP3    H130780   6.002   4.664   4.221  0.7609 -2.5435  2.0156
10273TIP3    H230781   6.004   4.604   4.082 -1.1104 -1.4385  1.4834
10274TIP3   OH230782   7.549   2.503   5.694 -0.3890 -0.4337  0.5069
10274TIP3    H130783   7.494   2.457   5.631 -1.7775 -1.4678  2.3584
10274TIP3    H230784   7.628   2.451   5.700 -1.4061 -1.9308  1.6162
10275TIP3   OH230785   1.317   5.979   0.203 -0.0250  0.0085  0.3973
10275TIP3    H130786   1.308   6.061   0.156  0.6932 -0.5998 -0.8541
10275TIP3    H230787   1.233   5.967   0.248 -0.3340  1.1353  0.1508
10276TIP3   OH230788   4.940   2.963   1.084 -0.1308  0.0022  0.6256
10276TIP3    H130789   4.924   3.056   1.094  1.1135  0.1959  0.8995
10276TIP3    H230790   5.025   2.957   1.040 -1.2528 -0.9759 -1.5619
10277TIP3   OH230791   5.371   0.878   1.181  0.3759  0.0927  0.1693
10277TIP3    H130792   5.311   0.813   1.218  0.2970  0.5053  0.7805
10277TIP3    H230793   5.356   0.873   1.087 -2.5343  1.9764  0.4246
10278TIP3   OH230794   3.127   4.574   2.826  0.1048 -0.8576 -0.0149
10278TIP3    H130795   3.197   4.601   2.887  0.1315 -1.2906  0.1497
10278TIP3    H230796   3.069   4.650   2.822  0.6906 -0.4131 -0.3131
10279TIP3   OH230797   6.224   4.600   0.826 -0.2617 -0.1254  0.0966
10279TIP3    H130798   6.160   4.622   0.893 -0.2428  1.8616 -0.4755
10279TIP3    H230799   6.307   4.590   0.873 -0.3849  0.5194  0.4474
10280TIP3   OH230800   5.432   0.821   4.722 -0.0544 -0.0462 -0.0309
10280TIP3    H130801   5.431   0.802   4.816 -0.2172 -0.6267 -0.1456
10280TIP3    H230802   5.499   0.888   4.712 -1.4852  1.5925  0.7807
10281TIP3   OH230803   4.362   3.936   3.210  0.0250  0.1057  0.3441
10281TIP3    H130804   4.320   3.966   3.129 -0.6683  0.2577  0.7496
10281TIP3    H230805   4.292   3.940   3.276  0.1412 -1.5604  0.6127
10282TIP3   OH230806   6.158   5.972   2.954  0.2004  0.6505 -0.1257
10282TIP3    H130807   6.099   6.043   2.927 -1.2886 -0.8818 -1.1980
10282TIP3    H230808   6.196   5.940   2.872 -0.8424 -1.1407  0.0176
10283TIP3   OH230809   1.507   6.380   4.057  0.5604  0.1886  0.3466
10283TIP3    H130810   1.518   6.332   3.975  1.7216  0.3252  0.4042
10283TIP3    H230811   1.467   6.463   4.032  1.8908  0.6745 -0.2396
10284TIP3   OH230812   1.036   3.676   3.583  0.3359  0.3172 -0.0308
10284TIP3    H130813   1.110   3.660   3.526  0.9783  1.0728  0.5700
10284TIP3    H230814   0.962   3.690   3.524  0.3932 -1.6433 -0.6198
10285TIP3   OH230815   0.723   4.109   2.166 -0.0430  0.5411  0.2150
10285TIP3    H130816   0.635   4.133   2.193  0.1970  2.8942 -0.8357
10285TIP3    H230817   0.714   4.021   2.129 -2.7120  1.8866 -2.9120
10286TIP3   OH230818   4.910   3.760   5.493 -0.0146 -0.1738 -0.2497
10286TIP3    H130819   4.936   3.764   5.585 -0.4377  0.1488 -0.1409
10286TIP3    H230820   4.981   3.803   5.445 -1.0316  2.1591  0.1883
10287TIP3   OH230821   6.360   1.074   3.754  0.6734 -0.7808  0.4645
10287TIP3    H130822   6.441   1.051   3.799  0.8653  0.0975  0.5872
10287TIP3    H230823   6.389   1.117   3.674  0.3797  1.6375  1.5723
10288TIP3   OH230824   2.118   4.357   5.990 -0.2746 -0.2091  0.0004
10288TIP3    H130825   2.118   4.448   6.020 -3.0388 -0.0458 -0.2320
10288TIP3    H230826   2.104   4.305   6.070 -1.7171 -0.1817 -0.2102
10289TIP3   OH230827   0.884   4.579   3.730  0.3479  0.0122  0.7000
10289TIP3    H130828   0.793   4.549   3.743  0.0067  0.5175 -0.3496
10289TIP3    H230829   0.910   4.537   3.648  0.7510  0.5740  0.5386
10290TIP3   OH230830   3.643   2.772   4.516  0.2514 -0.3365 -0.3310
10290TIP3    H130831   3.646   2.849   4.460 -1.2833 -0.9036 -1.2467
10290TIP3    H230832   3.576   2.716   4.477 -0.7722 -0.8392  1.9973
10291TIP3   OH230833   0.465   0.100   4.641  0.2801 -0.3506  0.1526
10291TIP3    H130834   0.516   0.070   4.716  2.2191  3.6376  0.7302
10291TIP3    H230835   0.417   0.176   4.673  1.9008  2.0952 -2.6423
10292TIP3   OH230836   7.332   3.332   4.616 -0.2536  0.5592  0.2870
10292TIP3    H130837   7.305   3.306   4.705  0.2265  1.0046  0.5719
10292TIP3    H230838   7.295   3.264   4.559 -0.6679  0.3301  0.8136
10293TIP3   OH230839   1.362   0.209   3.545 -0.7631  0.1325  0.2870
10293TIP3    H130840   1.370   0.145   3.616  0.3046 -0.5473 -0.4245
10293TIP3    H230841   1.295   0.172   3.487 -0.0928 -0.3910 -0.1628
10294TIP3   OH230842   5.763   5.794   4.855  0.4208  0.1381  0.2396
10294TIP3    H130843   5.796   5.708   4.827  0.2731 -0.0511  0.6430
10294TIP3    H230844   5.701   5.775   4.924 -0.5918  0.4978 -0.5442
10295TIP3   OH230845   0.450   0.599   4.069  0.1065 -0.2368 -0.0504
10295TIP3    H130846   0.486   0.622   3.984  0.7615 -1.9871 -0.2891
10295TIP3    H230847   0.526   0.581   4.124 -0.3013 -2.5519 -0.1411
10296TIP3   OH230848   7.017   5.891   4.678  0.0834 -0.1576 -0.3377
10296TIP3    H130849   7.095   5.931   4.639 -0.9539  0.9013 -1.4284
10296TIP3    H230850   7.051   5.823   4.736  1.8347  0.7792 -0.2058
10297TIP3   OH230851   4.178   2.752   0.534 -0.2397 -0.6390  0.4175
10297TIP3    H130852   4.221   2.684   0.480  0.0001  0.0016 -0.2125
10297TIP3    H230853   4.229   2.831   0.518 -0.5873 -0.2791  1.0659
10298TIP3   OH230854   7.316   3.466   2.424  0.0784 -0.2063  0.3145
10298TIP3    H130855   7.239   3.455   2.480  0.1667 -1.8809  0.1443
10298TIP3    H230856   7.285   3.449   2.335  0.4755 -0.0574  0.1414
10299TIP3   OH230857   4.511   3.978   6.167  0.5082 -0.3736 -0.4132
10299TIP3    H130858   4.419   3.993   6.189  1.0219  1.0266  0.9749
10299TIP3    H230859   4.535   4.052   6.110  1.3666  0.6120  1.1685
10300TIP3   OH230860   1.577   4.033   3.074  0.2822  0.1241 -0.0834
10300TIP3    H130861   1.614   4.107   3.122  0.3105  0.2149 -0.2426
10300TIP3    H230862   1.653   3.979   3.052  0.1627 -0.4259  0.8258
10301TIP3   OH230863   1.334   4.822   2.673 -0.0896 -0.0839 -0.1853
10301TIP3    H130864   1.324   4.755   2.605  0.5939 -0.1897 -0.1815
10301TIP3    H230865   1.392   4.782   2.737  0.0817  0.4063 -0.0368
10302TIP3   OH230866   5.428   2.721   2.998  0.5984 -0.5777 -0.3831
10302TIP3    H130867   5.471   2.641   3.029 -1.7401 -1.2162  1.4987
10302TIP3    H230868   5.404   2.702   2.907 -0.5624 -2.3425  0.2534
10303TIP3   OH230869   6.466   6.158   5.516  0.3344  0.2116  0.1409
10303TIP3    H130870   6.482   6.214   5.592 -2.0208  0.0162  0.8558
10303TIP3    H230871   6.496   6.071   5.544  1.2423  0.5052  0.1176
10304TIP3   OH230872   1.836   5.624   1.985 -0.0093  0.4604 -0.5022
10304TIP3    H130873   1.821   5.533   2.011  0.8994 -0.6319 -3.3294
10304TIP3    H230874   1.759   5.671   2.017 -0.7257 -1.3734  0.6768
10305TIP3   OH230875   3.648   1.373   2.947 -0.2579  0.0584 -0.4292
10305TIP3    H130876   3.625   1.418   2.865  0.6383  1.6294  0.1408
10305TIP3    H230877   3.689   1.440   3.001  2.2316 -1.6743  0.0292
10306TIP3   OH230878   6.952   3.321   3.698  0.8868  0.1012  0.1861
10306TIP3    H130879   6.960   3.260   3.624 -0.2383  0.1629 -0.0051
10306TIP3    H230880   7.019   3.387   3.682 -1.4588  2.0718 -2.6960
10307TIP3   OH230881   1.591   6.048   4.601  0.2006 -0.4137  0.2670
10307TIP3    H130882   1.661   6.113   4.603  0.3088 -0.4581 -1.1379
10307TIP3    H230883   1.511   6.100   4.596  0.3018 -0.3507 -1.1976
10308TIP3   OH230884   2.053   6.416   2.959 -0.5563 -0.1941  0.5373
10308TIP3    H130885   2.041   6.493   3.014  2.9760  0.7086  0.2785
10308TIP3    H230886   2.063   6.451   2.870 -0.4984 -1.1055  0.1745
10309TIP3   OH230887   1.069   3.380   3.826 -0.2454  0.4493 -0.5735
10309TIP3    H130888   1.155   3.421   3.812  0.4077 -0.7315 -0.1656
10309TIP3    H230889   1.089   3.292   3.857 -1.6124 -0.0068 -0.8978
10310TIP3   OH230890   5.372   1.915   2.918 -0.1393  0.4194  0.9340
10310TIP3    H130891   5.438   1.854   2.953  0.1942 -1.0105 -1.9001
10310TIP3    H230892   5.420   1.996   2.903  1.0794 -0.5813 -1.0238
10311TIP3   OH230893   2.194   5.674   5.902 -0.1622  0.2898  0.4169
10311TIP3    H130894   2.274   5.627   5.923 -0.2956 -0.4963 -0.7999
10311TIP3    H230895   2.202   5.757   5.950  0.3274 -0.6960  2.1200
10312TIP3   OH230896   2.173   3.824   3.028  0.1134 -0.5210 -0.2237
10312TIP3    H130897   2.207   3.867   3.106 -2.2985  0.2677  0.4794
10312TIP3    H230898   2.249   3.779   2.990  2.0303  1.5842  0.8511
10313TIP3   OH230899   4.288   4.821   1.845 -0.0846  0.5919  0.5007
10313TIP3    H130900   4.289   4.846   1.753  0.5257 -0.0883  0.3153
10313TIP3    H230901   4.231   4.744   1.849  0.3601  0.2594  0.5830
10314TIP3   OH230902   2.865   2.439   0.369 -0.4769 -0.3222 -0.0911
10314TIP3    H130903   2.871   2.524   0.325  0.3300 -1.7986 -3.0965
10314TIP3    H230904   2.771   2.425   0.381 -0.6653  0.6224 -0.3612
10315TIP3   OH230905   3.202   0.045   4.619 -0.4884 -0.7304  0.2671
10315TIP3    H130906   3.280   0.091   4.650 -0.8574  1.1096 -1.3339
10315TIP3    H230907   3.233  -0.042   4.596  1.2386  0.0924 -0.7814
10316TIP3   OH230908   3.051   3.522   4.267  0.4280 -0.0232  0.5181
10316TIP3    H130909   3.111   3.503   4.196  0.2315  0.9068  0.0915
10316TIP3    H230910   3.035   3.437   4.309 -1.0050 -0.9509 -1.7549
10317TIP3   OH230911   4.872   5.536   5.987  0.3547  0.2934  0.1334
10317TIP3    H130912   4.833   5.623   5.987 -2.4236 -0.8174  2.0392
10317TIP3    H230913   4.810   5.482   5.938  0.9554 -0.9932  0.7426
10318TIP3   OH230914   7.248   1.840   4.261 -0.1790  0.5845 -0.1910
10318TIP3    H130915   7.157   1.821   4.283 -0.2265  1.8397  0.8357
10318TIP3    H230916   7.250   1.935   4.246  0.9497  0.5832 -0.1809
10319TIP3   OH230917   2.367   2.242   0.551 -0.8758 -0.4874 -0.4613
10319TIP3    H130918   2.365   2.223   0.645  0.1043  0.4061 -0.2430
10319TIP3    H230919   2.277   2.227   0.521 -1.0611 -1.3648  0.4941
10320TIP3   OH230920   3.817   2.841   0.222 -0.1818  0.5554 -0.8373
10320TIP3    H130921   3.820   2.936   0.224 -0.7191  0.5688  0.0854
10320TIP3    H230922   3.908   2.814   0.239 -0.0930  0.9065 -0.7511
10321TIP3   OH230923   3.682   6.504   2.663 -0.1084 -0.4174 -0.2449
10321TIP3    H130924   3.632   6.458   2.596 -0.7478  0.1608 -0.1706
10321TIP3    H230925   3.662   6.458   2.744 -0.2709 -0.3813 -0.2650
10322TIP3   OH230926   6.256   4.260   1.549 -0.7434 -0.8940 -0.6349
10322TIP3    H130927   6.247   4.256   1.644 -1.2768  1.5690 -0.5191
10322TIP3    H230928   6.350   4.267   1.533 -0.7652  1.6934 -0.0379
10323TIP3   OH230929   0.758   3.917   2.658  0.1702  0.3563  0.0432
10323TIP3    H130930   0.836   3.959   2.694  0.4416 -0.3706  0.3295
10323TIP3    H230931   0.778   3.823   2.661 -0.2134  0.2257 -1.0586
10324TIP3   OH230932   6.435   2.451   3.706  0.8264  0.1604 -0.1499
10324TIP3    H130933   6.500   2.391   3.672  3.3984  0.0783  4.1160
10324TIP3    H230934   6.476   2.538   3.700 -0.7766  0.8669 -1.7423
10325TIP3   OH230935   5.490   3.969   0.177  0.2396  0.4672  0.3230
10325TIP3    H130936   5.433   4.030   0.223 -0.8142  1.2119 -1.8201
10325TIP3    H230937   5.562   4.025   0.145 -0.3214  0.4941 -0.9718
10326TIP3   OH230938   4.169   2.375   4.085 -0.5182  0.0458 -0.3784
10326TIP3    H130939   4.220   2.363   4.005  2.1697 -0.4442  1.2377
10326TIP3    H230940   4.153   2.286   4.116  2.5672  0.0759  1.8479
10327TIP3   OH230941   3.077   3.545   5.527  0.0325 -0.0180  0.4575
10327TIP3    H130942   3.038   3.550   5.439 -0.1219 -1.0870  0.4524
10327TIP3    H230943   3.162   3.589   5.518 -1.1004  2.3308  0.4627
10328TIP3   OH230944   6.068   3.134   3.608 -0.9601  0.3846  0.3752
10328TIP3    H130945   6.074   3.073   3.534 -1.0755  0.8460 -0.0171
10328TIP3    H230946   6.015   3.086   3.673  1.1024 -0.9736  1.1491
10329TIP3   OH230947   4.357   3.877   5.446  0.2857  0.4550 -0.1373
10329TIP3    H130948   4.264   3.881   5.425  0.2352 -1.1208 -0.3219
10329TIP3    H230949   4.396   3.946   5.393 -0.6834  0.6542 -0.6139
10330TIP3   OH230950   1.736   6.663   4.569  0.5758 -0.4417 -0.2978
10330TIP3    H130951   1.754   6.757   4.565 -0.2737 -0.2423  0.2237
10330TIP3    H230952   1.684   6.653   4.649 -0.2033 -1.2086 -0.8899
10331TIP3   OH230953   1.456   2.842   4.483  0.2230 -0.1846 -0.7571
10331TIP3    H130954   1.544   2.865   4.453 -0.1681 -1.2504 -2.9750
10331TIP3    H230955   1.412   2.811   4.404 -1.8560 -0.5856  0.4879
10332TIP3   OH230956   3.439   5.211   4.047  0.1502 -0.4781 -0.3695
10332TIP3    H130957   3.371   5.211   3.980 -0.3366 -0.6741  0.1204
10332TIP3    H230958   3.451   5.303   4.069 -2.3317 -0.6033  1.9153
10333TIP3   OH230959   6.946   2.648   5.773  0.3566  0.1082  0.2155
10333TIP3    H130960   6.914   2.562   5.800 -0.6298  1.1218  2.5948
10333TIP3    H230961   6.869   2.692   5.737  1.0481 -0.2406 -1.8168
10334TIP3   OH230962   4.372   4.403   1.624  0.0399  0.1741 -0.9417
10334TIP3    H130963   4.372   4.311   1.597 -2.8876  0.2612 -1.5069
10334TIP3    H230964   4.296   4.441   1.581  0.2924  2.5075  0.5117
10335TIP3   OH230965   2.064   4.495   4.977  0.1255 -0.1546 -0.2397
10335TIP3    H130966   2.156   4.498   5.004  0.3095 -3.8807  0.0685
10335TIP3    H230967   2.017   4.544   5.044  1.5514 -1.4003  1.7673
10336TIP3   OH230968   3.562   4.296   3.150  0.6626 -0.3189  0.1945
10336TIP3    H130969   3.489   4.238   3.171  0.4249  0.2576  1.0147
10336TIP3    H230970   3.618   4.293   3.227  0.5871  0.6243  0.2927
10337TIP3   OH230971   4.110   4.952   3.328 -0.1839  0.0598  0.5633
10337TIP3    H130972   4.099   4.985   3.239 -2.5587 -3.0919 -0.4820
10337TIP3    H230973   4.167   4.876   3.318  3.1600  1.9991  2.5445
10338TIP3   OH230974   7.371   3.060   4.522  0.1561 -0.1280 -0.6055
10338TIP3    H130975   7.439   3.028   4.580  1.0006  0.8465 -1.0210
10338TIP3    H230976   7.361   2.991   4.456  1.0292 -0.1043 -0.7666
10339TIP3   OH230977   1.108   3.606   4.642  0.1267 -0.2729  0.2730
10339TIP3    H130978   1.124   3.588   4.549 -1.4692  0.3691 -0.1505
10339TIP3    H230979   1.083   3.699   4.644 -0.7286 -0.5138  1.2217
10340TIP3   OH230980   7.317   3.107   5.031  0.2815 -0.0707 -0.1821
10340TIP3    H130981   7.390   3.134   5.087  0.1305  1.6736 -0.7678
10340TIP3    H230982   7.284   3.189   4.994 -0.2413 -1.0705 -2.0594
10341TIP3   OH230983   7.034   7.006   0.895 -0.2079  0.2186  0.2018
10341TIP3    H130984   7.082   7.089   0.894  0.3966 -0.0972  1.4146
10341TIP3    H230985   7.082   6.950   0.835  0.0557  0.3858  0.2527
10342TIP3   OH230986   7.414   4.283   3.393 -0.2978 -0.1664  0.0987
10342TIP3    H130987   7.469   4.361   3.405  0.3669 -0.7441  0.9924
10342TIP3    H230988   7.336   4.300   3.446 -0.3887  0.1143 -0.1266
10343TIP3   OH230989   6.235   2.511   0.431  0.6341 -0.1782  0.3906
10343TIP3    H130990   6.233   2.537   0.339 -1.3748 -0.8693  0.1944
10343TIP3    H230991   6.251   2.417   0.430 -1.9224 -0.6877  0.5469
10344TIP3   OH230992   3.861   6.562   4.895 -0.1329 -0.2678  0.3031
10344TIP3    H130993   3.768   6.584   4.905 -0.6202 -2.3186  0.7233
10344TIP3    H230994   3.889   6.534   4.982 -0.0923 -2.9126 -0.4791
10345TIP3   OH230995   2.108   3.433   6.070  0.0393 -0.2778 -0.0082
10345TIP3    H130996   2.056   3.377   6.129  0.6341 -1.0781 -0.2226
10345TIP3    H230997   2.071   3.520   6.081 -2.1871 -1.0214 -1.1002
10346TIP3   OH230998   0.088   4.487   2.845  0.4212 -0.2716  0.3227
10346TIP3    H130999   0.139   4.549   2.897 -1.9988  1.5462  0.6916
10346TIP3    H231000   0.143   4.469   2.769  2.0081  0.8382  1.1515
10347TIP3   OH231001   5.782   6.209   4.308  0.5618 -0.1626 -0.1001
10347TIP3    H131002   5.716   6.218   4.377  0.3677 -0.5864 -0.2301
10347TIP3    H231003   5.813   6.119   4.316 -0.3902 -0.6271 -1.3985
10348TIP3   OH231004   4.185   1.055   0.653  0.2430 -0.4965  0.3913
10348TIP3    H131005   4.264   1.045   0.707 -0.4172 -1.7809  1.1572
10348TIP3    H231006   4.213   1.029   0.565  1.2907  1.4698  0.0947
10349TIP3   OH231007   2.553   1.742   3.548 -0.1660 -0.1081  0.5322
10349TIP3    H131008   2.535   1.728   3.641 -1.8638 -0.0494  0.2410
10349TIP3    H231009   2.556   1.654   3.510  0.8930 -0.1530  0.6734
10350TIP3   OH231010   1.171   4.598   3.473 -0.2238  0.0958 -0.0586
10350TIP3    H131011   1.140   4.685   3.450 -0.8446 -0.0677  0.1502
10350TIP3    H231012   1.150   4.589   3.566 -0.9457 -0.6056 -0.2822
10351TIP3   OH231013   5.129   1.905   0.130  0.1168  0.2727 -0.0332
10351TIP3    H131014   5.120   1.856   0.213 -0.9848 -0.2301 -0.4300
10351TIP3    H231015   5.218   1.940   0.133  0.4504 -0.5837  0.9156
10352TIP3   OH231016   5.424   4.036   5.615 -0.3499  0.1029 -0.2257
10352TIP3    H131017   5.390   3.972   5.553  2.3962  0.4445 -2.2514
10352TIP3    H231018   5.475   3.985   5.677  0.9084  0.1668 -1.1770
10353TIP3   OH231019   7.032   2.118   0.498 -0.5503  0.1965  0.1437
10353TIP3    H131020   6.989   2.069   0.568  1.4982 -0.3509  1.1016
10353TIP3    H231021   7.119   2.079   0.492 -0.1531  1.2513 -1.6871
10354TIP3   OH231022   4.644   4.115   0.976 -0.1388 -0.0685 -0.5800
10354TIP3    H131023   4.685   4.196   1.007  0.4053  0.1831 -1.8855
10354TIP3    H231024   4.713   4.049   0.983 -0.0146 -0.0136 -1.1956
10355TIP3   OH231025   5.320   6.381   3.051 -0.2517 -0.7658  0.3274
10355TIP3    H131026   5.361   6.305   3.011 -1.0285 -1.4486  0.7977
10355TIP3    H231027   5.231   6.382   3.015  0.1390  0.7186 -0.7188
10356TIP3   OH231028   6.402   3.058   2.957 -0.1407 -0.9644 -0.2524
10356TIP3    H131029   6.359   3.049   2.872 -1.1257 -0.2389  0.1517
10356TIP3    H231030   6.458   2.981   2.963 -0.1428 -1.0963 -1.5003
10357TIP3   OH231031   4.944   7.033   4.015 -0.3852 -0.2126  0.2426
10357TIP3    H131032   4.905   7.044   3.928 -3.4026 -0.2562  1.5013
10357TIP3    H231033   4.963   6.939   4.020 -1.3446 -0.4226  0.0690
10358TIP3   OH231034   0.980   5.127   1.352 -0.4397 -0.5286  0.6289
10358TIP3    H131035   0.906   5.146   1.409 -0.4552  1.1564  0.0874
10358TIP3    H231036   0.941   5.117   1.265 -0.1601 -0.8724  0.5372
10359TIP3   OH231037   7.307   3.956   2.500 -0.0386  0.7687 -0.0611
10359TIP3    H131038   7.387   3.987   2.542  0.8378 -0.8804 -0.4386
10359TIP3    H231039   7.337   3.894   2.433 -1.5978  0.6856 -0.7283
10360TIP3   OH231040   5.404   6.136   0.323 -0.2927 -0.1198  0.1937
10360TIP3    H131041   5.442   6.189   0.393 -1.1612 -0.8237  1.2242
10360TIP3    H231042   5.412   6.191   0.244  3.2424 -0.3807  0.2140
10361TIP3   OH231043   0.544   2.982   1.052  0.4320 -0.9617  0.3016
10361TIP3    H131044   0.595   2.901   1.059  0.8534 -0.7421 -0.1873
10361TIP3    H231045   0.478   2.963   0.984  0.2032 -1.0610  0.5475
10362TIP3   OH231046   0.690   6.428   1.378  0.3019  0.5363 -0.1115
10362TIP3    H131047   0.709   6.454   1.287  0.0017 -0.1923 -0.3868
10362TIP3    H231048   0.677   6.511   1.424 -0.0643  0.9049 -0.8546
10363TIP3   OH231049   5.299   5.426   5.237 -1.0999  0.4749 -0.4687
10363TIP3    H131050   5.284   5.336   5.209  0.4250  0.2534 -0.6749
10363TIP3    H231051   5.220   5.450   5.284 -0.5773 -1.8881  1.8694
10364TIP3   OH231052   5.244   7.020   1.541  0.7686  0.2036  0.1245
10364TIP3    H131053   5.323   7.075   1.539  0.0976  1.1750 -0.8814
10364TIP3    H231054   5.260   6.958   1.612  1.8110  1.3280  0.9197
10365TIP3   OH231055   7.213   2.080   2.781 -0.0644  0.0395 -0.3598
10365TIP3    H131056   7.254   2.026   2.849  0.2979  0.1898 -0.4530
10365TIP3    H231057   7.279   2.146   2.760  0.2672 -0.6524 -1.6215
10366TIP3   OH231058   1.750   3.617   0.411  0.2648 -0.8652 -0.2884
10366TIP3    H131059   1.831   3.587   0.453  0.4538 -0.4976 -0.3920
10366TIP3    H231060   1.700   3.536   0.398 -0.4121 -0.8491  1.9070
10367TIP3   OH231061   1.319   2.319   3.006 -0.1747 -0.3960  0.2601
10367TIP3    H131062   1.302   2.226   2.992 -0.8151 -0.5483  1.8514
10367TIP3    H231063   1.259   2.364   2.947  0.2960 -0.9752 -0.6842
10368TIP3   OH231064   6.332   4.748   3.907  0.5106 -0.4712 -0.0981
10368TIP3    H131065   6.320   4.802   3.829 -0.1061 -0.0063  0.3172
10368TIP3    H231066   6.244   4.731   3.939  0.7261 -1.2813  0.0837
10369TIP3   OH231067   3.280   6.363   1.391  0.2078 -0.2277 -0.1063
10369TIP3    H131068   3.229   6.442   1.408 -0.4653 -0.7847  0.5352
10369TIP3    H231069   3.215   6.298   1.363  0.6589 -0.7482  0.0301
10370TIP3   OH231070   1.916   0.899   1.699  0.4816 -0.6402 -0.1337
10370TIP3    H131071   1.962   0.839   1.640 -0.6432 -0.3366 -1.3761
10370TIP3    H231072   1.875   0.963   1.641 -1.3359 -0.8026  0.8992
10371TIP3   OH231073   7.014   4.965   3.965 -0.2434  0.2471 -0.0554
10371TIP3    H131074   6.922   4.955   3.944 -0.7229  0.6256  1.7084
10371TIP3    H231075   7.041   4.878   3.995 -0.6718  0.6383  1.6066
10372TIP3   OH231076   0.256   0.227   5.071  0.4636  0.4327 -0.1014
10372TIP3    H131077   0.334   0.176   5.047 -0.1232 -0.5146 -0.0224
10372TIP3    H231078   0.183   0.179   5.033 -0.1353  1.0531  0.2428
10373TIP3   OH231079   0.243   2.295   3.677  0.0316  0.1084 -0.2212
10373TIP3    H131080   0.274   2.354   3.745  0.5249  0.4922 -0.7648
10373TIP3    H231081   0.153   2.275   3.702 -0.5208  1.9254 -0.5533
10374TIP3   OH231082   5.154   1.957   5.020 -0.0326 -0.7377 -0.3108
10374TIP3    H131083   5.081   1.972   5.081 -2.2327 -0.4224 -2.8343
10374TIP3    H231084   5.185   1.869   5.041  0.2421 -0.1343  2.1178
10375TIP3   OH231085   0.155   2.337   5.967 -0.1417  0.2403 -0.1171
10375TIP3    H131086   0.173   2.426   5.935 -2.0228  0.9818  0.7669
10375TIP3    H231087   0.117   2.293   5.891 -1.3100  0.9196  0.0396
10376TIP3   OH231088   2.017   4.555   0.805 -0.6929  0.0894 -0.4093
10376TIP3    H131089   2.016   4.477   0.860 -0.6941  0.2324 -0.2044
10376TIP3    H231090   1.990   4.626   0.863  0.5370  0.4584 -0.2633
10377TIP3   OH231091   7.187   5.965   1.862 -0.4891 -0.4828 -0.2107
10377TIP3    H131092   7.175   5.945   1.955  0.5488  0.0213  0.0452
10377TIP3    H231093   7.163   6.057   1.853 -0.2468 -0.4344 -0.3742
10378TIP3   OH231094   4.782   1.055   5.361  0.3462 -0.0199  0.0748
10378TIP3    H131095   4.858   1.082   5.413  0.3027 -0.2582  0.2605
10378TIP3    H231096   4.795   1.099   5.277  1.1029 -0.6835 -0.1677
10379TIP3   OH231097   5.687   6.172   4.598 -0.2858  0.8442 -0.2246
10379TIP3    H131098   5.638   6.210   4.671 -0.2217  0.3730  0.0716
10379TIP3    H231099   5.629   6.106   4.561 -0.5147  1.4335 -0.9302
10380TIP3   OH231100   7.155   2.854   4.015 -0.1700 -0.0743 -0.1285
10380TIP3    H131101   7.170   2.789   4.083  1.4018 -0.8216 -1.1209
10380TIP3    H231102   7.137   2.803   3.936 -1.4678  0.7619 -0.4072
10381TIP3   OH231103   6.862   2.397   1.193 -0.6360  0.4094  0.5395
10381TIP3    H131104   6.854   2.481   1.236 -0.3354  0.2618  0.8846
10381TIP3    H231105   6.779   2.385   1.147 -0.2470  1.4159 -0.4584
10382TIP3   OH231106   1.993   5.942   1.294  0.5963 -0.2846 -0.4019
10382TIP3    H131107   2.019   5.999   1.367 -0.6080 -2.6109  2.0036
10382TIP3    H231108   1.920   5.989   1.253  0.7397  0.6990  0.4287
10383TIP3   OH231109   2.938   5.721   4.302  0.0193 -0.3463 -0.0021
10383TIP3    H131110   2.902   5.798   4.257  0.7496  0.0200  0.0388
10383TIP3    H231111   2.945   5.655   4.234 -3.2416 -1.3618  0.4495
10384TIP3   OH231112   5.280   3.913   1.358 -0.3863 -0.1715  0.1590
10384TIP3    H131113   5.348   3.979   1.348  0.6051 -1.3112 -0.9177
10384TIP3    H231114   5.301   3.870   1.441  0.0528 -0.3218 -0.0244
10385TIP3   OH231115   4.441   6.081   6.090  0.0523 -0.2272 -0.0138
10385TIP3    H131116   4.352   6.116   6.098 -0.2212 -1.1919  1.3519
10385TIP3    H231117   4.491   6.127   6.158 -0.2475 -2.1888  1.6172
10386TIP3   OH231118   0.707   2.650   5.330 -0.4857  0.3236 -0.1242
10386TIP3    H131119   0.722   2.687   5.416 -1.5000  0.4652  0.0120
10386TIP3    H231120   0.738   2.716   5.269 -0.8849  0.7548  0.1328
10387TIP3   OH231121   4.557   3.795   3.347 -0.0233  0.1022 -0.0372
10387TIP3    H131122   4.534   3.813   3.438 -1.9206 -3.0683  0.2488
10387TIP3    H231123   4.498   3.851   3.296 -2.8469 -1.9078  0.7726
10388TIP3   OH231124   1.311   3.042   4.639 -0.6462  0.2593 -0.0879
10388TIP3    H131125   1.340   3.013   4.726  1.1821  1.2711 -0.3046
10388TIP3    H231126   1.362   2.988   4.578  0.4400  1.6849 -0.4898
10389TIP3   OH231127   6.098   0.867   1.546 -0.3362  0.5970 -0.1697
10389TIP3    H131128   6.038   0.934   1.580 -0.1488 -0.1256  1.7068
10389TIP3    H231129   6.043   0.790   1.530 -0.1957  0.5074 -0.2288
10390TIP3   OH231130   1.975   4.824   0.894 -0.5291 -0.1306  0.7078
10390TIP3    H131131   1.978   4.888   0.965 -0.1578  1.1898 -0.4546
10390TIP3    H231132   1.889   4.836   0.855  0.6047  1.8889 -1.4218
10391TIP3   OH231133   1.352   3.695   4.348 -0.0616  0.2613 -0.3372
10391TIP3    H131134   1.291   3.751   4.300  1.8010  1.6005 -1.2729
10391TIP3    H231135   1.315   3.607   4.341 -3.2329  1.2769  1.3948
10392TIP3   OH231136   1.075   6.017   0.335  0.2695  0.3633  0.2445
10392TIP3    H131137   1.029   6.099   0.323  1.2828  0.6579 -1.9992
10392TIP3    H231138   1.032   5.955   0.276  0.8598 -0.1624  0.3465
10393TIP3   OH231139   4.140   6.263   6.170  0.0431 -0.1578 -0.2994
10393TIP3    H131140   4.046   6.255   6.189  0.0596 -1.2579 -0.6228
10393TIP3    H231141   4.143   6.311   6.087 -0.1679  1.0731  0.3801
10394TIP3   OH231142   3.134   3.926   3.744 -0.5485 -0.2676 -0.0721
10394TIP3    H131143   3.176   4.010   3.759 -0.6805  0.1570 -1.8756
10394TIP3    H231144   3.204   3.868   3.716 -0.5913 -0.5490  0.3896
10395TIP3   OH231145   2.308   4.173   3.493  0.0314 -0.2932  0.1231
10395TIP3    H131146   2.258   4.251   3.469 -0.5795 -0.9456 -0.8029
10395TIP3    H231147   2.380   4.205   3.547 -0.6870  0.8105  0.4543
10396TIP3   OH231148   7.620   0.221   3.583  0.0326  0.2524 -0.2704
10396TIP3    H131149   7.581   0.186   3.663 -2.0759  1.4246 -0.7164
10396TIP3    H231150   7.554   0.280   3.547  1.1691  0.2668 -2.5539
10397TIP3   OH231151   4.202   1.385   1.732 -1.1121 -0.0975 -0.7334
10397TIP3    H131152   4.246   1.367   1.814 -1.6204  0.9640 -0.2109
10397TIP3    H231153   4.259   1.446   1.685 -1.9091  1.1794 -0.1099
10398TIP3   OH231154   2.859   3.250   4.124 -0.0342 -0.2929  0.5005
10398TIP3    H131155   2.819   3.255   4.211 -0.4280 -0.8498  0.3544
10398TIP3    H231156   2.842   3.160   4.095  1.4384 -0.5945  0.4966
10399TIP3   OH231157   0.204   0.517   4.200  0.1490  0.5051  0.7370
10399TIP3    H131158   0.148   0.473   4.136  0.1566  1.7047 -0.1272
10399TIP3    H231159   0.282   0.542   4.150 -0.1452  2.0881  1.0289
10400TIP3   OH231160   3.177   4.551   3.607 -0.2965 -0.0494  0.4706
10400TIP3    H131161   3.229   4.590   3.536 -0.9851 -0.9021 -0.5301
10400TIP3    H231162   3.141   4.471   3.569  0.5110 -1.3322  2.2514
10401TIP3   OH231163   5.295   0.820   1.732  0.0504  0.5323 -0.1643
10401TIP3    H131164   5.382   0.815   1.691  0.2807  2.3228  0.0442
10401TIP3    H231165   5.234   0.820   1.658  0.3431  1.4444 -0.4132
10402TIP3   OH231166   2.306   4.045   0.603 -0.4326  0.2966 -0.0830
10402TIP3    H131167   2.388   4.046   0.653 -0.5607 -1.3193  0.2214
10402TIP3    H231168   2.319   3.976   0.538 -0.8202  1.3962 -1.3658
10403TIP3   OH231169   6.696   1.164   0.698  0.0668 -0.8896 -0.4327
10403TIP3    H131170   6.768   1.101   0.704  0.1525 -0.6985  0.6576
10403TIP3    H231171   6.671   1.181   0.789  0.2391  0.8883 -0.6919
10404TIP3   OH231172   1.802   0.286   0.342 -0.0109  0.2298 -0.3112
10404TIP3    H131173   1.838   0.351   0.402  0.3349 -0.9024  0.7475
10404TIP3    H231174   1.763   0.220   0.399 -1.6137  0.1879 -1.3792
10405TIP3   OH231175   4.920   4.757   1.737  0.0069 -0.9039  0.6460
10405TIP3    H131176   4.867   4.797   1.668  0.1071 -1.5068  0.2076
10405TIP3    H231177   4.999   4.726   1.692 -0.1137 -1.6771  0.9436
10406TIP3   OH231178   2.477   0.376   0.656  0.9306 -0.0455  0.3433
10406TIP3    H131179   2.397   0.332   0.683 -0.6116  2.6128  0.4605
10406TIP3    H231180   2.458   0.409   0.568  1.6268  1.1721  0.6240
10407TIP3   OH231181   5.839   0.889   3.058 -0.1284 -0.0352  0.4048
10407TIP3    H131182   5.825   0.829   2.984  0.6707 -0.0131  0.2278
10407TIP3    H231183   5.752   0.900   3.096 -0.2330 -1.7488  0.7737
10408TIP3   OH231184   1.122   1.382   3.969 -0.0260  0.4139 -0.1031
10408TIP3    H131185   1.081   1.310   4.015 -0.6798  0.0529 -1.2152
10408TIP3    H231186   1.071   1.459   3.993 -1.7478 -0.0973 -1.8436
10409TIP3   OH231187   1.484   0.261   4.708 -0.2072 -0.6177  0.6428
10409TIP3    H131188   1.565   0.280   4.660 -0.6583 -0.8283 -0.2084
10409TIP3    H231189   1.431   0.340   4.698 -1.2256 -1.4708 -1.1349
10410TIP3   OH231190   5.632   0.134   3.503 -0.5528  0.2536  0.0051
10410TIP3    H131191   5.718   0.169   3.526 -0.3482 -0.3209  0.1318
10410TIP3    H231192   5.630   0.047   3.542 -1.4517  0.5100  0.5568
10411TIP3   OH231193   0.295   1.492   0.061  0.2763 -0.4247 -0.4443
10411TIP3    H131194   0.339   1.507  -0.023 -1.6560  0.8753 -1.2988
10411TIP3    H231195   0.204   1.477   0.038 -0.4378  0.5967  1.4609
10412TIP3   OH231196   0.094   6.496   4.482 -0.0141  0.0620  0.2539
10412TIP3    H131197   0.033   6.566   4.459 -0.2922 -0.2933 -0.1083
10412TIP3    H231198   0.047   6.416   4.459  0.3271 -0.2372  0.6085
10413TIP3   OH231199   0.385   3.930   1.201 -0.2061 -0.1884  0.5490
10413TIP3    H131200   0.435   3.885   1.132  1.2231  1.2772  0.5652
10413TIP3    H231201   0.352   3.859   1.256 -0.0891 -1.3238 -0.7625
10414TIP3   OH231202   3.118   4.791   4.456 -0.0639  0.3258 -0.3002
10414TIP3    H131203   3.157   4.819   4.538 -0.0307 -0.2142 -0.1302
10414TIP3    H231204   3.032   4.834   4.455 -0.0709  0.3226  0.0224
10415TIP3   OH231205   6.758   6.672   4.110  0.2885 -0.6078 -0.0245
10415TIP3    H131206   6.797   6.703   4.027 -0.5785 -1.4587 -0.7674
10415TIP3    H231207   6.681   6.728   4.122 -0.4083 -1.4324 -0.5670
10416TIP3   OH231208   4.063   4.265   2.228 -0.1716  0.2597 -0.0535
10416TIP3    H131209   4.021   4.260   2.314  0.7605 -1.8941  0.3353
10416TIP3    H231210   4.107   4.350   2.229 -1.1975  0.8109  1.1002
10417TIP3   OH231211   3.599   2.118   1.868  0.2203  0.0585 -0.0473
10417TIP3    H131212   3.531   2.051   1.883  0.7781 -0.6380 -0.5832
10417TIP3    H231213   3.622   2.147   1.956 -0.7941  0.3358  0.1480
10418TIP3   OH231214   0.264   1.260   4.260 -0.6315  0.3208  0.7705
10418TIP3    H131215   0.225   1.307   4.334  1.6585  1.1879  1.5042
10418TIP3    H231216   0.289   1.175   4.296 -0.7009  0.2458  0.6410
10419TIP3   OH231217   3.979   5.674   1.811 -0.4457 -0.4704  0.1959
10419TIP3    H131218   3.928   5.615   1.867  1.0798 -1.6072  0.4574
10419TIP3    H231219   4.048   5.707   1.869  1.6896 -2.3382 -1.1277
10420TIP3   OH231220   1.680   2.862   3.634 -1.0569 -0.0529  0.2469
10420TIP3    H131221   1.756   2.871   3.692 -0.1845  0.3406 -0.9318
10420TIP3    H231222   1.679   2.769   3.611 -1.9504 -0.4119  1.5584
10421TIP3   OH231223   1.586   5.479   0.651  0.4808  0.2137  0.3407
10421TIP3    H131224   1.655   5.541   0.676  0.3360  0.1782  0.8444
10421TIP3    H231225   1.509   5.508   0.700 -0.0896  0.7292 -0.8212
10422TIP3   OH231226   1.413   4.093   4.256  0.5264  0.2167 -0.2707
10422TIP3    H131227   1.386   4.001   4.257 -1.9434  0.8531  2.0349
10422TIP3    H231228   1.403   4.119   4.164 -0.4942 -1.3359 -0.6437
10423TIP3   OH231229   1.530   5.753   1.800 -0.2575  0.1410  0.4080
10423TIP3    H131230   1.529   5.658   1.812  0.9210  0.1381  0.5595
10423TIP3    H231231   1.522   5.788   1.889  0.6295  0.1646  0.4877
10424TIP3   OH231232   0.270   5.159   0.774  0.1599  0.0532  0.4701
10424TIP3    H131233   0.322   5.117   0.706  1.4012 -1.2458  2.1341
10424TIP3    H231234   0.274   5.252   0.754 -0.1436 -0.3341 -1.6179
10425TIP3   OH231235   4.813   2.329   1.811  0.6077 -0.3283 -0.0825
10425TIP3    H131236   4.848   2.276   1.882 -0.1716  0.8203  1.1974
10425TIP3    H231237   4.809   2.418   1.846  0.6024  0.3550 -1.7113
10426TIP3   OH231238   2.848   1.726   3.074  0.5251  0.5251 -0.2196
10426TIP3    H131239   2.878   1.700   2.987  4.1446 -0.7171  1.2023
10426TIP3    H231240   2.845   1.644   3.124  1.3637  1.5065  1.5341
10427TIP3   OH231241   3.442   1.445   0.093  0.0547 -0.1797  0.3274
10427TIP3    H131242   3.474   1.535   0.095 -1.8234  0.5252  0.3409
10427TIP3    H231243   3.485   1.406   0.017 -0.8489  1.4424 -1.0869
10428TIP3   OH231244   6.842   0.166   6.090  0.2325  0.3357  0.2497
10428TIP3    H131245   6.775   0.124   6.144 -0.4747  1.5628  0.3836
10428TIP3    H231246   6.821   0.141   6.001  0.5482 -0.5548  0.4201
10429TIP3   OH231247   6.860   1.250   3.536  0.4247 -0.3845  0.2018
10429TIP3    H131248   6.914   1.246   3.615  1.2949  1.5015 -0.2404
10429TIP3    H231249   6.857   1.159   3.505  1.5538 -0.8765  1.4067
10430TIP3   OH231250   6.865   4.203   5.163 -0.1329  0.5530  0.3696
10430TIP3    H131251   6.909   4.282   5.131  0.6566 -0.3461 -0.8696
10430TIP3    H231252   6.777   4.208   5.126 -0.1616  0.9511  0.4856
10431TIP3   OH231253   3.670   1.748   2.724  0.5987 -0.5294 -0.3371
10431TIP3    H131254   3.738   1.809   2.695  0.2387  0.2253  0.3430
10431TIP3    H231255   3.593   1.803   2.739  1.1254 -0.5178  3.4400
10432TIP3   OH231256   4.750   4.922  -0.002  0.5804  0.1337  0.0465
10432TIP3    H131257   4.736   4.864   0.072 -0.5509 -1.2039 -1.1467
10432TIP3    H231258   4.700   5.001   0.019 -0.9634 -0.8060  0.1235
10433TIP3   OH231259   0.236   0.826   2.612 -0.0843 -0.5841 -0.0200
10433TIP3    H131260   0.236   0.732   2.593 -2.3702 -0.9361  1.4273
10433TIP3    H231261   0.259   0.831   2.705 -1.9219  0.1126  0.4226
10434TIP3   OH231262   4.160   1.598   2.062  0.3127 -0.2322 -0.2297
10434TIP3    H131263   4.066   1.589   2.080  0.7648 -1.5107  1.8273
10434TIP3    H231264   4.187   1.513   2.029  1.1964 -0.7590  1.7024
10435TIP3   OH231265   0.127   2.996   1.439  0.1683 -0.7820 -0.0169
10435TIP3    H131266   0.098   3.085   1.460 -0.3159 -1.1548  0.9531
10435TIP3    H231267   0.212   2.987   1.482 -0.8103 -1.5356  1.8863
10436TIP3   OH231268   1.118   5.763   1.510 -0.2272 -0.2532 -0.3422
10436TIP3    H131269   1.157   5.698   1.452  1.9480  1.3969 -0.8266
10436TIP3    H231270   1.192   5.812   1.546 -1.7319  3.3847 -1.6844
10437TIP3   OH231271   1.685   6.057   3.607  0.0868 -0.3322 -0.2734
10437TIP3    H131272   1.748   6.027   3.672  0.2430  0.7895  0.1272
10437TIP3    H231273   1.600   6.027   3.640  0.0288  1.1802  1.0860
10438TIP3   OH231274   5.513   0.606   2.167  0.5617  0.9138  0.1950
10438TIP3    H131275   5.547   0.640   2.083  1.9667 -0.6364  0.0723
10438TIP3    H231276   5.431   0.563   2.144  0.5461  1.1815 -0.2640
10439TIP3   OH231277   3.994   5.985   4.979 -0.3344  0.4456 -0.1200
10439TIP3    H131278   4.039   5.935   4.911 -0.3390  1.2616 -0.7370
10439TIP3    H231279   3.913   5.937   4.994  0.1809 -0.3638  0.1291
10440TIP3   OH231280   6.340   4.426   4.534 -0.6507 -0.3958  0.0666
10440TIP3    H131281   6.321   4.350   4.588 -1.4840 -0.9076 -0.9307
10440TIP3    H231282   6.434   4.442   4.548 -0.4535 -1.6213  0.2518
10441TIP3   OH231283   1.521   0.066   0.750 -0.1648 -0.5679 -0.2133
10441TIP3    H131284   1.532  -0.029   0.738  0.5335 -0.5571  0.2868
10441TIP3    H231285   1.433   0.084   0.718 -0.0214 -1.2600 -1.0395
10442TIP3   OH231286   0.149   5.078   0.363  0.0624  0.7058  0.1303
10442TIP3    H131287   0.171   5.084   0.271  0.5552 -0.3021  0.1629
10442TIP3    H231288   0.056   5.057   0.365  0.2459 -0.1735 -0.1756
10443TIP3   OH231289   0.214   3.454   3.430 -0.2398 -0.3060  0.2155
10443TIP3    H131290   0.273   3.448   3.505  1.4366  1.0246 -0.9192
10443TIP3    H231291   0.233   3.540   3.391 -1.2566 -0.8328 -1.5796
10444TIP3   OH231292   3.481   4.362   3.640  0.1012  0.5405 -0.3719
10444TIP3    H131293   3.405   4.324   3.683  0.7870 -1.0631 -0.5132
10444TIP3    H231294   3.446   4.433   3.587 -1.0626  0.9624  0.9158
10445TIP3   OH231295   2.209   4.399   5.261 -0.6115  0.1785 -0.1693
10445TIP3    H131296   2.159   4.408   5.342  1.6426  1.8324  1.1625
10445TIP3    H231297   2.238   4.488   5.241  0.0999 -0.4302 -1.9755
10446TIP3   OH231298   4.255   1.717   4.040 -0.1811 -0.3105  0.4053
10446TIP3    H131299   4.324   1.781   4.060 -0.7724  0.5160 -0.0942
10446TIP3    H231300   4.279   1.682   3.954 -0.8463  0.6604 -0.1969
10447TIP3   OH231301   1.433   5.482   3.488  0.2555 -0.1012  0.2328
10447TIP3    H131302   1.401   5.415   3.428 -1.1397 -0.0932  0.9061
10447TIP3    H231303   1.482   5.434   3.554  0.5196 -0.2857 -0.0952
10448TIP3   OH231304   7.163   6.948   4.574 -0.1792 -0.1827  0.2258
10448TIP3    H131305   7.139   6.950   4.666 -0.0302 -1.3638  0.3098
10448TIP3    H231306   7.257   6.968   4.573 -0.1804 -0.1735  0.3276
10449TIP3   OH231307   6.681   1.703   0.124  0.3074 -0.2541 -0.0448
10449TIP3    H131308   6.635   1.644   0.184  0.0307  0.2366  0.2343
10449TIP3    H231309   6.663   1.668   0.037  0.9513 -1.1430  0.1648
10450TIP3   OH231310   6.154   5.903   1.240 -0.1887  0.2582 -0.2606
10450TIP3    H131311   6.185   5.885   1.329 -2.5796 -2.3413  0.1574
10450TIP3    H231312   6.103   5.984   1.248  0.4237  0.5840  0.4957
10451TIP3   OH231313   4.004   3.627   4.323  0.5223 -0.1838 -0.3224
10451TIP3    H131314   4.092   3.659   4.303 -0.7447  2.5197 -2.2145
10451TIP3    H231315   3.947   3.674   4.262 -2.2641 -1.8461  0.8039
10452TIP3   OH231316   3.377   4.575   4.752 -0.1435 -0.6003 -0.5444
10452TIP3    H131317   3.399   4.654   4.703 -2.2592  0.3419 -0.0615
10452TIP3    H231318   3.389   4.504   4.689  0.5536  0.2163 -1.3694
10453TIP3   OH231319   6.228   0.695   4.759  0.2440  0.9615  0.0289
10453TIP3    H131320   6.188   0.781   4.748 -0.7517  0.3344 -1.9119
10453TIP3    H231321   6.280   0.682   4.679  0.2950 -0.2527  0.2311
10454TIP3   OH231322   4.390   4.577   3.667 -0.4056 -0.5352  0.1390
10454TIP3    H131323   4.426   4.498   3.627  0.1889 -0.3141  0.2299
10454TIP3    H231324   4.319   4.603   3.609 -0.3921 -0.9479 -0.0685
10455TIP3   OH231325   1.812   2.873   5.060  0.0211 -0.3377  0.0718
10455TIP3    H131326   1.785   2.905   5.146 -0.4337 -1.7560  0.4895
10455TIP3    H231327   1.908   2.880   5.061  0.0133 -0.2286  0.6528
10456TIP3   OH231328   1.295   6.750   5.471 -0.1086 -0.2045 -0.1310
10456TIP3    H131329   1.319   6.670   5.424 -0.3286 -0.7324  0.6275
10456TIP3    H231330   1.309   6.729   5.564 -2.2365 -0.1468  0.2734
10457TIP3   OH231331   3.726   2.849   1.693 -0.4176  0.6138  0.2728
10457TIP3    H131332   3.805   2.859   1.641 -0.6115 -0.9565 -0.3701
10457TIP3    H231333   3.655   2.874   1.634 -0.4628  1.4583  0.6658
10458TIP3   OH231334   1.047   5.135   4.589 -0.4095  0.2877 -0.0845
10458TIP3    H131335   1.002   5.134   4.673 -0.0546 -0.0346  0.1058
10458TIP3    H231336   0.978   5.121   4.524 -0.6813  0.5218  0.1535
10459TIP3   OH231337   4.931   3.495   4.482  0.2264 -0.5461 -0.0362
10459TIP3    H131338   4.935   3.411   4.528 -0.4191  0.2497  1.5367
10459TIP3    H231339   5.022   3.523   4.475  0.4716 -1.4909 -0.8243
10460TIP3   OH231340   0.782   1.078   0.785 -0.0054  0.0681 -0.2167
10460TIP3    H131341   0.851   1.031   0.738 -0.9596 -0.6355 -0.9780
10460TIP3    H231342   0.795   1.170   0.761  0.8934 -0.0093 -0.0389
10461TIP3   OH231343   4.496   3.124   3.206  0.1798  0.0475  0.2761
10461TIP3    H131344   4.439   3.047   3.201  1.2730 -0.7801  0.2137
10461TIP3    H231345   4.533   3.120   3.294  0.5391  0.2844  0.1355
10462TIP3   OH231346   3.632   5.606   1.305  0.2696 -0.0471 -0.1079
10462TIP3    H131347   3.603   5.644   1.388  0.2933 -0.5398  0.1286
10462TIP3    H231348   3.649   5.514   1.325 -0.1943 -0.2863 -0.7700
10463TIP3   OH231349   0.979   3.168   6.138 -0.1131 -0.0642  0.1189
10463TIP3    H131350   0.980   3.087   6.087  0.4848 -0.3420  0.5652
10463TIP3    H231351   0.887   3.184   6.157 -0.3266 -0.1093 -0.8008
10464TIP3   OH231352   6.589   4.670   4.418 -0.2173 -0.4995 -0.3827
10464TIP3    H131353   6.621   4.727   4.348 -0.8398  0.5258  0.1325
10464TIP3    H231354   6.494   4.666   4.405 -0.5163  0.6707  1.0200
10465TIP3   OH231355   6.452   3.134   3.518 -0.3033 -0.0810 -0.2309
10465TIP3    H131356   6.460   3.126   3.613 -1.5473 -0.3725 -0.1358
10465TIP3    H231357   6.457   3.044   3.486  1.7079  0.1101 -0.6207
10466TIP3   OH231358   1.638   6.805   2.029 -0.1481  0.4200 -0.0293
10466TIP3    H131359   1.675   6.718   2.013 -0.3183  0.5020 -0.9633
10466TIP3    H231360   1.696   6.844   2.094 -0.3211 -0.5442  0.7281
10467TIP3   OH231361   3.497   4.039   1.047  0.2235 -0.0458  0.2455
10467TIP3    H131362   3.577   4.091   1.051  0.3386 -0.2734  1.7984
10467TIP3    H231363   3.527   3.948   1.045  0.0484 -0.1633  1.5689
10468TIP3   OH231364   1.078   1.612   0.117  0.2010 -0.2594  0.8787
10468TIP3    H131365   1.040   1.626   0.031 -1.5585 -1.1513  1.4621
10468TIP3    H231366   1.004   1.620   0.178  1.0072 -1.6299  2.1080
10469TIP3   OH231367   6.601   5.016   3.115 -0.2007  0.0646 -0.2964
10469TIP3    H131368   6.694   5.033   3.101 -0.5649  1.0605 -1.6285
10469TIP3    H231369   6.599   4.959   3.192  1.5797 -1.0777 -1.0402
10470TIP3   OH231370   4.486   6.697   5.699  0.0922  0.1663 -0.3859
10470TIP3    H131371   4.464   6.781   5.659  0.1169  0.0960 -0.5509
10470TIP3    H231372   4.487   6.714   5.793 -0.8185  0.1353 -0.3675
10471TIP3   OH231373   6.217   6.175   5.790 -0.0171  0.6432 -0.0485
10471TIP3    H131374   6.292   6.231   5.808  1.0990 -0.4753 -0.9936
10471TIP3    H231375   6.152   6.199   5.856  1.9347  0.2186  2.1637
10472TIP3   OH231376   3.163   0.821   5.049 -0.4152  0.3895  0.1487
10472TIP3    H131377   3.222   0.795   5.120  3.2587  0.4103 -2.6188
10472TIP3    H231378   3.133   0.738   5.011 -0.2766  0.3408  0.1455
10473TIP3   OH231379   6.474   6.786   6.047 -0.1869  0.4763  0.1450
10473TIP3    H131380   6.457   6.778   5.953  0.2403  1.2532 -0.0054
10473TIP3    H231381   6.388   6.801   6.086 -0.4313 -0.3411 -0.0586
10474TIP3   OH231382   4.687   0.272   0.992 -0.0863  0.1425  0.1382
10474TIP3    H131383   4.593   0.292   0.994 -0.5976 -2.0806  0.4066
10474TIP3    H231384   4.728   0.357   0.976 -2.1397  1.1522 -0.2083
10475TIP3   OH231385   2.649   0.228   6.155 -0.5639 -0.4378 -0.0926
10475TIP3    H131386   2.702   0.150   6.168  0.6482  0.3589 -0.1112
10475TIP3    H231387   2.561   0.203   6.184 -0.3422 -1.9894 -0.7098
10476TIP3   OH231388   1.010   6.898   5.890 -0.4505 -0.1500  0.2883
10476TIP3    H131389   0.920   6.867   5.892 -0.1903 -1.1923 -1.6840
10476TIP3    H231390   1.022   6.930   5.801  0.6225  1.6585  1.0271
10477TIP3   OH231391   0.428   6.690   3.966  0.1908 -0.4153 -0.5407
10477TIP3    H131392   0.356   6.739   4.006 -0.8415 -0.5982 -2.0836
10477TIP3    H231393   0.461   6.634   4.037 -1.0548 -0.1911  0.2470
10478TIP3   OH231394   6.308   3.785   6.205 -0.2530  0.0089 -0.2847
10478TIP3    H131395   6.289   3.692   6.192  1.9194 -0.3943 -1.0519
10478TIP3    H231396   6.278   3.826   6.124  4.3448 -1.0788 -2.9416
10479TIP3   OH231397   6.324   3.472   4.004  0.0732 -0.1427 -0.1386
10479TIP3    H131398   6.295   3.383   3.980 -1.7393 -0.6708  3.3263
10479TIP3    H231399   6.420   3.468   3.999  0.1978 -3.0908  1.9774
10480TIP3   OH231400   1.404   0.715   1.451  0.0173 -0.0757 -0.0356
10480TIP3    H131401   1.378   0.737   1.361 -0.8562  0.2403  0.2928
10480TIP3    H231402   1.324   0.721   1.502  0.7044  0.7726  0.9767
10481TIP3   OH231403   7.173   5.970   1.368  0.0486 -0.8770 -0.2311
10481TIP3    H131404   7.268   5.977   1.380 -0.1558  0.5836  0.8244
10481TIP3    H231405   7.151   6.044   1.311 -0.5613 -0.6742  0.2584
10482TIP3   OH231406   0.233   2.875   3.970 -0.4128 -0.0571  0.1546
10482TIP3    H131407   0.251   2.804   4.032 -1.6703  0.9067  1.7451
10482TIP3    H231408   0.200   2.946   4.026 -2.9300  0.4000 -1.7510
10483TIP3   OH231409   2.795   2.124   4.065  0.3491  0.3349 -0.2268
10483TIP3    H131410   2.832   2.094   3.982  0.4338 -0.1662 -0.0072
10483TIP3    H231411   2.814   2.218   4.067  1.3150  0.1452 -0.2652
10484TIP3   OH231412   6.157   2.609   6.001  0.0236  0.1768  0.0565
10484TIP3    H131413   6.124   2.562   5.924 -0.4432  0.4499  0.0863
10484TIP3    H231414   6.249   2.626   5.981 -0.7560  2.8782 -1.7901
10485TIP3   OH231415   7.115   0.520   3.339 -0.6215  0.7003 -0.0419
10485TIP3    H131416   7.159   0.600   3.311  1.4971 -0.6827 -0.9085
10485TIP3    H231417   7.060   0.547   3.412  1.6697  2.6156  1.1101
10486TIP3   OH231418   3.773   1.927   0.393  0.1759  0.1645  0.2430
10486TIP3    H131419   3.838   1.877   0.442 -0.4305 -0.9326 -0.0389
10486TIP3    H231420   3.764   2.008   0.442  1.3257  0.0925  0.6094
10487TIP3   OH231421   1.976   0.048   0.557  0.1921 -0.6083 -0.1129
10487TIP3    H131422   1.885   0.043   0.583  0.1939 -1.2914 -0.2265
10487TIP3    H231423   1.973   0.053   0.461  0.1688  2.1914 -0.0584
10488TIP3   OH231424   7.535   5.235   4.943 -0.9052 -0.1304 -0.5199
10488TIP3    H131425   7.441   5.216   4.952 -0.8036 -0.0335  1.0026
10488TIP3    H231426   7.544   5.327   4.969 -0.2495 -0.4795  0.5878
10489TIP3   OH231427   6.399   6.305   5.959  0.6908 -0.0373  0.1628
10489TIP3    H131428   6.401   6.396   5.990  0.3051 -0.6030  2.0076
10489TIP3    H231429   6.450   6.257   6.025 -0.2628 -1.3497 -0.0090
10490TIP3   OH231430   7.463   0.549   4.095  0.1504  0.5447  0.2953
10490TIP3    H131431   7.515   0.623   4.125 -1.3652  0.8889  2.2018
10490TIP3    H231432   7.383   0.588   4.061  0.4361 -0.0820 -1.1788
10491TIP3   OH231433   1.816   1.118   3.826  0.0059  0.5397 -0.5177
10491TIP3    H131434   1.890   1.073   3.785 -0.2804  0.8449 -1.3888
10491TIP3    H231435   1.793   1.187   3.764 -0.9250  0.5296 -0.1958
10492TIP3   OH231436   7.565   3.491   4.562  0.4789 -0.1259 -0.2782
10492TIP3    H131437   7.498   3.501   4.630 -0.4825 -0.1110 -1.1983
10492TIP3    H231438   7.568   3.397   4.545  1.7731 -0.3099  0.7839
10493TIP3   OH231439   0.466   4.383   4.585 -0.1515 -0.0273 -0.1651
10493TIP3    H131440   0.545   4.379   4.531 -0.4027 -0.9859 -0.4892
10493TIP3    H231441   0.417   4.305   4.561 -0.1963 -0.5766  1.5629
10494TIP3   OH231442   4.869   2.730   2.668  0.2709  0.5591 -0.1237
10494TIP3    H131443   4.915   2.741   2.585  2.2580  0.6208  0.9183
10494TIP3    H231444   4.802   2.799   2.668 -0.4308 -0.0587 -2.0457
10495TIP3   OH231445   2.161   4.607   3.494 -0.0352  0.1538 -0.5389
10495TIP3    H131446   2.232   4.582   3.435 -1.1846 -0.9588 -1.5020
10495TIP3    H231447   2.159   4.536   3.559 -0.4172  0.0457 -0.6668
10496TIP3   OH231448   5.487   3.121   3.801 -0.6105  0.0938 -0.5786
10496TIP3    H131449   5.539   3.196   3.770  2.3265 -1.8881 -0.8525
10496TIP3    H231450   5.410   3.122   3.745 -0.6135  2.7775 -0.6844
10497TIP3   OH231451   4.781   2.932   6.137 -0.3088  0.1890 -0.7571
10497TIP3    H131452   4.754   2.862   6.077 -0.8612  0.4943 -0.8727
10497TIP3    H231453   4.817   2.886   6.213  1.5775 -0.2120 -1.8092
10498TIP3   OH231454   6.209   5.134   1.966 -0.3395 -0.3441  0.0090
10498TIP3    H131455   6.128   5.149   1.919 -1.0563 -1.1890  0.9336
10498TIP3    H231456   6.245   5.221   1.981  0.4086 -0.0538 -2.8729
10499TIP3   OH231457   4.139   7.117   3.817  0.2463  0.2803 -0.3178
10499TIP3    H131458   4.227   7.080   3.806  0.2848 -0.2033  1.2875
10499TIP3    H231459   4.144   7.203   3.775  1.2180 -0.1102 -1.0340
10500TIP3   OH231460   3.237   1.307   0.507 -0.2833  0.6337  0.5200
10500TIP3    H131461   3.160   1.361   0.491  0.8654  1.8934 -1.1371
10500TIP3    H231462   3.286   1.310   0.424  1.6905  0.1369  1.6006
10501TIP3   OH231463   3.809   2.782   1.957  0.0908  0.4211 -0.2777
10501TIP3    H131464   3.842   2.693   1.961  3.4416  1.3063 -3.1834
10501TIP3    H231465   3.764   2.787   1.872 -0.0349  1.5011 -0.1616
10502TIP3   OH231466   0.985   6.241   0.041 -0.0755 -0.3537  0.5970
10502TIP3    H131467   0.901   6.206   0.073  0.4675 -1.2365  1.0909
10502TIP3    H231468   1.003   6.188  -0.037 -0.3086  0.3012  0.0938
10503TIP3   OH231469   1.370   1.866   2.228 -0.4013 -0.2882  0.4759
10503TIP3    H131470   1.331   1.867   2.141 -0.6700 -0.2065  0.5958
10503TIP3    H231471   1.300   1.834   2.285  0.2772 -1.9496  0.4291
10504TIP3   OH231472   3.857   3.138   3.795 -0.2217 -0.1286  0.0001
10504TIP3    H131473   3.877   3.159   3.704 -0.6521  1.7391  0.3090
10504TIP3    H231474   3.931   3.172   3.845  0.7610 -2.4727  0.2884
10505TIP3   OH231475   6.298   0.337   2.126 -0.1099  0.4341 -0.0196
10505TIP3    H131476   6.340   0.271   2.071  0.7868 -0.4490  1.6417
10505TIP3    H231477   6.334   0.321   2.213 -0.7707  2.3793  0.6529
10506TIP3   OH231478   3.588   5.391   3.847 -0.0998  0.2705  0.3335
10506TIP3    H131479   3.512   5.368   3.794 -0.7232 -1.2808  1.7853
10506TIP3    H231480   3.628   5.307   3.870  1.6601  1.0195  0.1866
10507TIP3   OH231481   2.534   3.181   5.840 -0.0397 -0.3377 -0.0031
10507TIP3    H131482   2.605   3.160   5.901 -1.7402 -0.5693  1.9991
10507TIP3    H231483   2.486   3.099   5.830  0.3495 -0.3850 -1.9541
10508TIP3   OH231484   5.501   1.176   1.626  0.0611  0.3786 -0.9026
10508TIP3    H131485   5.496   1.122   1.705  0.0582  0.8403 -0.5855
10508TIP3    H231486   5.463   1.121   1.557  1.3326 -0.5569 -0.8743
10509TIP3   OH231487   6.310   5.712   1.114  0.5688  0.1767  0.2984
10509TIP3    H131488   6.260   5.636   1.083  1.5040  0.2462 -1.5522
10509TIP3    H231489   6.246   5.766   1.159 -0.3821 -1.1280  0.5637
10510TIP3   OH231490   1.970   4.928   1.454  0.6045  0.0914 -0.0791
10510TIP3    H131491   1.893   4.926   1.511 -0.6169 -1.3981 -1.6666
10510TIP3    H231492   1.975   5.018   1.424 -0.7924  0.1296 -0.2631
10511TIP3   OH231493   5.592   3.310   1.945 -0.0074 -0.0873 -0.3022
10511TIP3    H131494   5.649   3.363   2.001 -0.3945  1.3300 -1.1935
10511TIP3    H231495   5.650   3.276   1.877  0.3404 -1.2801  0.5607
10512TIP3   OH231496   7.572   4.966   4.860 -0.5470  0.7004 -0.7929
10512TIP3    H131497   7.582   5.061   4.857 -1.8534  0.8949  0.0012
10512TIP3    H231498   7.600   4.941   4.948  0.9328  0.1708 -1.3832
10513TIP3   OH231499   0.756   2.167   5.010  0.1762  0.5738  0.0781
10513TIP3    H131500   0.690   2.104   4.980 -0.1847  2.5501 -3.9075
10513TIP3    H231501   0.836   2.115   5.018 -0.7711 -0.9631  0.0480
10514TIP3   OH231502   5.066   6.199   0.818 -0.4901  0.4824  0.1946
10514TIP3    H131503   5.042   6.174   0.729 -0.0908  0.1440  0.1831
10514TIP3    H231504   5.143   6.255   0.807 -0.9702  1.1797  0.2675
10515TIP3   OH231505   5.597   4.058   2.783 -0.3225 -0.2211 -0.1126
10515TIP3    H131506   5.542   4.125   2.824 -2.3754 -1.7680 -0.1743
10515TIP3    H231507   5.591   4.075   2.689  1.5042  1.1578 -0.0547
10516TIP3   OH231508   5.944   4.928   1.679  0.0066 -0.3775 -0.1721
10516TIP3    H131509   5.915   4.992   1.614  0.1094 -1.3616 -1.2317
10516TIP3    H231510   5.900   4.953   1.760 -1.2958  0.0362 -0.9787
10517TIP3   OH231511   5.359   0.473   5.595  0.4299  0.2233 -0.1495
10517TIP3    H131512   5.401   0.426   5.523  0.6752  2.7313 -1.7562
10517TIP3    H231513   5.271   0.492   5.563  0.1192  0.3044  0.7335
10518TIP3   OH231514   2.562   4.271   4.837  0.2758 -0.3976  0.1488
10518TIP3    H131515   2.580   4.245   4.746 -2.3912 -0.1582 -0.5352
10518TIP3    H231516   2.584   4.364   4.840 -1.5065  0.1102 -0.8964
10519TIP3   OH231517   1.853   1.490   3.728  0.0917 -0.0933  0.2195
10519TIP3    H131518   1.770   1.535   3.745 -0.2638 -1.3465  2.0520
10519TIP3    H231519   1.839   1.445   3.645 -0.5985  0.7460 -0.1351
10520TIP3   OH231520   0.867   3.659   5.788 -0.2988  0.2011 -0.1101
10520TIP3    H131521   0.787   3.625   5.748  0.0507 -2.1725  1.0082
10520TIP3    H231522   0.836   3.722   5.853 -1.2259 -0.0232 -0.3134
10521TIP3   OH231523   6.557   4.500   0.445  0.4696 -0.3422 -0.8266
10521TIP3    H131524   6.540   4.406   0.450 -1.0927 -0.0327  0.3267
10521TIP3    H231525   6.626   4.516   0.509  1.7020 -0.8702 -1.9783
10522TIP3   OH231526   3.378   6.486   2.781 -0.2883 -0.2746  0.1318
10522TIP3    H131527   3.423   6.507   2.699 -1.8591 -0.5528 -0.8475
10522TIP3    H231528   3.336   6.402   2.765 -1.1599 -0.0244  0.9788
10523TIP3   OH231529   0.597   5.476   5.453  0.8960 -0.6630 -0.4626
10523TIP3    H131530   0.617   5.412   5.522  0.2908 -0.5117 -0.1329
10523TIP3    H231531   0.526   5.529   5.490  0.2730 -0.8402 -1.3595
10524TIP3   OH231532   1.648   0.216   1.924  0.0024 -0.0343 -0.1636
10524TIP3    H131533   1.723   0.266   1.957 -0.0885  0.1993 -0.3092
10524TIP3    H231534   1.603   0.185   2.003 -0.2290  0.5446 -0.0665
10525TIP3   OH231535   0.710   2.081   4.727 -0.3372  0.2474 -0.2635
10525TIP3    H131536   0.781   2.019   4.746  0.1479  0.4688 -1.2906
10525TIP3    H231537   0.643   2.060   4.792  0.9897  0.5903  1.2830
10526TIP3   OH231538   6.872   1.202   0.938 -0.4083 -0.2922 -0.5161
10526TIP3    H131539   6.951   1.202   0.884 -0.2189 -0.6560 -0.2410
10526TIP3    H231540   6.831   1.287   0.920 -0.6101 -0.6009 -1.5942
10527TIP3   OH231541   4.910   4.769   2.034 -0.2549  0.2392  0.0966
10527TIP3    H131542   4.917   4.675   2.016 -1.0420 -0.0167  1.0507
10527TIP3    H231543   4.908   4.810   1.948 -2.2836 -0.8160 -0.4195
10528TIP3   OH231544   4.087   2.853   3.109 -0.0960  0.1551 -0.3327
10528TIP3    H131545   4.097   2.774   3.057 -0.3651  0.6251 -1.1113
10528TIP3    H231546   4.046   2.823   3.190  1.4095 -0.7666  0.1455
10529TIP3   OH231547   5.310   4.583   3.990  0.2621 -0.8905  0.1825
10529TIP3    H131548   5.403   4.601   3.975 -0.1397  0.6829 -0.5798
10529TIP3    H231549   5.310   4.498   4.035  2.2006  0.1768  2.4278
10530TIP3   OH231550   3.058  -0.018   6.027  0.2129  0.4982 -0.0508
10530TIP3    H131551   3.049   0.037   5.949 -0.3794  1.3492  0.5976
10530TIP3    H231552   3.130   0.022   6.076 -0.3842  0.8750  0.5458
10531TIP3   OH231553   1.134   0.498   5.101  0.2206 -0.1575  0.1459
10531TIP3    H131554   1.210   0.444   5.121  0.4078  0.4797  1.2410
10531TIP3    H231555   1.129   0.561   5.174 -0.2470  1.0193 -0.8631
10532TIP3   OH231556   2.879   4.220   3.903  0.3535  0.0827 -0.5459
10532TIP3    H131557   2.864   4.152   3.968 -2.2051  0.0868 -1.0336
10532TIP3    H231558   2.804   4.279   3.911 -0.8318 -0.6334 -4.2728
10533TIP3   OH231559   5.254   3.776   0.700 -0.5248 -0.0735  0.0856
10533TIP3    H131560   5.278   3.693   0.659  1.1629 -0.0539  0.9592
10533TIP3    H231561   5.233   3.753   0.791 -1.0173  0.3418  0.0859
10534TIP3   OH231562   0.374   6.007   2.798 -0.3862  0.2142 -0.2730
10534TIP3    H131563   0.413   5.936   2.747 -0.0895  0.2559 -0.1111
10534TIP3    H231564   0.384   5.979   2.889 -0.4675  0.3611 -0.2184
10535TIP3   OH231565   6.177   4.728   0.586  0.3998  0.2052  0.2320
10535TIP3    H131566   6.214   4.684   0.662 -0.3889 -0.4567  0.2509
10535TIP3    H231567   6.109   4.786   0.623 -0.6650 -0.8444 -0.0209
10536TIP3   OH231568   6.265   4.019   3.208 -0.5426  0.0926 -0.4731
10536TIP3    H131569   6.298   4.109   3.205  0.9709 -0.3512  1.0647
10536TIP3    H231570   6.329   3.968   3.159 -0.7750 -0.3152 -0.3598
10537TIP3   OH231571   7.016   6.796   2.408  0.0978 -0.4795 -0.0563
10537TIP3    H131572   7.047   6.844   2.484  0.2241  0.9606 -0.9800
10537TIP3    H231573   7.057   6.710   2.415  0.5424 -0.1829  1.1942
10538TIP3   OH231574   0.143   6.867   3.866 -0.8924 -0.4248 -0.6488
10538TIP3    H131575   0.194   6.801   3.818  3.3474  0.3539  2.3061
10538TIP3    H231576   0.177   6.951   3.834 -0.6235  0.1423  1.0648
10539TIP3   OH231577   1.492   0.697   0.868  0.5428 -0.3650 -0.6836
10539TIP3    H131578   1.474   0.789   0.847  0.7679 -0.4147 -1.1203
10539TIP3    H231579   1.448   0.648   0.799  1.4517 -0.5288 -1.1612
10540TIP3   OH231580   5.318   6.471   5.921 -0.1910 -0.1937  0.3375
10540TIP3    H131581   5.260   6.496   5.849  0.2737  0.7870  0.2770
10540TIP3    H231582   5.261   6.427   5.984 -0.6629 -0.7947 -0.4872
10541TIP3   OH231583   6.135   5.195   4.547  0.3404 -0.1397 -0.2443
10541TIP3    H131584   6.112   5.286   4.564  0.5242 -0.0794 -0.3208
10541TIP3    H231585   6.132   5.153   4.633 -2.1208 -0.6104 -0.4898
10542TIP3   OH231586   1.006   2.121   4.111  0.6645  0.7877  0.0003
10542TIP3    H131587   0.992   2.213   4.092  2.0050  1.0085  0.0096
10542TIP3    H231588   1.003   2.116   4.207  0.9596  0.8854  0.0148
10543TIP3   OH231589   1.736   2.714   0.227  0.0481  0.8834 -0.0382
10543TIP3    H131590   1.793   2.791   0.235 -0.4287  1.3395 -0.8570
10543TIP3    H231591   1.690   2.727   0.144  0.0463 -0.3544 -0.2440
10544TIP3   OH231592   4.456   6.613   2.180  0.1258  0.6901  0.6741
10544TIP3    H131593   4.415   6.673   2.243  0.3196  0.1082  1.3675
10544TIP3    H231594   4.542   6.593   2.219 -0.3348 -0.8299  0.9740
10545TIP3   OH231595   2.637   2.496   1.392 -0.7382 -0.0304  0.1825
10545TIP3    H131596   2.595   2.453   1.318  0.1808  1.1624 -1.0965
10545TIP3    H231597   2.570   2.499   1.460 -2.1824  0.3601 -1.2099
10546TIP3   OH231598   5.696   6.242   4.988  0.3454 -0.0195  0.0032
10546TIP3    H131599   5.694   6.165   5.045  0.4079  0.0782  0.1373
10546TIP3    H231600   5.758   6.301   5.029 -0.0632  0.3072  0.1583
10547TIP3   OH231601   4.050   2.185   2.299  0.8116 -0.5652  0.5528
10547TIP3    H131602   4.061   2.167   2.392  0.7401 -0.5830  0.5577
10547TIP3    H231603   4.068   2.101   2.256  1.4098 -0.4199  0.5099
10548TIP3   OH231604   6.398   4.080   4.426  0.2547  0.0614 -0.1867
10548TIP3    H131605   6.448   4.087   4.345  0.2428  1.9300 -0.0699
10548TIP3    H231606   6.461   4.103   4.495 -0.1450  0.0386  0.1882
10549TIP3   OH231607   2.865   1.412   6.002  0.3752 -0.4244  0.0240
10549TIP3    H131608   2.921   1.354   5.950 -0.7827 -1.7061  0.1540
10549TIP3    H231609   2.790   1.358   6.026 -0.3673  0.9115  0.8391
10550TIP3   OH231610   1.314   1.538   2.526 -0.6101  0.2899  0.4982
10550TIP3    H131611   1.409   1.537   2.515 -0.3250 -1.9798  2.3129
10550TIP3    H231612   1.287   1.449   2.506 -1.9238  0.1045  2.7780
10551TIP3   OH231613   0.323   3.394   4.069 -0.1504  0.0580  0.5266
10551TIP3    H131614   0.316   3.480   4.028  1.7704 -0.7632 -1.6914
10551TIP3    H231615   0.417   3.376   4.074 -0.4927 -2.5826 -0.6548
10552TIP3   OH231616   1.752   5.788   5.114 -0.0783 -0.1582 -0.2599
10552TIP3    H131617   1.683   5.830   5.063 -1.2818 -1.0538  0.5785
10552TIP3    H231618   1.705   5.732   5.176  1.4212 -1.3554 -0.1561
10553TIP3   OH231619   7.548   4.167   1.673  0.0935  0.3187 -0.1492
10553TIP3    H131620   7.469   4.119   1.698  0.5902 -0.5039 -0.1197
10553TIP3    H231621   7.588   4.193   1.756  0.5181 -0.3876 -0.1205
10554TIP3   OH231622   1.545   3.922   2.366  0.0125 -0.4659 -0.7744
10554TIP3    H131623   1.518   3.998   2.314  0.6476  0.2580 -0.0681
10554TIP3    H231624   1.641   3.928   2.369  0.0167 -0.7836  0.0318
10555TIP3   OH231625   5.621   4.965   2.810  0.0465  0.3037 -0.5092
10555TIP3    H131626   5.621   5.049   2.763  0.4214 -0.0040 -1.0768
10555TIP3    H231627   5.643   4.900   2.743 -1.1172 -0.3684 -0.2681
10556TIP3   OH231628   0.407   0.557   2.999  0.3816 -1.1199  0.3586
10556TIP3    H131629   0.497   0.543   2.968  1.7762  1.8888  2.5290
10556TIP3    H231630   0.415   0.562   3.094 -2.1930 -1.0849  0.6332
10557TIP3   OH231631   6.216   4.113   1.249 -0.3230  0.0663 -0.7889
10557TIP3    H131632   6.183   4.188   1.298  1.4805  0.7817 -0.5875
10557TIP3    H231633   6.265   4.152   1.176  2.3660 -0.7803  0.4396
10558TIP3   OH231634   7.024   5.319   4.498  0.7740 -0.0039  0.5545
10558TIP3    H131635   7.117   5.327   4.479  1.0189 -2.4809  0.3655
10558TIP3    H231636   7.020   5.279   4.585 -0.1429  0.7896  0.8984
10559TIP3   OH231637   2.322   3.836   1.428 -0.0288 -0.6721  0.0401
10559TIP3    H131638   2.348   3.864   1.340  0.4147 -0.3292  0.2754
10559TIP3    H231639   2.275   3.755   1.414 -1.1955  0.0974 -0.6427
10560TIP3   OH231640   3.581   0.252   1.822 -0.2747 -0.2042  0.1805
10560TIP3    H131641   3.560   0.345   1.832 -0.6410 -0.0039 -1.9016
10560TIP3    H231642   3.504   0.214   1.780  0.0933 -1.3248  0.4892
10561TIP3   OH231643   5.878   4.257   1.211 -0.2809  0.4366  1.0192
10561TIP3    H131644   5.825   4.335   1.229  1.9452  2.3638 -0.1680
10561TIP3    H231645   5.954   4.266   1.269 -0.1114 -0.9915  1.0427
10562TIP3   OH231646   4.905   1.670   5.749  0.5617 -0.1950 -0.1611
10562TIP3    H131647   4.936   1.649   5.838  1.9972 -1.1788 -0.8616
10562TIP3    H231648   4.928   1.593   5.697 -1.0438  0.0117 -1.2330
10563TIP3   OH231649   4.896   6.888   0.251  0.0346  0.3930  0.1203
10563TIP3    H131650   4.830   6.860   0.314  0.2192  1.4516  0.8042
10563TIP3    H231651   4.957   6.943   0.301  0.1029  1.3851 -0.9850
10564TIP3   OH231652   2.386   6.613   1.110  0.0708 -0.3416 -0.4359
10564TIP3    H131653   2.447   6.600   1.183  0.1793 -0.0679 -0.4773
10564TIP3    H231654   2.345   6.528   1.098  0.1739 -0.4300 -0.1620
10565TIP3   OH231655   1.889   1.442   0.466  0.5383 -0.0387 -0.2740
10565TIP3    H131656   1.953   1.495   0.512 -0.0417  0.5310 -0.0973
10565TIP3    H231657   1.812   1.441   0.524  0.2265 -0.3179 -0.6817
10566TIP3   OH231658   4.068   6.361   5.774  0.3309  0.0641  0.1235
10566TIP3    H131659   4.105   6.275   5.752  2.6734  0.7919  0.9163
10566TIP3    H231660   4.002   6.342   5.841  1.4835 -1.0992  0.9996
10567TIP3   OH231661   1.501   1.466   1.259  0.4828 -0.2202 -0.2330
10567TIP3    H131662   1.578   1.458   1.316  3.6698  0.5632 -3.9594
10567TIP3    H231663   1.459   1.547   1.287  0.4812 -1.0310  2.3865
10568TIP3   OH231664   3.622   2.795   2.163  0.2385  0.1208 -0.4438
10568TIP3    H131665   3.582   2.881   2.177 -0.1279 -0.3340  1.5941
10568TIP3    H231666   3.704   2.814   2.117 -0.1131  1.4814 -0.5656
10569TIP3   OH231667   3.406   6.657   2.528 -0.1451 -0.1661  0.1569
10569TIP3    H131668   3.436   6.608   2.451 -0.0399 -1.8558  1.2167
10569TIP3    H231669   3.462   6.734   2.530  2.4872 -1.9580  0.6317
10570TIP3   OH231670   5.932   0.062   2.204 -0.1331  0.3054 -0.2064
10570TIP3    H131671   6.014   0.083   2.160  0.2754  1.9437  1.2504
10570TIP3    H231672   5.959   0.024   2.288 -0.8552  1.1747  0.4264
10571TIP3   OH231673   6.802   6.337   0.228 -0.0713 -0.2316 -0.3278
10571TIP3    H131674   6.802   6.286   0.309  0.4549 -1.9077 -1.3310
10571TIP3    H231675   6.863   6.290   0.171 -0.7802  0.6429 -1.8593
10572TIP3   OH231676   1.687   4.894   3.849  0.0491  0.3128  0.3145
10572TIP3    H131677   1.664   4.981   3.880  0.6651  0.8438 -0.6796
10572TIP3    H231678   1.774   4.878   3.884 -0.5550 -0.4300  1.5266
10573TIP3   OH231679   3.178   1.051   4.902 -0.1572 -0.2387  0.3648
10573TIP3    H131680   3.172   0.972   4.957  1.1532 -1.3719 -1.0247
10573TIP3    H231681   3.093   1.056   4.859 -0.5935 -0.3306  1.1936
10574TIP3   OH231682   7.144   0.177   4.048 -0.3374  0.1781  0.0660
10574TIP3    H131683   7.081   0.116   4.010 -1.0317  0.9227 -0.0257
10574TIP3    H231684   7.101   0.208   4.128 -1.3896  2.7771 -1.3725
10575TIP3   OH231685   6.607   7.132   4.742 -0.1445  0.0675 -0.0002
10575TIP3    H131686   6.567   7.219   4.744  0.2192  0.2814 -1.0251
10575TIP3    H231687   6.537   7.074   4.711 -0.3628  0.0128  0.6010
10576TIP3   OH231688   3.032   4.129   4.855 -1.0288 -0.4728  0.3623
10576TIP3    H131689   3.022   4.210   4.904 -0.5910 -0.2542  0.0961
10576TIP3    H231690   3.052   4.063   4.922 -2.3599 -0.5635  0.6904
10577TIP3   OH231691   0.867   2.212   2.705  0.2841 -0.1522 -0.1363
10577TIP3    H131692   0.845   2.120   2.717 -1.1905 -0.0893 -1.9091
10577TIP3    H231693   0.962   2.212   2.695  0.3052 -1.4919 -0.1701
10578TIP3   OH231694   4.634   5.646   2.672 -0.1473 -0.0964 -0.2225
10578TIP3    H131695   4.542   5.657   2.696 -0.9217  1.7990 -3.4736
10578TIP3    H231696   4.632   5.590   2.594  1.6135 -1.0340  0.3536
10579TIP3   OH231697   4.918   3.206   3.258  0.3581  0.1459 -0.6328
10579TIP3    H131698   4.866   3.173   3.330  1.6135  0.2554  0.3588
10579TIP3    H231699   4.909   3.302   3.263  1.1004  0.1967 -0.0887
10580TIP3   OH231700   2.030   2.167   1.065 -0.2711 -0.9231 -0.1750
10580TIP3    H131701   2.095   2.125   1.009  1.6434 -0.1666  1.3684
10580TIP3    H231702   2.017   2.253   1.025  1.7431 -0.0468  0.9300
10581TIP3   OH231703   0.308   3.811   5.669  0.6774 -0.0393 -0.0275
10581TIP3    H131704   0.218   3.805   5.701  1.0256 -0.8723  0.8602
10581TIP3    H231705   0.331   3.721   5.647  1.1466  0.2375 -0.6800
10582TIP3   OH231706   3.918   4.728   3.014  0.4165 -0.6951 -0.1006
10582TIP3    H131707   3.909   4.814   3.054  1.1890 -0.9951  0.7565
10582TIP3    H231708   3.828   4.700   2.995  0.1276  0.0309  0.1818
10583TIP3   OH231709   4.467   3.242   0.506 -0.6572  0.2784  0.2894
10583TIP3    H131710   4.479   3.263   0.599  0.5126  2.0158 -0.1858
10583TIP3    H231711   4.553   3.261   0.467 -1.0827 -0.6081 -1.1128
10584TIP3   OH231712   3.700   5.980   0.059 -0.5270 -0.2882 -0.5067
10584TIP3    H131713   3.780   5.936   0.088 -0.9637 -0.5838  0.2884
10584TIP3    H231714   3.632   5.947   0.118 -0.8634  1.5157  0.1924
10585TIP3   OH231715   1.418   3.644   5.854  0.0435 -0.1667  0.0672
10585TIP3    H131716   1.451   3.558   5.828 -1.2658 -0.5898 -0.2588
10585TIP3    H231717   1.418   3.695   5.774  0.2127 -0.0651  0.1320
10586TIP3   OH231718   3.331   2.521   1.672 -0.3419  0.1336 -0.2060
10586TIP3    H131719   3.381   2.445   1.641  0.0122 -0.3380  1.4151
10586TIP3    H231720   3.241   2.488   1.683 -0.0649 -0.2667  1.0862
10587TIP3   OH231721   0.441  -0.011   1.542 -0.0027 -0.2321  0.1854
10587TIP3    H131722   0.441   0.027   1.630 -0.5946  0.2339 -0.0115
10587TIP3    H231723   0.478   0.057   1.486 -0.5659 -0.1429 -0.0834
10588TIP3   OH231724   5.648   2.097   4.734 -0.3105 -0.1155  0.1209
10588TIP3    H131725   5.660   2.157   4.660  0.4142  0.4271  0.6723
10588TIP3    H231726   5.618   2.153   4.806  0.3700 -0.4098  0.6397
10589TIP3   OH231727   5.567   1.499   3.606 -0.3102  0.3166  0.2063
10589TIP3    H131728   5.595   1.426   3.550 -0.0542 -0.0002  0.7397
10589TIP3    H231729   5.595   1.577   3.558 -1.3780  0.1129 -0.7972
10590TIP3   OH231730   5.523   6.271   2.319 -0.3358 -0.0181 -0.0417
10590TIP3    H131731   5.612   6.290   2.349  0.3173  0.5607 -2.1491
10590TIP3    H231732   5.502   6.186   2.358  1.0557 -0.0909  0.6270
10591TIP3   OH231733   3.284   4.711   2.999  0.8311 -0.2773  0.0202
10591TIP3    H131734   3.268   4.760   3.079 -0.4247  0.7241 -0.8097
10591TIP3    H231735   3.355   4.759   2.956  1.1597 -0.5267  0.2726
10592TIP3   OH231736   2.265   5.495   0.320  0.7913 -0.5149 -0.1903
10592TIP3    H131737   2.218   5.486   0.236 -0.2418 -1.6650  0.4717
10592TIP3    H231738   2.207   5.453   0.383  1.6902  0.0981  1.0664
10593TIP3   OH231739   3.759   2.823   3.532  0.2022  0.1648 -0.4497
10593TIP3    H131740   3.807   2.782   3.604  0.9981 -0.9606 -1.5615
10593TIP3    H231741   3.702   2.886   3.574  0.1171 -0.9541  1.2241
10594TIP3   OH231742   4.664   1.618   0.467 -0.0873  0.6425 -0.2778
10594TIP3    H131743   4.697   1.706   0.480 -2.2950  1.5080 -0.0064
10594TIP3    H231744   4.568   1.628   0.468 -0.4205 -1.4819 -2.0151
10595TIP3   OH231745   1.796   2.117   1.203 -0.1519  0.0883  0.3103
10595TIP3    H131746   1.767   2.208   1.208  0.4180  0.3243 -0.5769
10595TIP3    H231747   1.886   2.122   1.171  0.7554 -0.6680  2.5915
10596TIP3   OH231748   6.622   1.076   2.277 -0.3003 -0.3286 -0.0795
10596TIP3    H131749   6.563   1.010   2.241  1.7912 -1.5561 -1.4815
10596TIP3    H231750   6.692   1.026   2.319  1.1321  0.9559 -0.7996
10597TIP3   OH231751   4.294   4.030   4.071 -0.5407  0.1423  0.0406
10597TIP3    H131752   4.204   4.002   4.054 -0.6767  0.7402 -0.2396
10597TIP3    H231753   4.305   4.110   4.020 -0.0979  0.5027  0.6807
10598TIP3   OH231754   1.102   1.251   1.968  0.3295  0.2737 -0.0707
10598TIP3    H131755   1.065   1.221   2.050  0.5649  1.9435  0.6836
10598TIP3    H231756   1.195   1.266   1.987  0.4845  0.2324 -0.7665
10599TIP3   OH231757   4.021   1.402   0.304 -0.1605  0.3460  0.1680
10599TIP3    H131758   3.975   1.479   0.270 -0.4238  0.4716  0.7811
10599TIP3    H231759   3.950   1.341   0.327  0.0255  0.1306  0.1686
10600TIP3   OH231760   0.602   4.630   0.846 -0.7537 -0.2138  0.2833
10600TIP3    H131761   0.683   4.649   0.892 -0.1462  2.1707 -1.5846
10600TIP3    H231762   0.628   4.571   0.774 -1.0542 -0.9898  0.7936
10601TIP3   OH231763   1.677   2.593   3.618  0.0386  0.9224  0.4293
10601TIP3    H131764   1.752   2.546   3.582 -0.2881  0.0246  0.8917
10601TIP3    H231765   1.603   2.533   3.608 -0.7005  1.9189 -0.3205
10602TIP3   OH231766   4.010   4.113   0.367 -0.0541  0.7559  0.2249
10602TIP3    H131767   4.040   4.083   0.454 -1.3395  1.0390  0.7798
10602TIP3    H231768   3.986   4.032   0.321 -1.5207  0.7325  0.9686
10603TIP3   OH231769   0.638   1.726   2.789  0.1135 -0.1541 -0.0242
10603TIP3    H131770   0.574   1.751   2.856 -0.8828  0.9410 -1.3337
10603TIP3    H231771   0.716   1.702   2.839 -0.4300  1.1058  1.5264
10604TIP3   OH231772   3.443   7.096   5.837  0.2956 -0.1365  0.3726
10604TIP3    H131773   3.363   7.138   5.870  0.3220 -0.7078  1.1883
10604TIP3    H231774   3.514   7.153   5.869  0.2693 -0.2015  0.5498
10605TIP3   OH231775   4.887   1.224   0.648 -0.2116 -0.4507  0.2268
10605TIP3    H131776   4.863   1.242   0.739  0.0888  0.6008  0.1117
10605TIP3    H231777   4.980   1.203   0.651  0.7462  3.1036 -0.1952
10606TIP3   OH231778   3.645   7.010   5.531  0.7008  0.0117 -0.1730
10606TIP3    H131779   3.610   6.999   5.620  0.8438  1.2873  0.0501
10606TIP3    H231780   3.728   6.962   5.532  0.2186 -0.8484  0.0635
10607TIP3   OH231781   4.874   0.190   0.766 -0.4500  0.5846  0.0242
10607TIP3    H131782   4.864   0.148   0.680 -0.7577 -0.3065  0.4841
10607TIP3    H231783   4.872   0.284   0.747  0.0201  0.4026 -1.0009
10608TIP3   OH231784   6.829   2.251   0.087  0.5743 -0.3575  0.2435
10608TIP3    H131785   6.855   2.187   0.021  0.3496 -0.1997 -0.0004
10608TIP3    H231786   6.800   2.198   0.162  0.1780 -0.5416 -0.0404
10609TIP3   OH231787   0.069   5.304   2.209 -0.1289  0.3490 -0.7765
10609TIP3    H131788   0.093   5.238   2.274  0.6994 -0.4771 -1.8813
10609TIP3    H231789   0.143   5.307   2.149 -1.9169 -0.8866 -3.2099
10610TIP3   OH231790   3.118   3.850   0.545  0.1553  0.6766  0.4622
10610TIP3    H131791   3.197   3.846   0.492 -0.2815  0.2947 -0.1749
10610TIP3    H231792   3.068   3.923   0.508 -0.8923 -0.5918 -0.7349
10611TIP3   OH231793   2.809   4.687   2.484  0.2048  0.3961 -0.3672
10611TIP3    H131794   2.888   4.716   2.529  0.2235 -0.7362  0.3710
10611TIP3    H231795   2.771   4.621   2.542  0.0365 -0.8629 -1.8287
10612TIP3   OH231796   2.765   3.318   0.385 -0.0442  0.3542 -0.5181
10612TIP3    H131797   2.766   3.346   0.477 -0.4915  0.6334 -0.5932
10612TIP3    H231798   2.731   3.394   0.338  2.9700  1.3106 -1.3078
10613TIP3   OH231799   3.092   6.496   1.154  0.0321 -0.3762 -0.0985
10613TIP3    H131800   3.115   6.552   1.228  2.0388 -0.2153 -0.8060
10613TIP3    H231801   2.998   6.510   1.142 -0.0810  0.5533  1.6021
10614TIP3   OH231802   6.429   2.446   4.180  0.0936 -0.0509 -0.3118
10614TIP3    H131803   6.363   2.423   4.246  0.0264  0.9055 -0.0310
10614TIP3    H231804   6.441   2.540   4.190  3.0953 -0.4615  1.1345
10615TIP3   OH231805   4.197   5.110   2.438 -0.6038  0.1297  0.0438
10615TIP3    H131806   4.122   5.116   2.498 -1.6311 -0.4425 -1.1512
10615TIP3    H231807   4.200   5.018   2.412  1.6376 -0.2652  1.4173
10616TIP3   OH231808   0.693   4.466   5.617  0.6603 -0.6577  0.6098
10616TIP3    H131809   0.720   4.390   5.564 -0.6902 -1.0177  0.4159
10616TIP3    H231810   0.751   4.462   5.694  1.4720 -1.1336 -0.0033
10617TIP3   OH231811   6.528   2.993   1.595  0.5731  0.7041  0.4965
10617TIP3    H131812   6.536   3.038   1.679  2.3847  0.1299  0.6675
10617TIP3    H231813   6.547   3.060   1.529  2.6010  0.4236  0.7262
10618TIP3   OH231814   2.465   0.395   5.506  0.5826 -0.1178 -0.3972
10618TIP3    H131815   2.399   0.341   5.549 -0.2594  1.4072  0.2940
10618TIP3    H231816   2.479   0.468   5.566  4.3101 -1.2938  0.4131
10619TIP3   OH231817   3.175   0.551   5.948 -0.1687  0.3064  0.8608
10619TIP3    H131818   3.207   0.464   5.973 -0.4545 -0.5533 -1.4875
10619TIP3    H231819   3.252   0.607   5.952  1.0178 -0.9846 -1.4051
10620TIP3   OH231820   4.728   2.874   3.129  0.4082 -0.5713  0.1372
10620TIP3    H131821   4.723   2.951   3.185 -0.7731 -0.1442 -0.5095
10620TIP3    H231822   4.819   2.869   3.102  0.3203  1.1738 -0.5751
10621TIP3   OH231823   3.949   4.858   4.618  0.6140 -0.4974 -0.7654
10621TIP3    H131824   3.986   4.773   4.595  0.8601 -1.3280  2.3819
10621TIP3    H231825   3.863   4.837   4.656  1.1730  0.5016  1.1433
10622TIP3   OH231826   3.066   5.675   3.964 -0.4939 -0.4094  0.1598
10622TIP3    H131827   3.089   5.626   4.043  2.0973 -2.5754 -1.7191
10622TIP3    H231828   3.117   5.755   3.969  0.1593 -0.8317  0.4187
10623TIP3   OH231829   1.785   0.926   1.287  0.3970 -0.0437  0.1234
10623TIP3    H131830   1.784   0.833   1.264  2.2221 -0.5287  1.8151
10623TIP3    H231831   1.760   0.970   1.205 -0.8174 -1.9860 -0.6387
10624TIP3   OH231832   5.914   5.800   0.565 -0.0321 -0.3322  0.0404
10624TIP3    H131833   6.007   5.779   0.578  0.1247  0.1944 -0.2442
10624TIP3    H231834   5.869   5.717   0.583  0.4220 -0.3828  1.0228
10625TIP3   OH231835   3.853   4.926   1.132  0.2539  0.2570  0.8207
10625TIP3    H131836   3.894   4.880   1.205  0.6087  0.1808  0.5784
10625TIP3    H231837   3.913   4.998   1.113  0.4591 -0.0636  0.2306
10626TIP3   OH231838   3.954   3.887   4.504 -0.2101  0.1219  0.0988
10626TIP3    H131839   3.883   3.880   4.440  0.5867 -0.2718 -0.7720
10626TIP3    H231840   3.973   3.797   4.529  0.1804  0.2026  0.1009
10627TIP3   OH231841   7.411   1.913   5.364  0.3499 -0.0819  0.4018
10627TIP3    H131842   7.321   1.883   5.364  0.6412 -0.9995  0.1459
10627TIP3    H231843   7.424   1.952   5.450  0.4088 -2.2141  1.4345
10628TIP3   OH231844   1.439   0.973   0.767  0.2437 -0.5055 -0.1077
10628TIP3    H131845   1.369   1.018   0.814  0.1440 -0.7446 -0.0273
10628TIP3    H231846   1.500   1.042   0.742 -2.1230  0.5114 -4.0361
10629TIP3   OH231847   3.293   1.594   3.119  0.9789 -0.5856  0.2332
10629TIP3    H131848   3.235   1.518   3.131 -2.1926  1.8653  1.9269
10629TIP3    H231849   3.289   1.641   3.202  2.6288  1.6023 -0.8189
10630TIP3   OH231850   5.575   3.343   3.120  0.0625  0.0624  0.5079
10630TIP3    H131851   5.643   3.324   3.184  0.5907  2.6521  0.8165
10630TIP3    H231852   5.494   3.345   3.171  0.2606  0.5799  0.8003
10631TIP3   OH231853   3.392   4.320   2.454  0.1185 -0.7062 -0.1982
10631TIP3    H131854   3.302   4.337   2.483  0.7215  0.5483  1.0208
10631TIP3    H231855   3.438   4.290   2.533  0.9219 -0.7912 -0.6819
10632TIP3   OH231856   7.414   2.369   5.487  0.3220  0.3638  0.1849
10632TIP3    H131857   7.329   2.339   5.457  0.8074 -1.7580  0.7808
10632TIP3    H231858   7.477   2.328   5.428  1.0216  0.1444  1.0519
10633TIP3   OH231859   4.826   3.590   0.275 -0.1271 -0.1011  0.0507
10633TIP3    H131860   4.894   3.657   0.278  0.8555 -1.0786  0.4039
10633TIP3    H231861   4.746   3.635   0.302  1.2910 -0.0026  4.8361
10634TIP3   OH231862   0.893   4.849   2.914 -0.5898 -0.0114 -0.2891
10634TIP3    H131863   0.968   4.795   2.939 -1.9385 -1.2140  1.4101
10634TIP3    H231864   0.846   4.797   2.849 -0.7495  0.0490 -0.2241
10635TIP3   OH231865   5.767   2.913   1.570  0.0635 -0.1938 -0.0010
10635TIP3    H131866   5.779   3.008   1.565  3.1569 -0.5347 -1.7046
10635TIP3    H231867   5.729   2.898   1.657  1.3184  2.4756  1.1269
10636TIP3   OH231868   4.945   4.860   5.952 -0.0852 -0.0823  0.0420
10636TIP3    H131869   4.881   4.922   5.917 -2.9275 -1.3569  2.5655
10636TIP3    H231870   4.925   4.777   5.908 -0.6831 -0.6451  1.3243
10637TIP3   OH231871   1.102   6.253   1.920 -0.1821  0.5900 -0.2177
10637TIP3    H131872   1.097   6.323   1.985 -0.9111  1.2944 -1.0028
10637TIP3    H231873   1.021   6.204   1.932  1.0678 -1.1819  1.4514
10638TIP3   OH231874   3.745   6.826   3.445 -0.1330  0.0838  0.3129
10638TIP3    H131875   3.763   6.920   3.450 -0.2373  0.2727 -1.9278
10638TIP3    H231876   3.654   6.820   3.416 -0.2232 -0.7183  0.7397
10639TIP3   OH231877   4.981   2.396   4.195 -0.0160  0.1051  0.8033
10639TIP3    H131878   4.890   2.410   4.220 -0.7215  0.9716 -1.9229
10639TIP3    H231879   4.992   2.301   4.196 -2.1206 -0.2985 -2.2455
10640TIP3   OH231880   6.501   3.712   5.330  0.1484 -0.7428  0.3479
10640TIP3    H131881   6.547   3.630   5.342  2.5433  0.4256 -0.3048
10640TIP3    H231882   6.539   3.771   5.394  1.7169  1.0392 -2.0351
10641TIP3   OH231883   4.803   5.856   1.992  0.0386 -0.2039 -0.0699
10641TIP3    H131884   4.818   5.856   1.897 -0.7596 -1.0086 -0.2106
10641TIP3    H231885   4.747   5.780   2.007 -0.7242  0.5221  0.9034
10642TIP3   OH231886   6.634   2.306   0.299  0.3219  0.0693 -0.8020
10642TIP3    H131887   6.686   2.294   0.219  1.0406 -0.2715 -0.2902
10642TIP3    H231888   6.670   2.385   0.339  0.1840  0.0509 -0.6409
10643TIP3   OH231889   4.629   5.272   5.356 -0.6292 -0.2400 -0.0697
10643TIP3    H131890   4.647   5.240   5.268  2.5458  2.5189 -0.6470
10643TIP3    H231891   4.654   5.199   5.413 -0.5096 -1.2706 -1.3995
10644TIP3   OH231892   3.572   3.902   4.078  0.0515  0.4379 -0.5607
10644TIP3    H131893   3.536   3.832   4.133  1.4319 -0.1642 -0.4040
10644TIP3    H231894   3.546   3.983   4.124 -0.4490 -0.0001 -0.0540
10645TIP3   OH231895   0.350   0.973   5.545  0.4541 -0.0603  0.5456
10645TIP3    H131896   0.274   0.923   5.516  0.5450  0.2514 -0.2630
10645TIP3    H231897   0.333   1.062   5.514  1.6033 -0.1925 -0.5592
10646TIP3   OH231898   4.337   6.038   3.687  0.8242 -0.2962 -0.1558
10646TIP3    H131899   4.357   5.945   3.689  1.1845 -0.2385 -0.6595
10646TIP3    H231900   4.320   6.057   3.595  0.9976  0.1795 -0.0960
10647TIP3   OH231901   7.282   6.576   5.565 -0.3413 -0.2761 -0.4568
10647TIP3    H131902   7.259   6.669   5.563 -0.0507 -0.1846  0.2983
10647TIP3    H231903   7.216   6.534   5.509 -2.0683  0.0450  1.2208
10648TIP3   OH231904   3.625   1.203   1.342  0.8138  0.6049  0.0655
10648TIP3    H131905   3.659   1.153   1.416  1.1117  1.4137  0.4832
10648TIP3    H231906   3.554   1.255   1.379  1.2311  1.3216 -0.1314
10649TIP3   OH231907   1.347   5.027   5.687  0.2180 -0.1169 -0.1552
10649TIP3    H131908   1.314   4.984   5.608  0.4774 -0.9482  0.1705
10649TIP3    H231909   1.271   5.071   5.725 -0.6333 -2.2276  0.7387
10650TIP3   OH231910   6.810   3.470   3.010  0.0634  0.5621  0.2288
10650TIP3    H131911   6.813   3.512   2.924  2.3365  0.1271  0.0304
10650TIP3    H231912   6.731   3.416   3.007 -0.2010  0.9720 -1.3771
10651TIP3   OH231913   6.853   5.590   0.893 -0.7146 -0.3462  0.2540
10651TIP3    H131914   6.797   5.533   0.947  0.0563 -0.1893  1.2624
10651TIP3    H231915   6.869   5.666   0.949 -0.9592  0.4338 -0.7201
10652TIP3   OH231916   6.529   3.778   4.327 -0.2326 -0.5166  0.1347
10652TIP3    H131917   6.528   3.855   4.384 -1.3326 -0.1636 -0.3430
10652TIP3    H231918   6.612   3.735   4.347  1.4092  1.8549 -1.0152
10653TIP3   OH231919   3.983   6.693   4.594  0.1032 -0.6325  0.2116
10653TIP3    H131920   4.065   6.723   4.556  0.1683 -0.7761  0.2377
10653TIP3    H231921   3.992   6.598   4.600 -0.4535 -0.7548 -0.7146
10654TIP3   OH231922   1.342   4.724   0.944 -0.3461  0.4171 -0.3578
10654TIP3    H131923   1.391   4.783   1.002 -0.7509  1.2041 -0.7973
10654TIP3    H231924   1.406   4.694   0.880 -0.2672  0.8752 -0.4989
10655TIP3   OH231925   3.493   0.721   3.403  0.0477  0.3436 -0.0744
10655TIP3    H131926   3.575   0.702   3.447 -1.5064 -0.7292  2.5916
10655TIP3    H231927   3.483   0.816   3.410  1.1478  0.5223 -0.6875
10656TIP3   OH231928   5.986   2.329   4.431  0.1086  0.1296 -0.6555
10656TIP3    H131929   6.077   2.345   4.406  0.1370  0.5785 -0.2748
10656TIP3    H231930   5.973   2.381   4.510 -0.8517  1.1242 -1.4381
10657TIP3   OH231931   1.218   5.647   1.245  0.5190 -0.2309  0.1565
10657TIP3    H131932   1.228   5.558   1.211 -0.8806  0.2102 -1.5331
10657TIP3    H231933   1.295   5.694   1.214 -0.5452  0.0683 -2.2557
10658TIP3   OH231934   7.454   4.883   0.385 -0.5296  0.3883  0.3524
10658TIP3    H131935   7.392   4.949   0.418  1.2149  2.4337 -0.2401
10658TIP3    H231936   7.488   4.921   0.304  2.4417 -0.0186  1.3044
10659TIP3   OH231937   0.604   3.110   1.719  0.2374 -0.0029 -0.2769
10659TIP3    H131938   0.667   3.130   1.649 -0.8967  1.5108 -0.9060
10659TIP3    H231939   0.633   3.025   1.753  1.5051 -0.2297 -1.7979
10660TIP3   OH231940   5.981   1.669   2.411 -0.0611  0.0084  0.3172
10660TIP3    H131941   5.917   1.720   2.362 -0.9569 -0.9970  0.3977
10660TIP3    H231942   6.015   1.730   2.477 -1.8314  0.2656  1.0591
10661TIP3   OH231943   1.348   4.495   5.795 -0.2109  0.3298 -0.2100
10661TIP3    H131944   1.325   4.425   5.734  0.7903 -0.0717 -0.1609
10661TIP3    H231945   1.359   4.451   5.879 -1.1651  0.8116  0.1733
10662TIP3   OH231946   7.393   4.266   3.877 -0.0828  0.3134 -0.6148
10662TIP3    H131947   7.338   4.305   3.945  1.7102  0.7196  0.6815
10662TIP3    H231948   7.342   4.275   3.796 -1.1820  2.2192  0.2308
10663TIP3   OH231949   6.237   5.510   0.793 -0.0257 -0.1119  0.3628
10663TIP3    H131950   6.236   5.486   0.885 -0.4842  0.6521  0.5653
10663TIP3    H231951   6.330   5.518   0.771  0.0753  0.1861  0.8849
10664TIP3   OH231952   3.652   6.365   2.891  0.0788 -0.1045 -0.1447
10664TIP3    H131953   3.592   6.292   2.899  0.2265 -0.3260 -0.9643
10664TIP3    H231954   3.731   6.337   2.939 -0.8917  0.7133  2.0889
10665TIP3   OH231955   2.244   2.825   1.838  0.3198 -0.5011 -0.4265
10665TIP3    H131956   2.333   2.832   1.805 -0.2638  0.5955 -1.8586
10665TIP3    H231957   2.197   2.898   1.799 -1.4512 -1.6033 -0.5111
10666TIP3   OH231958   0.810   2.675   4.226  0.3985 -0.6549 -0.3225
10666TIP3    H131959   0.770   2.618   4.292  0.2906  1.5952  1.6731
10666TIP3    H231960   0.904   2.674   4.247  0.8429 -2.2011 -2.0538
10667TIP3   OH231961   3.494   5.500   0.492  0.3365  0.0435 -0.3086
10667TIP3    H131962   3.420   5.559   0.476 -1.1636 -1.6873 -0.0272
10667TIP3    H231963   3.543   5.500   0.410 -1.6310 -1.0055 -1.5587
10668TIP3   OH231964   0.269   4.765   0.155  0.2495 -0.3059 -0.3726
10668TIP3    H131965   0.217   4.817   0.094  1.2643  0.5936 -0.5013
10668TIP3    H231966   0.284   4.824   0.229  0.4406 -0.8245  0.0047
10669TIP3   OH231967   5.236   5.393   1.603 -0.3112 -0.4545 -0.2603
10669TIP3    H131968   5.209   5.416   1.691  1.4765 -0.3581  0.3085
10669TIP3    H231969   5.329   5.372   1.611 -0.0012 -0.0569 -2.1916
10670TIP3   OH231970   3.718   4.753   4.698  0.4534 -0.1680  0.0002
10670TIP3    H131971   3.718   4.661   4.723 -1.9968 -0.5469 -1.1566
10670TIP3    H231972   3.660   4.795   4.761  1.0496  0.5005  0.1209
10671TIP3   OH231973   5.430   4.945   1.832 -0.2132 -0.3179 -0.3813
10671TIP3    H131974   5.345   4.988   1.833 -0.1811 -0.2539 -0.3801
10671TIP3    H231975   5.424   4.878   1.900 -0.0999  0.0034 -0.0530
10672TIP3   OH231976   0.632   2.200   3.198 -0.0021  0.2382  0.3995
10672TIP3    H131977   0.636   2.150   3.117  0.7672  0.5292  0.2527
10672TIP3    H231978   0.647   2.290   3.172  1.2114  0.2179  0.9631
10673TIP3   OH231979   6.968   6.482   6.001  0.3689  0.8942 -0.5512
10673TIP3    H131980   7.019   6.484   6.081  0.2776  3.6382 -0.4765
10673TIP3    H231981   6.982   6.394   5.965  2.1851  0.3689  1.3056
10674TIP3   OH231982   6.456   6.301   0.434  0.1505 -0.8775 -0.2630
10674TIP3    H131983   6.373   6.348   0.443 -0.0206 -1.1356 -0.4489
10674TIP3    H231984   6.487   6.323   0.346 -0.1611 -1.4679 -0.5278
10675TIP3   OH231985   0.181   1.898   3.386 -0.1299  0.0084  0.7073
10675TIP3    H131986   0.127   1.850   3.323  0.8773 -0.5614  0.2440
10675TIP3    H231987   0.246   1.943   3.332 -0.5004  1.1633  1.2084
10676TIP3   OH231988   6.262   0.455   0.648  0.0599 -0.0548  0.9646
10676TIP3    H131989   6.171   0.458   0.618  0.4349  0.2702 -0.2054
10676TIP3    H231990   6.308   0.515   0.589  1.0288 -0.2023  1.5568
10677TIP3   OH231991   4.919   0.576   0.209  0.2653  0.3945  0.1942
10677TIP3    H131992   4.992   0.589   0.148  0.3934  1.0417  0.4801
10677TIP3    H231993   4.898   0.664   0.240 -0.1787  0.1302  0.6484
10678TIP3   OH231994   1.117   5.750   2.479 -0.0208 -0.3760 -0.1128
10678TIP3    H131995   1.174   5.827   2.488 -2.1839  1.2279  1.0239
10678TIP3    H231996   1.100   5.744   2.385 -0.4626  1.1046 -0.1621
10679TIP3   OH231997   4.929   1.263   1.371 -0.2819  0.2838 -0.6418
10679TIP3    H131998   4.861   1.314   1.327 -0.5301  1.0129  0.5635
10679TIP3    H231999   4.919   1.175   1.334 -3.3990 -0.2330  1.0793
10680TIP3   OH232000   7.440   2.162   2.588 -0.3719 -0.0967 -0.5742
10680TIP3    H132001   7.410   2.251   2.570 -0.6569 -0.2942 -1.1100
10680TIP3    H232002   7.532   2.162   2.563 -0.3753  0.0431 -0.5886
10681TIP3   OH232003   1.980   1.156   2.324 -0.1002  0.2217 -0.0886
10681TIP3    H132004   1.956   1.214   2.252 -1.7075  0.1093  0.3089
10681TIP3    H232005   2.030   1.086   2.284 -1.0273  0.1276 -1.1066
10682TIP3   OH232006   7.106   0.846   1.367  0.8055 -0.6219  0.3774
10682TIP3    H132007   7.158   0.909   1.317 -1.0277  1.1575  0.6233
10682TIP3    H232008   7.109   0.878   1.457  0.4395 -1.3174  0.6454
10683TIP3   OH232009   4.966   3.530   3.218  0.2551  0.0274  0.2483
10683TIP3    H132010   4.894   3.591   3.203 -0.5790 -1.1981 -0.9929
10683TIP3    H232011   5.042   3.573   3.178  0.0555  0.9719  0.8546
10684TIP3   OH232012   0.766   0.323   1.161  0.7033  0.1169 -0.8890
10684TIP3    H132013   0.803   0.333   1.249  0.0555  0.9635 -0.6950
10684TIP3    H232014   0.829   0.268   1.114  2.0903  1.3292 -0.5170
10685TIP3   OH232015   6.815   1.932   1.520 -0.3119 -0.0336 -0.2740
10685TIP3    H132016   6.733   1.968   1.553 -0.2510  0.3330 -0.5171
10685TIP3    H232017   6.788   1.856   1.467 -0.3926 -0.7712  0.7905
10686TIP3   OH232018   0.853   3.084   3.369  0.3365  0.7371 -0.4677
10686TIP3    H132019   0.799   3.139   3.425 -1.9937 -1.2164 -0.6494
10686TIP3    H232020   0.919   3.047   3.428  0.5734  2.0052  0.0753
10687TIP3   OH232021   6.567   3.845   3.793  0.0284 -0.8559  0.7335
10687TIP3    H132022   6.617   3.771   3.760 -0.7201 -1.2314  0.4306
10687TIP3    H232023   6.505   3.866   3.723  0.2554  0.0876  0.7960
10688TIP3   OH232024   0.463   1.917   5.515 -0.2011  0.2987 -0.1369
10688TIP3    H132025   0.478   1.946   5.425 -1.2899 -0.7073 -0.6728
10688TIP3    H232026   0.492   1.826   5.516 -3.7218 -0.9732 -0.5965
10689TIP3   OH232027   6.732   1.177   4.437 -0.9582 -0.3584  0.0073
10689TIP3    H132028   6.733   1.142   4.527  1.7343 -0.1904  0.1126
10689TIP3    H232029   6.721   1.272   4.449 -3.5765 -0.5770 -0.0606
10690TIP3   OH232030   0.282   2.271   3.030  0.0131 -0.9011 -0.2360
10690TIP3    H132031   0.342   2.211   2.985  0.7377  1.0582 -2.0612
10690TIP3    H232032   0.195   2.241   3.003  0.2192 -2.3155  0.5315
10691TIP3   OH232033   4.467   0.582   0.698  0.3601  0.0519 -0.0462
10691TIP3    H132034   4.377   0.552   0.708 -0.0836  1.5411  0.7311
10691TIP3    H232035   4.464   0.642   0.624  1.3040 -1.9770 -1.8155
10692TIP3   OH232036   3.995   1.124   4.842  0.0011 -0.2870  0.1943
10692TIP3    H132037   3.995   1.130   4.937 -2.3356  1.8767  0.1600
10692TIP3    H232038   3.962   1.209   4.812 -0.6870 -1.3971 -2.5005
10693TIP3   OH232039   4.936   0.741   5.372  0.4957 -0.2274 -0.0634
10693TIP3    H132040   4.882   0.665   5.394  0.4640 -0.2580 -0.2466
10693TIP3    H232041   5.020   0.724   5.416  0.0865  0.2211  0.9280
10694TIP3   OH232042   5.639   5.221   1.744  0.1387 -0.2087  0.3882
10694TIP3    H132043   5.679   5.135   1.754  2.2398  0.5896 -0.5890
10694TIP3    H232044   5.695   5.280   1.794 -0.4738  0.7844 -0.0664
10695TIP3   OH232045   1.658   2.329   5.041  0.1478 -0.0816  0.7336
10695TIP3    H132046   1.696   2.250   5.078  0.6513  0.2573  0.9574
10695TIP3    H232047   1.611   2.299   4.963  1.0302 -0.4870  0.3478
10696TIP3   OH232048   1.654   6.476   2.437 -0.0220  0.4677 -0.2634
10696TIP3    H132049   1.720   6.496   2.504 -0.3475  0.2834  0.1168
10696TIP3    H232050   1.589   6.422   2.482  0.2687 -0.5079 -0.9879
10697TIP3   OH232051   0.423   5.671   5.501 -0.0349  0.1959 -0.0530
10697TIP3    H132052   0.350   5.677   5.439 -0.2547  1.4861  0.3024
10697TIP3    H232053   0.461   5.758   5.502 -0.9230  0.6554  2.6836
10698TIP3   OH232054   7.160   6.002   4.060 -0.7315  0.1945 -0.4938
10698TIP3    H132055   7.242   6.001   4.110 -0.0564 -0.8016 -1.5946
10698TIP3    H232056   7.177   6.060   3.986 -0.0491 -2.1341 -2.2511
10699TIP3   OH232057   6.394   5.013   2.294  0.1193 -0.1468 -0.0328
10699TIP3    H132058   6.448   5.019   2.216  0.5770 -1.9108  0.1214
10699TIP3    H232059   6.422   5.086   2.349  0.6519  0.3657 -0.9706
10700TIP3   OH232060   6.854   5.045   5.112  0.0585 -0.1912  0.1737
10700TIP3    H132061   6.761   5.031   5.127 -0.1182 -1.0668 -1.5216
10700TIP3    H232062   6.890   4.957   5.100  1.5717 -0.0869  2.9949
10701TIP3   OH232063   0.185   0.731   0.391  0.3099  0.1639 -0.3807
10701TIP3    H132064   0.239   0.776   0.455 -1.4909  0.2180  1.1781
10701TIP3    H232065   0.178   0.641   0.423 -1.7254  0.5214  0.3482
10702TIP3   OH232066   4.864   4.302   5.526 -0.3694 -0.2189 -0.2932
10702TIP3    H132067   4.772   4.276   5.521 -0.2872 -0.3607 -3.4107
10702TIP3    H232068   4.863   4.395   5.501  0.0424  1.0494  3.7198
10703TIP3   OH232069   4.986   2.159   5.208  0.1383  0.5204  0.0927
10703TIP3    H132070   4.899   2.162   5.168  0.3268 -1.3022 -0.5321
10703TIP3    H232071   4.973   2.115   5.292  0.4398  0.3238  0.0391
10704TIP3   OH232072   2.768   5.075   1.980  0.0268  0.2098 -0.2112
10704TIP3    H132073   2.788   5.103   1.890 -0.6080 -1.2639 -0.8331
10704TIP3    H232074   2.854   5.057   2.019  0.3391  1.3292 -0.3266
10705TIP3   OH232075   4.716   5.758   3.976 -0.6455 -0.2790  0.3479
10705TIP3    H132076   4.667   5.718   3.904  0.7157  1.0776 -1.4373
10705TIP3    H232077   4.788   5.697   3.993 -0.2185  0.0127 -0.3749
10706TIP3   OH232078   6.922   2.589   0.077  0.5407 -0.1220  0.0952
10706TIP3    H132079   6.940   2.606   0.169  2.4334 -0.6330 -0.1377
10706TIP3    H232080   7.002   2.549   0.044  0.1167  0.5682 -1.9079
10707TIP3   OH232081   7.283   6.929   5.339 -0.0753  0.0319  0.3892
10707TIP3    H132082   7.261   7.008   5.388  1.6452  0.2771  0.8328
10707TIP3    H232083   7.212   6.921   5.275 -1.4687  0.6545  1.7784
10708TIP3   OH232084   6.431   1.046   5.110 -0.4982 -0.1083  0.2041
10708TIP3    H132085   6.335   1.042   5.117 -0.4727 -0.7801  0.1717
10708TIP3    H232086   6.461   1.046   5.201 -0.5348  0.3700  0.2198
10709TIP3   OH232087   4.614   0.432   4.139 -0.6916 -0.4466  0.1235
10709TIP3    H132088   4.706   0.461   4.141 -0.1015 -2.1613 -0.3342
10709TIP3    H232089   4.619   0.337   4.129 -2.5310 -0.6399  0.6191
10710TIP3   OH232090   6.894   5.824   5.856  0.2803  1.2436 -0.4438
10710TIP3    H132091   6.804   5.857   5.857  0.0587  0.6517 -0.0401
10710TIP3    H232092   6.948   5.903   5.859 -0.2361  1.5929  1.3719
10711TIP3   OH232093   1.844   2.802   5.976  0.2990  0.1704 -0.0104
10711TIP3    H132094   1.881   2.796   5.888  0.5905  0.2835  0.1009
10711TIP3    H232095   1.826   2.711   6.001 -0.9659  0.2223 -0.6732
10712TIP3   OH232096   5.301   0.444   5.954  0.3897 -0.2085 -0.2453
10712TIP3    H132097   5.288   0.539   5.955  1.0325 -0.1177 -0.3572
10712TIP3    H232098   5.212   0.408   5.956  0.1113  0.4007 -1.0469
10713TIP3   OH232099   6.535   1.379   0.904  0.2660  0.0000 -0.6709
10713TIP3    H132100   6.558   1.414   0.990 -0.9177  2.7486 -1.3394
10713TIP3    H232101   6.481   1.303   0.922 -0.6789  1.0287  1.0737
10714TIP3   OH232102   0.324   2.316   2.182  0.3880 -0.3140 -0.6108
10714TIP3    H132103   0.256   2.258   2.217  1.1088 -0.3135  0.8855
10714TIP3    H232104   0.334   2.290   2.091 -2.2774  0.3379 -1.1707
10715TIP3   OH232105   7.541   1.116   5.863  0.7044 -0.4876 -0.2912
10715TIP3    H132106   7.493   1.189   5.824  0.7828 -0.2332  0.0902
10715TIP3    H232107   7.587   1.076   5.789  1.3297  0.3592 -0.3834
10716TIP3   OH232108   1.796   5.575   2.984  0.1508 -0.0773 -0.2152
10716TIP3    H132109   1.784   5.590   2.890 -0.2028  0.5864 -0.0646
10716TIP3    H232110   1.865   5.636   3.009 -0.1881  0.1844  0.0823
10717TIP3   OH232111   5.869   1.733   1.486  0.2266 -0.5854 -0.3120
10717TIP3    H132112   5.882   1.783   1.567  2.0806 -0.8635 -0.3943
10717TIP3    H232113   5.818   1.657   1.512 -1.9589  0.8758 -0.0353
10718TIP3   OH232114   0.971   2.463   0.041  0.6636  0.2670 -0.0620
10718TIP3    H132115   0.977   2.513   0.122  0.3389 -0.1021  0.1931
10718TIP3    H232116   1.055   2.417   0.034  1.0942  1.0966 -0.4686
10719TIP3   OH232117   4.009   2.532   3.890  0.3790  0.3650  0.1445
10719TIP3    H132118   4.009   2.451   3.838  0.2116 -0.3555  1.2450
10719TIP3    H232119   4.050   2.508   3.973  1.5443  1.7480  0.0190
10720TIP3   OH232120   6.273   4.306   4.779 -0.1414 -0.4595  0.1800
10720TIP3    H132121   6.362   4.324   4.808  0.0976 -0.5913 -0.4532
10720TIP3    H232122   6.226   4.388   4.791  1.0181  0.8492 -3.0378
10721TIP3   OH232123   3.629   4.603   3.397  0.5406  0.3474  0.8525
10721TIP3    H132124   3.658   4.657   3.324 -0.7401 -1.0535 -0.7758
10721TIP3    H232125   3.707   4.592   3.452  2.0793 -0.0970 -1.2970
10722TIP3   OH232126   0.302   6.810   0.372  0.0186  0.0681 -0.1008
10722TIP3    H132127   0.389   6.793   0.408 -0.8782  0.9329  2.7401
10722TIP3    H232128   0.293   6.905   0.374 -1.5935 -0.0725  1.3229
10723TIP3   OH232129   1.685   4.268   5.389  0.0978 -0.0905 -0.1781
10723TIP3    H132130   1.770   4.270   5.433  0.1571  1.7769 -0.2994
10723TIP3    H232131   1.637   4.342   5.426 -1.3477 -0.8779 -0.3968
10724TIP3   OH232132   4.471   1.174   2.567  0.6638  0.8651 -0.2342
10724TIP3    H132133   4.550   1.208   2.610  0.1886  1.0044  0.5598
10724TIP3    H232134   4.407   1.167   2.638  0.4707 -0.8644 -0.5514
10725TIP3   OH232135   0.031   0.170   0.219  0.3619  0.0649  0.2635
10725TIP3    H132136   0.100   0.228   0.187 -0.8001  1.4845  0.2411
10725TIP3    H232137  -0.046   0.192   0.167 -0.4477 -0.6030  1.1297
10726TIP3   OH232138   5.641   4.462   3.657  0.0144  0.1310 -0.0428
10726TIP3    H132139   5.587   4.536   3.628  0.9613  0.9765  0.2529
10726TIP3    H232140   5.601   4.435   3.740 -0.6348 -0.0240 -0.3984
10727TIP3   OH232141   2.741   6.701   6.101  0.1969  0.8144 -0.6341
10727TIP3    H132142   2.832   6.697   6.131 -0.2392  0.9460  0.7896
10727TIP3    H232143   2.701   6.622   6.138 -0.7460  1.7906  0.5206
10728TIP3   OH232144   6.069   4.382   3.180 -0.5141 -0.2108  0.3484
10728TIP3    H132145   6.034   4.393   3.269  0.1073 -1.2850  0.7380
10728TIP3    H232146   6.155   4.343   3.192 -0.5638 -0.7030 -0.7402
10729TIP3   OH232147   0.241   2.580   5.886  0.1710 -0.3693  0.0755
10729TIP3    H132148   0.291   2.632   5.949 -0.7318  0.9544 -0.2762
10729TIP3    H232149   0.300   2.570   5.811 -0.5873  2.5866 -1.0260
10730TIP3   OH232150   5.090   3.826   5.051 -0.2775  0.3653 -0.1922
10730TIP3    H132151   5.126   3.739   5.038  2.2971  0.8565  2.6370
10730TIP3    H232152   5.016   3.814   5.109 -0.9716 -0.0420 -1.1327
10731TIP3   OH232153   4.034   3.018   6.058  0.0777 -0.1297 -0.0531
10731TIP3    H132154   4.026   3.100   6.010  2.5002 -0.7711 -1.7248
10731TIP3    H232155   4.006   3.040   6.147  1.3200  2.7166 -0.2525
10732TIP3   OH232156   5.626   1.936   5.814 -0.5415  0.0018  0.3286
10732TIP3    H132157   5.626   1.877   5.738  0.5069  0.9204 -0.4253
10732TIP3    H232158   5.559   2.001   5.794 -0.7256 -0.1326  0.5061
10733TIP3   OH232159   3.191   0.883   0.148 -0.2516  1.2232 -0.1225
10733TIP3    H132160   3.178   0.954   0.086 -0.1493  0.9851 -0.4199
10733TIP3    H232161   3.116   0.825   0.135 -0.7782  1.6889  0.7011
10734TIP3   OH232162   3.118   0.977   0.814 -0.4400  0.0542 -0.2837
10734TIP3    H132163   3.126   1.008   0.724  0.2633  1.5218  0.2519
10734TIP3    H232164   3.207   0.981   0.849 -0.4562 -1.7919  0.1167
10735TIP3   OH232165   4.358   4.327   6.033  0.7064  0.0351  0.4649
10735TIP3    H132166   4.307   4.255   6.071  0.8564  1.4401  3.5980
10735TIP3    H232167   4.297   4.370   5.973  0.0582 -1.6254 -0.1186
10736TIP3   OH232168   1.912   2.303   4.491  0.1267  0.4319  0.1479
10736TIP3    H132169   1.970   2.319   4.416  0.9563 -0.4595  0.5850
10736TIP3    H232170   1.866   2.386   4.503  1.8163  1.4012  0.2357
10737TIP3   OH232171   6.504   5.174   0.157  0.0515 -0.4560  0.1244
10737TIP3    H132172   6.487   5.226   0.078  0.5173 -0.7210 -0.1523
10737TIP3    H232173   6.594   5.143   0.147 -0.5267 -2.1599 -0.2200
10738TIP3   OH232174   3.688   0.382   2.545 -0.0332  0.0375 -0.2919
10738TIP3    H132175   3.653   0.385   2.456 -1.8544 -2.0717  0.2710
10738TIP3    H232176   3.626   0.433   2.597  0.6940  0.7532 -0.1101
10739TIP3   OH232177   0.070   5.212   3.148 -0.2317  0.0290  0.5126
10739TIP3    H132178   0.035   5.200   3.059  0.4334  1.4760  0.0215
10739TIP3    H232179  -0.003   5.191   3.206 -0.7074 -0.8448 -0.3747
10740TIP3   OH232180   6.406   2.129   4.659  0.0989  0.1487  0.1539
10740TIP3    H132181   6.406   2.204   4.599 -0.6518  0.5156  0.6015
10740TIP3    H232182   6.436   2.056   4.605  1.5478  0.8973 -0.1023
10741TIP3   OH232183   0.155   1.724   1.450 -0.2888  0.3321  0.8086
10741TIP3    H132184   0.212   1.726   1.527 -0.5977 -0.1942  1.0618
10741TIP3    H232185   0.070   1.752   1.483 -0.6063 -0.6228  0.8325
10742TIP3   OH232186   2.015   1.086   1.432 -0.0582  0.1933  0.1069
10742TIP3    H132187   1.929   1.047   1.416 -0.0028 -0.1756  0.6873
10742TIP3    H232188   2.076   1.031   1.382  0.0057 -0.4242  0.8331
10743TIP3   OH232189   5.415   1.574   1.440 -0.3407 -0.0270  0.0668
10743TIP3    H132190   5.433   1.655   1.487  0.5126 -0.4078  0.4337
10743TIP3    H232191   5.378   1.515   1.506 -1.0027  0.0769 -0.2089
10744TIP3   OH232192   4.104   7.013   3.468  0.3629 -0.4294  0.5494
10744TIP3    H132193   4.117   6.922   3.441  2.4305  0.1786 -0.7466
10744TIP3    H232194   4.182   7.034   3.519  0.2629  0.8159  0.2180
10745TIP3   OH232195   4.589   2.289   2.060  0.1045  0.1420 -0.1655
10745TIP3    H132196   4.579   2.336   1.978  0.9142  0.5803 -0.0268
10745TIP3    H232197   4.502   2.255   2.080 -0.5092  1.5929 -0.2658
10746TIP3   OH232198   2.579   0.095   5.403  0.1542 -0.2432  0.2808
10746TIP3    H132199   2.560   0.119   5.493  0.4063  2.5999 -0.3209
10746TIP3    H232200   2.494   0.078   5.364 -0.3851  2.2252  0.1935
10747TIP3   OH232201   5.480   4.832   0.099 -0.6218  0.3040  0.2574
10747TIP3    H132202   5.526   4.749   0.110  1.2269  1.0077 -1.3000
10747TIP3    H232203   5.392   4.808   0.072 -1.2388 -1.1224  3.1574
10748TIP3   OH232204   4.128   4.048   2.556 -0.3876 -0.7229 -0.8030
10748TIP3    H132205   4.197   4.099   2.598 -1.0609 -1.1675  0.8977
10748TIP3    H232206   4.140   3.959   2.590 -1.0964 -1.0522 -1.3896
10749TIP3   OH232207   6.929   4.936   2.172  0.0295 -0.1490  0.1076
10749TIP3    H132208   6.893   4.851   2.146 -0.1423 -0.4302  1.1978
10749TIP3    H232209   6.969   4.919   2.258  0.9871  0.6203 -0.1662
10750TIP3   OH232210   1.380   4.651   4.807  0.3816  0.5373 -0.6084
10750TIP3    H132211   1.322   4.719   4.774  1.6631  1.7865 -0.3906
10750TIP3    H232212   1.328   4.605   4.873 -1.0215  0.2797 -1.8400
10751TIP3   OH232213   4.632   4.195   1.598 -0.1462  0.3247  0.1523
10751TIP3    H132214   4.698   4.137   1.559 -0.6166 -0.8138  1.0066
10751TIP3    H232215   4.588   4.235   1.523 -1.1343 -1.9284 -0.5537
10752TIP3   OH232216   2.114   5.148   3.472 -0.3413  0.5738 -0.3845
10752TIP3    H132217   2.158   5.233   3.465 -0.3986  0.6205 -0.1922
10752TIP3    H232218   2.158   5.105   3.546  3.3870 -1.7705 -3.5578
10753TIP3   OH232219   2.542   1.762   4.861 -0.0575 -0.1389 -0.4551
10753TIP3    H132220   2.456   1.727   4.838 -0.4263  0.0929  0.4766
10753TIP3    H232221   2.594   1.685   4.883 -0.6797 -0.2001  0.9938
10754TIP3   OH232222   1.778   6.926   3.390  0.2286 -0.2337 -0.1724
10754TIP3    H132223   1.815   6.956   3.473 -0.7288  0.4085  0.0355
10754TIP3    H232224   1.694   6.888   3.413  0.7518 -1.7418 -0.6346
10755TIP3   OH232225   1.734   4.761   1.300 -0.2353 -0.2654 -0.0422
10755TIP3    H132226   1.677   4.825   1.342  0.8963  0.8671 -0.1558
10755TIP3    H232227   1.734   4.686   1.360 -2.1048 -0.4562 -0.2306
10756TIP3   OH232228   0.449   4.213   2.197 -0.0511  0.4906 -0.0401
10756TIP3    H132229   0.398   4.132   2.204 -1.5546  1.4266  0.3335
10756TIP3    H232230   0.403   4.275   2.254  1.2275  1.5340 -0.1072
10757TIP3   OH232231   1.826   2.095   1.722  0.0165 -0.9465 -0.0654
10757TIP3    H132232   1.910   2.127   1.754  0.3212 -1.2361 -0.5543
10757TIP3    H232233   1.788   2.047   1.796  0.2086 -0.6774  0.2062
10758TIP3   OH232234   4.178   2.055   3.548  0.1602  0.0740  0.1454
10758TIP3    H132235   4.094   2.073   3.589  0.2029 -0.4232  0.4575
10758TIP3    H232236   4.243   2.089   3.609  0.1737  1.5816 -0.6563
10759TIP3   OH232237   5.772   5.996   3.876 -0.6010  0.0029 -0.2071
10759TIP3    H132238   5.706   5.987   3.945 -0.7747 -0.1693 -0.3949
10759TIP3    H232239   5.855   5.993   3.923 -0.6831 -1.3154 -0.1232
10760TIP3   OH232240   5.382   5.545   2.001  0.5070 -0.2755 -0.4238
10760TIP3    H132241   5.441   5.592   2.060 -0.4316 -0.2696  0.5284
10760TIP3    H232242   5.399   5.452   2.019 -2.3697 -0.3737  2.6627
10761TIP3   OH232243   3.409   6.720   5.220 -0.2595  0.5894 -0.1696
10761TIP3    H132244   3.343   6.772   5.266 -0.1583  2.5039 -2.0084
10761TIP3    H232245   3.409   6.636   5.265 -1.5078  1.6673  2.0368
10762TIP3   OH232246   2.727   2.186   5.847 -0.5861 -0.3497  0.0413
10762TIP3    H132247   2.709   2.231   5.929 -0.8236  0.1514 -0.2814
10762TIP3    H232248   2.641   2.176   5.806 -0.2816  1.0577 -0.9958
10763TIP3   OH232249   4.016   5.081   2.622 -0.1245  0.5364  0.4771
10763TIP3    H132250   3.933   5.123   2.602  0.0815  0.4679 -0.6061
10763TIP3    H232251   3.993   5.011   2.683 -0.7680  0.8956  0.6602
10764TIP3   OH232252   6.479   4.554   1.007  0.3640  0.3197 -0.1572
10764TIP3    H132253   6.535   4.494   1.057  0.0420  0.7125  0.6990
10764TIP3    H232254   6.442   4.613   1.073  0.7707  1.5508 -0.9888
10765TIP3   OH232255   0.616   6.383   2.123 -0.1389 -0.4400 -0.0536
10765TIP3    H132256   0.638   6.383   2.029 -0.3240 -2.5698 -0.1352
10765TIP3    H232257   0.687   6.433   2.163  1.0214 -1.1445 -1.1319
10766TIP3   OH232258   0.182   6.482   3.573  0.1211 -0.1520 -0.1936
10766TIP3    H132259   0.262   6.526   3.600 -0.6634  1.1635  0.0965
10766TIP3    H232260   0.136   6.464   3.655 -1.2148  1.7881 -0.4533
10767TIP3   OH232261   6.306   6.454   2.552  0.8249  0.3146 -0.7838
10767TIP3    H132262   6.263   6.539   2.548  0.3681  0.0317 -2.6203
10767TIP3    H232263   6.234   6.391   2.543  1.3598 -0.2159 -1.3729
10768TIP3   OH232264   0.337   4.041   5.513 -0.0294 -0.2626  0.3845
10768TIP3    H132265   0.315   3.955   5.548 -2.3638 -0.1449 -0.5804
10768TIP3    H232266   0.253   4.088   5.510  0.2612  0.3319 -3.5701
10769TIP3   OH232267   1.904   5.387   1.123 -0.2038  0.1867  0.2671
10769TIP3    H132268   1.874   5.445   1.193  1.6075  0.1343  1.1339
10769TIP3    H232269   1.997   5.407   1.114  0.1109 -1.4800 -0.5102
10770TIP3   OH232270   3.135   1.096   1.876  0.3803  0.2727  0.9303
10770TIP3    H132271   3.120   1.190   1.879  1.7878  0.6851 -1.9610
10770TIP3    H232272   3.194   1.083   1.802 -0.1321 -2.9437  0.9393
10771TIP3   OH232273   7.258   4.039   5.307 -0.4647  0.3873 -0.2206
10771TIP3    H132274   7.340   4.074   5.274  0.4959 -0.3602  1.2305
10771TIP3    H232275   7.220   4.111   5.358 -0.6778  0.7075 -0.8258
10772TIP3   OH232276   1.537   3.116   4.204 -0.6441 -0.4601 -0.2819
10772TIP3    H132277   1.629   3.131   4.225 -1.2586  1.0171  1.6804
10772TIP3    H232278   1.537   3.037   4.149  1.8472  0.1215 -1.2274
10773TIP3   OH232279   3.374   5.491   4.264 -0.1977  0.6005 -0.1711
10773TIP3    H132280   3.356   5.554   4.333 -0.3898  1.1240 -0.6867
10773TIP3    H232281   3.450   5.441   4.295 -0.5781  0.5075  0.6168
10774TIP3   OH232282   2.497   4.621   5.952 -0.0075 -0.5407  0.5623
10774TIP3    H132283   2.413   4.662   5.931 -0.3309 -1.4642 -0.0141
10774TIP3    H232284   2.554   4.693   5.979 -0.8943  0.1281  0.6525
10775TIP3   OH232285   5.322   0.769   3.952 -0.2497  0.8271  0.2465
10775TIP3    H132286   5.304   0.733   4.039 -0.4105 -1.8705 -0.8090
10775TIP3    H232287   5.240   0.755   3.903  0.0949  1.5779 -0.5718
10776TIP3   OH232288   4.700   5.806   0.991 -0.4784 -0.8042  0.3865
10776TIP3    H132289   4.653   5.855   0.923 -0.5352 -2.4554 -0.8174
10776TIP3    H232290   4.703   5.716   0.958  2.0960 -1.0961  1.2087
10777TIP3   OH232291   1.600   6.226   2.175 -0.0394 -0.3050  0.0569
10777TIP3    H132292   1.537   6.298   2.178 -0.6479 -0.7929 -0.7912
10777TIP3    H232293   1.661   6.250   2.106  0.4671 -0.0477  0.5793
10778TIP3   OH232294   3.933   1.087   0.214 -0.1325 -0.2248  0.1083
10778TIP3    H132295   3.973   1.149   0.276 -0.3961  1.2350 -1.1146
10778TIP3    H232296   3.911   1.011   0.267 -1.0343  1.2540  1.9955
10779TIP3   OH232297   6.792   3.493   5.200 -0.4452  0.1092  0.1250
10779TIP3    H132298   6.775   3.486   5.106  1.4856  1.1068 -0.3516
10779TIP3    H232299   6.711   3.462   5.241 -1.2961 -0.4706 -1.8442
10780TIP3   OH232300   4.026   6.299   0.960  0.1582 -0.2962 -0.0576
10780TIP3    H132301   4.023   6.272   1.052 -0.8373 -3.8492 -0.9583
10780TIP3    H232302   4.119   6.304   0.939  0.4464  2.1835  1.4428
10781TIP3   OH232303   6.600   2.227   3.625  0.3636  0.1392 -0.7108
10781TIP3    H132304   6.608   2.170   3.548  2.7696  1.8785 -1.8779
10781TIP3    H232305   6.656   2.186   3.691 -1.8773 -1.4782  0.3281
10782TIP3   OH232306   6.264   4.941   5.178  0.2725 -0.2319  0.2558
10782TIP3    H132307   6.252   4.960   5.271 -1.3224 -1.8680  0.4476
10782TIP3    H232308   6.186   4.977   5.136 -0.1866 -1.5475 -0.0772
10783TIP3   OH232309   6.665   4.511   1.211 -0.6964  0.2088  0.1267
10783TIP3    H132310   6.707   4.426   1.223  1.3625  1.0155 -0.9854
10783TIP3    H232311   6.632   4.534   1.298 -0.4886 -1.2995  0.6379
10784TIP3   OH232312   5.560   6.964   1.338  0.1667 -0.1603 -0.3129
10784TIP3    H132313   5.527   7.013   1.413  0.9227 -1.8678  1.2060
10784TIP3    H232314   5.655   6.965   1.348  0.2751 -0.5327 -1.1614
10785TIP3   OH232315   0.100   2.531   3.738 -0.5041 -0.0438 -0.4731
10785TIP3    H132316   0.187   2.571   3.746 -1.0891  1.1967  0.0035
10785TIP3    H232317   0.091   2.511   3.645 -0.1647  0.9193 -0.7264
10786TIP3   OH232318   4.008   6.922   4.078 -0.2273  0.1311 -0.1683
10786TIP3    H132319   4.039   6.925   3.987 -1.2864 -1.3009 -0.6160
10786TIP3    H232320   3.913   6.933   4.071 -0.3090  0.0577  0.7655
10787TIP3   OH232321   1.652   5.727   3.569 -0.0613  0.2119 -0.2714
10787TIP3    H132322   1.714   5.766   3.629 -0.3707  1.8930 -0.9889
10787TIP3    H232323   1.569   5.727   3.617 -0.1735  0.9558 -0.4582
10788TIP3   OH232324   1.746   0.190   3.946  0.2852  0.0414 -0.1121
10788TIP3    H132325   1.827   0.157   3.985 -0.1780 -2.0873 -0.8062
10788TIP3    H232326   1.738   0.142   3.863 -1.6824  0.1497 -0.0348
10789TIP3   OH232327   3.907   0.970   1.503 -0.0259  0.0408  0.7196
10789TIP3    H132328   3.918   1.024   1.425  1.2853 -0.1332  0.7729
10789TIP3    H232329   3.813   0.977   1.523 -0.0491  1.5766  0.2177
10790TIP3   OH232330   1.914   4.648   1.970 -0.0851 -0.2717  0.5021
10790TIP3    H132331   1.827   4.635   2.008 -0.5655 -0.6005 -0.6738
10790TIP3    H232332   1.959   4.705   2.032 -1.9221  1.8254 -0.0007
10791TIP3   OH232333   5.811   4.207   4.021 -0.1641  0.6634  0.8803
10791TIP3    H132334   5.873   4.166   4.082 -1.6941 -0.3986  1.8019
10791TIP3    H232335   5.725   4.179   4.053 -1.1167  1.9626 -0.4460
10792TIP3   OH232336   5.520   6.960   3.812  0.1532 -0.0372 -0.0883
10792TIP3    H132337   5.539   6.949   3.905  2.4800  0.0834 -0.4973
10792TIP3    H232338   5.542   7.052   3.794 -1.8007  0.3964 -0.4620
10793TIP3   OH232339   1.995   3.811   1.923  0.0370  0.4839  0.4239
10793TIP3    H132340   2.061   3.880   1.919  0.5232 -0.0316 -1.7400
10793TIP3    H232341   2.031   3.747   1.985  2.2508 -0.3716 -1.6066
10794TIP3   OH232342   3.707   5.151   4.240 -0.0475  0.3080  0.0650
10794TIP3    H132343   3.750   5.078   4.284  0.8810  0.7636 -0.0641
10794TIP3    H232344   3.614   5.139   4.259  0.3175  0.5795  2.3250
10795TIP3   OH232345   2.103   4.552   0.521  0.6430 -0.2034 -0.1917
10795TIP3    H132346   2.013   4.525   0.502  1.0765  0.3369 -3.7694
10795TIP3    H232347   2.106   4.562   0.616 -3.7344  2.0288 -0.0722
10796TIP3   OH232348   4.100   3.610   0.493  0.0180 -0.2482 -0.2620
10796TIP3    H132349   4.022   3.665   0.499  0.3702  0.3096 -0.6690
10796TIP3    H232350   4.070   3.531   0.448 -0.0345  0.5381 -1.6595
10797TIP3   OH232351   4.075   2.729   0.157 -0.0134 -0.3586 -0.3321
10797TIP3    H132352   4.165   2.760   0.150 -0.0701 -0.2814 -0.6935
10797TIP3    H232353   4.065   2.666   0.086  0.7959 -2.9119  1.6601
10798TIP3   OH232354   5.879   2.390   2.604  0.1580  0.2137 -0.0254
10798TIP3    H132355   5.866   2.475   2.563 -1.6334  0.0104  0.0688
10798TIP3    H232356   5.883   2.409   2.698 -2.8984 -0.0077  0.2308
10799TIP3   OH232357   2.954   3.040   0.205 -0.3479 -0.5328  0.5540
10799TIP3    H132358   2.958   3.034   0.109 -2.1296  2.1602  0.1884
10799TIP3    H232359   2.867   3.007   0.227 -0.1391 -0.6524  1.2172
10800TIP3   OH232360   1.658   1.696   3.973 -0.7149  0.1322  0.8361
10800TIP3    H132361   1.736   1.744   4.002  0.2571 -0.0946 -1.2141
10800TIP3    H232362   1.599   1.762   3.939  0.1035  0.0365 -0.8485
10801TIP3   OH232363   3.432   4.088   2.290 -0.0080  0.5049 -0.0620
10801TIP3    H132364   3.419   4.032   2.366 -1.6202 -0.7754 -1.2191
10801TIP3    H232365   3.421   4.177   2.324  0.2679  0.0219  1.3632
10802TIP3   OH232366   0.114   1.145   4.538  0.3120 -0.3662 -0.0318
10802TIP3    H132367   0.132   1.239   4.532  1.6414 -0.5781  0.3967
10802TIP3    H232368   0.194   1.103   4.507 -0.0922 -1.3632  0.2470
10803TIP3   OH232369   0.037   5.104   2.452 -0.2546  0.5010  0.1526
10803TIP3    H132370   0.030   5.084   2.545 -0.1268  1.9646  0.5017
10803TIP3    H232371   0.123   5.071   2.426 -0.8731 -1.1959  0.1966
10804TIP3   OH232372   6.607   0.821   2.581  0.3661  0.2286 -0.4316
10804TIP3    H132373   6.635   0.772   2.658 -0.8135 -1.1036 -0.7844
10804TIP3    H232374   6.688   0.849   2.539  1.0664 -0.4668  0.4219
10805TIP3   OH232375   0.442   0.795   3.845  0.7154  0.0448  0.1306
10805TIP3    H132376   0.452   0.709   3.805  3.5662 -0.1309  1.0238
10805TIP3    H232377   0.368   0.785   3.905 -0.5327 -1.0310 -1.4975
10806TIP3   OH232378   5.018   7.079   0.062 -0.2630  0.1433 -0.7451
10806TIP3    H132379   5.043   7.134   0.136 -0.8686  0.6500 -0.9018
10806TIP3    H232380   4.935   7.039   0.088 -0.4112  0.2183 -1.0892
10807TIP3   OH232381   5.020   5.913   1.417 -0.1055  0.7380 -0.4495
10807TIP3    H132382   4.979   5.923   1.331  0.1159  0.6456 -0.5643
10807TIP3    H232383   4.946   5.912   1.478 -0.3071  0.1388 -0.6932
10808TIP3   OH232384   2.366   2.329   6.072  0.2103  0.2834 -0.4237
10808TIP3    H132385   2.273   2.346   6.059  0.2586  1.3363  0.4416
10808TIP3    H232386   2.385   2.254   6.016 -1.3081 -0.3975 -0.0804
10809TIP3   OH232387   7.126   3.570   3.658 -0.0760  0.7039 -0.0416
10809TIP3    H132388   7.109   3.628   3.732 -1.0306  2.5791 -1.6107
10809TIP3    H232389   7.093   3.619   3.582  0.1316 -1.4526 -1.6120
10810TIP3   OH232390   1.274   6.072   1.739  0.5678  0.0784  0.3466
10810TIP3    H132391   1.245   6.152   1.782  2.9453  0.9434  0.4363
10810TIP3    H232392   1.363   6.058   1.769  0.1365 -2.8210  0.5815
10811TIP3   OH232393   4.995   4.519   1.944 -0.4590 -0.7901 -0.4870
10811TIP3    H132394   4.976   4.565   1.863  1.5583  0.0203 -0.5522
10811TIP3    H232395   5.035   4.437   1.916  0.6781 -0.3011 -0.3251
10812TIP3   OH232396   4.044   4.979   1.853  0.1214  0.4110  0.1895
10812TIP3    H132397   4.125   4.931   1.872 -0.2824  0.1009  1.2219
10812TIP3    H232398   3.981   4.945   1.916 -0.1320  2.4443  1.1246
10813TIP3   OH232399   0.030   2.072   3.021 -0.9496  0.0588  0.3141
10813TIP3    H132400   0.013   2.166   3.026  0.0087  0.2352  0.5018
10813TIP3    H232401  -0.015   2.044   2.941 -1.9990  0.4936  0.7352
10814TIP3   OH232402   6.546   0.629   4.384  0.1998 -0.3120 -0.3606
10814TIP3    H132403   6.628   0.601   4.344  0.6366 -0.8655  0.8747
10814TIP3    H232404   6.565   0.716   4.420  0.4722 -0.7425  0.5551
10815TIP3   OH232405   2.193   2.277   2.219  0.5146  0.1182  0.7458
10815TIP3    H132406   2.194   2.321   2.134 -0.6634  1.2138  1.2625
10815TIP3    H232407   2.133   2.203   2.207 -1.2294  1.4194  1.1228
10816TIP3   OH232408   7.147   6.503   5.334  0.0666 -0.0564 -0.6387
10816TIP3    H132409   7.073   6.444   5.321  1.8397 -2.3351 -0.8797
10816TIP3    H232410   7.220   6.461   5.289  1.0773  3.2389 -2.4074
10817TIP3   OH232411   2.075   1.365   2.821  0.3232 -0.2616  0.6552
10817TIP3    H132412   2.046   1.319   2.743 -2.7491 -0.3698  1.7373
10817TIP3    H232413   2.083   1.456   2.794  0.4264 -0.4706 -0.0285
10818TIP3   OH232414   2.506   6.582   2.539 -0.2849 -0.1637  0.0919
10818TIP3    H132415   2.490   6.676   2.542 -1.2903 -0.3059 -0.3127
10818TIP3    H232416   2.461   6.547   2.616  1.1434 -0.1960  0.9518
10819TIP3   OH232417   0.157   0.789   5.264  0.2280 -0.8865  0.0915
10819TIP3    H132418   0.091   0.742   5.212 -1.2448  0.0442  1.0345
10819TIP3    H232419   0.224   0.724   5.282 -1.4573 -2.4906  0.8533
10820TIP3   OH232420   7.288   2.052   0.523  0.3393  0.1575 -0.4399
10820TIP3    H132421   7.359   2.064   0.461  0.0844 -1.7685 -1.1794
10820TIP3    H232422   7.331   2.042   0.608  0.8355  0.5667 -0.6405
10821TIP3   OH232423   7.368   6.223   3.419 -0.1587  0.3931  0.1062
10821TIP3    H132424   7.392   6.251   3.508 -0.1698 -1.5672  0.7976
10821TIP3    H232425   7.450   6.226   3.370  0.7291 -2.0419  1.2558
10822TIP3   OH232426   0.365   6.726   1.438  0.0806  0.9201 -0.2543
10822TIP3    H132427   0.349   6.758   1.526  2.5034 -2.2813  1.5857
10822TIP3    H232428   0.453   6.756   1.416  0.5429 -0.4748 -0.4139
10823TIP3   OH232429   3.641   7.179   1.489 -0.3997 -0.2113  0.2061
10823TIP3    H132430   3.672   7.089   1.497 -2.1840 -0.8108  0.9344
10823TIP3    H232431   3.554   7.178   1.529  0.0020  2.1141  1.3264
10824TIP3   OH232432   2.129   1.427   0.302  0.4491 -0.1275  0.4697
10824TIP3    H132433   2.086   1.501   0.343 -1.2854  0.1471 -1.6581
10824TIP3    H232434   2.069   1.354   0.315 -0.1629 -0.0321 -1.4299
10825TIP3   OH232435   7.546   5.615   2.719 -0.3471 -0.3901  0.1133
10825TIP3    H132436   7.594   5.536   2.694  0.7483  0.0514  0.7175
10825TIP3    H232437   7.511   5.595   2.806  0.5256  0.0092  0.5756
10826TIP3   OH232438   1.308   5.263   4.537 -0.1290 -0.3197 -0.5533
10826TIP3    H132439   1.377   5.196   4.537  0.3887  0.0837  2.1253
10826TIP3    H232440   1.234   5.222   4.582 -0.5030  0.2584 -0.6246
10827TIP3   OH232441   4.360   4.345   4.583 -0.1191 -0.6056  0.4844
10827TIP3    H132442   4.271   4.370   4.608  0.1196  0.1398  0.6272
10827TIP3    H232443   4.349   4.290   4.506 -0.7226 -0.8747  0.7521
10828TIP3   OH232444   6.538   0.921   0.348  0.1483  0.0918  0.5941
10828TIP3    H132445   6.578   1.000   0.384  2.7469  0.9702 -3.5547
10828TIP3    H232446   6.454   0.950   0.312  0.2903  0.5719  0.6472
10829TIP3   OH232447   1.799   3.597   1.606 -0.9900  0.4199 -0.9971
10829TIP3    H132448   1.740   3.540   1.655  1.3057 -0.2215  1.2706
10829TIP3    H232449   1.760   3.684   1.612 -1.9727 -0.0659 -0.0258
10830TIP3   OH232450   3.715   3.458   1.367  0.3257  0.4982 -0.3143
10830TIP3    H132451   3.700   3.465   1.273  1.9351 -0.8691 -0.7187
10830TIP3    H232452   3.789   3.516   1.384 -0.2130  1.0480  0.1973
10831TIP3   OH232453   5.441   3.275   4.393 -0.3769  0.5575 -0.5004
10831TIP3    H132454   5.355   3.232   4.388 -0.4976  0.5832  0.9223
10831TIP3    H232455   5.496   3.226   4.332 -1.4706  0.7377 -1.6769
10832TIP3   OH232456   4.536   6.244   2.808 -0.3919  0.2208  0.2082
10832TIP3    H132457   4.598   6.317   2.804  0.6701 -0.6385  0.4773
10832TIP3    H232458   4.512   6.228   2.716 -0.4675  0.7681  0.1291
10833TIP3   OH232459   2.685   3.719   1.532  0.2241  0.3097  0.2144
10833TIP3    H132460   2.720   3.653   1.591  0.1559  0.7215  0.7245
10833TIP3    H232461   2.620   3.766   1.584 -0.5616  0.0357 -0.4916
10834TIP3   OH232462   0.738   2.745   4.687 -0.1144 -0.2866 -0.4989
10834TIP3    H132463   0.779   2.831   4.692  0.6370 -0.5890 -1.4091
10834TIP3    H232464   0.706   2.738   4.597 -0.9585 -0.6145 -0.1895
10835TIP3   OH232465   1.839   3.400   3.527 -0.2946 -0.2581 -0.1738
10835TIP3    H132466   1.778   3.326   3.527 -0.3834 -0.1922  0.7610
10835TIP3    H232467   1.899   3.381   3.455 -0.3163 -1.2360  0.0576
10836TIP3   OH232468   3.802   2.355   2.175  0.1588 -0.2718  0.6734
10836TIP3    H132469   3.755   2.273   2.158  0.4219 -0.0075 -1.5630
10836TIP3    H232470   3.889   2.327   2.205  0.6264 -0.8717 -1.1397
10837TIP3   OH232471   4.312   0.873   5.783  0.1086 -0.3813  0.9008
10837TIP3    H132472   4.263   0.824   5.850 -0.6695 -1.2657 -0.2793
10837TIP3    H232473   4.292   0.828   5.701  0.7842  0.8780  0.0143
10838TIP3   OH232474   7.220   1.498   2.933 -0.0167  0.1452 -0.4347
10838TIP3    H132475   7.314   1.519   2.931  0.0766  0.0079  1.1137
10838TIP3    H232476   7.181   1.557   2.869  1.0035  0.9140 -0.3721
10839TIP3   OH232477   0.175   5.837   4.680 -0.8276  0.2410  0.2931
10839TIP3    H132478   0.222   5.919   4.692 -0.0297  0.0837 -1.4064
10839TIP3    H232479   0.238   5.769   4.702 -0.4943  0.0488 -1.1450
10840TIP3   OH232480   7.584   2.768   1.501  0.3266  0.2913 -0.7081
10840TIP3    H132481   7.514   2.818   1.543 -0.3510 -1.1490 -0.0606
10840TIP3    H232482   7.635   2.834   1.453  1.0264  1.9998  2.1511
10841TIP3   OH232483   4.771   4.311   3.173  0.1097 -0.5275 -0.0277
10841TIP3    H132484   4.803   4.401   3.166 -2.8939  0.6600 -0.0152
10841TIP3    H232485   4.692   4.310   3.118 -1.0418 -2.5685  1.5271
10842TIP3   OH232486   0.869   0.959   1.675 -0.7147 -0.2516 -0.1564
10842TIP3    H132487   0.796   0.924   1.725 -3.0418  1.7777 -1.9179
10842TIP3    H232488   0.906   1.027   1.732 -1.4063 -0.0098  0.0104
10843TIP3   OH232489   3.690   5.679   0.063  0.3783 -0.0165  0.4608
10843TIP3    H132490   3.737   5.608   0.106 -0.4817  0.2906  1.9712
10843TIP3    H232491   3.598   5.655   0.070  0.1719  0.3924 -0.6255
10844TIP3   OH232492   1.701   4.498   2.172 -0.5255 -0.4665  0.6092
10844TIP3    H132493   1.610   4.521   2.151 -0.4610 -1.1789 -0.5103
10844TIP3    H232494   1.694   4.439   2.247 -1.2263 -2.7090 -1.1203
10845TIP3   OH232495   7.266   6.315   0.577  0.2697  0.7091 -0.0883
10845TIP3    H132496   7.253   6.365   0.658  0.2114  2.2957 -1.0490
10845TIP3    H232497   7.328   6.246   0.602  1.2768  1.9562  1.0110
10846TIP3   OH232498   3.607   6.402   0.717  0.6544 -0.2950  0.5644
10846TIP3    H132499   3.663   6.329   0.689  2.0271  0.7743  0.4426
10846TIP3    H232500   3.652   6.480   0.686 -1.5952  0.5660 -0.7076
10847TIP3   OH232501   6.554   1.513   1.126  0.0708  0.1569  0.5490
10847TIP3    H132502   6.595   1.599   1.122 -0.5469  0.4136 -0.7539
10847TIP3    H232503   6.475   1.527   1.178  0.4127  0.1783  1.0702
10848TIP3   OH232504   4.870   3.292   3.723 -0.3782 -0.2317  0.1224
10848TIP3    H132505   4.925   3.354   3.676 -0.3686  0.2988  0.8097
10848TIP3    H232506   4.791   3.343   3.745 -1.3375 -1.0840 -1.1894
10849TIP3   OH232507   6.678   5.461   1.094  0.3268  0.6539  0.6714
10849TIP3    H132508   6.646   5.410   1.020  0.1089  2.9087 -0.8947
10849TIP3    H232509   6.638   5.419   1.170 -0.3144 -1.0989 -0.5488
10850TIP3   OH232510   6.088   1.934   2.849 -0.2812  0.1268  0.5792
10850TIP3    H132511   6.081   1.967   2.938 -1.0188  0.8487  0.2721
10850TIP3    H232512   6.122   2.009   2.799  2.0764 -0.8580  0.5765
10851TIP3   OH232513   0.493   4.161   5.899  0.1410  0.1743  0.8927
10851TIP3    H132514   0.492   4.223   5.972 -1.3219  0.0612  0.9936
10851TIP3    H232515   0.438   4.202   5.832  1.0022  0.0101  0.0661
10852TIP3   OH232516   0.333   1.616   4.840 -0.6377  0.2596  0.2890
10852TIP3    H132517   0.309   1.534   4.883 -0.5931 -0.0972 -0.3487
10852TIP3    H232518   0.266   1.628   4.773  1.2026 -1.1036 -1.9661
10853TIP3   OH232519   2.356   5.913   5.907 -0.5618  0.1137  0.2116
10853TIP3    H132520   2.386   5.891   5.819  0.6830  0.1917  0.5945
10853TIP3    H232521   2.433   5.950   5.950 -0.9844 -0.4843  1.5371
10854TIP3   OH232522   1.245   0.815   1.888 -0.5545 -0.1100 -0.9047
10854TIP3    H132523   1.265   0.847   1.800  1.3859  0.7572 -0.2090
10854TIP3    H232524   1.331   0.795   1.926 -1.4635 -2.5836  0.0541
10855TIP3   OH232525   1.905   2.635   2.638 -0.4218 -0.2378  0.0298
10855TIP3    H132526   1.927   2.592   2.720  1.7954  2.2680  0.8976
10855TIP3    H232527   1.862   2.716   2.664  1.8801  1.4665 -1.0531
10856TIP3   OH232528   5.370   1.147   0.995  0.3005 -0.1395  0.4866
10856TIP3    H132529   5.297   1.115   1.047  1.6414 -1.1585  1.8115
10856TIP3    H232530   5.399   1.071   0.945 -0.8208  0.7586 -1.6956
10857TIP3   OH232531   5.357   4.778   5.150  0.2947  0.0816  0.1976
10857TIP3    H132532   5.324   4.697   5.188 -0.5326  0.7962  1.0684
10857TIP3    H232533   5.393   4.826   5.225 -0.6002  1.1641 -0.0359
10858TIP3   OH232534   0.871   4.530   0.939  0.5977  0.2140 -0.0530
10858TIP3    H132535   0.840   4.442   0.958  0.7935  0.6652  2.8768
10858TIP3    H232536   0.956   4.536   0.984  0.3198  2.0489  0.3319
10859TIP3   OH232537   5.606   4.427   1.077 -0.2893 -0.3976 -0.1104
10859TIP3    H132538   5.638   4.416   1.166  0.5046  1.1227 -0.1800
10859TIP3    H232539   5.516   4.392   1.080 -0.0090 -1.0935  1.0639
10860TIP3   OH232540   2.943   0.154   0.737 -0.2973  0.3138  0.3003
10860TIP3    H132541   2.875   0.220   0.725 -0.5854 -0.1371 -0.5514
10860TIP3    H232542   2.925   0.087   0.671 -0.2933 -0.8646  1.4516
10861TIP3   OH232543   2.833   3.674   6.017  0.0953 -0.3297  0.0919
10861TIP3    H132544   2.742   3.694   5.995 -0.2002  0.6249  1.9620
10861TIP3    H232545   2.829   3.636   6.105  1.4758 -0.6584  0.0377
10862TIP3   OH232546   3.459   5.021   4.333  0.6240 -0.2560 -0.2873
10862TIP3    H132547   3.461   4.938   4.382 -0.2286  0.4773  1.0587
10862TIP3    H232548   3.423   4.997   4.248  0.9572 -1.3640 -0.1422
10863TIP3   OH232549   6.175   4.548   4.866 -0.4719  0.1307 -0.1235
10863TIP3    H132550   6.229   4.621   4.835  2.0259 -1.4288  0.2450
10863TIP3    H232551   6.180   4.554   4.962 -1.2935  0.1824 -0.0808
10864TIP3   OH232552   4.992   0.957   4.151 -0.3585 -0.2991  0.2208
10864TIP3    H132553   5.043   1.034   4.176  0.0594 -0.5771  0.2166
10864TIP3    H232554   4.968   0.973   4.059 -0.1248 -0.2569  0.1682
10865TIP3   OH232555   4.627   0.814   0.243  0.0244  0.0156 -0.1080
10865TIP3    H132556   4.644   0.795   0.151  1.3432 -0.9406  0.3036
10865TIP3    H232557   4.545   0.769   0.262  1.0058 -1.9211 -0.2134
10866TIP3   OH232558   4.884   1.404   3.030 -0.4805  0.0520 -0.6755
10866TIP3    H132559   4.897   1.454   3.110 -2.9411 -0.2929  0.0111
10866TIP3    H232560   4.887   1.312   3.059  0.5190 -0.1403 -1.3328
10867TIP3   OH232561   1.583   5.228   4.706 -0.2409 -0.4726  1.2437
10867TIP3    H132562   1.545   5.164   4.646  1.0196  1.4873 -1.9285
10867TIP3    H232563   1.509   5.264   4.753 -1.3119 -2.0895  0.8803
10868TIP3   OH232564   1.589   2.879   3.060  0.1466 -0.0198  0.2175
10868TIP3    H132565   1.673   2.844   3.091  0.6773  0.7908 -0.2388
10868TIP3    H232566   1.589   2.970   3.088 -1.3372 -0.4125  1.6303
10869TIP3   OH232567   2.992   2.799   4.892 -0.0505  0.4434 -0.0281
10869TIP3    H132568   2.941   2.848   4.956  0.8480  0.5591  0.6142
10869TIP3    H232569   2.929   2.774   4.824 -0.8394  1.0463  0.4789
10870TIP3   OH232570   0.684   1.010   4.107 -0.1037  0.3730  0.2137
10870TIP3    H132571   0.707   1.067   4.181 -2.0385  2.5266 -0.7322
10870TIP3    H232572   0.642   0.934   4.148 -0.4318  1.1577  1.3835
10871TIP3   OH232573   2.483   3.793   5.673  0.2754 -0.4240 -0.6090
10871TIP3    H132574   2.404   3.745   5.648 -2.5227  2.5215  1.7019
10871TIP3    H232575   2.452   3.881   5.694  4.1330  0.7815  0.9320
10872TIP3   OH232576   4.348   2.936   1.391 -0.4223 -0.2617 -0.0496
10872TIP3    H132577   4.352   2.983   1.474  0.2930 -0.9238  0.3071
10872TIP3    H232578   4.406   2.861   1.403 -2.6649 -2.0876 -0.0826
10873TIP3   OH232579   2.678   4.950   2.939 -0.0296  0.0079  0.1201
10873TIP3    H132580   2.723   4.920   3.018  0.1453  0.6293  0.2686
10873TIP3    H232581   2.747   4.985   2.883 -0.1727 -0.2738 -0.2335
10874TIP3   OH232582   0.057   2.729   3.116 -0.5550 -0.0448 -0.0499
10874TIP3    H132583   0.129   2.761   3.171 -0.4818 -0.8563  0.3349
10874TIP3    H232584   0.047   2.797   3.049  1.0956 -0.2980 -0.6018
10875TIP3   OH232585   6.650   1.005   0.021 -0.2578 -0.9747 -0.0283
10875TIP3    H132586   6.560   0.985   0.047 -0.3597  1.0716  1.4429
10875TIP3    H232587   6.652   1.101   0.014  1.8428 -0.9618  0.1369
10876TIP3   OH232588   3.397   5.643   1.159  0.0575 -0.0470 -0.1315
10876TIP3    H132589   3.470   5.609   1.211  0.7077  2.2275  0.5459
10876TIP3    H232590   3.418   5.618   1.069  1.4957  0.2382  0.1017
10877TIP3   OH232591   6.551   1.264   2.091  0.1241  0.2933  0.0828
10877TIP3    H132592   6.594   1.193   2.139 -0.1197 -0.9217 -1.4027
10877TIP3    H232593   6.502   1.312   2.158  1.0284 -0.3629  1.2671
10878TIP3   OH232594   4.462   3.867   4.544  0.0059 -0.1915  0.0611
10878TIP3    H132595   4.440   3.780   4.511  1.9093 -0.5054 -0.5424
10878TIP3    H232596   4.458   3.924   4.467  0.6199 -0.1365  0.0644
10879TIP3   OH232597   1.590   0.599   0.352 -0.1750 -0.1231 -0.3789
10879TIP3    H132598   1.578   0.669   0.416  0.1275 -0.3917 -0.0231
10879TIP3    H232599   1.607   0.645   0.270 -0.6033  0.2245 -0.2776
10880TIP3   OH232600   4.378   7.014   3.137  0.3569 -0.0630 -0.1257
10880TIP3    H132601   4.399   7.100   3.173 -0.2975 -0.0098  0.1419
10880TIP3    H232602   4.403   7.020   3.045 -0.5448  0.7302 -0.3301
10881TIP3   OH232603   3.293   1.161   2.437 -0.2142 -0.7681 -0.2346
10881TIP3    H132604   3.260   1.139   2.524 -1.3430 -1.0287 -0.7032
10881TIP3    H232605   3.385   1.181   2.450 -1.0211  2.4979  1.6059
10882TIP3   OH232606   0.377   0.342   1.791  0.3711 -0.3131  0.1161
10882TIP3    H132607   0.325   0.418   1.765 -1.2015 -1.4678 -0.3112
10882TIP3    H232608   0.467   0.365   1.768 -0.1993  1.0214 -0.9282
10883TIP3   OH232609   6.758   0.440   3.379  0.2803 -0.0886 -0.3527
10883TIP3    H132610   6.844   0.410   3.350  0.5526  0.1071  0.2440
10883TIP3    H232611   6.708   0.360   3.392  1.1972 -0.3790  1.8422
10884TIP3   OH232612   5.477   0.548   3.300 -0.2671 -0.1022  0.0335
10884TIP3    H132613   5.538   0.525   3.371  0.5200 -2.5604 -1.3078
10884TIP3    H232614   5.440   0.464   3.273 -0.4184  0.7403 -2.5731
10885TIP3   OH232615   2.560   4.829   5.116 -0.0942 -0.0279 -0.0929
10885TIP3    H132616   2.496   4.898   5.132 -1.3758 -0.8029 -1.6407
10885TIP3    H232617   2.512   4.762   5.067  0.7279 -2.5963  2.3119
10886TIP3   OH232618   2.728   3.610   2.655  0.0273 -0.1715  0.0765
10886TIP3    H132619   2.778   3.627   2.575  2.1452 -1.5632  1.0352
10886TIP3    H232620   2.652   3.668   2.647  2.2468  2.8643 -0.9906
10887TIP3   OH232621   5.279   1.901   2.665 -0.1195  0.3018 -0.1682
10887TIP3    H132622   5.319   1.901   2.752  2.3617  2.1521 -1.1716
10887TIP3    H232623   5.296   1.813   2.630  0.2946  0.0634  0.6220
10888TIP3   OH232624   4.659   4.416   3.707 -0.7106  0.3275 -0.0039
10888TIP3    H132625   4.630   4.325   3.717  1.0751 -0.0539  2.7969
10888TIP3    H232626   4.663   4.450   3.796  1.5374  2.1734 -0.7037
10889TIP3   OH232627   3.586   5.290   5.288  0.6991 -0.0098 -0.0090
10889TIP3    H132628   3.638   5.371   5.281  1.6679 -0.6803 -0.9505
10889TIP3    H232629   3.526   5.306   5.361  2.1638  0.8477  1.0626
10890TIP3   OH232630   0.224   2.043   1.967  0.3336 -0.8185 -0.1908
10890TIP3    H132631   0.169   2.039   2.046 -0.6060  0.7994 -0.7086
10890TIP3    H232632   0.166   2.016   1.896 -0.4286  2.3816 -0.9768
10891TIP3   OH232633   2.093   0.116   5.413 -0.2787  0.3969 -0.1142
10891TIP3    H132634   2.061   0.160   5.334  0.2020 -2.4968 -2.0910
10891TIP3    H232635   2.032   0.043   5.426  1.0938 -0.6568  0.6551
10892TIP3   OH232636   3.175   1.380   5.939  0.3163 -0.2445  0.1140
10892TIP3    H132637   3.262   1.350   5.914  0.1893 -1.2602  0.8216
10892TIP3    H232638   3.187   1.425   6.023  0.0588 -1.1571  0.6600
10893TIP3   OH232639   5.960   5.034   1.136 -0.1995 -0.7055 -0.1010
10893TIP3    H132640   5.865   5.041   1.145 -0.3489 -2.1877 -0.3095
10893TIP3    H232641   5.986   5.112   1.086 -1.3286 -0.4194 -0.2527
10894TIP3   OH232642   6.538   0.637   2.263  0.0217 -0.4128  0.0231
10894TIP3    H132643   6.538   0.550   2.302 -0.7763 -0.0616  0.8468
10894TIP3    H232644   6.630   0.663   2.261  0.0049  0.2535  3.3371
10895TIP3   OH232645   1.817   3.978   2.267  0.2789  0.3571 -0.1008
10895TIP3    H132646   1.878   3.908   2.290 -1.9038 -1.2770  1.1176
10895TIP3    H232647   1.856   4.020   2.190  3.0927 -0.2959  0.8411
10896TIP3   OH232648   0.673   2.396   2.691 -0.2945  0.2249 -0.0294
10896TIP3    H132649   0.683   2.490   2.676 -1.3212  0.2887 -0.3821
10896TIP3    H232650   0.762   2.362   2.687  0.3915  1.5093  2.5231
10897TIP3   OH232651   3.288   5.023   2.777  0.0617 -0.0622  0.0857
10897TIP3    H132652   3.243   5.100   2.742  0.8565  0.9256  1.1222
10897TIP3    H232653   3.218   4.963   2.803 -0.8104  1.8287  2.5696
10898TIP3   OH232654   0.040   1.806   4.542 -0.2923 -0.6132 -0.7062
10898TIP3    H132655   0.044   1.878   4.479  1.4833  0.6948  0.7875
10898TIP3    H232656   0.131   1.781   4.555 -0.3196  0.6393  2.8620
10899TIP3   OH232657   3.839   3.075   1.912 -0.3028  0.1105  0.1528
10899TIP3    H132658   3.819   2.982   1.924  1.0507 -0.4082 -1.2772
10899TIP3    H232659   3.910   3.092   1.973  0.8068 -0.3558 -0.9453
10900TIP3   OH232660   5.485   6.003   6.193  0.3817 -0.1587  0.4997
10900TIP3    H132661   5.439   5.920   6.203  0.7986 -0.7419 -1.8545
10900TIP3    H232662   5.574   5.979   6.167  0.5533  1.0026 -0.0981
10901TIP3   OH232663   2.584   3.856   2.276  0.4179 -0.4211  0.3282
10901TIP3    H132664   2.677   3.840   2.258  0.2127 -0.2863 -0.8665
10901TIP3    H232665   2.537   3.793   2.222 -0.2264  0.4573 -0.1543
10902TIP3   OH232666   1.361   5.656   5.549  0.2387  0.2027 -0.0968
10902TIP3    H132667   1.446   5.662   5.594  0.8090 -0.1632 -1.0968
10902TIP3    H232668   1.348   5.742   5.510 -1.3593  1.3227  2.5911
10903TIP3   OH232669   0.932   1.554   4.056  0.2231  0.0648 -0.1459
10903TIP3    H132670   0.924   1.649   4.052  1.9895  0.2354 -0.4549
10903TIP3    H232671   0.845   1.521   4.033 -0.1474  1.5868 -1.0427
10904TIP3   OH232672   3.118   6.126   2.137 -0.2326  0.0283  0.2809
10904TIP3    H132673   3.110   6.036   2.106  2.5433 -0.5612  1.0181
10904TIP3    H232674   3.067   6.128   2.218  1.3353 -1.5414  1.3819
10905TIP3   OH232675   5.942   4.048   1.709 -0.0003 -0.1591  0.4579
10905TIP3    H132676   5.907   4.013   1.791 -2.0422 -0.4696 -0.4867
10905TIP3    H232677   6.029   4.080   1.732  0.2446 -1.9406  2.3313
10906TIP3   OH232678   6.920   3.130   1.032  0.1619 -0.0709 -0.3387
10906TIP3    H132679   6.987   3.140   0.965  0.4105  1.0868  0.0576
10906TIP3    H232680   6.846   3.183   1.000  0.4401  0.8387  0.4780
10907TIP3   OH232681   6.200   4.581   0.345 -0.1669  0.4192 -0.2508
10907TIP3    H132682   6.202   4.640   0.420 -0.3630  0.8043 -0.5455
10907TIP3    H232683   6.241   4.500   0.377  0.6655  0.9199 -0.0205
10908TIP3   OH232684   7.066   4.176   0.481 -0.0782  0.5484  0.0909
10908TIP3    H132685   7.112   4.100   0.444 -2.7088 -0.5218 -1.1842
10908TIP3    H232686   7.069   4.161   0.576  0.2341 -0.6573 -0.0941
10909TIP3   OH232687   7.441   6.874   3.867  0.0167 -0.0109  0.4565
10909TIP3    H132688   7.525   6.920   3.858  0.0908 -0.2061  0.1328
10909TIP3    H232689   7.376   6.944   3.877  0.3618  0.1307  2.1191
10910TIP3   OH232690   5.538   6.434   5.271  0.6962  0.4950 -0.1218
10910TIP3    H132691   5.523   6.446   5.177 -0.8880  0.1442  0.0630
10910TIP3    H232692   5.451   6.440   5.310  0.9979 -1.8193  1.0543
10911TIP3   OH232693   4.307   4.623   0.704 -1.1262  0.1731 -0.7177
10911TIP3    H132694   4.357   4.556   0.656 -0.4341 -0.4384  0.7702
10911TIP3    H232695   4.293   4.584   0.790 -4.7530  0.0814 -1.2236
10912TIP3   OH232696   3.940   5.295   4.316 -0.4132  0.5333  0.4202
10912TIP3    H132697   3.859   5.250   4.294  0.3217 -0.1536 -1.0043
10912TIP3    H232698   3.928   5.384   4.282 -0.3090  0.2300 -0.4273
10913TIP3   OH232699   6.979   4.306   2.651  0.7259 -0.1546  0.4127
10913TIP3    H132700   6.986   4.236   2.716  0.8661  0.0196  0.5866
10913TIP3    H232701   6.924   4.269   2.581  1.4874 -0.7313  0.1054
10914TIP3   OH232702   2.607   0.250   4.818  0.2796  0.2022 -0.2394
10914TIP3    H132703   2.513   0.267   4.813  0.1482 -0.5074 -0.2869
10914TIP3    H232704   2.624   0.240   4.911  0.4597  1.1086 -0.1642
10915TIP3   OH232705   0.427   3.516   4.793 -0.4433 -0.4891 -0.5738
10915TIP3    H132706   0.466   3.497   4.708 -3.8381 -0.4558 -2.2978
10915TIP3    H232707   0.347   3.564   4.773 -1.9844 -1.4794  2.5633
10916TIP3   OH232708   0.054   0.795   1.260  0.1560  0.0946  0.8825
10916TIP3    H132709   0.097   0.755   1.184 -0.8601  0.3927  0.1301
10916TIP3    H232710  -0.037   0.807   1.233 -0.1246  0.6252  1.9919
10917TIP3   OH232711   3.937   6.415   4.671 -1.0106  0.0659 -0.0157
10917TIP3    H132712   3.883   6.337   4.686  1.2367 -1.5739  0.0379
10917TIP3    H232713   3.924   6.468   4.750 -1.5326 -0.9012  0.5746
10918TIP3   OH232714   2.199   3.091   0.293  0.0484  0.9374  0.0087
10918TIP3    H132715   2.292   3.077   0.311  0.4232  1.7933 -1.1390
10918TIP3    H232716   2.155   3.073   0.376  1.0621 -1.0325  0.1572
10919TIP3   OH232717   7.025   1.631   4.894 -0.0339  0.2475 -0.8578
10919TIP3    H132718   6.970   1.640   4.972 -1.9143  0.0533 -2.1192
10919TIP3    H232719   7.050   1.720   4.872  0.2972  0.3269 -0.2048
10920TIP3   OH232720   5.653   5.686   1.935 -0.0798 -0.7112 -0.0126
10920TIP3    H132721   5.665   5.704   2.028  0.2814 -1.2865  0.0539
10920TIP3    H232722   5.665   5.592   1.927  2.5570 -0.3519 -1.0434
10921TIP3   OH232723   6.320   6.601   4.352  0.0086 -0.0925  0.6011
10921TIP3    H132724   6.235   6.641   4.333  0.0393  0.0102  0.6802
10921TIP3    H232725   6.305   6.507   4.344  0.0738 -0.0406 -0.1541
10922TIP3   OH232726   6.919   5.009   3.303  0.2053 -0.4780  0.6858
10922TIP3    H132727   6.936   5.035   3.213  2.0315  1.6382  1.5652
10922TIP3    H232728   6.988   4.946   3.323  0.3236 -0.2900  0.8714
10923TIP3   OH232729   6.733   2.720   5.595 -0.2631  0.0134 -0.1127
10923TIP3    H132730   6.761   2.783   5.529  0.2426  0.9711  0.9663
10923TIP3    H232731   6.643   2.699   5.571  0.3802 -0.8337 -1.9504
10924TIP3   OH232732   6.220   1.189   1.497  0.5417  0.6295 -0.7779
10924TIP3    H132733   6.244   1.141   1.418  1.4672  0.0346 -0.1576
10924TIP3    H232734   6.133   1.224   1.478  0.7109  0.4337 -2.0198
10925TIP3   OH232735   0.372   5.219   5.386 -0.1345 -0.8316 -0.4367
10925TIP3    H132736   0.328   5.155   5.330 -1.7049  0.6458 -0.9669
10925TIP3    H232737   0.389   5.294   5.329  1.0928 -0.4916  0.3249
10926TIP3   OH232738   4.629   0.349   4.638 -0.1891 -0.2072  0.2754
10926TIP3    H132739   4.702   0.289   4.653  1.5829  1.4379 -1.1607
10926TIP3    H232740   4.663   0.412   4.574 -2.8040  0.8101 -0.2377
10927TIP3   OH232741   1.823   6.723   5.669  0.3145 -0.0122 -0.1157
10927TIP3    H132742   1.797   6.700   5.758 -0.6110 -0.5589 -0.5196
10927TIP3    H232743   1.872   6.805   5.679  2.2810 -1.2640  1.1610
10928TIP3   OH232744   6.573   5.664   3.537 -0.4564 -0.1840 -0.4603
10928TIP3    H132745   6.605   5.583   3.496 -0.3401  0.0529 -0.8349
10928TIP3    H232746   6.648   5.698   3.585 -1.0018 -1.2693  1.2365
10929TIP3   OH232747   5.670   3.568   3.915  0.6189  0.1630  0.3592
10929TIP3    H132748   5.710   3.637   3.862  1.8512  0.0395  1.0835
10929TIP3    H232749   5.676   3.600   4.005 -1.9827  0.6354  0.4408
10930TIP3   OH232750   2.487   2.988   4.912 -0.0925 -0.1088 -0.3066
10930TIP3    H132751   2.499   2.997   4.817 -0.1345 -1.4153 -0.4617
10930TIP3    H232752   2.413   3.045   4.933 -0.0429  0.2379 -1.0493
10931TIP3   OH232753   2.117   5.054   1.035  0.1140  0.1535  0.3494
10931TIP3    H132754   2.182   5.034   0.967  1.5129 -2.5438  2.3235
10931TIP3    H232755   2.168   5.080   1.111 -1.2770  0.4011  1.2459
10932TIP3   OH232756   2.003   5.296   5.527 -0.3443  0.5782  0.0508
10932TIP3    H132757   1.936   5.356   5.559 -0.7526  0.8948 -1.3373
10932TIP3    H232758   1.967   5.260   5.446 -0.2428 -1.7860  0.9660
10933TIP3   OH232759   3.267   3.896   1.063 -0.3512  0.0785 -0.0789
10933TIP3    H132760   3.249   3.868   0.973 -2.3816  3.1391 -0.8275
10933TIP3    H232761   3.347   3.948   1.057 -0.8554  0.8562 -0.3309
10934TIP3   OH232762   5.709   6.089   0.278  0.4576  0.0462  0.2844
10934TIP3    H132763   5.788   6.045   0.245  0.3676  0.6621 -0.8237
10934TIP3    H232764   5.711   6.075   0.373  2.0225  0.2318  0.3079
10935TIP3   OH232765   4.359   0.836   2.608  0.2422  0.2386  0.1759
10935TIP3    H132766   4.288   0.880   2.562  0.0507  1.6455  1.7076
10935TIP3    H232767   4.437   0.858   2.557 -0.2407 -0.2407 -0.7961
10936TIP3   OH232768   5.996   4.419   5.855 -0.2914  0.1793 -0.2530
10936TIP3    H132769   5.928   4.448   5.794 -1.5475 -1.0232  0.5398
10936TIP3    H232770   6.071   4.398   5.799 -1.6277 -1.5146 -1.4797
10937TIP3   OH232771   1.954   1.007   6.072 -0.0043  0.0588 -0.2664
10937TIP3    H132772   1.978   0.918   6.049 -3.0501 -1.2699  1.2346
10937TIP3    H232773   1.924   1.046   5.990  0.7685 -0.4465 -0.8122
10938TIP3   OH232774   0.500   1.245   0.123 -0.1833  0.2935 -0.9624
10938TIP3    H132775   0.450   1.269   0.045 -1.7478  2.4886  0.5814
10938TIP3    H232776   0.435   1.244   0.193  0.8463 -3.2032  0.1557
10939TIP3   OH232777   0.759   0.947   4.443  0.2259  0.0749 -0.2921
10939TIP3    H132778   0.698   0.914   4.377  1.5200 -1.5240 -0.7403
10939TIP3    H232779   0.739   0.897   4.522 -0.0070  0.6002 -0.0111
10940TIP3   OH232780   4.727   3.216   5.391 -0.2162 -0.4165 -0.0242
10940TIP3    H132781   4.724   3.244   5.299 -0.6749  0.4311  0.2400
10940TIP3    H232782   4.801   3.264   5.428 -0.8348  0.2555  0.3638
10941TIP3   OH232783   3.431   2.778   4.207  0.7072 -0.5814  0.1343
10941TIP3    H132784   3.344   2.743   4.228  0.8130 -1.4613 -0.7953
10941TIP3    H232785   3.414   2.848   4.144  0.7036 -1.3971 -0.8064
10942TIP3   OH232786   2.229   5.754   5.268  0.7020  0.0802 -0.4804
10942TIP3    H132787   2.140   5.745   5.233  0.6322  1.4248 -0.7108
10942TIP3    H232788   2.278   5.796   5.198  1.3397 -0.0077 -0.0937
10943TIP3   OH232789   2.208   1.739   1.827 -0.1820  0.0783  0.2495
10943TIP3    H132790   2.279   1.707   1.771  0.4259  1.4366  0.1945
10943TIP3    H232791   2.235   1.715   1.915  0.6461  1.0417  0.2860
10944TIP3   OH232792   2.166   7.053   2.950 -0.3325 -0.3484  0.0076
10944TIP3    H132793   2.079   7.015   2.959  0.0813 -1.3952 -0.2296
10944TIP3    H232794   2.153   7.147   2.958 -1.5600 -0.4543 -0.5781
10945TIP3   OH232795   3.126   3.009   3.039 -0.3790  0.3716 -0.5659
10945TIP3    H132796   3.045   3.061   3.043 -0.4248  0.2086  1.2655
10945TIP3    H232797   3.189   3.067   2.997 -1.1183  0.9381 -0.9368
10946TIP3   OH232798   5.888   6.658   4.781 -0.2807 -0.4271 -0.4090
10946TIP3    H132799   5.935   6.712   4.718  0.1370  0.4638  0.6405
10946TIP3    H232800   5.894   6.705   4.864 -0.3257 -1.8431  0.4441
10947TIP3   OH232801   3.996   5.614   2.681 -0.9278 -0.3767 -0.1258
10947TIP3    H132802   4.031   5.617   2.592 -1.0215  0.0454 -0.1516
10947TIP3    H232803   4.013   5.701   2.717  0.7269 -1.0813  0.9058
10948TIP3   OH232804   6.838   4.040   3.943 -0.0928 -0.1751 -0.2778
10948TIP3    H132805   6.808   3.999   4.024  0.0651 -1.6852 -0.9470
10948TIP3    H232806   6.859   3.967   3.885  1.4810  0.8588 -1.0878
10949TIP3   OH232807   3.636   0.937   1.536  0.3523  0.3976 -0.2590
10949TIP3    H132808   3.637   0.841   1.536  1.8687  0.2978 -3.2988
10949TIP3    H232809   3.544   0.960   1.534 -0.0475 -0.9454  0.8648
10950TIP3   OH232810   2.097   2.048   2.491 -0.1651 -0.4464 -0.3288
10950TIP3    H132811   2.091   2.143   2.505 -0.3207 -0.4378 -0.4613
10950TIP3    H232812   2.129   2.014   2.575  0.1875 -0.2448 -0.3766
10951TIP3   OH232813   5.420   6.790   5.990 -0.3507 -0.0827  0.7617
10951TIP3    H132814   5.454   6.722   6.049 -1.0339  0.4256  1.7803
10951TIP3    H232815   5.376   6.741   5.921  1.1053 -0.7134  0.2357
10952TIP3   OH232816   1.688   0.199   0.586  0.3292 -0.4660 -0.0593
10952TIP3    H132817   1.645   0.142   0.649  0.1525  0.0913  0.3361
10952TIP3    H232818   1.632   0.276   0.581 -0.5419 -1.1623 -2.1357
10953TIP3   OH232819   3.497   2.650   5.437 -0.0793  0.2745 -0.6220
10953TIP3    H132820   3.493   2.740   5.471  0.7503  0.1404 -0.1208
10953TIP3    H232821   3.452   2.598   5.503  2.5485 -0.1521  0.9809
10954TIP3   OH232822   4.546   2.404   2.950  0.0577 -0.3018  0.1662
10954TIP3    H132823   4.536   2.488   2.996 -0.1233  1.7732 -3.3253
10954TIP3    H232824   4.460   2.362   2.960 -0.2730  0.4967  0.9124
10955TIP3   OH232825   1.385   3.318   5.302  0.0102  0.3031 -0.1117
10955TIP3    H132826   1.448   3.336   5.372  0.3548  0.6346 -0.4971
10955TIP3    H232827   1.339   3.401   5.290 -1.9761 -0.4599  1.5708
10956TIP3   OH232828   1.784   4.334   4.229 -0.7121 -0.0694 -0.7689
10956TIP3    H132829   1.789   4.424   4.262 -0.7668  0.8784 -3.1741
10956TIP3    H232830   1.716   4.336   4.162  0.6959 -1.3969 -2.3271
10957TIP3   OH232831   6.682   4.296   3.473 -0.1301 -0.1665  0.1670
10957TIP3    H132832   6.753   4.265   3.529  0.4808  1.4466  0.3570
10957TIP3    H232833   6.720   4.371   3.427 -1.9329  1.2298  0.8494
10958TIP3   OH232834   1.512   0.747   0.142  0.2789 -0.1178  0.2175
10958TIP3    H132835   1.563   0.720   0.066  0.3189  0.3102  0.0875
10958TIP3    H232836   1.503   0.842   0.133 -1.3875 -0.2855 -0.3046
10959TIP3   OH232837   5.446   4.933   1.389  0.0217 -0.6393 -0.4177
10959TIP3    H132838   5.457   4.918   1.295 -0.9365 -1.7586 -0.3646
10959TIP3    H232839   5.416   5.024   1.395 -1.8457 -1.1534 -1.3630
10960TIP3   OH232840   0.040   3.646   4.895 -0.1096 -0.0335  0.8105
10960TIP3    H132841  -0.050   3.646   4.862  0.1720 -2.3308 -0.0882
10960TIP3    H232842   0.094   3.640   4.817  0.6934 -1.9344  1.4637
10961TIP3   OH232843   3.812   3.741   0.806 -0.6370 -0.0947 -0.2049
10961TIP3    H132844   3.775   3.812   0.754 -2.5066  0.3927  1.6691
10961TIP3    H232845   3.860   3.687   0.742 -1.1347  1.5439 -2.0524
10962TIP3   OH232846   5.454   5.383   2.367 -0.7893 -0.5084 -0.4652
10962TIP3    H132847   5.444   5.290   2.388 -0.0681 -0.5997 -0.4984
10962TIP3    H232848   5.523   5.414   2.426 -0.5179 -0.1733 -0.9506
10963TIP3   OH232849   0.128   4.663   1.216 -0.0230 -0.0858 -0.3931
10963TIP3    H132850   0.149   4.593   1.154 -2.1967  0.0853 -1.4168
10963TIP3    H232851   0.086   4.730   1.162 -1.2227  0.4298  1.1340
10964TIP3   OH232852   2.289   0.015   1.983 -0.2720  0.2859 -0.4611
10964TIP3    H132853   2.339   0.028   2.064 -0.3719  2.7144 -0.7339
10964TIP3    H232854   2.202  -0.011   2.013 -0.2655  1.0143  0.2194
10965TIP3   OH232855   3.771   3.937   3.156 -0.3314  0.0136 -0.2512
10965TIP3    H132856   3.703   3.955   3.221 -1.0848  1.2359 -1.3325
10965TIP3    H232857   3.722   3.908   3.078  0.3735  0.7782 -0.9976
10966TIP3   OH232858   5.660   6.234   6.068  0.2172  0.2106 -0.3068
10966TIP3    H132859   5.728   6.276   6.017  0.8991 -1.5098 -0.8980
10966TIP3    H232860   5.604   6.191   6.003 -0.3226  0.0169  0.2681
10967TIP3   OH232861   1.710   6.650   0.864 -0.1457  0.3869 -0.1653
10967TIP3    H132862   1.755   6.583   0.812  1.7463 -0.1193  1.9579
10967TIP3    H232863   1.750   6.733   0.837 -0.3365  0.3331 -0.6308
10968TIP3   OH232864   2.459   3.109   1.116  0.4190  0.5759  0.1748
10968TIP3    H132865   2.399   3.039   1.089 -0.1959  1.0825  0.2178
10968TIP3    H232866   2.524   3.064   1.170  0.6046 -0.1361 -0.6001
10969TIP3   OH232867   7.266   2.470   1.992  0.1665  0.1712 -0.1549
10969TIP3    H132868   7.306   2.555   1.976  2.9468 -0.9401  0.2695
10969TIP3    H232869   7.268   2.427   1.906  0.2712 -0.0260 -0.0548
10970TIP3   OH232870   6.652   1.264   1.197 -0.3176  0.5908 -0.2053
10970TIP3    H132871   6.614   1.352   1.193  0.4092  0.8877 -0.6212
10970TIP3    H232872   6.731   1.274   1.251 -0.3634  0.1417 -0.0457
10971TIP3   OH232873   1.648   0.677   4.337  0.7946  0.3712 -0.2020
10971TIP3    H132874   1.708   0.603   4.337 -0.7267 -0.8932 -0.4501
10971TIP3    H232875   1.675   0.729   4.260  0.8916 -0.7486 -0.9456
10972TIP3   OH232876   0.054   5.252   6.130  0.0599 -0.6121  0.0061
10972TIP3    H132877   0.014   5.294   6.206  0.5571 -0.9618  0.4767
10972TIP3    H232878   0.138   5.220   6.163  0.2127 -0.9027 -0.6562
10973TIP3   OH232879   6.498   6.410   3.285 -0.8721 -0.5323 -0.3286
10973TIP3    H132880   6.502   6.384   3.193 -0.8212 -0.7945 -0.2544
10973TIP3    H232881   6.445   6.490   3.285 -0.2337 -0.1041 -0.6701
10974TIP3   OH232882   0.306   3.597   0.680 -0.0775 -0.3146 -0.1819
10974TIP3    H132883   0.221   3.561   0.659  0.1768 -1.2133  0.3056
10974TIP3    H232884   0.338   3.632   0.597 -1.6464  1.6396 -0.0367
10975TIP3   OH232885   1.827   5.485   4.883 -0.6636  0.4089  0.3528
10975TIP3    H132886   1.899   5.531   4.927 -1.2738  1.6445  0.1037
10975TIP3    H232887   1.818   5.403   4.931  1.6484 -0.3142 -0.3087
10976TIP3   OH232888   4.019   5.693   2.403 -0.1238  0.3766  0.5946
10976TIP3    H132889   4.101   5.686   2.355 -0.3782 -0.3075  0.2590
10976TIP3    H232890   3.967   5.619   2.374 -1.1367  1.1816  0.2877
10977TIP3   OH232891   6.902   6.775   5.371  0.0628  0.1124 -0.1269
10977TIP3    H132892   6.931   6.707   5.432  0.2917  0.1950 -0.1418
10977TIP3    H232893   6.983   6.815   5.339 -0.0739  0.4989  0.0053
10978TIP3   OH232894   6.141   1.291   3.166 -0.3392 -0.1055  0.5055
10978TIP3    H132895   6.116   1.252   3.082  0.2980 -0.2120  0.3644
10978TIP3    H232896   6.190   1.369   3.142  0.7782 -0.7132  0.7621
10979TIP3   OH232897   7.539   1.850   4.243 -0.3965  0.1641  0.3526
10979TIP3    H132898   7.584   1.930   4.269  2.9832 -2.2923  2.9183
10979TIP3    H232899   7.458   1.850   4.296 -0.7320  2.0458 -0.0918
10980TIP3   OH232900   3.932   2.786   5.220  0.9972  0.0586  0.0559
10980TIP3    H132901   3.869   2.744   5.163  0.7064  0.9183 -0.2736
10980TIP3    H232902   3.886   2.862   5.256  2.0152  1.1020 -0.7238
10981TIP3   OH232903   6.315   4.685   1.205  0.1441 -0.2689  0.4510
10981TIP3    H132904   6.340   4.772   1.236 -2.0117  0.4794  0.1827
10981TIP3    H232905   6.236   4.698   1.153  0.6086 -2.2089 -0.8791
10982TIP3   OH232906   3.425   2.914   5.436  0.6304  0.2524 -0.2285
10982TIP3    H132907   3.432   2.950   5.348  1.2883 -0.1162 -0.3369
10982TIP3    H232908   3.331   2.916   5.456  0.3813 -0.4223 -1.2572
10983TIP3   OH232909   2.474   4.357   5.496  0.0856  0.5166  0.1228
10983TIP3    H132910   2.500   4.289   5.435 -1.3628 -0.6349  0.7363
10983TIP3    H232911   2.538   4.352   5.567  0.3928  0.2839 -0.1702
10984TIP3   OH232912   6.466   2.902   2.188 -0.1626 -0.4805  0.1269
10984TIP3    H132913   6.520   2.824   2.199 -0.9519 -1.2559 -1.2591
10984TIP3    H232914   6.442   2.902   2.096 -1.3528  0.6229  0.4077
10985TIP3   OH232915   4.033   6.600   3.875 -0.1295 -0.1294 -0.1774
10985TIP3    H132916   4.048   6.572   3.965 -1.5488 -1.6127 -0.3515
10985TIP3    H232917   4.082   6.537   3.822  0.7567  0.7769 -0.4780
10986TIP3   OH232918   4.412   2.055   3.737 -0.5456 -0.4157  0.4335
10986TIP3    H132919   4.409   1.960   3.744 -0.6967 -0.5319 -0.9380
10986TIP3    H232920   4.500   2.074   3.704 -1.5306 -0.3700 -2.4516
10987TIP3   OH232921   7.469   3.928   4.566 -0.0199  0.2069 -0.1850
10987TIP3    H132922   7.562   3.907   4.566 -0.1129 -0.3805  1.5952
10987TIP3    H232923   7.461   3.999   4.629 -0.9364 -0.6039  0.6317
10988TIP3   OH232924   0.797   3.762   3.445  0.0210  0.2594 -0.2694
10988TIP3    H132925   0.717   3.815   3.445 -1.1033 -1.3207  1.6302
10988TIP3    H232926   0.766   3.672   3.457  2.0404 -0.5180 -0.5089
10989TIP3   OH232927   5.598   6.275   4.098  0.1751  0.7528 -0.0253
10989TIP3    H132928   5.529   6.293   4.161 -0.2172 -0.6009 -0.0391
10989TIP3    H232929   5.662   6.224   4.146  0.0020 -0.0568 -0.6253
10990TIP3   OH232930   3.136   0.057   5.110 -0.3442 -0.1512 -0.1764
10990TIP3    H132931   3.182  -0.020   5.077 -1.0036 -1.0300  0.9077
10990TIP3    H232932   3.196   0.129   5.093  0.8457 -1.0815 -0.0528
10991TIP3   OH232933   1.121   0.572   1.805 -0.5701  0.0039  0.5274
10991TIP3    H132934   1.153   0.657   1.834 -1.0710  0.8644 -1.3046
10991TIP3    H232935   1.196   0.532   1.761 -0.9852  0.5176 -0.6723
10992TIP3   OH232936   0.865   0.331   2.861 -0.1156  0.1694 -0.1264
10992TIP3    H132937   0.787   0.380   2.884  0.2698 -0.4476  2.8871
10992TIP3    H232938   0.938   0.386   2.889  0.5205  0.0400 -1.4329
10993TIP3   OH232939   6.247   1.839   0.973 -0.3526 -0.0349  0.0517
10993TIP3    H132940   6.246   1.932   0.952 -0.4885 -0.2717 -1.0186
10993TIP3    H232941   6.330   1.826   1.019 -0.4325  0.6531  0.3991
10994TIP3   OH232942   3.116   4.797   3.457  0.4138 -0.1716  0.5219
10994TIP3    H132943   3.181   4.825   3.521 -0.4987  1.7225  0.6980
10994TIP3    H232944   3.032   4.812   3.500 -0.2099  0.6658 -0.9047
10995TIP3   OH232945   7.549   1.567   3.832  0.2329  0.1677  0.1956
10995TIP3    H132946   7.577   1.616   3.755 -2.5551  2.1447  0.2997
10995TIP3    H232947   7.551   1.630   3.904 -0.7735 -0.5880  0.9264
10996TIP3   OH232948   2.613   4.101   0.448 -0.1948 -0.6190  0.4148
10996TIP3    H132949   2.702   4.092   0.482 -0.0009  0.0729  0.1235
10996TIP3    H232950   2.572   4.167   0.503 -0.1657 -0.1376 -0.1313
10997TIP3   OH232951   0.529   1.541   0.687  0.3266 -0.7086  0.4572
10997TIP3    H132952   0.483   1.466   0.725 -1.4958 -1.5144 -2.9492
10997TIP3    H232953   0.475   1.567   0.613  1.9737  2.7449  0.2994
10998TIP3   OH232954   2.353   4.954   5.252  0.2194 -0.0146 -0.3339
10998TIP3    H132955   2.306   5.030   5.288  1.8322  1.1916 -0.6796
10998TIP3    H232956   2.294   4.920   5.185  0.5433  2.6568 -2.1349
10999TIP3   OH232957   4.787   1.248   4.232  0.3952  0.4301  0.2836
10999TIP3    H132958   4.814   1.262   4.141  2.6712 -0.4458  0.7600
10999TIP3    H232959   4.740   1.165   4.230 -0.8507  1.1263 -0.2989
11000TIP3   OH232960   6.178   0.533   3.146  0.8678  0.1491  0.8321
11000TIP3    H132961   6.152   0.621   3.174  3.0945  0.9796  0.5481
11000TIP3    H232962   6.116   0.510   3.077 -0.5892  0.9003  1.8300
11001TIP3   OH232963   6.553   4.102   3.169  0.4426 -0.5202 -0.2463
11001TIP3    H132964   6.601   4.033   3.124  0.1583 -0.2893 -0.9214
11001TIP3    H232965   6.582   4.183   3.127 -1.5509 -0.4734 -1.6613
11002TIP3   OH232966   4.177   0.001   4.919  1.1870  0.3792 -0.1249
11002TIP3    H132967   4.163  -0.003   4.824 -1.5612  3.1551 -0.0278
11002TIP3    H232968   4.257   0.052   4.929  0.4895  1.7302 -1.0391
11003TIP3   OH232969   4.594   1.122   3.629 -0.3316  0.3997 -0.4470
11003TIP3    H132970   4.515   1.097   3.677  0.1950 -1.4514 -0.5007
11003TIP3    H232971   4.611   1.213   3.657 -2.6923  0.9900 -0.7727
11004TIP3   OH232972   2.602   5.716   4.962 -0.6416  0.1129  0.0552
11004TIP3    H132973   2.597   5.682   5.052 -0.0053 -1.2018 -0.3760
11004TIP3    H232974   2.575   5.642   4.908 -0.3336  0.6749 -0.8756
11005TIP3   OH232975   5.284   2.915   3.929 -0.3542 -0.3486  0.3744
11005TIP3    H132976   5.365   2.892   3.976 -1.1002 -1.2575  1.2433
11005TIP3    H232977   5.302   3.003   3.895  1.3116 -0.8618 -0.1770
11006TIP3   OH232978   2.828   4.968   3.835 -0.1112  0.4171 -0.2683
11006TIP3    H132979   2.787   5.053   3.820 -2.2201 -0.6801 -1.2048
11006TIP3    H232980   2.770   4.924   3.897  2.2362  0.4825  2.1538
11007TIP3   OH232981   3.533   5.068   1.523  0.0634  0.4150  0.3656
11007TIP3    H132982   3.608   5.023   1.564 -0.2203 -0.6966 -0.3026
11007TIP3    H232983   3.556   5.074   1.431 -1.6386 -2.1286 -0.3284
11008TIP3   OH232984   5.567   1.330   2.713  0.2182 -0.4369  0.2760
11008TIP3    H132985   5.616   1.412   2.703  3.0682 -1.9848  0.3487
11008TIP3    H232986   5.609   1.287   2.788  0.2830 -2.8629 -1.0546
11009TIP3   OH232987   4.407   2.579   4.490 -0.1881  0.4339  0.3942
11009TIP3    H132988   4.455   2.509   4.444 -0.3506  0.5219  0.0953
11009TIP3    H232989   4.337   2.604   4.431 -0.4251  0.5202  0.7062
11010TIP3   OH232990   6.680   5.564   3.859 -0.1765 -0.3882 -0.5413
11010TIP3    H132991   6.693   5.524   3.944 -0.8852 -0.4060 -0.4355
11010TIP3    H232992   6.623   5.503   3.812  2.1291 -1.6260 -1.9431
11011TIP3   OH232993   3.157   5.597   2.180  0.2246  0.3649  0.5412
11011TIP3    H132994   3.128   5.584   2.270 -1.3217  0.1827  0.0552
11011TIP3    H232995   3.194   5.512   2.155  0.4258  0.3389  0.9218
11012TIP3   OH232996   5.839   5.562   2.168  0.0429  0.3231  0.4696
11012TIP3    H132997   5.765   5.618   2.194 -0.3004  0.0296  0.1315
11012TIP3    H232998   5.842   5.495   2.236  0.9411  1.1702  1.3076
11013TIP3   OH232999   6.960   1.480   2.485  0.1133 -0.2991 -0.4286
11013TIP3    H133000   6.940   1.389   2.509  0.1237 -0.2706 -0.3127
11013TIP3    H233001   6.965   1.478   2.389  0.2692 -0.4522 -0.4180
11014TIP3   OH233002   0.096   6.591   1.838 -0.4422 -0.1936  0.5496
11014TIP3    H133003   0.096   6.547   1.924 -2.2382  1.4519  1.4588
11014TIP3    H233004   0.055   6.528   1.779  2.0558 -1.9202  0.4784
11015TIP3   OH233005   4.300   2.705   2.996  0.2720 -0.6079  0.1873
11015TIP3    H133006   4.235   2.672   2.935 -1.6613  0.2870  1.6747
11015TIP3    H233007   4.298   2.644   3.070  0.5341 -0.1458  0.5917
11016TIP3   OH233008   5.915   2.692   3.829  0.5095 -0.2789  0.6687
11016TIP3    H133009   5.956   2.748   3.764  0.6715 -0.6243  0.4738
11016TIP3    H233010   5.854   2.638   3.780  1.1579 -1.0502  0.6888
11017TIP3   OH233011   2.729   3.380   4.377 -0.1094  0.8083  0.6767
11017TIP3    H133012   2.692   3.463   4.346 -1.4312 -0.0840 -0.1839
11017TIP3    H233013   2.667   3.349   4.442 -1.2503 -0.9595 -1.1513
11018TIP3   OH233014   4.600   4.729   2.863 -0.3470  0.2318 -0.4495
11018TIP3    H133015   4.618   4.777   2.782 -1.4571  2.5590  0.6224
11018TIP3    H233016   4.669   4.757   2.924 -0.3374 -0.4350 -0.1430
11019TIP3   OH233017   7.538   6.867   1.454  0.2365 -0.0357  0.2730
11019TIP3    H133018   7.599   6.917   1.400 -0.3004  1.9046  1.3646
11019TIP3    H233019   7.574   6.873   1.542 -0.4322 -0.6456  0.5937
11020TIP3   OH233020   0.550   6.036   1.561  0.4533  0.2897 -0.7787
11020TIP3    H133021   0.620   5.976   1.586  0.7638  0.8374 -0.3168
11020TIP3    H233022   0.576   6.120   1.598 -1.5456  0.0548  1.3734
11021TIP3   OH233023   3.128   1.628   1.913 -0.1997 -0.0642 -0.4667
11021TIP3    H133024   3.034   1.629   1.891 -0.2251  0.2031 -0.3496
11021TIP3    H233025   3.163   1.708   1.872 -0.0562 -0.0763 -0.3682
11022TIP3   OH233026   7.178   3.182   5.414  0.2797 -0.5925 -0.0247
11022TIP3    H133027   7.266   3.203   5.383  0.9177 -0.8195  1.5281
11022TIP3    H233028   7.179   3.088   5.429 -0.2600 -0.6117 -0.0569
11023TIP3   OH233029   7.437   0.734   0.402  0.2085  0.1588 -0.2756
11023TIP3    H133030   7.485   0.794   0.459 -1.7081  2.1526 -0.6297
11023TIP3    H233031   7.394   0.673   0.461 -0.0514  0.8772  0.2895
11024TIP3   OH233032   2.473   3.904   1.861 -0.4597 -0.1214  0.2810
11024TIP3    H133033   2.430   3.844   1.800 -0.9986 -1.2700  1.7374
11024TIP3    H233034   2.536   3.850   1.908 -2.1116 -0.0180  2.7949
11025TIP3   OH233035   4.713   3.407   2.424 -0.4110  0.3989  0.5575
11025TIP3    H133036   4.646   3.410   2.355  0.3520  1.0182 -0.1623
11025TIP3    H233037   4.675   3.348   2.491 -1.4548  0.3465 -0.0584
11026TIP3   OH233038   5.387   6.954   5.496 -0.8274  0.2640  0.1269
11026TIP3    H133039   5.354   6.866   5.514 -2.6489  0.6755 -0.9367
11026TIP3    H233040   5.453   6.969   5.564  1.0010 -2.6396 -0.8229
11027TIP3   OH233041   1.400   3.161   2.808  0.3956 -0.0642  0.1260
11027TIP3    H133042   1.335   3.201   2.864  1.7671  0.3959  1.4464
11027TIP3    H233043   1.462   3.231   2.787  0.8909 -0.6539 -0.4773
11028TIP3   OH233044   3.508   4.952   3.500 -0.0203  0.1659 -0.4022
11028TIP3    H133045   3.484   5.026   3.445  0.1658  0.1210 -0.5466
11028TIP3    H233046   3.545   4.888   3.439  0.0624  0.0614 -0.2426
11029TIP3   OH233047   0.101   3.785   0.116  0.1035  0.2340 -0.1707
11029TIP3    H133048   0.116   3.729   0.040  3.4511  0.2708  0.2926
11029TIP3    H233049   0.154   3.863   0.099  0.6407  0.4050  1.9939
11030TIP3   OH233050   7.061   6.366   0.425 -0.3516  0.5303 -0.0156
11030TIP3    H133051   7.056   6.298   0.358 -1.0535  0.6511 -0.0983
11030TIP3    H233052   7.137   6.342   0.479 -0.1217  0.1230 -0.5157
11031TIP3   OH233053   3.748   4.370   2.683 -0.2457 -0.4343 -0.1764
11031TIP3    H133054   3.746   4.457   2.644 -0.0985  0.8623  2.4682
11031TIP3    H233055   3.661   4.360   2.723 -0.3463 -1.6223 -0.6531
11032TIP3   OH233056   0.347   5.231   3.559 -0.4502  0.3166  0.2686
11032TIP3    H133057   0.335   5.216   3.465 -0.5104 -1.6059  0.5486
11032TIP3    H233058   0.426   5.284   3.564 -0.5429  0.6009 -0.8675
11033TIP3   OH233059   0.625   1.535   2.262  0.2076 -0.1019 -0.1807
11033TIP3    H133060   0.616   1.470   2.331 -2.4999  0.1105 -0.2591
11033TIP3    H233061   0.707   1.511   2.217 -0.1639 -2.7909  0.4432
11034TIP3   OH233062   0.877   2.431   5.333 -0.1505  0.1323 -0.2992
11034TIP3    H133063   0.804   2.369   5.333 -0.6028  0.6541  0.0196
11034TIP3    H233064   0.837   2.515   5.313  0.4024  0.3945 -0.3289
11035TIP3   OH233065   0.539   1.082   0.597 -0.0111  0.1830 -0.1282
11035TIP3    H133066   0.574   1.042   0.677 -0.3005  1.2846  0.5786
11035TIP3    H233067   0.610   1.136   0.564  0.1862 -0.4496 -0.7610
11036TIP3   OH233068   4.962   0.420   4.532  0.2360  0.1118 -0.1586
11036TIP3    H133069   4.875   0.450   4.505 -0.6879 -2.6521 -0.5705
11036TIP3    H233070   4.985   0.476   4.606 -2.7280 -0.2301  1.1617
11037TIP3   OH233071   5.770   4.381   0.223 -0.2329  0.0019 -0.6197
11037TIP3    H133072   5.763   4.296   0.179 -0.4022  0.5657 -1.7217
11037TIP3    H233073   5.852   4.377   0.271  0.1134 -0.5286 -1.2434
11038TIP3   OH233074   7.410   3.490   5.489  0.0928 -0.3672 -0.0931
11038TIP3    H133075   7.369   3.515   5.406 -0.1144  0.3614  0.2258
11038TIP3    H233076   7.492   3.449   5.463 -0.8102 -1.8766 -0.7593
11039TIP3   OH233077   3.717   4.978   1.713  0.3156  0.4583  0.0240
11039TIP3    H133078   3.648   5.034   1.749 -0.2329 -1.6544  2.5599
11039TIP3    H233079   3.771   4.954   1.788  1.6094 -0.8973 -1.2647
11040TIP3   OH233080   0.852   5.128   0.816  0.2003  0.5257 -0.3221
11040TIP3    H133081   0.826   5.038   0.800 -1.3930  0.4636  2.0312
11040TIP3    H233082   0.770   5.177   0.814  0.4915  1.2587  2.0231
11041TIP3   OH233083   4.906   0.775   2.797 -0.0150 -0.1397  0.0301
11041TIP3    H133084   4.855   0.697   2.820 -0.1063 -0.0900 -0.0030
11041TIP3    H233085   4.869   0.805   2.714  3.0459 -2.7945 -2.6064
11042TIP3   OH233086   3.041   2.491   1.739  0.0060 -0.7299 -0.0675
11042TIP3    H133087   2.953   2.456   1.722  0.2963 -0.5839 -2.0135
11042TIP3    H233088   3.030   2.586   1.736 -0.3013 -0.5903  2.7524
11043TIP3   OH233089   7.129   3.221   4.374  0.0819 -0.1895 -0.2176
11043TIP3    H133090   7.190   3.152   4.350  0.8719 -0.1704  1.6098
11043TIP3    H233091   7.068   3.226   4.299 -0.6530 -3.5659 -0.0160
11044TIP3   OH233092   0.775   5.292   5.920 -0.2192  0.3344  0.7611
11044TIP3    H133093   0.760   5.272   6.012  0.5205  0.3789  0.8986
11044TIP3    H233094   0.853   5.348   5.920 -0.1832  0.2937  0.1095
11045TIP3   OH233095   7.427   1.300   5.403 -0.6551  0.1910 -0.5017
11045TIP3    H133096   7.363   1.290   5.333 -2.7221 -0.3493  1.3504
11045TIP3    H233097   7.393   1.371   5.457  2.5328  2.8428 -1.6173
11046TIP3   OH233098   3.632   1.062   2.791 -0.0923 -1.0769  0.1521
11046TIP3    H133099   3.660   1.097   2.875 -0.8581  0.6780 -0.2767
11046TIP3    H233100   3.615   0.969   2.808  0.0407 -0.8199  1.8591
11047TIP3   OH233101   6.370   0.264   2.390  0.5862 -0.9253  0.0224
11047TIP3    H133102   6.315   0.322   2.442  0.0474 -0.1668 -1.3428
11047TIP3    H233103   6.459   0.295   2.407  0.3003  0.4220 -0.7944
11048TIP3   OH233104   2.109   6.728   5.362 -0.0813  0.6749 -0.2800
11048TIP3    H133105   2.128   6.801   5.304 -1.3455 -0.3493 -2.0572
11048TIP3    H233106   2.124   6.763   5.450 -1.8535  3.4672 -0.9705
11049TIP3   OH233107   5.315   2.302   3.701 -0.6298  0.0577 -0.6145
11049TIP3    H133108   5.285   2.212   3.711  0.7156 -0.2016  2.0026
11049TIP3    H233109   5.235   2.355   3.705 -1.2141 -0.8722  1.0277
11050TIP3   OH233110   0.333   5.618   2.928 -0.2342  0.2864 -0.2483
11050TIP3    H133111   0.266   5.582   2.986 -0.5536  2.1250  0.6177
11050TIP3    H233112   0.335   5.559   2.853 -2.9155  0.1931 -0.3381
11051TIP3   OH233113   6.595   5.032   5.276  0.1197  0.3753 -0.2705
11051TIP3    H133114   6.617   4.944   5.306 -2.3505 -0.5689 -1.0124
11051TIP3    H233115   6.571   5.078   5.356  1.3371  0.4066  0.1094
11052TIP3   OH233116   7.020   5.615   6.002  0.0455 -0.1032 -0.2490
11052TIP3    H133117   7.094   5.666   5.971 -0.5711  0.1149 -1.4296
11052TIP3    H233118   6.943   5.662   5.970 -0.6696  0.2953  1.9189
11053TIP3   OH233119   5.489   0.143   4.969  0.6893  0.1687  0.4051
11053TIP3    H133120   5.522   0.054   4.981  0.8085  0.3341  1.3208
11053TIP3    H233121   5.402   0.130   4.930  0.5328 -0.3599  0.9137
11054TIP3   OH233122   2.962   0.563   6.116  0.4475  0.1846 -0.0135
11054TIP3    H133123   2.935   0.479   6.078  0.7296  0.0022  0.1794
11054TIP3    H233124   3.047   0.580   6.076  0.6863  0.0562  0.4312
11055TIP3   OH233125   2.789   3.051   5.966 -0.1393 -0.1414 -0.2690
11055TIP3    H133126   2.820   2.978   6.020  2.2213  0.0993 -1.1394
11055TIP3    H233127   2.731   3.010   5.901 -1.7577 -0.6494  1.4303
11056TIP3   OH233128   2.237   5.858   6.140  0.0721  0.1401 -0.3679
11056TIP3    H133129   2.268   5.900   6.060 -0.5159 -0.0358 -0.6934
11056TIP3    H233130   2.191   5.928   6.187  0.3507  0.2233 -0.2139
11057TIP3   OH233131   6.525   6.256   4.281  0.2514 -0.0927  0.3389
11057TIP3    H133132   6.510   6.281   4.190 -0.5568 -0.4164  0.3705
11057TIP3    H233133   6.542   6.162   4.277 -1.9736 -0.5614  0.7078
11058TIP3   OH233134   1.907   3.766   5.575  0.4861  0.1868  0.0446
11058TIP3    H133135   1.908   3.784   5.481 -0.3026 -1.0516 -0.2171
11058TIP3    H233136   1.976   3.823   5.611  0.5284  0.9633 -1.2157
11059TIP3   OH233137   3.178   2.297   5.247 -0.1765  0.4333 -0.7137
11059TIP3    H133138   3.114   2.249   5.300 -1.1811  0.1725 -2.0932
11059TIP3    H233139   3.174   2.255   5.161 -1.5985  3.2755 -2.2165
11060TIP3   OH233140   2.550   5.498   4.760 -0.4747  0.2862 -0.0937
11060TIP3    H133141   2.612   5.490   4.688 -0.0499  0.1091  0.2858
11060TIP3    H233142   2.476   5.546   4.723 -0.3948 -0.0668 -0.7321
11061TIP3   OH233143   5.883   4.569   5.628  0.1221  0.1397  0.5870
11061TIP3    H133144   5.916   4.566   5.538 -0.4927  0.9585  0.3284
11061TIP3    H233145   5.864   4.661   5.644 -1.7979 -0.2680  0.8231
11062TIP3   OH233146   5.377   6.864   0.947  0.0825  0.3973  0.6914
11062TIP3    H133147   5.345   6.916   1.022 -1.2089 -0.4848  0.7821
11062TIP3    H233148   5.444   6.807   0.985 -0.6323 -0.1120  1.2196
11063TIP3   OH233149   0.460   2.469   2.938  0.2690  0.0431 -0.2109
11063TIP3    H133150   0.548   2.433   2.950  0.7749  1.4104  0.4159
11063TIP3    H233151   0.403   2.410   2.988  0.4903 -1.9979 -2.2113
11064TIP3   OH233152   6.159   1.745   1.551 -0.0706  0.0732 -0.0418
11064TIP3    H133153   6.158   1.836   1.580 -1.8984 -0.0354  0.3806
11064TIP3    H233154   6.109   1.744   1.470 -0.7219 -0.6293  0.3409
11065TIP3   OH233155   7.428   1.986   5.621  0.1018  0.1131 -0.5638
11065TIP3    H133156   7.336   2.012   5.617  0.5737  1.9849 -0.1330
11065TIP3    H233157   7.433   1.927   5.696 -0.7131  0.1195 -0.4922
11066TIP3   OH233158   7.472   6.392   0.131  0.3538 -0.1034 -0.6161
11066TIP3    H133159   7.477   6.368   0.224 -0.0175  2.2470  0.1001
11066TIP3    H233160   7.563   6.400   0.104  0.4733 -1.6541 -0.7296
11067TIP3   OH233161   3.888   5.855   0.272  0.5650 -0.1843 -0.3456
11067TIP3    H133162   3.823   5.811   0.327 -3.4449  1.1176 -3.5743
11067TIP3    H233163   3.940   5.784   0.234 -0.8122 -1.5437  0.2229
11068TIP3   OH233164   4.898   2.591   5.267 -0.1284  0.0205 -0.0435
11068TIP3    H133165   4.922   2.521   5.327 -1.8503 -0.5663  0.0200
11068TIP3    H233166   4.981   2.629   5.239  0.7547 -0.6276  1.5922
11069TIP3   OH233167   7.170   1.362   0.075 -0.2728 -0.0332  0.2570
11069TIP3    H133168   7.210   1.277   0.056  1.8418  0.6469  1.4256
11069TIP3    H233169   7.162   1.404  -0.011  1.0302 -0.4198 -0.0702
11070TIP3   OH233170   3.765   3.428   1.774  0.5285 -0.9027  0.1301
11070TIP3    H133171   3.712   3.424   1.854 -1.5910 -2.4590 -1.2583
11070TIP3    H233172   3.753   3.343   1.733  2.0818 -0.3671 -1.5660
11071TIP3   OH233173   0.556   1.333   5.849  0.0023  0.0318  0.0419
11071TIP3    H133174   0.497   1.262   5.873  0.3794 -0.2072  0.2775
11071TIP3    H233175   0.503   1.412   5.859 -0.9874 -0.3030 -1.9573
11072TIP3   OH233176   6.807   6.010   3.041  0.4705  0.0924 -0.5861
11072TIP3    H133177   6.863   6.056   3.103  1.2166  0.5505 -1.5630
11072TIP3    H233178   6.771   5.937   3.090 -0.3564  1.4201  0.8850
11073TIP3   OH233179   1.118   5.595   3.183 -0.2678  0.1126  0.4106
11073TIP3    H133180   1.067   5.526   3.225 -1.1983  0.2877 -0.3898
11073TIP3    H233181   1.053   5.650   3.140  0.6205 -0.5161 -1.9256
11074TIP3   OH233182   6.297   0.613   1.086  0.0538 -0.4860 -0.2465
11074TIP3    H133183   6.255   0.548   1.142  1.0787  0.0086  1.1474
11074TIP3    H233184   6.345   0.670   1.146  1.0778  0.1674 -1.6193
11075TIP3   OH233185   3.522   0.893   5.674  0.2207 -0.2379 -0.3443
11075TIP3    H133186   3.430   0.896   5.697  0.4273 -1.6800  0.8487
11075TIP3    H233187   3.529   0.945   5.594 -1.2039  1.8198  0.7880
11076TIP3   OH233188   0.787   1.691   4.585  0.4680  0.0576 -0.1296
11076TIP3    H133189   0.727   1.697   4.659  0.2701 -0.5426 -0.2300
11076TIP3    H233190   0.837   1.772   4.588 -0.6297  0.7673 -0.2936
11077TIP3   OH233191   1.508   4.245   3.567  0.3222 -0.2732 -0.0016
11077TIP3    H133192   1.509   4.152   3.543  1.6696 -0.3367  0.2196
11077TIP3    H233193   1.549   4.248   3.653 -1.7811  0.3021  1.0305
11078TIP3   OH233194   4.690   6.773   1.190  0.2055  0.6131  0.3194
11078TIP3    H133195   4.699   6.772   1.095  1.8884 -0.3629  0.4599
11078TIP3    H233196   4.635   6.849   1.208 -0.1877  0.7844 -1.4194
11079TIP3   OH233197   0.113   0.797   1.848  0.0140  0.0111  0.2002
11079TIP3    H133198   0.178   0.867   1.857 -0.0887  0.0222  0.9060
11079TIP3    H233199   0.114   0.752   1.932 -0.1217 -0.6678 -0.1593
11080TIP3   OH233200   5.082   2.517   4.981 -0.2055  0.0888 -0.2712
11080TIP3    H133201   5.103   2.462   4.905 -1.1095  0.5713 -0.8853
11080TIP3    H233202   5.137   2.595   4.969  2.4546 -1.3444  1.5407
11081TIP3   OH233203   5.754   4.750   1.194  0.1097  0.4692 -0.4975
11081TIP3    H133204   5.715   4.696   1.125 -1.4381  0.0171  0.6644
11081TIP3    H233205   5.818   4.692   1.236  0.9906  0.7175 -1.4696
11082TIP3   OH233206   0.886   0.295   5.959  0.6162  0.2168 -0.0282
11082TIP3    H133207   0.874   0.212   6.007  0.1003  0.4983  0.3427
11082TIP3    H233208   0.935   0.270   5.881 -1.4063 -0.8535 -1.0707
11083TIP3   OH233209   5.694   0.035   2.876  0.3551 -0.2906 -0.7389
11083TIP3    H133210   5.666   0.101   2.940 -4.6955 -0.6994 -2.0810
11083TIP3    H233211   5.777   0.068   2.843  0.3767  2.8871  1.9500
11084TIP3   OH233212   0.347   0.409   3.239 -0.4071 -0.0438 -0.0715
11084TIP3    H133213   0.407   0.410   3.313  0.0674  0.6551 -0.4491
11084TIP3    H233214   0.272   0.358   3.269 -0.9006  1.4801  1.4324
11085TIP3   OH233215   2.597   6.875   4.081  0.3871 -0.0842  0.1653
11085TIP3    H133216   2.679   6.866   4.130 -0.4714 -0.0886  1.6772
11085TIP3    H233217   2.601   6.806   4.015  2.4433  1.1531 -1.1068
11086TIP3   OH233218   0.678   5.320   4.661 -0.1045 -0.6384 -0.3186
11086TIP3    H133219   0.668   5.324   4.566  2.9206 -2.6014 -0.8542
11086TIP3    H233220   0.708   5.408   4.685 -2.9351  0.5548 -0.7389
11087TIP3   OH233221   6.920   6.778   1.915 -0.7951  0.1843  0.1257
11087TIP3    H133222   6.881   6.818   1.837  1.7551  2.1111 -0.2939
11087TIP3    H233223   6.988   6.720   1.880 -1.3888 -1.0246  0.8990
11088TIP3   OH233224   1.200   6.383   5.681 -0.0060 -0.5537  0.0364
11088TIP3    H133225   1.202   6.318   5.751 -1.0104 -0.6891 -0.0393
11088TIP3    H233226   1.110   6.416   5.682  0.6247  1.2305  0.4130
11089TIP3   OH233227   0.823   3.461   1.149  0.1256  0.4415  0.3286
11089TIP3    H133228   0.731   3.466   1.175  0.2287  0.8640  0.6277
11089TIP3    H233229   0.864   3.412   1.220 -0.2369 -1.6664 -0.8395
11090TIP3   OH233230   5.102   5.412   0.539  0.5890  0.0499  0.0908
11090TIP3    H133231   5.168   5.385   0.475  1.0413  1.0073  0.1312
11090TIP3    H233232   5.116   5.506   0.549  0.2324 -0.0101  1.2754
11091TIP3   OH233233   2.016   0.785   2.898 -0.0365 -0.1080  0.1209
11091TIP3    H133234   2.109   0.769   2.916  0.3843  0.2907 -1.5414
11091TIP3    H233235   1.976   0.698   2.902  0.0939 -0.1254  2.3010
11092TIP3   OH233236   6.004   0.462   2.950 -0.6695  0.3735  0.2734
11092TIP3    H133237   5.955   0.390   2.910 -0.3813  0.2884  0.0707
11092TIP3    H233238   5.937   0.528   2.968 -0.5076  1.4973 -2.6833
11093TIP3   OH233239   1.258   6.643   3.028  0.0557  0.2847 -0.0763
11093TIP3    H133240   1.258   6.738   3.043  0.3099  0.2615  0.0657
11093TIP3    H233241   1.250   6.604   3.115 -1.0623  0.1802 -0.2038
11094TIP3   OH233242   6.509   1.359   4.805 -0.4051 -0.2802  0.0500
11094TIP3    H133243   6.439   1.416   4.835 -0.4318 -0.5935  0.5963
11094TIP3    H233244   6.590   1.407   4.824 -0.4160 -0.5289  0.7526
11095TIP3   OH233245   2.824   3.741   2.260  0.5442 -0.5155 -0.3498
11095TIP3    H133246   2.857   3.686   2.189  3.7894  1.5177 -0.6418
11095TIP3    H233247   2.852   3.697   2.340  0.6534 -0.6831 -0.4808
11096TIP3   OH233248   7.580   0.641   5.113  0.2951  0.3879 -0.0996
11096TIP3    H133249   7.615   0.682   5.035  0.7022  1.5341  0.6643
11096TIP3    H233250   7.598   0.548   5.102  1.7818  0.7217 -0.6367
11097TIP3   OH233251   4.074   2.557   2.964  0.1288  0.1099  0.0722
11097TIP3    H133252   4.007   2.539   3.030 -0.5101  0.4507 -0.4630
11097TIP3    H233253   4.081   2.476   2.914  0.2605  0.0095  0.2529
11098TIP3   OH233254   1.979   3.311   4.036 -0.0995  0.1261 -0.2510
11098TIP3    H133255   1.980   3.346   3.946 -1.1750 -1.7186 -1.0385
11098TIP3    H233256   1.914   3.365   4.081 -0.3217  0.4017 -0.8868
11099TIP3   OH233257   0.953   0.263   5.551 -0.5438  0.0592  0.0720
11099TIP3    H133258   0.943   0.357   5.567 -0.7907  0.3050 -1.4381
11099TIP3    H233259   0.892   0.243   5.480  0.7953 -0.8714 -0.8793
11100TIP3   OH233260   1.497   4.547   5.121  0.4062  0.0227  0.0325
11100TIP3    H133261   1.458   4.537   5.208 -0.3292  1.4980 -0.0832
11100TIP3    H233262   1.442   4.493   5.063 -1.7544  2.2387 -0.1676
11101TIP3   OH233263   7.617   4.201   2.948  0.0300 -0.1482 -0.2385
11101TIP3    H133264   7.537   4.237   2.987  0.1682  1.5490 -1.4181
11101TIP3    H233265   7.603   4.208   2.854 -0.3071 -4.1753 -0.6366
11102TIP3   OH233266   3.251   6.708   4.961  0.2000  0.6443 -0.5690
11102TIP3    H133267   3.293   6.726   5.045 -0.0971  0.0527 -0.2884
11102TIP3    H233268   3.162   6.681   4.984  0.0420  0.7074 -1.0892
11103TIP3   OH233269   3.543   5.236   5.753  0.3793 -0.4622 -0.2898
11103TIP3    H133270   3.622   5.245   5.807 -0.7041 -0.0124  1.2727
11103TIP3    H233271   3.515   5.146   5.767  0.2295 -0.4136 -0.2770
11104TIP3   OH233272   4.265   1.608   5.778  0.2747  0.6352  0.3110
11104TIP3    H133273   4.360   1.595   5.775  0.3089  0.9394 -1.9363
11104TIP3    H233274   4.250   1.689   5.730 -1.2855 -0.9650 -2.1506
11105TIP3   OH233275   7.519   4.005   3.309  0.5372 -0.3927  0.2383
11105TIP3    H133276   7.488   4.075   3.367 -0.3297  0.2768 -0.9719
11105TIP3    H233277   7.596   4.042   3.266  0.5744 -0.5027  0.2097
11106TIP3   OH233278   6.347   1.524   5.917 -0.3006 -0.3093  0.0796
11106TIP3    H133279   6.392   1.510   6.001 -1.1862  0.0522  0.6336
11106TIP3    H233280   6.278   1.458   5.916 -1.0589  0.4514  0.2104
11107TIP3   OH233281   5.231   1.387   4.968  0.3093  0.2954  0.0791
11107TIP3    H133282   5.273   1.459   4.922  2.7315  1.2847  3.5040
11107TIP3    H233283   5.296   1.317   4.968  0.3675  0.3008  1.8183
11108TIP3   OH233284   0.095   6.506   2.091  0.0489  0.1861  0.3960
11108TIP3    H133285   0.030   6.504   2.161  0.5226 -2.6559  0.9030
11108TIP3    H233286   0.176   6.476   2.133  1.3175  1.9634 -0.6087
11109TIP3   OH233287   3.773   6.569   1.760  0.2839 -0.0008 -0.0820
11109TIP3    H133288   3.679   6.566   1.742  0.4662  1.7447 -1.5607
11109TIP3    H233289   3.810   6.501   1.703  0.0364  0.0035 -0.2485
11110TIP3   OH233290   1.703   7.085   0.337 -0.3639  0.4677  0.1973
11110TIP3    H133291   1.716   6.996   0.305  1.0531  1.9356 -3.9020
11110TIP3    H233292   1.777   7.101   0.395  0.3806 -0.4511 -0.4744
11111TIP3   OH233293   4.871   6.785   6.159  0.4017 -0.0862 -0.3683
11111TIP3    H133294   4.795   6.756   6.209  0.0040  1.1526 -0.2071
11111TIP3    H233295   4.848   6.769   6.067  0.3922 -0.6947 -0.2633
11112TIP3   OH233296   4.298   6.163   2.167 -0.1035  0.2415  0.4061
11112TIP3    H133297   4.336   6.219   2.234  0.1580  2.0098 -1.1175
11112TIP3    H233298   4.244   6.222   2.114  0.3518 -0.8682 -1.4087
11113TIP3   OH233299   6.294   2.225   2.969 -0.4857  0.1067 -0.0288
11113TIP3    H133300   6.236   2.179   3.031 -1.3016 -0.1813 -0.9864
11113TIP3    H233301   6.262   2.200   2.883  0.6147  0.5419 -0.5848
11114TIP3   OH233302   5.188   1.989   0.401 -0.2389  0.8330  0.2664
11114TIP3    H133303   5.132   1.952   0.470  0.6052 -0.8044  0.1262
11114TIP3    H233304   5.274   1.997   0.442  0.1888  0.1723 -0.4619
11115TIP3   OH233305   7.229   6.104   0.829  0.1933 -0.1970 -0.2340
11115TIP3    H133306   7.158   6.053   0.790 -0.0060  0.0718 -0.2288
11115TIP3    H233307   7.225   6.084   0.922 -1.2263  1.4005  0.1018
11116TIP3   OH233308   5.885   0.391   2.283 -0.1572 -0.0009  0.1215
11116TIP3    H133309   5.813   0.362   2.227  0.5900 -0.7776 -0.4544
11116TIP3    H233310   5.953   0.419   2.222  0.1349  0.4838  0.6604
11117TIP3   OH233311   3.747   6.472   4.234  0.0413  0.5961 -0.1328
11117TIP3    H133312   3.821   6.531   4.247 -0.0510  0.8060 -0.5520
11117TIP3    H233313   3.717   6.452   4.323  1.7114 -0.9287  0.1193
11118TIP3   OH233314   0.149   1.352   0.495 -0.3860  0.1215 -0.0548
11118TIP3    H133315   0.085   1.374   0.563 -1.8375 -0.8079 -1.0614
11118TIP3    H233316   0.096   1.330   0.418  1.1161 -1.2789 -0.7629
11119TIP3   OH233317   5.920   5.997   3.656  0.6912  0.4401 -0.4629
11119TIP3    H133318   5.938   6.090   3.665  0.7488  0.5806 -1.8365
11119TIP3    H233319   5.849   5.980   3.718  1.2421  1.2087  0.4011
11120TIP3   OH233320   3.121   4.836   2.031  0.1951  0.7584  0.1124
11120TIP3    H133321   3.042   4.784   2.015 -0.3784  1.7902 -0.5348
11120TIP3    H233322   3.175   4.781   2.087 -0.0899 -0.8098 -1.0975
11121TIP3   OH233323   7.542   2.661   0.507 -0.2032  0.9311  0.0682
11121TIP3    H133324   7.586   2.678   0.590 -1.2350  1.7279  0.4716
11121TIP3    H233325   7.609   2.619   0.453  0.5134  0.4977  1.2545
11122TIP3   OH233326   6.283   0.684   0.226 -0.0535  0.6166 -0.1678
11122TIP3    H133327   6.328   0.617   0.176 -0.9567 -0.1825  0.0497
11122TIP3    H233328   6.191   0.675   0.201 -0.2181  1.6421  0.0163
11123TIP3   OH233329   5.334   4.461   4.907  0.3484  0.5192  0.3619
11123TIP3    H133330   5.244   4.465   4.874  0.3724  0.3501  0.2772
11123TIP3    H233331   5.386   4.434   4.831  0.6790  2.0344  0.0104
11124TIP3   OH233332   4.240   2.614   2.711 -0.6474  0.3944 -0.2872
11124TIP3    H133333   4.156   2.654   2.689 -0.4126  0.7441 -0.5630
11124TIP3    H233334   4.227   2.520   2.697 -0.9186  0.4721 -0.5635
11125TIP3   OH233335   5.657   5.894   5.995  0.4882  0.3393  0.0634
11125TIP3    H133336   5.578   5.880   5.943 -1.0029  4.2743  0.8644
11125TIP3    H233337   5.716   5.941   5.936  1.0060  0.0250  0.3298
11126TIP3   OH233338   5.901   2.466   4.671  0.0786 -0.1640 -0.6507
11126TIP3    H133339   5.903   2.525   4.746 -0.8636  0.2638 -0.9397
11126TIP3    H233340   5.819   2.488   4.626 -1.5832 -3.3139  0.5749
11127TIP3   OH233341   1.088   0.673   4.878  0.1695  0.5775  0.4610
11127TIP3    H133342   1.111   0.643   4.966 -1.2242  0.8887  0.9616
11127TIP3    H233343   1.061   0.764   4.890 -0.4295  0.5003 -0.2139
11128TIP3   OH233344   4.617   1.268   0.569  0.7258 -0.1340 -0.1749
11128TIP3    H133345   4.702   1.277   0.612  0.5005 -1.9490  0.7166
11128TIP3    H233346   4.637   1.223   0.486  0.7100  0.1115 -0.3145
11129TIP3   OH233347   5.799   3.775   3.775  0.4083 -0.2417  0.1133
11129TIP3    H133348   5.850   3.778   3.856 -0.0779  0.9140  0.3943
11129TIP3    H233349   5.864   3.780   3.705  0.7792 -0.5015  0.4342
11130TIP3   OH233350   7.281   0.413   0.247  0.7869  0.1353  0.2168
11130TIP3    H133351   7.195   0.454   0.244  1.4541  1.5175 -1.3523
11130TIP3    H233352   7.311   0.426   0.337 -0.6405 -0.4374  0.8084
11131TIP3   OH233353   3.585   2.565   5.773  0.1893  0.0601  0.1703
11131TIP3    H133354   3.536   2.632   5.820  0.0957  1.7302 -2.1300
11131TIP3    H233355   3.653   2.613   5.727  0.5983 -1.5234 -0.9666
11132TIP3   OH233356   2.038   6.227   3.166  0.3576 -0.0492  0.3914
11132TIP3    H133357   2.065   6.286   3.095 -0.8689 -0.5110 -0.4974
11132TIP3    H233358   1.943   6.237   3.170  0.1870 -1.5653  0.5782
11133TIP3   OH233359   4.521   6.175   4.292  0.2394  0.9622 -0.4204
11133TIP3    H133360   4.546   6.099   4.345 -1.3665  0.7312  0.0359
11133TIP3    H233361   4.604   6.207   4.257  1.0164 -0.6683 -0.1760
11134TIP3   OH233362   4.760   1.532   0.179  0.0232  0.2287 -0.4869
11134TIP3    H133363   4.741   1.573   0.263  0.3301 -0.8905  0.1374
11134TIP3    H233364   4.697   1.572   0.118  0.0389  1.3053  0.1776
11135TIP3   OH233365   2.626   6.929   6.059 -0.0639 -0.6547  0.2651
11135TIP3    H133366   2.668   6.862   6.114  1.3827 -0.9492 -1.1385
11135TIP3    H233367   2.663   6.915   5.972 -0.6878  1.1784 -0.3315
11136TIP3   OH233368   1.607   5.375   5.848 -0.5511 -0.0071 -0.4677
11136TIP3    H133369   1.512   5.365   5.845 -0.4524 -0.9599 -1.0107
11136TIP3    H233370   1.634   5.327   5.927 -0.3173 -2.0297 -1.6853
11137TIP3   OH233371   6.793   4.315   3.847  0.0032 -0.7994 -0.2676
11137TIP3    H133372   6.704   4.337   3.874  0.0327  1.6143 -1.9093
11137TIP3    H233373   6.794   4.219   3.844 -3.1943 -0.8919 -2.2902
11138TIP3   OH233374   5.633   5.165   5.801  0.7347  0.0871 -0.6107
11138TIP3    H133375   5.601   5.171   5.711 -0.7297 -1.5687 -0.2542
11138TIP3    H233376   5.615   5.075   5.827  2.6218  0.0573  0.8268
11139TIP3   OH233377   3.472   4.564   2.156 -0.2898  0.2124  0.1819
11139TIP3    H133378   3.396   4.606   2.196  0.3186 -0.1456  1.7802
11139TIP3    H233379   3.509   4.509   2.225 -0.5924 -2.4062 -1.5675
11140TIP3   OH233380   2.663   5.668   0.209 -0.3257  0.1699  0.0415
11140TIP3    H133381   2.658   5.581   0.168  1.2512 -0.6828  1.5303
11140TIP3    H233382   2.671   5.728   0.136 -0.7065 -1.0029 -1.0070
11141TIP3   OH233383   2.287   4.904   3.363  0.3549  0.3655 -0.5764
11141TIP3    H133384   2.212   4.950   3.401  0.4017 -0.3493  0.4208
11141TIP3    H233385   2.277   4.813   3.393  1.5260  0.2261 -0.5744
11142TIP3   OH233386   4.973   3.343   5.449  0.1034 -0.3133  0.1094
11142TIP3    H133387   5.038   3.284   5.485  2.3525  1.9398  0.0182
11142TIP3    H233388   5.013   3.378   5.370 -2.3041 -0.6915 -1.4060
11143TIP3   OH233389   0.674   2.884   0.321 -0.2649 -0.9428  0.3186
11143TIP3    H133390   0.600   2.933   0.286 -0.4999 -0.3643  1.5690
11143TIP3    H233391   0.638   2.798   0.343 -0.5605 -0.6732  0.8938
11144TIP3   OH233392   3.625   4.420   2.343 -0.2187  0.5343 -0.4226
11144TIP3    H133393   3.699   4.359   2.347 -1.0993 -0.7338 -2.1124
11144TIP3    H233394   3.558   4.380   2.398 -0.3004  0.6976 -0.4035
11145TIP3   OH233395   7.243   3.694   1.103 -0.1736  0.1366  0.3786
11145TIP3    H133396   7.236   3.731   1.015  2.5551 -1.6166 -0.7295
11145TIP3    H233397   7.305   3.751   1.148  1.9520 -1.3719 -0.4490
11146TIP3   OH233398   4.111   3.211   0.925  0.4762  0.2193  0.3325
11146TIP3    H133399   4.027   3.257   0.922  0.3636 -0.0025  0.0396
11146TIP3    H233400   4.089   3.121   0.903  0.8114  0.1856  0.1404
11147TIP3   OH233401   6.566   6.377   2.157 -0.2210  0.0937 -0.4272
11147TIP3    H133402   6.640   6.424   2.117  0.1484  0.3479  0.5351
11147TIP3    H233403   6.572   6.288   2.120  0.7046  0.0491 -0.2021
11148TIP3   OH233404   1.121   6.993   5.013 -0.0859 -0.0039 -0.7023
11148TIP3    H133405   1.139   6.953   5.098  0.8800 -1.1111 -1.4077
11148TIP3    H233406   1.156   7.081   5.020  0.4244 -0.2495 -0.1140
11149TIP3   OH233407   5.977   4.970   0.102  0.5913  0.3685  0.7133
11149TIP3    H133408   6.067   4.971   0.072  0.4743 -0.0234  0.3430
11149TIP3    H233409   5.973   4.897   0.164 -0.0651 -1.2866 -1.1813
11150TIP3   OH233410   3.053   2.203   1.075 -0.3627 -0.0725 -1.0236
11150TIP3    H133411   3.111   2.204   1.151 -0.4270  0.1755 -0.9779
11150TIP3    H233412   2.965   2.197   1.112 -0.4699  1.2757 -1.0364
11151TIP3   OH233413   6.638   1.273   0.018 -0.3578  0.1473 -0.1343
11151TIP3    H133414   6.710   1.326   0.052 -0.6850  0.6609 -0.2368
11151TIP3    H233415   6.563   1.294   0.074 -0.5132 -0.1360 -0.2332
11152TIP3   OH233416   0.415   5.151   4.539 -0.1256 -0.3399 -0.1535
11152TIP3    H133417   0.508   5.171   4.527  0.1766 -2.6215 -2.7894
11152TIP3    H233418   0.383   5.130   4.451 -3.4475  1.2774  0.4925
11153TIP3   OH233419   5.247   7.082   0.381  0.0658 -0.3588  0.4252
11153TIP3    H133420   5.242   7.171   0.416 -1.9908  1.0062 -2.7883
11153TIP3    H233421   5.339   7.070   0.359  0.0723  2.1693 -1.4654
11154TIP3   OH233422   3.774   5.768   1.066  0.3535 -0.2453  0.1377
11154TIP3    H133423   3.741   5.679   1.078  0.3037 -0.1807  0.5046
11154TIP3    H233424   3.860   5.756   1.026  0.0247 -0.4246 -0.5266
11155TIP3   OH233425   1.816   4.437   1.301 -0.5755  1.0961  0.2395
11155TIP3    H133426   1.784   4.500   1.366  1.1335  1.9221  0.3226
11155TIP3    H233427   1.886   4.390   1.346 -1.0948 -0.1272 -0.1955
11156TIP3   OH233428   6.772   1.464   0.855 -0.1847 -0.3017  0.0337
11156TIP3    H133429   6.806   1.483   0.943 -1.8381  1.5885  0.3608
11156TIP3    H233430   6.686   1.425   0.871 -1.2075  1.5332 -0.6844
11157TIP3   OH233431   4.570   2.016   0.947  0.3307  0.4877  0.0960
11157TIP3    H133432   4.555   1.933   0.993  2.0340  0.7407  1.1665
11157TIP3    H233433   4.601   2.076   1.014 -1.4923  2.2424 -0.5357
11158TIP3   OH233434   6.546   6.675   5.480  0.1410 -0.3239  0.4428
11158TIP3    H133435   6.601   6.725   5.419  0.9650  0.0984  1.5030
11158TIP3    H233436   6.550   6.585   5.448  1.8106 -0.3745  0.7220
11159TIP3   OH233437   5.933   0.553   5.777  0.0550  0.7149  0.1401
11159TIP3    H133438   5.955   0.466   5.744  0.0120  0.2929  1.1977
11159TIP3    H233439   5.945   0.611   5.702 -0.6233 -0.3029 -0.7892
11160TIP3   OH233440   0.569   4.126   4.200  0.3424  0.1661  0.3862
11160TIP3    H133441   0.597   4.147   4.112  1.1354 -2.4172 -0.0523
11160TIP3    H233442   0.473   4.124   4.195  0.3324  1.1416 -0.0851
11161TIP3   OH233443   5.857   6.064   5.844  0.3427  0.1868  0.0194
11161TIP3    H133444   5.919   6.133   5.869  1.2890 -0.6722  0.1008
11161TIP3    H233445   5.908   6.003   5.792 -0.2680 -0.8680  0.6114
11162TIP3   OH233446   5.986   4.332   0.462 -0.3359  0.1979  0.2355
11162TIP3    H133447   5.955   4.419   0.486  0.8145  0.3814  1.1265
11162TIP3    H233448   6.073   4.325   0.500 -0.9356 -1.8622  1.4156
11163TIP3   OH233449   4.239   4.114   1.606 -0.5633 -0.6147 -0.2379
11163TIP3    H133450   4.306   4.048   1.621 -0.1036  0.0130  0.5599
11163TIP3    H233451   4.186   4.113   1.686 -1.4510 -1.0279 -0.8136
11164TIP3   OH233452   1.956   2.006   0.787 -0.0045 -0.7757  0.2907
11164TIP3    H133453   1.921   2.016   0.876 -1.3671 -1.0649 -0.2014
11164TIP3    H233454   1.924   2.083   0.740 -2.0304 -2.1967 -0.7891
11165TIP3   OH233455   6.292   6.097   4.661  0.3624 -0.3197 -0.1907
11165TIP3    H133456   6.289   6.064   4.750 -1.2318 -0.5259 -0.2975
11165TIP3    H233457   6.332   6.184   4.669 -1.9571  0.7037  1.0885
11166TIP3   OH233458   1.250   1.726   6.173  0.1560 -0.3451 -0.5359
11166TIP3    H133459   1.316   1.713   6.105 -0.5326  1.5035 -1.6474
11166TIP3    H233460   1.174   1.761   6.126 -0.3299  1.0837  1.1877
11167TIP3   OH233461   4.151   1.798   3.460  0.1918  0.2842  0.3008
11167TIP3    H133462   4.234   1.751   3.457  1.1554  1.8860  0.4721
11167TIP3    H233463   4.174   1.884   3.496 -2.0858 -0.3016  3.6196
11168TIP3   OH233464   6.528   3.975   0.059 -0.0654  0.0018  0.5126
11168TIP3    H133465   6.605   4.014   0.016  0.3540  0.0600  1.3109
11168TIP3    H233466   6.520   3.888   0.019  2.3762 -1.3368  2.6281
11169TIP3   OH233467   2.692   2.189   2.630  0.3882 -0.1799 -0.1437
11169TIP3    H133468   2.661   2.104   2.661  0.3966  0.2393  1.0535
11169TIP3    H233469   2.720   2.235   2.709  1.0253  0.6825 -0.8501
11170TIP3   OH233470   7.428   4.341   3.092 -0.3811  0.1625 -0.2033
11170TIP3    H133471   7.388   4.280   3.154 -2.7647 -2.9972 -4.2982
11170TIP3    H233472   7.362   4.408   3.077  0.0038  0.6618  0.3063
11171TIP3   OH233473   5.947   4.653   1.729  0.5729 -0.0789  0.4391
11171TIP3    H133474   5.931   4.738   1.687 -0.0480 -0.1546  0.5163
11171TIP3    H233475   6.028   4.621   1.688 -0.5669 -0.6261 -1.4878
11172TIP3   OH233476   3.890   6.577   3.310  0.7315 -0.4720 -0.2742
11172TIP3    H133477   3.880   6.651   3.370 -0.2022 -1.0423  0.3157
11172TIP3    H233478   3.867   6.501   3.363 -0.1378 -0.9952 -1.3532
11173TIP3   OH233479   5.133   6.490   1.070  0.0099 -0.6922 -0.0902
11173TIP3    H133480   5.102   6.409   1.110 -0.2019 -0.0235  1.1726
11173TIP3    H233481   5.228   6.479   1.064  0.0093 -0.9433  0.3068
11174TIP3   OH233482   5.584   2.966   1.024 -0.2119 -0.2959  0.2982
11174TIP3    H133483   5.644   2.898   0.991 -0.6764 -0.3948 -0.3798
11174TIP3    H233484   5.558   2.935   1.110  0.7802 -0.2049  0.6410
11175TIP3   OH233485   3.830   3.229   2.672  0.0277  0.5459  0.2259
11175TIP3    H133486   3.895   3.278   2.622 -0.4821 -0.0184 -1.0066
11175TIP3    H233487   3.849   3.137   2.654 -0.3545  0.3382  0.8348
11176TIP3   OH233488   6.132   4.528   2.677 -0.0041 -0.0733  0.4359
11176TIP3    H133489   6.135   4.621   2.699  0.0776  0.2924 -1.0194
11176TIP3    H233490   6.041   4.502   2.694 -0.2095  0.4579  0.1775
11177TIP3   OH233491   3.448   2.184   5.698 -0.1828  0.3869 -0.0437
11177TIP3    H133492   3.362   2.196   5.658 -0.0926  2.3554  0.2851
11177TIP3    H233493   3.508   2.176   5.624 -0.5277 -0.1806 -0.2697
11178TIP3   OH233494   1.101   3.581   5.674 -0.2348  0.0810 -0.3766
11178TIP3    H133495   1.025   3.623   5.713  0.1661  1.9235 -1.4772
11178TIP3    H233496   1.166   3.651   5.664  1.4228 -1.3116  0.0085
11179TIP3   OH233497   1.373   6.684   5.726  0.6474 -0.0561 -0.2470
11179TIP3    H133498   1.419   6.600   5.727 -0.0313 -0.4424 -0.6070
11179TIP3    H233499   1.325   6.687   5.808 -0.8140 -0.8840 -1.0309
11180TIP3   OH233500   2.131   5.851   5.671  0.5381 -0.3752  0.4375
11180TIP3    H133501   2.204   5.855   5.733  1.6196  0.3855 -0.8361
11180TIP3    H233502   2.154   5.779   5.611  1.3974  1.2672 -1.3031
11181TIP3   OH233503   1.180   0.046   4.482 -0.3884 -0.3100  0.5272
11181TIP3    H133504   1.179   0.115   4.415 -0.4334  1.3686  2.1775
11181TIP3    H233505   1.095   0.004   4.474 -0.7226  0.4322  0.0710
11182TIP3   OH233506   1.234   2.709   3.923  0.2654  0.6393 -0.1004
11182TIP3    H133507   1.262   2.636   3.979 -1.2964 -0.3952 -0.6102
11182TIP3    H233508   1.172   2.758   3.977  1.2026  1.5542  0.1889
11183TIP3   OH233509   0.316   7.061   4.624  0.2665 -0.3159  0.0316
11183TIP3    H133510   0.405   7.058   4.659  0.8440 -1.4835 -1.4477
11183TIP3    H233511   0.302   6.975   4.584 -0.1723  0.9767 -2.9107
11184TIP3   OH233512   1.120   1.014   1.423  0.0383 -0.0974  0.2539
11184TIP3    H133513   1.030   1.034   1.399 -0.0791  0.4515  1.1157
11184TIP3    H233514   1.168   1.096   1.409  0.2697 -0.2037  0.4056
11185TIP3   OH233515   1.966   0.455   1.515  0.2058  0.9754 -0.2934
11185TIP3    H133516   1.951   0.362   1.530 -2.2260  1.1382 -1.1447
11185TIP3    H233517   1.982   0.462   1.421 -2.2642  1.5689 -0.7604
11186TIP3   OH233518   0.781   3.601   2.533 -0.8463 -0.0567  0.0920
11186TIP3    H133519   0.724   3.525   2.546  2.6019 -2.6343  1.8534
11186TIP3    H233520   0.803   3.598   2.440  0.5336 -2.4108  0.3993
11187TIP3   OH233521   4.673   2.102   3.671 -0.8640 -0.5531  0.5233
11187TIP3    H133522   4.663   2.194   3.649  0.0094 -0.2865  1.1618
11187TIP3    H233523   4.729   2.067   3.601 -0.2652 -0.3237  0.8768
11188TIP3   OH233524   1.250   1.108   3.229 -0.0108 -0.5359  0.0848
11188TIP3    H133525   1.255   1.106   3.324 -0.4227 -1.0127  0.0994
11188TIP3    H233526   1.313   1.043   3.199 -0.0330 -0.5349  0.0348
11189TIP3   OH233527   4.747   6.812   4.538 -0.8095 -0.0806  0.5315
11189TIP3    H133528   4.819   6.875   4.529 -0.0312 -1.0760 -0.4291
11189TIP3    H233529   4.755   6.778   4.627  0.3933 -0.7507  0.1758
11190TIP3   OH233530   1.945   5.588   0.731  0.2976  0.3970 -0.0662
11190TIP3    H133531   1.888   5.665   0.729 -1.2963 -0.5871  2.2840
11190TIP3    H233532   1.969   5.579   0.824 -0.7187 -2.6694  0.0204
11191TIP3   OH233533   5.542   2.903   2.512 -0.0404  0.2242 -0.1748
11191TIP3    H133534   5.599   2.915   2.436  1.1430 -1.0104  0.4748
11191TIP3    H233535   5.474   2.970   2.502  0.0325  0.0477 -2.3573
11192TIP3   OH233536   5.203   4.722   1.725  0.1083  0.4207 -0.1120
11192TIP3    H133537   5.218   4.755   1.637  2.0599  0.0857  0.0525
11192TIP3    H233538   5.179   4.800   1.776 -0.6217  0.6789 -0.8329
11193TIP3   OH233539   6.436   2.931   4.604  0.5326  0.2353 -0.2878
11193TIP3    H133540   6.428   3.001   4.540  1.0281  0.3528 -0.2304
11193TIP3    H233541   6.519   2.888   4.581  0.6040  0.1439  0.1363
11194TIP3   OH233542   0.696   2.210   5.288  0.1603 -0.5868  0.5962
11194TIP3    H133543   0.606   2.240   5.285  0.8376  1.5593 -0.7232
11194TIP3    H233544   0.715   2.181   5.198  0.9254 -0.5405  0.7325
11195TIP3   OH233545   1.648   5.863   5.462  0.1312 -0.1665  0.1509
11195TIP3    H133546   1.673   5.772   5.443 -0.4566 -0.3818  0.3748
11195TIP3    H233547   1.552   5.862   5.462  0.1113  0.6563 -0.7896
11196TIP3   OH233548   2.531   4.080   5.835  0.5041  0.3325  0.6448
11196TIP3    H133549   2.463   4.148   5.834  0.5115  0.4134  2.2137
11196TIP3    H233550   2.555   4.072   5.928 -0.2422 -2.5388  0.6919
11197TIP3   OH233551   4.902   3.471   1.575 -0.2755  0.6873  0.5099
11197TIP3    H133552   4.930   3.549   1.527 -1.5381  1.5339  1.1028
11197TIP3    H233553   4.807   3.467   1.561 -0.1235 -1.3645 -0.3882
11198TIP3   OH233554   3.819   0.642   0.025  0.5809 -0.3280  0.0045
11198TIP3    H133555   3.733   0.668  -0.008  0.4974 -0.7983 -0.1464
11198TIP3    H233556   3.806   0.625   0.118  0.8205  1.0267  0.3072
11199TIP3   OH233557   3.541   4.842   5.761  0.1897  0.2462 -0.3439
11199TIP3    H133558   3.552   4.785   5.837  0.9517 -1.4150 -1.6233
11199TIP3    H233559   3.493   4.918   5.794 -0.8975 -1.1349  1.4585
11200TIP3   OH233560   3.895   5.422   3.791 -0.6763 -0.5707 -0.2315
11200TIP3    H133561   3.909   5.503   3.840  1.3408 -1.2048  0.2874
11200TIP3    H233562   3.900   5.352   3.856  2.1788 -1.4368 -1.2247
11201TIP3   OH233563   7.351   0.164   2.233  0.0977  0.5567  0.2017
11201TIP3    H133564   7.425   0.203   2.188 -0.2861  1.4121  0.2942
11201TIP3    H233565   7.324   0.230   2.297  1.0029 -0.8342  2.1399
11202TIP3   OH233566   5.692   1.686   2.359  0.2320 -0.0724  0.0286
11202TIP3    H133567   5.708   1.663   2.267 -0.5099  1.1675 -0.4217
11202TIP3    H233568   5.706   1.780   2.363  1.2731 -0.2562  1.4298
11203TIP3   OH233569   1.813   5.718   1.376 -0.7110 -0.1841 -0.0931
11203TIP3    H133570   1.864   5.650   1.419  0.7886 -1.0403 -2.9467
11203TIP3    H233571   1.872   5.792   1.368 -0.5402 -0.4301 -1.5227
11204TIP3   OH233572   0.131   6.095   2.315 -0.3134 -0.3296  0.0783
11204TIP3    H133573   0.181   6.055   2.386 -0.1049 -0.7867 -0.3214
11204TIP3    H233574   0.048   6.047   2.314 -0.7771  0.4315  0.7451
11205TIP3   OH233575   2.113   5.272   6.189 -0.2433  0.2266  0.6230
11205TIP3    H133576   2.091   5.187   6.151  0.0999  0.7194 -0.7542
11205TIP3    H233577   2.037   5.295   6.242 -0.4621 -0.7985  0.7806
11206TIP3   OH233578   6.167   3.494   3.135  0.0572 -0.4672  0.2667
11206TIP3    H133579   6.214   3.424   3.090 -1.0330 -0.4214 -1.0122
11206TIP3    H233580   6.077   3.486   3.104 -0.2469  1.0303  0.6883
11207TIP3   OH233581   0.614   5.425   1.519 -0.5912 -0.1810 -0.2793
11207TIP3    H133582   0.687   5.415   1.457 -0.6252 -0.8238 -0.2135
11207TIP3    H233583   0.650   5.481   1.588 -0.5950  0.6520 -0.9353
11208TIP3   OH233584   0.595   2.791   4.392 -0.4365  0.1353  0.0849
11208TIP3    H133585   0.574   2.824   4.305 -0.5004  0.0435  0.0662
11208TIP3    H233586   0.523   2.733   4.414  0.1976 -0.8312 -0.3300
11209TIP3   OH233587   2.500   2.199   5.687 -0.1711  0.5631  0.4611
11209TIP3    H133588   2.413   2.159   5.689  0.7007 -1.5219  0.1589
11209TIP3    H233589   2.497   2.264   5.617 -1.6849  1.0817  0.9820
11210TIP3   OH233590   1.686   2.582   4.130  0.6110 -0.2895  0.5448
11210TIP3    H133591   1.613   2.521   4.125  1.1425 -0.8987 -0.0961
11210TIP3    H233592   1.702   2.607   4.039 -0.0538  1.3680  0.8637
11211TIP3   OH233593   1.851   4.137   3.456  0.3920  0.1463 -0.4032
11211TIP3    H133594   1.855   4.221   3.503 -0.5828 -0.5828  1.0460
11211TIP3    H233595   1.803   4.157   3.376  0.8034  1.1067 -0.4353
11212TIP3   OH233596   5.492   1.225   5.747  0.0762 -0.0031 -0.0326
11212TIP3    H133597   5.502   1.174   5.667  0.3468 -1.0475  0.6376
11212TIP3    H233598   5.399   1.243   5.754 -0.0502 -0.5806 -0.1922
11213TIP3   OH233599   7.114   4.050   2.704 -0.1244 -0.3706  0.2949
11213TIP3    H133600   7.165   4.124   2.672 -1.2275  0.8787  1.3336
11213TIP3    H233601   7.155   3.973   2.664  0.4435  0.8603 -1.5724
11214TIP3   OH233602   4.601   1.764   1.026 -0.1683  0.1045  0.0955
11214TIP3    H133603   4.691   1.795   1.013  0.0257 -0.5405 -0.1392
11214TIP3    H233604   4.599   1.678   0.985 -1.3287  0.7697 -1.3277
11215TIP3   OH233605   6.468   6.743   4.018  0.0348 -0.2127  0.3608
11215TIP3    H133606   6.452   6.779   3.931 -2.2702  0.4669  0.9793
11215TIP3    H233607   6.456   6.817   4.077  0.0827 -0.9771  1.3578
11216TIP3   OH233608   1.025   6.115   4.224 -0.0615 -1.3487 -0.3813
11216TIP3    H133609   0.963   6.077   4.162 -0.7771 -1.9895  0.6847
11216TIP3    H233610   1.110   6.078   4.199 -0.3929 -1.8676 -0.7531
11217TIP3   OH233611   4.636   7.172   1.192  0.3207 -0.2571  0.1639
11217TIP3    H133612   4.582   7.153   1.115 -0.2703  1.9750 -0.0421
11217TIP3    H233613   4.722   7.138   1.169  0.3879  1.1364 -1.8998
11218TIP3   OH233614   6.261   2.337   5.119  0.5823  0.1108 -0.3687
11218TIP3    H133615   6.232   2.292   5.040  0.8800 -1.3225  0.2988
11218TIP3    H233616   6.238   2.429   5.104  0.7457 -0.1033 -2.1478
11219TIP3   OH233617   5.191   2.767   4.929 -0.0995  0.0460 -0.3332
11219TIP3    H133618   5.150   2.791   5.012  1.0551 -2.0314  0.9014
11219TIP3    H233619   5.285   2.775   4.945  0.1424 -0.5037 -1.4039
11220TIP3   OH233620   6.222   2.302   3.589 -0.5804  0.3819 -0.3043
11220TIP3    H133621   6.302   2.330   3.634  0.4303  0.2521 -1.9592
11220TIP3    H233622   6.211   2.210   3.615 -1.8540  1.1445  2.2058
11221TIP3   OH233623   1.991   0.508   1.965 -0.0429 -0.1424  0.3886
11221TIP3    H133624   2.043   0.428   1.951 -0.9517 -0.5755 -0.7376
11221TIP3    H233625   1.995   0.554   1.881 -0.6290  0.3123  0.6010
11222TIP3   OH233626   4.882   6.616   0.917  0.1273  0.0647  0.3852
11222TIP3    H133627   4.837   6.533   0.900  0.4901 -0.0354 -0.1023
11222TIP3    H233628   4.830   6.682   0.871  0.8357 -0.1409 -0.7508
11223TIP3   OH233629   6.832   2.466   0.868 -0.0621 -0.0063 -0.1203
11223TIP3    H133630   6.821   2.493   0.776 -1.3869 -0.8846 -0.2545
11223TIP3    H233631   6.914   2.507   0.895 -1.3162  3.1874 -0.6235
11224TIP3   OH233632   3.818   3.935   5.786  0.3319 -0.0835  0.1113
11224TIP3    H133633   3.859   3.849   5.774 -0.6076 -0.6551  0.9026
11224TIP3    H233634   3.865   3.974   5.861  2.8189  1.4120 -2.0610
11225TIP3   OH233635   0.723   3.303   1.879  0.0955 -0.1191 -0.0251
11225TIP3    H133636   0.701   3.396   1.882  0.1088 -0.0913 -0.6709
11225TIP3    H233637   0.669   3.268   1.808 -1.0380 -0.9231  1.1857
11226TIP3   OH233638   3.247   2.317   2.997  0.2606  0.3275  0.1443
11226TIP3    H133639   3.159   2.355   2.999 -0.0390 -0.0029 -2.4172
11226TIP3    H233640   3.306   2.390   3.014 -0.4760  0.8462  0.4782
11227TIP3   OH233641   0.446   4.904   5.370 -0.7122  0.3442 -0.4004
11227TIP3    H133642   0.535   4.915   5.402 -0.7306 -0.3011 -0.1076
11227TIP3    H233643   0.397   4.870   5.445 -0.8176 -0.9230 -1.0144
11228TIP3   OH233644   6.874   4.409   5.842  0.0783 -0.1042  0.0604
11228TIP3    H133645   6.793   4.364   5.866  0.5606 -0.7413  0.5368
11228TIP3    H233646   6.846   4.496   5.814 -0.9955 -0.9639 -1.7497
11229TIP3   OH233647   4.178   7.061   5.428 -0.0599 -0.9300  0.2361
11229TIP3    H133648   4.158   7.042   5.336  0.4172  1.4143 -0.4267
11229TIP3    H233649   4.119   7.132   5.451  1.1035 -0.2077  1.1326
11230TIP3   OH233650   0.495   5.482   3.425  0.2566  0.7064  0.0312
11230TIP3    H133651   0.501   5.438   3.340  0.0454  1.5233 -0.4175
11230TIP3    H233652   0.405   5.514   3.429  0.3460  0.9098  0.4458
11231TIP3   OH233653   0.705   1.862   1.996  0.0972  0.2990 -0.4686
11231TIP3    H133654   0.799   1.856   1.979 -0.0271 -0.7613 -0.8395
11231TIP3    H233655   0.696   1.840   2.089  0.0745 -1.0934 -0.7924
11232TIP3   OH233656   6.374   0.727   3.559  0.1689  0.1420  0.4987
11232TIP3    H133657   6.324   0.651   3.587 -1.2739  1.4020  1.4387
11232TIP3    H233658   6.454   0.724   3.612 -0.0502 -0.4702  0.8037
11233TIP3   OH233659   1.587   4.772   3.166 -0.2367  0.3782  0.0398
11233TIP3    H133660   1.654   4.841   3.157  0.6872 -0.4406  0.4799
11233TIP3    H233661   1.505   4.820   3.178  0.2575  1.4095 -0.5395
11234TIP3   OH233662   5.314   6.951   6.196  0.8311  0.0224 -0.3182
11234TIP3    H133663   5.396   7.001   6.205  0.5046  0.4541  0.3676
11234TIP3    H233664   5.335   6.882   6.134  2.2834 -1.0095  1.2208
11235TIP3   OH233665   4.135   2.450   2.339  0.7657 -0.2334 -0.2144
11235TIP3    H133666   4.095   2.363   2.338  1.2876 -0.5282 -2.3295
11235TIP3    H233667   4.160   2.465   2.430 -0.8556 -1.5630  0.4953
11236TIP3   OH233668   6.920   6.269   5.260  0.1916  0.8846  0.6615
11236TIP3    H133669   6.834   6.312   5.259  0.7080  1.9464  0.6837
11236TIP3    H233670   6.918   6.207   5.187 -0.0193  2.0522 -0.3343
11237TIP3   OH233671   6.561   2.372   5.242 -0.1221 -0.3363 -0.2390
11237TIP3    H133672   6.584   2.348   5.152  0.7348 -0.6536  0.0568
11237TIP3    H233673   6.491   2.437   5.232  0.5176  0.2275 -1.1533
11238TIP3   OH233674   7.312   3.732   0.489  0.1631  0.3254 -0.3468
11238TIP3    H133675   7.271   3.815   0.466  2.5370  1.4260 -0.9112
11238TIP3    H233676   7.241   3.679   0.526 -1.3880  2.6373  0.1834
11239TIP3   OH233677   2.071   5.767   0.939  1.3641  0.7088  0.7667
11239TIP3    H133678   2.040   5.857   0.925  3.4944  1.4937  0.6763
11239TIP3    H233679   2.132   5.751   0.867  0.6828 -1.0087  0.5219
11240TIP3   OH233680   4.065   1.148   6.032 -0.6797  0.1921 -0.1036
11240TIP3    H133681   4.041   1.064   6.072 -0.3006 -0.4578 -1.1782
11240TIP3    H233682   4.078   1.127   5.939 -0.0456  1.3357 -0.2926
11241TIP3   OH233683   5.963   2.999   4.408  0.3041  0.2395  0.1851
11241TIP3    H133684   5.977   3.082   4.363  1.5603 -0.4957 -0.8831
11241TIP3    H233685   5.980   3.018   4.500 -2.6673  1.8676  0.5293
11242TIP3   OH233686   2.437   6.551   0.398 -0.2648  0.1477  0.2531
11242TIP3    H133687   2.475   6.554   0.310 -0.5715 -0.5559  0.0882
11242TIP3    H233688   2.493   6.608   0.450 -0.3255  0.8982 -0.4873
11243TIP3   OH233689   0.112   5.059   4.031 -0.6202  0.1367  0.9521
11243TIP3    H133690   0.163   5.061   3.949 -0.2485  0.0606  1.1783
11243TIP3    H233691   0.056   4.982   4.022  1.2992 -1.4694  1.8676
11244TIP3   OH233692   1.211   1.842   0.221 -0.0756 -0.5268 -0.2411
11244TIP3    H133693   1.143   1.887   0.171 -1.3799 -2.1295  0.0211
11244TIP3    H233694   1.202   1.750   0.198  0.0555 -1.1735  2.0109
11245TIP3   OH233695   0.879   1.936   3.552 -0.2397  0.2628 -0.7195
11245TIP3    H133696   0.941   1.890   3.496 -0.7267  0.6449 -1.5885
11245TIP3    H233697   0.806   1.959   3.494 -1.0054  0.1834  0.1969
11246TIP3   OH233698   5.087   1.758   3.940 -0.3115  0.5008 -0.0136
11246TIP3    H133699   5.039   1.835   3.971 -0.1307  1.1453 -1.2804
11246TIP3    H233700   5.174   1.791   3.917  0.7950 -0.6511  2.2417
11247TIP3   OH233701   0.286   1.293   3.143  0.5498  0.1794 -0.1870
11247TIP3    H133702   0.331   1.376   3.127  2.8227 -0.7030  1.1794
11247TIP3    H233703   0.240   1.275   3.061  0.4073  2.4992 -0.7004
11248TIP3   OH233704   6.966   4.595   1.257 -0.0236  0.6189  0.7007
11248TIP3    H133705   7.013   4.512   1.242 -1.1016 -0.0411  0.9106
11248TIP3    H233706   6.927   4.585   1.344  1.0621  1.9643  1.3940
11249TIP3   OH233707   6.353   6.807   1.579 -0.4014 -0.3024  0.7312
11249TIP3    H133708   6.384   6.856   1.503  0.2858  1.1185  1.8626
11249TIP3    H233709   6.393   6.720   1.570  0.4759  0.1612 -0.0287
11250TIP3   OH233710   2.933   4.416   1.614 -0.3980 -0.8776  0.3137
11250TIP3    H133711   2.910   4.382   1.700 -1.4031  0.7978  0.7669
11250TIP3    H233712   3.023   4.446   1.623 -0.1132 -1.7640  0.4334
11251TIP3   OH233713   1.992   3.612   5.252  0.6275  0.5642 -0.0578
11251TIP3    H133714   1.909   3.631   5.208  0.6466  1.7057  0.3808
11251TIP3    H233715   2.017   3.695   5.293  0.5917 -0.4767  2.1604
11252TIP3   OH233716   4.145   6.641   1.158 -0.0235  0.0175  0.5499
11252TIP3    H133717   4.055   6.654   1.189 -0.0341  0.0753  0.4939
11252TIP3    H233718   4.200   6.660   1.234 -0.0812 -0.4926  0.7272
11253TIP3   OH233719   3.127   1.033   1.200 -0.1056 -0.1266 -0.0576
11253TIP3    H133720   3.072   0.956   1.186 -1.9532  1.3806 -1.6481
11253TIP3    H233721   3.200   1.022   1.139 -0.2733 -0.6900 -0.1574
11254TIP3   OH233722   4.106   3.608   1.888 -0.2267  0.7063 -0.8114
11254TIP3    H133723   4.067   3.672   1.947  0.6009  2.4409 -2.0750
11254TIP3    H233724   4.092   3.643   1.800  0.6474 -0.6229 -1.5258
11255TIP3   OH233725   4.998   2.124   4.245 -0.1389 -0.0994 -0.4796
11255TIP3    H133726   4.982   2.085   4.331  1.8606 -0.5388 -0.2602
11255TIP3    H233727   4.965   2.060   4.183 -0.1715 -0.4970 -0.0600
11256TIP3   OH233728   6.189   1.034   1.932  0.2128 -0.2590  0.3529
11256TIP3    H133729   6.177   0.940   1.945  0.1723 -0.6424 -1.9997
11256TIP3    H233730   6.109   1.062   1.886  0.9357  0.5750 -0.4276
11257TIP3   OH233731   1.858   1.154   4.463 -0.1858  0.1934 -0.7963
11257TIP3    H133732   1.839   1.215   4.391 -1.2523  1.1914  0.2880
11257TIP3    H233733   1.824   1.197   4.541 -0.0392 -1.3520  0.1696
11258TIP3   OH233734   1.178   4.836   1.179  0.0293 -0.3525  0.9332
11258TIP3    H133735   1.195   4.929   1.196  0.7443 -0.2543 -0.2269
11258TIP3    H233736   1.108   4.836   1.114  0.1254 -0.6272  0.8291
11259TIP3   OH233737   3.175   4.584   4.005  0.3590 -0.3876 -0.0787
11259TIP3    H133738   3.138   4.638   4.075  1.0550  2.9491 -2.0714
11259TIP3    H233739   3.105   4.579   3.939  0.8159 -0.6493 -0.5575
11260TIP3   OH233740   7.047   5.820   2.934  0.1989 -0.1512  0.1249
11260TIP3    H133741   6.966   5.798   2.888 -0.7910  1.9624  0.7074
11260TIP3    H233742   7.042   5.773   3.017 -1.2209  1.1065  0.8066
11261TIP3   OH233743   5.086   1.580   3.635  0.4709 -0.7897 -0.6815
11261TIP3    H133744   5.060   1.518   3.568 -1.0641 -0.1282 -0.7207
11261TIP3    H233745   5.172   1.549   3.664 -0.0094 -2.5855 -1.0966
11262TIP3   OH233746   5.898   6.536   1.856 -0.1043 -0.0803  0.1020
11262TIP3    H133747   5.803   6.545   1.847 -0.3985 -2.2802  0.2633
11262TIP3    H233748   5.910   6.443   1.879  2.1010  0.1025 -0.1539
11263TIP3   OH233749   1.888   3.230   0.421  0.3027 -0.2500  0.0659
11263TIP3    H133750   1.979   3.254   0.405  0.3185 -0.1112  0.3482
11263TIP3    H233751   1.839   3.268   0.348  0.0248  2.6120  1.5790
11264TIP3   OH233752   3.734   0.210   5.203 -0.7902 -0.1524  0.5626
11264TIP3    H133753   3.757   0.189   5.294  1.0785  0.8317  0.3613
11264TIP3    H233754   3.811   0.186   5.153 -1.3550  0.4259 -0.6156
11265TIP3   OH233755   6.898   5.444   0.633 -0.2023 -0.0466  0.3513
11265TIP3    H133756   6.930   5.438   0.723 -1.4700  0.4030  0.8519
11265TIP3    H233757   6.828   5.509   0.637 -1.8289 -1.6613 -0.4994
11266TIP3   OH233758   2.257   3.851   2.277  0.3022  0.4530 -0.1949
11266TIP3    H133759   2.252   3.765   2.236 -0.4955 -0.3568  1.5119
11266TIP3    H233760   2.343   3.884   2.251  0.3026 -0.4864 -1.5351
11267TIP3   OH233761   2.142   7.052   1.337 -0.2181  0.4879  0.2038
11267TIP3    H133762   2.156   6.959   1.318 -0.4426  0.0821  1.8680
11267TIP3    H233763   2.217   7.096   1.298 -0.1462 -0.3836 -0.6748
11268TIP3   OH233764   6.039   6.428   1.240 -0.1219 -0.1715 -0.1312
11268TIP3    H133765   5.961   6.431   1.186 -0.6996 -1.1179  0.5990
11268TIP3    H233766   6.077   6.515   1.233 -1.2595  0.3185 -0.4779
11269TIP3   OH233767   6.811   3.929   2.387 -0.0576 -0.4805  0.0651
11269TIP3    H133768   6.821   3.980   2.306 -4.0467 -1.2622 -1.1172
11269TIP3    H233769   6.873   3.857   2.378  0.3606  0.0615 -1.7468
11270TIP3   OH233770   4.329   2.574   0.388  0.0849 -0.5419 -0.1073
11270TIP3    H133771   4.373   2.610   0.311  0.1209 -0.5825 -0.1050
11270TIP3    H233772   4.270   2.507   0.353  0.0477 -0.5098 -0.1070
11271TIP3   OH233773   1.652   0.072   1.008 -0.0959  0.2265 -0.1521
11271TIP3    H133774   1.615   0.048   0.923 -1.0696 -1.8002  0.7747
11271TIP3    H233775   1.721   0.008   1.023 -1.7182 -1.2037  1.7141
11272TIP3   OH233776   3.764   0.279   2.869 -0.0610 -0.0343  0.0358
11272TIP3    H133777   3.716   0.307   2.947  2.4535 -0.1163  1.7141
11272TIP3    H233778   3.695   0.260   2.804 -2.2515 -0.0469  2.2217
11273TIP3   OH233779   6.661   3.960   4.508  0.3196 -0.3522 -0.1173
11273TIP3    H133780   6.752   3.987   4.514  0.4796 -1.1341  1.7912
11273TIP3    H233781   6.613   4.027   4.557 -0.2888  0.5669 -1.8983
11274TIP3   OH233782   2.076   1.696   6.075  0.3696  0.4550 -0.7632
11274TIP3    H133783   2.160   1.727   6.108 -0.4838  0.9964  1.0248
11274TIP3    H233784   2.022   1.774   6.069 -0.4292 -0.0668 -0.5565
11275TIP3   OH233785   0.978   5.168   1.885 -0.0092 -0.5131 -0.0942
11275TIP3    H133786   0.910   5.123   1.834 -0.5959  0.1320  0.1014
11275TIP3    H233787   0.931   5.239   1.929  0.4966 -0.9733  1.2460
11276TIP3   OH233788   6.533   3.396   5.568 -0.7456 -0.3073 -0.2325
11276TIP3    H133789   6.468   3.446   5.617  0.1540 -0.0342  0.7259
11276TIP3    H233790   6.568   3.333   5.632 -0.1818 -0.5469 -0.7644
11277TIP3   OH233791   6.847   4.007   4.874 -0.3399 -0.1413 -0.1264
11277TIP3    H133792   6.881   3.997   4.962 -0.7922  0.1628  0.0847
11277TIP3    H233793   6.845   3.918   4.839 -1.0758 -0.3948  0.5198
11278TIP3   OH233794   7.121   4.762   0.380 -0.5322 -0.2399  0.0269
11278TIP3    H133795   7.056   4.771   0.449 -0.0525 -0.2601  0.4904
11278TIP3    H233796   7.187   4.829   0.399 -0.5827  0.0052 -0.6294
11279TIP3   OH233797   7.500   7.072   0.820  0.4293  0.3586  0.7867
11279TIP3    H133798   7.425   7.062   0.761  0.7502 -0.2460  0.4838
11279TIP3    H233799   7.576   7.076   0.763  0.6223  1.1495  1.0858
11280TIP3   OH233800   0.464   0.903   1.364  0.7332 -0.4028  0.3477
11280TIP3    H133801   0.558   0.921   1.377  0.6406 -1.1359  2.4933
11280TIP3    H233802   0.434   0.974   1.308  2.8692 -1.0095 -1.7320
11281TIP3   OH233803   0.901   4.554   1.825 -0.2430  0.4670  0.6479
11281TIP3    H133804   0.837   4.583   1.891 -0.6231 -0.4277  0.7004
11281TIP3    H233805   0.847   4.529   1.749  0.2009  1.5987 -0.0559
11282TIP3   OH233806   7.431   5.415   5.691  0.0543 -0.2146 -0.0066
11282TIP3    H133807   7.473   5.349   5.746 -0.0924 -0.3415 -0.0446
11282TIP3    H233808   7.362   5.367   5.644  0.0550 -0.0683 -0.1583
11283TIP3   OH233809   4.232   2.320   3.366  0.2280 -0.2427 -0.1299
11283TIP3    H133810   4.213   2.230   3.392 -0.0334 -0.5723 -1.4086
11283TIP3    H233811   4.321   2.335   3.398  0.4538 -1.1277 -0.3052
11284TIP3   OH233812   7.500   1.483   5.039  0.0668  0.7865  0.0789
11284TIP3    H133813   7.568   1.473   5.105  0.7046 -0.4819 -0.7315
11284TIP3    H233814   7.461   1.569   5.057  1.2207  1.1068  1.1592
11285TIP3   OH233815   2.265   6.751   2.348 -0.5075  0.0014 -0.0812
11285TIP3    H133816   2.308   6.804   2.414 -0.5668  2.7069 -2.0537
11285TIP3    H233817   2.336   6.701   2.307 -0.1606 -0.0317  0.5527
11286TIP3   OH233818   6.551   4.776   5.428 -0.2430  0.5214  0.5110
11286TIP3    H133819   6.542   4.762   5.523  0.7145  0.3383  0.5888
11286TIP3    H233820   6.645   4.785   5.415 -0.2384 -0.8928 -0.6246
11287TIP3   OH233821   4.930   2.577   3.285  0.4447  0.3509  0.2173
11287TIP3    H133822   4.993   2.606   3.219  1.9261 -1.7045  0.5993
11287TIP3    H233823   4.947   2.632   3.361  0.2739  1.2372 -0.3730
11288TIP3   OH233824   6.400   6.898   2.269  0.0953  0.2306  0.8299
11288TIP3    H133825   6.482   6.874   2.228 -0.6947  1.1568 -1.4754
11288TIP3    H233826   6.334   6.889   2.199 -1.4058  1.5077  1.9956
11289TIP3   OH233827   5.392   6.516   2.716 -0.3231  0.4240 -0.2575
11289TIP3    H133828   5.333   6.587   2.743 -0.7560 -0.4786  1.3517
11289TIP3    H233829   5.333   6.444   2.693  0.1199  0.3245 -1.0973
11290TIP3   OH233830   4.591   5.674   1.951 -0.2072  0.0559  0.1698
11290TIP3    H133831   4.543   5.621   2.014  1.0439 -0.6381  0.5821
11290TIP3    H233832   4.659   5.615   1.917 -0.2462  0.7079 -1.1130
11291TIP3   OH233833   6.877   4.607   4.327 -0.0906  0.5234 -0.9751
11291TIP3    H133834   6.831   4.669   4.384 -1.2883 -1.3044  0.1714
11291TIP3    H233835   6.811   4.582   4.262  0.9102  1.6939 -2.4957
11292TIP3   OH233836   4.828   2.667   6.018  0.1542  0.2774 -0.4024
11292TIP3    H133837   4.796   2.577   6.024 -1.2723  0.7968  0.1747
11292TIP3    H233838   4.828   2.687   5.925  0.4881 -0.3120 -0.5337
11293TIP3   OH233839   1.029   1.185   1.727  0.1086 -0.2477 -0.6934
11293TIP3    H133840   1.059   1.225   1.809 -1.0709 -1.0966  0.1730
11293TIP3    H233841   1.037   1.255   1.663  3.9915 -0.3635 -0.6163
11294TIP3   OH233842   3.783   0.871   1.107  1.0569  0.7136  0.4812
11294TIP3    H133843   3.737   0.809   1.163  0.9291  0.4269  0.0691
11294TIP3    H233844   3.726   0.880   1.030  2.6335 -1.3028 -1.0505
11295TIP3   OH233845   1.719   4.657   5.022  0.3777 -0.1222 -0.2506
11295TIP3    H133846   1.683   4.642   4.934 -1.4488  0.8297  0.2751
11295TIP3    H233847   1.648   4.634   5.081  1.1939  0.3205  0.9373
11296TIP3   OH233848   1.599   5.992   0.157  0.0014  0.7576  0.0162
11296TIP3    H133849   1.636   5.921   0.105  0.6160  1.0524  0.0396
11296TIP3    H233850   1.505   5.987   0.142 -0.0535 -0.5509  0.6224
11297TIP3   OH233851   2.112   3.398   2.033 -0.0394  0.1706  0.1381
11297TIP3    H133852   2.043   3.337   2.009  0.7187 -0.3268 -0.8462
11297TIP3    H233853   2.162   3.411   1.952  1.2818  0.1695  0.9264
11298TIP3   OH233854   6.299   3.325   1.346 -0.5736 -0.0514  0.0365
11298TIP3    H133855   6.211   3.337   1.384  0.2299  2.4222  1.3764
11298TIP3    H233856   6.319   3.409   1.305 -0.2016 -1.7129 -3.5759
11299TIP3   OH233857   6.186   4.221   4.382  0.5545 -0.2651 -0.0212
11299TIP3    H133858   6.218   4.308   4.405 -0.6745 -0.1718  1.4786
11299TIP3    H233859   6.255   4.162   4.412  1.5864  0.1862 -1.4252
11300TIP3   OH233860   0.545   1.363   5.084  0.1432 -0.1633  0.3640
11300TIP3    H133861   0.593   1.380   5.002 -1.4447 -1.2754 -0.8602
11300TIP3    H233862   0.613   1.347   5.148  1.4724  1.4880 -0.5359
11301TIP3   OH233863   5.697   5.110   1.182  0.3010  0.1247 -0.1952
11301TIP3    H133864   5.702   5.073   1.271 -3.6971 -0.6265 -0.1014
11301TIP3    H233865   5.611   5.081   1.149  1.6324  0.3112 -4.3839
11302TIP3   OH233866   4.087   6.395   0.191  0.6887 -0.0373  1.0849
11302TIP3    H133867   4.007   6.355   0.227 -0.7214  0.7016 -1.0318
11302TIP3    H233868   4.067   6.488   0.186  2.4406  0.4522  2.2357
11303TIP3   OH233869   6.946   0.210   2.099 -0.0861 -0.3058  0.0979
11303TIP3    H133870   7.000   0.287   2.080  0.3183 -0.7815 -0.7111
11303TIP3    H233871   6.904   0.231   2.183 -0.8086  1.2488 -0.6075
11304TIP3   OH233872   3.702   4.699   1.314 -0.2402  0.4342  0.0660
11304TIP3    H133873   3.796   4.717   1.315 -0.3259  1.1581 -2.0379
11304TIP3    H233874   3.693   4.620   1.261 -0.7999  0.0377  0.7230
11305TIP3   OH233875   0.310   2.703   3.750  0.3960  0.2284  0.0460
11305TIP3    H133876   0.344   2.757   3.680  1.6003 -0.0966  0.3583
11305TIP3    H233877   0.262   2.764   3.807  0.8674  0.7802 -0.1457
11306TIP3   OH233878   3.411   4.691   1.232 -0.2303  0.4794  0.1651
11306TIP3    H133879   3.375   4.779   1.248  1.5962  1.6673 -1.8232
11306TIP3    H233880   3.488   4.686   1.289 -1.3969 -0.6650  1.7318
11307TIP3   OH233881   1.196   1.026   0.031 -0.2460 -0.2217 -0.1220
11307TIP3    H133882   1.132   0.957   0.051  0.5393 -1.1268 -0.6437
11307TIP3    H233883   1.164   1.064  -0.051 -1.1549  0.6456  0.6083
11308TIP3   OH233884   7.526   1.360   0.939 -0.4723 -0.6462  0.0785
11308TIP3    H133885   7.484   1.445   0.948  1.6823  0.5603 -0.4493
11308TIP3    H233886   7.583   1.353   1.016 -0.4011 -1.4842 -0.0375
11309TIP3   OH233887   2.452   0.740   0.342  0.8462  0.0733  0.3958
11309TIP3    H133888   2.376   0.797   0.355  1.8709  1.2131  1.6144
11309TIP3    H233889   2.453   0.724   0.247 -0.3486  0.8161  0.2234
11310TIP3   OH233890   0.893   1.445   2.214  0.5647 -0.3467 -0.0687
11310TIP3    H133891   0.865   1.356   2.235 -0.2921 -0.2767 -0.8657
11310TIP3    H233892   0.978   1.454   2.257  0.4502 -1.3871  0.4057
11311TIP3   OH233893   2.864   1.749   5.185 -0.4840 -0.0138 -0.1032
11311TIP3    H133894   2.810   1.678   5.220 -0.9114  0.1011 -0.5188
11311TIP3    H233895   2.947   1.740   5.231  0.5800 -2.7007 -2.2948
11312TIP3   OH233896   0.812   4.798   3.534  0.0190 -0.6118 -0.1248
11312TIP3    H133897   0.836   4.759   3.618  0.9553 -0.6309 -0.3929
11312TIP3    H233898   0.862   4.879   3.531  0.1857 -0.7372 -0.7785
11313TIP3   OH233899   5.991   3.030   0.284 -0.2530 -0.2997  0.5063
11313TIP3    H133900   5.901   3.051   0.260  0.3728  1.2275 -0.6671
11313TIP3    H233901   6.002   3.068   0.371 -0.6147 -0.1126  0.4704
11314TIP3   OH233902   7.036   3.953   5.104  0.0588  0.3957 -0.0529
11314TIP3    H133903   6.995   3.870   5.129 -1.3697  0.5123 -1.8235
11314TIP3    H233904   7.083   3.981   5.183 -1.6451 -0.7592  1.4549
11315TIP3   OH233905   0.480   1.805   3.060  0.0599 -0.5849  0.2196
11315TIP3    H133906   0.414   1.843   3.119 -0.6989 -2.6816  0.8220
11315TIP3    H233907   0.429   1.769   2.987  0.5681 -1.6836  0.3895
11316TIP3   OH233908   1.782   0.687   2.611 -0.3023 -1.0102 -0.8032
11316TIP3    H133909   1.718   0.711   2.679 -0.6077 -0.3912 -1.2989
11316TIP3    H233910   1.758   0.742   2.536  1.1723 -0.3469 -0.8133
11317TIP3   OH233911   1.331   6.473   5.380  0.0671 -0.1479  0.3555
11317TIP3    H133912   1.308   6.422   5.457 -0.6295 -0.0097  0.2426
11317TIP3    H233913   1.427   6.465   5.373  0.2236  0.4188  1.6324
11318TIP3   OH233914   2.431   5.428   1.763 -0.0757 -0.4863 -0.1435
11318TIP3    H133915   2.507   5.469   1.721  0.3564 -0.7353  0.3860
11318TIP3    H233916   2.394   5.370   1.696 -0.4297  0.4166 -0.7540
11319TIP3   OH233917   3.533   4.250   6.091 -0.1285  0.3679  0.7481
11319TIP3    H133918   3.491   4.275   6.009  2.1127  0.2746 -0.5137
11319TIP3    H233919   3.591   4.177   6.068  0.3852  0.1635  2.4651
11320TIP3   OH233920   6.517   4.960   1.526  0.1030  0.3504  0.4583
11320TIP3    H133921   6.428   4.954   1.560 -0.0816  1.0246  0.1049
11320TIP3    H233922   6.510   4.930   1.435  0.5455 -1.1832  0.9085
11321TIP3   OH233923   4.781   2.709   0.911 -0.5788  0.2869 -0.1255
11321TIP3    H133924   4.741   2.690   0.826 -1.4966  3.2256 -0.4610
11321TIP3    H233925   4.867   2.744   0.889 -0.5698  0.4577  0.1866
11322TIP3   OH233926   5.337   6.147   2.951 -0.0652  0.5820 -0.4383
11322TIP3    H133927   5.429   6.133   2.975 -0.2607 -1.7177 -0.8136
11322TIP3    H233928   5.293   6.066   2.975 -1.7882  1.1879 -1.3609
11323TIP3   OH233929   1.617   1.959   5.828  0.7184  0.1534  0.3519
11323TIP3    H133930   1.586   1.982   5.916  2.0709 -0.7854  1.1022
11323TIP3    H233931   1.542   1.978   5.771 -0.7232 -0.6304  1.8875
11324TIP3   OH233932   5.260   4.596   0.332  0.3514 -0.1050 -0.1910
11324TIP3    H133933   5.171   4.628   0.328  0.1384 -0.7881 -1.3127
11324TIP3    H233934   5.286   4.584   0.241  0.6211 -2.4716  0.1237
11325TIP3   OH233935   4.817   5.262   4.843  0.3049  0.1887  0.0676
11325TIP3    H133936   4.809   5.335   4.781  0.6614 -0.0695 -0.2848
11325TIP3    H233937   4.783   5.187   4.796 -0.5451  0.2239  0.6165
11326TIP3   OH233938   2.718   5.784   0.824 -0.0650 -0.7759 -0.3025
11326TIP3    H133939   2.713   5.751   0.914 -0.2809  0.8107  0.2876
11326TIP3    H233940   2.639   5.750   0.782 -2.1862  1.7782  1.2964
11327TIP3   OH233941   0.582   5.493   0.567 -0.2474 -0.1122 -0.5941
11327TIP3    H133942   0.662   5.443   0.579 -0.3110  0.1802  1.4626
11327TIP3    H233943   0.588   5.528   0.478  2.5290  0.9346 -0.0914
11328TIP3   OH233944   5.575   2.965   4.757 -0.0365 -0.4012 -0.0158
11328TIP3    H133945   5.507   3.031   4.766  0.1391 -0.2356  0.1256
11328TIP3    H233946   5.652   3.013   4.726  0.7061 -0.1278  2.0626
11329TIP3   OH233947   1.349   1.198   4.577 -0.0269  0.0352 -0.4569
11329TIP3    H133948   1.344   1.122   4.519  1.1954 -0.9367  0.6694
11329TIP3    H233949   1.293   1.174   4.651  0.7362  0.0277  0.1200
11330TIP3   OH233950   3.860   3.562   4.851  0.7358 -0.5782  0.3611
11330TIP3    H133951   3.932   3.511   4.888  1.6456 -1.9520 -2.9328
11330TIP3    H233952   3.892   3.591   4.766 -0.9787  2.8415  0.7226
11331TIP3   OH233953   2.739   5.816   3.408  0.0882 -0.3437  0.3674
11331TIP3    H133954   2.659   5.787   3.366  0.0450  0.2624  0.0227
11331TIP3    H233955   2.711   5.883   3.471  0.1148 -1.4409  1.5983
11332TIP3   OH233956   4.144   4.344   4.092  0.6946 -0.8594 -0.1425
11332TIP3    H133957   4.133   4.438   4.077  1.6060 -0.6825  0.2374
11332TIP3    H233958   4.224   4.321   4.045  0.9423 -1.2695  0.4687
11333TIP3   OH233959   3.822   4.728   4.022  0.0527  0.6206 -0.2975
11333TIP3    H133960   3.746   4.725   3.963 -0.1387  2.8766 -0.2496
11333TIP3    H233961   3.791   4.689   4.103 -0.0414 -1.4401 -1.2503
11334TIP3   OH233962   1.803   4.195   6.029  0.2797  0.0326 -0.3449
11334TIP3    H133963   1.843   4.203   5.942 -0.8565 -0.6239 -0.9516
11334TIP3    H233964   1.864   4.240   6.087  0.4371  1.6848 -1.6746
11335TIP3   OH233965   5.345   3.744   5.931 -0.3579 -0.5432 -0.1625
11335TIP3    H133966   5.259   3.758   5.890 -0.5879 -0.6948  0.2645
11335TIP3    H233967   5.360   3.650   5.922  1.1025 -0.1564 -2.8723
11336TIP3   OH233968   4.763   4.836   5.613  0.8239  0.8509 -0.3195
11336TIP3    H133969   4.768   4.908   5.675  1.6006  0.9709 -0.5146
11336TIP3    H233970   4.852   4.804   5.605  0.3702 -0.6308  0.3274
11337TIP3   OH233971   2.554   4.315   2.003 -0.5429 -0.0390 -0.3871
11337TIP3    H133972   2.569   4.262   1.924 -2.0989  0.4395 -1.0363
11337TIP3    H233973   2.558   4.251   2.075 -0.1830 -0.6592 -0.9404
11338TIP3   OH233974   4.822   2.440   5.042  0.4735  0.2215 -0.2504
11338TIP3    H133975   4.808   2.465   5.133  1.7614 -2.7482  0.9122
11338TIP3    H233976   4.911   2.468   5.022 -0.1816  1.8666 -1.0454
11339TIP3   OH233977   0.471   6.479   5.170  0.2845 -0.0866  0.2381
11339TIP3    H133978   0.451   6.385   5.179 -2.2625  0.1745 -1.6384
11339TIP3    H233979   0.532   6.483   5.096  1.8635 -0.3264  1.4628
11340TIP3   OH233980   0.032   5.764   1.854 -0.1936 -0.0579 -0.0470
11340TIP3    H133981   0.084   5.819   1.796  0.4368 -0.5057  0.0820
11340TIP3    H233982  -0.024   5.712   1.796 -0.9066  0.8207 -0.1612
11341TIP3   OH233983   7.436   6.173   4.882  0.5794  0.4682  0.2540
11341TIP3    H133984   7.523   6.212   4.887  0.4043  0.6720  3.0081
11341TIP3    H233985   7.436   6.105   4.950 -1.9968  1.7831  1.6879
11342TIP3   OH233986   6.360   3.523   1.558  0.1581  0.2900 -0.0170
11342TIP3    H133987   6.383   3.541   1.467  1.0393 -0.8456 -0.0503
11342TIP3    H233988   6.284   3.578   1.575  0.6279  1.3278 -1.1027
11343TIP3   OH233989   7.103   3.912   2.208 -0.9717  0.3691 -0.1940
11343TIP3    H133990   7.182   3.862   2.189  1.7752  4.4630 -0.6278
11343TIP3    H233991   7.042   3.888   2.138 -0.4496 -3.1880  0.3871
11344TIP3   OH233992   2.015   1.745   1.356  0.0108 -0.6145 -0.7556
11344TIP3    H133993   2.018   1.838   1.330  0.3333 -0.6726 -0.9394
11344TIP3    H233994   1.939   1.710   1.310 -0.5052 -0.2908 -0.1617
11345TIP3   OH233995   0.123   6.143   4.615 -0.3907 -0.2974 -0.0280
11345TIP3    H133996   0.210   6.125   4.580 -1.0056 -1.6702 -0.9169
11345TIP3    H233997   0.080   6.196   4.548 -1.0706 -1.7250 -0.7760
11346TIP3   OH233998   5.612   0.810   4.140 -0.2359 -0.0552 -0.2719
11346TIP3    H133999   5.575   0.744   4.082  0.3497 -0.3036 -0.3703
11346TIP3    H234000   5.634   0.883   4.081 -2.2124  0.8413  0.0245
11347TIP3   OH234001   6.026   3.214   3.209  0.0930  0.7383 -0.7354
11347TIP3    H134002   6.100   3.253   3.255 -0.6801  0.6441  0.6465
11347TIP3    H234003   6.034   3.120   3.226 -1.1311  0.8597  0.6725
11348TIP3   OH234004   1.202   1.752   2.668 -0.1388 -0.1676  0.7681
11348TIP3    H134005   1.219   1.660   2.649  0.5266 -0.3108  1.9760
11348TIP3    H234006   1.287   1.794   2.660 -0.4397  0.3506  0.2199
11349TIP3   OH234007   2.245   6.613   1.809  0.0884  0.0072  0.0639
11349TIP3    H134008   2.167   6.649   1.766 -0.5236 -0.7463  0.5282
11349TIP3    H234009   2.286   6.690   1.850 -0.9895  0.2596  0.7124
11350TIP3   OH234010   0.576   6.586   5.416  0.2884 -0.0950 -0.5339
11350TIP3    H134011   0.516   6.555   5.348 -1.5351  1.5004  0.2998
11350TIP3    H234012   0.577   6.681   5.407  0.2259  0.1394  1.4840
11351TIP3   OH234013   6.141   0.367   5.563  0.1473 -0.0481  0.4409
11351TIP3    H134014   6.113   0.326   5.645 -1.2560  0.5898  0.3221
11351TIP3    H234015   6.169   0.294   5.508  0.7383 -0.5169  1.3524
11352TIP3   OH234016   2.990   4.282   3.092 -0.3831  0.1915 -0.2522
11352TIP3    H134017   2.942   4.239   3.163 -0.7787 -2.5167 -1.9935
11352TIP3    H234018   2.942   4.363   3.075 -0.0425  1.1467  2.7217
11353TIP3   OH234019   7.453   2.688   2.728  0.8506 -0.1356  0.4441
11353TIP3    H134020   7.542   2.670   2.758  0.8962  1.8444  1.7159
11353TIP3    H234021   7.454   2.781   2.705 -0.7789 -0.1742  0.0880
11354TIP3   OH234022   2.664   4.864   4.052 -0.0104  0.3830  0.1050
11354TIP3    H134023   2.594   4.929   4.046 -0.5083 -0.1251  0.2063
11354TIP3    H234024   2.658   4.832   4.142 -1.0166 -1.1304 -0.4604
11355TIP3   OH234025   2.342   1.612   4.419  0.7846 -0.2535 -0.0260
11355TIP3    H134026   2.322   1.523   4.392  0.4540 -0.6211  1.3706
11355TIP3    H234027   2.412   1.640   4.360  1.9493 -1.9765  0.4824
11356TIP3   OH234028   2.729   1.844   3.366  0.8862 -0.6859  0.5036
11356TIP3    H134029   2.812   1.805   3.392  0.9292  0.1806  1.7765
11356TIP3    H234030   2.670   1.828   3.440  0.9592  1.7247  1.1719
11357TIP3   OH234031   5.454   4.761   5.658 -0.2172  0.1512 -0.2497
11357TIP3    H134032   5.518   4.723   5.598 -0.3404 -2.2362  1.0264
11357TIP3    H234033   5.441   4.850   5.626  1.5504 -0.2453 -2.2621
11358TIP3   OH234034   2.619   1.787   0.430  0.0403  0.4988 -0.1954
11358TIP3    H134035   2.678   1.753   0.498  0.0023  0.2175 -0.3015
11358TIP3    H234036   2.656   1.754   0.348 -0.1512  0.4868 -0.2771
11359TIP3   OH234037   6.591   6.012   4.786  0.7185  0.0972  0.7880
11359TIP3    H134038   6.582   6.084   4.723 -0.9300  0.7107  1.6640
11359TIP3    H234039   6.511   5.962   4.776  1.5650 -1.2659  0.6591
11360TIP3   OH234040   4.771   1.713   2.528  0.3929  0.2493 -0.2003
11360TIP3    H134041   4.851   1.693   2.576 -0.4494  1.1942  1.7167
11360TIP3    H234042   4.731   1.628   2.512  1.5801 -0.2055 -0.8584
11361TIP3   OH234043   7.458   2.493   2.410  0.1416 -0.1062  0.3827
11361TIP3    H134044   7.373   2.471   2.447 -0.5707  1.3800 -0.2588
11361TIP3    H234045   7.455   2.459   2.321  0.7952 -1.2827  0.7851
11362TIP3   OH234046   3.560   4.625   0.424  0.4507  0.5290 -0.0705
11362TIP3    H134047   3.610   4.545   0.408 -1.4007 -0.7206  0.1171
11362TIP3    H234048   3.544   4.626   0.518 -0.4613  0.5371 -0.2199
11363TIP3   OH234049   1.773   0.591   1.790  0.2236 -0.1267 -0.7886
11363TIP3    H134050   1.866   0.574   1.773  0.5305  0.3821  0.2290
11363TIP3    H234051   1.732   0.595   1.704  1.1366 -0.4472 -1.2468
11364TIP3   OH234052   6.020   5.295   2.561  0.0211  0.0321 -0.5400
11364TIP3    H134053   6.089   5.362   2.559  0.2488 -0.1955 -0.3915
11364TIP3    H234054   6.045   5.237   2.633  0.8055 -1.2547 -1.8032
11365TIP3   OH234055   1.021   6.867   1.748  0.0738 -0.0554 -0.2317
11365TIP3    H134056   1.053   6.949   1.711  1.5498 -0.8014 -0.7127
11365TIP3    H234057   1.043   6.801   1.683 -0.0148 -0.9886  0.6581
11366TIP3   OH234058   1.227   6.186   3.134  0.0015  0.1559  0.7455
11366TIP3    H134059   1.213   6.281   3.142 -0.8639 -0.0404  1.9077
11366TIP3    H234060   1.160   6.148   3.191 -0.8741 -1.2346 -1.1440
11367TIP3   OH234061   2.630   1.328   5.158 -0.2782  0.4089 -0.7438
11367TIP3    H134062   2.701   1.297   5.102  0.9989  0.5283  0.7456
11367TIP3    H234063   2.652   1.294   5.246 -1.4025  1.4919 -0.0124
11368TIP3   OH234064   6.445   6.601   5.743  0.1383  0.3439 -0.4667
11368TIP3    H134065   6.403   6.680   5.779  0.4861  1.3491 -2.1715
11368TIP3    H234066   6.471   6.626   5.655 -0.4206 -1.9444 -1.3495
11369TIP3   OH234067   6.689   1.731   1.406  0.0634 -0.4456  0.1171
11369TIP3    H134068   6.705   1.637   1.415  0.5910 -0.2414  1.6688
11369TIP3    H234069   6.609   1.747   1.456  1.0427  0.2002  1.5487
11370TIP3   OH234070   4.382   0.960   3.100  0.6206  0.3716 -0.3873
11370TIP3    H134071   4.444   0.888   3.093  0.6489  0.4645 -1.2797
11370TIP3    H234072   4.322   0.947   3.026 -1.6766 -0.8647  1.5447
11371TIP3   OH234073   1.419   3.056   0.419  0.5033  0.6359 -0.2191
11371TIP3    H134074   1.509   3.079   0.441 -0.0161  2.9044 -0.1416
11371TIP3    H234075   1.426   3.011   0.335  1.7442  0.1427  0.1231
11372TIP3   OH234076   2.918   5.550   1.374  0.1187 -0.0121 -0.3662
11372TIP3    H134077   3.007   5.530   1.344  0.2118  2.5491 -2.0874
11372TIP3    H234078   2.922   5.641   1.402 -1.5860 -0.3796  1.2554
11373TIP3   OH234079   5.952   4.393   4.293  0.1990 -0.1541 -0.0321
11373TIP3    H134080   5.991   4.452   4.358  0.8133  3.0374 -2.9928
11373TIP3    H234081   6.026   4.361   4.242 -0.4758  1.7459 -2.3976
11374TIP3   OH234082   6.634   5.222   1.842  0.6920 -0.2638  0.2967
11374TIP3    H134083   6.548   5.245   1.806  0.5980  0.7074  1.1156
11374TIP3    H234084   6.683   5.189   1.767  0.1221  0.6471 -0.4943
11375TIP3   OH234085   6.199   0.478   4.287 -0.2828 -0.6792 -0.5210
11375TIP3    H134086   6.129   0.543   4.283 -1.0308 -1.4645 -0.3909
11375TIP3    H234087   6.251   0.504   4.363  0.5771  0.8846 -1.5946
11376TIP3   OH234088   4.993   4.408   5.752  0.2302 -0.4574 -0.4704
11376TIP3    H134089   4.926   4.365   5.699 -0.5532  0.2437 -0.0676
11376TIP3    H234090   5.059   4.340   5.767 -1.2755 -1.7183  0.6769
11377TIP3   OH234091   5.961   6.827   5.316 -0.7111 -0.3012  0.1983
11377TIP3    H134092   5.954   6.735   5.341 -1.0376 -0.5370 -0.7439
11377TIP3    H234093   5.923   6.874   5.391 -0.9679 -0.9551  0.4919
11378TIP3   OH234094   1.632   3.275   0.734  0.1510  0.1561 -0.4008
11378TIP3    H134095   1.568   3.212   0.703  0.5970  1.1123 -3.6042
11378TIP3    H234096   1.713   3.225   0.745 -0.8243 -0.9199  3.0342
11379TIP3   OH234097   4.469   3.073   5.229  0.5087  0.0022 -0.7171
11379TIP3    H134098   4.402   3.138   5.253  0.0321 -0.8315  0.2779
11379TIP3    H234099   4.506   3.044   5.312  0.0478 -1.6846 -1.0649
11380TIP3   OH234100   1.766   3.835   3.414  0.7026  0.1358 -0.5760
11380TIP3    H134101   1.820   3.823   3.335 -0.1288  0.1949 -1.1622
11380TIP3    H234102   1.691   3.885   3.384  0.7992  0.9178  0.4476
11381TIP3   OH234103   5.188   2.483   0.763 -0.3859 -0.0405  0.4452
11381TIP3    H134104   5.235   2.510   0.685 -2.7490 -0.0739 -1.0777
11381TIP3    H234105   5.195   2.388   0.764  0.4245  0.0059  0.8540
11382TIP3   OH234106   0.069   4.237   4.486  0.1444  0.6483 -0.1659
11382TIP3    H134107   0.003   4.254   4.418 -2.4267 -2.1724  1.3710
11382TIP3    H234108   0.038   4.286   4.562  1.6784  1.8447 -0.2608
11383TIP3   OH234109   3.007   4.752   2.646 -0.6649 -0.1627 -0.1502
11383TIP3    H134110   3.083   4.745   2.588 -1.2657 -0.7593 -0.8904
11383TIP3    H234111   3.024   4.829   2.700  1.0088 -0.9380  0.4919
11384TIP3   OH234112   0.896   2.654   4.882 -0.6560  0.3833  0.5571
11384TIP3    H134113   0.838   2.582   4.908  1.1586 -2.3240 -2.1787
11384TIP3    H234114   0.844   2.705   4.820 -1.7026  1.0672  1.9392
11385TIP3   OH234115   3.692   4.135   2.203 -0.2137  0.0178 -0.0723
11385TIP3    H134116   3.604   4.107   2.228 -0.4994  0.6479 -0.3436
11385TIP3    H234117   3.748   4.101   2.272 -1.1545  3.0005  2.4154
11386TIP3   OH234118   7.390   6.960   5.974 -0.0665 -0.8074 -0.0013
11386TIP3    H134119   7.385   6.977   6.068  1.3086 -2.7097  0.4666
11386TIP3    H234120   7.344   6.877   5.962  1.2756 -1.4928 -0.6904
11387TIP3   OH234121   0.679   4.365   5.211  0.4085 -0.3215  0.8570
11387TIP3    H134122   0.745   4.303   5.242 -0.3931 -0.8622  1.5290
11387TIP3    H234123   0.658   4.418   5.288  0.8183  0.5660  0.3801
11388TIP3   OH234124   1.606   2.852   1.047 -0.2990  0.2306 -0.0447
11388TIP3    H134125   1.531   2.803   1.012 -0.0835 -0.4541  0.4516
11388TIP3    H234126   1.567   2.931   1.084 -0.7325  0.0668 -0.1427
11389TIP3   OH234127   1.662   3.498   3.174 -0.2794 -0.3097 -0.1201
11389TIP3    H134128   1.623   3.511   3.087  0.2813 -1.9682 -0.6654
11389TIP3    H234129   1.755   3.517   3.162 -0.2057 -0.5185  0.1113
11390TIP3   OH234130   6.274   3.708   3.846  0.6616  0.1385  0.0953
11390TIP3    H134131   6.299   3.637   3.905 -0.9871 -0.2541  0.3807
11390TIP3    H234132   6.356   3.753   3.827  1.4314 -0.5239  1.6339
11391TIP3   OH234133   1.083   4.671   3.011 -0.0870  0.3795 -0.0230
11391TIP3    H134134   1.142   4.702   3.080 -0.8698 -0.2412  0.9500
11391TIP3    H234135   1.140   4.622   2.951  0.7576  1.6677 -0.3317
11392TIP3   OH234136   0.731   0.872   1.467  0.0704  0.0309  0.3418
11392TIP3    H134137   0.787   0.931   1.517 -0.5568 -0.5908  1.8154
11392TIP3    H234138   0.774   0.787   1.473 -0.4322 -0.2142  0.5130
11393TIP3   OH234139   0.422   0.237   5.559  0.2624  0.0213  0.5789
11393TIP3    H134140   0.386   0.153   5.587  0.9370 -0.5630 -0.2463
11393TIP3    H234141   0.442   0.224   5.466  0.9059  0.9128  0.5881
11394TIP3   OH234142   0.677   2.595   0.399  0.1599 -0.1123  0.2128
11394TIP3    H134143   0.660   2.521   0.458  2.1207 -1.2326 -0.5340
11394TIP3    H234144   0.608   2.589   0.333  0.5706 -1.6310 -0.1281
11395TIP3   OH234145   2.075   3.484   0.334 -0.1807  0.1671  0.0891
11395TIP3    H134146   2.088   3.575   0.308  0.7546 -0.1234 -0.4737
11395TIP3    H234147   2.078   3.486   0.430  0.6018  0.6212  0.0643
11396TIP3   OH234148   1.183   0.326   1.241  0.3944 -0.1206 -0.4165
11396TIP3    H134149   1.160   0.242   1.280  2.2860 -1.2571 -1.6351
11396TIP3    H234150   1.125   0.389   1.285  0.0381 -1.7990  1.6678
11397TIP3   OH234151   3.628   2.212   2.403  0.0373  0.1477 -0.0998
11397TIP3    H134152   3.568   2.254   2.342 -1.6504  0.2562  1.5415
11397TIP3    H234153   3.587   2.129   2.426  0.1692  0.4784  1.4939
11398TIP3   OH234154   2.097   1.679   4.177  0.0935  0.2973 -0.0788
11398TIP3    H134155   2.066   1.605   4.124 -0.5727  1.3800 -1.2623
11398TIP3    H234156   2.024   1.741   4.177 -0.0070  0.2660  2.3254
11399TIP3   OH234157   0.200   0.137   4.244 -0.3541 -0.0682 -0.6042
11399TIP3    H134158   0.154   0.212   4.207 -1.0872  0.2223  0.8507
11399TIP3    H234159   0.132   0.070   4.255 -0.8370  0.8282  2.8394
11400TIP3   OH234160   0.380   7.096   4.050  0.0923 -0.3857 -0.2093
11400TIP3    H134161   0.474   7.097   4.068 -0.1455 -0.1661  1.1646
11400TIP3    H234162   0.373   7.093   3.955  1.4842 -1.4464 -0.3057
11401TIP3   OH234163   6.028   4.243   5.327  0.3646  0.0693  0.2175
11401TIP3    H134164   6.077   4.161   5.338  0.4632 -0.1354 -1.4275
11401TIP3    H234165   5.996   4.239   5.237 -1.8661  0.6588  0.9313
11402TIP3   OH234166   6.144   5.856   5.004  0.3539 -0.0800 -0.0727
11402TIP3    H134167   6.170   5.805   5.081 -0.1721 -1.1636 -0.5807
11402TIP3    H234168   6.126   5.790   4.937  0.9562  0.8529 -1.1858
11403TIP3   OH234169   0.524   1.386   2.467  0.8294  0.6908 -0.2701
11403TIP3    H134170   0.512   1.291   2.465 -2.0325  0.9750 -1.2801
11403TIP3    H234171   0.533   1.407   2.560  1.6786 -0.5437 -0.0425
11404TIP3   OH234172   1.695   5.779   0.355 -0.2755 -0.1608 -0.0842
11404TIP3    H134173   1.637   5.771   0.431  0.7211 -0.3769  0.6891
11404TIP3    H234174   1.710   5.873   0.346 -0.7385 -0.1038 -0.2929
11405TIP3   OH234175   7.432   3.591   5.212  0.3599 -0.0877  0.4216
11405TIP3    H134176   7.356   3.641   5.182 -1.1418 -1.5003  1.6736
11405TIP3    H234177   7.448   3.528   5.141  1.5576  1.3554 -0.6544
11406TIP3   OH234178   1.096   6.514   4.830  0.1686 -0.4007 -0.2159
11406TIP3    H134179   1.109   6.507   4.736  2.5856  0.8645 -0.0588
11406TIP3    H234180   1.079   6.607   4.845 -0.1196 -0.5743  0.5987
11407TIP3   OH234181   4.211   6.616   2.479  0.4912  0.0371 -0.0864
11407TIP3    H134182   4.247   6.690   2.527  0.9275 -0.6623  0.6928
11407TIP3    H234183   4.146   6.579   2.538 -1.5048  1.2255 -1.4335
11408TIP3   OH234184   3.067   5.007   0.485 -0.0826 -0.5933  0.7111
11408TIP3    H134185   2.992   5.015   0.544 -0.3680 -0.1179  0.2913
11408TIP3    H234186   3.094   4.916   0.494  0.3371 -0.3571  2.1140
11409TIP3   OH234187   6.574   6.098   0.670  1.0029 -0.8402  0.9243
11409TIP3    H134188   6.539   6.149   0.597  0.5620 -2.0117  0.2803
11409TIP3    H234189   6.602   6.015   0.630  0.4196 -1.6508  2.1343
11410TIP3   OH234190   2.243   5.055   4.495 -0.3205  0.7016  0.7675
11410TIP3    H134191   2.195   5.012   4.566 -0.5457  1.6833  1.2192
11410TIP3    H234192   2.186   5.047   4.419  0.7176 -2.0623  0.1362
11411TIP3   OH234193   6.327   5.705   3.709 -0.2332 -0.4072  0.0566
11411TIP3    H134194   6.234   5.707   3.729 -0.2859 -0.1083 -0.1998
11411TIP3    H234195   6.369   5.740   3.787 -0.2349 -1.7656  0.6802
11412TIP3   OH234196   6.864   2.655   2.331 -0.1297  0.0709 -0.2329
11412TIP3    H134197   6.935   2.625   2.388  2.0683  0.4674 -2.5684
11412TIP3    H234198   6.871   2.751   2.334 -1.1942  0.1477  0.1925
11413TIP3   OH234199   5.027   2.948   5.888  0.1339 -0.1627  0.5508
11413TIP3    H134200   5.119   2.935   5.912  0.5351  1.6407  0.1055
11413TIP3    H234201   4.996   3.017   5.947  0.1808  1.9216 -1.6908
11414TIP3   OH234202   5.573   4.823   1.612 -0.1444  0.6203  0.0775
11414TIP3    H134203   5.555   4.878   1.688  2.2252  0.5504  0.7620
11414TIP3    H234204   5.552   4.877   1.537  1.3714  2.2241  0.7440
11415TIP3   OH234205   2.227   5.962   4.386  0.2397 -0.2213 -0.1490
11415TIP3    H134206   2.220   5.867   4.375  0.4711 -0.1205 -1.3216
11415TIP3    H234207   2.275   5.974   4.468 -2.9297 -1.0577  2.0176
11416TIP3   OH234208   0.482   2.713   0.123  0.1082 -0.2407  0.0949
11416TIP3    H134209   0.398   2.676   0.095  1.0007 -2.9700  0.7510
11416TIP3    H234210   0.458   2.789   0.176 -1.8804 -0.1336 -0.8655
11417TIP3   OH234211   7.529   0.703   5.890  0.4151 -0.5938 -0.0189
11417TIP3    H134212   7.453   0.682   5.836  1.4410 -0.6307 -1.5542
11417TIP3    H234213   7.517   0.653   5.970 -0.7671 -1.2482 -0.5784
11418TIP3   OH234214   3.334   4.103   3.484 -0.0895 -0.0744  0.5527
11418TIP3    H134215   3.345   4.009   3.472  1.8366  0.3016 -1.0817
11418TIP3    H234216   3.402   4.128   3.546  0.6568  0.4862 -0.4542
11419TIP3   OH234217   6.984   1.373   2.239 -0.0467 -0.7402 -0.2274
11419TIP3    H134218   7.075   1.346   2.228  0.6411  0.7580  1.3196
11419TIP3    H234219   6.938   1.333   2.164  2.7168  2.4998 -4.1079
11420TIP3   OH234220   1.833   1.058   5.443 -0.5256 -0.2734  0.0204
11420TIP3    H134221   1.917   1.012   5.443 -0.3160  0.0232  2.1168
11420TIP3    H234222   1.770   0.992   5.413  0.4790 -0.3137 -2.2193
11421TIP3   OH234223   4.348   6.087   3.414 -0.1424 -0.1536 -0.5580
11421TIP3    H134224   4.308   6.098   3.328  0.5199 -1.5663 -1.0833
11421TIP3    H234225   4.409   6.014   3.403  1.6280  1.0871  0.5324
11422TIP3   OH234226   0.288   0.426   4.486  0.2509 -0.1051  0.3297
11422TIP3    H134227   0.253   0.336   4.484 -1.0138  0.3142  1.6503
11422TIP3    H234228   0.248   0.468   4.411  0.9153 -0.6597 -0.3478
11423TIP3   OH234229   5.013   4.463   0.978  0.5306  0.1102 -0.1694
11423TIP3    H134230   5.012   4.559   0.982  1.8746  0.1881 -0.8259
11423TIP3    H234231   5.028   4.435   1.068 -0.2519  0.4990  0.0854
11424TIP3   OH234232   4.748   4.064   2.247 -0.5428  0.0004  0.6292
11424TIP3    H134233   4.688   4.006   2.200 -0.1296 -0.0323  0.1265
11424TIP3    H234234   4.809   4.005   2.292 -0.3069  0.0402  0.3634
11425TIP3   OH234235   7.140   6.469   4.768  0.4500 -0.2485  0.2693
11425TIP3    H134236   7.088   6.468   4.687 -0.5207  1.5936  0.8086
11425TIP3    H234237   7.095   6.406   4.825  0.2963 -0.5129 -0.1331
11426TIP3   OH234238   4.361   5.804   4.555 -0.0658 -0.2624 -0.0206
11426TIP3    H134239   4.419   5.854   4.613  1.2195  1.1103 -2.3199
11426TIP3    H234240   4.400   5.716   4.553  0.4626 -0.0463  0.4079
11427TIP3   OH234241   0.472   4.502   1.974 -0.4671  0.3778  0.0488
11427TIP3    H134242   0.392   4.509   2.026 -2.9442 -2.2105 -2.9770
11427TIP3    H234243   0.447   4.534   1.887  2.3777  1.1182 -0.5991
11428TIP3   OH234244   4.325   3.564   3.400  0.4606  0.2705 -0.2788
11428TIP3    H134245   4.343   3.498   3.333  0.1502  0.2116 -0.3061
11428TIP3    H234246   4.337   3.647   3.355  0.2787  0.2309 -0.4015
11429TIP3   OH234247   2.508   2.062   3.938 -0.3449 -0.9145  0.3420
11429TIP3    H134248   2.582   2.025   3.985  0.5252  0.7413  0.3647
11429TIP3    H234249   2.443   2.082   4.005 -1.3498 -3.4196  0.2037
11430TIP3   OH234250   0.073   1.989   1.530  0.1471 -0.0179  0.7147
11430TIP3    H134251   0.018   2.011   1.455  0.4154 -0.2956  0.4378
11430TIP3    H234252   0.161   1.982   1.495 -0.0397 -2.4263  0.6000
11431TIP3   OH234253   4.369   2.707   0.113  0.0553 -0.3232 -0.2898
11431TIP3    H134254   4.387   2.801   0.101 -1.6210  0.1073  0.2971
11431TIP3    H234255   4.431   2.664   0.054 -1.1862  1.2773 -2.9959
11432TIP3   OH234256   2.998   6.542   2.864 -0.1033  0.4173 -0.3457
11432TIP3    H134257   2.957   6.583   2.940 -0.3396  2.5834 -1.5794
11432TIP3    H234258   2.931   6.546   2.796  0.8826  0.5783 -1.3294
11433TIP3   OH234259   4.008   0.864   3.524  0.3337 -0.5250  0.1854
11433TIP3    H134260   3.927   0.819   3.504  0.2920 -0.3057 -0.1447
11433TIP3    H234261   4.053   0.807   3.586  0.9229 -1.7195 -1.2773
11434TIP3   OH234262   6.161   1.114   4.407 -0.0997 -0.6168  0.3802
11434TIP3    H134263   6.149   1.019   4.403 -0.6180 -0.5349 -0.1878
11434TIP3    H234264   6.255   1.128   4.393  0.4831 -1.1892  3.1997
11435TIP3   OH234265   4.366   5.381   5.403  0.2142  0.0778 -0.3104
11435TIP3    H134266   4.408   5.435   5.470  1.2003  0.4000 -1.1754
11435TIP3    H234267   4.436   5.329   5.366  0.0235  1.1663 -2.3019
11436TIP3   OH234268   5.503   6.531   0.786  0.0137  0.4224  0.5800
11436TIP3    H134269   5.535   6.445   0.761 -0.0606  0.4809  0.2789
11436TIP3    H234270   5.500   6.580   0.704  2.0454  1.3704  0.9978
11437TIP3   OH234271   6.380   3.807   2.357  0.2957  0.0495 -0.3054
11437TIP3    H134272   6.305   3.849   2.315 -0.4442 -1.8127 -0.9571
11437TIP3    H234273   6.381   3.719   2.321  1.6450 -0.5822  1.1564
11438TIP3   OH234274   1.969   5.476   3.436  0.3143  0.0187 -0.0569
11438TIP3    H134275   1.951   5.555   3.487 -0.2216  0.0505 -0.2889
11438TIP3    H234276   1.922   5.489   3.354  0.5171 -0.3846 -0.2404
11439TIP3   OH234277   0.870   4.624   3.173  0.4727  0.0187  0.4195
11439TIP3    H134278   0.933   4.637   3.102  0.9777  1.5714  1.1189
11439TIP3    H234279   0.849   4.530   3.168  0.0604  0.1674 -2.0975
11440TIP3   OH234280   4.816   4.179   1.869 -0.6487 -0.4524 -0.1358
11440TIP3    H134281   4.834   4.177   1.963  2.4281 -0.5194 -0.5986
11440TIP3    H234282   4.734   4.131   1.858 -0.5123 -1.4065  2.3946
11441TIP3   OH234283   1.528   1.006   5.557  0.3937  0.2905  0.4444
11441TIP3    H134284   1.544   0.973   5.645  0.8263  0.3022  0.3729
11441TIP3    H234285   1.562   0.938   5.499  1.1636  0.7863  0.2965
11442TIP3   OH234286   5.055   3.051   4.808  0.0668  0.5858 -0.2170
11442TIP3    H134287   5.003   2.991   4.861  2.1503  0.3736  1.7343
11442TIP3    H234288   5.002   3.131   4.804 -1.3698 -0.3254 -0.2335
11443TIP3   OH234289   0.467   4.562   4.295 -0.2073  0.4210 -0.1308
11443TIP3    H134290   0.401   4.631   4.294 -1.0780 -0.3875  0.2444
11443TIP3    H234291   0.429   4.493   4.349  0.3709 -0.6221 -1.0065
11444TIP3   OH234292   2.276   6.756   5.847 -0.1727 -0.0463 -0.7782
11444TIP3    H134293   2.261   6.676   5.798 -0.3263 -1.4807  1.4746
11444TIP3    H234294   2.224   6.746   5.927  1.5916  1.2690  0.6315
11445TIP3   OH234295   6.739   2.221   0.542 -0.0551  0.2769 -0.0944
11445TIP3    H134296   6.776   2.303   0.574 -1.4959  0.3963  1.3536
11445TIP3    H234297   6.677   2.248   0.474 -0.0131  0.3169 -0.1173
11446TIP3   OH234298   0.945   0.185   1.024 -0.3930  0.0354 -0.0771
11446TIP3    H134299   0.957   0.095   0.992  2.0953  0.3358 -0.1923
11446TIP3    H234300   0.999   0.238   0.966  0.1870  1.2626  1.5255
11447TIP3   OH234301   4.053   3.109   5.168 -0.2815  0.0821  0.9567
11447TIP3    H134302   4.100   3.089   5.087 -0.0152 -0.9136  1.3375
11447TIP3    H234303   4.095   3.054   5.234  0.3198  1.7501  2.0402
11448TIP3   OH234304   1.221   0.518   0.933 -0.5835  0.1465  0.7248
11448TIP3    H134305   1.302   0.470   0.918 -0.2797  0.1217  2.3258
11448TIP3    H234306   1.156   0.476   0.876  0.6491  0.6016 -1.1026
11449TIP3   OH234307   7.519   5.615   3.839 -0.1931  0.6036 -0.1084
11449TIP3    H134308   7.563   5.531   3.824  0.3088  1.1070 -1.5725
11449TIP3    H234309   7.572   5.659   3.905 -0.3584 -0.1404  0.5344
11450TIP3   OH234310   6.203   1.498   1.796 -0.1682  0.6575  0.1801
11450TIP3    H134311   6.169   1.575   1.752 -0.3510 -0.3214 -1.4549
11450TIP3    H234312   6.209   1.431   1.728  0.3134 -0.6828  1.4719
11451TIP3   OH234313   2.953   2.976   4.060 -0.5715  0.1876 -0.1224
11451TIP3    H134314   2.949   3.032   4.137 -0.2238 -0.5474  0.4461
11451TIP3    H234315   3.042   2.940   4.062 -0.5030  0.2916 -0.9636
11452TIP3   OH234316   1.043   2.334   0.347 -0.4822  0.5891  0.5977
11452TIP3    H134317   0.967   2.308   0.296 -0.0125  1.4691 -0.5766
11452TIP3    H234318   1.008   2.391   0.416 -1.0363 -0.1291  0.9301
11453TIP3   OH234319   5.202   1.787   5.825 -0.6141 -0.6623 -0.6827
11453TIP3    H134320   5.114   1.815   5.801 -0.0102  2.2203  0.0865
11453TIP3    H234321   5.197   1.768   5.919 -0.4830 -0.8717 -0.7168
11454TIP3   OH234322   0.295   0.595   4.879 -0.4026  0.0440 -0.1391
11454TIP3    H134323   0.208   0.622   4.847 -0.3943 -0.1369 -0.3159
11454TIP3    H234324   0.283   0.584   4.973 -1.0436 -1.7182 -0.3819
11455TIP3   OH234325   6.962   2.421   3.768 -1.1636 -0.3293  0.4466
11455TIP3    H134326   6.908   2.346   3.789 -2.8758  0.2599 -1.5936
11455TIP3    H234327   7.040   2.384   3.727 -1.0801 -1.0628  1.2436
11456TIP3   OH234328   1.459   5.343   3.929  0.5304  0.3246 -0.0049
11456TIP3    H134329   1.472   5.257   3.967  0.7604 -0.0897 -0.9873
11456TIP3    H234330   1.372   5.370   3.960  0.6078 -0.1075  0.5906
11457TIP3   OH234331   0.435   1.620   3.373  0.4020 -0.3280  0.4398
11457TIP3    H134332   0.375   1.564   3.423 -0.8513  0.5639 -0.0147
11457TIP3    H234333   0.436   1.702   3.422  0.4090  0.0248 -0.1532
11458TIP3   OH234334   6.149   1.871   2.180 -0.4436  0.0616 -0.3260
11458TIP3    H134335   6.156   1.803   2.247 -0.2612  0.1208 -0.2836
11458TIP3    H234336   6.236   1.911   2.178 -0.2536 -0.3687 -1.0619
11459TIP3   OH234337   3.424   2.869   2.531 -0.7727 -0.0701  0.0869
11459TIP3    H134338   3.388   2.828   2.609  0.1472  0.8436  1.0416
11459TIP3    H234339   3.432   2.798   2.467 -1.1486 -0.9255  0.9676
11460TIP3   OH234340   4.472   2.692   6.127  0.4176  0.4610  0.6073
11460TIP3    H134341   4.509   2.773   6.090 -1.2676  2.7539  3.4381
11460TIP3    H234342   4.410   2.662   6.062  0.4913  1.9617 -0.2126
11461TIP3   OH234343   6.177   4.819   2.013 -0.0743  0.3275  0.5797
11461TIP3    H134344   6.225   4.900   1.994 -0.0006  0.1798  0.1247
11461TIP3    H234345   6.170   4.775   1.928 -1.0502  0.3607  0.6339
11462TIP3   OH234346   4.574   2.302   6.159 -0.0258  0.2005  0.1957
11462TIP3    H134347   4.609   2.269   6.242  2.1739  0.4758 -0.5526
11462TIP3    H234348   4.496   2.352   6.183  0.0021 -0.5482  1.9720
11463TIP3   OH234349   3.726   4.518   1.607  0.0960 -0.5501  0.3571
11463TIP3    H134350   3.708   4.473   1.525 -1.7734  0.4049  0.1882
11463TIP3    H234351   3.812   4.485   1.635 -0.5962 -3.1861 -0.3955
11464TIP3   OH234352   4.295   3.714   3.003 -0.1910 -0.8733  0.0457
11464TIP3    H134353   4.237   3.704   3.079  0.4721 -0.5729  0.5956
11464TIP3    H234354   4.289   3.629   2.958 -2.3675 -0.3189 -0.8706
11465TIP3   OH234355   6.145   7.162   5.216 -0.0262 -0.9455  0.2856
11465TIP3    H134356   6.078   7.162   5.285  1.0993 -0.4823  1.4201
11465TIP3    H234357   6.157   7.069   5.195 -0.4030 -1.0952  0.7026
11466TIP3   OH234358   6.052   4.151   4.766 -0.6133  0.1295 -0.1087
11466TIP3    H134359   6.143   4.172   4.747 -0.9492  1.6021 -0.1507
11466TIP3    H234360   6.057   4.072   4.820  0.6574 -0.0625 -0.4786
11467TIP3   OH234361   3.363   1.132   6.110 -0.3077  0.2505 -0.3705
11467TIP3    H134362   3.364   1.053   6.057 -1.3655 -0.1488  0.1692
11467TIP3    H234363   3.333   1.103   6.196  1.5277  0.8564  0.5234
11468TIP3   OH234364   4.249   6.048   5.646 -0.4538 -0.2357 -0.0621
11468TIP3    H134365   4.315   5.988   5.610 -2.0292 -1.6463 -0.6815
11468TIP3    H234366   4.221   6.007   5.728 -0.0879  0.7233  0.5659
11469TIP3   OH234367   2.823   6.702   5.659  0.3545  0.4862  0.4958
11469TIP3    H134368   2.878   6.647   5.715  2.2496  1.0658 -0.7178
11469TIP3    H234369   2.762   6.640   5.618 -0.8664  0.0073  2.8519
11470TIP3   OH234370   2.609   6.675   1.593  0.1014 -0.3535  0.3524
11470TIP3    H134371   2.622   6.756   1.643  0.8784 -0.0045 -0.3983
11470TIP3    H234372   2.665   6.611   1.636  3.4249  0.7493 -1.9280
11471TIP3   OH234373   4.268   6.512   3.496  0.1709 -0.2443 -0.8641
11471TIP3    H134374   4.348   6.461   3.507  0.3687  0.1466 -0.4717
11471TIP3    H234375   4.207   6.452   3.454  0.1188 -1.0936  0.3741
11472TIP3   OH234376   3.195   3.116   3.533 -0.0968 -0.5481 -0.0442
11472TIP3    H134377   3.229   3.031   3.504 -0.2843 -1.1456  1.3929
11472TIP3    H234378   3.113   3.127   3.486  0.6198 -0.4808 -1.3151
11473TIP3   OH234379   0.362   5.286   1.512  0.1227 -0.2254 -0.2149
11473TIP3    H134380   0.421   5.356   1.540 -0.0170 -0.1988  0.0158
11473TIP3    H234381   0.300   5.276   1.585 -1.0664  0.7444 -1.0458
11474TIP3   OH234382   2.295   3.662   3.253  0.7071  0.2564 -0.3299
11474TIP3    H134383   2.298   3.573   3.219  0.0080 -1.3093  3.2662
11474TIP3    H234384   2.386   3.689   3.258  1.0984 -1.1380  0.5397
   7.60057   7.16589   6.20584   0.00000   0.00000  -2.53352   0.00000  -2.53352  -3.58295
