Title
29212
    1ASP      N    1   2.323   3.852   2.061 -0.4303 -0.1590  0.0852
    1ASP    HT1    2   2.310   3.827   1.961  0.2750 -0.8848  0.1642
    1ASP    HT2    3   2.401   3.794   2.097 -0.5133  0.5398  1.4259
    1ASP    HT3    4   2.338   3.954   2.065 -0.5192 -0.1029 -0.7469
    1ASP     CA    5   2.197   3.811   2.133 -0.1769  0.7867 -0.0873
    1ASP     HA    6   2.216   3.829   2.237 -0.9329  0.7536  0.0590
    1ASP     CB    7   2.072   3.894   2.083  0.6622 -0.2765 -0.4195
    1ASP    HB1    8   1.987   3.853   2.141 -1.0273  1.6990 -1.3710
    1ASP    HB2    9   2.045   3.885   1.976  3.0050 -1.0148 -1.0105
    1ASP     CG   10   2.073   4.040   2.117  0.2655  0.4711 -0.7276
    1ASP    OD1   11   2.181   4.090   2.165  0.2020  0.0042  0.4350
    1ASP    OD2   12   1.972   4.108   2.117 -0.0556 -0.1130  0.3471
    1ASP      C   13   2.179   3.663   2.113  0.4392 -0.0523 -0.2298
    1ASP      O   14   2.245   3.579   2.180  0.0456 -0.3118  0.2203
    2GLY      N   15   2.091   3.617   2.019  0.2331  0.1772  0.2375
    2GLY     HN   16   2.034   3.682   1.969 -0.1035 -0.7198 -0.5953
    2GLY     CA   17   2.055   3.479   1.988  0.7063  0.5925  0.1767
    2GLY    HA1   18   2.144   3.424   1.962 -0.7733 -2.2788  0.7352
    2GLY    HA2   19   1.978   3.482   1.912  0.7115 -2.5056 -0.0666
    2GLY      C   20   1.986   3.407   2.098  0.4630  0.3796  0.2015
    2GLY      O   21   1.981   3.460   2.206  0.3515  0.2118 -0.3180
    3ASP      N   22   1.943   3.281   2.067 -0.1189 -0.9141 -0.1384
    3ASP     HN   23   1.947   3.254   1.971 -1.6412 -1.8094  0.0095
    3ASP     CA   24   1.879   3.185   2.157 -0.5399 -0.2054  0.3935
    3ASP     HA   25   1.796   3.236   2.205 -0.3368 -0.5561  1.1224
    3ASP     CB   26   1.826   3.073   2.060 -0.6512 -0.2970  0.4389
    3ASP    HB1   27   1.795   2.984   2.118 -1.1345 -2.0697 -2.3508
    3ASP    HB2   28   1.914   3.052   1.995  1.0962  0.5478  2.4062
    3ASP     CG   29   1.701   3.118   1.980 -0.5552  0.2797  0.0054
    3ASP    OD1   30   1.654   3.032   1.902  0.3274  0.0681  0.1206
    3ASP    OD2   31   1.653   3.230   1.994 -0.0976 -0.4597 -0.3037
    3ASP      C   32   1.967   3.151   2.271  0.3235 -0.4420  0.5546
    3ASP      O   33   2.081   3.118   2.259  0.2798 -0.0722 -0.1974
    4GLY      N   34   1.912   3.156   2.393 -0.5533  0.4677  0.1638
    4GLY     HN   35   1.814   3.169   2.394 -0.6452 -0.0857 -0.9034
    4GLY     CA   36   1.971   3.113   2.518  0.3072 -0.0665  0.2865
    4GLY    HA1   37   1.927   3.159   2.604  0.3543 -0.0620  0.3085
    4GLY    HA2   38   2.077   3.132   2.505  0.4297 -1.3873 -1.0214
    4GLY      C   39   1.970   2.966   2.536  0.8127  0.6229  0.0401
    4GLY      O   40   1.920   2.887   2.455  0.1397 -0.2196  0.3093
    5PRO      N   41   2.028   2.919   2.646 -0.1465 -0.3083  0.1916
    5PRO     CD   42   2.114   3.008   2.732 -0.7439  0.1190  0.4897
    5PRO    HD1   43   2.055   3.083   2.790 -0.6327  0.9471 -0.4485
    5PRO    HD2   44   2.195   3.063   2.679 -0.0672 -0.5180  0.8357
    5PRO     CA   45   2.019   2.791   2.709 -0.3682 -0.4298 -0.4451
    5PRO     HA   46   2.083   2.731   2.646 -0.6579 -0.9616 -0.2464
    5PRO     CB   47   2.077   2.801   2.843 -0.7813  0.0611 -0.5593
    5PRO    HB1   48   2.130   2.708   2.872 -1.4820  0.0589  0.8178
    5PRO    HB2   49   2.010   2.836   2.924 -1.2444  0.1809 -0.9896
    5PRO     CG   50   2.186   2.914   2.826  0.3753  0.6320 -0.6429
    5PRO    HG1   51   2.211   2.961   2.923  0.8759 -2.4004  0.8093
    5PRO    HG2   52   2.274   2.861   2.784  1.0833  0.5689  0.8506
    5PRO      C   53   1.880   2.728   2.715 -1.0211 -0.1218  0.0967
    5PRO      O   54   1.780   2.796   2.721  0.3932 -0.5713 -0.1407
    6GLY      N   55   1.885   2.594   2.689  0.3005 -0.6065 -0.5970
    6GLY     HN   56   1.972   2.546   2.681  0.2760 -0.6989 -0.3444
    6GLY     CA   57   1.766   2.509   2.690  0.0329  0.3853 -0.0907
    6GLY    HA1   58   1.763   2.433   2.613 -2.4266  1.8934 -1.6437
    6GLY    HA2   59   1.674   2.565   2.693 -0.0425  0.2555  0.0073
    6GLY      C   60   1.772   2.435   2.819 -0.4862 -0.9197 -0.3822
    6GLY      O   61   1.769   2.502   2.919  0.1129  1.2808 -0.6634
    7ASP      N   62   1.768   2.302   2.817 -0.7244 -0.5333 -0.2598
    7ASP     HN   63   1.784   2.264   2.726  1.6502 -0.5961  0.1198
    7ASP     CA   64   1.754   2.211   2.931  0.0838 -0.8322  1.0837
    7ASP     HA   65   1.659   2.227   2.979 -0.0614  1.2955  0.2009
    7ASP     CB   66   1.776   2.062   2.900  0.2245 -0.5453  0.3033
    7ASP    HB1   67   1.765   2.000   2.992  2.9955 -2.4833 -0.5259
    7ASP    HB2   68   1.877   2.056   2.854 -0.5381  1.1644 -1.7717
    7ASP     CG   69   1.676   2.005   2.805  0.6917  0.2136  0.0800
    7ASP    OD1   70   1.557   2.044   2.806  0.1826 -0.3412 -0.2265
    7ASP    OD2   71   1.720   1.913   2.727 -0.3021 -0.0628 -0.7345
    7ASP      C   72   1.856   2.231   3.045  0.4268 -0.0363  0.5632
    7ASP      O   73   1.966   2.278   3.011  0.0296  0.1883  0.2585
    8PRO      N   74   1.841   2.204   3.176 -0.1249  0.3351 -0.6194
    8PRO     CD   75   1.717   2.197   3.250  0.6320 -0.3435  0.6943
    8PRO    HD1   76   1.697   2.088   3.255 -0.0779 -0.2221  0.6878
    8PRO    HD2   77   1.629   2.248   3.203  0.4197 -0.5638  0.8549
    8PRO     CA   78   1.955   2.213   3.265 -0.9997 -0.1130 -1.0483
    8PRO     HA   79   1.994   2.312   3.246  0.7377 -1.3994 -5.6863
    8PRO     CB   80   1.887   2.193   3.407 -0.6671 -0.4605 -0.4763
    8PRO    HB1   81   1.944   2.245   3.486  0.5405 -1.1024 -0.8890
    8PRO    HB2   82   1.866   2.086   3.429 -2.2266 -0.2873 -0.9633
    8PRO     CG   83   1.743   2.250   3.389 -0.3257  0.2020  0.5778
    8PRO    HG1   84   1.666   2.236   3.467  0.5080 -0.0445  1.3804
    8PRO    HG2   85   1.753   2.360   3.375  0.0894  0.1521  0.4554
    8PRO      C   86   2.080   2.123   3.250  0.6838 -1.0058  0.4659
    8PRO      O   87   2.073   2.012   3.196  0.4940 -0.2712  0.1470
    9GLY      N   88   2.192   2.171   3.301 -0.4233 -0.7003 -0.1262
    9GLY     HN   89   2.188   2.258   3.348  0.2470 -1.1290  0.7604
    9GLY     CA   90   2.310   2.095   3.321 -0.5355 -0.1093  0.0340
    9GLY    HA1   91   2.372   2.172   3.365  0.5723  0.4791 -2.4167
    9GLY    HA2   92   2.343   2.050   3.229  0.8393  0.2130  0.3455
    9GLY      C   93   2.307   1.984   3.416 -0.0616  0.0214 -0.0164
    9GLY      O   94   2.212   1.956   3.492 -0.3701  0.5721 -0.4109
   10ASP      N   95   2.417   1.914   3.403 -0.6798  0.3842  0.7441
   10ASP     HN   96   2.472   1.943   3.325 -1.2501  0.2926  0.3062
   10ASP     CA   97   2.455   1.799   3.476 -0.4417  0.3652 -0.6105
   10ASP     HA   98   2.382   1.736   3.524  0.7334 -1.8458 -1.5674
   10ASP     CB   99   2.535   1.702   3.383  0.5697  0.3856 -0.2596
   10ASP    HB1  100   2.595   1.623   3.434  2.2271  0.8591 -1.4101
   10ASP    HB2  101   2.612   1.748   3.318  0.7136  0.5500  0.0232
   10ASP     CG  102   2.442   1.623   3.288 -0.2519  0.2509 -0.3523
   10ASP    OD1  103   2.319   1.624   3.308 -0.0884 -0.3743 -0.0971
   10ASP    OD2  104   2.501   1.570   3.195  0.6040 -0.2137  0.0966
   10ASP      C  105   2.543   1.848   3.593  0.5260  0.4139  0.1900
   10ASP      O  106   2.608   1.954   3.582  0.0137  0.5783 -0.0004
   11GLY      N  107   2.549   1.777   3.703  0.1907 -0.2676  0.3303
   11GLY     HN  108   2.479   1.707   3.717  1.7825 -1.4537  3.3120
   11GLY     CA  109   2.637   1.803   3.815  0.4532 -0.0616  0.8085
   11GLY    HA1  110   2.668   1.906   3.809 -0.9664  0.3259 -0.8709
   11GLY    HA2  111   2.721   1.735   3.808  0.6800  0.3034 -0.2035
   11GLY      C  112   2.563   1.782   3.952 -0.0251  0.3733  0.8720
   11GLY    OT1  113   2.441   1.750   3.939  0.0175 -0.4807 -0.4355
   11GLY    OT2  114   2.620   1.799   4.059  0.8102 -0.0697 -0.1101
   12SOD    SOD  115   6.317   5.955   1.996 -0.0836 -0.0763 -0.2344
   13SOD    SOD  116   3.680   2.631   2.243 -0.0593 -0.0173  0.1086
   14SOD    SOD  117   6.084   3.777   4.153 -0.0836 -0.1468  0.2559
   15SOD    SOD  118   6.387   0.968   0.864 -0.4010 -0.3615 -0.3004
   16SOD    SOD  119   1.545   2.927   5.359 -0.0490  0.1927 -0.2686
   17SOD    SOD  120   1.583   1.547   2.873  0.1098  0.0708  0.0807
   18SOD    SOD  121   2.811   2.159   4.057  0.0057  0.3047  0.1711
   19SOD    SOD  122   2.563   2.483   1.653  0.0096  0.2545 -0.2359
   20SOD    SOD  123   2.503   4.808   3.088  0.8240  0.0046  0.6086
   21SOD    SOD  124   1.000   4.969   2.281  0.0036 -0.0142 -0.3568
   22SOD    SOD  125   3.089   4.531   4.657  0.1254 -0.1852 -0.3463
   23SOD    SOD  126   2.501   4.153   2.900 -0.1070  0.6590  0.0844
   24SOD    SOD  127   3.897   0.814   0.619  0.0798  0.0147  1.0447
   25SOD    SOD  128   5.833   6.588   0.259  0.0821  0.2140  0.1077
   26SOD    SOD  129   1.427   5.986   4.454 -0.1600  0.0254  0.1450
   27SOD    SOD  130   1.038   3.212   3.851 -0.1035 -0.4120 -0.0181
   28SOD    SOD  131   0.237   1.820   1.875  0.5286 -0.2931 -0.0177
   29SOD    SOD  132   4.581   4.011   1.596 -0.1926  0.0153 -0.1359
   30SOD    SOD  133   6.616   5.392   3.683  0.0003 -0.0177 -0.0006
   31SOD    SOD  134   6.284   6.235   1.054 -0.3842  0.0031  0.2460
   32SOD    SOD  135   0.851   5.585   0.109 -0.0927 -0.3544  0.5655
   33SOD    SOD  136   2.695   1.493   1.638  0.5736  0.1258 -0.4074
   34SOD    SOD  137   7.062   6.596   1.933  0.0728  0.0237 -0.2464
   35SOD    SOD  138   5.610   5.515   1.565  0.2008  0.0855 -0.1803
   36SOD    SOD  139   6.076   0.728   3.021 -0.4729 -0.0188  0.1441
   37SOD    SOD  140   0.140   5.531   4.975 -0.4233 -0.0065  0.1470
   38SOD    SOD  141   5.258   2.632   4.817 -0.1147 -0.3717 -0.1168
   39SOD    SOD  142   3.990   4.418   3.675  0.3991 -0.3065 -0.4215
   40SOD    SOD  143   1.108   1.962   5.634  0.2662 -0.3841  0.0080
   41SOD    SOD  144   7.146   3.372   0.122 -0.0861  0.4592 -0.1245
   42SOD    SOD  145   2.926   0.941   1.501  0.7869  0.5949 -0.0267
   43CLA    CLA  146   5.094   6.457   0.672 -0.3509  0.0779  0.2832
   44CLA    CLA  147   0.322   6.111   4.819 -0.1197  0.6222 -0.0956
   45CLA    CLA  148   2.076   2.169   2.367 -0.3943 -0.3034  0.0370
   46CLA    CLA  149   3.820   4.072   4.048 -0.2546 -0.3421  0.4405
   47CLA    CLA  150   3.778   4.488   3.549 -0.2464 -0.0626  0.2065
   48CLA    CLA  151   0.484   6.089   0.852  0.2469  0.2835  0.0976
   49CLA    CLA  152   4.781   0.112   3.242 -0.0760  0.4584 -0.2761
   50CLA    CLA  153   5.984   5.457   4.517 -0.1376 -0.1193  0.2252
   51CLA    CLA  154   4.409   6.736   3.540 -0.2796 -0.3498 -0.0473
   52CLA    CLA  155   1.370   4.122   0.085 -0.0738 -0.0046  0.1955
   53CLA    CLA  156   6.716   4.856   2.761  0.5342  0.1922 -0.2764
   54CLA    CLA  157   0.234   1.190   1.682 -0.3777  0.0373  0.0621
   55CLA    CLA  158   7.150   0.306   0.469  0.4442 -0.3993 -0.5047
   56CLA    CLA  159   3.059   5.936   1.165 -0.3002  0.8590 -0.0083
   57CLA    CLA  160   2.080   4.032   1.348 -0.0188 -0.5288  0.1666
   58CLA    CLA  161   2.460   5.381   5.517 -0.3047  0.1630 -0.3606
   59CLA    CLA  162   0.656   2.043   2.927 -0.1214 -0.1984  0.0125
   60CLA    CLA  163   7.156   2.344   2.234 -0.3970  0.0287 -0.0289
   61CLA    CLA  164   6.987   5.995   2.657 -0.2295  0.0716 -0.3029
   62CLA    CLA  165   3.284   4.992   2.543 -0.0859  0.1584 -0.3164
   63CLA    CLA  166   6.770   3.245   4.469  0.2244  0.1668  0.0719
   64CLA    CLA  167   3.399   3.091   2.799 -0.2121  0.2766 -0.0526
   65CLA    CLA  168   4.300   2.160   5.283  0.3959 -0.1390 -0.0388
   66CLA    CLA  169   6.640   5.531   1.414 -0.2164 -0.0875  0.0091
   67CLA    CLA  170   5.852   1.317   3.379  0.1239 -0.1619 -0.0344
   68CLA    CLA  171   3.849   0.179   5.337 -0.4362  0.1040  0.1442
   69CLA    CLA  172   2.378   1.290   4.848 -0.2119 -0.3121 -0.3306
   70TIP3   OH2  173   0.471   1.123   2.604  0.0749  0.4211  0.1962
   70TIP3    H1  174   0.521   1.042   2.609  0.3404  0.5555 -0.2418
   70TIP3    H2  175   0.461   1.151   2.695 -0.6388 -0.4768  0.4032
   71TIP3   OH2  176   4.983   1.128   3.002  0.4121  0.2118  0.0591
   71TIP3    H1  177   4.963   1.140   2.909  1.8979  0.7162 -0.2111
   71TIP3    H2  178   4.897   1.109   3.042 -0.4921  1.5567 -1.1459
   72TIP3   OH2  179   0.430   1.783   3.009  0.1158 -0.4331 -0.0262
   72TIP3    H1  180   0.506   1.814   2.959 -0.0317 -0.2694 -0.1515
   72TIP3    H2  181   0.435   1.830   3.092  0.2328 -0.5306  0.0211
   73TIP3   OH2  182   3.697   2.644   2.002 -0.0427 -0.6961  0.0174
   73TIP3    H1  183   3.606   2.614   2.008 -0.3750  0.3900  0.5254
   73TIP3    H2  184   3.692   2.731   1.965  0.9208 -1.1909 -1.3556
   74TIP3   OH2  185   4.205   2.522   1.029 -0.0818 -0.2725  0.1283
   74TIP3    H1  186   4.233   2.613   1.036  1.7298 -0.8427  0.7820
   74TIP3    H2  187   4.200   2.505   0.935 -1.6590  0.8089 -0.0310
   75TIP3   OH2  188   5.713   0.894   5.679  0.3323  0.1497  0.1285
   75TIP3    H1  189   5.774   0.873   5.608  0.4676 -3.6296  1.1772
   75TIP3    H2  190   5.768   0.899   5.757 -0.1364  1.8072  0.3874
   76TIP3   OH2  191   1.746   6.689   1.389  0.6264 -0.1230 -0.4979
   76TIP3    H1  192   1.712   6.653   1.471  1.6124 -1.8004 -0.7704
   76TIP3    H2  193   1.821   6.742   1.416  0.5982 -0.1947 -0.2778
   77TIP3   OH2  194   1.091   2.982   5.824 -0.4299  0.1978  0.1005
   77TIP3    H1  195   1.064   2.945   5.908  2.1250 -1.5279  0.2615
   77TIP3    H2  196   1.110   3.074   5.844 -1.3473  0.2061  1.0366
   78TIP3   OH2  197   4.420   6.740   4.907 -0.1591 -0.4696 -0.3464
   78TIP3    H1  198   4.459   6.819   4.946  0.3102  0.2981 -2.2604
   78TIP3    H2  199   4.330   6.766   4.887  0.0522 -0.3582 -1.1512
   79TIP3   OH2  200   5.165   3.199   0.812  0.0745 -0.1369  0.1413
   79TIP3    H1  201   5.249   3.234   0.844  0.1687 -0.1819 -0.0585
   79TIP3    H2  202   5.118   3.276   0.781  0.6197 -0.2767 -1.0862
   80TIP3   OH2  203   7.084   1.536   5.574  0.2283 -0.8376 -0.1009
   80TIP3    H1  204   7.085   1.475   5.648  1.4143 -0.9555 -0.1948
   80TIP3    H2  205   7.028   1.608   5.603 -0.4830 -1.5474  0.3459
   81TIP3   OH2  206   5.931   0.615   1.484 -0.3998  0.4481  0.0793
   81TIP3    H1  207   5.954   0.567   1.563  0.3209  1.0199  0.2316
   81TIP3    H2  208   6.015   0.629   1.439 -0.9019 -0.8141 -1.3483
   82TIP3   OH2  209   5.567   0.536   3.868  0.2041 -0.3830 -0.2006
   82TIP3    H1  210   5.540   0.585   3.790  0.7769  0.9222  0.3840
   82TIP3    H2  211   5.491   0.539   3.926  0.0410 -0.6900 -0.3964
   83TIP3   OH2  212   4.942   1.104   1.142  0.4268  0.2572 -0.0740
   83TIP3    H1  213   4.945   1.008   1.134 -0.2439  0.1059  1.2589
   83TIP3    H2  214   4.992   1.135   1.067  1.0069 -1.1493 -0.3129
   84TIP3   OH2  215   4.344   3.441   5.662 -0.2312 -0.1493  0.1152
   84TIP3    H1  216   4.258   3.477   5.639 -1.2438 -2.3369  0.1575
   84TIP3    H2  217   4.339   3.426   5.757  0.3109  0.0195  0.1708
   85TIP3   OH2  218   6.990   1.269   0.554 -0.1090 -0.5846  0.0296
   85TIP3    H1  219   7.018   1.291   0.465  0.8929  1.7616  0.8662
   85TIP3    H2  220   7.072   1.262   0.604 -0.7166 -0.6429  1.0447
   86TIP3   OH2  221   0.391   6.576   0.947 -0.0835  0.0296  0.6102
   86TIP3    H1  222   0.438   6.546   0.870  1.9865  0.8434  1.4890
   86TIP3    H2  223   0.307   6.530   0.943  1.0095 -2.0018 -0.6768
   87TIP3   OH2  224   0.362   5.148   3.172 -0.5663  0.1635  0.2336
   87TIP3    H1  225   0.438   5.095   3.195  0.1459  0.5145 -1.1729
   87TIP3    H2  226   0.303   5.088   3.127 -1.6292 -0.3473  2.1651
   88TIP3   OH2  227   1.669   1.530   1.098 -0.0119  0.4282 -0.3125
   88TIP3    H1  228   1.717   1.518   1.180 -0.0770 -1.3060 -0.5006
   88TIP3    H2  229   1.592   1.474   1.106 -2.3718  3.4946  0.1620
   89TIP3   OH2  230   6.219   5.415   5.402 -0.4280  0.0050 -0.3115
   89TIP3    H1  231   6.226   5.366   5.321 -0.6628 -1.0343  0.2825
   89TIP3    H2  232   6.215   5.348   5.471  0.6936  0.8626  0.6349
   90TIP3   OH2  233   2.216   1.231   5.581  0.0127 -0.4041  0.2756
   90TIP3    H1  234   2.249   1.204   5.496  0.4496  0.3800  0.1893
   90TIP3    H2  235   2.124   1.204   5.581 -1.2127  3.0624 -2.0744
   91TIP3   OH2  236   5.685   6.319   4.059 -0.2346  0.5871 -0.2773
   91TIP3    H1  237   5.607   6.266   4.076  0.4253 -0.0977  0.6918
   91TIP3    H2  238   5.714   6.291   3.972  0.3951 -1.0609  0.4157
   92TIP3   OH2  239   1.263   5.352   0.795 -0.1715  0.0530  0.3688
   92TIP3    H1  240   1.302   5.338   0.708  0.6725  1.0081  0.5663
   92TIP3    H2  241   1.331   5.399   0.844 -1.2524  0.9807  1.0282
   93TIP3   OH2  242   2.521   1.430   4.336 -0.9136  0.2862 -0.3454
   93TIP3    H1  243   2.489   1.465   4.253  0.9765  2.0265 -0.4354
   93TIP3    H2  244   2.591   1.490   4.362  0.1868 -1.5756  1.3010
   94TIP3   OH2  245   6.795   6.733   0.024 -0.0693 -0.4724 -0.2332
   94TIP3    H1  246   6.715   6.707   0.070  1.2591  0.1205  2.6256
   94TIP3    H2  247   6.857   6.661   0.042  1.1861  0.8470  0.9716
   95TIP3   OH2  248   6.316   5.455   3.963  0.2342 -0.8069  0.5316
   95TIP3    H1  249   6.333   5.475   4.055  1.5038 -0.2959  0.2137
   95TIP3    H2  250   6.279   5.536   3.927 -0.4467 -1.0685  0.6229
   96TIP3   OH2  251   4.849   5.823   4.052 -0.2506 -0.6656 -0.0582
   96TIP3    H1  252   4.810   5.742   4.019 -0.9119 -1.8242  3.2174
   96TIP3    H2  253   4.778   5.868   4.096  0.1225  1.8102 -1.7672
   97TIP3   OH2  254   4.738   0.575   4.347 -0.0125 -0.2120  0.4436
   97TIP3    H1  255   4.753   0.663   4.383 -0.9437 -0.5247  1.6714
   97TIP3    H2  256   4.715   0.590   4.255  0.9224  0.7375  0.3448
   98TIP3   OH2  257   6.190   4.530   2.744  0.5374 -0.0514  0.2177
   98TIP3    H1  258   6.151   4.442   2.743  0.7458 -0.1667  1.1522
   98TIP3    H2  259   6.216   4.545   2.653  0.1321 -0.7935 -0.0346
   99TIP3   OH2  260   0.871   1.010   4.015  0.4998  0.3225  0.2314
   99TIP3    H1  261   0.918   1.094   4.005  0.7238  0.0613 -1.2390
   99TIP3    H2  262   0.901   0.958   3.940 -0.8175 -0.5051  0.2595
  100TIP3   OH2  263   6.147   2.643   1.559  0.3432  0.3498  0.1656
  100TIP3    H1  264   6.182   2.564   1.517 -0.0298 -0.4952  1.3664
  100TIP3    H2  265   6.054   2.624   1.571 -0.0337  1.5499 -0.7591
  101TIP3   OH2  266   1.818   6.517   5.085  0.1469 -0.3373 -0.0844
  101TIP3    H1  267   1.895   6.519   5.029  0.4990 -1.2238  0.3439
  101TIP3    H2  268   1.842   6.458   5.157 -1.5699 -2.2364 -0.9542
  102TIP3   OH2  269   4.072   2.826   1.875 -0.5505 -0.0701 -0.4572
  102TIP3    H1  270   4.167   2.836   1.868 -0.7571  1.0192 -2.0516
  102TIP3    H2  271   4.041   2.821   1.785 -2.1475  0.9865 -0.0080
  103TIP3   OH2  272   4.076   3.355   3.376 -0.1580  0.6203  0.3735
  103TIP3    H1  273   4.074   3.280   3.316  2.1994 -0.3757  1.3860
  103TIP3    H2  274   4.009   3.335   3.441  0.8473 -1.0257  0.9890
  104TIP3   OH2  275   2.289   5.862   4.069 -0.2644  0.6259 -0.6181
  104TIP3    H1  276   2.226   5.813   4.122 -0.1383  1.4184  0.2895
  104TIP3    H2  277   2.235   5.912   4.008 -0.4072 -0.3291 -1.3050
  105TIP3   OH2  278   3.462   1.570   3.974  0.0020  0.3477 -0.9218
  105TIP3    H1  279   3.447   1.653   3.928  2.6771 -0.1753 -2.9703
  105TIP3    H2  280   3.504   1.514   3.910 -0.4887 -2.1978  0.8214
  106TIP3   OH2  281   3.847   6.472   2.000 -0.1590  0.2540 -0.1527
  106TIP3    H1  282   3.852   6.405   1.932  0.2102 -0.9020  0.9686
  106TIP3    H2  283   3.922   6.529   1.984 -1.4288  1.4836 -2.1645
  107TIP3   OH2  284   4.913   6.701   0.711  0.0239  0.2712 -0.4295
  107TIP3    H1  285   4.833   6.664   0.748  1.0887 -0.3510  1.4028
  107TIP3    H2  286   4.972   6.626   0.703  1.0432  1.0030  0.0558
  108TIP3   OH2  287   5.979   3.490   5.200 -0.0568 -0.0326 -0.3545
  108TIP3    H1  288   6.020   3.430   5.137  0.0771  0.6485 -0.9311
  108TIP3    H2  289   5.983   3.575   5.157  1.4254  0.7462  1.1930
  109TIP3   OH2  290   5.286   4.339   3.248  0.6172 -0.4415 -0.2477
  109TIP3    H1  291   5.202   4.303   3.276 -0.0052 -1.0207 -2.6010
  109TIP3    H2  292   5.305   4.408   3.311 -2.3582  0.7316 -0.4757
  110TIP3   OH2  293   1.031   6.146   4.389  0.6078 -0.9592  0.7930
  110TIP3    H1  294   1.054   6.205   4.317  1.0305 -1.4773  0.5002
  110TIP3    H2  295   0.957   6.095   4.356  0.6769 -1.0621  0.7959
  111TIP3   OH2  296   4.269   5.179   1.964 -0.1375  0.0601 -0.0607
  111TIP3    H1  297   4.256   5.102   1.909  1.6107 -0.6250  0.4093
  111TIP3    H2  298   4.239   5.252   1.911 -0.1970 -0.7671 -1.1994
  112TIP3   OH2  299   2.973   5.854   2.344  0.3812  0.0512 -0.2293
  112TIP3    H1  300   2.921   5.882   2.419  0.0908  1.0863 -0.7928
  112TIP3    H2  301   3.021   5.778   2.375 -0.6548 -0.2791  0.6341
  113TIP3   OH2  302   5.334   1.878   2.530 -0.1857  0.0716 -0.0173
  113TIP3    H1  303   5.281   1.873   2.609 -0.1348  1.0416  0.0969
  113TIP3    H2  304   5.295   1.949   2.479  0.3310  0.0676 -0.4397
  114TIP3   OH2  305   4.593   3.838   4.340  0.0683 -0.2471  0.2978
  114TIP3    H1  306   4.673   3.787   4.329 -0.4836 -0.8112 -1.4221
  114TIP3    H2  307   4.617   3.926   4.311 -0.2205 -0.7086 -1.4497
  115TIP3   OH2  308   3.102   2.533   3.408 -0.3891 -0.5397  0.1811
  115TIP3    H1  309   3.150   2.519   3.490  1.0129 -1.3211 -0.7510
  115TIP3    H2  310   3.018   2.569   3.437  0.0982 -0.7030  1.9598
  116TIP3   OH2  311   3.161   0.725   2.278 -0.5014  0.5807  0.0906
  116TIP3    H1  312   3.253   0.703   2.260 -0.0304  0.1673  2.6455
  116TIP3    H2  313   3.165   0.800   2.337 -1.7547  0.0657  0.8840
  117TIP3   OH2  314   4.143   2.538   1.711 -0.1393 -0.2284 -0.8200
  117TIP3    H1  315   4.090   2.582   1.777  2.0772 -0.6061  1.3799
  117TIP3    H2  316   4.133   2.592   1.632 -0.8546  1.7723  0.5598
  118TIP3   OH2  317   6.391   5.274   2.956 -0.1324  0.1841  0.1769
  118TIP3    H1  318   6.329   5.213   2.996 -0.9361  0.1873 -1.0037
  118TIP3    H2  319   6.467   5.221   2.934 -0.0226  0.0182  0.9313
  119TIP3   OH2  320   2.692   4.801   2.928  0.0334  0.1928 -0.2947
  119TIP3    H1  321   2.771   4.798   2.982 -0.8342  0.4270  1.0292
  119TIP3    H2  322   2.704   4.879   2.873 -0.0490  1.2645  1.1571
  120TIP3   OH2  323   4.129   0.321   4.682 -0.4163  0.2995 -0.2461
  120TIP3    H1  324   4.066   0.265   4.728  1.2912 -0.2166  1.6148
  120TIP3    H2  325   4.079   0.400   4.660 -2.7314 -1.5488 -2.3642
  121TIP3   OH2  326   3.578   1.725   2.842 -0.4313  0.1202  0.9756
  121TIP3    H1  327   3.522   1.750   2.915 -0.0457  2.0939  0.6493
  121TIP3    H2  328   3.530   1.752   2.764  0.3564  0.5729  0.6354
  122TIP3   OH2  329   1.684   0.955   1.507 -0.2221  0.3795 -0.2749
  122TIP3    H1  330   1.694   0.877   1.452 -1.3294  0.1723 -0.2046
  122TIP3    H2  331   1.749   0.943   1.577 -0.1556 -0.3180 -0.4501
  123TIP3   OH2  332   5.667   6.238   1.423  0.0432  0.4900  0.3897
  123TIP3    H1  333   5.695   6.291   1.498  1.7229 -0.4290  0.4588
  123TIP3    H2  334   5.744   6.234   1.367 -0.3158 -1.1269 -0.0368
  124TIP3   OH2  335   1.709   6.174   4.627  0.7430 -0.5812 -0.5077
  124TIP3    H1  336   1.792   6.154   4.585 -0.4063 -0.9483 -2.7681
  124TIP3    H2  337   1.683   6.091   4.669  1.8534 -0.2388  0.9215
  125TIP3   OH2  338   4.020   0.782   3.365  0.3318 -0.5764  0.4076
  125TIP3    H1  339   4.007   0.756   3.456 -1.1682 -1.3139  0.0249
  125TIP3    H2  340   3.945   0.838   3.345 -0.5196 -2.0932 -0.9356
  126TIP3   OH2  341   4.431   5.541   1.550  0.3914 -0.4385  0.2491
  126TIP3    H1  342   4.340   5.559   1.574  0.5001 -0.6824  0.8710
  126TIP3    H2  343   4.471   5.628   1.541 -0.0074 -0.3244 -0.4620
  127TIP3   OH2  344   1.708   2.437   0.360  0.2575 -0.0440  0.0930
  127TIP3    H1  345   1.801   2.447   0.337  0.8070 -2.6262  0.8644
  127TIP3    H2  346   1.692   2.505   0.425  1.8887 -0.0895  0.5913
  128TIP3   OH2  347   5.309   0.540   4.741 -0.0696  0.2365 -0.0114
  128TIP3    H1  348   5.377   0.601   4.767 -1.6881  1.8857  0.5352
  128TIP3    H2  349   5.312   0.471   4.807  1.5126 -0.1067 -0.4117
  129TIP3   OH2  350   0.685   4.889   2.616 -0.5997 -0.0562 -0.2267
  129TIP3    H1  351   0.701   4.837   2.695  0.6143  0.5724 -0.0382
  129TIP3    H2  352   0.702   4.979   2.643 -0.9080  0.2417 -1.0154
  130TIP3   OH2  353   2.578   2.161   5.275 -0.6222 -0.3536  0.1476
  130TIP3    H1  354   2.539   2.145   5.361  2.3596  1.8445  2.1294
  130TIP3    H2  355   2.666   2.124   5.281  1.4298  3.8922  0.0016
  131TIP3   OH2  356   3.391   1.052   0.588  0.5027  0.4562 -0.1134
  131TIP3    H1  357   3.415   1.017   0.674  0.9807 -0.9969 -0.7974
  131TIP3    H2  358   3.301   1.023   0.575  0.5298  0.4175 -0.2153
  132TIP3   OH2  359   4.584   1.145   2.669 -0.3910 -0.2657  0.5936
  132TIP3    H1  360   4.631   1.070   2.705  2.0445 -0.0340 -1.8805
  132TIP3    H2  361   4.639   1.221   2.690 -0.9366  0.3550 -0.1647
  133TIP3   OH2  362   5.116   2.002   5.600 -0.5844 -0.3542  0.6002
  133TIP3    H1  363   5.102   2.063   5.673  0.1422 -0.9587  1.2621
  133TIP3    H2  364   5.092   2.052   5.522 -0.6604  0.5505  1.1870
  134TIP3   OH2  365   5.295   5.108   3.421  0.4532  0.1394 -0.6428
  134TIP3    H1  366   5.360   5.169   3.456 -1.0378  1.1927  0.3647
  134TIP3    H2  367   5.256   5.154   3.347 -0.8354  0.5390  0.2598
  135TIP3   OH2  368   3.426   4.196   5.592  0.0657 -0.4134  0.0957
  135TIP3    H1  369   3.370   4.272   5.610  1.9517  1.2935 -0.7907
  135TIP3    H2  370   3.455   4.167   5.678 -1.1317 -0.5248  0.4850
  136TIP3   OH2  371   3.948   3.950   4.338  0.0012 -0.1072 -0.5187
  136TIP3    H1  372   3.939   3.973   4.246 -0.1742 -1.9333 -0.9806
  136TIP3    H2  373   3.862   3.914   4.362  0.1888 -0.0582  0.2451
  137TIP3   OH2  374   3.477   4.814   4.508 -0.0343 -0.4873 -0.0859
  137TIP3    H1  375   3.566   4.791   4.536  0.3329  1.4886  0.4796
  137TIP3    H2  376   3.488   4.890   4.452 -1.1918 -1.6801 -2.0512
  138TIP3   OH2  377   5.984   3.727   5.057 -0.8192  0.2603  0.5961
  138TIP3    H1  378   5.950   3.787   4.991 -1.0404 -2.0716 -1.5487
  138TIP3    H2  379   6.077   3.750   5.064 -0.6207  0.0970 -1.1207
  139TIP3   OH2  380   6.529   6.308   2.399 -0.2128 -0.4735 -0.0744
  139TIP3    H1  381   6.562   6.328   2.311 -0.3458 -0.4025 -0.1071
  139TIP3    H2  382   6.574   6.227   2.423 -0.7728 -0.9313 -0.5282
  140TIP3   OH2  383   6.197   0.578   2.296  0.1490  0.5617  0.5393
  140TIP3    H1  384   6.199   0.496   2.345 -1.4394  0.2709  0.2007
  140TIP3    H2  385   6.218   0.553   2.206  0.2155  0.6235  0.5370
  141TIP3   OH2  386   5.806   5.965   3.955  0.3779  0.3321  0.7218
  141TIP3    H1  387   5.800   5.896   4.021 -1.3026 -0.3920 -0.1087
  141TIP3    H2  388   5.749   6.035   3.988 -0.1623  0.1264  0.2435
  142TIP3   OH2  389   2.717   4.371   5.232  0.0098 -0.2835 -0.6658
  142TIP3    H1  390   2.697   4.285   5.193  0.4246 -1.1744  1.0177
  142TIP3    H2  391   2.658   4.378   5.306 -0.7903  1.4121 -1.4058
  143TIP3   OH2  392   2.708   4.656   5.097 -0.2708 -0.4324 -0.4957
  143TIP3    H1  393   2.739   4.596   5.165 -0.5849 -0.3343 -0.2681
  143TIP3    H2  394   2.694   4.600   5.021 -0.4024 -0.6214 -0.3319
  144TIP3   OH2  395   6.074   4.350   2.971  0.3261  0.2630  0.4058
  144TIP3    H1  396   6.060   4.313   3.058  0.0716  0.8281  0.6127
  144TIP3    H2  397   6.151   4.405   2.981 -0.3025  1.1418  0.5429
  145TIP3   OH2  398   6.180   2.658   5.602  0.1842  0.0373  0.2647
  145TIP3    H1  399   6.214   2.610   5.678  0.6851 -0.2032 -0.1028
  145TIP3    H2  400   6.166   2.747   5.634  0.1031 -0.1358  0.7204
  146TIP3   OH2  401   0.706   3.809   0.190 -0.2516  0.1563  0.2231
  146TIP3    H1  402   0.782   3.788   0.137  0.4084  2.3425  0.1799
  146TIP3    H2  403   0.677   3.895   0.157 -0.7872  0.8432  2.3122
  147TIP3   OH2  404   5.751   4.196   3.097 -0.6978 -0.0535  0.0629
  147TIP3    H1  405   5.665   4.238   3.088 -0.7303 -0.0664  0.3204
  147TIP3    H2  406   5.741   4.136   3.171 -0.6750 -0.5770 -0.3483
  148TIP3   OH2  407   4.393   6.489   3.323 -0.5366 -0.3784  0.3650
  148TIP3    H1  408   4.414   6.557   3.388  2.7945  0.5725 -1.4445
  148TIP3    H2  409   4.370   6.538   3.244 -0.0630 -1.3658 -0.4067
  149TIP3   OH2  410   2.591   5.467   0.228 -0.1723 -0.2792  0.2316
  149TIP3    H1  411   2.603   5.472   0.133 -0.4393 -0.5931  0.1798
  149TIP3    H2  412   2.506   5.507   0.244 -0.7188 -1.3707  0.1909
  150TIP3   OH2  413   1.671   3.482   1.959  0.0258  0.0708 -0.1026
  150TIP3    H1  414   1.703   3.392   1.959  0.8265  0.3388  0.8084
  150TIP3    H2  415   1.577   3.475   1.972  0.0710 -0.6308 -0.1565
  151TIP3   OH2  416   5.941   5.390   0.577  0.4717  0.3438 -0.0529
  151TIP3    H1  417   5.892   5.312   0.604  0.2099  0.0279 -1.3632
  151TIP3    H2  418   5.980   5.423   0.658 -1.1182  0.0587  0.8815
  152TIP3   OH2  419   0.381   3.092   0.819  0.5575  0.3305  0.0024
  152TIP3    H1  420   0.290   3.091   0.847  1.3110  1.9181  2.9248
  152TIP3    H2  421   0.402   3.000   0.801 -1.4149 -0.1367 -0.1285
  153TIP3   OH2  422   6.811   4.571   2.832  0.3877  0.1581  0.1448
  153TIP3    H1  423   6.791   4.665   2.829  0.1763  0.1542  1.0454
  153TIP3    H2  424   6.887   4.561   2.774 -0.3922  0.6547 -1.0058
  154TIP3   OH2  425   6.258   3.515   5.343  0.0933 -0.0686  0.1835
  154TIP3    H1  426   6.181   3.496   5.289 -0.4599  0.8742  0.6163
  154TIP3    H2  427   6.265   3.610   5.343  1.4734 -0.1475 -0.1121
  155TIP3   OH2  428   3.302   3.623   1.941 -0.2004  0.3597  0.3309
  155TIP3    H1  429   3.324   3.717   1.942 -0.6417  0.6278  4.7306
  155TIP3    H2  430   3.381   3.580   1.974 -0.9513 -0.4765  1.0634
  156TIP3   OH2  431   6.183   6.673   5.818 -0.1848 -0.6273  0.2484
  156TIP3    H1  432   6.193   6.714   5.733  2.5035  0.0584  0.7994
  156TIP3    H2  433   6.156   6.583   5.799 -0.4721 -0.2498 -1.2387
  157TIP3   OH2  434   6.322   4.861   3.320 -0.4393  0.2677 -0.2882
  157TIP3    H1  435   6.386   4.828   3.258  0.2818  0.6727  0.2338
  157TIP3    H2  436   6.298   4.784   3.372 -0.6805  0.0325 -0.7453
  158TIP3   OH2  437   3.900   1.187   3.832 -0.0171 -0.0638 -0.0483
  158TIP3    H1  438   3.905   1.282   3.846 -1.2075 -0.0503  0.4842
  158TIP3    H2  439   3.979   1.165   3.783  0.9431  0.9984  0.9535
  159TIP3   OH2  440   7.180   2.653   0.078 -0.0504  0.3237  0.2616
  159TIP3    H1  441   7.097   2.680   0.038  0.7427 -0.6917 -2.3127
  159TIP3    H2  442   7.183   2.558   0.064  1.3122  0.2761  0.7568
  160TIP3   OH2  443   3.084   0.401   0.261 -0.0985 -0.6380 -0.6091
  160TIP3    H1  444   3.131   0.389   0.179 -0.2808  0.2313 -0.8528
  160TIP3    H2  445   3.111   0.488   0.292 -1.6261 -0.0395 -0.8497
  161TIP3   OH2  446   1.208   4.439   4.928 -0.3985  0.4788 -0.5125
  161TIP3    H1  447   1.178   4.376   4.863  0.2025 -0.6746  0.2980
  161TIP3    H2  448   1.181   4.402   5.012  0.4964  1.0019  0.0228
  162TIP3   OH2  449   1.461   5.817   3.626  0.1610 -0.4336 -1.1043
  162TIP3    H1  450   1.410   5.811   3.707  0.8984 -0.1363 -0.6113
  162TIP3    H2  451   1.410   5.876   3.570  1.1389  1.8702  0.2992
  163TIP3   OH2  452   0.560   3.635   1.364  0.0675  0.6482 -0.7308
  163TIP3    H1  453   0.544   3.713   1.417 -0.3396 -0.5286  0.9632
  163TIP3    H2  454   0.644   3.650   1.322  0.3105  1.6999  0.1191
  164TIP3   OH2  455   1.094   4.608   2.510 -0.2395 -0.3960 -0.1261
  164TIP3    H1  456   1.109   4.527   2.559 -3.0371  0.3219  2.1444
  164TIP3    H2  457   1.119   4.678   2.570  1.9427  0.5819 -1.9884
  165TIP3   OH2  458   2.226   0.237   3.165 -0.1547  0.5721 -0.2078
  165TIP3    H1  459   2.300   0.192   3.126  0.1714  1.5848 -0.8103
  165TIP3    H2  460   2.240   0.329   3.143 -0.6215  1.0239  1.2462
  166TIP3   OH2  461   2.111   2.487   2.112 -0.1867 -0.4592  0.0320
  166TIP3    H1  462   2.027   2.455   2.145 -1.0854  0.3325 -1.3598
  166TIP3    H2  463   2.132   2.561   2.170  1.4403 -2.7789  2.6637
  167TIP3   OH2  464   6.152   2.249   4.933 -0.0173 -0.1883 -0.2620
  167TIP3    H1  465   6.214   2.282   4.999 -0.5795  0.1871  0.0899
  167TIP3    H2  466   6.138   2.324   4.875  0.2785 -0.4414 -0.6676
  168TIP3   OH2  467   1.274   6.402   5.179 -0.7534 -0.1183  0.0257
  168TIP3    H1  468   1.275   6.390   5.084 -1.5189 -0.7520  0.0904
  168TIP3    H2  469   1.199   6.460   5.194  0.9944  2.3075  0.0140
  169TIP3   OH2  470   6.330   1.338   4.036  0.8333 -0.4245  0.4805
  169TIP3    H1  471   6.363   1.300   3.955  2.0346 -0.6640  1.0567
  169TIP3    H2  472   6.250   1.290   4.055  0.5129 -0.3323 -0.5775
  170TIP3   OH2  473   0.898   2.319   5.633 -0.3938  0.2638  0.3691
  170TIP3    H1  474   0.903   2.379   5.708 -0.4936  0.0024  0.5890
  170TIP3    H2  475   0.826   2.353   5.580 -0.9597 -0.0957  0.8886
  171TIP3   OH2  476   3.897   5.991   0.122 -0.0829  0.2624 -0.2345
  171TIP3    H1  477   3.927   5.928   0.057  0.7674 -0.9904  1.3080
  171TIP3    H2  478   3.805   5.968   0.136  0.5588 -1.6360  1.3197
  172TIP3   OH2  479   1.367   1.626   3.304  0.7629 -0.2914 -0.2230
  172TIP3    H1  480   1.428   1.556   3.278  0.5558 -1.2303  1.6305
  172TIP3    H2  481   1.330   1.595   3.387  1.2893  2.3869  1.1177
  173TIP3   OH2  482   5.416   4.492   3.430  0.5053  0.0778  0.3123
  173TIP3    H1  483   5.406   4.586   3.441  0.1012  0.2560 -1.2675
  173TIP3    H2  484   5.510   4.476   3.434  0.5452  0.4660  1.0649
  174TIP3   OH2  485   5.721   0.626   5.314  0.0908 -0.3348  0.0048
  174TIP3    H1  486   5.786   0.602   5.379 -0.5307 -1.4101  0.2474
  174TIP3    H2  487   5.687   0.543   5.281 -0.2046  0.1935 -1.0865
  175TIP3   OH2  488   4.808   1.456   4.767 -0.3955 -0.2101  0.3001
  175TIP3    H1  489   4.834   1.364   4.762 -0.3872 -0.1618 -1.1544
  175TIP3    H2  490   4.838   1.485   4.853 -0.7896 -1.6726  0.9643
  176TIP3   OH2  491   1.776   0.540   1.030  0.0266  0.2612  0.2128
  176TIP3    H1  492   1.792   0.475   1.098  0.6229 -2.8372 -2.6866
  176TIP3    H2  493   1.851   0.600   1.037  0.7856 -0.7623  1.3781
  177TIP3   OH2  494   0.349   2.932   4.203  0.2551 -0.2586  0.0879
  177TIP3    H1  495   0.276   2.904   4.148  1.4843 -0.5050 -1.4904
  177TIP3    H2  496   0.308   2.971   4.281 -1.5285 -0.4916 -0.7072
  178TIP3   OH2  497   1.171   4.590   2.239 -0.1332 -0.1259  0.0404
  178TIP3    H1  498   1.151   4.593   2.333 -0.6324 -0.9146 -0.0296
  178TIP3    H2  499   1.245   4.650   2.228  0.3962 -0.5626  1.0588
  179TIP3   OH2  500   5.012   3.251   4.368  0.7193 -0.4447  0.0900
  179TIP3    H1  501   4.990   3.228   4.458 -1.4001 -0.9030 -0.4751
  179TIP3    H2  502   5.094   3.300   4.374  0.1912  0.2419  2.3425
  180TIP3   OH2  503   5.678   5.910   3.134  0.5320 -0.0821 -0.6583
  180TIP3    H1  504   5.746   5.843   3.143  0.7665  0.0893 -1.1333
  180TIP3    H2  505   5.721   5.982   3.089  0.6839  0.9835  1.1044
  181TIP3   OH2  506   1.682   1.455   1.882 -0.2359  0.3964  0.0611
  181TIP3    H1  507   1.742   1.480   1.953 -0.6217 -0.5483  0.7464
  181TIP3    H2  508   1.631   1.533   1.865  2.1497  1.7280 -1.5778
  182TIP3   OH2  509   0.006   0.240   1.952 -0.5004  0.8850  0.6698
  182TIP3    H1  510   0.002   0.259   1.858  1.5110 -3.0725 -0.4080
  182TIP3    H2  511   0.087   0.282   1.981  0.3864 -0.2525 -0.0875
  183TIP3   OH2  512   6.815   1.689   0.100  0.2806 -0.5382 -0.3286
  183TIP3    H1  513   6.781   1.716   0.015  0.9316  1.9692  0.1319
  183TIP3    H2  514   6.910   1.701   0.093  0.2769  0.5618  0.9767
  184TIP3   OH2  515   3.648   5.652   2.228  0.5218 -0.0217  0.1822
  184TIP3    H1  516   3.554   5.664   2.219  0.2309 -2.1388 -0.3164
  184TIP3    H2  517   3.657   5.568   2.273  2.1931  1.4278  2.8387
  185TIP3   OH2  518   4.467   3.285   3.336 -0.0378 -0.0234  0.4627
  185TIP3    H1  519   4.432   3.336   3.262  2.1021 -0.1248 -0.6960
  185TIP3    H2  520   4.486   3.350   3.403 -0.5373  0.2729  0.3201
  186TIP3   OH2  521   3.203   5.477   0.167  0.5777  0.1832 -0.6134
  186TIP3    H1  522   3.166   5.390   0.173 -2.3022  1.3445  0.0187
  186TIP3    H2  523   3.142   5.526   0.112  2.0721  1.8300 -0.9111
  187TIP3   OH2  524   5.557   4.833   4.904  0.0739  0.2908 -0.4732
  187TIP3    H1  525   5.629   4.896   4.904 -0.5604  1.1214  1.5619
  187TIP3    H2  526   5.582   4.770   4.972 -0.4992 -0.1794 -0.6944
  188TIP3   OH2  527   6.745   3.799   5.554  0.2548 -0.5080  0.2364
  188TIP3    H1  528   6.656   3.815   5.525  0.7827  0.0112 -1.1647
  188TIP3    H2  529   6.747   3.706   5.577 -0.7469 -0.4202  0.7100
  189TIP3   OH2  530   2.537   4.088   0.158 -0.1203  0.3245 -0.7105
  189TIP3    H1  531   2.604   4.070   0.092  0.0536  0.4209 -0.5639
  189TIP3    H2  532   2.566   4.039   0.235 -1.2294 -1.1903 -1.2221
  190TIP3   OH2  533   6.856   0.056   2.160  0.1067 -0.1973  0.1051
  190TIP3    H1  534   6.926   0.099   2.209  0.0651 -0.4663  0.4020
  190TIP3    H2  535   6.777   0.070   2.213  0.3010 -1.6779  0.8311
  191TIP3   OH2  536   6.955   1.050   1.804  0.1047 -0.0915  0.6489
  191TIP3    H1  537   6.898   1.127   1.812 -0.3219 -0.3229 -0.0396
  191TIP3    H2  538   7.043   1.087   1.801  0.0132  0.2598  1.8674
  192TIP3   OH2  539   1.221   3.204   1.059 -0.2707 -0.3216  0.1585
  192TIP3    H1  540   1.165   3.199   1.136 -0.2646 -0.0060  0.1811
  192TIP3    H2  541   1.229   3.113   1.030 -2.3572 -0.1915 -0.9882
  193TIP3   OH2  542   2.915   4.764   0.023  0.2076  0.3419  0.0702
  193TIP3    H1  543   3.003   4.795   0.003  1.0077 -1.1465  1.0411
  193TIP3    H2  544   2.922   4.728   0.112 -1.3470  0.0940  0.1194
  194TIP3   OH2  545   2.207   0.503   3.868  0.1782  0.5586  0.3541
  194TIP3    H1  546   2.227   0.596   3.878  2.8330  0.4564 -2.4358
  194TIP3    H2  547   2.244   0.462   3.947  1.5369  1.6313  0.3204
  195TIP3   OH2  548   0.731   4.639   5.786  0.6827 -0.2838  0.0648
  195TIP3    H1  549   0.823   4.660   5.771  0.6150 -0.1964 -0.2446
  195TIP3    H2  550   0.732   4.548   5.816  0.6966 -1.2279 -2.5314
  196TIP3   OH2  551   1.225   6.285   0.050 -0.0656  0.4001 -0.3137
  196TIP3    H1  552   1.296   6.348   0.045  0.4416 -0.1808 -0.4350
  196TIP3    H2  553   1.261   6.211   0.097 -1.1534  0.8522  1.3346
  197TIP3   OH2  554   2.691   0.182   5.537 -0.2135  0.5913  0.4181
  197TIP3    H1  555   2.775   0.225   5.526 -0.6555  2.1780  2.5844
  197TIP3    H2  556   2.630   0.232   5.482  0.0017  0.2063 -0.1823
  198TIP3   OH2  557   5.184   5.179   3.877 -0.2982 -0.2094  0.0760
  198TIP3    H1  558   5.096   5.150   3.900 -0.6290 -0.5013 -1.4577
  198TIP3    H2  559   5.190   5.167   3.782  1.1618  0.4411  0.0492
  199TIP3   OH2  560   6.504   4.551   4.963  0.5177  0.1808  0.0071
  199TIP3    H1  561   6.549   4.556   4.879 -0.8793 -0.4441 -0.8183
  199TIP3    H2  562   6.465   4.638   4.975 -0.7497 -0.2240 -0.8930
  200TIP3   OH2  563   6.551   2.435   4.869 -0.2812 -0.0475 -0.7295
  200TIP3    H1  564   6.554   2.529   4.887  2.5304 -0.0810 -0.5800
  200TIP3    H2  565   6.485   2.401   4.928 -1.6676  1.8729 -1.0864
  201TIP3   OH2  566   1.456   2.202   5.346  0.4990 -0.4115  0.1619
  201TIP3    H1  567   1.436   2.246   5.428 -0.4465  0.6750 -0.6159
  201TIP3    H2  568   1.488   2.273   5.289  0.2173 -0.9732 -0.7053
  202TIP3   OH2  569   4.602   6.434   2.874  0.2794  0.2884 -0.1477
  202TIP3    H1  570   4.528   6.401   2.925  0.6528  1.5978  1.2894
  202TIP3    H2  571   4.655   6.484   2.936  1.1196  1.3807 -1.6636
  203TIP3   OH2  572   4.866   1.191   0.563  0.2799 -0.1423 -0.4312
  203TIP3    H1  573   4.849   1.206   0.470 -0.2443 -3.2373 -0.9617
  203TIP3    H2  574   4.945   1.242   0.581 -0.2333  1.4283 -2.2413
  204TIP3   OH2  575   0.671   1.649   0.391 -0.0003  0.5845 -0.1052
  204TIP3    H1  576   0.602   1.655   0.457  0.3254  0.8418  0.2142
  204TIP3    H2  577   0.664   1.559   0.358  1.2865 -0.3282  1.9035
  205TIP3   OH2  578   1.425   6.660   5.409 -0.6942  0.1688  0.0522
  205TIP3    H1  579   1.422   6.751   5.382 -0.5304  0.2051  0.1570
  205TIP3    H2  580   1.429   6.610   5.327  0.8465  0.3157  0.0139
  206TIP3   OH2  581   2.090   0.111   1.793  0.1686  0.4306 -0.2727
  206TIP3    H1  582   2.091   0.063   1.875 -0.3774  1.9732  0.6824
  206TIP3    H2  583   2.040   0.055   1.733 -0.2172 -0.3049  0.7085
  207TIP3   OH2  584   0.987   6.688   4.354 -0.1456  0.1686 -0.4913
  207TIP3    H1  585   0.975   6.669   4.261  0.9352  1.5610 -0.9485
  207TIP3    H2  586   1.026   6.776   4.356  1.7486 -0.6255  1.1679
  208TIP3   OH2  587   6.784   0.997   1.023 -0.0551  0.0062  0.5422
  208TIP3    H1  588   6.736   0.938   0.965  1.4970 -0.8867  0.1090
  208TIP3    H2  589   6.876   0.972   1.013  0.8753  3.3003 -0.6358
  209TIP3   OH2  590   0.411   0.793   1.151 -0.1496 -0.5067 -0.1744
  209TIP3    H1  591   0.324   0.834   1.152  0.0331 -0.1041  1.5412
  209TIP3    H2  592   0.472   0.865   1.135  0.0466 -0.3674  1.1571
  210TIP3   OH2  593   6.975   5.143   5.717 -0.3603 -0.3694 -0.1105
  210TIP3    H1  594   7.014   5.081   5.655  0.2400  0.0962 -0.2102
  210TIP3    H2  595   6.922   5.088   5.775  2.2708 -1.3834  1.4960
  211TIP3   OH2  596   1.659   5.619   2.806 -0.2280 -0.1296 -0.4576
  211TIP3    H1  597   1.619   5.626   2.893  0.5480 -0.3491 -0.0730
  211TIP3    H2  598   1.593   5.577   2.752 -0.6174 -0.2418  0.0999
  212TIP3   OH2  599   6.294   3.329   0.403 -0.8640  0.1882 -0.2085
  212TIP3    H1  600   6.201   3.347   0.387 -1.1262  0.4788  1.5094
  212TIP3    H2  601   6.335   3.416   0.401 -0.5314  0.0300 -1.3402
  213TIP3   OH2  602   2.145   6.058   3.425 -0.0508  0.9729  0.0986
  213TIP3    H1  603   2.064   6.008   3.422  1.0207 -0.8858  0.4007
  213TIP3    H2  604   2.183   6.047   3.338  0.0980  1.4534  0.1014
  214TIP3   OH2  605   1.432   5.947   5.516 -0.1840 -0.0911  0.4766
  214TIP3    H1  606   1.468   5.905   5.438 -0.9382 -0.1391  0.1482
  214TIP3    H2  607   1.419   5.876   5.578 -0.9127 -0.2709  0.1291
  215TIP3   OH2  608   4.699   6.772   1.141  0.1863  0.1824  0.1367
  215TIP3    H1  609   4.668   6.724   1.218  0.1968 -1.5370 -0.8913
  215TIP3    H2  610   4.623   6.822   1.112  0.1469  0.7661  1.1702
  216TIP3   OH2  611   6.995   2.853   2.887 -0.0951  0.2518  0.1043
  216TIP3    H1  612   7.002   2.922   2.821  0.1159  0.1147 -0.0168
  216TIP3    H2  613   6.999   2.900   2.971 -1.4151  0.5290  0.0251
  217TIP3   OH2  614   5.619   6.448   3.485 -0.7898  0.5785 -0.0930
  217TIP3    H1  615   5.556   6.463   3.414  0.1825 -1.4437 -1.4776
  217TIP3    H2  616   5.616   6.354   3.502  0.8948  0.6169  0.7205
  218TIP3   OH2  617   3.949   1.432   3.890  0.5381 -0.1468 -0.2759
  218TIP3    H1  618   3.946   1.479   3.974 -2.7307 -1.0731  0.2347
  218TIP3    H2  619   3.938   1.501   3.824 -2.1628  0.1199  0.3682
  219TIP3   OH2  620   7.047   0.955   4.031 -0.4346 -0.1156  0.1073
  219TIP3    H1  621   7.123   0.901   4.007 -0.8446 -1.4544  1.6449
  219TIP3    H2  622   6.988   0.947   3.956  0.4151 -0.0246 -0.6016
  220TIP3   OH2  623   5.638   3.020   4.692 -0.8486  0.1591  0.6210
  220TIP3    H1  624   5.616   3.043   4.782 -2.0785  1.7437 -0.0493
  220TIP3    H2  625   5.690   3.093   4.660  0.6306 -0.9431  0.3752
  221TIP3   OH2  626   0.340   6.782   0.719  0.0042  0.2905  0.0710
  221TIP3    H1  627   0.328   6.831   0.800  0.9438  2.3012 -0.9189
  221TIP3    H2  628   0.272   6.715   0.720  0.5505 -0.3271  2.9038
  222TIP3   OH2  629   6.133   1.893   5.616 -0.2186 -0.7729 -0.1954
  222TIP3    H1  630   6.177   1.827   5.669 -1.8249 -1.7913 -0.0301
  222TIP3    H2  631   6.106   1.960   5.678 -2.1986 -2.0193  0.4070
  223TIP3   OH2  632   0.067   5.166   5.682  0.1665 -0.0572 -0.0063
  223TIP3    H1  633   0.018   5.205   5.755  0.9342 -0.2824  0.6507
  223TIP3    H2  634   0.002   5.152   5.614 -0.8739 -1.1942  1.1625
  224TIP3   OH2  635   5.402   6.073   0.558  0.2359 -0.1475 -0.9355
  224TIP3    H1  636   5.326   6.032   0.600  1.2164 -0.5697  0.5190
  224TIP3    H2  637   5.387   6.167   0.570  0.4885 -0.2549  0.4325
  225TIP3   OH2  638   2.099   0.129   5.102  0.2012  0.1872 -0.3804
  225TIP3    H1  639   2.037   0.202   5.101 -2.7351 -2.1141  0.4349
  225TIP3    H2  640   2.115   0.113   5.195 -0.5446 -1.2204 -0.4692
  226TIP3   OH2  641   2.537   3.120   3.941  0.3570 -0.1598 -0.0627
  226TIP3    H1  642   2.468   3.160   3.994  1.0795  0.0629  0.7394
  226TIP3    H2  643   2.605   3.187   3.936  0.8369 -0.6505 -0.2000
  227TIP3   OH2  644   6.064   3.678   1.331  0.1356 -0.0476 -0.1526
  227TIP3    H1  645   6.110   3.659   1.413  1.5467 -0.6441 -1.0586
  227TIP3    H2  646   6.133   3.682   1.265 -0.8844  1.2508 -1.1956
  228TIP3   OH2  647   6.706   2.327   3.953 -0.4737  0.0657  0.3635
  228TIP3    H1  648   6.638   2.262   3.970 -0.2936  0.1512  1.4513
  228TIP3    H2  649   6.673   2.376   3.877 -1.8066  0.3520  1.0979
  229TIP3   OH2  650   1.830   2.944   3.132 -0.2217  0.1134  0.4680
  229TIP3    H1  651   1.851   2.851   3.129 -0.5096  0.0184  1.3311
  229TIP3    H2  652   1.851   2.971   3.221 -0.0768  0.8914  0.2052
  230TIP3   OH2  653   0.268   2.961   3.604 -0.4403  0.3390 -0.4110
  230TIP3    H1  654   0.241   2.900   3.673  0.4205  1.3378  0.8813
  230TIP3    H2  655   0.187   2.985   3.560 -1.0922  0.0307  0.5774
  231TIP3   OH2  656   5.657   2.032   1.283  0.8255 -0.8649  0.3382
  231TIP3    H1  657   5.666   1.956   1.225  0.1908 -0.5416 -0.2052
  231TIP3    H2  658   5.645   2.106   1.223 -4.1021 -0.9962  0.7333
  232TIP3   OH2  659   5.199   3.165   1.558  0.6278  0.3603 -0.0208
  232TIP3    H1  660   5.227   3.199   1.643  0.9347  0.9555 -0.3521
  232TIP3    H2  661   5.265   3.198   1.496  0.4404 -0.1152 -0.4790
  233TIP3   OH2  662   7.091   3.507   0.909 -0.0627  0.0961  0.2343
  233TIP3    H1  663   6.996   3.498   0.914  0.0013 -0.2511  0.9763
  233TIP3    H2  664   7.105   3.583   0.853 -0.8179  1.0360  1.2872
  234TIP3   OH2  665   4.527   2.721   3.368  0.4702 -0.0357  0.3400
  234TIP3    H1  666   4.596   2.657   3.385  0.7809  0.3963  0.7255
  234TIP3    H2  667   4.490   2.740   3.455 -0.0599 -0.1814  0.1489
  235TIP3   OH2  668   6.698   1.647   0.915 -0.2377 -0.0540 -0.0299
  235TIP3    H1  669   6.713   1.562   0.874  0.1082 -0.1338  0.2612
  235TIP3    H2  670   6.654   1.699   0.848 -1.6465 -0.8801  0.2037
  236TIP3   OH2  671   3.269   5.072   3.737  0.0267  0.5380 -0.2003
  236TIP3    H1  672   3.178   5.097   3.725 -0.2969 -0.7378 -0.4808
  236TIP3    H2  673   3.282   4.998   3.678  0.0237 -2.1455  2.8973
  237TIP3   OH2  674   3.965   4.605   3.880 -0.3202 -0.1391  0.2926
  237TIP3    H1  675   3.985   4.695   3.853 -0.0191  0.0362  1.0798
  237TIP3    H2  676   3.871   4.606   3.899 -0.9244 -0.6735 -2.2775
  238TIP3   OH2  677   6.197   4.678   1.302 -0.4532  0.3777  0.2321
  238TIP3    H1  678   6.208   4.759   1.253 -4.1952  1.2148  0.5264
  238TIP3    H2  679   6.119   4.692   1.356 -0.6991 -3.0827  1.0417
  239TIP3   OH2  680   4.621   6.162   4.991 -0.5743 -0.1691  1.0637
  239TIP3    H1  681   4.590   6.097   4.929 -1.0474  0.9858  0.0543
  239TIP3    H2  682   4.677   6.220   4.939  0.1874  0.0040  2.0332
  240TIP3   OH2  683   0.652   0.009   4.697 -0.2904  0.2944  0.3191
  240TIP3    H1  684   0.634   0.081   4.757 -0.1696  1.2000 -0.6971
  240TIP3    H2  685   0.729   0.038   4.647 -1.0082  0.0414 -0.9863
  241TIP3   OH2  686   3.390   1.023   5.905  0.4634 -0.2666  0.0376
  241TIP3    H1  687   3.479   1.018   5.871  0.4147 -0.0168 -0.1319
  241TIP3    H2  688   3.335   1.038   5.827  0.1611 -1.4324  0.0087
  242TIP3   OH2  689   1.292   5.087   3.938 -0.2925  0.0949  0.0219
  242TIP3    H1  690   1.197   5.076   3.946 -0.6040  1.5520 -1.0269
  242TIP3    H2  691   1.304   5.122   3.849  1.0712  1.2328  0.6073
  243TIP3   OH2  692   5.584   6.176   3.586 -0.3287  0.5546 -0.1297
  243TIP3    H1  693   5.574   6.203   3.678 -1.4126 -0.9469  0.2223
  243TIP3    H2  694   5.662   6.121   3.586 -0.1125  0.8588 -0.1876
  244TIP3   OH2  695   2.366   3.579   2.756 -0.5080  0.2335 -0.0631
  244TIP3    H1  696   2.368   3.605   2.664  1.7016  0.7925  0.0733
  244TIP3    H2  697   2.354   3.484   2.755 -0.6645  0.2618 -0.9145
  245TIP3   OH2  698   0.791   4.134   5.404  0.0807 -0.1220  0.5765
  245TIP3    H1  699   0.857   4.065   5.396  0.0585  0.0277 -1.5719
  245TIP3    H2  700   0.726   4.099   5.465 -0.4613 -2.5140 -1.2016
  246TIP3   OH2  701   1.048   0.113   2.145  0.1687 -0.1045  0.1389
  246TIP3    H1  702   1.001   0.054   2.204 -1.2438  0.5652 -0.2732
  246TIP3    H2  703   0.986   0.182   2.126  1.1806  0.5764 -0.8204
  247TIP3   OH2  704   1.618   4.702   0.979 -0.5337 -0.9235 -0.0205
  247TIP3    H1  705   1.654   4.655   1.054  0.8744 -1.1987 -0.8149
  247TIP3    H2  706   1.621   4.638   0.907 -0.5381 -0.2620 -0.6279
  248TIP3   OH2  707   6.434   5.370   1.698  0.9579 -0.0616  0.3064
  248TIP3    H1  708   6.345   5.391   1.727  1.5898  1.0773  1.5389
  248TIP3    H2  709   6.425   5.345   1.606 -0.6524 -0.1569  0.4685
  249TIP3   OH2  710   0.148   6.640   3.822  0.0216 -0.4121  0.2207
  249TIP3    H1  711   0.129   6.551   3.791  0.3172 -0.4747  0.2219
  249TIP3    H2  712   0.224   6.667   3.770  0.3765 -0.4311  0.7318
  250TIP3   OH2  713   3.697   5.031   3.686 -0.4996  0.7268  0.2335
  250TIP3    H1  714   3.752   5.066   3.616  0.3551 -0.2694  0.3753
  250TIP3    H2  715   3.695   5.101   3.752  1.8401  0.2690  0.8763
  251TIP3   OH2  716   2.090   4.790   3.823  0.0407 -0.1821 -0.1470
  251TIP3    H1  717   2.063   4.753   3.907 -0.4803 -0.7490 -0.5612
  251TIP3    H2  718   2.182   4.763   3.814  0.6116  1.2196  0.9635
  252TIP3   OH2  719   0.090   4.266   1.999 -0.4527  0.0460 -0.3205
  252TIP3    H1  720   0.035   4.333   1.960 -0.9449 -0.6718 -0.8854
  252TIP3    H2  721   0.063   4.264   2.091 -0.7258  0.3268 -0.3924
  253TIP3   OH2  722   5.759   0.089   4.772 -0.2995 -0.4903  0.4192
  253TIP3    H1  723   5.819   0.105   4.699 -1.5637  0.8445 -0.3903
  253TIP3    H2  724   5.704   0.017   4.742 -1.1693  0.4086 -0.2173
  254TIP3   OH2  725   1.019   0.827   0.168 -0.2524  0.0056 -0.2684
  254TIP3    H1  726   1.110   0.816   0.198 -0.4051  1.2354  0.7304
  254TIP3    H2  727   0.966   0.800   0.243 -0.6644  1.5769  0.0392
  255TIP3   OH2  728   6.856   5.615   0.859  0.1094 -0.0827 -0.2579
  255TIP3    H1  729   6.934   5.563   0.876 -0.8858 -0.7310  3.0186
  255TIP3    H2  730   6.857   5.684   0.925 -2.0274 -0.0710 -0.1436
  256TIP3   OH2  731   0.213   4.763   5.735  0.0739  0.0872 -0.0985
  256TIP3    H1  732   0.279   4.780   5.668  0.3707  1.5995  0.5413
  256TIP3    H2  733   0.199   4.847   5.778 -1.1499 -0.5374  0.8091
  257TIP3   OH2  734   0.394   3.819   3.679  0.0584 -0.1501  0.0566
  257TIP3    H1  735   0.395   3.747   3.616 -1.7058  0.2633 -0.5074
  257TIP3    H2  736   0.310   3.863   3.664  0.2830  0.9118  1.6448
  258TIP3   OH2  737   3.087   1.969   0.149  0.0607 -0.8499 -0.0568
  258TIP3    H1  738   3.138   1.889   0.140  1.3487 -0.0131 -0.5471
  258TIP3    H2  739   3.007   1.942   0.194  0.6945 -2.3011  0.2500
  259TIP3   OH2  740   1.809   3.156   3.826  0.1381 -0.3310  0.6191
  259TIP3    H1  741   1.842   3.202   3.749 -1.3670  1.3595  0.9146
  259TIP3    H2  742   1.839   3.208   3.901  0.0746 -0.9425  1.0788
  260TIP3   OH2  743   6.775   5.875   0.283  0.1070 -0.1348  0.3640
  260TIP3    H1  744   6.853   5.820   0.291  1.4107  1.7523  1.4671
  260TIP3    H2  745   6.730   5.865   0.366  0.0469  0.0236  0.3510
  261TIP3   OH2  746   6.312   3.144   5.135 -0.3946  0.1940  0.1797
  261TIP3    H1  747   6.355   3.166   5.218  0.9172 -1.3760 -0.0296
  261TIP3    H2  748   6.308   3.048   5.135  0.0932  0.1320 -1.7840
  262TIP3   OH2  749   1.009   1.510   1.088 -0.4408 -0.0981 -0.0098
  262TIP3    H1  750   0.994   1.559   1.007 -0.4374  0.1900  0.1618
  262TIP3    H2  751   0.954   1.554   1.153  0.6797  0.6093  0.4934
  263TIP3   OH2  752   7.160   1.434   2.218 -0.2897  0.0726  0.0738
  263TIP3    H1  753   7.250   1.435   2.185 -0.6789 -1.2179 -1.1423
  263TIP3    H2  754   7.132   1.526   2.213  1.0326  0.5441  0.7451
  264TIP3   OH2  755   0.607   1.114   1.529 -0.4361  0.0655  0.4494
  264TIP3    H1  756   0.546   1.070   1.469 -1.4916 -0.6093  1.9445
  264TIP3    H2  757   0.657   1.043   1.569 -1.3344  0.2768  2.0229
  265TIP3   OH2  758   1.247   0.736   3.137 -0.0845  0.1689 -0.5036
  265TIP3    H1  759   1.172   0.743   3.196 -2.4932  0.0156 -3.2924
  265TIP3    H2  760   1.259   0.824   3.103  1.1753  0.2289  0.0548
  266TIP3   OH2  761   2.422   3.269   4.764 -0.1896 -0.5181 -0.0259
  266TIP3    H1  762   2.482   3.222   4.707  0.1565 -0.8390  0.5937
  266TIP3    H2  763   2.342   3.278   4.712  0.7759  1.0510 -1.3497
  267TIP3   OH2  764   6.699   1.482   1.398  0.3318  0.0658 -0.0616
  267TIP3    H1  765   6.710   1.456   1.306 -0.6231 -0.6571  0.0101
  267TIP3    H2  766   6.642   1.560   1.393 -0.3158 -0.3964 -0.0594
  268TIP3   OH2  767   6.988   0.519   2.522 -0.0279 -1.0725 -0.0284
  268TIP3    H1  768   6.901   0.557   2.514  0.8334  0.9403 -0.6083
  268TIP3    H2  769   7.014   0.537   2.612 -0.8057 -3.1649  0.6683
  269TIP3   OH2  770   2.277   5.168   1.887 -0.0885  0.1627 -0.2829
  269TIP3    H1  771   2.265   5.263   1.876 -0.9801 -0.0419 -1.1605
  269TIP3    H2  772   2.193   5.137   1.921  0.2580 -0.3013  0.1690
  270TIP3   OH2  773   6.706   4.075   4.581  0.2503  0.3830  0.0733
  270TIP3    H1  774   6.677   4.062   4.671  0.5438  0.5353  0.1908
  270TIP3    H2  775   6.630   4.112   4.536  0.9033  2.8651  0.8995
  271TIP3   OH2  776   6.463   4.956   4.766 -0.6903 -0.3814 -0.5006
  271TIP3    H1  777   6.535   4.894   4.749  0.6116  0.7281  0.6534
  271TIP3    H2  778   6.489   5.035   4.719 -0.2274  0.5997  1.3126
  272TIP3   OH2  779   0.986   1.762   3.868  0.4146 -0.0679 -0.4701
  272TIP3    H1  780   0.971   1.793   3.957  0.4076 -0.7083 -0.2450
  272TIP3    H2  781   1.073   1.722   3.870  0.7582  0.6368 -0.9530
  273TIP3   OH2  782   1.599   5.797   1.367  0.7506  0.3879 -0.3921
  273TIP3    H1  783   1.649   5.740   1.426 -0.6571 -2.1806 -1.5491
  273TIP3    H2  784   1.508   5.783   1.392  0.2330  0.3752 -2.1877
  274TIP3   OH2  785   0.339   3.521   2.989  0.3024  0.1143  0.6040
  274TIP3    H1  786   0.320   3.537   3.082  3.1574 -1.6810  1.6007
  274TIP3    H2  787   0.367   3.430   2.985 -0.2083 -0.0063 -2.1561
  275TIP3   OH2  788   0.116   2.140   5.378  0.2238 -0.0212 -0.8153
  275TIP3    H1  789   0.182   2.186   5.324  0.2365  1.5595  0.4651
  275TIP3    H2  790   0.164   2.066   5.415  1.0621  0.5914 -0.6215
  276TIP3   OH2  791   3.984   6.109   3.420  0.2151  0.1070  0.1307
  276TIP3    H1  792   4.055   6.172   3.405  0.1244  0.2319  0.2259
  276TIP3    H2  793   3.906   6.163   3.430 -0.1087 -0.0832 -1.1857
  277TIP3   OH2  794   6.681   6.704   3.343 -0.2423  0.0338  0.6927
  277TIP3    H1  795   6.698   6.797   3.326 -2.2369  0.8527  2.6586
  277TIP3    H2  796   6.719   6.659   3.268  0.1229  2.4883 -0.7199
  278TIP3   OH2  797   3.425   6.793   2.710 -0.4768  0.9436 -0.2596
  278TIP3    H1  798   3.373   6.734   2.655  1.2317 -0.8873 -0.0329
  278TIP3    H2  799   3.373   6.803   2.789 -0.7544 -0.4466 -0.2301
  279TIP3   OH2  800   7.099   0.754   5.423 -0.0549 -0.0150 -0.0113
  279TIP3    H1  801   7.122   0.813   5.351 -4.0227 -1.2850 -2.6753
  279TIP3    H2  802   7.098   0.667   5.382 -3.1699 -0.6977  1.2570
  280TIP3   OH2  803   3.346   1.790   4.946 -0.0216  0.3054 -0.0667
  280TIP3    H1  804   3.360   1.759   4.857 -0.3439  0.8684 -0.3257
  280TIP3    H2  805   3.302   1.875   4.935  0.2168  0.5284  0.6216
  281TIP3   OH2  806   3.144   4.490   3.070 -0.3623  0.1297  0.5137
  281TIP3    H1  807   3.176   4.579   3.054 -1.8805  0.9489  1.6806
  281TIP3    H2  808   3.201   4.456   3.138 -0.1827  0.4947  0.5511
  282TIP3   OH2  809   4.939   6.011   2.923 -0.0320 -0.0807 -0.0076
  282TIP3    H1  810   4.944   6.107   2.930  0.9372 -0.0216 -1.1890
  282TIP3    H2  811   4.914   5.995   2.832 -2.6156 -0.9351  0.7893
  283TIP3   OH2  812   1.432   2.943   0.339  0.3697 -0.1219 -0.7144
  283TIP3    H1  813   1.389   2.859   0.329  0.3984 -0.1088 -0.9461
  283TIP3    H2  814   1.362   3.008   0.328  0.4466 -0.1011 -1.0859
  284TIP3   OH2  815   3.084   5.723   2.105 -0.0665 -0.1146  0.2762
  284TIP3    H1  816   3.032   5.772   2.168  0.1035  0.8182 -0.2978
  284TIP3    H2  817   3.101   5.639   2.149  1.8805  1.2693  2.4231
  285TIP3   OH2  818   5.953   6.143   1.713 -0.1515  0.0551 -0.3837
  285TIP3    H1  819   5.872   6.193   1.709  0.7748  1.5688 -1.2704
  285TIP3    H2  820   6.018   6.205   1.748  0.6267 -1.1216  0.3343
  286TIP3   OH2  821   3.745   2.559   0.648  0.0427 -0.2529 -0.3095
  286TIP3    H1  822   3.780   2.471   0.639 -2.6285 -1.2581 -1.9922
  286TIP3    H2  823   3.693   2.573   0.569 -1.3667  2.0011  0.8936
  287TIP3   OH2  824   1.836   5.299   0.220 -0.1764  0.1062 -0.1778
  287TIP3    H1  825   1.755   5.325   0.176  0.0538  0.6878 -0.2730
  287TIP3    H2  826   1.861   5.217   0.178  0.1012  0.7089 -1.2424
  288TIP3   OH2  827   6.279   1.485   5.077 -0.2903  0.0718  0.5688
  288TIP3    H1  828   6.371   1.467   5.059 -0.8878 -0.8238 -1.9501
  288TIP3    H2  829   6.281   1.558   5.140  2.1085  0.4985  0.0877
  289TIP3   OH2  830   5.696   4.952   3.293 -0.4784  0.3439 -0.1780
  289TIP3    H1  831   5.663   4.880   3.238  0.2752  1.4240 -2.1261
  289TIP3    H2  832   5.787   4.964   3.266 -0.2384  1.2695  0.9590
  290TIP3   OH2  833   2.465   4.389   5.765  0.6952  0.3565 -0.1831
  290TIP3    H1  834   2.473   4.429   5.851  1.8551 -0.7569  0.2511
  290TIP3    H2  835   2.391   4.329   5.772  1.3097 -0.3505  0.2961
  291TIP3   OH2  836   2.013   0.381   0.698 -0.2217  0.1553 -0.5906
  291TIP3    H1  837   1.924   0.389   0.733 -0.3777  3.5083 -1.3936
  291TIP3    H2  838   2.069   0.400   0.773 -0.2289 -0.3045 -0.4647
  292TIP3   OH2  839   6.727   0.328   1.657  0.5948  0.0396 -0.5090
  292TIP3    H1  840   6.786   0.290   1.592  1.0369  1.4582 -0.9787
  292TIP3    H2  841   6.654   0.266   1.662 -0.4141  0.7287 -3.7919
  293TIP3   OH2  842   6.453   5.768   1.892 -0.6836  0.1045 -0.3686
  293TIP3    H1  843   6.514   5.699   1.868 -0.1367  0.3322  0.3238
  293TIP3    H2  844   6.442   5.820   1.813  1.1799  0.9247 -0.1302
  294TIP3   OH2  845   6.221   5.170   4.107  0.2003  0.2789  0.2760
  294TIP3    H1  846   6.130   5.145   4.120  0.0897  0.4819 -0.0930
  294TIP3    H2  847   6.222   5.215   4.022  0.8254 -0.6226 -0.2027
  295TIP3   OH2  848   0.453   5.221   1.377 -0.1830 -0.5045 -0.4118
  295TIP3    H1  849   0.539   5.183   1.395  0.0981 -0.3826 -1.3936
  295TIP3    H2  850   0.397   5.191   1.448  0.8154 -0.0905  0.5684
  296TIP3   OH2  851   6.943   3.214   3.066 -0.1869 -0.4249 -0.1570
  296TIP3    H1  852   6.907   3.159   2.996 -0.0237 -0.7961  0.0473
  296TIP3    H2  853   6.867   3.236   3.121 -0.5059  0.7517 -1.0277
  297TIP3   OH2  854   2.705   1.509   4.031 -0.4280 -0.3641 -0.4361
  297TIP3    H1  855   2.632   1.569   4.042 -0.2010 -0.0928 -0.3905
  297TIP3    H2  856   2.783   1.564   4.043 -0.2231 -0.7660  0.1343
  298TIP3   OH2  857   6.554   5.370   2.404  0.1604 -0.0475  0.4544
  298TIP3    H1  858   6.491   5.425   2.357  1.5873  1.3253  0.0570
  298TIP3    H2  859   6.574   5.299   2.343 -0.8023 -0.3655  0.4922
  299TIP3   OH2  860   7.079   6.498   4.746 -0.4636  0.5427 -0.1584
  299TIP3    H1  861   7.014   6.466   4.809  0.6986  0.3723  1.0023
  299TIP3    H2  862   7.127   6.567   4.794  0.6197  0.2243 -0.7476
  300TIP3   OH2  863   0.253   2.096   4.513 -0.4001  0.3196  0.2641
  300TIP3    H1  864   0.301   2.102   4.596  1.5532 -0.9062 -0.7104
  300TIP3    H2  865   0.262   2.183   4.474  0.2929  0.3603  0.4983
  301TIP3   OH2  866   6.606   3.072   5.595 -0.1309 -0.1791 -0.0919
  301TIP3    H1  867   6.662   3.120   5.534  0.3417 -3.4767 -2.5507
  301TIP3    H2  868   6.544   3.025   5.540  0.2532 -3.2991  1.8702
  302TIP3   OH2  869   3.947   3.329   0.224 -0.4504  0.2540  0.2639
  302TIP3    H1  870   4.015   3.385   0.185 -1.2951  2.5354  1.8383
  302TIP3    H2  871   3.970   3.326   0.317 -1.7725 -0.0415  0.5965
  303TIP3   OH2  872   0.766   4.502   1.561  0.0790  0.0222  0.1384
  303TIP3    H1  873   0.796   4.574   1.616 -0.0156  0.4585 -0.3689
  303TIP3    H2  874   0.753   4.542   1.475  1.1478 -0.8404 -0.4532
  304TIP3   OH2  875   3.688   4.982   2.947  0.4558 -0.1948 -0.0359
  304TIP3    H1  876   3.615   4.945   2.995 -0.5182 -0.0845 -1.3700
  304TIP3    H2  877   3.649   5.051   2.893  2.0278  2.0426  1.5006
  305TIP3   OH2  878   4.839   2.216   2.134 -0.2863  0.2579  0.2304
  305TIP3    H1  879   4.879   2.194   2.050 -0.4951 -0.5045  0.3238
  305TIP3    H2  880   4.878   2.300   2.158 -0.3318  0.5553 -0.6947
  306TIP3   OH2  881   0.527   5.062   0.500 -0.1207 -0.3547 -0.0144
  306TIP3    H1  882   0.599   5.113   0.464 -0.5708 -1.3004 -2.5146
  306TIP3    H2  883   0.532   4.979   0.452 -1.4980 -1.3082  1.4180
  307TIP3   OH2  884   6.134   6.376   3.310 -0.0397  0.2949 -0.6795
  307TIP3    H1  885   6.178   6.432   3.246  1.4506  1.2293  1.0740
  307TIP3    H2  886   6.045   6.410   3.314 -0.1491  0.2322 -2.2168
  308TIP3   OH2  887   0.317   1.843   5.263 -0.0928  0.8094 -0.7460
  308TIP3    H1  888   0.343   1.836   5.355  0.6352  0.0744 -0.9958
  308TIP3    H2  889   0.230   1.883   5.266 -1.2466 -1.5616  0.4314
  309TIP3   OH2  890   0.628   1.946   0.562 -0.4292  0.4162 -0.3028
  309TIP3    H1  891   0.547   1.982   0.526 -2.2131 -2.2680  0.7567
  309TIP3    H2  892   0.668   1.901   0.488 -1.6417 -1.0230 -0.1315
  310TIP3   OH2  893   1.129   1.588   5.283  0.8303  0.4003  0.5511
  310TIP3    H1  894   1.197   1.533   5.320  0.6775  0.4459  0.9045
  310TIP3    H2  895   1.176   1.664   5.248  1.0988 -0.2032 -0.4379
  311TIP3   OH2  896   6.732   3.044   5.848 -0.1834 -0.0800 -0.6038
  311TIP3    H1  897   6.674   3.043   5.772 -1.7869 -0.7786  0.5938
  311TIP3    H2  898   6.685   2.996   5.916  2.8674 -3.0158 -0.3080
  312TIP3   OH2  899   3.495   3.495   2.405 -0.1773  0.4887  0.1128
  312TIP3    H1  900   3.528   3.450   2.482  0.9414 -2.0690 -1.7345
  312TIP3    H2  901   3.487   3.427   2.339  0.5612  2.8157 -2.5597
  313TIP3   OH2  902   2.106   5.575   4.783  0.8264  0.1721  0.6962
  313TIP3    H1  903   2.064   5.636   4.843 -1.6515 -0.9916  0.2662
  313TIP3    H2  904   2.169   5.628   4.734 -0.8508  2.2636  0.6864
  314TIP3   OH2  905   3.602   5.682   2.711 -0.1146  0.1518 -0.2576
  314TIP3    H1  906   3.506   5.684   2.709 -0.2917  3.5564  2.3630
  314TIP3    H2  907   3.628   5.770   2.685  2.0886  0.2990  2.0707
  315TIP3   OH2  908   5.283   2.368   4.832 -0.2936 -0.9922  0.0511
  315TIP3    H1  909   5.361   2.315   4.811 -0.0000 -1.4693  2.1277
  315TIP3    H2  910   5.226   2.308   4.881  0.4244  0.7334  3.2398
  316TIP3   OH2  911   4.500   6.445   4.805 -0.0530 -0.0206 -0.4667
  316TIP3    H1  912   4.595   6.436   4.808 -0.1738 -1.7759 -0.8011
  316TIP3    H2  913   4.481   6.523   4.857  1.5580  0.3268 -0.3576
  317TIP3   OH2  914   1.405   5.215   1.301  0.6025 -0.3539 -0.1104
  317TIP3    H1  915   1.410   5.148   1.369  0.1900 -1.4049 -1.0906
  317TIP3    H2  916   1.448   5.176   1.225  0.7630  0.6739 -0.5685
  318TIP3   OH2  917   2.789   0.413   2.560  0.4149  0.3197 -0.2760
  318TIP3    H1  918   2.766   0.445   2.473  2.4279  1.6764 -0.3894
  318TIP3    H2  919   2.875   0.453   2.578  1.0771 -1.6823  1.4151
  319TIP3   OH2  920   5.403   0.794   4.992 -0.0240  0.2200  0.0529
  319TIP3    H1  921   5.464   0.796   5.065 -0.2502 -0.5500  0.2756
  319TIP3    H2  922   5.453   0.756   4.920 -0.3007 -0.6417  0.3049
  320TIP3   OH2  923   5.178   2.537   4.616 -0.4222 -0.3527 -0.0444
  320TIP3    H1  924   5.200   2.450   4.650 -0.8977 -0.2012  0.6668
  320TIP3    H2  925   5.133   2.519   4.533  1.9431 -0.6790 -1.3376
  321TIP3   OH2  926   7.021   0.336   5.104 -0.1700 -0.4327  0.2840
  321TIP3    H1  927   7.068   0.295   5.031  0.9100  0.4052  0.4893
  321TIP3    H2  928   7.077   0.322   5.180  0.1194  1.1892  0.4013
  322TIP3   OH2  929   0.354   0.921   2.342  0.1604  0.6058 -0.4515
  322TIP3    H1  930   0.288   0.893   2.278  0.9222  0.2094 -1.0859
  322TIP3    H2  931   0.438   0.905   2.298  0.7015  0.4026  0.6276
  323TIP3   OH2  932   5.592   4.585   0.285  0.1825 -0.5916  0.0719
  323TIP3    H1  933   5.501   4.579   0.314 -0.1213 -2.0554 -1.0287
  323TIP3    H2  934   5.614   4.678   0.292 -1.6421 -0.0910 -0.3319
  324TIP3   OH2  935   1.570   3.279   1.562 -0.2184  0.4367 -0.1177
  324TIP3    H1  936   1.476   3.294   1.559 -0.1484  1.0202  0.3937
  324TIP3    H2  937   1.604   3.352   1.612  0.4819  0.0902 -0.0773
  325TIP3   OH2  938   5.665   3.482   0.163 -0.3052 -0.7605  0.6262
  325TIP3    H1  939   5.692   3.534   0.087 -2.1206  0.3311  0.6538
  325TIP3    H2  940   5.699   3.531   0.238  0.2528 -1.0534  0.5650
  326TIP3   OH2  941   5.929   1.935   2.312  0.0408  0.2405  0.5661
  326TIP3    H1  942   5.920   1.895   2.399 -1.1617 -2.0938 -0.5428
  326TIP3    H2  943   5.890   1.871   2.252 -0.4669  2.4033 -1.5667
  327TIP3   OH2  944   5.426   0.319   2.723 -0.8319  0.0838  0.1529
  327TIP3    H1  945   5.507   0.367   2.735 -0.6457  0.0375 -0.8662
  327TIP3    H2  946   5.445   0.256   2.653 -1.7088  0.0080 -0.0300
  328TIP3   OH2  947   3.494   3.275   4.460 -0.2091  0.2729  0.9885
  328TIP3    H1  948   3.480   3.295   4.553 -0.1536  0.2077  1.0112
  328TIP3    H2  949   3.406   3.271   4.423 -0.2669 -0.3336  1.1718
  329TIP3   OH2  950   6.117   3.078   4.169  0.2211 -0.3306 -0.3081
  329TIP3    H1  951   6.083   3.016   4.105 -1.4850  0.4954 -0.2698
  329TIP3    H2  952   6.183   3.029   4.219 -1.0635 -2.1071 -0.2750
  330TIP3   OH2  953   0.510   4.324   0.015 -0.1946  0.2266 -0.2394
  330TIP3    H1  954   0.463   4.256   0.063  1.0860 -0.7561 -0.3090
  330TIP3    H2  955   0.545   4.382   0.082  0.0535 -0.1087 -0.0745
  331TIP3   OH2  956   6.352   6.319   0.262 -0.0331  0.0717 -0.4277
  331TIP3    H1  957   6.291   6.344   0.192  0.2297  2.0306 -0.0145
  331TIP3    H2  958   6.367   6.225   0.248 -3.0725 -0.4954 -0.5739
  332TIP3   OH2  959   0.411   3.413   1.299  0.0872  0.2130  0.0766
  332TIP3    H1  960   0.430   3.403   1.206  0.3939  0.3304  0.1255
  332TIP3    H2  961   0.458   3.492   1.324  0.2001  0.0470  0.3856
  333TIP3   OH2  962   2.220   6.479   0.896 -0.3687  0.3252  0.5453
  333TIP3    H1  963   2.218   6.486   0.991  0.2670  0.2351  0.5694
  333TIP3    H2  964   2.206   6.569   0.865 -0.3203  0.3967  0.7318
  334TIP3   OH2  965   1.903   1.356   4.108  0.6369 -0.6025 -0.2505
  334TIP3    H1  966   1.954   1.400   4.177  1.3836 -1.6453 -0.1093
  334TIP3    H2  967   1.948   1.380   4.027  0.2366 -0.0172 -0.2978
  335TIP3   OH2  968   0.557   5.402   3.092 -0.5053  0.0372  0.2440
  335TIP3    H1  969   0.463   5.386   3.102 -0.8126  1.2650 -0.4994
  335TIP3    H2  970   0.569   5.492   3.123 -0.3680  1.5649 -3.7178
  336TIP3   OH2  971   0.179   6.122   3.917  0.4550  0.6305  0.0291
  336TIP3    H1  972   0.138   6.207   3.933  1.9472  1.8528 -2.1133
  336TIP3    H2  973   0.212   6.094   4.003 -0.7635  1.7974  0.9149
  337TIP3   OH2  974   2.751   6.221   4.254  0.8314  0.3737 -0.3732
  337TIP3    H1  975   2.668   6.178   4.234  0.3725  1.7893 -1.7213
  337TIP3    H2  976   2.757   6.218   4.350 -0.1619 -0.8114 -0.3191
  338TIP3   OH2  977   0.755   3.611   4.912  0.3319  0.2141  0.1780
  338TIP3    H1  978   0.782   3.590   5.001  0.4366 -0.4576 -0.0074
  338TIP3    H2  979   0.715   3.531   4.879  1.7434 -0.0649 -0.9305
  339TIP3   OH2  980   2.185   2.913   5.010  0.0637  0.5197 -0.1432
  339TIP3    H1  981   2.247   2.870   4.952  2.4535  2.2225  0.9807
  339TIP3    H2  982   2.130   2.965   4.953  1.9825  1.7123 -1.0023
  340TIP3   OH2  983   6.326   3.423   3.448 -0.3106  0.5728 -0.6731
  340TIP3    H1  984   6.372   3.343   3.424 -1.8633 -0.7843  0.5826
  340TIP3    H2  985   6.281   3.450   3.368 -0.1997 -0.1238 -0.9753
  341TIP3   OH2  986   1.902   1.872   0.646  0.5218 -0.7850  0.2063
  341TIP3    H1  987   1.927   1.869   0.738  0.9077 -1.7879  0.0840
  341TIP3    H2  988   1.930   1.959   0.617  0.7875 -0.6203  0.9290
  342TIP3   OH2  989   1.455   4.567   2.040 -0.7007  0.6420  0.2916
  342TIP3    H1  990   1.432   4.474   2.050 -1.3850  0.7476 -0.2697
  342TIP3    H2  991   1.425   4.590   1.953 -1.5824  1.6897  0.8468
  343TIP3   OH2  992   6.136   1.717   3.936 -0.1312  0.1466  0.3643
  343TIP3    H1  993   6.147   1.794   3.991 -0.6880  0.0682  0.6021
  343TIP3    H2  994   6.222   1.701   3.897 -0.8310  3.5418 -3.2851
  344TIP3   OH2  995   3.954   0.604   3.134 -0.0061 -0.0499  0.6654
  344TIP3    H1  996   3.860   0.619   3.124 -0.1214 -1.5530 -0.7993
  344TIP3    H2  997   3.977   0.649   3.216 -2.3477 -1.1406  2.0241
  345TIP3   OH2  998   0.685   2.763   1.876  0.6189 -0.0753  0.3467
  345TIP3    H1  999   0.772   2.753   1.915  1.8961 -0.2650 -2.3198
  345TIP3    H2 1000   0.669   2.857   1.875  2.8270  0.4562 -2.8948
  346TIP3   OH2 1001   4.532   5.043   4.445 -0.0448  0.4618  0.4352
  346TIP3    H1 1002   4.466   5.094   4.493 -0.9358  0.9228 -1.2077
  346TIP3    H2 1003   4.614   5.089   4.462 -0.3977  0.8566  1.1619
  347TIP3   OH2 1004   1.537   4.894   1.287  0.0222  0.2587  0.2883
  347TIP3    H1 1005   1.477   4.825   1.257 -0.1709  0.3996  0.3466
  347TIP3    H2 1006   1.516   4.905   1.380 -1.1088  1.5401 -0.0820
  348TIP3   OH2 1007   5.010   6.452   4.753  0.3260  0.4598 -0.0235
  348TIP3    H1 1008   5.012   6.526   4.812 -1.6735 -0.0370  0.7251
  348TIP3    H2 1009   5.061   6.480   4.677 -0.1392  2.4728  0.3716
  349TIP3   OH2 1010   4.646   2.972   1.372 -0.2620 -0.1089  0.4890
  349TIP3    H1 1011   4.694   2.915   1.432  1.6293  0.6398 -0.2262
  349TIP3    H2 1012   4.641   2.923   1.290 -1.4018 -0.4745  0.7625
  350TIP3   OH2 1013   4.689   4.742   4.993  0.2698  0.7188 -0.0453
  350TIP3    H1 1014   4.637   4.668   4.962  2.4196 -0.9000 -0.0675
  350TIP3    H2 1015   4.628   4.794   5.045 -1.4597 -0.7781 -0.4492
  351TIP3   OH2 1016   4.385   6.054   5.054 -0.4888 -0.2109  0.0843
  351TIP3    H1 1017   4.361   6.033   5.145  0.7319 -1.5809  0.1207
  351TIP3    H2 1018   4.457   6.116   5.062 -2.1086  1.8194 -0.0208
  352TIP3   OH2 1019   0.496   4.821   2.838 -0.2988 -0.9151  0.3867
  352TIP3    H1 1020   0.581   4.845   2.874 -0.5603  0.4492  0.1740
  352TIP3    H2 1021   0.432   4.866   2.894 -0.7270  0.9185 -1.4475
  353TIP3   OH2 1022   6.021   0.694   3.703  0.0889 -0.0217 -0.5245
  353TIP3    H1 1023   5.965   0.678   3.779  1.1026  0.9482  0.4558
  353TIP3    H2 1024   6.075   0.768   3.728 -1.1363  1.8699 -3.1013
  354TIP3   OH2 1025   4.955   0.798   5.187  0.0491  0.0024 -0.1454
  354TIP3    H1 1026   4.970   0.704   5.190 -2.7163 -0.5180 -0.2729
  354TIP3    H2 1027   4.987   0.830   5.271  0.4243 -1.1368  0.1583
  355TIP3   OH2 1028   1.587   5.275   0.089  0.7521 -0.7130 -0.0888
  355TIP3    H1 1029   1.608   5.297  -0.002  2.2237 -2.2178 -0.1750
  355TIP3    H2 1030   1.572   5.180   0.087  1.2520 -0.8365  1.2899
  356TIP3   OH2 1031   6.612   6.235   5.495 -0.3091 -0.0315  0.0640
  356TIP3    H1 1032   6.681   6.174   5.470 -0.0238  0.9503 -1.7381
  356TIP3    H2 1033   6.531   6.188   5.476 -0.1974 -1.2245  2.2820
  357TIP3   OH2 1034   6.637   4.837   0.508 -0.3095  0.5116  0.5123
  357TIP3    H1 1035   6.624   4.895   0.583 -1.5138 -0.2630  0.9426
  357TIP3    H2 1036   6.721   4.794   0.525  0.5916  2.0682  0.1907
  358TIP3   OH2 1037   2.411   5.901   2.924  0.4354  0.2258  0.2914
  358TIP3    H1 1038   2.342   5.909   2.858  0.2233  0.6848  0.5661
  358TIP3    H2 1039   2.377   5.946   3.001  0.5151 -0.6415  0.8579
  359TIP3   OH2 1040   1.878   2.930   3.510  0.3330  0.2375 -0.3625
  359TIP3    H1 1041   1.972   2.950   3.516  0.4053 -0.2433  0.1687
  359TIP3    H2 1042   1.869   2.845   3.554  0.0084 -0.8476 -2.4091
  360TIP3   OH2 1043   6.577   5.615   1.068 -0.7118 -0.0823 -0.3757
  360TIP3    H1 1044   6.573   5.574   1.155 -0.7558 -0.7439 -0.6858
  360TIP3    H2 1045   6.539   5.702   1.081  0.1354  0.1912  0.4755
  361TIP3   OH2 1046   6.410   6.099   5.349  0.5548  0.3904 -0.2779
  361TIP3    H1 1047   6.478   6.038   5.319 -0.7061 -0.9834 -0.4858
  361TIP3    H2 1048   6.329   6.049   5.342 -0.5241  2.0679 -0.2831
  362TIP3   OH2 1049   3.270   4.108   3.857  0.2481 -0.0007  0.6318
  362TIP3    H1 1050   3.266   4.012   3.857 -2.8103 -0.0159 -1.6604
  362TIP3    H2 1051   3.241   4.133   3.945 -0.4323 -1.1761  0.7642
  363TIP3   OH2 1052   1.255   3.633   5.230  0.1110  0.3390  0.1794
  363TIP3    H1 1053   1.228   3.718   5.197 -1.3002 -0.8787 -2.0363
  363TIP3    H2 1054   1.348   3.644   5.252  0.1996  2.1814 -0.9110
  364TIP3   OH2 1055   0.722   3.438   4.159 -0.1274  0.3157  0.0093
  364TIP3    H1 1056   0.752   3.430   4.250 -1.6502  0.6977  0.5729
  364TIP3    H2 1057   0.640   3.390   4.156  0.3845 -0.5424 -1.4527
  365TIP3   OH2 1058   1.516   6.177   5.626  0.5945 -0.0889 -0.0172
  365TIP3    H1 1059   1.460   6.130   5.564  1.6025 -1.1855 -0.1281
  365TIP3    H2 1060   1.460   6.246   5.661 -0.2179  0.1367 -1.6397
  366TIP3   OH2 1061   4.649   3.925   0.408 -0.2496 -0.3946  0.1187
  366TIP3    H1 1062   4.560   3.933   0.443 -0.3885  1.1990 -0.5400
  366TIP3    H2 1063   4.636   3.890   0.319 -0.1538 -0.8145  0.2652
  367TIP3   OH2 1064   0.914   4.627   0.769 -0.6568  0.2256 -0.7190
  367TIP3    H1 1065   0.911   4.623   0.864 -2.5737  1.3436 -0.6840
  367TIP3    H2 1066   0.914   4.536   0.741 -0.3333 -0.1137  0.3363
  368TIP3   OH2 1067   5.247   0.853   4.149  0.0592  0.3041 -0.0959
  368TIP3    H1 1068   5.205   0.936   4.126 -1.2074 -0.2981 -0.0402
  368TIP3    H2 1069   5.197   0.821   4.224  0.7071 -0.3879  0.0531
  369TIP3   OH2 1070   6.239   5.723   3.571 -0.2327 -0.3776  0.1770
  369TIP3    H1 1071   6.196   5.649   3.613  0.3534 -0.5012  0.5763
  369TIP3    H2 1072   6.169   5.786   3.556 -0.5949 -0.6713  0.5903
  370TIP3   OH2 1073   3.296   5.620   2.737  0.2205  0.3838 -0.1515
  370TIP3    H1 1074   3.340   5.540   2.763 -1.4440 -1.0278 -1.4077
  370TIP3    H2 1075   3.212   5.618   2.783  0.9410  2.5177  1.4371
  371TIP3   OH2 1076   6.633   3.477   2.192  0.1120  0.1559 -0.1921
  371TIP3    H1 1077   6.621   3.391   2.151 -0.9604 -0.4687  1.3151
  371TIP3    H2 1078   6.555   3.526   2.168  0.6358  0.6700 -0.8923
  372TIP3   OH2 1079   0.778   5.171   1.156  0.8862  0.1639 -0.3880
  372TIP3    H1 1080   0.712   5.102   1.153  2.2855 -1.1947 -1.8803
  372TIP3    H2 1081   0.772   5.214   1.070  2.5128 -0.5844 -0.9072
  373TIP3   OH2 1082   6.115   5.264   1.401  0.2386 -0.0607  0.0841
  373TIP3    H1 1083   6.194   5.275   1.348  1.1959 -0.1682  1.4408
  373TIP3    H2 1084   6.147   5.232   1.485 -1.3790 -1.3543  0.2545
  374TIP3   OH2 1085   5.044   3.221   2.608 -0.0813  0.0574 -0.1779
  374TIP3    H1 1086   5.015   3.152   2.667 -0.1057  0.8370  0.7606
  374TIP3    H2 1087   5.118   3.262   2.654  0.9792 -0.3591 -1.4472
  375TIP3   OH2 1088   1.337   2.715   4.624 -0.6398 -0.4518  0.8256
  375TIP3    H1 1089   1.267   2.678   4.571 -1.5753  0.2722  1.5351
  375TIP3    H2 1090   1.298   2.730   4.710  0.7213 -1.1666  1.6029
  376TIP3   OH2 1091   3.633   5.902   5.098 -0.0971  0.8189 -0.2329
  376TIP3    H1 1092   3.637   5.985   5.147  0.6710  0.8966 -0.4088
  376TIP3    H2 1093   3.647   5.928   5.007  0.4049  0.4689 -0.2572
  377TIP3   OH2 1094   7.130   6.596   3.989  0.3564 -0.5701 -0.2363
  377TIP3    H1 1095   7.177   6.630   4.065 -1.4326  0.3752  0.5097
  377TIP3    H2 1096   7.162   6.649   3.916  0.0441  0.4925  0.3618
  378TIP3   OH2 1097   4.311   6.770   5.304  0.0918 -0.0517  0.2620
  378TIP3    H1 1098   4.324   6.764   5.210  1.7236  0.4936  0.4163
  378TIP3    H2 1099   4.376   6.834   5.334 -1.1818  0.6753  1.6086
  379TIP3   OH2 1100   0.382   2.071   5.091 -0.5172  0.4377  0.0815
  379TIP3    H1 1101   0.410   2.120   5.168 -0.4038 -0.0318  0.3441
  379TIP3    H2 1102   0.396   1.979   5.115 -0.3281  0.2948 -0.5592
  380TIP3   OH2 1103   1.082   0.241   0.439  0.1811 -0.4064  0.3688
  380TIP3    H1 1104   1.177   0.227   0.432  0.3009 -0.9956  2.3274
  380TIP3    H2 1105   1.063   0.313   0.379  1.6877 -0.9574 -0.8272
  381TIP3   OH2 1106   2.092   1.546   5.094 -0.0830 -0.0137 -0.3047
  381TIP3    H1 1107   2.115   1.571   5.004 -0.5885  1.6041 -0.0235
  381TIP3    H2 1108   2.042   1.465   5.084  0.8239 -0.4658 -1.3781
  382TIP3   OH2 1109   4.679   5.236   1.072  0.0449 -0.1943 -0.5020
  382TIP3    H1 1110   4.727   5.211   1.151  0.5005 -0.5552 -0.8826
  382TIP3    H2 1111   4.718   5.182   1.003  0.3440  0.8314 -1.1659
  383TIP3   OH2 1112   3.522   2.214   1.000 -0.1378 -0.2108  0.2364
  383TIP3    H1 1113   3.450   2.168   1.042 -0.6499  0.5562  0.2128
  383TIP3    H2 1114   3.561   2.268   1.069 -0.4435  0.4016 -0.0630
  384TIP3   OH2 1115   0.590   2.475   4.060  0.3651  0.0560 -0.0689
  384TIP3    H1 1116   0.587   2.381   4.079 -3.0668  0.5163  2.8876
  384TIP3    H2 1117   0.551   2.484   3.973  0.0133 -1.2171 -0.0624
  385TIP3   OH2 1118   0.867   4.503   5.054  0.3384  0.5009  0.0905
  385TIP3    H1 1119   0.945   4.549   5.023  1.1307 -0.2614  0.8546
  385TIP3    H2 1120   0.902   4.420   5.089 -0.5986  0.8945  2.0494
  386TIP3   OH2 1121   5.764   3.626   4.375  0.9187  0.0929  0.4837
  386TIP3    H1 1122   5.804   3.690   4.316  0.2790 -0.5942 -0.7331
  386TIP3    H2 1123   5.677   3.612   4.339 -0.0032  0.6748  2.4052
  387TIP3   OH2 1124   5.539   5.712   2.594 -0.3223  0.1028  0.5618
  387TIP3    H1 1125   5.493   5.780   2.644 -1.6305 -1.4294  1.5975
  387TIP3    H2 1126   5.625   5.706   2.635 -0.0345  1.4022  0.1748
  388TIP3   OH2 1127   1.434   4.362   1.782 -0.1018 -0.0572  0.6346
  388TIP3    H1 1128   1.510   4.406   1.745  0.1825  1.0816  2.4535
  388TIP3    H2 1129   1.367   4.369   1.715  0.4337  1.7460  0.2471
  389TIP3   OH2 1130   3.385   1.713   5.680  0.4687 -0.2311  0.0776
  389TIP3    H1 1131   3.408   1.806   5.678  1.1284 -0.3989 -1.1398
  389TIP3    H2 1132   3.450   1.671   5.624 -0.2916 -1.3270 -0.0096
  390TIP3   OH2 1133   3.981   4.701   5.160  0.5581  0.4665  0.1637
  390TIP3    H1 1134   3.899   4.721   5.115  0.0881  0.5525  1.0252
  390TIP3    H2 1135   3.960   4.627   5.216  0.8025  1.0781  1.0922
  391TIP3   OH2 1136   0.922   2.470   4.771  0.2073 -0.0217  0.0497
  391TIP3    H1 1137   0.851   2.442   4.713 -0.0718 -0.8487  0.7512
  391TIP3    H2 1138   0.997   2.483   4.714 -0.9056  2.5238 -0.9519
  392TIP3   OH2 1139   5.079   0.394   3.624 -0.4279 -0.6151 -0.3238
  392TIP3    H1 1140   5.078   0.329   3.554  1.0521 -1.3529  0.2841
  392TIP3    H2 1141   5.012   0.365   3.685  0.8413 -2.1670  0.4059
  393TIP3   OH2 1142   0.734   5.217   1.972  0.0625 -0.3111  0.7960
  393TIP3    H1 1143   0.801   5.153   1.995  2.2443  1.3854 -0.3255
  393TIP3    H2 1144   0.742   5.227   1.877 -1.2690  0.5181  0.7414
  394TIP3   OH2 1145   6.655   6.175   3.222  0.0084 -0.3984  0.8471
  394TIP3    H1 1146   6.736   6.212   3.184 -0.5516  0.8904  0.8376
  394TIP3    H2 1147   6.664   6.191   3.316 -0.5732  0.4932  0.7654
  395TIP3   OH2 1148   4.310   3.683   3.628 -0.1210 -0.4496 -0.2718
  395TIP3    H1 1149   4.281   3.598   3.595  0.2603 -0.7183  0.0764
  395TIP3    H2 1150   4.239   3.711   3.686  0.2930 -1.1132  0.5885
  396TIP3   OH2 1151   3.298   2.571   2.971 -0.2314 -0.5863 -0.1164
  396TIP3    H1 1152   3.314   2.664   2.952  2.7358 -0.7053  1.3145
  396TIP3    H2 1153   3.253   2.572   3.055 -0.6930 -0.4434 -0.3615
  397TIP3   OH2 1154   1.609   5.211   0.657 -0.5692 -0.3383 -0.6231
  397TIP3    H1 1155   1.672   5.258   0.603 -1.2575  2.0714  0.5356
  397TIP3    H2 1156   1.523   5.244   0.630 -1.0245 -0.2110  0.8671
  398TIP3   OH2 1157   3.615   4.628   0.276 -0.2925 -0.3179  0.5525
  398TIP3    H1 1158   3.615   4.547   0.224  0.2437  0.6401 -1.0087
  398TIP3    H2 1159   3.547   4.682   0.235  0.6075  0.7289  0.4059
  399TIP3   OH2 1160   7.129   4.185   0.901 -0.7788  0.6314  0.3918
  399TIP3    H1 1161   7.109   4.093   0.921  1.8807 -0.3103 -0.7836
  399TIP3    H2 1162   7.080   4.235   0.966 -2.4105 -1.5947  0.9948
  400TIP3   OH2 1163   0.521   2.237   3.633  0.0219  0.2173  0.1709
  400TIP3    H1 1164   0.609   2.266   3.611  0.0794  0.1462  0.3055
  400TIP3    H2 1165   0.516   2.148   3.598  0.4751 -0.2856  1.3650
  401TIP3   OH2 1166   6.365   4.999   2.633 -0.1212 -0.3207 -0.2539
  401TIP3    H1 1167   6.287   4.955   2.666 -1.0037  0.3635 -1.3559
  401TIP3    H2 1168   6.340   5.092   2.628  1.2819  0.1591  0.8454
  402TIP3   OH2 1169   1.283   0.070   2.264  0.2584 -0.1227 -0.2100
  402TIP3    H1 1170   1.273   0.114   2.348 -0.1190 -2.3548  0.9973
  402TIP3    H2 1171   1.198   0.082   2.221 -0.5274 -1.2807  0.9533
  403TIP3   OH2 1172   4.735   3.893   4.019  0.1703  0.2745 -0.1672
  403TIP3    H1 1173   4.765   3.809   3.985 -0.2856  0.1382 -0.2326
  403TIP3    H2 1174   4.810   3.928   4.067  0.6054  0.1645 -0.7582
  404TIP3   OH2 1175   6.406   5.327   3.731 -0.2213 -0.6651 -0.0657
  404TIP3    H1 1176   6.376   5.369   3.812 -0.7646  0.9598 -1.0519
  404TIP3    H2 1177   6.340   5.351   3.667  0.3929 -1.6232 -1.0761
  405TIP3   OH2 1178   0.435   6.408   3.659  0.0124 -0.0267  0.7519
  405TIP3    H1 1179   0.526   6.404   3.630  0.1633 -0.9433  1.3273
  405TIP3    H2 1180   0.433   6.479   3.723  0.1914  0.3802  0.3111
  406TIP3   OH2 1181   4.434   1.992   2.299  0.2499  0.3778 -0.4413
  406TIP3    H1 1182   4.387   2.052   2.242  0.5926 -0.0315 -1.1814
  406TIP3    H2 1183   4.459   2.044   2.375 -0.9834  0.7112 -0.2505
  407TIP3   OH2 1184   0.213   1.003   4.723 -0.0965  0.2595 -0.3912
  407TIP3    H1 1185   0.284   1.029   4.782 -1.0032 -0.5161  1.1159
  407TIP3    H2 1186   0.257   0.979   4.642  1.6091 -2.0162  1.0702
  408TIP3   OH2 1187   2.250   2.768   0.677 -0.0766  0.0010 -0.2004
  408TIP3    H1 1188   2.259   2.689   0.624 -1.6810 -0.6852  0.4893
  408TIP3    H2 1189   2.199   2.741   0.753 -3.5704  2.2736 -1.4516
  409TIP3   OH2 1190   0.581   1.639   1.418  0.3892  1.0416 -0.7285
  409TIP3    H1 1191   0.537   1.599   1.343  2.5329  0.2737 -1.6474
  409TIP3    H2 1192   0.592   1.567   1.480 -0.4293  1.4437 -0.0893
  410TIP3   OH2 1193   1.725   6.277   1.524  0.3846  0.0214  0.1761
  410TIP3    H1 1194   1.711   6.371   1.528 -0.1944 -0.0285 -0.4869
  410TIP3    H2 1195   1.671   6.241   1.596 -2.8349 -0.1344 -2.0915
  411TIP3   OH2 1196   1.760   3.784   2.621  0.4521 -0.3905 -0.0911
  411TIP3    H1 1197   1.730   3.870   2.650 -1.2593 -1.3279  1.0790
  411TIP3    H2 1198   1.820   3.755   2.690  0.0149 -0.6759  0.1696
  412TIP3   OH2 1199   6.626   5.634   5.696 -0.1722 -0.2159  0.1962
  412TIP3    H1 1200   6.719   5.638   5.673  0.2591 -0.1320  1.7832
  412TIP3    H2 1201   6.588   5.574   5.632  1.0272 -0.4645 -0.3205
  413TIP3   OH2 1202   1.652   2.507   2.393 -0.0299 -0.3342  0.1237
  413TIP3    H1 1203   1.712   2.493   2.320 -0.9262 -1.7466 -0.3794
  413TIP3    H2 1204   1.648   2.602   2.402  0.1574 -0.1217 -1.6332
  414TIP3   OH2 1205   0.789   6.396   2.133 -0.2060  0.2182 -0.7327
  414TIP3    H1 1206   0.710   6.392   2.080 -0.5924  1.8206 -0.3426
  414TIP3    H2 1207   0.781   6.478   2.181  0.5218 -0.7864  1.1963
  415TIP3   OH2 1208   4.452   3.527   2.146  0.1690 -0.0742  0.5518
  415TIP3    H1 1209   4.367   3.488   2.165  0.1916 -0.6628 -0.4486
  415TIP3    H2 1210   4.490   3.546   2.231 -1.2776  0.8966  1.0147
  416TIP3   OH2 1211   6.174   0.278   1.688  0.2012 -0.1179  0.5081
  416TIP3    H1 1212   6.098   0.259   1.744 -0.6372 -1.1953 -0.9363
  416TIP3    H2 1213   6.244   0.222   1.722 -0.0673 -0.2018  0.9315
  417TIP3   OH2 1214   0.802   0.955   1.756  0.0162  0.0489  0.2275
  417TIP3    H1 1215   0.829   0.914   1.838 -3.3072 -0.5815  1.1741
  417TIP3    H2 1216   0.878   1.007   1.728  1.7982 -0.9604  2.8350
  418TIP3   OH2 1217   6.994   1.250   5.071 -0.0798  0.0255 -0.3667
  418TIP3    H1 1218   6.974   1.336   5.108  0.1963 -0.1489  0.2145
  418TIP3    H2 1219   6.908   1.212   5.052 -0.2031  0.4136 -0.5819
  419TIP3   OH2 1220   5.881   1.165   0.847 -0.1170 -0.0356 -0.2183
  419TIP3    H1 1221   5.824   1.229   0.805 -1.7485 -2.2602 -1.5983
  419TIP3    H2 1222   5.828   1.128   0.917 -0.4613 -2.1015 -1.4917
  420TIP3   OH2 1223   4.720   3.027   4.399 -0.2369  0.1118 -0.1875
  420TIP3    H1 1224   4.677   3.113   4.398  0.7295  0.6177  0.4408
  420TIP3    H2 1225   4.782   3.032   4.472  0.2925 -0.8871 -0.5524
  421TIP3   OH2 1226   1.047   5.495   0.214 -0.3269 -0.0450  0.0891
  421TIP3    H1 1227   1.125   5.536   0.250 -0.7065 -0.5572  1.5528
  421TIP3    H2 1228   1.002   5.457   0.289 -2.3318  0.7696 -0.6053
  422TIP3   OH2 1229   0.513   5.511   5.621 -0.0018  0.1127  0.2934
  422TIP3    H1 1230   0.514   5.520   5.526 -1.3356 -1.7843  0.0441
  422TIP3    H2 1231   0.431   5.553   5.648  0.0242  0.0108  0.5352
  423TIP3   OH2 1232   5.627   5.456   3.596  0.8547  0.4959  0.2077
  423TIP3    H1 1233   5.662   5.390   3.656  1.2395  1.7323  1.3836
  423TIP3    H2 1234   5.624   5.536   3.647 -0.3902  1.2236 -0.9462
  424TIP3   OH2 1235   4.614   5.769   5.380  0.6480 -0.2472  0.0959
  424TIP3    H1 1236   4.583   5.860   5.377 -0.1543 -0.5062  0.1793
  424TIP3    H2 1237   4.684   5.765   5.316  0.0231  0.1976 -0.6289
  425TIP3   OH2 1238   3.569   2.869   1.588 -0.0353  0.0278 -0.6546
  425TIP3    H1 1239   3.526   2.807   1.529 -0.8147  1.0299 -1.1758
  425TIP3    H2 1240   3.663   2.857   1.570 -0.1628 -1.0250 -0.6982
  426TIP3   OH2 1241   4.167   1.833   2.245 -0.3041  0.6428  0.2117
  426TIP3    H1 1242   4.257   1.865   2.254 -1.2675  3.7079  0.1030
  426TIP3    H2 1243   4.120   1.875   2.318 -1.6732 -0.8909  0.2583
  427TIP3   OH2 1244   5.707   1.044   3.603  0.4769 -0.3104  0.2724
  427TIP3    H1 1245   5.780   1.000   3.560  0.0671  1.5114 -2.5067
  427TIP3    H2 1246   5.629   0.997   3.571  0.2010  0.6634 -0.5161
  428TIP3   OH2 1247   2.638   4.974   3.179 -0.1471  0.0991  0.2134
  428TIP3    H1 1248   2.590   5.052   3.207 -1.8444 -0.4419 -1.0679
  428TIP3    H2 1249   2.705   5.008   3.119 -0.8364  0.5961 -0.2928
  429TIP3   OH2 1250   3.919   3.571   5.270  0.1816 -0.2766  0.1370
  429TIP3    H1 1251   3.952   3.658   5.290 -1.4384  1.5689 -4.0236
  429TIP3    H2 1252   3.960   3.548   5.187 -3.9763 -0.4710 -2.1720
  430TIP3   OH2 1253   2.394   2.229   3.617  0.0859 -0.3082  0.5062
  430TIP3    H1 1254   2.310   2.263   3.647  0.1304 -1.4347  1.9771
  430TIP3    H2 1255   2.398   2.140   3.650  1.7255 -0.3994  0.1653
  431TIP3   OH2 1256   0.644   5.348   0.425  0.1990  0.7911  0.0137
  431TIP3    H1 1257   0.701   5.273   0.442 -0.7827  0.0151 -0.0299
  431TIP3    H2 1258   0.594   5.359   0.505  0.4557  1.5244  0.0817
  432TIP3   OH2 1259   4.076   2.973   4.222 -0.4686 -0.4415 -0.6653
  432TIP3    H1 1260   4.165   2.940   4.228 -1.0896 -2.0743  0.2670
  432TIP3    H2 1261   4.052   2.963   4.130  0.3302  0.0862 -0.9320
  433TIP3   OH2 1262   6.694   6.562   5.815  0.0726 -0.0665  0.4949
  433TIP3    H1 1263   6.725   6.544   5.726 -0.2609  1.6334 -0.0002
  433TIP3    H2 1264   6.768   6.539   5.871  1.4785  1.7405 -0.5001
  434TIP3   OH2 1265   2.613   6.188   0.454 -0.0256 -0.3873 -0.0777
  434TIP3    H1 1266   2.641   6.213   0.542 -1.7406  1.1847  0.0795
  434TIP3    H2 1267   2.657   6.104   0.438  2.2568  0.4593  1.2710
  435TIP3   OH2 1268   2.649   3.666   2.701  0.2355  0.5041  0.2944
  435TIP3    H1 1269   2.588   3.596   2.725  1.2118  0.1975  2.0503
  435TIP3    H2 1270   2.595   3.731   2.656 -1.0282 -0.5729  0.1887
  436TIP3   OH2 1271   4.611   5.139   3.365  0.0104  0.4642  0.4765
  436TIP3    H1 1272   4.523   5.158   3.333  0.1132  0.2193  0.0443
  436TIP3    H2 1273   4.669   5.182   3.303  0.2050  0.3776  0.5979
  437TIP3   OH2 1274   7.162   0.717   4.225  0.3284 -0.3305 -0.0847
  437TIP3    H1 1275   7.195   0.688   4.140 -0.8703 -1.5756 -0.1562
  437TIP3    H2 1276   7.116   0.640   4.260  1.0049  0.0678  1.7967
  438TIP3   OH2 1277   4.260   2.573   5.418 -0.0135  0.5595 -0.1369
  438TIP3    H1 1278   4.311   2.610   5.346 -1.9186  0.0397 -1.8503
  438TIP3    H2 1279   4.171   2.566   5.383 -0.8031 -0.6912  1.9374
  439TIP3   OH2 1280   6.254   1.654   3.500 -0.2188  0.1546 -0.5265
  439TIP3    H1 1281   6.175   1.611   3.531  0.4562 -0.5183  0.3096
  439TIP3    H2 1282   6.230   1.690   3.415 -2.1153  1.9247  0.6529
  440TIP3   OH2 1283   4.610   1.490   1.441  0.1468  0.5180  0.1805
  440TIP3    H1 1284   4.618   1.409   1.492 -0.5902  0.7630  0.7069
  440TIP3    H2 1285   4.634   1.465   1.352 -1.3492 -0.6057  0.0478
  441TIP3   OH2 1286   0.148   6.587   0.723  1.0666  0.7948 -0.4030
  441TIP3    H1 1287   0.086   6.589   0.796  1.8754 -1.2255  0.4201
  441TIP3    H2 1288   0.094   6.564   0.647  0.7074 -0.5956  0.2340
  442TIP3   OH2 1289   4.486   1.940   5.379 -0.0276 -0.1784  0.1773
  442TIP3    H1 1290   4.546   2.002   5.421  0.2694 -0.9769  0.9663
  442TIP3    H2 1291   4.425   1.996   5.331  2.3921  0.6323 -2.2205
  443TIP3   OH2 1292   4.230   1.031   1.096  0.4916 -0.0532 -0.2400
  443TIP3    H1 1293   4.258   0.940   1.104  0.1731 -0.2209 -0.9119
  443TIP3    H2 1294   4.174   1.031   1.018  0.5183  0.7228 -0.2616
  444TIP3   OH2 1295   1.319   2.906   3.106 -0.3656 -0.1288  0.0275
  444TIP3    H1 1296   1.398   2.888   3.056  1.2388  1.4189  1.8473
  444TIP3    H2 1297   1.313   2.834   3.169  1.5159  1.3415  2.0200
  445TIP3   OH2 1298   2.310   4.191   5.902 -0.1209 -0.2734 -0.1696
  445TIP3    H1 1299   2.394   4.161   5.937 -0.5648 -0.5975  0.6335
  445TIP3    H2 1300   2.304   4.148   5.816  1.1055  0.7612 -0.8281
  446TIP3   OH2 1301   2.522   5.635   1.458 -0.1124  0.0278 -0.9126
  446TIP3    H1 1302   2.578   5.561   1.436  1.2113  0.6261  0.3380
  446TIP3    H2 1303   2.524   5.690   1.380  0.4450 -0.3280 -1.1560
  447TIP3   OH2 1304   5.040   4.839   0.524 -0.2935  0.2201  0.3809
  447TIP3    H1 1305   5.031   4.850   0.430  0.6343 -1.4314  0.0506
  447TIP3    H2 1306   4.960   4.875   0.561 -0.9369  0.3477 -1.0794
  448TIP3   OH2 1307   6.391   0.291   4.587  0.1617  0.1049  0.1033
  448TIP3    H1 1308   6.336   0.288   4.509  0.8894  1.6455 -0.5005
  448TIP3    H2 1309   6.472   0.332   4.559  2.1256 -2.9676  0.7363
  449TIP3   OH2 1310   7.217   6.695   2.946  0.0409 -0.0395 -0.0685
  449TIP3    H1 1311   7.263   6.774   2.918  0.6716 -1.3636 -3.1682
  449TIP3    H2 1312   7.144   6.686   2.884 -1.0054 -1.0576  1.2389
  450TIP3   OH2 1313   4.751   2.525   5.104 -0.0491 -0.0977  0.3609
  450TIP3    H1 1314   4.669   2.489   5.138 -0.0738 -0.8823 -0.4862
  450TIP3    H2 1315   4.733   2.540   5.011  0.7840 -0.3279  0.1548
  451TIP3   OH2 1316   0.162   3.415   3.995 -0.0049  0.2133  0.3271
  451TIP3    H1 1317   0.166   3.509   4.010  0.2067  0.2976 -0.2210
  451TIP3    H2 1318   0.105   3.381   4.064 -0.1707  0.7553  0.4571
  452TIP3   OH2 1319   4.593   1.084   0.552 -0.0919  0.1583  0.3409
  452TIP3    H1 1320   4.635   1.140   0.618  0.1087  0.9858 -0.4750
  452TIP3    H2 1321   4.583   1.140   0.476  0.9627 -1.1810 -0.8348
  453TIP3   OH2 1322   1.479   4.966   5.834 -0.1102 -0.0539 -0.0065
  453TIP3    H1 1323   1.511   5.008   5.754 -0.2935 -1.4822 -0.8532
  453TIP3    H2 1324   1.432   5.036   5.880  0.7064  1.0059 -0.7273
  454TIP3   OH2 1325   0.887   1.330   2.518 -0.4928  0.4206 -0.3713
  454TIP3    H1 1326   0.857   1.240   2.502  1.3558 -0.1862 -0.6920
  454TIP3    H2 1327   0.857   1.380   2.443  2.8896 -1.1092 -3.0253
  455TIP3   OH2 1328   4.969   2.846   5.012 -0.0950 -0.5539 -0.1982
  455TIP3    H1 1329   4.932   2.900   4.942 -1.3254 -0.4608  0.4815
  455TIP3    H2 1330   4.993   2.764   4.969  0.0265 -0.1591 -0.8948
  456TIP3   OH2 1331   1.054   1.489   1.746  0.3329  0.5384 -0.4163
  456TIP3    H1 1332   1.066   1.487   1.651 -0.3640 -0.6562 -0.5038
  456TIP3    H2 1333   0.972   1.538   1.759  1.1562  1.9372 -0.3187
  457TIP3   OH2 1334   5.144   0.703   1.278  0.4267  0.6881  0.4383
  457TIP3    H1 1335   5.208   0.659   1.334 -1.6949 -2.3896  0.6720
  457TIP3    H2 1336   5.151   0.658   1.193 -0.1456  1.5727 -0.0962
  458TIP3   OH2 1337   6.592   4.805   5.698 -0.0682  0.1418 -0.3758
  458TIP3    H1 1338   6.574   4.741   5.630  0.6367 -1.4043  0.8371
  458TIP3    H2 1339   6.686   4.820   5.694 -0.1115  0.5057 -0.1485
  459TIP3   OH2 1340   6.727   5.924   3.584  0.0511  0.1387 -0.5217
  459TIP3    H1 1341   6.807   5.873   3.576  1.0706  1.6583 -0.4575
  459TIP3    H2 1342   6.705   5.920   3.677  0.5105  0.3722 -0.3999
  460TIP3   OH2 1343   2.894   1.846   3.549  0.2810  0.0003 -0.2502
  460TIP3    H1 1344   2.802   1.871   3.536 -0.7853 -3.3804 -0.1709
  460TIP3    H2 1345   2.937   1.868   3.467 -1.1693 -0.4535 -1.1691
  461TIP3   OH2 1346   1.205   2.501   5.402 -0.2115  0.2304 -0.1496
  461TIP3    H1 1347   1.178   2.582   5.444 -1.9597 -0.6761  0.5656
  461TIP3    H2 1348   1.176   2.511   5.311  0.7104  0.9006 -0.3794
  462TIP3   OH2 1349   4.185   6.741   0.634  0.1848 -0.7939  0.3954
  462TIP3    H1 1350   4.184   6.713   0.725 -2.0711  0.3517  0.7842
  462TIP3    H2 1351   4.261   6.800   0.628 -0.3172  0.0254  1.8451
  463TIP3   OH2 1352   2.973   3.840   4.346 -0.3011 -0.0695  0.2049
  463TIP3    H1 1353   2.908   3.910   4.343 -1.4230 -1.1084 -0.6634
  463TIP3    H2 1354   3.032   3.858   4.273  0.0562  0.5640  0.6465
  464TIP3   OH2 1355   2.525   0.763   1.580 -0.4766 -0.2013  0.0796
  464TIP3    H1 1356   2.483   0.784   1.664  0.0294  2.2005 -0.1712
  464TIP3    H2 1357   2.618   0.778   1.597 -0.4730  1.4229 -1.1506
  465TIP3   OH2 1358   0.670   4.534   0.124  0.0814 -0.0021  0.2000
  465TIP3    H1 1359   0.669   4.626   0.152 -0.1632 -0.2867  1.1634
  465TIP3    H2 1360   0.683   4.538   0.029  1.3425  0.9956  0.3842
  466TIP3   OH2 1361   0.505   2.078   2.459 -0.3542 -0.2994  0.1363
  466TIP3    H1 1362   0.525   2.155   2.407 -0.2667 -0.9182 -0.7733
  466TIP3    H2 1363   0.589   2.053   2.497 -0.2163 -0.4235 -0.2434
  467TIP3   OH2 1364   4.407   2.167   0.361 -0.1302  0.0170 -0.0671
  467TIP3    H1 1365   4.360   2.137   0.439 -2.7545  2.2876 -0.6105
  467TIP3    H2 1366   4.465   2.237   0.393  0.4132 -0.5104  0.1204
  468TIP3   OH2 1367   5.058   6.039   5.372  0.3139 -0.0462  0.0281
  468TIP3    H1 1368   5.118   6.101   5.330 -0.0903  0.5452  0.2968
  468TIP3    H2 1369   4.986   6.030   5.309  1.5489 -2.2562 -1.1712
  469TIP3   OH2 1370   3.585   2.737   0.148  0.4172 -0.1851  0.8316
  469TIP3    H1 1371   3.679   2.755   0.142  0.0012  2.1623 -0.0080
  469TIP3    H2 1372   3.552   2.751   0.059 -0.5676 -2.3691  0.7912
  470TIP3   OH2 1373   3.510   5.341   3.608 -0.1645  0.0616 -0.3615
  470TIP3    H1 1374   3.498   5.428   3.571 -0.8230  0.5423  0.9262
  470TIP3    H2 1375   3.421   5.307   3.619  0.0237 -0.1811  0.4797
  471TIP3   OH2 1376   2.964   6.214   3.178  0.0790 -0.1278 -0.0434
  471TIP3    H1 1377   2.880   6.248   3.210 -0.0383 -0.6459  0.2160
  471TIP3    H2 1378   2.996   6.159   3.249 -0.6682 -2.1298 -1.1722
  472TIP3   OH2 1379   4.071   6.125   0.717  0.8396  0.1119 -0.2787
  472TIP3    H1 1380   4.112   6.178   0.649  1.5259  0.1581  0.1696
  472TIP3    H2 1381   3.987   6.097   0.678  1.1561  0.2613 -1.0822
  473TIP3   OH2 1382   0.025   3.719   2.256 -0.2888 -0.5168  0.1345
  473TIP3    H1 1383  -0.011   3.802   2.287 -0.7478 -0.6113 -0.1306
  473TIP3    H2 1384   0.009   3.721   2.161  1.3265 -0.1078 -0.1686
  474TIP3   OH2 1385   0.062   5.058   4.455 -0.5931  0.1442  0.1070
  474TIP3    H1 1386   0.139   5.036   4.401 -0.1799  0.8605  0.3859
  474TIP3    H2 1387   0.016   4.975   4.465  1.1594 -0.7277  1.5582
  475TIP3   OH2 1388   3.995   2.782   4.587  0.0279 -0.8545 -0.3794
  475TIP3    H1 1389   3.920   2.812   4.640  0.0470  1.1836 -1.3824
  475TIP3    H2 1390   3.977   2.690   4.570 -1.4323 -0.8239  0.7795
  476TIP3   OH2 1391   1.066   4.191   1.252 -0.3027  0.4500  0.0787
  476TIP3    H1 1392   1.061   4.174   1.345 -1.6317 -1.3835 -0.2906
  476TIP3    H2 1393   1.132   4.130   1.219  0.4387  1.3430 -0.1635
  477TIP3   OH2 1394   3.937   6.811   1.327  0.2520  0.1040  0.4888
  477TIP3    H1 1395   3.914   6.725   1.362  1.7514 -0.7088 -0.4006
  477TIP3    H2 1396   3.881   6.821   1.250 -0.3249  0.1760  0.9168
  478TIP3   OH2 1397   2.060  -0.007   4.838 -0.4495 -0.0329  0.4297
  478TIP3    H1 1398   2.049   0.059   4.907 -1.9872  0.9765 -0.7043
  478TIP3    H2 1399   1.971  -0.023   4.807  0.1681 -0.8190 -1.0037
  479TIP3   OH2 1400   5.205   5.301   5.101 -0.1049  0.5783  0.7139
  479TIP3    H1 1401   5.212   5.267   5.190 -0.5341 -2.3750 -0.2587
  479TIP3    H2 1402   5.127   5.357   5.102 -0.0629  0.6452  2.1766
  480TIP3   OH2 1403   3.000   5.511   1.848 -0.1301 -0.1775 -0.3376
  480TIP3    H1 1404   2.985   5.572   1.921 -1.5435 -0.6674 -0.1857
  480TIP3    H2 1405   2.991   5.565   1.770  2.4954  0.5941 -0.2077
  481TIP3   OH2 1406   6.137   2.375   2.306 -0.1710  0.3467 -0.1317
  481TIP3    H1 1407   6.043   2.363   2.322 -0.4352 -0.1887 -1.8462
  481TIP3    H2 1408   6.149   2.470   2.304 -0.6092  0.4208  0.4307
  482TIP3   OH2 1409   6.424   1.798   4.489 -0.2420  0.1798  0.4901
  482TIP3    H1 1410   6.476   1.717   4.491  0.6726  0.7573  0.7165
  482TIP3    H2 1411   6.395   1.809   4.580 -1.1932 -0.3931  0.2761
  483TIP3   OH2 1412   4.951   2.220   2.443  0.1437 -0.1245 -0.4972
  483TIP3    H1 1413   4.977   2.267   2.364 -1.0445 -0.2578 -0.9796
  483TIP3    H2 1414   4.892   2.151   2.412  0.0284 -0.4705  0.4566
  484TIP3   OH2 1415   0.544   2.267   5.575 -0.2256  0.1134  0.3289
  484TIP3    H1 1416   0.568   2.271   5.668 -0.0998 -0.8342  0.3523
  484TIP3    H2 1417   0.609   2.322   5.531 -2.0580  3.1333  1.0656
  485TIP3   OH2 1418   5.774   3.729   1.381 -0.1471  0.2584 -0.3714
  485TIP3    H1 1419   5.869   3.731   1.393 -0.4110  1.6235  2.5697
  485TIP3    H2 1420   5.746   3.646   1.420 -0.1253 -0.8063 -2.4850
  486TIP3   OH2 1421   2.691   3.228   4.675  0.4063  0.2911 -0.1212
  486TIP3    H1 1422   2.679   3.321   4.693 -0.1539  0.4006 -1.0309
  486TIP3    H2 1423   2.754   3.225   4.603  1.6708 -0.1035  0.9644
  487TIP3   OH2 1424   0.300   0.370   5.453 -0.0480 -0.1828  0.2422
  487TIP3    H1 1425   0.298   0.451   5.402  0.9235 -1.2344 -1.6188
  487TIP3    H2 1426   0.211   0.358   5.485 -0.4954  0.9928 -0.5177
  488TIP3   OH2 1427   2.864   6.559   3.574  0.3124  0.2301 -0.6063
  488TIP3    H1 1428   2.921   6.618   3.524  0.7416  0.5589  0.2573
  488TIP3    H2 1429   2.900   6.559   3.662 -0.0543 -0.8428 -0.4319
  489TIP3   OH2 1430   7.088   5.209   3.207  0.3163  0.5392  0.1328
  489TIP3    H1 1431   7.045   5.294   3.219 -0.0241  0.2472  0.9885
  489TIP3    H2 1432   7.144   5.199   3.284  1.9882  0.9308 -0.9590
  490TIP3   OH2 1433   2.002   5.398   3.191 -0.1249 -0.2090  0.2982
  490TIP3    H1 1434   2.025   5.306   3.179  1.7269 -0.0621  2.1700
  490TIP3    H2 1435   1.970   5.403   3.281 -0.2101  0.9630  0.2147
  491TIP3   OH2 1436   1.887   1.561   3.274  0.2106 -0.2535 -0.2672
  491TIP3    H1 1437   1.942   1.602   3.340  1.4365 -0.1674 -1.3024
  491TIP3    H2 1438   1.812   1.527   3.323 -0.3844  2.3158  0.7587
  492TIP3   OH2 1439   0.181   6.065   2.073  0.5042 -0.1271  0.6642
  492TIP3    H1 1440   0.213   6.104   2.154  0.7004 -1.6800  1.3838
  492TIP3    H2 1441   0.249   6.083   2.008 -0.0509  1.8745  0.5930
  493TIP3   OH2 1442   6.992   4.004  -0.002 -0.0423  0.1185 -0.2501
  493TIP3    H1 1443   7.070   3.970  -0.046 -0.7429  0.2785 -1.6891
  493TIP3    H2 1444   6.989   3.957   0.082  2.3353  1.1256  0.4754
  494TIP3   OH2 1445   5.838   3.275   3.623 -0.4060 -0.4799 -0.1958
  494TIP3    H1 1446   5.873   3.286   3.711  0.2935 -1.8445 -0.2728
  494TIP3    H2 1447   5.913   3.285   3.565 -0.9016  0.6408 -0.6760
  495TIP3   OH2 1448   4.039   2.908   2.135 -0.0534  0.1445 -0.0358
  495TIP3    H1 1449   4.034   2.877   2.044 -0.7234  0.4926 -0.1208
  495TIP3    H2 1450   4.094   2.986   2.130  1.3517 -0.7800  0.1278
  496TIP3   OH2 1451   3.073   1.555   1.881  0.4734  0.0802 -0.0913
  496TIP3    H1 1452   3.152   1.607   1.864 -0.1097  0.3313 -2.2742
  496TIP3    H2 1453   3.100   1.492   1.948  2.0857  1.1490  0.3249
  497TIP3   OH2 1454   1.196   5.574   0.459  0.3030 -0.0039  0.1342
  497TIP3    H1 1455   1.213   5.480   0.462  0.0551 -0.0466  0.2202
  497TIP3    H2 1456   1.101   5.581   0.472  0.0677  0.1555 -1.4928
  498TIP3   OH2 1457   6.195   0.333   1.104  0.5142  0.4379 -0.3030
  498TIP3    H1 1458   6.161   0.333   1.194 -0.6145 -0.9179 -0.6876
  498TIP3    H2 1459   6.177   0.422   1.072  1.0775  0.9817  0.8486
  499TIP3   OH2 1460   4.348   0.049   5.075 -0.2633  0.7169  0.3648
  499TIP3    H1 1461   4.266   0.053   5.124 -1.0876  1.4767 -1.0189
  499TIP3    H2 1462   4.335  -0.024   5.014  0.8627 -0.4103  1.4203
  500TIP3   OH2 1463   1.663   4.780   0.329  0.0644 -0.3451 -0.6724
  500TIP3    H1 1464   1.624   4.700   0.294 -0.7786  0.1300 -0.8460
  500TIP3    H2 1465   1.665   4.766   0.424  0.4819 -0.8127 -0.7462
  501TIP3   OH2 1466   3.841   2.029   0.446  0.0678 -0.2482  0.5718
  501TIP3    H1 1467   3.850   1.942   0.408 -1.3024 -0.4784  0.7249
  501TIP3    H2 1468   3.768   2.068   0.399  1.3630  1.2661 -0.2635
  502TIP3   OH2 1469   5.506   3.990   4.716  0.2923  0.1218  0.4924
  502TIP3    H1 1470   5.525   4.082   4.697  0.1993 -0.1483 -1.0950
  502TIP3    H2 1471   5.583   3.958   4.763  0.6117  0.8440  0.4646
  503TIP3   OH2 1472   1.864   5.211   4.045 -0.0014 -0.1430  0.5074
  503TIP3    H1 1473   1.809   5.141   4.010  0.5645 -0.6508  0.6300
  503TIP3    H2 1474   1.801   5.279   4.071 -0.5363 -0.4916  0.1495
  504TIP3   OH2 1475   1.131   0.364   5.087  0.4972 -0.6693  0.9726
  504TIP3    H1 1476   1.186   0.378   5.165  0.6247 -0.1514  0.7936
  504TIP3    H2 1477   1.044   0.348   5.122  0.2052  1.1926  1.1895
  505TIP3   OH2 1478   5.782   6.482   1.247  0.0050  0.3752 -0.0068
  505TIP3    H1 1479   5.702   6.486   1.196 -0.1395  0.9860  0.2497
  505TIP3    H2 1480   5.810   6.391   1.243 -0.6785  0.1706 -0.1338
  506TIP3   OH2 1481   4.767   0.870   4.800  0.5969 -0.1596 -0.5032
  506TIP3    H1 1482   4.820   0.874   4.880  2.0769 -0.4953 -1.4384
  506TIP3    H2 1483   4.733   0.781   4.799 -1.2983  0.4676  0.8605
  507TIP3   OH2 1484   1.864   4.951   2.194  0.0918  0.2346 -0.5607
  507TIP3    H1 1485   1.897   4.897   2.122  2.3966  1.0373 -0.1972
  507TIP3    H2 1486   1.861   4.893   2.269  1.1132  0.2338 -0.5139
  508TIP3   OH2 1487   1.884   3.503   1.494 -0.1694 -0.2946  0.3250
  508TIP3    H1 1488   1.808   3.514   1.551 -1.6682 -2.4835 -1.0928
  508TIP3    H2 1489   1.873   3.568   1.426 -0.8192 -0.6503  0.0905
  509TIP3   OH2 1490   4.381   5.452   2.210 -0.4424  0.8772  0.4400
  509TIP3    H1 1491   4.302   5.482   2.254  0.4273  1.4250  1.6918
  509TIP3    H2 1492   4.407   5.374   2.259 -1.1510 -0.3424 -1.0584
  510TIP3   OH2 1493   3.297   3.854   4.574 -0.5172  0.1027  0.3073
  510TIP3    H1 1494   3.364   3.786   4.568  0.1748  0.8036 -0.0228
  510TIP3    H2 1495   3.337   3.931   4.535 -1.1143  0.8467  1.1358
  511TIP3   OH2 1496   2.109   3.720   1.017  0.2531  0.7393 -0.4120
  511TIP3    H1 1497   2.071   3.802   0.987 -1.4608 -0.2295 -1.0579
  511TIP3    H2 1498   2.093   3.658   0.946  1.4083 -0.1939  0.0970
  512TIP3   OH2 1499   3.570   2.536   1.565 -0.5006 -0.2971 -0.4479
  512TIP3    H1 1500   3.565   2.577   1.651  0.6861  1.4428 -1.1457
  512TIP3    H2 1501   3.538   2.447   1.578 -2.1532  0.4946  1.3798
  513TIP3   OH2 1502   6.907   0.548   4.565 -0.2227  0.5172  0.4666
  513TIP3    H1 1503   6.866   0.598   4.494  0.8018 -2.0475 -2.1240
  513TIP3    H2 1504   6.998   0.576   4.564  0.3471 -1.1915 -0.9705
  514TIP3   OH2 1505   1.359   3.177   3.154  0.3605 -0.1935  0.4925
  514TIP3    H1 1506   1.338   3.096   3.109 -0.5273  0.5152 -0.4258
  514TIP3    H2 1507   1.454   3.178   3.160  0.4672 -0.5511 -0.9140
  515TIP3   OH2 1508   4.113   5.599   4.028  0.1056 -0.2897 -0.3652
  515TIP3    H1 1509   4.034   5.595   4.082  0.0256  0.9738 -0.3641
  515TIP3    H2 1510   4.183   5.624   4.089 -0.0632  1.5668 -0.8887
  516TIP3   OH2 1511   1.310   6.113   5.149 -0.1919  0.4061  0.2267
  516TIP3    H1 1512   1.279   6.202   5.167  0.2007  0.6418 -0.2350
  516TIP3    H2 1513   1.365   6.122   5.071 -0.7646 -0.3653 -0.2826
  517TIP3   OH2 1514   4.304   0.708  -0.022 -0.2638 -0.2535  0.4926
  517TIP3    H1 1515   4.363   0.739   0.047 -1.4014 -0.4320  1.5591
  517TIP3    H2 1516   4.286   0.617   0.001  0.6090 -0.8348 -0.9427
  518TIP3   OH2 1517   3.592   5.706   4.721  0.0382  0.1156  0.2411
  518TIP3    H1 1518   3.523   5.738   4.778  0.0152  1.6852 -0.6116
  518TIP3    H2 1519   3.673   5.722   4.770 -0.0046  1.1725  0.0072
  519TIP3   OH2 1520   3.782   0.475   1.266  0.8877 -0.0207  0.1873
  519TIP3    H1 1521   3.761   0.527   1.343 -0.1393 -1.1091  0.6808
  519TIP3    H2 1522   3.703   0.423   1.251  0.8090  0.6495 -2.0157
  520TIP3   OH2 1523   0.256   3.721   1.722 -0.5853 -0.1537  0.0928
  520TIP3    H1 1524   0.177   3.774   1.723 -1.5772 -1.5312  2.1705
  520TIP3    H2 1525   0.235   3.647   1.665 -0.4894 -0.1117  0.0019
  521TIP3   OH2 1526   0.938   0.192   4.863 -0.4607  0.1019 -0.1841
  521TIP3    H1 1527   1.027   0.158   4.870 -0.4327 -0.2431 -1.7297
  521TIP3    H2 1528   0.888   0.145   4.929  0.6365  0.8525  1.2247
  522TIP3   OH2 1529   3.253   3.798   5.738  0.2918  0.0625  0.2961
  522TIP3    H1 1530   3.338   3.766   5.769 -1.0719 -1.4286  2.8498
  522TIP3    H2 1531   3.241   3.882   5.784  0.2095  0.0764  0.2482
  523TIP3   OH2 1532   0.349   2.399   0.738  0.1141 -0.3880 -0.6143
  523TIP3    H1 1533   0.319   2.371   0.824  1.5509 -0.0527  0.0285
  523TIP3    H2 1534   0.279   2.456   0.705 -0.0011  0.3224  0.7827
  524TIP3   OH2 1535   6.277   0.631   3.514  0.3679 -0.0051 -0.0271
  524TIP3    H1 1536   6.250   0.572   3.585 -3.0584  1.3282 -0.0010
  524TIP3    H2 1537   6.315   0.706   3.560  1.5526 -0.6863  0.1377
  525TIP3   OH2 1538   5.824   2.991   2.798  0.0628 -0.2138  0.0592
  525TIP3    H1 1539   5.729   2.989   2.785  0.1013  0.0651 -0.2779
  525TIP3    H2 1540   5.859   3.013   2.712  0.4345 -0.2983  0.1875
  526TIP3   OH2 1541   7.041   4.345   4.662 -0.4484 -0.0291 -0.2940
  526TIP3    H1 1542   7.003   4.291   4.731  1.5111  1.6312  2.2647
  526TIP3    H2 1543   7.080   4.282   4.601 -1.2602 -1.5425  0.6907
  527TIP3   OH2 1544   6.523   6.618   2.006 -0.6540  0.4726  0.4542
  527TIP3    H1 1545   6.468   6.638   2.082 -0.9112 -0.7708  0.6163
  527TIP3    H2 1546   6.507   6.525   1.988 -2.0639  1.1285 -2.3144
  528TIP3   OH2 1547   3.724   5.014   1.206  0.1724 -0.3783  0.1809
  528TIP3    H1 1548   3.739   4.931   1.161  1.8004 -0.7810  1.3812
  528TIP3    H2 1549   3.692   4.990   1.293 -1.0332  0.3244 -0.0467
  529TIP3   OH2 1550   3.153   4.704   2.562  0.0700  0.5241 -0.4904
  529TIP3    H1 1551   3.242   4.671   2.549  0.2348  0.5919  0.4028
  529TIP3    H2 1552   3.162   4.799   2.564  0.1211  0.5053  0.5382
  530TIP3   OH2 1553   2.457   2.870   3.824 -0.3924  0.5627  0.2230
  530TIP3    H1 1554   2.396   2.847   3.894 -0.3869  0.5765  0.2325
  530TIP3    H2 1555   2.473   2.964   3.837 -0.4079  0.5699  0.1903
  531TIP3   OH2 1556   3.982   5.526   0.434 -0.3625  0.0290 -0.3818
  531TIP3    H1 1557   4.016   5.576   0.507 -0.0604 -2.7713  1.5682
  531TIP3    H2 1558   4.041   5.545   0.361  0.4469  1.4851  0.6165
  532TIP3   OH2 1559   4.036   6.235   2.264  0.5965  0.2822 -0.6684
  532TIP3    H1 1560   3.945   6.262   2.257 -0.6475 -2.4241  2.3989
  532TIP3    H2 1561   4.045   6.164   2.200 -0.3016 -1.1315  0.6974
  533TIP3   OH2 1562   2.207   3.411   4.058 -0.0069 -0.2790 -0.0727
  533TIP3    H1 1563   2.250   3.494   4.036 -1.3119  0.1580 -1.0954
  533TIP3    H2 1564   2.123   3.414   4.011 -0.4674 -1.7905  0.5945
  534TIP3   OH2 1565   6.653   2.078   2.311 -0.0883  0.4251  0.4556
  534TIP3    H1 1566   6.679   2.086   2.403 -0.2347  1.2944  0.4318
  534TIP3    H2 1567   6.647   2.168   2.281  0.9049  0.1397 -0.6754
  535TIP3   OH2 1568   3.534   3.050   0.319 -0.1715 -0.8096 -0.0729
  535TIP3    H1 1569   3.625   3.061   0.294 -0.1444 -2.6178 -0.9489
  535TIP3    H2 1570   3.491   3.130   0.289  1.1148  0.1033  0.4244
  536TIP3   OH2 1571   2.722   1.034   1.599  1.0213  0.1851 -0.6996
  536TIP3    H1 1572   2.760   1.078   1.675  0.2892  1.1484 -0.8749
  536TIP3    H2 1573   2.638   1.079   1.585 -0.9500 -2.7374  0.5714
  537TIP3   OH2 1574   6.625   0.436   2.509 -0.3951  0.0247  0.4996
  537TIP3    H1 1575   6.566   0.500   2.469 -0.3165 -0.0217  0.3050
  537TIP3    H2 1576   6.707   0.484   2.522  0.5453 -0.6964 -2.0754
  538TIP3   OH2 1577   2.627   2.755   2.786  0.2520 -0.5927  0.2924
  538TIP3    H1 1578   2.651   2.791   2.871 -0.3600  0.5259  0.0067
  538TIP3    H2 1579   2.594   2.830   2.736 -0.2951 -1.3986 -0.5958
  539TIP3   OH2 1580   2.634   4.695   2.424  0.0088 -0.8337  0.5611
  539TIP3    H1 1581   2.573   4.656   2.362  0.3764  0.8185 -0.9119
  539TIP3    H2 1582   2.641   4.786   2.397  1.2580 -0.3885  2.2061
  540TIP3   OH2 1583   1.053   3.684   3.170  0.3151  0.4011 -0.3995
  540TIP3    H1 1584   1.051   3.621   3.098 -0.6086  0.9431 -0.8655
  540TIP3    H2 1585   0.988   3.650   3.232  0.8053  0.1639 -0.0078
  541TIP3   OH2 1586   1.788   1.127   5.135 -0.0936 -0.4851  0.0935
  541TIP3    H1 1587   1.702   1.169   5.126 -0.0243  0.0129  1.4655
  541TIP3    H2 1588   1.777   1.065   5.207  0.5073 -0.9322 -0.1972
  542TIP3   OH2 1589   5.927   2.164   5.078  0.1489 -0.3002 -0.7388
  542TIP3    H1 1590   5.998   2.223   5.103  0.9119 -1.6993  0.5790
  542TIP3    H2 1591   5.933   2.160   4.982  0.2333  1.5018 -0.8497
  543TIP3   OH2 1592   6.926   0.883   3.806 -0.0406 -0.3688 -0.3065
  543TIP3    H1 1593   6.982   0.852   3.734 -0.1115  0.1500 -0.5958
  543TIP3    H2 1594   6.882   0.960   3.769  0.2890  0.1891  0.4510
  544TIP3   OH2 1595   2.730   1.584   4.987 -0.1585 -0.7352 -0.1983
  544TIP3    H1 1596   2.756   1.554   5.074  0.1960  0.0154 -0.0286
  544TIP3    H2 1597   2.733   1.506   4.932 -0.4537 -1.2314  0.4786
  545TIP3   OH2 1598   2.535   4.832   1.283 -0.3174 -0.2742 -0.3303
  545TIP3    H1 1599   2.539   4.927   1.278 -2.8916 -0.0174  0.8359
  545TIP3    H2 1600   2.445   4.813   1.308  0.3712 -2.9839  0.4512
  546TIP3   OH2 1601   5.324   4.159   5.607 -0.7589  0.0986 -0.0036
  546TIP3    H1 1602   5.279   4.128   5.686  1.4769  1.4798  1.9508
  546TIP3    H2 1603   5.370   4.083   5.573 -0.8027 -0.2498  0.7093
  547TIP3   OH2 1604   5.250   6.424   3.717  1.0395 -0.5255 -0.2773
  547TIP3    H1 1605   5.223   6.342   3.757  1.7223  0.4091  2.3008
  547TIP3    H2 1606   5.186   6.488   3.749  0.6907  0.0383 -1.9970
  548TIP3   OH2 1607   1.140   5.888   4.077 -0.2769  0.1844  0.0856
  548TIP3    H1 1608   1.183   5.965   4.040  2.2980 -1.4757 -0.7326
  548TIP3    H2 1609   1.173   5.815   4.023 -2.2749 -1.5413  1.0578
  549TIP3   OH2 1610   1.359   1.936   2.675 -0.0105  0.0691 -0.2757
  549TIP3    H1 1611   1.433   1.978   2.718 -0.3876 -1.6765  2.3221
  549TIP3    H2 1612   1.285   1.951   2.734 -1.3239  0.1009 -1.8384
  550TIP3   OH2 1613   4.607   5.965   1.203  0.6258  0.1471 -0.1053
  550TIP3    H1 1614   4.536   6.028   1.196 -1.2826 -1.9196 -0.3204
  550TIP3    H2 1615   4.657   5.976   1.122 -0.1777  0.7777 -0.5323
  551TIP3   OH2 1616   0.581   4.704   1.890  0.2650  0.3299  0.3981
  551TIP3    H1 1617   0.585   4.613   1.861  0.0707  0.6555 -0.6885
  551TIP3    H2 1618   0.619   4.703   1.978 -0.3710 -0.9100  0.6844
  552TIP3   OH2 1619   3.138   2.883   0.326 -0.8203  0.2317  0.3108
  552TIP3    H1 1620   3.216   2.883   0.270  0.3002 -0.3221  1.7881
  552TIP3    H2 1621   3.071   2.927   0.274  0.1283 -0.3088 -1.4782
  553TIP3   OH2 1622   2.861   6.153   4.999  0.7674 -0.1184 -0.3461
  553TIP3    H1 1623   2.858   6.223   4.934  1.6001  2.7762  2.4151
  553TIP3    H2 1624   2.954   6.128   5.003  0.6835 -0.4460 -0.4311
  554TIP3   OH2 1625   2.422   1.577   4.130  0.3766 -0.2873  0.1290
  554TIP3    H1 1626   2.424   1.634   4.053 -0.6370 -1.3964 -0.7544
  554TIP3    H2 1627   2.456   1.632   4.201  2.2035  0.4869 -1.2630
  555TIP3   OH2 1628   0.615   1.881   1.226  0.0697  0.4624  0.0251
  555TIP3    H1 1629   0.664   1.959   1.250 -0.1845  0.1319  1.8320
  555TIP3    H2 1630   0.594   1.840   1.310 -0.0438 -1.3944 -0.8549
  556TIP3   OH2 1631   4.669   6.125   4.539 -0.5170  0.1817 -0.1220
  556TIP3    H1 1632   4.635   6.127   4.450 -1.8109 -2.3684  0.2121
  556TIP3    H2 1633   4.739   6.060   4.538 -2.3705 -2.0079  1.1581
  557TIP3   OH2 1634   3.609   5.168   2.748  0.3478 -0.3124  0.3571
  557TIP3    H1 1635   3.688   5.221   2.737 -0.1085  0.6224  1.4276
  557TIP3    H2 1636   3.540   5.220   2.708  0.0011 -0.4062  0.8358
  558TIP3   OH2 1637   3.135   5.475   0.914 -0.1291  0.0572  0.1126
  558TIP3    H1 1638   3.192   5.549   0.934  0.6399 -0.2287 -0.9270
  558TIP3    H2 1639   3.194   5.400   0.906 -0.8489 -0.5954  0.7379
  559TIP3   OH2 1640   3.454   5.547   5.672  0.2488 -0.7963  0.1508
  559TIP3    H1 1641   3.483   5.619   5.727 -1.6626 -1.7784  2.6441
  559TIP3    H2 1642   3.360   5.541   5.688  0.0393 -2.6918 -1.4139
  560TIP3   OH2 1643   0.598   3.122   5.719  0.1545 -0.3644  0.2047
  560TIP3    H1 1644   0.664   3.163   5.775 -1.6081  1.0005  1.4133
  560TIP3    H2 1645   0.536   3.193   5.699 -1.7159 -1.8736  0.3151
  561TIP3   OH2 1646   0.070   0.381   4.450  0.3216 -0.4313  0.1118
  561TIP3    H1 1647   0.045   0.472   4.467 -0.7278 -0.3853 -1.4265
  561TIP3    H2 1648  -0.002   0.329   4.485  0.6264 -0.6294  0.4421
  562TIP3   OH2 1649   0.920   0.337   0.212  0.7335  0.1787  0.1728
  562TIP3    H1 1650   0.828   0.314   0.227  0.4984  1.0459  0.1386
  562TIP3    H2 1651   0.931   0.420   0.259  1.3816  0.2932 -0.1801
  563TIP3   OH2 1652   3.523   4.821   3.828 -0.7788  0.4870  0.3361
  563TIP3    H1 1653   3.554   4.894   3.774 -0.0818 -1.1006 -1.5013
  563TIP3    H2 1654   3.591   4.754   3.818 -1.7763 -0.7123  1.3645
  564TIP3   OH2 1655   6.918   2.091   0.042 -0.3352  0.7231 -0.2245
  564TIP3    H1 1656   6.899   2.171  -0.006 -2.2487 -0.1403 -1.0196
  564TIP3    H2 1657   6.957   2.033  -0.023  0.7304  0.8693  0.2651
  565TIP3   OH2 1658   3.386   1.980   0.696  0.0889  0.3045 -0.1315
  565TIP3    H1 1659   3.329   1.935   0.632  0.3391 -1.9542  1.1118
  565TIP3    H2 1660   3.389   1.920   0.771  0.0804  2.6827  1.9099
  566TIP3   OH2 1661   2.922   4.611   3.591  0.2357  0.3522  0.6644
  566TIP3    H1 1662   3.004   4.617   3.640 -0.5986  0.9049  2.0609
  566TIP3    H2 1663   2.860   4.661   3.643 -0.9917 -0.0533 -0.3686
  567TIP3   OH2 1664   5.902   1.556   1.100  0.0247 -0.2245 -0.0734
  567TIP3    H1 1665   5.900   1.638   1.151  4.4365  0.0651 -0.0090
  567TIP3    H2 1666   5.930   1.490   1.162  0.3669 -0.9774 -1.0127
  568TIP3   OH2 1667   2.936   4.880   4.982 -0.3658  0.2987 -0.1149
  568TIP3    H1 1668   3.019   4.918   4.952  0.1491 -1.3833 -0.9774
  568TIP3    H2 1669   2.953   4.852   5.072  0.3874 -0.9706 -0.6167
  569TIP3   OH2 1670   2.943   0.267   5.443 -0.1547  0.1719 -0.5573
  569TIP3    H1 1671   3.003   0.298   5.511  2.6450 -2.4735 -1.5944
  569TIP3    H2 1672   2.949   0.334   5.375 -0.2722  1.1118  0.3196
  570TIP3   OH2 1673   4.234   0.119   2.014  0.2973  0.1228 -0.0093
  570TIP3    H1 1674   4.177   0.195   2.025  1.9715  1.7304 -1.6261
  570TIP3    H2 1675   4.270   0.129   1.926  3.1554 -0.6678  0.9594
  571TIP3   OH2 1676   0.304   4.949   2.975 -0.1058 -0.4141 -0.4753
  571TIP3    H1 1677   0.217   4.984   2.956  0.0008 -0.3471 -0.8537
  571TIP3    H2 1678   0.292   4.899   3.056 -0.6722 -1.0560 -0.9421
  572TIP3   OH2 1679   5.643   3.729   5.490 -0.2734  0.1087 -0.4132
  572TIP3    H1 1680   5.698   3.661   5.528  1.0103  0.4900 -1.5314
  572TIP3    H2 1681   5.700   3.805   5.482 -0.9986  0.5678 -1.4758
  573TIP3   OH2 1682   6.284   0.522   5.150 -0.0618  0.0371 -0.4824
  573TIP3    H1 1683   6.203   0.513   5.099 -1.8689  1.4781  1.8921
  573TIP3    H2 1684   6.297   0.435   5.189  0.3911 -0.6037 -2.0009
  574TIP3   OH2 1685   2.328   0.555   0.238 -0.1765  0.3841  0.1450
  574TIP3    H1 1686   2.339   0.462   0.257  3.2029  0.4358 -0.9285
  574TIP3    H2 1687   2.242   0.576   0.273  0.1784 -2.4090  3.2314
  575TIP3   OH2 1688   6.736   3.835   3.670 -0.4294  0.3687 -0.7711
  575TIP3    H1 1689   6.723   3.786   3.751 -0.3043  1.2941 -0.1839
  575TIP3    H2 1690   6.830   3.828   3.653 -0.2738  1.0976 -0.2350
  576TIP3   OH2 1691   3.292   4.490   4.922  0.4274  0.2316  0.4779
  576TIP3    H1 1692   3.339   4.431   4.981 -0.5873 -0.8274  0.2553
  576TIP3    H2 1693   3.360   4.534   4.873  1.2027 -1.6447 -0.2107
  577TIP3   OH2 1694   1.382   5.091   3.002  0.0277 -0.0683  0.1953
  577TIP3    H1 1695   1.314   5.025   3.017 -0.4683  0.3141 -0.3249
  577TIP3    H2 1696   1.365   5.122   2.913  2.4822 -1.8400 -1.0089
  578TIP3   OH2 1697   6.951   5.207   0.342  0.4587  0.0619 -0.5393
  578TIP3    H1 1698   7.011   5.220   0.269  0.1002  0.4258 -0.7775
  578TIP3    H2 1699   6.986   5.263   0.412  0.9449 -0.4840 -0.3427
  579TIP3   OH2 1700   1.242   0.816   2.516  0.4382 -0.5473 -0.3602
  579TIP3    H1 1701   1.155   0.776   2.517 -0.1039  0.4682  2.7505
  579TIP3    H2 1702   1.284   0.786   2.597  1.8364  1.3113 -0.3271
  580TIP3   OH2 1703   4.863   0.319   3.014  0.1667  0.2014 -0.5800
  580TIP3    H1 1704   4.939   0.354   3.060  1.2785 -1.6425 -0.9225
  580TIP3    H2 1705   4.822   0.260   3.077 -0.8925  1.0012 -0.4825
  581TIP3   OH2 1706   0.217   3.638   2.657 -0.2108  0.1752  0.3650
  581TIP3    H1 1707   0.234   3.651   2.564 -2.4113 -0.3238 -0.1607
  581TIP3    H2 1708   0.293   3.677   2.701  0.6896  0.7632 -1.6085
  582TIP3   OH2 1709   2.746   5.085   4.411 -0.4923 -0.8593  0.6589
  582TIP3    H1 1710   2.682   5.049   4.472 -0.3967 -0.9796  0.6892
  582TIP3    H2 1711   2.709   5.168   4.383 -1.3549 -1.5965 -0.4537
  583TIP3   OH2 1712   1.276   4.657   4.015  0.3984  0.2883 -0.2702
  583TIP3    H1 1713   1.226   4.586   4.056  0.2599  0.3916 -0.2622
  583TIP3    H2 1714   1.264   4.731   4.074  0.8610  0.2109 -0.0733
  584TIP3   OH2 1715   1.686   2.805   4.795  0.4378 -0.2677  0.0073
  584TIP3    H1 1716   1.757   2.839   4.741 -0.1975  0.1846 -0.5605
  584TIP3    H2 1717   1.629   2.758   4.734 -0.4319  0.4797  0.2114
  585TIP3   OH2 1718   6.591   1.371   2.617 -0.1985  0.6996  0.1345
  585TIP3    H1 1719   6.581   1.465   2.630  0.1956  0.9092 -0.9985
  585TIP3    H2 1720   6.686   1.358   2.610 -0.3113  0.4216 -1.0700
  586TIP3   OH2 1721   1.692   3.179   3.412  0.5939 -0.4100  0.2189
  586TIP3    H1 1722   1.650   3.107   3.365  1.0798 -1.9432  2.0181
  586TIP3    H2 1723   1.786   3.159   3.408  1.1215  2.0186 -2.2007
  587TIP3   OH2 1724   1.821   3.606   3.305 -0.2624 -0.3708 -0.0147
  587TIP3    H1 1725   1.851   3.546   3.373  0.4133  0.8677  0.8166
  587TIP3    H2 1726   1.894   3.612   3.243 -1.1032 -1.9736 -1.2348
  588TIP3   OH2 1727   1.506   6.348   4.545  0.4208  0.2413  0.2881
  588TIP3    H1 1728   1.547   6.435   4.546  1.1754 -0.0685 -1.1454
  588TIP3    H2 1729   1.573   6.289   4.580 -0.0400  0.2053  1.1255
  589TIP3   OH2 1730   2.015   3.445   2.636 -0.4473  0.2161 -0.7689
  589TIP3    H1 1731   2.102   3.420   2.666 -0.4440  1.6346  0.5125
  589TIP3    H2 1732   1.955   3.391   2.687 -0.3662  0.7225 -0.1329
  590TIP3   OH2 1733   5.049   6.503   0.037  0.3355 -0.2114 -0.6619
  590TIP3    H1 1734   5.140   6.503   0.007  0.4457 -1.4058 -0.4004
  590TIP3    H2 1735   5.012   6.585   0.005  1.8286  0.8542  0.2196
  591TIP3   OH2 1736   0.797   5.518   4.139 -0.0991 -0.2073 -0.2134
  591TIP3    H1 1737   0.836   5.464   4.208  0.9300  0.7009 -0.0593
  591TIP3    H2 1738   0.710   5.480   4.126  0.1904 -1.2245  0.6423
  592TIP3   OH2 1739   4.358   6.126   1.875  0.8053 -0.2483 -0.9478
  592TIP3    H1 1740   4.432   6.187   1.866  0.8907 -0.4592 -1.7907
  592TIP3    H2 1741   4.343   6.121   1.969  1.9515 -0.3002 -0.7473
  593TIP3   OH2 1742   5.553   5.488   0.965 -0.3998 -0.4104  0.0983
  593TIP3    H1 1743   5.584   5.549   1.032  0.3479 -1.9366  1.1940
  593TIP3    H2 1744   5.506   5.543   0.903  1.5415  1.5049  0.2086
  594TIP3   OH2 1745   6.465   5.340   5.230 -0.1021  0.0841  0.4674
  594TIP3    H1 1746   6.497   5.395   5.158 -0.3511  1.6265  1.4879
  594TIP3    H2 1747   6.544   5.306   5.272  0.0431 -1.4208 -0.9202
  595TIP3   OH2 1748   1.637   5.333   3.780  0.3307 -0.4403 -0.5552
  595TIP3    H1 1749   1.553   5.326   3.826  1.2456 -0.7512  1.1712
  595TIP3    H2 1750   1.616   5.317   3.688 -1.4028 -1.0952 -0.0786
  596TIP3   OH2 1751   5.319   1.841   5.037  0.6386 -0.5619 -0.1632
  596TIP3    H1 1752   5.289   1.882   4.956  0.7722 -2.3771 -1.1769
  596TIP3    H2 1753   5.240   1.829   5.089  0.4820  0.1694 -0.2300
  597TIP3   OH2 1754   1.705   4.965   1.859  0.3103 -0.1680 -0.2571
  597TIP3    H1 1755   1.647   5.008   1.796  1.5285 -0.0365 -1.3458
  597TIP3    H2 1756   1.689   4.872   1.848  1.4301 -0.2146 -1.7296
  598TIP3   OH2 1757   6.428   6.515   2.575 -0.0552  0.5288 -0.2128
  598TIP3    H1 1758   6.476   6.589   2.538 -0.1351 -0.0590 -1.5197
  598TIP3    H2 1759   6.454   6.440   2.522 -1.6182 -0.0010 -0.2712
  599TIP3   OH2 1760   0.245   6.226   3.089  0.0792 -0.9090  0.3987
  599TIP3    H1 1761   0.222   6.164   3.158 -2.2145 -0.4414  0.1317
  599TIP3    H2 1762   0.167   6.230   3.033  1.0110  0.4971 -0.8728
  600TIP3   OH2 1763   0.562   4.305   4.545  0.1055 -0.5400  0.0588
  600TIP3    H1 1764   0.572   4.400   4.545 -0.3908 -0.4841  0.6141
  600TIP3    H2 1765   0.613   4.276   4.621 -0.5519 -0.6239  0.4730
  601TIP3   OH2 1766   3.841   4.003   1.972 -0.2884 -0.0135 -0.1758
  601TIP3    H1 1767   3.876   3.986   1.885  0.6712  0.5168  0.0820
  601TIP3    H2 1768   3.804   3.920   2.000  2.6822 -1.3004  0.3593
  602TIP3   OH2 1769   0.634   0.563   3.653  0.5045  0.1089  0.6805
  602TIP3    H1 1770   0.673   0.487   3.610 -2.0867 -1.2099  0.4566
  602TIP3    H2 1771   0.625   0.537   3.745  1.7665  1.1169  1.1191
  603TIP3   OH2 1772   0.038   5.168   0.342 -0.6309  0.3387 -0.5446
  603TIP3    H1 1773   0.026   5.227   0.268 -0.2247  0.6811 -0.3392
  603TIP3    H2 1774   0.111   5.112   0.316 -1.0768 -0.1476 -0.7804
  604TIP3   OH2 1775   3.227   2.070   3.762 -0.2108  0.0822 -0.0518
  604TIP3    H1 1776   3.242   2.164   3.749 -1.4308  0.0232 -2.5095
  604TIP3    H2 1777   3.295   2.027   3.710 -0.5308 -0.3715 -0.1037
  605TIP3   OH2 1778   6.629   1.064   0.023  0.1998 -0.0559 -0.1133
  605TIP3    H1 1779   6.659   1.093  -0.064 -0.0831 -2.6003 -1.1568
  605TIP3    H2 1780   6.684   1.112   0.084 -0.2847  2.6258 -1.5944
  606TIP3   OH2 1781   5.042   0.988   0.710  0.1464  0.9847 -0.3747
  606TIP3    H1 1782   5.095   1.050   0.661  2.7520 -1.1345 -0.4997
  606TIP3    H2 1783   5.086   0.981   0.795 -1.7032  1.3221  0.6504
  607TIP3   OH2 1784   5.583   6.816   5.556  0.4085 -0.8155  0.1431
  607TIP3    H1 1785   5.558   6.744   5.498  1.7683  0.0102 -1.5577
  607TIP3    H2 1786   5.560   6.785   5.644  0.6955 -3.2099 -0.5629
  608TIP3   OH2 1787   4.883   6.041   0.177 -0.3188 -0.3090 -0.1666
  608TIP3    H1 1788   4.872   6.136   0.174 -0.3148 -0.2361  1.2437
  608TIP3    H2 1789   4.799   6.008   0.209  0.3430 -0.5778  1.3769
  609TIP3   OH2 1790   3.318   0.605   3.898  0.2642 -0.1720  1.1391
  609TIP3    H1 1791   3.254   0.590   3.966 -0.8536  0.6537  0.3031
  609TIP3    H2 1792   3.308   0.697   3.874  3.0059  0.5212  2.2125
  610TIP3   OH2 1793   0.554   4.697   4.767  0.1318  0.1073  0.1961
  610TIP3    H1 1794   0.591   4.637   4.832  2.3937  0.0529 -1.0338
  610TIP3    H2 1795   0.620   4.765   4.757  0.4966 -0.5768 -2.9525
  611TIP3   OH2 1796   1.540   2.584   4.711 -0.3145  0.4169  0.3170
  611TIP3    H1 1797   1.464   2.614   4.661 -0.2072  0.8519  0.4118
  611TIP3    H2 1798   1.574   2.509   4.661 -0.1743  0.8819 -0.2957
  612TIP3   OH2 1799   6.591   3.162   4.995  0.7461  0.0105 -0.1504
  612TIP3    H1 1800   6.506   3.146   5.036  1.5798  1.4383  2.4245
  612TIP3    H2 1801   6.586   3.254   4.967  1.1333 -0.1707 -0.8173
  613TIP3   OH2 1802   5.237   3.075   2.351  0.2709 -0.0945  0.3399
  613TIP3    H1 1803   5.166   3.101   2.294 -0.0382 -1.1195  0.2267
  613TIP3    H2 1804   5.212   2.987   2.382  0.3366  0.4888  2.1865
  614TIP3   OH2 1805   1.712   4.340   1.622 -0.0964  0.1585 -0.2017
  614TIP3    H1 1806   1.634   4.381   1.585  1.5032  2.3244 -1.4149
  614TIP3    H2 1807   1.758   4.304   1.546  1.2587  1.0911  0.1334
  615TIP3   OH2 1808   2.778   2.682   0.228 -0.6555 -0.0057 -0.3691
  615TIP3    H1 1809   2.868   2.665   0.255 -1.0039 -0.8157  0.3176
  615TIP3    H2 1810   2.735   2.596   0.231 -1.6951  0.5127  0.2642
  616TIP3   OH2 1811   5.347   3.921   1.762  0.4215  0.1836 -0.1506
  616TIP3    H1 1812   5.429   3.944   1.805  0.6662  0.7541 -0.9068
  616TIP3    H2 1813   5.351   3.826   1.751  1.2642  0.2736 -0.7365
  617TIP3   OH2 1814   1.112   3.466   0.945  0.1855 -0.7334  0.2030
  617TIP3    H1 1815   1.163   3.498   0.871  0.1138 -0.7614  0.1414
  617TIP3    H2 1816   1.141   3.375   0.957  1.0292 -0.3795  0.9342
  618TIP3   OH2 1817   2.771   4.809   5.636  0.4041  0.4823 -0.4501
  618TIP3    H1 1818   2.768   4.751   5.712 -0.3853  1.4212  0.2667
  618TIP3    H2 1819   2.779   4.750   5.561 -0.7500 -0.5783  0.2268
  619TIP3   OH2 1820   6.905   0.278   4.828  0.3368  0.0748 -0.0202
  619TIP3    H1 1821   6.984   0.226   4.844 -0.6287 -1.6945 -0.7077
  619TIP3    H2 1822   6.861   0.280   4.913  0.6868  0.3015  0.1578
  620TIP3   OH2 1823   4.871   1.532   4.497 -0.1490 -0.0262 -0.3519
  620TIP3    H1 1824   4.849   1.536   4.591  1.6533 -1.0413  0.1507
  620TIP3    H2 1825   4.829   1.451   4.467 -0.3222  0.0454 -0.3044
  621TIP3   OH2 1826   4.220   6.485   4.539 -0.0575 -0.1272  0.3244
  621TIP3    H1 1827   4.157   6.474   4.609  1.0554 -1.6471  1.1573
  621TIP3    H2 1828   4.297   6.523   4.582  0.1986  0.0867 -0.3147
  622TIP3   OH2 1829   6.237   0.826   1.912 -0.5732 -0.1492 -0.2733
  622TIP3    H1 1830   6.147   0.813   1.883 -1.1257  1.7442  0.4592
  622TIP3    H2 1831   6.258   0.916   1.887  0.5599 -0.0345  0.9703
  623TIP3   OH2 1832   0.269   5.977   3.241  0.4381 -0.3394  0.1776
  623TIP3    H1 1833   0.222   5.896   3.262  1.0287 -1.1154 -1.3819
  623TIP3    H2 1834   0.322   5.993   3.319  0.6821 -1.7285  0.3376
  624TIP3   OH2 1835   6.472   0.717   1.796  0.0097  0.0455 -0.7358
  624TIP3    H1 1836   6.383   0.751   1.805 -0.6179 -1.8867  0.9927
  624TIP3    H2 1837   6.464   0.643   1.736  0.5743  0.1846 -0.9978
  625TIP3   OH2 1838   5.358   4.783   1.632  0.8076 -0.6640 -0.0938
  625TIP3    H1 1839   5.446   4.812   1.653  0.1242  0.8423  0.8041
  625TIP3    H2 1840   5.368   4.737   1.548  2.5956 -1.4922  0.5219
  626TIP3   OH2 1841   5.687   2.067   3.929  0.0034 -0.2291 -0.1130
  626TIP3    H1 1842   5.664   2.154   3.964  3.3004 -0.5325  3.4137
  626TIP3    H2 1843   5.751   2.086   3.860 -0.0454  0.1406 -0.0628
  627TIP3   OH2 1844   1.059   2.229   1.938 -0.4528  0.5801  0.0742
  627TIP3    H1 1845   1.047   2.250   2.030  1.5774 -2.5333  1.2319
  627TIP3    H2 1846   1.022   2.141   1.928  2.9033 -0.8887 -0.9511
  628TIP3   OH2 1847   3.049   2.193   0.416  0.6906  0.1379  0.2413
  628TIP3    H1 1848   3.057   2.177   0.510  3.0843  0.4737  0.1484
  628TIP3    H2 1849   3.016   2.111   0.380  0.5750 -0.2796  1.2708
  629TIP3   OH2 1850   0.973   1.814   2.304 -0.7367 -0.3641 -0.1723
  629TIP3    H1 1851   0.961   1.729   2.262 -2.3588 -0.4759  0.4523
  629TIP3    H2 1852   0.901   1.868   2.271  0.2489  0.7657 -0.5313
  630TIP3   OH2 1853   3.194   4.938   0.737  0.6752 -0.5096  0.0067
  630TIP3    H1 1854   3.253   4.873   0.699  0.3001 -1.4921  1.0387
  630TIP3    H2 1855   3.186   5.006   0.671  2.4124 -0.6997 -0.4226
  631TIP3   OH2 1856   4.937   5.844   1.868  0.1313  0.0348  0.5332
  631TIP3    H1 1857   4.991   5.775   1.828  0.3818 -0.3452  1.5055
  631TIP3    H2 1858   4.921   5.906   1.797  0.9399 -0.4001 -0.0424
  632TIP3   OH2 1859   3.544   2.645   5.364  0.2929  0.2550 -0.2860
  632TIP3    H1 1860   3.510   2.626   5.277 -0.9938 -0.2385  0.2926
  632TIP3    H2 1861   3.532   2.739   5.375  0.7118  0.3677 -0.7229
  633TIP3   OH2 1862   5.551   3.811   2.188  0.6222 -0.0353 -0.2147
  633TIP3    H1 1863   5.596   3.880   2.139 -0.0984  0.8505  0.3305
  633TIP3    H2 1864   5.578   3.825   2.279  1.0223 -0.9188 -0.1924
  634TIP3   OH2 1865   0.574   4.487   2.564  0.2872  0.4107 -0.0982
  634TIP3    H1 1866   0.542   4.511   2.478  0.6998  3.7015  0.5433
  634TIP3    H2 1867   0.669   4.477   2.552  0.2041 -0.3080 -0.2186
  635TIP3   OH2 1868   4.793   1.475   1.053 -0.1900 -0.4557 -0.1263
  635TIP3    H1 1869   4.758   1.440   1.135 -2.7951  0.0344 -0.9341
  635TIP3    H2 1870   4.752   1.421   0.985  1.9030 -0.8332 -1.1409
  636TIP3   OH2 1871   5.785   3.436   2.722 -0.2490  0.2591  0.4948
  636TIP3    H1 1872   5.762   3.408   2.632 -0.1344  1.2308  0.1586
  636TIP3    H2 1873   5.738   3.374   2.778 -0.3325 -0.3568 -0.2335
  637TIP3   OH2 1874   2.853   4.028   2.198  0.4666 -0.2473  0.6825
  637TIP3    H1 1875   2.860   4.043   2.292  0.0716  1.5441  0.4576
  637TIP3    H2 1876   2.882   4.110   2.158  0.9175 -1.0842 -0.7787
  638TIP3   OH2 1877   3.551   4.332   5.385  0.6581 -0.5276 -0.9497
  638TIP3    H1 1878   3.499   4.323   5.465  0.3357 -0.6208 -1.1650
  638TIP3    H2 1879   3.638   4.357   5.415  0.4128 -0.0695 -0.5926
  639TIP3   OH2 1880   3.795   3.835   5.555 -0.5190  0.1824 -0.4235
  639TIP3    H1 1881   3.815   3.834   5.462  0.1869 -1.4680 -0.2868
  639TIP3    H2 1882   3.747   3.916   5.568 -1.2264  0.1294 -2.3470
  640TIP3   OH2 1883   1.191   0.896   4.653 -0.0174  0.7554  0.4695
  640TIP3    H1 1884   1.167   0.908   4.745 -0.1127 -0.6041  0.6358
  640TIP3    H2 1885   1.221   0.806   4.648 -1.0303  0.4773 -1.0617
  641TIP3   OH2 1886   0.347   2.758   4.481 -0.5085  0.1797  0.0998
  641TIP3    H1 1887   0.386   2.676   4.512  0.2298  0.7319  0.6519
  641TIP3    H2 1888   0.421   2.816   4.466 -1.0334  0.7786 -0.2211
  642TIP3   OH2 1889   2.805   3.940   2.888  0.7595  0.0866  0.6972
  642TIP3    H1 1890   2.879   3.954   2.947  1.4787 -0.1608 -0.1324
  642TIP3    H2 1891   2.783   4.027   2.856  1.5752  0.0126 -0.0947
  643TIP3   OH2 1892   2.826   3.355   5.023 -0.1826  0.2881 -0.0915
  643TIP3    H1 1893   2.739   3.358   5.062 -0.1011  0.7243  0.0589
  643TIP3    H2 1894   2.824   3.277   4.966 -0.5837  0.1521  0.1038
  644TIP3   OH2 1895   5.645   2.957   2.245 -0.0202  0.1769  0.5572
  644TIP3    H1 1896   5.625   2.935   2.154  0.7259 -0.3036  0.5003
  644TIP3    H2 1897   5.568   3.004   2.276 -0.6322 -0.3824 -0.0757
  645TIP3   OH2 1898   1.693   2.216   1.975  0.0728  0.7164 -0.1616
  645TIP3    H1 1899   1.621   2.174   2.020  0.6226 -1.5198 -1.2402
  645TIP3    H2 1900   1.681   2.193   1.883  1.1806  1.8024 -0.6117
  646TIP3   OH2 1901   5.828   4.986   5.813 -0.0494  0.0045  0.7947
  646TIP3    H1 1902   5.746   4.990   5.765  0.6450 -1.3844 -0.6014
  646TIP3    H2 1903   5.872   5.068   5.793 -1.5852  1.3984  2.6466
  647TIP3   OH2 1904   4.284   4.912   0.886  0.4959 -0.1840  0.1729
  647TIP3    H1 1905   4.292   4.922   0.981  2.8121 -1.0941  0.1513
  647TIP3    H2 1906   4.260   4.999   0.854 -0.9071 -0.0021  1.6149
  648TIP3   OH2 1907   5.720   3.457   5.537  0.0211 -0.5833  0.1236
  648TIP3    H1 1908   5.810   3.491   5.540 -0.4605  0.7037  1.3193
  648TIP3    H2 1909   5.699   3.454   5.444  1.5236 -1.5763 -0.2240
  649TIP3   OH2 1910   3.971   3.129   0.858 -0.1197 -0.0468  0.2513
  649TIP3    H1 1911   3.972   3.130   0.762 -0.6319 -0.8752  0.2317
  649TIP3    H2 1912   3.907   3.062   0.881 -1.9135  1.8723  1.1808
  650TIP3   OH2 1913   1.080   1.842   0.203  0.0320 -0.3539 -0.2244
  650TIP3    H1 1914   1.141   1.773   0.229 -0.3105 -0.4405  0.3626
  650TIP3    H2 1915   1.077   1.900   0.279  2.2029  1.6861 -1.5399
  651TIP3   OH2 1916   1.656   3.155   1.289  0.4420 -0.1579  0.2854
  651TIP3    H1 1917   1.635   3.196   1.373  2.1502  0.6167  0.3670
  651TIP3    H2 1918   1.613   3.210   1.224  1.4078  0.8778  0.4974
  652TIP3   OH2 1919   3.976   5.354   1.179 -0.4875  0.6210  0.0607
  652TIP3    H1 1920   4.039   5.287   1.206 -0.5297  0.0039 -1.2861
  652TIP3    H2 1921   3.950   5.397   1.261  0.4213 -0.2219  0.8193
  653TIP3   OH2 1922   4.307   4.430   3.382  0.1475 -0.4534 -0.2368
  653TIP3    H1 1923   4.393   4.469   3.367  0.1958 -0.2186  0.6243
  653TIP3    H2 1924   4.245   4.496   3.351  0.2576 -1.3527 -2.6397
  654TIP3   OH2 1925   1.868   6.497   5.704  0.4730  0.6745  0.2507
  654TIP3    H1 1926   1.844   6.440   5.631 -0.2475  0.8897  0.3148
  654TIP3    H2 1927   1.964   6.500   5.701  0.5527 -0.7658  0.4225
  655TIP3   OH2 1928   3.005   0.935   4.788  0.2724  0.1463  0.1889
  655TIP3    H1 1929   2.921   0.974   4.812  1.2299  2.6344 -0.2200
  655TIP3    H2 1930   3.070   0.983   4.840  1.6288 -0.0665 -1.2314
  656TIP3   OH2 1931   5.961   0.980   4.518  0.5721  0.0284  0.3082
  656TIP3    H1 1932   6.051   0.979   4.551  0.7271  1.7734  0.0379
  656TIP3    H2 1933   5.922   1.058   4.558  0.3686  1.5009 -2.5742
  657TIP3   OH2 1934   1.186   4.062   3.045  0.4709  0.6544 -0.7428
  657TIP3    H1 1935   1.230   4.107   2.973  0.0055  0.8287 -0.9173
  657TIP3    H2 1936   1.252   4.001   3.079  1.1787  1.6038 -0.3736
  658TIP3   OH2 1937   1.205   4.844   2.984  0.4239  0.0040 -0.0974
  658TIP3    H1 1938   1.184   4.783   3.055  2.5745 -1.2356 -0.4291
  658TIP3    H2 1939   1.121   4.858   2.939 -0.1801 -2.8234 -0.0671
  659TIP3   OH2 1940   2.971   6.549   0.565  0.7683  0.4891 -0.9988
  659TIP3    H1 1941   2.980   6.457   0.537 -0.2164 -0.3983  1.3452
  659TIP3    H2 1942   3.060   6.575   0.590  0.9636 -0.0038 -1.1593
  660TIP3   OH2 1943   4.064   1.404   0.505 -0.5153  0.1632  0.3787
  660TIP3    H1 1944   3.980   1.438   0.536  0.1687  1.2954  1.0714
  660TIP3    H2 1945   4.086   1.459   0.429 -0.1487  0.2307  0.5313
  661TIP3   OH2 1946   1.140   3.383   3.960  0.0740  0.3203 -0.0347
  661TIP3    H1 1947   1.166   3.473   3.938  1.4137 -0.1769 -0.6066
  661TIP3    H2 1948   1.177   3.368   4.047  0.5372  0.0807 -0.2656
  662TIP3   OH2 1949   5.089   2.821   3.209  0.1076  0.0016 -0.2349
  662TIP3    H1 1950   5.032   2.841   3.134 -0.6819  0.5319  0.4916
  662TIP3    H2 1951   5.134   2.904   3.226 -0.0543  0.0066  0.1641
  663TIP3   OH2 1952   5.141   6.797   0.099  0.0313  0.4975  0.4566
  663TIP3    H1 1953   5.194   6.820   0.175  0.7518 -1.3956  0.5737
  663TIP3    H2 1954   5.062   6.758   0.136  0.3932 -0.4453  0.2515
  664TIP3   OH2 1955   3.664   5.644   1.733 -0.5460  0.1932 -0.2303
  664TIP3    H1 1956   3.746   5.622   1.778 -0.5418 -2.2779 -1.3012
  664TIP3    H2 1957   3.614   5.693   1.798  0.4662 -1.0799  1.6190
  665TIP3   OH2 1958   0.084   1.818   2.709 -0.4986 -0.4161 -0.5592
  665TIP3    H1 1959   0.151   1.863   2.657 -0.3917 -1.4098 -1.3104
  665TIP3    H2 1960   0.029   1.889   2.744 -0.7953  0.2853 -2.3389
  666TIP3   OH2 1961   4.595   5.865   3.412 -0.4410  0.0908 -0.3417
  666TIP3    H1 1962   4.593   5.884   3.318 -0.7318 -1.4743 -0.6695
  666TIP3    H2 1963   4.686   5.846   3.431 -0.6975 -1.6476 -0.7565
  667TIP3   OH2 1964   3.740   1.784   3.113  0.0601  0.1304 -0.1047
  667TIP3    H1 1965   3.665   1.725   3.107 -0.4683  0.6840  0.7185
  667TIP3    H2 1966   3.801   1.741   3.172  0.0340  0.0390 -0.1451
  668TIP3   OH2 1967   0.935   5.051   5.295 -0.6868  0.0806 -0.6827
  668TIP3    H1 1968   0.943   5.136   5.338 -0.2653 -1.0753  1.7064
  668TIP3    H2 1969   0.844   5.025   5.311 -0.7722  0.0059 -1.2786
  669TIP3   OH2 1970   4.967   3.013   0.918 -0.4959  0.2765  0.1208
  669TIP3    H1 1971   5.027   3.048   0.852  0.5707  0.1777  1.0236
  669TIP3    H2 1972   4.983   3.066   0.996 -0.8380 -0.4353  0.6857
  670TIP3   OH2 1973   2.196   5.414   3.502  0.6317 -0.3422  0.2125
  670TIP3    H1 1974   2.215   5.466   3.580  2.1778  0.2824 -0.5183
  670TIP3    H2 1975   2.267   5.436   3.441 -0.3101 -1.0957 -1.2281
  671TIP3   OH2 1976   1.051   2.602  -0.020  0.2998  0.1980 -0.1246
  671TIP3    H1 1977   1.142   2.613   0.006  1.1140  1.1168 -3.0136
  671TIP3    H2 1978   1.001   2.653   0.045  2.0265  1.4875  0.2564
  672TIP3   OH2 1979   6.585   2.551   1.755  0.1518 -0.4850  0.1635
  672TIP3    H1 1980   6.587   2.506   1.671 -1.0718  0.1115 -0.2125
  672TIP3    H2 1981   6.492   2.567   1.772  0.4631  0.8100  0.8602
  673TIP3   OH2 1982   0.599   5.863   4.478 -0.3237 -0.0597  0.3681
  673TIP3    H1 1983   0.593   5.933   4.543  0.0152 -0.5214  0.9043
  673TIP3    H2 1984   0.508   5.838   4.461 -0.3863 -0.9288  1.7700
  674TIP3   OH2 1985   6.514   4.805   1.988  0.1988  0.5107  0.2149
  674TIP3    H1 1986   6.455   4.822   2.061 -0.3956 -0.8370  0.0893
  674TIP3    H2 1987   6.457   4.767   1.920  0.8700  1.0291 -0.6658
  675TIP3   OH2 1988   6.587   3.434   5.050 -0.3289  0.4470  0.4206
  675TIP3    H1 1989   6.633   3.514   5.026  0.2001 -0.4557 -1.7470
  675TIP3    H2 1990   6.497   3.449   5.020  0.2037 -0.4608 -1.7767
  676TIP3   OH2 1991   3.305   3.436   4.968 -0.4503 -0.0437  0.0937
  676TIP3    H1 1992   3.235   3.473   5.022  1.6197  0.3876  2.7619
  676TIP3    H2 1993   3.365   3.510   4.953  1.5288 -1.2083  1.6682
  677TIP3   OH2 1994   1.035   5.593   4.924  0.1131  0.0072 -0.4298
  677TIP3    H1 1995   1.093   5.531   4.878  0.1901 -1.3622  1.4113
  677TIP3    H2 1996   0.949   5.551   4.922  0.0032  0.1947  0.1752
  678TIP3   OH2 1997   0.858   3.748   4.165 -0.2452 -0.2973  0.2778
  678TIP3    H1 1998   0.931   3.733   4.225  0.0354 -1.5084 -0.3385
  678TIP3    H2 1999   0.833   3.660   4.136 -0.9303  0.2177 -0.7178
  679TIP3   OH2 2000   2.143   5.983   3.855  0.4297  0.1005 -0.1216
  679TIP3    H1 2001   2.112   6.067   3.821 -0.2209 -1.2909 -3.3342
  679TIP3    H2 2002   2.063   5.932   3.868  0.8349 -0.1640  1.5340
  680TIP3   OH2 2003   1.724   2.775   1.887  0.0963  0.1088  0.6004
  680TIP3    H1 2004   1.704   2.869   1.882 -1.7327 -0.2664  0.0066
  680TIP3    H2 2005   1.691   2.748   1.972 -1.3691 -0.3899 -0.1011
  681TIP3   OH2 2006   6.077   1.520   2.112 -0.1937  0.3047  0.4946
  681TIP3    H1 2007   6.065   1.533   2.017  3.4397  0.0976 -0.1516
  681TIP3    H2 2008   6.076   1.425   2.123 -2.4141  0.3586  1.0278
  682TIP3   OH2 2009   3.704   4.605   1.494 -0.0774 -0.6625  0.1219
  682TIP3    H1 2010   3.672   4.660   1.423 -1.9902 -0.4476  1.0888
  682TIP3    H2 2011   3.625   4.579   1.541  1.0746 -1.4923  1.6632
  683TIP3   OH2 2012   0.417   5.670   2.345  0.0101  0.2798  0.5735
  683TIP3    H1 2013   0.384   5.585   2.317 -1.2843  0.9674 -0.0695
  683TIP3    H2 2014   0.340   5.727   2.346  0.6533  1.1864  2.0712
  684TIP3   OH2 2015   0.839   1.339   3.729  0.0869 -0.0452  0.5742
  684TIP3    H1 2016   0.782   1.304   3.661  0.2539  2.1979 -0.8443
  684TIP3    H2 2017   0.784   1.401   3.777  0.8782  1.0158  0.1614
  685TIP3   OH2 2018   4.472   6.558   2.229 -0.4064  0.5069 -0.3798
  685TIP3    H1 2019   4.518   6.620   2.171 -2.2312  0.9774 -1.4132
  685TIP3    H2 2020   4.523   6.478   2.223  0.6339  1.1873 -0.9891
  686TIP3   OH2 2021   6.661   4.111   0.929  0.1543  0.0669 -0.3567
  686TIP3    H1 2022   6.701   4.164   0.860 -1.5877 -0.9250 -2.2169
  686TIP3    H2 2023   6.569   4.138   0.930  0.0834 -0.1135  1.4504
  687TIP3   OH2 2024   2.158   2.705   4.382 -0.3410 -0.0755  0.4728
  687TIP3    H1 2025   2.142   2.613   4.361 -0.2349 -0.2308  1.0407
  687TIP3    H2 2026   2.254   2.713   4.383 -0.3423 -0.0809  0.9095
  688TIP3   OH2 2027   5.580   3.078   0.339  0.2359 -0.2462 -0.3346
  688TIP3    H1 2028   5.509   3.039   0.390  1.1912  0.6505  1.7831
  688TIP3    H2 2029   5.538   3.145   0.286 -0.6941 -0.7198 -0.2187
  689TIP3   OH2 2030   3.455   1.401   4.833  0.6296  0.4930  0.3050
  689TIP3    H1 2031   3.376   1.426   4.879  0.1010 -0.9515  0.2485
  689TIP3    H2 2032   3.433   1.410   4.740  0.4496 -0.0793  0.2852
  690TIP3   OH2 2033   5.628   4.642   1.125 -0.5041 -0.3601  0.7048
  690TIP3    H1 2034   5.560   4.581   1.152  0.2865 -2.6688 -2.0271
  690TIP3    H2 2035   5.594   4.683   1.045  0.9859 -1.0976 -0.3648
  691TIP3   OH2 2036   2.348   6.615   0.504 -0.0456  0.0398  0.1485
  691TIP3    H1 2037   2.324   6.531   0.543 -0.5305  0.0671 -0.0870
  691TIP3    H2 2038   2.298   6.619   0.423 -0.2338  0.6811  0.2938
  692TIP3   OH2 2039   5.747   4.844   0.721 -0.5521 -0.0871  0.1559
  692TIP3    H1 2040   5.795   4.838   0.639  1.1322  0.2695  1.0854
  692TIP3    H2 2041   5.790   4.914   0.770  0.2507 -2.0572  2.4683
  693TIP3   OH2 2042   2.360   2.492   4.559  0.5168  0.2953 -0.5412
  693TIP3    H1 2043   2.313   2.464   4.481  2.3785 -1.8159 -1.0399
  693TIP3    H2 2044   2.345   2.421   4.622  1.8836  0.2111 -0.2722
  694TIP3   OH2 2045   2.882   5.502   3.109  0.0049  0.0895 -0.1391
  694TIP3    H1 2046   2.860   5.413   3.080  0.8414  0.3500 -1.6593
  694TIP3    H2 2047   2.860   5.503   3.202  2.6030 -2.6267  0.6677
  695TIP3   OH2 2048   5.224   6.572   2.036  0.0395  0.2314  0.1131
  695TIP3    H1 2049   5.137   6.561   1.996 -1.2622  2.2433  2.1114
  695TIP3    H2 2050   5.274   6.619   1.969 -2.0738  3.5226  0.5820
  696TIP3   OH2 2051   1.957   5.518   1.716 -0.1178 -0.2308 -0.1163
  696TIP3    H1 2052   2.051   5.536   1.729 -0.1093  0.4297 -1.0119
  696TIP3    H2 2053   1.917   5.536   1.801  0.6062 -0.8240  0.3658
  697TIP3   OH2 2054   0.226   2.022   1.432  0.3982 -0.4241  0.5169
  697TIP3    H1 2055   0.186   1.946   1.389 -0.9340  0.2833  0.4569
  697TIP3    H2 2056   0.277   2.065   1.364 -0.0211 -0.4645  0.1734
  698TIP3   OH2 2057   5.597   4.069   0.758 -0.0020 -0.2783  0.0469
  698TIP3    H1 2058   5.520   4.121   0.780  0.2064  0.0807 -0.0616
  698TIP3    H2 2059   5.576   4.028   0.674 -0.5908 -1.2309  0.6421
  699TIP3   OH2 2060   5.597   6.760   5.812 -0.1513  0.1519 -0.1844
  699TIP3    H1 2061   5.677   6.708   5.803 -0.9535 -0.9089 -1.5448
  699TIP3    H2 2062   5.626   6.842   5.853  1.7691  0.1509 -1.4416
  700TIP3   OH2 2063   0.164   0.518   0.886 -0.3641 -0.4903 -0.0646
  700TIP3    H1 2064   0.090   0.579   0.879 -0.1428 -0.2011  0.0642
  700TIP3    H2 2065   0.146   0.451   0.821 -0.0516  0.3167 -1.0192
  701TIP3   OH2 2066   3.784   0.439   5.168 -0.5832  0.1778  0.1313
  701TIP3    H1 2067   3.726   0.422   5.093  0.8837  0.4798 -1.1250
  701TIP3    H2 2068   3.794   0.353   5.210 -1.8857  0.1159  0.3561
  702TIP3   OH2 2069   3.742   2.373   1.830 -0.4726 -0.3632 -0.1615
  702TIP3    H1 2070   3.683   2.448   1.830 -1.1890 -0.6698  4.0831
  702TIP3    H2 2071   3.811   2.397   1.892  0.1344 -2.5841  0.1049
  703TIP3   OH2 2072   5.998   6.702   3.552  0.0878 -0.8440 -0.2254
  703TIP3    H1 2073   6.005   6.718   3.458 -0.8857 -0.6295 -0.2749
  703TIP3    H2 2074   6.072   6.748   3.590  0.2702 -0.6078 -0.8547
  704TIP3   OH2 2075   4.722   0.106   0.315  0.3571 -0.0952  0.1449
  704TIP3    H1 2076   4.696   0.018   0.287  0.9828  0.1685 -1.3158
  704TIP3    H2 2077   4.733   0.155   0.234  0.9870  1.0610  0.9099
  705TIP3   OH2 2078   3.890   1.525   2.063  0.1771  0.1511  0.1492
  705TIP3    H1 2079   3.835   1.519   1.985 -1.5677  0.8028  1.2434
  705TIP3    H2 2080   3.868   1.611   2.100  1.8799  0.3762  0.7120
  706TIP3   OH2 2081   4.266   3.265   0.418  0.0685 -0.3564 -0.3185
  706TIP3    H1 2082   4.348   3.313   0.423  0.5666 -1.2970  1.9360
  706TIP3    H2 2083   4.211   3.316   0.358  1.6802  1.1982 -0.5452
  707TIP3   OH2 2084   2.463   1.716   4.987  0.0174 -0.2909 -0.5816
  707TIP3    H1 2085   2.465   1.633   5.034  2.2100  0.5477  0.9835
  707TIP3    H2 2086   2.388   1.763   5.025 -0.0812 -0.8289 -0.0941
  708TIP3   OH2 2087   3.353   1.077   2.615  0.6600  0.2143  0.3476
  708TIP3    H1 2088   3.430   1.065   2.671  1.2655  1.7383 -0.1058
  708TIP3    H2 2089   3.378   1.147   2.555 -0.6162 -0.1818 -0.6776
  709TIP3   OH2 2090   5.083   5.058   1.551 -0.2925  0.1540 -0.4961
  709TIP3    H1 2091   5.044   5.011   1.624  0.2709 -0.6208 -0.6752
  709TIP3    H2 2092   5.014   5.116   1.519 -0.6077  0.3365  0.5055
  710TIP3   OH2 2093   1.360   0.949   1.932  0.0004 -0.5483  0.3284
  710TIP3    H1 2094   1.344   0.873   1.989 -0.1185  0.5088  1.7428
  710TIP3    H2 2095   1.417   0.915   1.864  2.3929 -1.2783  2.5243
  711TIP3   OH2 2096   1.436   5.045   0.451  0.0161  0.5791  0.5591
  711TIP3    H1 2097   1.424   4.950   0.450 -1.1111  0.7145 -0.0719
  711TIP3    H2 2098   1.504   5.059   0.517 -0.9062 -0.5369  1.8033
  712TIP3   OH2 2099   5.964   5.269   0.299  0.0468  0.0377  0.4134
  712TIP3    H1 2100   5.932   5.343   0.350  0.1505 -1.0326  2.0791
  712TIP3    H2 2101   6.029   5.227   0.355  1.4116 -0.2202 -1.2690
  713TIP3   OH2 2102   7.184   0.286   1.129  0.0504  0.4136  0.2443
  713TIP3    H1 2103   7.156   0.269   1.038  0.3151 -0.5634  0.3357
  713TIP3    H2 2104   7.204   0.199   1.164  0.7648  0.8692  0.9792
  714TIP3   OH2 2105   1.300   1.142   4.578  0.4821  0.3374  0.4601
  714TIP3    H1 2106   1.223   1.197   4.564 -0.4071 -0.2471  2.5934
  714TIP3    H2 2107   1.266   1.065   4.624  2.5539  0.8907  3.1799
  715TIP3   OH2 2108   2.416   6.016   1.054 -0.2670  0.2968 -0.4482
  715TIP3    H1 2109   2.430   6.110   1.069  0.8970  0.0790 -0.0233
  715TIP3    H2 2110   2.489   5.991   0.996 -1.7004  0.0410 -2.2368
  716TIP3   OH2 2111   3.523   4.581   4.802 -0.3746  0.0564  0.6844
  716TIP3    H1 2112   3.578   4.651   4.766  0.6558 -1.0230  0.0946
  716TIP3    H2 2113   3.579   4.537   4.866 -1.1100 -0.0687  1.2580
  717TIP3   OH2 2114   4.706   5.085   2.304 -0.0899  0.9666  0.1929
  717TIP3    H1 2115   4.712   5.178   2.284  0.6278  1.4062  2.1471
  717TIP3    H2 2116   4.690   5.082   2.399  2.0131 -0.8793  0.5819
  718TIP3   OH2 2117   1.578   5.996   3.995 -0.3741  0.3000  0.2643
  718TIP3    H1 2118   1.607   6.002   3.904 -1.0245  2.8758  0.1419
  718TIP3    H2 2119   1.499   6.050   3.998 -0.6198 -0.1084  2.2685
  719TIP3   OH2 2120   2.708   1.178   0.226  0.0315 -0.0203 -0.2617
  719TIP3    H1 2121   2.765   1.239   0.273 -1.0855  1.2645 -0.5389
  719TIP3    H2 2122   2.654   1.138   0.294 -1.4210  1.6635 -0.3667
  720TIP3   OH2 2123   6.103   2.968   2.413  0.0963 -0.3375 -0.3557
  720TIP3    H1 2124   6.179   2.910   2.423  0.0200 -0.3257  0.3980
  720TIP3    H2 2125   6.136   3.044   2.366  0.5436 -0.3614 -0.0887
  721TIP3   OH2 2126   3.687   2.293   5.673  0.0335 -0.4534  0.8955
  721TIP3    H1 2127   3.621   2.294   5.743 -0.9093 -0.2293  0.0346
  721TIP3    H2 2128   3.755   2.234   5.706 -1.5112 -2.2808  1.0210
  722TIP3   OH2 2129   6.756   1.669   4.350  0.1975 -0.0034  0.2215
  722TIP3    H1 2130   6.827   1.699   4.406 -0.3240  1.8726 -0.0549
  722TIP3    H2 2131   6.796   1.605   4.292  0.9814 -1.1741  1.9937
  723TIP3   OH2 2132   2.363   5.559   4.179  0.2398 -0.0193  0.0166
  723TIP3    H1 2133   2.401   5.609   4.251 -0.6310 -0.1887  0.6132
  723TIP3    H2 2134   2.434   5.547   4.117  0.0935  3.5369 -1.0533
  724TIP3   OH2 2135   3.268   5.073   0.325 -0.2085  0.1983  0.8411
  724TIP3    H1 2136   3.172   5.069   0.327 -0.2221  0.2246  0.2368
  724TIP3    H2 2137   3.292   5.102   0.413 -0.8058  1.2578  0.6689
  725TIP3   OH2 2138   7.103   1.085   1.221  0.2482  0.0385  0.4526
  725TIP3    H1 2139   7.120   1.140   1.297 -0.2300 -0.7202  1.1205
  725TIP3    H2 2140   7.047   1.015   1.254  0.3013 -0.4818 -0.5299
  726TIP3   OH2 2141   1.716   3.445   0.670 -0.0447 -0.8284 -0.3713
  726TIP3    H1 2142   1.675   3.507   0.609  0.7377  0.2483  0.1709
  726TIP3    H2 2143   1.792   3.411   0.622  1.1446  0.7623  0.3210
  727TIP3   OH2 2144   2.687   1.363   4.820 -0.2048  0.4271  0.2363
  727TIP3    H1 2145   2.719   1.274   4.834  0.3798  0.6809  0.5594
  727TIP3    H2 2146   2.592   1.356   4.825 -0.1251  0.3152  3.4617
  728TIP3   OH2 2147   1.513   4.221   1.995 -0.6372  0.6700 -0.3877
  728TIP3    H1 2148   1.475   4.133   2.000 -2.3562  1.4267  1.1229
  728TIP3    H2 2149   1.470   4.262   1.920 -1.5256  0.9318  0.2481
  729TIP3   OH2 2150   6.150   3.451   2.085  0.2600 -0.6640 -0.6833
  729TIP3    H1 2151   6.074   3.430   2.030 -0.3876 -4.4445  1.2616
  729TIP3    H2 2152   6.132   3.406   2.168  2.8349  1.7107  1.3638
  730TIP3   OH2 2153   0.453   3.179   2.230 -0.3582 -0.3100 -0.1203
  730TIP3    H1 2154   0.361   3.207   2.237 -0.2789 -0.1156  0.1640
  730TIP3    H2 2155   0.498   3.229   2.297 -0.1447 -0.8446  0.1420
  731TIP3   OH2 2156   4.438   2.157   4.639 -0.1701 -0.0636  0.3033
  731TIP3    H1 2157   4.496   2.111   4.578  0.6919  1.0040  0.2864
  731TIP3    H2 2158   4.485   2.155   4.722  0.1063  1.1737  0.1908
  732TIP3   OH2 2159   6.049   6.454   1.729 -0.2040  0.2691 -0.0111
  732TIP3    H1 2160   6.015   6.494   1.809  1.1739  1.7941 -0.1340
  732TIP3    H2 2161   5.972   6.439   1.674 -1.0483  0.1622  1.1801
  733TIP3   OH2 2162   0.822   4.381   3.249 -0.7544 -0.0555  0.1887
  733TIP3    H1 2163   0.822   4.368   3.154  0.6126 -1.8133  0.3706
  733TIP3    H2 2164   0.753   4.323   3.282 -0.1955 -0.6373  0.3633
  734TIP3   OH2 2165   2.864   2.363   0.942  0.3921  0.2395  0.3819
  734TIP3    H1 2166   2.907   2.421   1.006 -0.7236  1.6934 -0.1144
  734TIP3    H2 2167   2.891   2.398   0.857  0.0348 -0.2362  0.0709
  735TIP3   OH2 2168   6.848   5.028   3.979 -0.4707 -0.2837 -0.1657
  735TIP3    H1 2169   6.852   5.003   3.887 -0.7344  1.4337 -0.6681
  735TIP3    H2 2170   6.907   5.103   3.987 -1.4022  0.3759  0.7792
  736TIP3   OH2 2171   0.636   0.507   2.193 -0.6605 -0.1044 -0.5306
  736TIP3    H1 2172   0.646   0.589   2.144 -0.2398 -0.6210 -1.3454
  736TIP3    H2 2173   0.586   0.531   2.271  0.0975  1.0615 -0.3813
  737TIP3   OH2 2174   3.587   2.227   4.289  0.1035 -0.2212  0.4739
  737TIP3    H1 2175   3.657   2.227   4.354  0.0226 -0.0310  0.5616
  737TIP3    H2 2176   3.617   2.288   4.222 -0.6913  1.1148  1.2890
  738TIP3   OH2 2177   5.240   3.081   5.713 -0.1525 -0.0423 -0.2145
  738TIP3    H1 2178   5.260   3.052   5.624 -1.6963 -2.0439  0.0216
  738TIP3    H2 2179   5.325   3.100   5.752  0.6049  0.0952 -1.8503
  739TIP3   OH2 2180   6.720   2.072   2.002 -0.6298  0.3983 -0.4155
  739TIP3    H1 2181   6.682   2.086   2.088  0.9839  1.0748  0.2125
  739TIP3    H2 2182   6.813   2.093   2.012 -0.2545 -0.2435 -2.1310
  740TIP3   OH2 2183   6.144   4.601   4.793  0.3206 -0.3036  0.5454
  740TIP3    H1 2184   6.093   4.629   4.869 -0.4297 -1.1594  0.3725
  740TIP3    H2 2185   6.222   4.656   4.796 -0.0148  0.1567  1.5386
  741TIP3   OH2 2186   4.713   4.077   5.300 -0.2369 -0.2697 -0.5195
  741TIP3    H1 2187   4.762   4.074   5.382 -0.8126 -1.4480 -0.1991
  741TIP3    H2 2188   4.624   4.102   5.326 -0.1872  0.3377 -0.9114
  742TIP3   OH2 2189   5.088   6.037   1.673 -0.3315  0.6552 -0.1230
  742TIP3    H1 2190   5.086   6.119   1.722 -1.4752  0.2144  0.6173
  742TIP3    H2 2191   5.036   6.055   1.595 -1.8745  0.2499  0.7533
  743TIP3   OH2 2192   3.117   0.270   3.636 -0.5347  0.0751  0.0093
  743TIP3    H1 2193   3.101   0.200   3.700 -0.6916  1.7524  1.9006
  743TIP3    H2 2194   3.199   0.310   3.663  0.0034  0.1122 -1.5675
  744TIP3   OH2 2195   4.333   4.841   5.765  0.0782 -0.0201  0.1829
  744TIP3    H1 2196   4.326   4.820   5.672 -0.1980  0.4488  0.0948
  744TIP3    H2 2197   4.391   4.917   5.768  0.9238 -0.6582  0.4834
  745TIP3   OH2 2198   2.811   2.463   5.186 -0.5423  0.0170 -0.5064
  745TIP3    H1 2199   2.779   2.378   5.157 -0.9684 -0.0261  0.0612
  745TIP3    H2 2200   2.734   2.520   5.183 -0.2491  0.3990 -0.9300
  746TIP3   OH2 2201   3.587   3.117   1.732  0.1422  0.1732 -0.6235
  746TIP3    H1 2202   3.574   3.207   1.701 -2.0283 -0.0197 -0.4437
  746TIP3    H2 2203   3.561   3.063   1.657 -1.7313 -0.2829  0.3075
  747TIP3   OH2 2204   1.696   3.962   3.817 -0.1553  0.1170 -0.2678
  747TIP3    H1 2205   1.650   4.045   3.807  1.3869  0.7662 -3.3274
  747TIP3    H2 2206   1.784   3.980   3.783  0.8527 -2.2819  0.8697
  748TIP3   OH2 2207   2.025   3.186   3.103  0.3631 -0.2776 -0.0913
  748TIP3    H1 2208   2.081   3.166   3.178 -0.2378 -1.1536  0.1264
  748TIP3    H2 2209   1.964   3.113   3.098  1.1239 -0.8497 -2.1409
  749TIP3   OH2 2210   4.854   1.610   0.181  0.8805 -0.4306  0.0408
  749TIP3    H1 2211   4.820   1.524   0.156  1.3153 -0.4706 -0.4313
  749TIP3    H2 2212   4.867   1.604   0.276 -0.4507 -0.3979  0.2426
  750TIP3   OH2 2213   1.703   3.819   4.784  0.2042 -0.1379  0.1154
  750TIP3    H1 2214   1.650   3.844   4.708 -0.4918  2.9557  1.4768
  750TIP3    H2 2215   1.788   3.795   4.747  0.2480  2.3596 -1.6914
  751TIP3   OH2 2216   0.294   0.784   5.475  0.0331 -0.0890 -0.2424
  751TIP3    H1 2217   0.233   0.760   5.545 -1.1635  1.0173 -0.8721
  751TIP3    H2 2218   0.286   0.879   5.467 -0.2454 -0.2480 -2.2251
  752TIP3   OH2 2219   3.383   6.276   2.626  0.5382 -0.6267  0.1753
  752TIP3    H1 2220   3.447   6.347   2.629 -1.1713  1.1513 -2.0058
  752TIP3    H2 2221   3.299   6.319   2.639 -0.5235 -2.2889 -0.8268
  753TIP3   OH2 2222   0.043   5.992   5.513 -0.5559 -0.5351 -0.2416
  753TIP3    H1 2223   0.034   5.950   5.598 -0.3732  0.0945  0.0942
  753TIP3    H2 2224  -0.047   6.005   5.483 -0.6478  0.1986  0.3358
  754TIP3   OH2 2225   0.217   5.032   5.839 -0.3493  0.8180  0.0297
  754TIP3    H1 2226   0.163   5.021   5.918 -0.3443  2.3764  0.2745
  754TIP3    H2 2227   0.160   5.077   5.777 -0.4325 -0.6190 -0.9747
  755TIP3   OH2 2228   3.231   4.957   4.030 -0.4152 -0.0503  0.9212
  755TIP3    H1 2229   3.229   5.007   3.948 -0.9117 -0.0479  0.9270
  755TIP3    H2 2230   3.297   4.890   4.017  1.4440  1.5848  1.4959
  756TIP3   OH2 2231   1.529   1.521   5.847  0.5877  0.5337 -0.0250
  756TIP3    H1 2232   1.489   1.455   5.904  0.8162  2.0669  2.0455
  756TIP3    H2 2233   1.616   1.487   5.827  0.4407 -0.1188  0.4216
  757TIP3   OH2 2234   2.216   0.767   4.425 -0.2432 -0.1161  0.1734
  757TIP3    H1 2235   2.159   0.717   4.366 -0.9984 -1.1487  1.7145
  757TIP3    H2 2236   2.184   0.746   4.513  2.8667 -1.2099  1.1647
  758TIP3   OH2 2237   5.454   0.348   5.584 -0.1305  0.1593 -0.0152
  758TIP3    H1 2238   5.379   0.317   5.635 -1.5215 -0.2625 -2.1779
  758TIP3    H2 2239   5.517   0.276   5.587 -1.2842 -0.9218 -0.9740
  759TIP3   OH2 2240   3.675   1.140   4.632 -0.4314 -0.0417 -0.8962
  759TIP3    H1 2241   3.765   1.113   4.651 -0.3718 -0.5615 -1.8769
  759TIP3    H2 2242   3.683   1.203   4.560 -0.8618 -0.1924 -1.0804
  760TIP3   OH2 2243   6.581   2.465   3.734 -0.1972 -0.5699 -0.1557
  760TIP3    H1 2244   6.644   2.478   3.663 -0.2628 -0.9420 -0.2876
  760TIP3    H2 2245   6.583   2.547   3.784  0.6251 -0.6931  0.0299
  761TIP3   OH2 2246   5.520   0.461   3.178  0.0453 -0.0418  0.5345
  761TIP3    H1 2247   5.475   0.546   3.178 -0.7462 -0.4363  1.5703
  761TIP3    H2 2248   5.498   0.423   3.263  2.9393  0.0339  1.4397
  762TIP3   OH2 2249   1.911   0.807   1.394 -0.2677  0.6609  0.7106
  762TIP3    H1 2250   1.886   0.870   1.325 -4.1868 -0.4787  0.8103
  762TIP3    H2 2251   1.994   0.771   1.364  0.0935  2.9265 -1.4207
  763TIP3   OH2 2252   2.881   4.590   4.084  0.4470 -0.6205  0.2583
  763TIP3    H1 2253   2.884   4.606   4.178  0.8529 -0.2448  0.1847
  763TIP3    H2 2254   2.973   4.590   4.056  0.2807  0.7015 -0.3672
  764TIP3   OH2 2255   1.581   2.593   5.559  0.6136 -0.3654 -0.0725
  764TIP3    H1 2256   1.577   2.688   5.548  0.6079 -0.4714 -1.0713
  764TIP3    H2 2257   1.634   2.580   5.638  0.0765  0.4789  0.4518
  765TIP3   OH2 2258   6.817   2.056   3.167 -0.4335  0.1019 -0.2526
  765TIP3    H1 2259   6.808   1.997   3.242  0.3266  1.3043  0.8230
  765TIP3    H2 2260   6.902   2.098   3.179 -0.9350  1.3958 -0.9939
  766TIP3   OH2 2261   0.648   4.495   4.905  0.5393 -0.4007  0.1342
  766TIP3    H1 2262   0.715   4.503   4.973  0.0503 -0.0657  0.5853
  766TIP3    H2 2263   0.678   4.422   4.850  0.7943 -0.8645  0.8705
  767TIP3   OH2 2264   2.353   0.289   0.302  0.7937 -0.3861  0.9239
  767TIP3    H1 2265   2.314   0.288   0.389 -0.8872 -0.1076  0.2196
  767TIP3    H2 2266   2.287   0.248   0.246  1.9783 -0.8545 -0.1739
  768TIP3   OH2 2267   3.749   1.244   5.266  0.6066 -0.5094  0.4859
  768TIP3    H1 2268   3.787   1.303   5.202  0.6543 -0.4320  0.5850
  768TIP3    H2 2269   3.656   1.242   5.246  0.3901  0.6388  1.3192
  769TIP3   OH2 2270   5.352   0.708   1.904 -0.0584 -0.5525  0.6414
  769TIP3    H1 2271   5.350   0.715   2.000 -0.9655  0.7623  0.5431
  769TIP3    H2 2272   5.282   0.766   1.874  1.5501  0.6731 -0.9118
  770TIP3   OH2 2273   5.733   0.655   2.873  0.1812 -0.3281  0.6638
  770TIP3    H1 2274   5.647   0.697   2.861  0.4958  0.4319  0.9996
  770TIP3    H2 2275   5.764   0.689   2.957  0.5833 -1.0187  0.8016
  771TIP3   OH2 2276   6.327   0.956   1.317  0.6335 -0.1968  0.3479
  771TIP3    H1 2277   6.362   0.885   1.371  2.4751 -0.3647 -0.9597
  771TIP3    H2 2278   6.234   0.960   1.339  0.8224 -1.9312  1.6308
  772TIP3   OH2 2279   2.633   5.646   2.624  0.0187 -0.4350  0.3912
  772TIP3    H1 2280   2.614   5.567   2.574  0.3768 -1.3177  1.6024
  772TIP3    H2 2281   2.560   5.655   2.685  0.7255 -0.7174  1.3012
  773TIP3   OH2 2282   4.652   5.259   3.901 -0.3708 -0.3185  0.7406
  773TIP3    H1 2283   4.562   5.228   3.897 -0.2511 -0.6967  0.8334
  773TIP3    H2 2284   4.670   5.295   3.815 -0.5538 -0.4147  0.6631
  774TIP3   OH2 2285   2.584   3.044   2.723 -0.6885 -0.0775 -0.4485
  774TIP3    H1 2286   2.677   3.054   2.741 -1.1448 -0.3602  2.6246
  774TIP3    H2 2287   2.566   3.106   2.652  1.7188  0.3465 -0.7644
  775TIP3   OH2 2288   7.076   4.755   1.736 -0.2186  0.1151 -0.1521
  775TIP3    H1 2289   7.025   4.748   1.816 -1.8026  0.6653 -1.0664
  775TIP3    H2 2290   7.016   4.729   1.667  1.1361 -0.4150 -1.1724
  776TIP3   OH2 2291   5.704   0.163   4.406 -0.6765 -0.0333  0.0025
  776TIP3    H1 2292   5.701   0.067   4.404 -0.8719 -0.0323  0.1757
  776TIP3    H2 2293   5.788   0.184   4.446 -1.1631 -0.1503  1.1266
  777TIP3   OH2 2294   0.176   3.473   1.602 -0.3173 -0.1535 -0.4581
  777TIP3    H1 2295   0.174   3.416   1.525 -0.2062 -0.0382 -0.5458
  777TIP3    H2 2296   0.138   3.420   1.672  2.0553 -1.2905  0.0958
  778TIP3   OH2 2297   1.132   4.208   4.335 -0.2958 -0.3848 -0.5173
  778TIP3    H1 2298   1.214   4.160   4.325  0.5621  0.6649  1.0822
  778TIP3    H2 2299   1.064   4.141   4.333  0.7694 -1.5189  0.2923
  779TIP3   OH2 2300   2.232   6.435   1.616 -0.2704  0.4192 -0.6910
  779TIP3    H1 2301   2.157   6.377   1.618  0.7115 -0.8737  0.3053
  779TIP3    H2 2302   2.291   6.396   1.551  1.3161 -0.9890  1.4713
  780TIP3   OH2 2303   2.250   4.843   1.072  0.6733  0.2890  0.0838
  780TIP3    H1 2304   2.237   4.893   1.153 -1.2562 -0.1898  0.1174
  780TIP3    H2 2305   2.166   4.799   1.058  1.0693  0.1308 -2.0379
  781TIP3   OH2 2306   5.624   4.191   1.705 -0.6159 -0.6886  0.3810
  781TIP3    H1 2307   5.596   4.140   1.781  1.6089 -1.5429  0.7252
  781TIP3    H2 2308   5.691   4.136   1.664 -0.3265  0.6610 -1.0183
  782TIP3   OH2 2309   3.818   6.413   3.970 -0.7538 -0.2041 -0.3491
  782TIP3    H1 2310   3.758   6.355   3.923 -1.8304 -0.2592  1.0352
  782TIP3    H2 2311   3.787   6.413   4.060  0.7539  0.5521  0.2174
  783TIP3   OH2 2312   4.871   0.432   5.510  0.4417  0.0880  0.2998
  783TIP3    H1 2313   4.871   0.337   5.497  0.6420  0.0913  0.2616
  783TIP3    H2 2314   4.961   0.458   5.487  0.9374  0.0502  2.0537
  784TIP3   OH2 2315   5.441   5.521   2.425 -0.6673 -0.1992  0.2269
  784TIP3    H1 2316   5.509   5.464   2.461 -0.6267 -0.7977 -0.7402
  784TIP3    H2 2317   5.449   5.602   2.474 -0.3255 -0.8196  1.2242
  785TIP3   OH2 2318   4.594   5.508   2.963 -0.3579 -0.2339 -0.1261
  785TIP3    H1 2319   4.614   5.552   3.045 -0.3043  0.7297 -0.6443
  785TIP3    H2 2320   4.656   5.544   2.900 -0.3591 -1.0035 -0.5818
  786TIP3   OH2 2321   3.578   4.349   3.318  0.5183  0.2585 -0.0253
  786TIP3    H1 2322   3.610   4.395   3.395 -1.1332  0.5549  0.5166
  786TIP3    H2 2323   3.643   4.367   3.250  0.1559  3.0584  0.2738
  787TIP3   OH2 2324   3.687   2.859   2.611  0.2298 -0.0870 -0.2616
  787TIP3    H1 2325   3.674   2.839   2.704  0.9522 -0.8062 -0.3043
  787TIP3    H2 2326   3.683   2.774   2.568  0.6421  0.1616 -0.7958
  788TIP3   OH2 2327   4.912   4.748   5.515  0.5052  0.3115 -0.2005
  788TIP3    H1 2328   4.873   4.726   5.431 -1.3234 -0.6708  0.8289
  788TIP3    H2 2329   4.979   4.680   5.529  0.4956  0.2078 -0.6412
  789TIP3   OH2 2330   0.896   5.512   3.528  0.6006  0.1385 -0.1603
  789TIP3    H1 2331   0.968   5.460   3.563  0.4059 -0.8237 -1.1261
  789TIP3    H2 2332   0.856   5.552   3.605  0.6161 -1.3430  0.6579
  790TIP3   OH2 2333   5.737   1.383   0.743  0.5819  0.1091 -0.2539
  790TIP3    H1 2334   5.686   1.338   0.810 -0.7002  0.5013 -0.9368
  790TIP3    H2 2335   5.674   1.439   0.697  1.9957  2.2156  0.2021
  791TIP3   OH2 2336   0.380   2.381   2.020 -0.2713  0.0510 -0.7186
  791TIP3    H1 2337   0.421   2.460   2.054  1.3111 -0.7066 -0.8084
  791TIP3    H2 2338   0.288   2.406   2.008 -0.2879  1.1905  1.3574
  792TIP3   OH2 2339   5.940   6.408   4.854 -0.1945 -0.0172 -0.0847
  792TIP3    H1 2340   5.849   6.387   4.835 -0.6814  1.7699  0.0542
  792TIP3    H2 2341   5.981   6.418   4.768  0.1964 -1.9277 -0.1650
  793TIP3   OH2 2342   4.952   0.641   0.301 -0.2083 -0.3647 -0.3003
  793TIP3    H1 2343   5.046   0.628   0.289  0.2119  0.6911  1.4961
  793TIP3    H2 2344   4.915   0.553   0.296  0.8793 -0.8098 -0.8688
  794TIP3   OH2 2345   4.112   1.097   5.175  0.1950 -0.5348 -0.1549
  794TIP3    H1 2346   4.114   1.189   5.200  1.5891 -0.3148 -0.9356
  794TIP3    H2 2347   4.023   1.068   5.195  0.1082  0.6286  1.3081
  795TIP3   OH2 2348   0.789   0.024   1.297 -0.5200 -0.1777  0.1496
  795TIP3    H1 2349   0.763   0.107   1.337 -0.1691  0.0730 -0.1398
  795TIP3    H2 2350   0.709  -0.009   1.257 -0.8839 -0.4390  1.0601
  796TIP3   OH2 2351   2.551   6.349   1.734  0.5024 -0.4286  0.2735
  796TIP3    H1 2352   2.498   6.328   1.657 -1.6845  1.1108  1.2390
  796TIP3    H2 2353   2.584   6.437   1.718 -1.2047  0.5310  1.6143
  797TIP3   OH2 2354   0.793   5.573   0.329  0.0254  0.0990  0.2446
  797TIP3    H1 2355   0.723   5.516   0.362  0.6118 -0.8378 -0.0852
  797TIP3    H2 2356   0.822   5.622   0.406  0.3100 -0.9152  0.8099
  798TIP3   OH2 2357   4.333   5.174   3.325 -0.4577 -0.0019 -0.0004
  798TIP3    H1 2358   4.274   5.240   3.288 -0.0735  0.2279 -0.2126
  798TIP3    H2 2359   4.277   5.098   3.342 -0.6642 -0.0747 -0.9651
  799TIP3   OH2 2360   0.960   3.738   0.051  0.0693 -0.3758  0.0828
  799TIP3    H1 2361   1.053   3.762   0.042 -0.0429  0.2148  0.4640
  799TIP3    H2 2362   0.915   3.793  -0.012  0.1417 -1.8517 -1.3239
  800TIP3   OH2 2363   1.587   3.614   5.823 -0.1798  0.2444  0.3329
  800TIP3    H1 2364   1.652   3.584   5.886 -0.2486 -2.9773 -0.9023
  800TIP3    H2 2365   1.638   3.652   5.751  0.2371 -0.4427  0.2570
  801TIP3   OH2 2366   3.913   4.146   2.328  0.1512  0.1936  0.4479
  801TIP3    H1 2367   3.935   4.179   2.416  0.5438 -1.7049  1.1163
  801TIP3    H2 2368   3.994   4.157   2.278  0.4826 -0.3074  0.8541
  802TIP3   OH2 2369   0.019   4.302   1.308  0.0851 -0.0969  0.4991
  802TIP3    H1 2370   0.076   4.249   1.253 -2.0091 -1.2307 -0.7126
  802TIP3    H2 2371  -0.031   4.238   1.359 -0.1576  0.8510  1.4940
  803TIP3   OH2 2372   2.645   5.905   3.325 -0.2279 -0.2085  0.0056
  803TIP3    H1 2373   2.622   5.996   3.340 -1.5576 -0.7064  1.1842
  803TIP3    H2 2374   2.653   5.867   3.412  0.7875 -1.1112 -0.4632
  804TIP3   OH2 2375   4.549   6.479   4.047  0.0541 -0.2605  0.4620
  804TIP3    H1 2376   4.481   6.539   4.016 -0.0285 -1.1127 -1.1196
  804TIP3    H2 2377   4.507   6.393   4.044  0.9882 -0.7156  0.0787
  805TIP3   OH2 2378   2.485   6.294   1.054 -0.0819  0.0148 -0.5756
  805TIP3    H1 2379   2.525   6.338   0.979  0.3416  0.6995  0.0405
  805TIP3    H2 2380   2.416   6.354   1.083 -0.0854 -0.1407 -0.2672
  806TIP3   OH2 2381   4.867   1.970   1.335 -0.0459 -0.2157 -0.2831
  806TIP3    H1 2382   4.907   1.933   1.414  1.3863  0.1652 -0.8040
  806TIP3    H2 2383   4.773   1.969   1.354  0.3074  0.8740  1.9042
  807TIP3   OH2 2384   2.169   2.544   1.490 -0.4228  0.0418  0.3557
  807TIP3    H1 2385   2.213   2.489   1.555 -1.1350 -0.3696  0.4982
  807TIP3    H2 2386   2.110   2.600   1.542 -0.9391 -0.2383  0.0757
  808TIP3   OH2 2387   1.103   6.213   1.084 -0.2426  0.2837  0.2815
  808TIP3    H1 2388   1.055   6.168   1.153 -0.4483 -0.5252 -0.3655
  808TIP3    H2 2389   1.158   6.144   1.045  0.5388  0.9260  0.2330
  809TIP3   OH2 2390   0.472   2.599   3.797 -0.0870  0.0102  0.2159
  809TIP3    H1 2391   0.415   2.523   3.785 -1.7772  1.3071 -0.2543
  809TIP3    H2 2392   0.518   2.608   3.714  0.4584 -0.7249  0.4201
  810TIP3   OH2 2393   5.876   3.945   0.460 -0.0014  0.8511 -0.2035
  810TIP3    H1 2394   5.837   4.010   0.518  0.3418  0.2311  0.7294
  810TIP3    H2 2395   5.923   3.997   0.395  1.7467  1.5736  1.5401
  811TIP3   OH2 2396   3.573   4.320   3.782 -0.0084 -0.1185  0.0594
  811TIP3    H1 2397   3.628   4.337   3.706  0.0805 -1.2264 -0.1353
  811TIP3    H2 2398   3.606   4.237   3.817  0.4165  0.7145  1.7255
  812TIP3   OH2 2399   1.485   0.274   2.737  0.1830  0.1205  0.0024
  812TIP3    H1 2400   1.568   0.229   2.750 -0.7760 -1.8959 -0.4929
  812TIP3    H2 2401   1.476   0.331   2.814  0.5312 -2.0544  1.7589
  813TIP3   OH2 2402   5.721   2.868   0.478 -0.4751 -0.0120 -0.0962
  813TIP3    H1 2403   5.814   2.886   0.467 -0.6995  1.1451 -0.2183
  813TIP3    H2 2404   5.678   2.926   0.415 -1.1735 -2.6981 -2.3062
  814TIP3   OH2 2405   4.602   3.613   0.145  0.3439  0.3582 -0.4166
  814TIP3    H1 2406   4.639   3.611   0.233  2.3935  1.9719 -1.1507
  814TIP3    H2 2407   4.669   3.572   0.090 -0.9868 -0.8011 -1.2242
  815TIP3   OH2 2408   4.206   1.949   4.438  0.1429  0.0760 -0.1434
  815TIP3    H1 2409   4.290   1.904   4.439  0.9074  1.4623  0.7868
  815TIP3    H2 2410   4.157   1.906   4.368  1.7342 -0.5219 -0.9446
  816TIP3   OH2 2411   1.939   5.529   4.526 -0.0676  0.2751  0.4063
  816TIP3    H1 2412   1.983   5.499   4.446 -0.2237 -2.1738  1.1372
  816TIP3    H2 2413   2.002   5.511   4.596 -0.0214  2.1782  0.9072
  817TIP3   OH2 2414   3.234   0.036   4.070 -0.0632  0.2702  0.2158
  817TIP3    H1 2415   3.190   0.111   4.108 -0.0611  1.1388 -1.4026
  817TIP3    H2 2416   3.314   0.072   4.032  0.1277 -0.6206 -0.2507
  818TIP3   OH2 2417   4.439   1.211   1.013 -0.1540  0.2467 -0.1787
  818TIP3    H1 2418   4.381   1.139   1.035 -0.4886  0.0929 -1.4819
  818TIP3    H2 2419   4.386   1.268   0.956  0.1085  1.5058  0.7948
  819TIP3   OH2 2420   1.122   5.867   1.832 -0.3353 -0.3935 -0.0365
  819TIP3    H1 2421   1.172   5.940   1.870 -1.4856  0.2432  0.3201
  819TIP3    H2 2422   1.031   5.898   1.833 -0.7463 -1.5364 -0.6151
  820TIP3   OH2 2423   6.093   1.435   3.672  0.0575  0.0220  0.1681
  820TIP3    H1 2424   6.036   1.464   3.600  1.5021 -1.1571 -1.5205
  820TIP3    H2 2425   6.044   1.458   3.751 -2.5072 -0.3828 -1.1816
  821TIP3   OH2 2426   5.241   3.494   2.218  0.4962  0.3081 -0.2710
  821TIP3    H1 2427   5.322   3.490   2.270  1.8049  0.6536 -2.1522
  821TIP3    H2 2428   5.188   3.560   2.263  0.0747 -1.7378  2.4769
  822TIP3   OH2 2429   1.911   4.526   2.586  0.6291  0.0350 -0.4825
  822TIP3    H1 2430   1.892   4.539   2.493 -0.6759  3.1250  0.0961
  822TIP3    H2 2431   1.829   4.550   2.631  1.2150 -1.4047  1.4940
  823TIP3   OH2 2432   5.693   0.771   2.324 -0.1525  0.3625  0.0827
  823TIP3    H1 2433   5.637   0.694   2.330  0.4378 -0.2740 -1.7421
  823TIP3    H2 2434   5.709   0.797   2.414 -0.6506 -1.4633  0.7312
  824TIP3   OH2 2435   3.774   2.128   1.930 -0.3899  0.1741  0.0201
  824TIP3    H1 2436   3.869   2.131   1.918 -0.5211  1.1291 -0.8622
  824TIP3    H2 2437   3.740   2.203   1.881 -1.3814  1.5216  2.5490
  825TIP3   OH2 2438   6.337   4.525   5.869 -0.0517 -0.1553  0.2034
  825TIP3    H1 2439   6.392   4.578   5.927 -0.1636  1.5575 -1.1983
  825TIP3    H2 2440   6.301   4.587   5.806 -4.0484 -1.0770  1.3123
  826TIP3   OH2 2441   1.727   0.728   2.440 -0.0081 -0.3920  0.7117
  826TIP3    H1 2442   1.812   0.712   2.398  0.0805 -0.6873  1.0048
  826TIP3    H2 2443   1.687   0.796   2.386  0.3162 -0.4164  0.4347
  827TIP3   OH2 2444   3.871   4.954   5.347  0.3628 -0.0580 -0.0155
  827TIP3    H1 2445   3.821   4.961   5.265  1.3564  0.5621 -0.5896
  827TIP3    H2 2446   3.961   4.975   5.322  0.8318 -0.6590  1.0952
  828TIP3   OH2 2447   5.269   5.909   4.474 -0.3492 -0.0202  0.5382
  828TIP3    H1 2448   5.300   5.898   4.563 -0.1639  0.7176  0.5655
  828TIP3    H2 2449   5.193   5.967   4.482  0.0519  0.5623  0.1477
  829TIP3   OH2 2450   1.010   0.718   0.802  0.3562  0.2892 -0.0676
  829TIP3    H1 2451   0.967   0.734   0.886 -0.0187  1.4054 -0.4484
  829TIP3    H2 2452   1.079   0.655   0.822 -1.9227 -2.2252  0.4141
  830TIP3   OH2 2453   2.259   0.913   5.109 -0.2957  0.1227  0.0365
  830TIP3    H1 2454   2.185   0.944   5.163 -0.7982 -0.2016 -0.4627
  830TIP3    H2 2455   2.312   0.992   5.095  0.4465  0.0173  1.9166
  831TIP3   OH2 2456   0.569   0.782   2.229 -0.0218  0.1385  0.1084
  831TIP3    H1 2457   0.539   0.774   2.138  0.5307 -2.1764  0.0860
  831TIP3    H2 2458   0.659   0.815   2.222  0.9901 -2.5080 -0.3994
  832TIP3   OH2 2459   5.874   6.089   0.471 -0.2854 -0.3634 -0.0152
  832TIP3    H1 2460   5.844   6.004   0.504 -1.5510  0.2455  0.4783
  832TIP3    H2 2461   5.794   6.133   0.442  0.5395  0.0516 -1.7871
  833TIP3   OH2 2462   3.163   4.835   2.295  1.2967 -0.5165  0.3418
  833TIP3    H1 2463   3.070   4.843   2.317  1.4152 -0.1904  0.7405
  833TIP3    H2 2464   3.207   4.891   2.359  1.5337  1.8816 -1.8010
  834TIP3   OH2 2465   3.168   4.638   3.715  0.1565  0.8534 -0.3832
  834TIP3    H1 2466   3.212   4.589   3.784 -1.6371 -1.0826 -0.5413
  834TIP3    H2 2467   3.122   4.708   3.760  2.1615  2.0763 -0.0862
  835TIP3   OH2 2468   6.626   1.333   4.478 -0.1902  0.6087  0.3742
  835TIP3    H1 2469   6.652   1.416   4.516  1.4220  0.4316 -0.2908
  835TIP3    H2 2470   6.625   1.348   4.384 -1.4017  0.2749  0.3088
  836TIP3   OH2 2471   1.850   0.046   0.331 -0.0172  0.1294  0.5309
  836TIP3    H1 2472   1.822   0.115   0.390  0.7937  0.9437 -0.0035
  836TIP3    H2 2473   1.888  -0.021   0.388 -2.0277 -0.5492  1.1760
  837TIP3   OH2 2474   3.838   5.604   0.862 -0.4360  0.1989 -0.1984
  837TIP3    H1 2475   3.890   5.658   0.803 -0.0022 -0.1400 -0.1360
  837TIP3    H2 2476   3.864   5.632   0.950  1.8840 -1.9249 -0.0664
  838TIP3   OH2 2477   7.148   5.531   4.519  0.5921 -0.2593  0.0117
  838TIP3    H1 2478   7.150   5.443   4.483  1.1097  0.1199 -0.9277
  838TIP3    H2 2479   7.143   5.588   4.442 -2.1125  0.4995  0.6489
  839TIP3   OH2 2480   2.614   3.715   4.050 -0.3620 -0.0661  0.9180
  839TIP3    H1 2481   2.629   3.644   3.988 -0.3751  0.8835 -0.1964
  839TIP3    H2 2482   2.700   3.755   4.063 -0.1250 -0.9578  2.4454
  840TIP3   OH2 2483   7.035   3.932   0.982 -0.3863  0.4470 -0.1260
  840TIP3    H1 2484   7.107   3.934   1.046  0.8624  0.0002 -1.4589
  840TIP3    H2 2485   7.013   3.839   0.974 -1.2267  0.5924  0.3685
  841TIP3   OH2 2486   1.394   1.226   1.761  0.2495 -0.1377  0.1089
  841TIP3    H1 2487   1.474   1.243   1.710  0.2780  1.6667  0.6744
  841TIP3    H2 2488   1.425   1.204   1.848  0.1562 -1.1960 -0.1202
  842TIP3   OH2 2489   2.766   1.988   4.440 -0.1017 -0.3084  0.2241
  842TIP3    H1 2490   2.831   2.052   4.470 -1.1655  0.9789 -0.1016
  842TIP3    H2 2491   2.773   1.990   4.344 -1.6549  1.0471  0.0876
  843TIP3   OH2 2492   1.334   6.673   0.151 -0.6810  0.0815 -0.4045
  843TIP3    H1 2493   1.253   6.629   0.175 -0.7876  1.1352  1.3331
  843TIP3    H2 2494   1.389   6.668   0.229  0.0981  1.2311 -0.8364
  844TIP3   OH2 2495   3.542   4.665   4.218  0.1910  0.4861  0.1118
  844TIP3    H1 2496   3.628   4.697   4.190  0.6743 -0.1968  0.7725
  844TIP3    H2 2497   3.549   4.657   4.314 -0.6150  0.4499  0.1761
  845TIP3   OH2 2498   1.732   5.363   2.842  0.2333  0.1468 -0.0084
  845TIP3    H1 2499   1.744   5.457   2.828  0.7725 -0.0513 -0.8850
  845TIP3    H2 2500   1.691   5.358   2.929  1.2265  1.1225  0.5415
  846TIP3   OH2 2501   1.230   2.888   2.496  0.1734  0.3478  0.3600
  846TIP3    H1 2502   1.311   2.921   2.457 -0.0653 -0.5368 -0.9688
  846TIP3    H2 2503   1.200   2.959   2.553  2.0135  0.5806  1.1013
  847TIP3   OH2 2504   1.431   6.583   2.615  0.0580  0.7117 -0.4840
  847TIP3    H1 2505   1.342   6.618   2.612 -0.5476 -0.6618  0.7732
  847TIP3    H2 2506   1.450   6.559   2.524  0.0735  3.1133 -1.2076
  848TIP3   OH2 2507   6.827   1.123   0.717 -0.1716  0.2013  0.4439
  848TIP3    H1 2508   6.748   1.174   0.736 -0.1559 -0.2107  1.7308
  848TIP3    H2 2509   6.874   1.174   0.651 -1.0244  0.9518  0.4100
  849TIP3   OH2 2510   3.138   4.556   5.143 -0.3014  0.4917  0.3268
  849TIP3    H1 2511   3.153   4.519   5.056  1.5160 -0.7924  1.1375
  849TIP3    H2 2512   3.097   4.485   5.193  0.7852  0.4232  1.1522
  850TIP3   OH2 2513   0.961   0.610   2.020 -0.3859 -0.0212 -0.8103
  850TIP3    H1 2514   0.975   0.702   1.998  1.3363  0.0308  0.2938
  850TIP3    H2 2515   1.019   0.562   1.961  0.4063 -0.2178  0.0976
  851TIP3   OH2 2516   0.671   0.527   0.975 -0.1480 -0.4644  1.1504
  851TIP3    H1 2517   0.747   0.483   0.937 -0.8324  0.3746 -1.3875
  851TIP3    H2 2518   0.597   0.471   0.953 -0.9021  1.2909 -1.2920
  852TIP3   OH2 2519   0.182   1.857   3.581 -0.3074 -0.5876 -0.3258
  852TIP3    H1 2520   0.164   1.905   3.662 -1.9158 -0.2721 -0.8353
  852TIP3    H2 2521   0.272   1.826   3.591 -0.3618 -0.2773  1.4390
  853TIP3   OH2 2522   7.078   4.055   5.371  0.1600  0.3690 -0.0999
  853TIP3    H1 2523   7.157   4.079   5.419 -0.8361  0.9648  1.3356
  853TIP3    H2 2524   7.007   4.076   5.432 -1.0368 -1.3493 -0.8315
  854TIP3   OH2 2525   1.088   2.085   4.921 -0.6832  0.0525  0.3061
  854TIP3    H1 2526   1.039   2.006   4.898  0.7310 -0.8054  0.1536
  854TIP3    H2 2527   1.169   2.053   4.959  0.9899  1.3593 -1.8852
  855TIP3   OH2 2528   3.702   0.613   3.260 -0.4112  0.4950 -0.2824
  855TIP3    H1 2529   3.693   0.558   3.338 -1.9803  2.4903  1.0445
  855TIP3    H2 2530   3.619   0.604   3.214  0.2298 -0.0839 -1.3671
  856TIP3   OH2 2531   2.216   1.380   3.285 -0.5163  0.3094 -0.1141
  856TIP3    H1 2532   2.189   1.364   3.194 -0.2734  1.2644 -0.3626
  856TIP3    H2 2533   2.257   1.466   3.283 -0.2427  0.2120  0.8550
  857TIP3   OH2 2534   4.953   0.056   3.844  0.4299  0.4246  0.3749
  857TIP3    H1 2535   4.900  -0.019   3.815 -0.7013  1.6112 -0.7087
  857TIP3    H2 2536   4.976   0.035   3.935  1.4826 -1.9580 -0.3502
  858TIP3   OH2 2537   3.393   2.647   0.625  0.2540  0.0104  0.0936
  858TIP3    H1 2538   3.314   2.598   0.602  1.0275  0.0607 -3.0825
  858TIP3    H2 2539   3.405   2.629   0.718 -2.1828 -1.8790  0.1607
  859TIP3   OH2 2540   1.160   4.629   5.264 -0.1442  0.3092 -0.3334
  859TIP3    H1 2541   1.079   4.621   5.314  0.1840  0.9078  0.3112
  859TIP3    H2 2542   1.229   4.611   5.327  0.2214 -0.4904 -0.9461
  860TIP3   OH2 2543   6.151   3.938   3.579  0.5008  0.0635 -0.0883
  860TIP3    H1 2544   6.197   4.019   3.600  0.4755 -0.1325  0.7724
  860TIP3    H2 2545   6.177   3.918   3.489  1.1367  0.6029 -0.0339
  861TIP3   OH2 2546   3.363   3.145   5.258 -0.3404 -0.0303  0.1843
  861TIP3    H1 2547   3.322   3.231   5.256 -0.8505 -0.2405  0.9704
  861TIP3    H2 2548   3.404   3.135   5.173 -1.8547  0.2346 -0.6082
  862TIP3   OH2 2549   6.300   2.110   3.074 -0.9754 -0.1553 -0.1962
  862TIP3    H1 2550   6.321   2.203   3.081  1.5655 -0.6295 -0.6074
  862TIP3    H2 2551   6.335   2.071   3.155  0.8798 -1.1584 -1.3984
  863TIP3   OH2 2552   0.297   1.483   0.624 -0.4702 -0.4368  0.1275
  863TIP3    H1 2553   0.226   1.461   0.684  0.1964 -0.5767  0.8812
  863TIP3    H2 2554   0.349   1.403   0.619  2.4626  1.0001  3.5420
  864TIP3   OH2 2555   2.909   1.710   0.589  0.0260  0.0430 -0.4976
  864TIP3    H1 2556   2.999   1.703   0.621  0.2667  3.5321 -0.0352
  864TIP3    H2 2557   2.858   1.661   0.653  1.4330 -0.6663  0.1453
  865TIP3   OH2 2558   7.067   2.959   1.801 -0.2000  0.5351 -0.4449
  865TIP3    H1 2559   7.021   2.896   1.858  0.3157 -0.3953 -1.0282
  865TIP3    H2 2560   7.152   2.971   1.843  0.3618 -0.5186 -1.2385
  866TIP3   OH2 2561   4.384   0.504   3.207  0.0706  0.2118  0.2980
  866TIP3    H1 2562   4.480   0.512   3.205  0.1324 -0.1293  1.1835
  866TIP3    H2 2563   4.360   0.534   3.295 -0.8227  1.9378 -0.4854
  867TIP3   OH2 2564   4.968   4.404   0.133  0.0342 -0.0388 -0.3175
  867TIP3    H1 2565   5.060   4.399   0.161  0.0179 -0.2852 -0.3055
  867TIP3    H2 2566   4.963   4.487   0.085  0.0895  0.3236  0.2911
  868TIP3   OH2 2567   6.717   3.955   1.581 -0.3980 -0.2376 -0.4294
  868TIP3    H1 2568   6.720   4.019   1.653 -0.8365 -1.5978  0.8352
  868TIP3    H2 2569   6.650   3.989   1.522 -2.3866 -0.7037  1.4253
  869TIP3   OH2 2570   3.025   5.169   5.772 -0.4454  0.8483 -0.0972
  869TIP3    H1 2571   2.941   5.177   5.726 -0.1191  1.4929 -0.5938
  869TIP3    H2 2572   3.090   5.205   5.711  0.5181 -1.5760 -0.6248
  870TIP3   OH2 2573   6.774   2.553   4.613 -0.3049 -0.3947  0.2679
  870TIP3    H1 2574   6.702   2.602   4.652 -0.0776  0.7830 -0.7219
  870TIP3    H2 2575   6.733   2.474   4.578 -0.8861 -0.3678  0.8674
  871TIP3   OH2 2576   5.872   0.539   5.573 -0.3244  0.5283  0.3439
  871TIP3    H1 2577   5.837   0.499   5.653  0.9665 -0.1068  0.6068
  871TIP3    H2 2578   5.937   0.602   5.604  0.6153 -0.1539 -0.2235
  872TIP3   OH2 2579   4.493   3.906   1.021 -0.3630  0.1347 -0.3302
  872TIP3    H1 2580   4.490   3.815   1.049  2.2958  0.1057  0.0975
  872TIP3    H2 2581   4.440   3.908   0.941 -0.2819 -1.8193 -0.4860
  873TIP3   OH2 2582   0.858   1.301   1.325  0.4671 -0.4429  0.1855
  873TIP3    H1 2583   0.834   1.272   1.237  0.4130 -0.5745  0.2429
  873TIP3    H2 2584   0.786   1.270   1.381  0.7793 -0.8625  0.3623
  874TIP3   OH2 2585   7.197   2.819   1.045 -0.1291 -0.0679 -0.6857
  874TIP3    H1 2586   7.118   2.871   1.028 -0.4878 -0.7549 -1.1692
  874TIP3    H2 2587   7.248   2.873   1.106  0.2117  1.5230 -2.2841
  875TIP3   OH2 2588   3.105   6.514   5.528  0.2356  0.3328  0.1946
  875TIP3    H1 2589   3.050   6.494   5.451 -0.5128 -0.5287  0.9283
  875TIP3    H2 2590   3.086   6.605   5.547  0.3383  0.5229 -0.5733
  876TIP3   OH2 2591   0.230   2.346   4.396  0.3178  0.5351 -0.3338
  876TIP3    H1 2592   0.153   2.294   4.374  0.6442  0.4080 -1.1948
  876TIP3    H2 2593   0.237   2.410   4.326  1.0723  0.4703 -0.3289
  877TIP3   OH2 2594   1.732   4.565   5.447  0.5837  0.8533  0.3708
  877TIP3    H1 2595   1.658   4.505   5.456 -0.0915  1.6615  0.4135
  877TIP3    H2 2596   1.783   4.530   5.374 -0.8426  1.2720 -0.8930
  878TIP3   OH2 2597   4.851   1.824   5.055  0.4057 -0.5515 -0.1500
  878TIP3    H1 2598   4.906   1.884   5.106  0.9416  0.2174 -1.5722
  878TIP3    H2 2599   4.764   1.835   5.092  0.6659  0.4556  0.2049
  879TIP3   OH2 2600   6.527   1.949   0.950 -0.1362  1.0836  0.1011
  879TIP3    H1 2601   6.463   1.877   0.954 -1.2188  2.0441  2.0502
  879TIP3    H2 2602   6.541   1.964   0.857 -0.3949 -1.1959 -0.3560
  880TIP3   OH2 2603   2.489   6.143   4.197  0.1793  0.3001  0.3375
  880TIP3    H1 2604   2.429   6.117   4.267  0.2716  0.1677  0.3684
  880TIP3    H2 2605   2.432   6.173   4.126  0.0998  1.4327  0.8480
  881TIP3   OH2 2606   5.348   1.465   5.792  0.0329 -0.2231 -0.8884
  881TIP3    H1 2607   5.397   1.390   5.759  0.2879 -0.3636 -0.2056
  881TIP3    H2 2608   5.277   1.426   5.843  0.0955  0.0031 -0.6288
  882TIP3   OH2 2609   0.528   3.674   2.641  0.0385 -0.4442 -0.0860
  882TIP3    H1 2610   0.585   3.645   2.570 -0.0088  1.2113 -0.8558
  882TIP3    H2 2611   0.566   3.636   2.720  1.0822 -0.9402 -0.8050
  883TIP3   OH2 2612   1.630   4.651   3.587 -0.1669  0.0977 -0.3590
  883TIP3    H1 2613   1.660   4.735   3.620 -1.0753  0.4783 -0.4744
  883TIP3    H2 2614   1.548   4.670   3.541 -1.7171 -1.1673  1.7152
  884TIP3   OH2 2615   2.102   0.663   0.353  0.2952 -0.3114 -0.4580
  884TIP3    H1 2616   2.070   0.749   0.324 -0.8535 -0.3676  0.5571
  884TIP3    H2 2617   2.122   0.675   0.446  0.1637 -1.1396 -0.3162
  885TIP3   OH2 2618   5.729   6.353   4.682  0.1543  0.0334 -0.0387
  885TIP3    H1 2619   5.732   6.428   4.622  1.2641  0.4869  0.5456
  885TIP3    H2 2620   5.705   6.279   4.626 -1.1316  0.8387 -0.5983
  886TIP3   OH2 2621   2.290   1.491   3.569 -0.4136 -1.0128 -0.6690
  886TIP3    H1 2622   2.368   1.438   3.584 -0.5868 -1.2554 -0.6080
  886TIP3    H2 2623   2.295   1.517   3.477 -0.9574 -2.1885 -1.0519
  887TIP3   OH2 2624   4.437   1.508   4.671 -0.2308  0.3517  0.4230
  887TIP3    H1 2625   4.367   1.504   4.736  0.3488  2.0460  1.2348
  887TIP3    H2 2626   4.398   1.474   4.591 -1.4200 -0.4158  1.2947
  888TIP3   OH2 2627   0.578   0.480   1.475 -0.1204 -0.2515  0.5786
  888TIP3    H1 2628   0.511   0.493   1.407  0.5940 -2.0275 -0.5523
  888TIP3    H2 2629   0.582   0.564   1.521  0.0523  1.4334 -2.2208
  889TIP3   OH2 2630   5.434   3.764   0.008 -0.4465  0.6541 -0.2263
  889TIP3    H1 2631   5.348   3.798  -0.020 -0.1453  0.6477 -1.2247
  889TIP3    H2 2632   5.421   3.669   0.013 -1.1068  0.8173  1.9048
  890TIP3   OH2 2633   0.134   4.355   0.304  0.1436 -0.1557 -0.1024
  890TIP3    H1 2634   0.061   4.417   0.309  0.3742  0.0281  1.2449
  890TIP3    H2 2635   0.137   4.330   0.212 -0.6164  1.0394 -0.4777
  891TIP3   OH2 2636   4.447   6.289   2.533  0.3698 -0.0219  0.0112
  891TIP3    H1 2637   4.471   6.216   2.590 -0.8220  1.4008  2.4950
  891TIP3    H2 2638   4.352   6.281   2.523  0.1720  1.3195  0.5802
  892TIP3   OH2 2639   5.731   2.331   0.881  0.0864 -0.3205 -0.5213
  892TIP3    H1 2640   5.672   2.323   0.807 -1.9943 -0.8367  1.0879
  892TIP3    H2 2641   5.747   2.425   0.889 -0.1832 -0.2124 -1.2408
  893TIP3   OH2 2642   0.361   0.195   1.385  0.2051 -0.1562  0.5096
  893TIP3    H1 2643   0.298   0.141   1.337 -0.9407  1.4021  0.1887
  893TIP3    H2 2644   0.342   0.178   1.477 -0.8805  0.4617  0.4223
  894TIP3   OH2 2645   5.908   5.768   2.581 -0.2882  0.3649 -0.6934
  894TIP3    H1 2646   5.892   5.844   2.636  2.1251  0.3545  0.1527
  894TIP3    H2 2647   5.866   5.696   2.627  1.0134  0.4996  0.8172
  895TIP3   OH2 2648   0.528   0.628   3.237  0.1710 -0.1150 -0.4035
  895TIP3    H1 2649   0.482   0.712   3.238 -1.1399 -0.8056 -1.1270
  895TIP3    H2 2650   0.510   0.591   3.151  1.3298 -0.8372 -0.3628
  896TIP3   OH2 2651   6.333   0.329   2.311 -0.3381  0.0840  0.1433
  896TIP3    H1 2652   6.272   0.336   2.238  1.4608 -0.7270 -1.5448
  896TIP3    H2 2653   6.349   0.235   2.320 -0.6896  0.1542  1.7680
  897TIP3   OH2 2654   5.406   6.436   3.280  0.3249  0.0041 -0.0239
  897TIP3    H1 2655   5.338   6.407   3.341  1.0751 -0.2781  0.7072
  897TIP3    H2 2656   5.367   6.509   3.232 -0.3965  0.0160  0.5696
  898TIP3   OH2 2657   4.155   0.511   0.978  0.1183 -0.0216  0.1429
  898TIP3    H1 2658   4.092   0.545   0.915  0.1486  0.8802  0.5923
  898TIP3    H2 2659   4.224   0.472   0.924  0.6493  1.6446 -0.4285
  899TIP3   OH2 2660   0.944   3.267   1.536 -0.0477  0.2412 -0.7312
  899TIP3    H1 2661   0.957   3.335   1.602 -0.4314  0.9131 -1.3445
  899TIP3    H2 2662   0.872   3.214   1.571  1.1477 -0.6894  0.4054
  900TIP3   OH2 2663   1.562   1.285   3.885 -0.6621 -0.2506  0.2029
  900TIP3    H1 2664   1.596   1.370   3.911 -0.0440 -1.0134  2.1194
  900TIP3    H2 2665   1.467   1.296   3.886 -0.5743  0.5431 -0.0192
  901TIP3   OH2 2666   2.857   6.688   1.709 -0.1385 -0.4426  0.1689
  901TIP3    H1 2667   2.768   6.652   1.712 -0.2211 -0.1634  1.4410
  901TIP3    H2 2668   2.846   6.777   1.678 -0.3496 -0.2953  0.6589
  902TIP3   OH2 2669   5.293   4.293   0.558 -0.1323 -0.3968 -0.0895
  902TIP3    H1 2670   5.275   4.387   0.560  0.0938 -0.3596  0.5704
  902TIP3    H2 2671   5.213   4.253   0.522  0.5555  0.2092 -2.4595
  903TIP3   OH2 2672   4.382   0.423   3.497 -0.6996  0.1593 -0.4177
  903TIP3    H1 2673   4.424   0.408   3.582  0.2980 -1.8346 -1.1803
  903TIP3    H2 2674   4.365   0.334   3.463 -2.4503  0.9039 -1.6541
  904TIP3   OH2 2675   4.369   4.879   1.156  0.0438 -0.0419  0.0594
  904TIP3    H1 2676   4.454   4.907   1.190  0.3248 -0.1666 -0.5340
  904TIP3    H2 2677   4.332   4.826   1.227 -0.1603  1.1549  0.8827
  905TIP3   OH2 2678   3.462   4.020   1.207  0.4314 -0.7021 -0.5028
  905TIP3    H1 2679   3.440   4.090   1.267 -0.4597 -0.3811 -1.1840
  905TIP3    H2 2680   3.406   4.035   1.130  0.7565 -1.7236 -0.9627
  906TIP3   OH2 2681   4.350   3.711   0.244  0.8484  0.3103  0.0951
  906TIP3    H1 2682   4.262   3.678   0.223  0.4479  0.1126  1.8878
  906TIP3    H2 2683   4.409   3.648   0.204  0.1215 -1.0282  1.0371
  907TIP3   OH2 2684   4.419   6.647   3.063  0.4295 -0.1057 -0.2924
  907TIP3    H1 2685   4.402   6.612   2.976 -2.6559  1.7350 -0.5870
  907TIP3    H2 2686   4.492   6.709   3.050  0.5227 -0.4169 -1.3819
  908TIP3   OH2 2687   1.159   5.633   1.026 -0.4756  0.3157  0.2443
  908TIP3    H1 2688   1.191   5.574   1.095 -1.5113 -0.8229 -0.2025
  908TIP3    H2 2689   1.238   5.671   0.988  0.2160 -0.5388  0.7804
  909TIP3   OH2 2690   0.504   6.091   3.058  0.0936 -0.6385 -0.3328
  909TIP3    H1 2691   0.416   6.120   3.083  0.3837  0.0529 -0.0941
  909TIP3    H2 2692   0.489   6.010   3.009 -0.5796 -1.3191  0.9463
  910TIP3   OH2 2693   2.170   2.981   3.483  0.3933  0.4377  0.8985
  910TIP3    H1 2694   2.227   3.057   3.484  0.2191  0.5919  2.6497
  910TIP3    H2 2695   2.217   2.916   3.536 -0.7180  0.3424  1.8129
  911TIP3   OH2 2696   1.847   6.560   2.625 -0.1435 -0.1173  0.0977
  911TIP3    H1 2697   1.863   6.589   2.715  2.2334 -1.8696  0.3457
  911TIP3    H2 2698   1.863   6.638   2.572 -0.3727  0.6366  1.0958
  912TIP3   OH2 2699   0.694   1.595   3.203  0.3929  0.2821 -0.7179
  912TIP3    H1 2700   0.723   1.681   3.172 -0.3897 -0.0720 -2.5832
  912TIP3    H2 2701   0.772   1.556   3.243  1.0387  1.4314 -0.8073
  913TIP3   OH2 2702   7.149   3.910   3.802 -0.3468  0.0678 -0.3762
  913TIP3    H1 2703   7.114   3.997   3.781 -1.1711 -0.7140 -2.5333
  913TIP3    H2 2704   7.135   3.901   3.896 -1.5384  1.7177 -0.3510
  914TIP3   OH2 2705   7.006   4.643   4.052  0.3781 -0.5754 -0.1207
  914TIP3    H1 2706   6.947   4.590   4.105  0.6877 -0.7575  0.0494
  914TIP3    H2 2707   6.965   4.648   3.966 -0.1185 -0.2973  0.1307
  915TIP3   OH2 2708   6.764   2.542   3.554  0.4422  0.0724 -0.2929
  915TIP3    H1 2709   6.858   2.528   3.559  0.4169 -0.7588 -1.6103
  915TIP3    H2 2710   6.738   2.501   3.471 -1.1695 -0.2208  0.3230
  916TIP3   OH2 2711   5.468   0.414   0.761 -0.3934  0.4999 -0.3949
  916TIP3    H1 2712   5.556   0.452   0.770  0.0680 -0.5441 -0.2953
  916TIP3    H2 2713   5.450   0.376   0.846  0.3123 -1.8242 -1.1967
  917TIP3   OH2 2714   1.430   5.595   0.137  0.3338  0.1436 -0.0100
  917TIP3    H1 2715   1.513   5.639   0.157 -0.2014  0.5146  1.6077
  917TIP3    H2 2716   1.435   5.574   0.044  2.6345 -0.7088  0.2430
  918TIP3   OH2 2717   1.662   4.173   5.675  0.1073 -0.2582  0.1967
  918TIP3    H1 2718   1.753   4.151   5.656  0.2469 -1.0219  1.6175
  918TIP3    H2 2719   1.663   4.202   5.766 -0.7662  1.7049 -0.3802
  919TIP3   OH2 2720   3.939   2.055   2.172 -0.0205 -0.4644 -0.2725
  919TIP3    H1 2721   3.854   2.088   2.201  0.7433  1.6921 -0.2635
  919TIP3    H2 2722   3.978   2.016   2.251 -0.0230  0.8022  0.3902
  920TIP3   OH2 2723   4.094   1.595   0.326 -0.1999  0.1186 -0.0742
  920TIP3    H1 2724   4.158   1.663   0.345  0.2622 -0.2908 -0.1472
  920TIP3    H2 2725   4.128   1.552   0.247  0.3182 -1.1787  0.8139
  921TIP3   OH2 2726   0.807   1.601   1.278 -0.5555  0.2310 -0.3409
  921TIP3    H1 2727   0.816   1.512   1.314 -1.7481  1.1388  2.5023
  921TIP3    H2 2728   0.731   1.637   1.324  0.6285  3.1392 -0.4819
  922TIP3   OH2 2729   3.410   4.123   1.841  0.1853  0.0010 -0.6382
  922TIP3    H1 2730   3.373   4.128   1.753 -1.7279  0.7148  0.1537
  922TIP3    H2 2731   3.379   4.203   1.885  3.5128  1.1742 -0.1617
  923TIP3   OH2 2732   4.955   5.368   1.596  0.3274  0.3027  0.3264
  923TIP3    H1 2733   4.964   5.371   1.691 -0.5411 -0.0483  0.4285
  923TIP3    H2 2734   4.863   5.349   1.581  0.6943 -0.9308 -0.5612
  924TIP3   OH2 2735   6.918   3.015   5.408  0.3356 -0.4973 -0.7916
  924TIP3    H1 2736   6.962   3.095   5.435 -1.1316  0.1318 -0.1112
  924TIP3    H2 2737   6.837   3.045   5.367 -0.1081 -1.6217 -0.7714
  925TIP3   OH2 2738   5.749   2.087   5.779  0.0589  0.2920  0.0356
  925TIP3    H1 2739   5.742   2.010   5.724  0.1638 -0.2298  0.7288
  925TIP3    H2 2740   5.721   2.160   5.724  1.5945  0.0175 -1.1982
  926TIP3   OH2 2741   2.280   5.725   4.628  0.2864  0.6252  0.7745
  926TIP3    H1 2742   2.225   5.802   4.612 -0.4103  0.2674  1.4054
  926TIP3    H2 2743   2.305   5.695   4.540  0.2116  1.3136  0.5085
  927TIP3   OH2 2744   6.573   1.398   1.941 -0.3583  0.2454  0.3647
  927TIP3    H1 2745   6.486   1.361   1.926 -0.0844 -0.1547 -0.2595
  927TIP3    H2 2746   6.589   1.384   2.035 -0.4399 -0.8280  0.2317
  928TIP3   OH2 2747   3.998   1.100   2.654  0.0071 -0.4614 -0.1805
  928TIP3    H1 2748   3.951   1.053   2.585 -0.0533 -1.0271  0.2387
  928TIP3    H2 2749   3.969   1.191   2.645  0.0233 -0.5176 -0.9188
  929TIP3   OH2 2750   4.094   3.245   3.139  0.2355  0.9266 -0.4316
  929TIP3    H1 2751   4.018   3.192   3.116  0.8319  0.1341 -0.6110
  929TIP3    H2 2752   4.093   3.317   3.076  1.0244 -0.4205 -2.0697
  930TIP3   OH2 2753   0.242   2.989   2.718  0.3904 -0.0479 -0.3793
  930TIP3    H1 2754   0.207   3.073   2.747  0.1892 -0.1136 -0.4264
  930TIP3    H2 2755   0.191   2.924   2.766 -0.8885 -0.2037 -1.8436
  931TIP3   OH2 2756   5.125   1.739   3.580 -0.1088  0.3692  0.3527
  931TIP3    H1 2757   5.181   1.695   3.515 -0.9204  0.9244 -0.7471
  931TIP3    H2 2758   5.043   1.689   3.579  0.3549 -0.4978  2.0291
  932TIP3   OH2 2759   0.413   6.627   4.031 -0.1445  0.7560  0.1856
  932TIP3    H1 2760   0.383   6.537   4.021  1.4070  0.3313 -1.1002
  932TIP3    H2 2761   0.340   6.672   4.073 -1.1252 -0.9904  0.4584
  933TIP3   OH2 2762   2.518   1.704   0.211 -0.1741 -0.3309  0.1037
  933TIP3    H1 2763   2.507   1.655   0.293  0.3616 -2.7635 -1.1741
  933TIP3    H2 2764   2.612   1.704   0.195 -0.2902 -0.0889 -0.6274
  934TIP3   OH2 2765   2.337   2.164   5.836  0.6076  0.3247  0.0790
  934TIP3    H1 2766   2.403   2.226   5.867  1.0373 -0.7419  1.3627
  934TIP3    H2 2767   2.347   2.088   5.892 -1.9528  0.2442  0.5338
  935TIP3   OH2 2768   6.408   0.464   3.323 -0.9080 -0.2494 -0.1050
  935TIP3    H1 2769   6.327   0.414   3.326 -0.9065 -0.2985 -0.6495
  935TIP3    H2 2770   6.385   0.550   3.357 -1.3794 -0.0232 -0.9580
  936TIP3   OH2 2771   5.527   2.247   4.787  0.0249 -0.3487 -0.2228
  936TIP3    H1 2772   5.563   2.248   4.876  0.5736 -2.2795 -0.3796
  936TIP3    H2 2773   5.604   2.238   4.730 -0.4110 -0.4280 -0.8118
  937TIP3   OH2 2774   5.724   6.615   2.785  0.2293 -0.1249  0.0672
  937TIP3    H1 2775   5.716   6.711   2.783 -0.9942 -0.0896  2.5825
  937TIP3    H2 2776   5.815   6.599   2.806  0.4745  0.4625 -0.4991
  938TIP3   OH2 2777   4.576   6.494   3.614 -0.0011 -0.3953 -0.4424
  938TIP3    H1 2778   4.517   6.568   3.601  0.7542  0.1582 -0.8209
  938TIP3    H2 2779   4.630   6.518   3.689  0.1922 -0.5996 -0.5120
  939TIP3   OH2 2780   1.032   0.697   2.873 -0.0722  0.7769  0.1500
  939TIP3    H1 2781   1.038   0.740   2.788  1.3368  0.5633  0.1167
  939TIP3    H2 2782   1.003   0.607   2.853  0.8209  0.5553 -0.1671
  940TIP3   OH2 2783   6.211   4.085   5.596  0.2897 -0.4578 -0.0133
  940TIP3    H1 2784   6.260   4.051   5.521  0.8685  0.6599 -0.1723
  940TIP3    H2 2785   6.249   4.172   5.611 -0.1817 -0.4583  1.2451
  941TIP3   OH2 2786   3.951   4.476   0.355 -0.6324  1.0167  0.3530
  941TIP3    H1 2787   3.951   4.454   0.262 -0.7207 -1.9332  0.9650
  941TIP3    H2 2788   3.870   4.437   0.389  2.0722 -3.4346  2.6417
  942TIP3   OH2 2789   1.278   1.818   5.204  0.1582 -0.2471 -0.8075
  942TIP3    H1 2790   1.305   1.883   5.139  1.5682  1.3612  1.2659
  942TIP3    H2 2791   1.360   1.787   5.243 -0.6927 -0.1746  1.1138
  943TIP3   OH2 2792   5.555   2.186   5.354 -0.2258 -0.0262  0.1799
  943TIP3    H1 2793   5.547   2.132   5.276 -0.1572 -0.4034  0.4272
  943TIP3    H2 2794   5.465   2.214   5.373 -0.0494  1.3684 -0.9235
  944TIP3   OH2 2795   4.540   3.307   3.996 -0.0523 -0.1064 -0.4429
  944TIP3    H1 2796   4.613   3.356   4.034 -0.7647 -0.2958  1.2573
  944TIP3    H2 2797   4.542   3.223   4.041 -1.3040 -0.1168 -0.3755
  945TIP3   OH2 2798   1.115   3.409   5.299 -0.8910 -0.4908  0.0718
  945TIP3    H1 2799   1.165   3.348   5.245 -0.0255  0.1883  0.0755
  945TIP3    H2 2800   1.178   3.477   5.323 -2.2754  1.5968 -1.7378
  946TIP3   OH2 2801   1.351   3.122   4.476 -0.2450 -0.3045  0.0551
  946TIP3    H1 2802   1.397   3.200   4.506 -0.7917 -1.1260  3.4201
  946TIP3    H2 2803   1.416   3.052   4.482 -0.8412 -0.7946  1.1209
  947TIP3   OH2 2804   6.188   6.206   0.827  0.8502  0.4019 -0.0601
  947TIP3    H1 2805   6.135   6.276   0.789  3.1573  1.1728 -2.1196
  947TIP3    H2 2806   6.205   6.146   0.753  1.3017 -0.8147  0.9925
  948TIP3   OH2 2807   4.774   1.846   0.689 -0.3554  0.6406  0.5295
  948TIP3    H1 2808   4.781   1.753   0.666  1.0026  1.0300 -0.7559
  948TIP3    H2 2809   4.712   1.847   0.762  0.1231 -1.3532  1.0473
  949TIP3   OH2 2810   4.390   5.058   4.692  0.3177 -0.2595  0.2901
  949TIP3    H1 2811   4.335   4.991   4.650 -0.2283  1.2233 -1.5213
  949TIP3    H2 2812   4.343   5.081   4.772 -0.6807 -0.4427 -0.2226
  950TIP3   OH2 2813   2.990   2.574   3.091  0.5820  0.0237 -0.9789
  950TIP3    H1 2814   2.939   2.572   3.172  1.4432  1.0464 -0.3818
  950TIP3    H2 2815   2.968   2.492   3.046 -1.7877  0.5376 -0.8888
  951TIP3   OH2 2816   2.260   5.152  -0.007  0.0955  0.2955 -0.4971
  951TIP3    H1 2817   2.340   5.161   0.046  0.4134 -1.6963 -0.5436
  951TIP3    H2 2818   2.191   5.191   0.047  1.1156  2.3234 -0.5880
  952TIP3   OH2 2819   0.666   0.932   1.174 -0.1351 -0.4572  0.1027
  952TIP3    H1 2820   0.716   0.978   1.241  1.3874 -0.9581 -0.6463
  952TIP3    H2 2821   0.679   0.839   1.195 -1.9957 -0.6210  0.7538
  953TIP3   OH2 2822   5.351   6.634   0.518 -0.2228 -0.6651  0.3478
  953TIP3    H1 2823   5.403   6.708   0.550 -0.1500 -1.1407  1.3722
  953TIP3    H2 2824   5.274   6.633   0.575 -0.7416 -0.7506 -0.3354
  954TIP3   OH2 2825   4.378   0.043   1.454  0.2813  0.0852  0.1345
  954TIP3    H1 2826   4.379   0.137   1.474 -0.2861  0.3373 -0.9723
  954TIP3    H2 2827   4.469   0.016   1.462  0.6010  0.9415 -0.4621
  955TIP3   OH2 2828   5.927   1.755   3.152  0.1436  0.2128  0.0151
  955TIP3    H1 2829   5.863   1.720   3.091 -0.0621 -1.3734  1.0744
  955TIP3    H2 2830   5.986   1.682   3.170  0.4638  0.7618  1.3496
  956TIP3   OH2 2831   5.917   1.112   3.835 -0.5892 -0.2441 -0.0547
  956TIP3    H1 2832   5.840   1.141   3.786 -0.3668 -0.0846 -0.3103
  956TIP3    H2 2833   5.978   1.080   3.769 -1.5415 -3.1095  0.2952
  957TIP3   OH2 2834   5.592   0.243   4.915  0.2051  0.2933 -0.4481
  957TIP3    H1 2835   5.644   0.186   4.858  0.5691  1.3712 -1.2242
  957TIP3    H2 2836   5.647   0.320   4.928  1.1724 -0.8263  3.2990
  958TIP3   OH2 2837   2.721   0.252   3.404  0.3158 -0.0214  0.3185
  958TIP3    H1 2838   2.646   0.311   3.397 -1.0156 -1.5158  1.2901
  958TIP3    H2 2839   2.731   0.215   3.316  0.4545  0.8152 -0.0213
  959TIP3   OH2 2840   4.972   5.544   2.170  0.1664  0.2045  0.1135
  959TIP3    H1 2841   4.895   5.597   2.151 -0.3306 -0.4785  0.2111
  959TIP3    H2 2842   5.042   5.608   2.182 -0.1677  0.7962 -0.9211
  960TIP3   OH2 2843   4.117   2.954   1.519 -0.1369 -0.2742  0.1160
  960TIP3    H1 2844   4.114   2.997   1.433 -2.2797 -2.7046 -1.1662
  960TIP3    H2 2845   4.058   3.006   1.574 -0.7784 -0.1325 -0.6800
  961TIP3   OH2 2846   5.807   2.906   2.500  0.4365 -0.0595  0.0314
  961TIP3    H1 2847   5.847   2.820   2.512  1.8198  0.6289  0.6389
  961TIP3    H2 2848   5.820   2.926   2.408 -0.4278 -0.7377 -0.2519
  962TIP3   OH2 2849   2.426   6.196   2.996  0.3287  0.1442 -0.4845
  962TIP3    H1 2850   2.396   6.200   3.087  1.0421 -1.3280 -0.1642
  962TIP3    H2 2851   2.521   6.207   3.001  0.1423  3.2972 -1.3762
  963TIP3   OH2 2852   4.779   4.880   3.644  0.2104 -0.1752 -0.1503
  963TIP3    H1 2853   4.808   4.843   3.561 -1.1829  0.1049 -0.7950
  963TIP3    H2 2854   4.700   4.929   3.622 -1.2717 -1.6235  1.6343
  964TIP3   OH2 2855   2.112   2.351   1.150  0.4329  0.1790  0.0900
  964TIP3    H1 2856   2.066   2.350   1.066  0.1379  0.9578  0.2324
  964TIP3    H2 2857   2.200   2.318   1.130  0.9300  1.9243 -0.8867
  965TIP3   OH2 2858   3.751   3.758   1.414 -0.4283  0.0509 -0.1876
  965TIP3    H1 2859   3.695   3.799   1.480 -0.4669 -0.4228  0.0838
  965TIP3    H2 2860   3.745   3.815   1.338  0.4187  1.1681  0.5413
  966TIP3   OH2 2861   1.405   4.469   1.053 -0.1357  0.1742 -0.0506
  966TIP3    H1 2862   1.340   4.454   0.985  0.0263  1.3365 -0.4796
  966TIP3    H2 2863   1.465   4.395   1.046  0.6769  0.9677 -2.1271
  967TIP3   OH2 2864   0.849   2.627   3.731  0.4251  0.0569  0.4870
  967TIP3    H1 2865   0.921   2.689   3.727 -0.7000  1.6718  2.9570
  967TIP3    H2 2866   0.774   2.674   3.694 -0.3335  0.0813  1.9636
  968TIP3   OH2 2867   3.026   1.446   3.568  0.0669  0.1403  0.7337
  968TIP3    H1 2868   3.059   1.512   3.507 -2.4275  2.1285  1.3756
  968TIP3    H2 2869   2.987   1.379   3.512  0.4933  0.4127  0.0998
  969TIP3   OH2 2870   4.766   0.355   3.453 -0.0052  0.3210  0.5022
  969TIP3    H1 2871   4.732   0.317   3.534  1.5267 -0.1131  0.9844
  969TIP3    H2 2872   4.779   0.279   3.396  0.8795  0.3557  0.6340
  970TIP3   OH2 2873   7.174   1.454   0.369 -0.0376  0.3014 -0.2013
  970TIP3    H1 2874   7.261   1.492   0.356 -0.6562  1.4564 -1.1202
  970TIP3    H2 2875   7.125   1.522   0.415 -0.4843 -0.3191  0.2507
  971TIP3   OH2 2876   2.408   1.102   4.422 -0.3338 -0.2506 -0.2961
  971TIP3    H1 2877   2.418   1.150   4.340 -1.8482 -0.7512 -0.8148
  971TIP3    H2 2878   2.317   1.118   4.448  0.0062 -0.4248  1.0917
  972TIP3   OH2 2879   6.053   5.747   1.650 -0.2992 -0.1454 -0.3069
  972TIP3    H1 2880   6.083   5.751   1.559 -2.6896  1.2379 -1.1202
  972TIP3    H2 2881   5.968   5.791   1.649 -0.0342  0.6389  2.7845
  973TIP3   OH2 2882   3.305   4.732   1.090 -0.0850  0.3611  0.4038
  973TIP3    H1 2883   3.227   4.762   1.043 -0.1798 -0.0138  0.3202
  973TIP3    H2 2884   3.276   4.720   1.181 -0.1331  0.1945  0.3668
  974TIP3   OH2 2885   0.128   3.276   4.716 -0.2998  0.1397 -0.0033
  974TIP3    H1 2886   0.051   3.222   4.732  0.3973 -0.6101  1.0144
  974TIP3    H2 2887   0.192   3.246   4.782  0.0865  2.2764  0.6839
  975TIP3   OH2 2888   0.879   0.093   2.842  0.1403 -0.4740 -0.7454
  975TIP3    H1 2889   0.918   0.129   2.922 -2.3611 -0.7608  0.7069
  975TIP3    H2 2890   0.869   0.168   2.784 -0.4817  0.2916  0.3118
  976TIP3   OH2 2891   0.986   3.917   5.406 -0.2939 -0.2073 -0.0275
  976TIP3    H1 2892   0.947   3.845   5.456  0.5703 -1.0386 -0.4916
  976TIP3    H2 2893   1.004   3.878   5.320 -0.9294  0.9331 -0.6919
  977TIP3   OH2 2894   5.059   4.395   3.811  0.6942 -0.3125 -0.1277
  977TIP3    H1 2895   5.007   4.464   3.852  1.7462  0.8986 -0.7375
  977TIP3    H2 2896   4.995   4.329   3.786 -0.1715 -0.3595  1.9571
  978TIP3   OH2 2897   4.226   1.812   0.573  0.3290  0.8809 -0.4847
  978TIP3    H1 2898   4.292   1.806   0.642 -0.4570 -0.6198  0.1856
  978TIP3    H2 2899   4.269   1.776   0.496 -0.1975 -1.8337  0.3855
  979TIP3   OH2 2900   5.840   0.545   3.866  0.7393 -0.1636  0.9039
  979TIP3    H1 2901   5.835   0.542   3.962 -0.1072 -2.0367  0.8391
  979TIP3    H2 2902   5.750   0.532   3.837  1.2254 -1.3568 -0.1533
  980TIP3   OH2 2903   6.754   0.141   5.588  0.0697  0.3543 -0.3958
  980TIP3    H1 2904   6.702   0.099   5.657 -0.4819  1.9235  0.2042
  980TIP3    H2 2905   6.696   0.145   5.513  0.2789 -0.3381 -0.5995
  981TIP3   OH2 2906   5.843   6.370   3.323 -0.6691 -0.5385 -0.1045
  981TIP3    H1 2907   5.799   6.363   3.238 -1.1111 -1.0191  0.1568
  981TIP3    H2 2908   5.787   6.429   3.373 -2.2419 -2.7636  0.9510
  982TIP3   OH2 2909   1.064   5.635   3.313 -0.0366 -0.6458  0.1758
  982TIP3    H1 2910   1.153   5.606   3.335  0.3225 -0.9694 -1.5504
  982TIP3    H2 2911   1.013   5.616   3.392  0.8745 -2.9703  0.2965
  983TIP3   OH2 2912   2.004   5.175   0.665  0.1027  0.0250  0.5358
  983TIP3    H1 2913   2.054   5.150   0.743 -0.4052 -1.1059  0.5241
  983TIP3    H2 2914   1.966   5.260   0.686  4.5529  2.6106 -0.6238
  984TIP3   OH2 2915   5.725   6.087   4.242 -0.4545 -0.1309  0.0334
  984TIP3    H1 2916   5.715   6.178   4.270 -0.6992 -0.2632  0.3783
  984TIP3    H2 2917   5.810   6.085   4.198 -1.2294  0.6617 -1.5819
  985TIP3   OH2 2918   1.284   5.060   0.203  0.0046  0.0989 -0.2182
  985TIP3    H1 2919   1.237   5.141   0.183  0.6511 -0.0775 -2.7356
  985TIP3    H2 2920   1.355   5.087   0.262 -1.6853  0.7557  1.6527
  986TIP3   OH2 2921   3.011   5.963   4.403 -0.2341 -0.2999 -0.0954
  986TIP3    H1 2922   3.041   5.874   4.424 -0.5278 -0.1932  0.7878
  986TIP3    H2 2923   2.937   5.950   4.343  0.0319 -0.6311 -0.3567
  987TIP3   OH2 2924   1.530   3.314   4.605 -0.7431  0.2835 -0.6093
  987TIP3    H1 2925   1.576   3.397   4.603 -0.9544  0.4047 -0.4807
  987TIP3    H2 2926   1.590   3.254   4.651 -0.9721  0.5992  0.1135
  988TIP3   OH2 2927   6.508   2.701   4.952  0.0434  0.6888  0.3555
  988TIP3    H1 2928   6.443   2.660   5.009  1.0654 -0.4091  0.7721
  988TIP3    H2 2929   6.464   2.779   4.919 -0.8318  0.9916  2.0909
  989TIP3   OH2 2930   4.371   4.991   0.369 -0.4933 -0.0564 -1.0013
  989TIP3    H1 2931   4.418   4.917   0.406 -0.5343 -0.2649 -1.3517
  989TIP3    H2 2932   4.297   4.951   0.322 -1.0774  0.2701 -0.3732
  990TIP3   OH2 2933   2.213   5.506   3.917  0.0646  0.0013 -0.2009
  990TIP3    H1 2934   2.246   5.549   3.839 -1.1372  1.4878  0.0700
  990TIP3    H2 2935   2.289   5.500   3.975  0.7341 -0.2297 -1.0765
  991TIP3   OH2 2936   4.769   2.610   5.402 -0.5191  0.6536  0.2870
  991TIP3    H1 2937   4.705   2.680   5.394 -1.7030 -0.6093 -2.9736
  991TIP3    H2 2938   4.822   2.616   5.322 -0.0751 -1.5666  0.3359
  992TIP3   OH2 2939   4.992   3.592   2.648 -0.0918 -0.6296 -0.1894
  992TIP3    H1 2940   5.061   3.527   2.660 -0.0007 -0.4679  0.1904
  992TIP3    H2 2941   4.986   3.604   2.553 -0.7922 -1.9148 -0.3321
  993TIP3   OH2 2942   1.508   2.673   1.732 -0.5118  0.0993  0.4091
  993TIP3    H1 2943   1.595   2.700   1.761  0.2160 -1.1519 -0.5156
  993TIP3    H2 2944   1.505   2.579   1.744 -1.1222 -0.1149 -1.0722
  994TIP3   OH2 2945   3.442   0.107   3.118 -0.1064  0.2727  0.1055
  994TIP3    H1 2946   3.377   0.052   3.163 -0.4414  0.8158  0.2995
  994TIP3    H2 2947   3.391   0.181   3.086  0.5853  1.2499  1.1830
  995TIP3   OH2 2948   2.227   2.495   0.642  0.6272 -0.2030  0.1976
  995TIP3    H1 2949   2.272   2.449   0.571 -0.2471 -1.0592  0.1833
  995TIP3    H2 2950   2.242   2.441   0.719  1.1052  0.4376  0.5611
  996TIP3   OH2 2951   2.399   6.314   5.080 -0.4860 -0.7537 -0.1036
  996TIP3    H1 2952   2.490   6.327   5.055 -0.3401  0.7909  1.0845
  996TIP3    H2 2953   2.349   6.373   5.023 -0.5772 -0.4134  0.3259
  997TIP3   OH2 2954   5.895   2.591   2.205  0.0472 -0.3861 -0.4579
  997TIP3    H1 2955   5.817   2.644   2.222  1.2660  1.0650  0.9577
  997TIP3    H2 2956   5.900   2.532   2.280  1.8908  1.6262  1.1660
  998TIP3   OH2 2957   0.999   6.339   1.450 -0.2038 -0.2190 -0.2260
  998TIP3    H1 2958   0.925   6.387   1.414 -0.8329  0.4268  1.8093
  998TIP3    H2 2959   1.073   6.365   1.396 -0.7476  2.1266  0.0558
  999TIP3   OH2 2960   4.145   2.886   5.800 -0.1359 -0.7454 -0.3460
  999TIP3    H1 2961   4.225   2.841   5.774 -0.2571  0.8065 -3.9286
  999TIP3    H2 2962   4.080   2.860   5.736 -1.5968  0.6085  0.4946
 1000TIP3   OH2 2963   6.121   2.526   2.031 -0.0647 -0.0680  0.0703
 1000TIP3    H1 2964   6.052   2.569   2.082  0.2640 -0.0816  0.5379
 1000TIP3    H2 2965   6.085   2.440   2.011  0.2763 -0.5545  1.3903
 1001TIP3   OH2 2966   4.377   0.540   2.437 -0.1245 -0.7455  0.2905
 1001TIP3    H1 2967   4.396   0.630   2.410 -0.7595 -0.4704  0.7208
 1001TIP3    H2 2968   4.453   0.514   2.490 -0.1193 -0.3106  0.5057
 1002TIP3   OH2 2969   5.683   4.756   2.959 -0.3414  0.2518 -0.3915
 1002TIP3    H1 2970   5.730   4.676   2.937  0.2092 -0.0524  1.6881
 1002TIP3    H2 2971   5.604   4.726   3.003 -0.6778  0.8404 -0.5787
 1003TIP3   OH2 2972   1.543   4.257   4.648  0.3318 -0.0819 -0.0344
 1003TIP3    H1 2973   1.512   4.218   4.729 -2.4161  0.3259 -0.7594
 1003TIP3    H2 2974   1.631   4.222   4.636 -0.6258 -3.2877  1.1266
 1004TIP3   OH2 2975   3.273   3.812   0.291  0.1597 -0.2249  0.9645
 1004TIP3    H1 2976   3.300   3.748   0.357 -0.2966 -2.7577 -1.1400
 1004TIP3    H2 2977   3.349   3.870   0.281  2.5617 -3.3136 -0.2792
 1005TIP3   OH2 2978   2.665   1.242   5.575 -0.5448 -0.0666 -0.4481
 1005TIP3    H1 2979   2.745   1.273   5.533 -1.3091 -0.0440 -1.9536
 1005TIP3    H2 2980   2.605   1.317   5.571 -1.0603 -0.4769 -0.4749
 1006TIP3   OH2 2981   2.974   2.069   3.919  0.1805  0.0657  0.1690
 1006TIP3    H1 2982   2.985   1.974   3.926 -0.0990  0.0907  1.0693
 1006TIP3    H2 2983   3.038   2.096   3.854 -0.8272 -0.9494 -1.2992
 1007TIP3   OH2 2984   2.855   2.671   1.430 -0.2758  0.6166  0.3285
 1007TIP3    H1 2985   2.792   2.705   1.493 -0.6953 -1.2458  0.9559
 1007TIP3    H2 2986   2.805   2.656   1.350 -0.0004  1.7937 -0.0915
 1008TIP3   OH2 2987   1.445   0.023   3.611 -0.1007  0.1199  0.2668
 1008TIP3    H1 2988   1.499   0.049   3.686 -0.2382  1.8540 -0.2005
 1008TIP3    H2 2989   1.505  -0.025   3.554  0.6023  0.7827  0.4237
 1009TIP3   OH2 2990   6.228   5.215   5.162 -0.1353 -0.5107  0.2791
 1009TIP3    H1 2991   6.302   5.275   5.153  0.7032 -1.6137 -0.3774
 1009TIP3    H2 2992   6.165   5.246   5.097 -1.2495  1.7579  2.2755
 1010TIP3   OH2 2993   3.647   0.675   1.751 -0.1885  0.3984 -0.2628
 1010TIP3    H1 2994   3.652   0.618   1.828 -1.3917  0.8015  0.1473
 1010TIP3    H2 2995   3.572   0.641   1.702  0.9702 -0.2843 -1.6463
 1011TIP3   OH2 2996   1.411   2.279   2.789  0.0278 -0.6463 -0.6234
 1011TIP3    H1 2997   1.488   2.222   2.799 -0.0725 -1.0305 -1.8998
 1011TIP3    H2 2998   1.423   2.320   2.704 -0.2258  0.7886  0.0067
 1012TIP3   OH2 2999   3.960   2.358   2.525 -0.2733  0.1533 -0.1567
 1012TIP3    H1 3000   3.954   2.269   2.561 -2.0092  0.6152  0.8008
 1012TIP3    H2 3001   4.021   2.403   2.583 -0.1944 -0.1184 -0.0261
 1013TIP3   OH2 3002   1.338   6.027   4.237  0.3994  0.4094  0.2151
 1013TIP3    H1 3003   1.249   5.994   4.241  0.8401 -0.8834 -0.1870
 1013TIP3    H2 3004   1.353   6.047   4.145  0.7948 -0.2084  0.1355
 1014TIP3   OH2 3005   5.842   5.516   1.513  0.3228 -0.0579  0.3731
 1014TIP3    H1 3006   5.885   5.571   1.578  1.4792 -0.3976 -0.0891
 1014TIP3    H2 3007   5.848   5.427   1.549 -0.1476 -0.0946  0.3755
 1015TIP3   OH2 3008   0.046   0.053   1.403 -0.1048  0.0671  0.3834
 1015TIP3    H1 3009  -0.013   0.128   1.392  1.3953  1.3690  0.8007
 1015TIP3    H2 3010  -0.009  -0.015   1.441 -1.9831  0.2549 -1.7648
 1016TIP3   OH2 3011   6.625   0.010   1.305  0.3111  0.7048  0.4366
 1016TIP3    H1 3012   6.544   0.019   1.353  0.8330  0.1550  1.4531
 1016TIP3    H2 3013   6.692   0.047   1.362  1.2591 -1.8410  1.1197
 1017TIP3   OH2 3014   5.889   1.672   0.585  0.3381  0.5176 -0.2842
 1017TIP3    H1 3015   5.882   1.603   0.519 -0.0331  0.1300  0.1474
 1017TIP3    H2 3016   5.917   1.626   0.664 -0.0672  0.8395  0.0479
 1018TIP3   OH2 3017   3.552   4.654   5.164  0.0712  0.7805  0.1999
 1018TIP3    H1 3018   3.522   4.567   5.137  1.3532  0.3062  0.2306
 1018TIP3    H2 3019   3.472   4.706   5.169 -0.6609 -0.2402 -0.3785
 1019TIP3   OH2 3020   3.788   1.954   0.718 -0.1561 -0.0255  0.4779
 1019TIP3    H1 3021   3.780   2.042   0.682  0.1611  0.3450  1.2963
 1019TIP3    H2 3022   3.789   1.967   0.813 -0.3901 -0.9336  0.6135
 1020TIP3   OH2 3023   0.494   3.328   5.482 -0.8945 -0.0638 -0.6705
 1020TIP3    H1 3024   0.446   3.399   5.524 -2.5218 -0.2626 -2.0964
 1020TIP3    H2 3025   0.431   3.256   5.476 -0.8449  0.0525 -3.6464
 1021TIP3   OH2 3026   4.351   1.188   2.216 -0.0114 -0.6017  0.3710
 1021TIP3    H1 3027   4.346   1.283   2.219  0.6850 -0.5879  1.8651
 1021TIP3    H2 3028   4.428   1.165   2.268 -1.6091 -2.0715  2.2465
 1022TIP3   OH2 3029   1.515   1.567   0.770 -0.8651  0.9052  0.4555
 1022TIP3    H1 3030   1.571   1.627   0.818 -0.4377  0.9734 -0.1081
 1022TIP3    H2 3031   1.434   1.562   0.821  0.0240  0.0229  1.8321
 1023TIP3   OH2 3032   6.782   3.642   3.901  0.1839 -0.2217  0.3709
 1023TIP3    H1 3033   6.844   3.606   3.837 -0.2981  0.9554 -0.8151
 1023TIP3    H2 3034   6.831   3.711   3.945 -0.1191  0.4213 -0.2694
 1024TIP3   OH2 3035   6.047   1.556   1.837  0.2003 -0.4915 -0.4564
 1024TIP3    H1 3036   6.083   1.492   1.776 -0.6915 -1.7309  0.2680
 1024TIP3    H2 3037   6.050   1.639   1.790 -1.7575 -1.6114 -2.7559
 1025TIP3   OH2 3038   0.653   6.437   1.134 -0.0895 -0.4694 -0.0691
 1025TIP3    H1 3039   0.603   6.491   1.074  1.0570  0.2305 -0.4282
 1025TIP3    H2 3040   0.607   6.353   1.135  0.0392 -0.6141 -2.1842
 1026TIP3   OH2 3041   4.383   0.088   3.493  0.7816 -0.0255  0.2346
 1026TIP3    H1 3042   4.311   0.135   3.535  0.2379 -1.3358  0.7993
 1026TIP3    H2 3043   4.367   0.099   3.399 -0.1503 -0.2772  0.3500
 1027TIP3   OH2 3044   0.470   2.929   2.129  0.1432 -0.1361 -0.3470
 1027TIP3    H1 3045   0.538   2.888   2.184  0.7469 -1.0540 -1.7036
 1027TIP3    H2 3046   0.464   3.019   2.161 -1.0767 -1.1437  2.6248
 1028TIP3   OH2 3047   6.343   5.767   5.046  0.2208  0.0974 -0.0334
 1028TIP3    H1 3048   6.308   5.818   4.973 -0.5973 -0.3591  0.0239
 1028TIP3    H2 3049   6.279   5.778   5.116 -1.1823 -2.7365 -0.7228
 1029TIP3   OH2 3050   1.511   5.056   2.450 -0.0898 -0.1900 -0.0675
 1029TIP3    H1 3051   1.573   5.058   2.522 -0.2958 -0.4664  0.1241
 1029TIP3    H2 3052   1.531   5.133   2.397 -0.1813  0.2185  0.4903
 1030TIP3   OH2 3053   4.636   5.991   1.471 -0.1496 -0.1880  0.1156
 1030TIP3    H1 3054   4.634   5.956   1.382 -0.0555 -0.4192  0.2030
 1030TIP3    H2 3055   4.596   5.923   1.525 -1.2108  0.4049  0.1028
 1031TIP3   OH2 3056   0.970   1.850   4.847 -0.3578 -0.4681 -0.1368
 1031TIP3    H1 3057   0.908   1.794   4.801 -1.9735  1.0961  0.0092
 1031TIP3    H2 3058   0.915   1.907   4.901  1.2916  0.1514  0.9808
 1032TIP3   OH2 3059   2.909   3.055   0.907 -0.2548  0.3111 -0.4768
 1032TIP3    H1 3060   2.947   3.088   0.988 -0.4401 -1.1855  0.2658
 1032TIP3    H2 3061   2.859   3.128   0.871 -0.8994  0.7408  1.2325
 1033TIP3   OH2 3062   3.467   0.424   1.613 -0.2141  0.6721 -0.5644
 1033TIP3    H1 3063   3.441   0.512   1.588 -0.5355  0.3402 -1.4273
 1033TIP3    H2 3064   3.473   0.376   1.531 -0.4265 -0.2112 -0.0775
 1034TIP3   OH2 3065   6.841   3.353   4.168  0.1934  0.4280 -0.7545
 1034TIP3    H1 3066   6.854   3.328   4.259  0.7731  2.1247 -0.3354
 1034TIP3    H2 3067   6.780   3.288   4.133  1.5993 -1.5191  0.2351
 1035TIP3   OH2 3068   5.018   2.519   3.615  0.4484 -0.3461 -0.2986
 1035TIP3    H1 3069   4.983   2.560   3.694  1.4126  0.1066 -0.0828
 1035TIP3    H2 3070   5.102   2.563   3.601 -0.2328  0.4414 -2.2748
 1036TIP3   OH2 3071   5.777   5.648   3.429 -0.0460 -0.4490 -0.5779
 1036TIP3    H1 3072   5.705   5.586   3.425 -1.9374  1.6800 -1.6503
 1036TIP3    H2 3073   5.741   5.725   3.473  2.2426 -0.0660  0.8326
 1037TIP3   OH2 3074   3.367   0.934   0.877  0.0874  0.1046 -0.0416
 1037TIP3    H1 3075   3.450   0.894   0.849  0.8868  1.1764  0.7201
 1037TIP3    H2 3076   3.379   0.950   0.970 -0.6623  1.0333 -0.0946
 1038TIP3   OH2 3077   3.386   4.659  -0.024 -0.2477  0.2540  0.0511
 1038TIP3    H1 3078   3.402   4.715   0.052 -0.0233  0.1380  0.0886
 1038TIP3    H2 3079   3.425   4.575  -0.001 -0.9104 -0.0319  0.1443
 1039TIP3   OH2 3080   4.135   0.492   5.622 -0.2604 -0.2720  0.3303
 1039TIP3    H1 3081   4.138   0.400   5.648 -2.6534 -0.4407  0.2581
 1039TIP3    H2 3082   4.058   0.498   5.565 -1.0773  2.0491  1.5609
 1040TIP3   OH2 3083   0.063   5.037   4.145  0.1302  0.4241 -0.4139
 1040TIP3    H1 3084  -0.031   5.041   4.162 -0.2931  1.0412 -2.6021
 1040TIP3    H2 3085   0.084   5.123   4.110  1.4263  0.1193 -0.4103
 1041TIP3   OH2 3086   2.740   4.192   2.813 -0.2315 -0.4086 -0.1094
 1041TIP3    H1 3087   2.794   4.254   2.861 -0.0277 -0.6388 -0.0423
 1041TIP3    H2 3088   2.749   4.218   2.721  2.3891 -2.2272 -0.4886
 1042TIP3   OH2 3089   2.168   0.762   2.941  0.1764 -0.6139  0.2324
 1042TIP3    H1 3090   2.212   0.845   2.922 -2.4064  1.0443  0.8651
 1042TIP3    H2 3091   2.172   0.713   2.859 -0.9346  1.5321 -1.2009
 1043TIP3   OH2 3092   4.376   1.626   1.532 -0.3709  0.1156  0.2273
 1043TIP3    H1 3093   4.467   1.598   1.521 -1.2679 -3.4144  0.5927
 1043TIP3    H2 3094   4.372   1.664   1.619  0.4895 -1.1588  0.8472
 1044TIP3   OH2 3095   3.615   1.854   5.030 -0.3850 -0.0819 -0.1931
 1044TIP3    H1 3096   3.552   1.825   5.096 -1.3841 -0.5991 -1.3299
 1044TIP3    H2 3097   3.571   1.839   4.946  1.1052 -0.0784 -1.0179
 1045TIP3   OH2 3098   3.112   3.956   4.117  0.7972  0.1235 -0.0696
 1045TIP3    H1 3099   3.120   4.046   4.149  0.5908 -0.1851  0.8824
 1045TIP3    H2 3100   3.199   3.934   4.084  0.9420  0.5443  0.0265
 1046TIP3   OH2 3101   2.267   1.073   1.546 -0.2010 -0.0129  0.4704
 1046TIP3    H1 3102   2.231   1.111   1.626  1.8284  1.3070  0.8414
 1046TIP3    H2 3103   2.359   1.098   1.547  0.0760 -0.6611 -1.8750
 1047TIP3   OH2 3104   0.800   4.759   1.708 -0.0001 -0.4447  0.0547
 1047TIP3    H1 3105   0.884   4.760   1.753  0.1224 -1.1621 -0.1441
 1047TIP3    H2 3106   0.734   4.764   1.777  0.1998 -0.6058  0.2557
 1048TIP3   OH2 3107   5.473   3.496   1.867 -0.5538 -0.5698 -0.7975
 1048TIP3    H1 3108   5.460   3.424   1.805 -2.4193 -0.5045 -0.5594
 1048TIP3    H2 3109   5.384   3.521   1.893  0.1200  0.5972  0.5371
 1049TIP3   OH2 3110   4.361   5.092   3.061 -0.4850  0.2059  0.0692
 1049TIP3    H1 3111   4.426   5.023   3.073  0.2703  0.9546  0.3357
 1049TIP3    H2 3112   4.353   5.132   3.148 -0.1908  1.0978 -0.3161
 1050TIP3   OH2 3113   2.797   3.105   0.233  0.0653 -0.2038 -0.2139
 1050TIP3    H1 3114   2.887   3.104   0.200  0.1515 -1.8827 -0.0404
 1050TIP3    H2 3115   2.805   3.132   0.324  0.3680 -0.0496 -0.2847
 1051TIP3   OH2 3116   6.005   6.700   4.046 -0.0370  0.1002 -0.0732
 1051TIP3    H1 3117   5.930   6.728   3.994 -0.5571 -0.4639  0.3583
 1051TIP3    H2 3118   6.043   6.626   3.999  1.7607  1.8596 -1.5810
 1052TIP3   OH2 3119   4.908   6.775   2.102  0.0794 -0.0046 -0.3638
 1052TIP3    H1 3120   4.826   6.727   2.090  0.0548  0.2732 -1.4926
 1052TIP3    H2 3121   4.912   6.833   2.025  1.7893 -0.6898 -0.8219
 1053TIP3   OH2 3122   3.908   4.931   3.106  0.5444  0.0274 -0.0759
 1053TIP3    H1 3123   3.926   5.023   3.127 -1.0023 -0.0409  1.8161
 1053TIP3    H2 3124   3.838   4.935   3.041 -1.0686  0.2507  1.5848
 1054TIP3   OH2 3125   7.088   2.585   0.469 -0.3057  0.1439 -0.4013
 1054TIP3    H1 3126   7.131   2.557   0.388  0.5051 -1.9354  0.6570
 1054TIP3    H2 3127   7.134   2.664   0.495 -0.9448  1.1755 -2.2096
 1055TIP3   OH2 3128   3.557   4.217   0.795  0.0735 -0.5873  0.8793
 1055TIP3    H1 3129   3.543   4.297   0.745  0.9467 -1.1954 -0.3914
 1055TIP3    H2 3130   3.651   4.202   0.791 -0.2553 -2.8344 -0.8110
 1056TIP3   OH2 3131   4.990   0.234   0.592  0.2786 -0.4172  0.2423
 1056TIP3    H1 3132   5.083   0.247   0.575  0.1929 -1.1257 -0.8747
 1056TIP3    H2 3133   4.974   0.141   0.574 -0.7913 -0.1347 -0.4369
 1057TIP3   OH2 3134   3.003   1.733   0.914 -0.2481 -0.1264 -0.1149
 1057TIP3    H1 3135   3.035   1.707   1.000 -1.1854  0.0135  0.2928
 1057TIP3    H2 3136   2.908   1.716   0.917 -0.1277 -1.3269 -1.5594
 1058TIP3   OH2 3137   4.565   5.023   0.792  0.2728  0.0830  0.2408
 1058TIP3    H1 3138   4.524   4.970   0.724  0.2149  0.4932 -0.0432
 1058TIP3    H2 3139   4.606   4.959   0.850  1.1061 -0.2375 -0.6697
 1059TIP3   OH2 3140   4.773   3.084   1.910  0.1553 -0.0631  0.0101
 1059TIP3    H1 3141   4.752   3.110   1.999  1.7858  1.9677 -0.1235
 1059TIP3    H2 3142   4.831   3.008   1.919 -0.9831 -0.8981  0.5727
 1060TIP3   OH2 3143   0.553   1.465   2.867  1.1728 -0.1823  0.7718
 1060TIP3    H1 3144   0.517   1.426   2.947  1.5732  0.3505  1.2178
 1060TIP3    H2 3145   0.501   1.544   2.854 -0.4705 -1.4101 -0.8155
 1061TIP3   OH2 3146   3.320   3.454   0.663 -0.1713  0.3017  0.1366
 1061TIP3    H1 3147   3.305   3.367   0.627 -1.4588  0.8168 -0.6411
 1061TIP3    H2 3148   3.415   3.460   0.673 -0.1557 -1.9590  2.2214
 1062TIP3   OH2 3149   0.751   3.011   2.519  0.0592  0.1779  0.0225
 1062TIP3    H1 3150   0.798   2.990   2.600  2.0889  0.5066 -1.0109
 1062TIP3    H2 3151   0.752   2.930   2.468 -2.0824 -0.3202  0.6581
 1063TIP3   OH2 3152   3.957   6.037   1.446 -0.6242 -0.0122  0.5580
 1063TIP3    H1 3153   3.913   6.016   1.363 -0.0957  1.7499 -0.2230
 1063TIP3    H2 3154   4.041   5.993   1.439 -1.2023 -1.2137  0.8979
 1064TIP3   OH2 3155   6.897   5.730   5.142  0.4892 -0.0826 -0.4281
 1064TIP3    H1 3156   6.817   5.697   5.101 -0.3429  1.0457  0.2468
 1064TIP3    H2 3157   6.915   5.812   5.097  0.6459  0.2123  0.1619
 1065TIP3   OH2 3158   0.378   6.266   2.372  0.5457  0.1906 -0.2528
 1065TIP3    H1 3159   0.371   6.177   2.336  1.2680 -0.0346  0.1350
 1065TIP3    H2 3160   0.304   6.313   2.334 -0.6910 -0.9485  0.6168
 1066TIP3   OH2 3161   0.703   4.215   0.567  0.2016  0.6018 -0.4078
 1066TIP3    H1 3162   0.724   4.282   0.632  0.4714 -0.2979  0.4632
 1066TIP3    H2 3163   0.778   4.156   0.568  0.0192  0.3382 -1.2389
 1067TIP3   OH2 3164   0.374   6.170   1.882 -0.5668 -0.2310  0.1251
 1067TIP3    H1 3165   0.424   6.243   1.845 -0.3391  0.3691  1.5608
 1067TIP3    H2 3166   0.327   6.134   1.807  0.7105  0.2393 -0.9599
 1068TIP3   OH2 3167   6.317   3.174   2.064  0.1145  0.4624  0.6047
 1068TIP3    H1 3168   6.248   3.223   2.109 -0.9655  0.4073 -0.9122
 1068TIP3    H2 3169   6.285   3.084   2.061  2.3011 -0.6110  3.7907
 1069TIP3   OH2 3170   6.161   6.543   3.862  0.0190  0.1698  0.4993
 1069TIP3    H1 3171   6.133   6.452   3.852 -0.1566  0.2835 -0.0632
 1069TIP3    H2 3172   6.126   6.587   3.785  1.5284  0.3748 -0.1043
 1070TIP3   OH2 3173   1.859   0.694   4.592 -0.1315 -0.0253 -0.2111
 1070TIP3    H1 3174   1.811   0.612   4.583 -0.6211 -0.0540  2.0412
 1070TIP3    H2 3175   1.950   0.668   4.601 -0.1725 -0.2473 -0.4311
 1071TIP3   OH2 3176   2.681   0.660   4.501 -0.3677  0.7090  0.1483
 1071TIP3    H1 3177   2.734   0.581   4.508 -0.8636  0.4325  0.8336
 1071TIP3    H2 3178   2.600   0.630   4.458  0.3885  1.3089 -1.7943
 1072TIP3   OH2 3179   1.151   3.140   4.677 -0.3073 -0.2078 -0.2919
 1072TIP3    H1 3180   1.188   3.128   4.589  0.4621  0.3189 -0.0534
 1072TIP3    H2 3181   1.193   3.220   4.709  0.7713 -1.3360  1.2497
 1073TIP3   OH2 3182   1.618   1.272   1.631 -0.2734  0.4870 -0.0153
 1073TIP3    H1 3183   1.692   1.213   1.643 -0.3593  0.2461 -0.6178
 1073TIP3    H2 3184   1.636   1.345   1.690  0.7444  0.7158 -0.5904
 1074TIP3   OH2 3185   1.435   4.609   5.154  0.0201 -0.1596 -0.5070
 1074TIP3    H1 3186   1.404   4.698   5.141 -0.0499  0.0153  0.7892
 1074TIP3    H2 3187   1.360   4.561   5.188  0.7278 -0.0528  1.3491
 1075TIP3   OH2 3188   6.004   1.493   3.931 -0.5138 -0.0823  0.0070
 1075TIP3    H1 3189   6.052   1.576   3.940 -0.0502 -0.0803 -2.0163
 1075TIP3    H2 3190   5.912   1.518   3.940 -0.4104  0.7514 -1.0655
 1076TIP3   OH2 3191   0.095   3.971   5.711 -0.0540  0.1039  0.3253
 1076TIP3    H1 3192   0.034   4.025   5.761 -1.1545 -0.6013 -0.2167
 1076TIP3    H2 3193   0.115   4.024   5.633 -1.1125 -0.2125 -0.1942
 1077TIP3   OH2 3194   5.478   0.866   4.548  0.4106  0.5502 -0.2989
 1077TIP3    H1 3195   5.423   0.857   4.470 -0.8792  0.8972  0.5404
 1077TIP3    H2 3196   5.561   0.825   4.524 -0.4235 -0.5775 -1.3840
 1078TIP3   OH2 3197   3.007   2.701   0.478  0.2738  0.0006 -0.6066
 1078TIP3    H1 3198   3.059   2.729   0.403 -0.6495 -1.8495 -2.0074
 1078TIP3    H2 3199   3.017   2.773   0.541  1.1228  1.6111 -2.4453
 1079TIP3   OH2 3200   4.302   6.521   5.110 -0.3524  0.2144 -0.4684
 1079TIP3    H1 3201   4.307   6.578   5.033 -0.0949 -0.6907 -1.1407
 1079TIP3    H2 3202   4.376   6.461   5.100 -0.4082 -0.0165  0.4121
 1080TIP3   OH2 3203   2.795   2.656   0.639 -0.3493  0.2360  0.7764
 1080TIP3    H1 3204   2.778   2.722   0.706  2.3144  2.0571 -0.2097
 1080TIP3    H2 3205   2.855   2.698   0.578  0.6899 -2.7804 -0.4589
 1081TIP3   OH2 3206   0.168   4.320   3.265 -0.7202 -0.6476  0.0617
 1081TIP3    H1 3207   0.183   4.272   3.184  0.0985  0.0504 -0.2211
 1081TIP3    H2 3208   0.198   4.260   3.334  0.4230 -0.5193 -0.2944
 1082TIP3   OH2 3209   1.599   4.908   4.548 -0.1769  0.9072 -0.1715
 1082TIP3    H1 3210   1.673   4.916   4.608  0.3694  0.8002 -0.8106
 1082TIP3    H2 3211   1.541   4.844   4.589 -0.7994  2.2977  1.2090
 1083TIP3   OH2 3212   3.818   6.708   3.443  0.0558 -0.0149  0.2428
 1083TIP3    H1 3213   3.808   6.765   3.367 -1.4026 -1.1270 -0.4473
 1083TIP3    H2 3214   3.806   6.766   3.519  0.2737  0.8783 -0.3969
 1084TIP3   OH2 3215   7.120   5.716   4.304 -0.2746 -0.4313 -0.3537
 1084TIP3    H1 3216   7.064   5.702   4.228 -1.2575  4.2374 -0.8108
 1084TIP3    H2 3217   7.077   5.787   4.353  2.9226  0.2790  1.7873
 1085TIP3   OH2 3218   0.260   6.192   1.163  0.2222  0.2418  0.3223
 1085TIP3    H1 3219   0.204   6.123   1.198 -0.9157  1.2308  0.4974
 1085TIP3    H2 3220   0.234   6.202   1.072 -0.6970  1.4545  0.6882
 1086TIP3   OH2 3221   6.422   0.843   4.145  0.2036  0.2042  0.1852
 1086TIP3    H1 3222   6.485   0.815   4.078 -0.8375 -2.2738  0.1568
 1086TIP3    H2 3223   6.455   0.805   4.227  0.3679  1.5017  0.7460
 1087TIP3   OH2 3224   1.110   5.586   2.054  0.1147  0.6814 -0.1793
 1087TIP3    H1 3225   1.087   5.618   1.967  0.2582 -0.0254 -0.4736
 1087TIP3    H2 3226   1.047   5.630   2.112 -1.6653 -0.8053 -0.9104
 1088TIP3   OH2 3227   6.344   3.639   0.128  0.3549  0.2658  0.1049
 1088TIP3    H1 3228   6.351   3.708   0.062  2.7152  0.8538  0.8308
 1088TIP3    H2 3229   6.398   3.568   0.094 -0.7201 -0.5656  0.1212
 1089TIP3   OH2 3230   0.954   4.979   5.669 -0.1760  0.3446 -0.6307
 1089TIP3    H1 3231   0.874   4.984   5.618  0.3966  0.8611 -1.5019
 1089TIP3    H2 3232   1.020   4.945   5.609  0.2849 -0.0158  0.0532
 1090TIP3   OH2 3233   6.734   1.980   5.727 -0.0299 -0.4083  0.1125
 1090TIP3    H1 3234   6.720   2.070   5.698 -0.3420 -0.7634 -0.8860
 1090TIP3    H2 3235   6.647   1.949   5.752 -0.3072 -1.0791 -1.5368
 1091TIP3   OH2 3236   7.040   3.857   0.530 -0.1246  0.4907 -0.1502
 1091TIP3    H1 3237   7.027   3.763   0.542  3.1235  0.1346  1.7958
 1091TIP3    H2 3238   7.007   3.875   0.442 -0.6883 -2.4716 -0.6415
 1092TIP3   OH2 3239   6.904   2.918   2.505  0.0652  0.0537  0.0658
 1092TIP3    H1 3240   6.859   2.835   2.519  0.0232  0.0130 -0.3063
 1092TIP3    H2 3241   6.951   2.907   2.423 -1.0208  0.8531 -0.6986
 1093TIP3   OH2 3242   6.947   3.421   4.739  0.3785  0.0931 -0.0459
 1093TIP3    H1 3243   6.939   3.334   4.778  0.5287  0.2170  0.2613
 1093TIP3    H2 3244   6.897   3.415   4.657  1.5293 -0.6993 -0.7251
 1094TIP3   OH2 3245   3.574   1.393   0.487  0.1490 -0.0781  0.0074
 1094TIP3    H1 3246   3.505   1.396   0.554  0.5056  3.3702  0.4026
 1094TIP3    H2 3247   3.655   1.381   0.536  0.1483 -0.4289 -0.0795
 1095TIP3   OH2 3248   2.347   5.663   5.557  0.5934 -0.8427 -0.8220
 1095TIP3    H1 3249   2.375   5.583   5.512  1.2233 -0.5739 -0.9113
 1095TIP3    H2 3250   2.425   5.717   5.561 -0.2052  0.4866 -2.2730
 1096TIP3   OH2 3251   2.537   4.446   3.390 -0.3845  0.1698 -0.1139
 1096TIP3    H1 3252   2.619   4.410   3.424 -0.8268  0.7516  1.6461
 1096TIP3    H2 3253   2.564   4.519   3.334  0.3316 -0.4092 -0.5463
 1097TIP3   OH2 3254   0.115   4.859   0.833  0.0005  0.9500 -0.4574
 1097TIP3    H1 3255   0.033   4.817   0.859 -0.5344  2.4170  0.3298
 1097TIP3    H2 3256   0.126   4.836   0.740 -0.8613  0.0582 -0.3501
 1098TIP3   OH2 3257   1.373   5.468   3.046 -0.2156  0.4828 -0.6595
 1098TIP3    H1 3258   1.325   5.429   2.973 -0.2714 -0.0435 -0.3465
 1098TIP3    H2 3259   1.381   5.561   3.022 -1.0589  0.5068 -0.8878
 1099TIP3   OH2 3260   4.633   1.426   0.565  0.0736 -0.0316 -0.2932
 1099TIP3    H1 3261   4.716   1.453   0.525  0.5912  0.6318  1.1683
 1099TIP3    H2 3262   4.657   1.397   0.653 -1.2554  0.2879  0.2016
 1100TIP3   OH2 3263   2.902   2.409   0.665  0.2745 -0.0368 -0.2996
 1100TIP3    H1 3264   2.866   2.367   0.587  0.0769 -1.5477  0.5640
 1100TIP3    H2 3265   2.880   2.501   0.655  0.1406 -0.2116 -1.9563
 1101TIP3   OH2 3266   6.679   4.824   0.132  0.5784 -0.2625  0.3479
 1101TIP3    H1 3267   6.766   4.798   0.162  0.5235  0.4426  1.1522
 1101TIP3    H2 3268   6.674   4.917   0.152 -0.7786 -0.5288  1.3546
 1102TIP3   OH2 3269   1.462   4.417   0.035 -1.0790  0.5088 -0.5201
 1102TIP3    H1 3270   1.438   4.326   0.052  0.9268 -0.0503 -0.4317
 1102TIP3    H2 3271   1.475   4.422  -0.059  0.4951  0.2199 -0.3441
 1103TIP3   OH2 3272   2.165   0.700   4.716 -0.4010  0.4392 -0.1952
 1103TIP3    H1 3273   2.256   0.698   4.745 -0.1621  1.8227 -0.7621
 1103TIP3    H2 3274   2.125   0.769   4.770 -0.8311  0.5899 -0.7075
 1104TIP3   OH2 3275   5.160   2.298   0.087  0.2928  0.3137  0.2164
 1104TIP3    H1 3276   5.211   2.313   0.008  1.3710  0.1172  0.8514
 1104TIP3    H2 3277   5.160   2.203   0.097 -0.4621  0.2908  0.0662
 1105TIP3   OH2 3278   5.343   1.091   4.915  0.0964 -0.0117 -0.3477
 1105TIP3    H1 3279   5.315   1.000   4.902 -1.9740  0.5882 -0.4767
 1105TIP3    H2 3280   5.319   1.110   5.006  0.7016  0.3471 -0.2640
 1106TIP3   OH2 3281   1.989   5.571   4.099  0.1114  0.5931  0.4820
 1106TIP3    H1 3282   2.016   5.649   4.146  1.3460  0.4711  0.0097
 1106TIP3    H2 3283   2.067   5.543   4.051 -0.4034 -0.7115  0.3438
 1107TIP3   OH2 3284   7.234   5.595   2.623  0.2386  0.0082 -0.1529
 1107TIP3    H1 3285   7.229   5.593   2.527  1.5092 -0.3606 -0.2323
 1107TIP3    H2 3286   7.146   5.571   2.652 -0.2668  0.5014 -1.2248
 1108TIP3   OH2 3287   5.884   1.293   5.674  0.5148  0.9432 -0.4910
 1108TIP3    H1 3288   5.967   1.340   5.674  0.7241  0.5817 -0.1719
 1108TIP3    H2 3289   5.883   1.246   5.590  0.8232  0.6218 -0.3168
 1109TIP3   OH2 3290   3.900   0.674   1.079  0.1972 -0.2117  0.0493
 1109TIP3    H1 3291   3.992   0.663   1.102  0.3113  3.1375  1.6957
 1109TIP3    H2 3292   3.852   0.644   1.156  0.1644  1.7681  0.8602
 1110TIP3   OH2 3293   4.320   6.060   1.622 -0.7880  0.3430  0.1455
 1110TIP3    H1 3294   4.226   6.045   1.614 -0.8209 -0.1927  1.3766
 1110TIP3    H2 3295   4.335   6.075   1.715  0.3866  0.1126  0.0123
 1111TIP3   OH2 3296   3.855   1.760   4.510  0.1429 -0.3364 -0.2818
 1111TIP3    H1 3297   3.871   1.777   4.602 -0.5530 -2.5375  0.3102
 1111TIP3    H2 3298   3.765   1.787   4.495 -0.3747 -1.7238  0.2008
 1112TIP3   OH2 3299   0.049   5.652   2.097 -0.1658  0.2046 -0.1626
 1112TIP3    H1 3300   0.026   5.736   2.056  0.6762  1.7314  2.2438
 1112TIP3    H2 3301   0.145   5.647   2.089 -0.3110 -1.2423 -1.4497
 1113TIP3   OH2 3302   2.526   0.357   3.855  0.7849 -0.1011 -0.7027
 1113TIP3    H1 3303   2.587   0.377   3.926 -0.2260  1.3859 -0.2017
 1113TIP3    H2 3304   2.512   0.262   3.862  1.8062 -0.2069  0.1621
 1114TIP3   OH2 3305   4.879   6.515   4.297  0.1963  0.0933  0.0603
 1114TIP3    H1 3306   4.945   6.446   4.306 -1.6205 -2.4371 -3.6678
 1114TIP3    H2 3307   4.827   6.509   4.377  1.8136 -0.8293  1.0983
 1115TIP3   OH2 3308   7.189   6.394   2.387 -0.1006 -0.3331  0.3611
 1115TIP3    H1 3309   7.183   6.315   2.440  0.4198  0.0478  1.0044
 1115TIP3    H2 3310   7.168   6.465   2.448  1.4715  0.1919  0.3193
 1116TIP3   OH2 3311   6.940   6.165   2.070  0.6059 -0.0141 -0.7789
 1116TIP3    H1 3312   6.884   6.127   2.002  1.5902 -1.5083 -0.7886
 1116TIP3    H2 3313   6.910   6.125   2.152  1.6625 -0.8802 -0.7924
 1117TIP3   OH2 3314   3.765   1.508   1.529  0.7591  0.5187  0.3740
 1117TIP3    H1 3315   3.811   1.515   1.445  1.6950  2.7737  1.0168
 1117TIP3    H2 3316   3.802   1.577   1.583 -0.1651 -0.5762  2.5235
 1118TIP3   OH2 3317   6.999   4.280   2.101  0.3575  0.2074 -0.2110
 1118TIP3    H1 3318   7.030   4.231   2.178  0.8229  0.5504 -0.1759
 1118TIP3    H2 3319   7.031   4.369   2.115  0.5832  0.2393 -0.8794
 1119TIP3   OH2 3320   3.460   3.721   2.824  0.0577 -0.0043 -0.2216
 1119TIP3    H1 3321   3.512   3.778   2.768 -0.3107  1.4733  0.8489
 1119TIP3    H2 3322   3.522   3.690   2.890 -0.0128  0.2622 -0.0257
 1120TIP3   OH2 3323   0.973   0.616   5.169 -0.1804 -0.0499 -0.2505
 1120TIP3    H1 3324   1.064   0.604   5.141  0.2348  0.8110  0.6736
 1120TIP3    H2 3325   0.931   0.533   5.149  0.3515  0.1197 -2.3488
 1121TIP3   OH2 3326   1.771   1.148   0.439 -0.1133  0.3839  0.2449
 1121TIP3    H1 3327   1.724   1.092   0.377 -1.4627  1.6811  0.0384
 1121TIP3    H2 3328   1.746   1.115   0.525 -0.7978  0.5617  0.1227
 1122TIP3   OH2 3329   4.067   4.800   1.495 -0.1894  0.0606 -0.2174
 1122TIP3    H1 3330   3.997   4.776   1.556 -1.7717  0.8046 -1.6450
 1122TIP3    H2 3331   4.069   4.895   1.496  0.0273  0.0748 -1.0101
 1123TIP3   OH2 3332   2.176   3.838   5.415  0.1823  0.0953  0.2104
 1123TIP3    H1 3333   2.140   3.856   5.502  1.1705  0.6618  0.5248
 1123TIP3    H2 3334   2.201   3.745   5.418  0.3910  0.1618  0.6057
 1124TIP3   OH2 3335   3.833   0.336   4.830  0.1859  0.0448  0.3118
 1124TIP3    H1 3336   3.852   0.263   4.889  1.3000  1.2509  1.5117
 1124TIP3    H2 3337   3.739   0.328   4.811  0.0431 -1.0106  1.3472
 1125TIP3   OH2 3338   2.271   4.163   0.167  0.0906  0.4422 -0.2679
 1125TIP3    H1 3339   2.266   4.259   0.173  1.1668  0.6013 -1.5550
 1125TIP3    H2 3340   2.364   4.143   0.173 -0.1486 -0.5501  0.2355
 1126TIP3   OH2 3341   0.937   5.381   2.137 -0.2327  0.3209  0.2271
 1126TIP3    H1 3342   1.007   5.426   2.089  0.6789 -1.1880  0.0909
 1126TIP3    H2 3343   0.856   5.406   2.091  0.3613  0.9375 -0.5060
 1127TIP3   OH2 3344   5.828   2.921   1.979  0.2604  0.2145 -0.0934
 1127TIP3    H1 3345   5.769   2.846   1.976  1.0052 -0.3748 -0.1389
 1127TIP3    H2 3346   5.865   2.919   2.068  1.3649 -0.3189 -0.5552
 1128TIP3   OH2 3347   3.304   5.200   0.576 -0.2820  0.2867  0.0637
 1128TIP3    H1 3348   3.246   5.272   0.604 -1.3279 -0.6116  0.2858
 1128TIP3    H2 3349   3.379   5.205   0.635 -0.3511  1.1753  0.0955
 1129TIP3   OH2 3350   2.594   1.174   3.829 -0.6567 -0.0799 -0.4617
 1129TIP3    H1 3351   2.628   1.087   3.850 -0.4772  0.4882  1.9753
 1129TIP3    H2 3352   2.502   1.159   3.807 -1.0456 -0.7844  1.4306
 1130TIP3   OH2 3353   3.620   5.711   3.005 -0.2223  0.9730  0.4307
 1130TIP3    H1 3354   3.642   5.658   2.928 -1.1247  0.1995  0.6842
 1130TIP3    H2 3355   3.527   5.728   2.996 -0.3730  0.7224  1.4434
 1131TIP3   OH2 3356   4.103   6.609   2.227 -0.5111  0.0717  0.0373
 1131TIP3    H1 3357   4.153   6.547   2.174 -1.0909  0.4299 -0.9374
 1131TIP3    H2 3358   4.161   6.629   2.301 -0.4114 -1.8415  0.5414
 1132TIP3   OH2 3359   1.219   4.448   0.864  0.3927 -0.2913  1.1710
 1132TIP3    H1 3360   1.234   4.378   0.800 -0.6087  0.5001  0.0438
 1132TIP3    H2 3361   1.123   4.455   0.870  0.4677  1.4183  0.7664
 1133TIP3   OH2 3362   6.285   6.779   2.712  0.0196  1.0864 -0.4838
 1133TIP3    H1 3363   6.286   6.715   2.641 -0.2203 -0.7979  1.1250
 1133TIP3    H2 3364   6.247   6.857   2.673  0.5307  0.3627 -2.5972
 1134TIP3   OH2 3365   6.155   3.610   3.761 -0.0385 -0.7606 -0.3334
 1134TIP3    H1 3366   6.227   3.672   3.752  0.5827 -1.6809 -2.2756
 1134TIP3    H2 3367   6.192   3.538   3.812  0.1267 -0.7873 -0.4879
 1135TIP3   OH2 3368   3.342   3.398   3.891  0.1825  0.5034  0.8081
 1135TIP3    H1 3369   3.307   3.420   3.805 -1.1939  0.9432  1.4600
 1135TIP3    H2 3370   3.304   3.462   3.950 -0.3108 -0.8612  2.0376
 1136TIP3   OH2 3371   7.217   2.506   4.611  0.4566 -0.0054  0.3166
 1136TIP3    H1 3372   7.244   2.425   4.567  0.3579  0.3285 -0.3653
 1136TIP3    H2 3373   7.156   2.477   4.679 -1.1701 -0.3517 -1.2255
 1137TIP3   OH2 3374   0.588   2.572   3.553  0.3775  0.3765  0.0880
 1137TIP3    H1 3375   0.614   2.485   3.522 -0.3779  0.2792 -0.2826
 1137TIP3    H2 3376   0.615   2.631   3.483  0.1632  0.3508 -0.0145
 1138TIP3   OH2 3377   6.382   3.603   2.681 -0.5790 -0.1632  0.1058
 1138TIP3    H1 3378   6.459   3.587   2.734 -0.7085 -0.3142  0.2494
 1138TIP3    H2 3379   6.410   3.589   2.591 -0.6906 -1.2049  0.2218
 1139TIP3   OH2 3380   5.837   4.372   1.311  0.1333  0.7274 -0.3543
 1139TIP3    H1 3381   5.796   4.288   1.292 -0.3887  0.5010  1.5733
 1139TIP3    H2 3382   5.767   4.436   1.302 -0.7342  0.3650  2.7240
 1140TIP3   OH2 3383   0.997   0.876   1.258 -0.5524  0.1733  0.1256
 1140TIP3    H1 3384   0.936   0.869   1.332  1.5426  1.1630  2.0757
 1140TIP3    H2 3385   1.043   0.959   1.272  1.9012 -0.9530 -0.6476
 1141TIP3   OH2 3386   0.380   2.570  -0.010 -0.2752  0.3364 -0.0772
 1141TIP3    H1 3387   0.319   2.529   0.052 -0.8064 -1.3420 -1.6206
 1141TIP3    H2 3388   0.443   2.501  -0.031  2.5013  2.1248  1.7321
 1142TIP3   OH2 3389   0.092   4.175   4.979  0.6254  0.1741 -0.2924
 1142TIP3    H1 3390   0.141   4.100   5.015 -2.6292 -1.8129  0.3709
 1142TIP3    H2 3391   0.068   4.226   5.057 -0.1525 -0.0619 -0.3724
 1143TIP3   OH2 3392   5.791   4.978   4.286  0.1088 -0.0821  0.3634
 1143TIP3    H1 3393   5.828   4.999   4.371 -0.2424 -1.4569  0.8910
 1143TIP3    H2 3394   5.741   4.898   4.301 -1.9321  0.9152 -0.6072
 1144TIP3   OH2 3395   6.816   1.303   1.841  0.3794  0.2156  0.1723
 1144TIP3    H1 3396   6.728   1.330   1.866  0.2370 -1.1645  1.3019
 1144TIP3    H2 3397   6.872   1.337   1.910  0.2700 -1.7030  1.2892
 1145TIP3   OH2 3398   3.688   5.239   3.863 -0.3178  0.3421  0.3070
 1145TIP3    H1 3399   3.596   5.254   3.841  0.0796  2.6271 -0.0141
 1145TIP3    H2 3400   3.700   5.282   3.948  0.5239  0.3511  0.1936
 1146TIP3   OH2 3401   3.023   3.382   2.369  0.2514  0.6787 -0.1800
 1146TIP3    H1 3402   3.070   3.401   2.287 -0.2852  0.7162 -0.4863
 1146TIP3    H2 3403   3.062   3.442   2.433  0.0135  1.3472 -0.6400
 1147TIP3   OH2 3404   5.450   5.620   3.780 -0.9705 -0.0600  0.1982
 1147TIP3    H1 3405   5.369   5.622   3.728 -0.2102  1.5750 -0.9898
 1147TIP3    H2 3406   5.440   5.690   3.843 -1.3227 -1.1964  1.4555
 1148TIP3   OH2 3407   4.027   6.513   1.684 -1.1343 -0.8140  0.6977
 1148TIP3    H1 3408   3.992   6.425   1.697 -2.0983 -0.4303  0.7643
 1148TIP3    H2 3409   3.955   6.571   1.709 -1.3605 -0.0226 -1.5876
 1149TIP3   OH2 3410   5.355   5.458   1.933 -0.1165  0.1334 -0.1594
 1149TIP3    H1 3411   5.398   5.407   2.002  0.4520 -0.1101 -0.6791
 1149TIP3    H2 3412   5.264   5.431   1.937 -0.1136  0.1898  0.5521
 1150TIP3   OH2 3413   1.674   3.876   1.418  0.0611  0.1129 -0.2726
 1150TIP3    H1 3414   1.673   3.954   1.362 -0.7849 -0.5108 -1.1451
 1150TIP3    H2 3415   1.761   3.838   1.404  0.6798  1.1396  0.5476
 1151TIP3   OH2 3416   0.817   0.885   4.753 -0.1491 -0.3739 -0.0368
 1151TIP3    H1 3417   0.862   0.800   4.746 -0.1140 -0.3060 -0.7582
 1151TIP3    H2 3418   0.766   0.879   4.834 -1.2346 -1.6259 -0.7719
 1152TIP3   OH2 3419   5.526   2.054   0.840 -0.0934 -0.4419  0.4298
 1152TIP3    H1 3420   5.538   2.115   0.768  0.8436 -2.1870 -0.9823
 1152TIP3    H2 3421   5.468   1.986   0.804 -0.1719 -0.9951  1.5554
 1153TIP3   OH2 3422   6.364   0.848   1.070  0.2024 -0.1737 -0.4685
 1153TIP3    H1 3423   6.449   0.821   1.105  0.4798  0.7033 -0.4439
 1153TIP3    H2 3424   6.307   0.851   1.147  0.4594  0.4108 -0.2976
 1154TIP3   OH2 3425   0.174   2.441   1.041 -0.2360  0.2214  0.4725
 1154TIP3    H1 3426   0.140   2.424   1.128 -1.3134  0.5402  0.1312
 1154TIP3    H2 3427   0.136   2.526   1.016  0.4345  0.3569 -0.1154
 1155TIP3   OH2 3428   0.829   5.691   4.558 -0.3945  0.1632  0.3964
 1155TIP3    H1 3429   0.752   5.738   4.527 -0.2841  0.0617 -0.0361
 1155TIP3    H2 3430   0.896   5.759   4.567 -0.4891  0.2269  0.6217
 1156TIP3   OH2 3431   5.063   4.955   3.563 -0.0459 -0.4909  0.0621
 1156TIP3    H1 3432   5.123   5.021   3.527 -1.7936  0.2403 -1.7074
 1156TIP3    H2 3433   5.007   5.004   3.623 -1.4551 -0.2467 -1.3799
 1157TIP3   OH2 3434   1.284   5.401   4.463  0.5362  0.0646 -0.1292
 1157TIP3    H1 3435   1.310   5.466   4.527 -2.2492  0.8161  0.3734
 1157TIP3    H2 3436   1.228   5.449   4.402 -2.8147 -2.0010  1.0718
 1158TIP3   OH2 3437   0.720   1.376   0.338 -0.2501 -0.2625 -0.4440
 1158TIP3    H1 3438   0.704   1.285   0.312 -0.1008 -0.1769 -0.8419
 1158TIP3    H2 3439   0.808   1.395   0.304 -0.8904  0.5292 -1.7455
 1159TIP3   OH2 3440   5.458   0.957   3.539 -0.9482  0.4490 -0.0162
 1159TIP3    H1 3441   5.381   1.012   3.546 -0.4003  1.1604  0.5963
 1159TIP3    H2 3442   5.463   0.911   3.623 -0.4283  0.7905  0.1456
 1160TIP3   OH2 3443   2.734   0.237   3.671 -0.2151 -0.0602 -0.2111
 1160TIP3    H1 3444   2.744   0.234   3.575 -2.6454  0.3941 -0.5406
 1160TIP3    H2 3445   2.642   0.261   3.685 -0.1116 -0.8240  2.2606
 1161TIP3   OH2 3446   0.358   3.534   5.591 -0.3040 -0.2698 -0.7069
 1161TIP3    H1 3447   0.303   3.610   5.570 -0.7801 -0.0514  1.1592
 1161TIP3    H2 3448   0.370   3.539   5.686  0.3597 -2.0757 -0.6659
 1162TIP3   OH2 3449   3.157   1.489   5.388  0.3027  0.1822 -0.5720
 1162TIP3    H1 3450   3.199   1.495   5.474  0.9116 -0.2763 -0.8284
 1162TIP3    H2 3451   3.160   1.578   5.354 -0.9790  0.6083  0.3424
 1163TIP3   OH2 3452   6.518   4.361   0.241  0.0817 -0.7801 -0.4553
 1163TIP3    H1 3453   6.573   4.356   0.319  1.1983 -4.2816 -1.3039
 1163TIP3    H2 3454   6.574   4.400   0.174  0.2386 -0.8202 -0.3473
 1164TIP3   OH2 3455   0.592   6.190   0.265  0.0522  0.0738 -0.0990
 1164TIP3    H1 3456   0.654   6.231   0.205  0.2003  2.0372  1.3105
 1164TIP3    H2 3457   0.511   6.239   0.253 -0.5812 -1.0077 -0.3161
 1165TIP3   OH2 3458   4.422   6.777   2.652 -0.1528 -0.4044 -0.1588
 1165TIP3    H1 3459   4.455   6.844   2.711 -0.9803  0.6499 -0.8523
 1165TIP3    H2 3460   4.388   6.708   2.709  1.0176 -0.4045  0.5584
 1166TIP3   OH2 3461   2.916   0.012   5.339  0.7283 -0.1781  0.0503
 1166TIP3    H1 3462   2.988   0.008   5.275  1.4637  2.4705  0.6316
 1166TIP3    H2 3463   2.911   0.103   5.365 -2.1261 -0.4846  0.9342
 1167TIP3   OH2 3464   6.345   4.940   0.637  0.3438  0.2965 -0.9939
 1167TIP3    H1 3465   6.433   4.905   0.631  0.6178  0.3585  1.6625
 1167TIP3    H2 3466   6.288   4.870   0.605  1.1828 -0.8027 -0.1152
 1168TIP3   OH2 3467   3.026   0.793   1.087  0.1014 -0.4061  0.2304
 1168TIP3    H1 3468   3.092   0.729   1.060 -2.0066 -3.1222  1.0558
 1168TIP3    H2 3469   2.946   0.766   1.042 -0.8057  1.9916  0.2415
 1169TIP3   OH2 3470   2.588   3.757   4.591 -0.1485 -0.2644  0.0958
 1169TIP3    H1 3471   2.499   3.724   4.581 -0.1865 -0.4171  0.8920
 1169TIP3    H2 3472   2.625   3.754   4.503 -0.6764 -0.9248 -0.1077
 1170TIP3   OH2 3473   4.068   1.708   1.782  0.2909  0.4670 -0.3499
 1170TIP3    H1 3474   4.145   1.746   1.826 -0.2569  0.3141  0.7889
 1170TIP3    H2 3475   4.098   1.623   1.751  0.6346  0.4714 -0.0471
 1171TIP3   OH2 3476   7.011   1.476   5.861 -0.4963 -0.0512  0.0230
 1171TIP3    H1 3477   7.015   1.565   5.896  1.7440 -0.2134  0.3465
 1171TIP3    H2 3478   6.928   1.441   5.893 -2.3258  2.4662 -1.5956
 1172TIP3   OH2 3479   1.530   4.747   3.116  0.0125  0.3159 -0.6761
 1172TIP3    H1 3480   1.610   4.761   3.166  0.4255 -0.0273 -1.2400
 1172TIP3    H2 3481   1.492   4.835   3.107  0.9925  0.6673 -1.5179
 1173TIP3   OH2 3482   4.892   3.562   2.371  0.6038  0.0528 -0.7201
 1173TIP3    H1 3483   4.977   3.598   2.345  1.2760 -1.9133 -1.4089
 1173TIP3    H2 3484   4.895   3.471   2.342 -1.9992  0.0932 -1.3204
 1174TIP3   OH2 3485   0.038   3.164   0.141 -0.0127 -0.5290 -0.0329
 1174TIP3    H1 3486   0.027   3.069   0.140  2.4982 -0.8861 -0.9004
 1174TIP3    H2 3487   0.126   3.178   0.175 -0.0612  1.4470 -0.5684
 1175TIP3   OH2 3488   4.084   4.221   0.482 -0.1827  0.1276  0.1425
 1175TIP3    H1 3489   4.042   4.304   0.461 -0.8655  0.3473  2.1564
 1175TIP3    H2 3490   4.170   4.245   0.518  0.2557 -0.1421 -0.6880
 1176TIP3   OH2 3491   2.459   4.473   2.335 -0.2047 -0.7944  0.4930
 1176TIP3    H1 3492   2.399   4.487   2.408 -0.7137  2.4697 -0.3954
 1176TIP3    H2 3493   2.403   4.457   2.260 -0.1332  2.2851 -0.3456
 1177TIP3   OH2 3494   3.773   3.218   0.552 -0.1044 -0.7326 -0.3221
 1177TIP3    H1 3495   3.748   3.127   0.568 -1.2376 -0.1399  1.5729
 1177TIP3    H2 3496   3.713   3.269   0.606  0.8663  1.1278 -0.9270
 1178TIP3   OH2 3497   5.549   6.823   1.682 -0.5557 -0.1341  0.0304
 1178TIP3    H1 3498   5.621   6.780   1.729 -0.4901 -0.8781 -0.7335
 1178TIP3    H2 3499   5.515   6.756   1.624 -2.1280  0.0982  0.6498
 1179TIP3   OH2 3500   2.607   2.449   2.346  0.4864 -0.3234  0.4193
 1179TIP3    H1 3501   2.608   2.517   2.413 -0.2222  0.0709  0.0455
 1179TIP3    H2 3502   2.527   2.400   2.363 -0.7604  0.9793 -1.2688
 1180TIP3   OH2 3503   4.142   0.500   3.807  0.0544 -0.3414  0.0593
 1180TIP3    H1 3504   4.089   0.422   3.825 -0.8155  0.2003 -0.0890
 1180TIP3    H2 3505   4.192   0.514   3.887 -0.0514 -0.8404  0.2191
 1181TIP3   OH2 3506   5.570   3.779   1.772  0.5107  0.1313  0.4520
 1181TIP3    H1 3507   5.643   3.826   1.812  0.4365 -0.4635  1.3063
 1181TIP3    H2 3508   5.558   3.701   1.826 -0.7383  0.1933  0.3127
 1182TIP3   OH2 3509   0.621   2.515   2.537 -0.1142  0.2081 -0.0259
 1182TIP3    H1 3510   0.618   2.431   2.582 -0.7672  1.2204  1.9263
 1182TIP3    H2 3511   0.679   2.569   2.590 -0.0912  1.1488 -0.9798
 1183TIP3   OH2 3512   2.241   1.931   2.068  0.2931  0.3283  0.2772
 1183TIP3    H1 3513   2.147   1.944   2.058 -0.0266 -0.3419  1.9640
 1183TIP3    H2 3514   2.280   1.976   1.994 -1.4642 -1.3002 -1.7782
 1184TIP3   OH2 3515   5.739   6.579   4.115 -0.1844 -0.1057 -0.4040
 1184TIP3    H1 3516   5.679   6.513   4.081  0.1844  0.1851 -1.6741
 1184TIP3    H2 3517   5.753   6.640   4.042  0.9526  0.3234  0.1334
 1185TIP3   OH2 3518   1.557   1.252   5.209  0.1375  0.2753 -0.7042
 1185TIP3    H1 3519   1.484   1.307   5.181 -0.1736  0.7665  0.9674
 1185TIP3    H2 3520   1.518   1.168   5.230  0.0409  0.5189  0.1295
 1186TIP3   OH2 3521   3.690   1.636   0.800  0.1867  0.5853 -0.2718
 1186TIP3    H1 3522   3.696   1.727   0.831  3.4546  0.9183 -1.5569
 1186TIP3    H2 3523   3.641   1.642   0.718  0.7694  1.2738 -0.5801
 1187TIP3   OH2 3524   2.073   6.045   4.246  0.1153 -0.1600 -0.3153
 1187TIP3    H1 3525   2.002   6.006   4.195  0.2774  0.4169 -0.9860
 1187TIP3    H2 3526   2.034   6.123   4.285  0.0516 -0.4845  0.2813
 1188TIP3   OH2 3527   5.595   5.250   1.197 -0.3328 -0.0540  0.5765
 1188TIP3    H1 3528   5.613   5.178   1.257 -0.1514  0.7598  1.5070
 1188TIP3    H2 3529   5.558   5.207   1.119  0.2792 -1.1948  0.8977
 1189TIP3   OH2 3530   0.154   1.712   0.021  0.2896  0.1497  0.0467
 1189TIP3    H1 3531   0.068   1.681  -0.007  0.9782 -1.1867 -0.6805
 1189TIP3    H2 3532   0.165   1.676   0.109  0.9315 -1.4426 -0.6505
 1190TIP3   OH2 3533   2.474   4.065   2.265 -0.0097  0.1516  0.7899
 1190TIP3    H1 3534   2.392   4.113   2.249  0.5679  1.2980  1.1003
 1190TIP3    H2 3535   2.486   4.070   2.360  0.3901 -0.0515  0.7518
 1191TIP3   OH2 3536   3.607   6.614   0.076  0.6034 -0.1725 -0.5183
 1191TIP3    H1 3537   3.545   6.661   0.132  0.7148  0.5126 -0.9527
 1191TIP3    H2 3538   3.687   6.608   0.128  0.5470  0.0140 -0.4086
 1192TIP3   OH2 3539   6.571   0.524   2.079  1.0165  0.6597 -0.0772
 1192TIP3    H1 3540   6.628   0.540   2.154 -2.2086 -0.7251  2.9472
 1192TIP3    H2 3541   6.536   0.610   2.057  0.8405  0.9064  1.0869
 1193TIP3   OH2 3542   0.779   3.291   1.061  0.4307  0.1210  0.6368
 1193TIP3    H1 3543   0.832   3.211   1.066 -0.0720 -0.2055  0.8497
 1193TIP3    H2 3544   0.760   3.312   1.152  0.5497  0.4773  0.5790
 1194TIP3   OH2 3545   4.809   6.160   3.254 -0.0451 -0.5629 -0.4916
 1194TIP3    H1 3546   4.819   6.126   3.343  1.4795 -1.3608 -0.9525
 1194TIP3    H2 3547   4.718   6.191   3.251  0.4005  1.3039  1.9625
 1195TIP3   OH2 3548   0.414   6.400   0.721 -0.0145 -0.3840  0.0032
 1195TIP3    H1 3549   0.421   6.314   0.762 -1.1451 -0.2381  0.5502
 1195TIP3    H2 3550   0.323   6.426   0.735 -0.3977 -0.2353 -2.4783
 1196TIP3   OH2 3551   5.377   4.407   2.267  0.3308 -0.0333 -0.2591
 1196TIP3    H1 3552   5.337   4.463   2.334  1.1211 -0.1463  0.3199
 1196TIP3    H2 3553   5.460   4.379   2.305  0.1521 -1.2620 -0.7102
 1197TIP3   OH2 3554   3.060   3.685   2.978  0.7011  0.1415 -0.1699
 1197TIP3    H1 3555   3.047   3.592   2.998 -1.4773  0.3792 -0.2093
 1197TIP3    H2 3556   2.985   3.728   3.018  0.2962  1.5630 -2.2889
 1198TIP3   OH2 3557   3.182   5.677   2.447 -0.1517 -0.6135 -0.0360
 1198TIP3    H1 3558   3.242   5.604   2.430 -1.2891 -1.2567 -1.5317
 1198TIP3    H2 3559   3.143   5.656   2.532  0.9317 -0.7225  0.4612
 1199TIP3   OH2 3560   6.258   4.461   1.151  0.2712  0.1321 -0.6394
 1199TIP3    H1 3561   6.273   4.540   1.204  1.8652 -1.9182  2.2527
 1199TIP3    H2 3562   6.164   4.446   1.158  0.1248  1.1149 -0.2637
 1200TIP3   OH2 3563   2.587   2.800   5.449  0.5819 -0.0122  0.4111
 1200TIP3    H1 3564   2.622   2.754   5.373  0.8160  1.9867 -0.7254
 1200TIP3    H2 3565   2.644   2.771   5.521  1.7904 -0.2112 -0.5808
 1201TIP3   OH2 3566   6.081   6.631   5.317  0.4256 -0.4993  0.1865
 1201TIP3    H1 3567   6.017   6.685   5.271 -0.8630 -2.1454 -0.0376
 1201TIP3    H2 3568   6.158   6.631   5.260  0.4818  1.0911  0.2174
 1202TIP3   OH2 3569   3.132   6.367   2.647  0.2348 -0.5598 -0.2472
 1202TIP3    H1 3570   3.065   6.376   2.580  0.1561 -0.3478 -0.1405
 1202TIP3    H2 3571   3.085   6.337   2.724  0.2521 -0.3318 -0.1497
 1203TIP3   OH2 3572   3.752   6.532   5.769 -0.0276  0.2413 -0.3363
 1203TIP3    H1 3573   3.798   6.538   5.686  1.6128  0.0740  0.5088
 1203TIP3    H2 3574   3.663   6.562   5.750  0.2959  0.1760 -2.1311
 1204TIP3   OH2 3575   3.342   3.851   3.208  0.6452  0.0006 -0.2881
 1204TIP3    H1 3576   3.255   3.858   3.246  0.4176  0.5247 -0.8847
 1204TIP3    H2 3577   3.346   3.922   3.143  0.7782 -1.2583 -1.7263
 1205TIP3   OH2 3578   5.433   6.145   1.298 -0.0073  0.1393 -0.4692
 1205TIP3    H1 3579   5.449   6.057   1.332 -1.2581  0.4129  0.9511
 1205TIP3    H2 3580   5.491   6.201   1.349 -2.2312  0.6125  1.7284
 1206TIP3   OH2 3581   5.229   3.334   2.919  0.1223  0.5243  0.5637
 1206TIP3    H1 3582   5.322   3.352   2.930  0.0292  0.4289  1.6230
 1206TIP3    H2 3583   5.220   3.241   2.942 -0.3645  0.7615  1.3657
 1207TIP3   OH2 3584   3.481   3.105   2.100 -0.0705  0.1468 -0.0004
 1207TIP3    H1 3585   3.422   3.033   2.077 -0.9965  0.8643  0.0648
 1207TIP3    H2 3586   3.569   3.070   2.082 -0.5560 -0.6051 -1.0624
 1208TIP3   OH2 3587   6.986   2.145   2.375 -0.1867 -0.4731  0.3078
 1208TIP3    H1 3588   6.913   2.206   2.389 -0.7551 -0.5497 -1.9164
 1208TIP3    H2 3589   7.046   2.193   2.318  0.4380 -1.2040  0.3466
 1209TIP3   OH2 3590   6.124   5.856   1.915 -0.1903 -0.0147  0.2163
 1209TIP3    H1 3591   6.116   5.832   1.823 -1.4480  1.3421 -0.0604
 1209TIP3    H2 3592   6.036   5.842   1.951 -0.9427  3.6029  0.1137
 1210TIP3   OH2 3593   5.406   2.547   5.241 -0.0544 -0.1261 -0.4483
 1210TIP3    H1 3594   5.455   2.603   5.301 -0.1023 -0.3721 -0.1783
 1210TIP3    H2 3595   5.472   2.507   5.186 -0.0493  0.5474 -0.9556
 1211TIP3   OH2 3596   6.796   5.475   5.532 -0.4314 -0.1846 -0.0236
 1211TIP3    H1 3597   6.865   5.535   5.503 -2.0220  2.0438  0.5755
 1211TIP3    H2 3598   6.837   5.424   5.603  0.5204  1.3439  0.5776
 1212TIP3   OH2 3599   0.172   5.732   4.218 -0.9016  0.0290 -0.0798
 1212TIP3    H1 3600   0.228   5.721   4.295 -1.9321 -0.8495  0.5702
 1212TIP3    H2 3601   0.083   5.731   4.253 -1.3454  1.1848 -1.1247
 1213TIP3   OH2 3602   4.349   2.879   1.893 -0.1176 -0.2040  0.1508
 1213TIP3    H1 3603   4.402   2.920   1.825 -1.1513  1.4438  0.2984
 1213TIP3    H2 3604   4.321   2.951   1.950 -2.1759 -1.0463  0.3065
 1214TIP3   OH2 3605   5.721   1.580   3.959 -0.2509  0.1518 -0.5808
 1214TIP3    H1 3606   5.701   1.560   4.051  0.8459  0.6538 -0.2232
 1214TIP3    H2 3607   5.716   1.675   3.954  0.6937  0.1925 -0.8072
 1215TIP3   OH2 3608   7.113   6.275   3.984  0.2170  0.3454 -0.1656
 1215TIP3    H1 3609   7.098   6.366   4.012 -2.3266  0.0373 -0.2883
 1215TIP3    H2 3610   7.095   6.223   4.062 -1.5008 -0.1964 -0.8716
 1216TIP3   OH2 3611   0.456   1.694   1.813  0.2778 -1.2604  0.1391
 1216TIP3    H1 3612   0.416   1.631   1.752 -0.8700  0.4189 -0.9207
 1216TIP3    H2 3613   0.510   1.750   1.757 -0.5314  0.1073  0.6873
 1217TIP3   OH2 3614   1.992   2.068   0.370 -0.3596 -0.1857  0.7351
 1217TIP3    H1 3615   2.069   2.015   0.349 -0.3808 -0.6169  1.6909
 1217TIP3    H2 3616   1.925   2.038   0.308  0.2429  0.2410 -0.1500
 1218TIP3   OH2 3617   6.321   4.783   5.730  0.1084 -0.0645 -0.6759
 1218TIP3    H1 3618   6.416   4.781   5.728  0.1218 -3.1021 -0.5175
 1218TIP3    H2 3619   6.299   4.824   5.814  1.3305 -1.7764  0.5303
 1219TIP3   OH2 3620   0.708   4.523   5.340 -0.1858 -0.0985  0.2329
 1219TIP3    H1 3621   0.673   4.506   5.428  0.7069  0.5824  0.7390
 1219TIP3    H2 3622   0.665   4.458   5.284 -0.2599 -1.0086  1.3002
 1220TIP3   OH2 3623   4.728   4.527   3.474 -0.7288 -0.2770 -0.1024
 1220TIP3    H1 3624   4.663   4.597   3.482 -0.2770 -0.0087  2.0030
 1220TIP3    H2 3625   4.808   4.565   3.509 -0.0174 -1.3081 -0.5715
 1221TIP3   OH2 3626   7.043   2.715   3.716  0.3550  0.2654 -0.2641
 1221TIP3    H1 3627   7.079   2.794   3.677 -0.6283  0.8304 -0.0754
 1221TIP3    H2 3628   7.042   2.651   3.645 -0.6159  1.0170 -0.9461
 1222TIP3   OH2 3629   5.585   5.443   4.767  0.0181 -0.1923  0.2781
 1222TIP3    H1 3630   5.533   5.363   4.754 -1.4869  0.7168  0.5206
 1222TIP3    H2 3631   5.573   5.493   4.687  1.8418 -0.6426 -0.3287
 1223TIP3   OH2 3632   6.120   0.275   2.083 -0.1161  0.1814 -0.0464
 1223TIP3    H1 3633   6.067   0.250   2.007  1.3926 -0.6724 -0.8619
 1223TIP3    H2 3634   6.110   0.203   2.145  0.1028  0.0076 -0.2120
 1224TIP3   OH2 3635   3.722   4.412   4.950  0.2542 -0.3026 -0.1675
 1224TIP3    H1 3636   3.762   4.460   4.877 -1.3780  0.1918 -0.7836
 1224TIP3    H2 3637   3.665   4.348   4.908 -0.5511 -0.1578  0.6563
 1225TIP3   OH2 3638   6.946   2.424   5.036  0.1558 -0.5310  0.1872
 1225TIP3    H1 3639   7.035   2.455   5.054  0.5914 -0.7502 -1.4829
 1225TIP3    H2 3640   6.932   2.354   5.100  1.9703 -1.8895 -0.8113
 1226TIP3   OH2 3641   3.586   5.114   4.611  0.3637 -1.2469  0.1913
 1226TIP3    H1 3642   3.558   5.084   4.524  1.1734 -1.0325 -0.1571
 1226TIP3    H2 3643   3.682   5.116   4.606  0.3765  0.6903  0.4237
 1227TIP3   OH2 3644   2.971   0.136   1.352 -0.4384  0.5836 -0.7824
 1227TIP3    H1 3645   2.927   0.216   1.321 -0.3128  0.1694 -2.0882
 1227TIP3    H2 3646   3.064   0.159   1.351 -0.5557  1.6926  2.6485
 1228TIP3   OH2 3647   4.710   2.114   3.979 -0.1008  0.2543 -0.2491
 1228TIP3    H1 3648   4.766   2.093   4.053 -0.9138  0.6074  0.4857
 1228TIP3    H2 3649   4.621   2.112   4.015 -0.4699  0.9382 -1.0860
 1229TIP3   OH2 3650   0.952   0.575   1.495  0.2466 -0.3245 -0.5357
 1229TIP3    H1 3651   0.918   0.506   1.553 -0.0411  0.6380  0.4844
 1229TIP3    H2 3652   0.958   0.534   1.409 -2.0842 -0.9759 -0.4558
 1230TIP3   OH2 3653   0.198   0.934   3.742 -0.7654 -0.3665 -0.1241
 1230TIP3    H1 3654   0.158   0.987   3.673 -0.3965  0.7579  0.5062
 1230TIP3    H2 3655   0.275   0.895   3.699 -0.6367  0.1807 -0.4030
 1231TIP3   OH2 3656   6.974   2.363   3.853  0.1694 -0.5850  0.0550
 1231TIP3    H1 3657   6.894   2.327   3.892 -1.1586  0.0515 -1.9404
 1231TIP3    H2 3658   6.954   2.371   3.760  1.9348  1.2968 -0.2319
 1232TIP3   OH2 3659   3.684   0.172   5.603  0.3413 -0.1402  0.1100
 1232TIP3    H1 3660   3.719   0.251   5.646 -0.4002  0.4517 -0.3536
 1232TIP3    H2 3661   3.736   0.164   5.523 -0.1488  0.3751 -0.2648
 1233TIP3   OH2 3662   2.006   4.194   1.726  0.1167 -0.4228 -0.6997
 1233TIP3    H1 3663   2.050   4.265   1.772  1.2754 -2.1745  1.0905
 1233TIP3    H2 3664   1.937   4.166   1.786 -0.6601 -0.4822 -1.6045
 1234TIP3   OH2 3665   0.800   0.563   5.516 -0.0937  0.0121  0.0275
 1234TIP3    H1 3666   0.715   0.590   5.480 -1.0238 -0.2608  1.9085
 1234TIP3    H2 3667   0.819   0.627   5.584 -0.1703 -1.4646  1.5093
 1235TIP3   OH2 3668   0.739   6.451   4.405  0.1611  0.1866  0.2311
 1235TIP3    H1 3669   0.682   6.527   4.393  1.6442  1.7235  2.1159
 1235TIP3    H2 3670   0.823   6.489   4.430  1.3446 -2.0734 -0.0988
 1236TIP3   OH2 3671   5.354   1.585   0.191 -0.3006 -0.3477 -0.7995
 1236TIP3    H1 3672   5.346   1.676   0.164 -2.3591 -0.7257 -1.6181
 1236TIP3    H2 3673   5.363   1.589   0.286  0.3006  0.7189 -0.8877
 1237TIP3   OH2 3674   1.192   0.286   5.574  0.2452  0.6813 -0.2682
 1237TIP3    H1 3675   1.111   0.312   5.532 -0.1789  1.0470  0.7476
 1237TIP3    H2 3676   1.178   0.194   5.597 -0.4347  1.1145  1.1355
 1238TIP3   OH2 3677   0.052   4.680   4.212 -0.0652 -0.2053 -0.0869
 1238TIP3    H1 3678   0.065   4.716   4.124 -0.1098 -1.3711 -0.5817
 1238TIP3    H2 3679   0.012   4.595   4.198 -1.3719  0.1625  1.1292
 1239TIP3   OH2 3680   2.972   4.357   2.913 -0.3465 -0.2961  0.2857
 1239TIP3    H1 3681   3.022   4.413   2.973  0.2261 -1.2141  0.6908
 1239TIP3    H2 3682   3.037   4.326   2.850 -0.5710 -0.8366  0.3201
 1240TIP3   OH2 3683   3.078   1.682   5.037 -0.3403 -0.0720  0.0787
 1240TIP3    H1 3684   3.172   1.676   5.056 -0.3895 -1.5252 -0.0648
 1240TIP3    H2 3685   3.041   1.724   5.114  0.4722  0.9640 -0.0622
 1241TIP3   OH2 3686   5.791   1.004   3.279  0.8181 -0.1109 -0.4941
 1241TIP3    H1 3687   5.778   1.081   3.335 -0.7324 -2.3138  2.4762
 1241TIP3    H2 3688   5.853   0.950   3.326 -1.5140 -2.6563 -0.0769
 1242TIP3   OH2 3689   1.796   1.413   0.358 -0.0626 -0.8519 -0.0918
 1242TIP3    H1 3690   1.762   1.327   0.384 -0.1235 -0.8884 -0.2910
 1242TIP3    H2 3691   1.732   1.476   0.391 -0.5604 -0.9486 -0.8655
 1243TIP3   OH2 3692   5.762   4.513   4.270 -0.2846 -0.2235  0.7092
 1243TIP3    H1 3693   5.690   4.574   4.285  0.0307  0.0888  0.9589
 1243TIP3    H2 3694   5.841   4.566   4.279 -0.0110 -0.6426  0.8061
 1244TIP3   OH2 3695   3.310   3.855   4.957 -0.6273  0.0813 -0.1187
 1244TIP3    H1 3696   3.361   3.783   4.919  1.0380  1.2175 -0.1418
 1244TIP3    H2 3697   3.270   3.817   5.035 -1.6091 -1.4564 -1.3130
 1245TIP3   OH2 3698   4.546   4.292   5.381  0.4980 -0.4187 -0.2316
 1245TIP3    H1 3699   4.625   4.277   5.433  1.8070  0.2737 -1.8988
 1245TIP3    H2 3700   4.481   4.323   5.444  1.5208 -1.0792  1.2071
 1246TIP3   OH2 3701   2.721   4.091   5.146 -0.1544 -0.0203 -0.3861
 1246TIP3    H1 3702   2.704   4.007   5.105 -1.1604  0.1117 -0.2568
 1246TIP3    H2 3703   2.789   4.073   5.211 -1.0518 -0.9385  0.3291
 1247TIP3   OH2 3704   1.231   0.273   3.807  0.5468 -0.0497  0.4063
 1247TIP3    H1 3705   1.153   0.329   3.804 -0.1124 -0.9871 -0.3526
 1247TIP3    H2 3706   1.298   0.323   3.761  0.1448  0.3744  0.2685
 1248TIP3   OH2 3707   3.660   4.374   2.865 -0.4852 -0.1892 -0.0596
 1248TIP3    H1 3708   3.666   4.378   2.770 -1.7225  0.8508 -0.1158
 1248TIP3    H2 3709   3.593   4.307   2.882 -1.3760  0.6926  0.0095
 1249TIP3   OH2 3710   2.924   2.218   5.573  0.4458 -0.0753 -0.1177
 1249TIP3    H1 3711   2.930   2.166   5.652  0.5659 -0.6624 -0.5049
 1249TIP3    H2 3712   2.944   2.307   5.600  0.4865 -0.2750  0.5052
 1250TIP3   OH2 3713   2.657   0.710   1.873  0.5444 -0.3364  0.4810
 1250TIP3    H1 3714   2.686   0.766   1.946  1.1431  1.2868 -0.9374
 1250TIP3    H2 3715   2.566   0.734   1.859  0.5994 -0.2200  0.3219
 1251TIP3   OH2 3716   0.727   2.771   0.018  0.2428 -0.4848 -0.2013
 1251TIP3    H1 3717   0.802   2.763   0.077 -0.0018  0.4930  0.2660
 1251TIP3    H2 3718   0.657   2.806   0.073 -0.2232 -0.3260 -0.8876
 1252TIP3   OH2 3719   4.043   5.362   2.489  0.1279 -0.2912  0.2983
 1252TIP3    H1 3720   4.125   5.368   2.441  1.1809  0.0669  2.0713
 1252TIP3    H2 3721   3.994   5.440   2.462  1.5302  0.9736  1.2481
 1253TIP3   OH2 3722   5.617   3.592   1.028  0.0393 -0.2959  0.2304
 1253TIP3    H1 3723   5.628   3.645   0.949 -2.3787  0.3134  0.2343
 1253TIP3    H2 3724   5.594   3.505   0.997 -0.2752 -0.2238  0.2631
 1254TIP3   OH2 3725   3.092   6.665   1.950  0.3155  0.2775  0.2413
 1254TIP3    H1 3726   3.028   6.690   1.883 -0.1926  1.4177  1.1120
 1254TIP3    H2 3727   3.124   6.580   1.922 -1.7119 -0.4152 -0.1337
 1255TIP3   OH2 3728   0.326   5.462   3.599 -0.1925 -0.4110  0.1885
 1255TIP3    H1 3729   0.393   5.468   3.667  0.9335 -1.0404 -0.8267
 1255TIP3    H2 3730   0.364   5.405   3.533 -1.5204 -0.3281 -0.6828
 1256TIP3   OH2 3731   1.007   3.404   1.767  0.5052  0.1924 -0.3191
 1256TIP3    H1 3732   1.064   3.408   1.844 -0.8087  1.6345  0.6416
 1256TIP3    H2 3733   0.919   3.390   1.804 -0.1398  0.8531 -1.5623
 1257TIP3   OH2 3734   3.925   4.369   1.737  0.1966 -0.6357 -0.2878
 1257TIP3    H1 3735   3.970   4.337   1.816  1.6775  3.4398  0.8084
 1257TIP3    H2 3736   3.983   4.344   1.665  0.8590 -1.1131  0.3919
 1258TIP3   OH2 3737   1.767   1.369   5.319 -0.0211 -0.2414  0.3002
 1258TIP3    H1 3738   1.775   1.434   5.249 -0.0062 -0.8750 -0.2909
 1258TIP3    H2 3739   1.700   1.308   5.288  0.3421 -0.8065  0.6202
 1259TIP3   OH2 3740   2.859   1.613   1.127 -0.0375  0.3091  0.4516
 1259TIP3    H1 3741   2.915   1.657   1.192 -0.1640 -0.1524  0.8828
 1259TIP3    H2 3742   2.775   1.660   1.132  0.1781  0.7461  0.0884
 1260TIP3   OH2 3743   2.668   4.577   2.737  0.4634 -0.2590 -0.1384
 1260TIP3    H1 3744   2.679   4.648   2.800 -0.1490  0.4581 -0.8178
 1260TIP3    H2 3745   2.694   4.614   2.653 -1.9234 -0.0977 -0.8869
 1261TIP3   OH2 3746   0.699   3.320   4.816 -0.0240  0.4038  0.2459
 1261TIP3    H1 3747   0.744   3.279   4.890  1.0743  2.1056  0.5673
 1261TIP3    H2 3748   0.658   3.246   4.769 -0.9227 -0.7112  2.6128
 1262TIP3   OH2 3749   6.748   3.502   5.524 -0.1254  0.3760  0.4249
 1262TIP3    H1 3750   6.753   3.442   5.599  1.9671  1.2103  1.0070
 1262TIP3    H2 3751   6.713   3.448   5.453 -0.0770 -1.0258  1.4199
 1263TIP3   OH2 3752   1.971   0.173   3.307 -0.3401  0.6466  0.5539
 1263TIP3    H1 3753   1.964   0.248   3.367 -0.6302  2.3773 -1.5065
 1263TIP3    H2 3754   2.054   0.187   3.262 -0.7493  0.1580 -0.3718
 1264TIP3   OH2 3755   0.516   2.193   4.132  0.1904 -0.4426 -0.2723
 1264TIP3    H1 3756   0.514   2.098   4.122  1.6598 -0.5771  0.3670
 1264TIP3    H2 3757   0.426   2.221   4.118 -0.4812 -2.0461  0.5901
 1265TIP3   OH2 3758   6.488   6.538   4.766 -0.3847 -0.9088 -0.3416
 1265TIP3    H1 3759   6.487   6.570   4.675  0.4391 -3.5958 -1.3983
 1265TIP3    H2 3760   6.396   6.541   4.793 -0.6495 -0.0930 -1.2567
 1266TIP3   OH2 3761   1.993   2.832   4.126 -0.2849  0.0907 -0.5950
 1266TIP3    H1 3762   1.979   2.827   4.032  0.1833  0.9283 -0.7211
 1266TIP3    H2 3763   1.958   2.750   4.161 -3.2955  1.0152 -1.1270
 1267TIP3   OH2 3764   3.175   5.296   4.905 -0.2080 -0.3089 -0.2833
 1267TIP3    H1 3765   3.190   5.243   4.827  0.2485  1.6337 -1.5669
 1267TIP3    H2 3766   3.262   5.323   4.933 -0.3586 -1.0312  0.9765
 1268TIP3   OH2 3767   1.397   4.171   1.481 -0.1318 -0.1165  0.5568
 1268TIP3    H1 3768   1.310   4.164   1.520  1.0081  0.2773  3.3388
 1268TIP3    H2 3769   1.451   4.111   1.530  1.9381  2.2196  1.3567
 1269TIP3   OH2 3770   3.602   1.495   0.232 -0.2217  0.1337  0.1372
 1269TIP3    H1 3771   3.614   1.454   0.318  0.3448  0.8127  0.3903
 1269TIP3    H2 3772   3.511   1.474   0.209 -0.1235 -0.7592  0.5178
 1270TIP3   OH2 3773   1.649   2.745   2.160 -0.2884 -0.1394  0.0954
 1270TIP3    H1 3774   1.652   2.649   2.161 -1.0571 -0.1975 -1.4373
 1270TIP3    H2 3775   1.652   2.769   2.253  0.7055 -1.6014  0.4825
 1271TIP3   OH2 3776   5.906   2.303   2.898 -0.9220  0.4735 -0.5581
 1271TIP3    H1 3777   5.887   2.326   2.988  0.0692  0.4466 -0.3303
 1271TIP3    H2 3778   5.975   2.236   2.904 -2.5456 -1.3783 -1.2504
 1272TIP3   OH2 3779   4.663   5.345   2.312 -0.1826 -0.8131  0.2919
 1272TIP3    H1 3780   4.719   5.417   2.341 -0.3188 -0.5141 -0.1730
 1272TIP3    H2 3781   4.596   5.339   2.380 -1.7122  1.2524 -0.8773
 1273TIP3   OH2 3782   1.466   1.699   5.641 -0.3414 -0.1671 -0.0284
 1273TIP3    H1 3783   1.481   1.655   5.725 -0.7510  0.7748  0.5574
 1273TIP3    H2 3784   1.518   1.649   5.578 -0.7416 -1.4523  0.6071
 1274TIP3   OH2 3785   1.229   5.839   3.164  0.7354 -0.0220  0.1840
 1274TIP3    H1 3786   1.158   5.825   3.227  1.2616 -0.3148  0.7170
 1274TIP3    H2 3787   1.225   5.762   3.107  0.9870 -0.3218  0.5668
 1275TIP3   OH2 3788   6.710   3.323   5.740 -0.4067 -0.2227  0.9195
 1275TIP3    H1 3789   6.675   3.391   5.797 -1.1542 -0.4861  0.7820
 1275TIP3    H2 3790   6.714   3.245   5.795  0.5477 -0.0624  1.1076
 1276TIP3   OH2 3791   1.379   5.857   2.812 -0.1541 -0.3051  0.1682
 1276TIP3    H1 3792   1.370   5.835   2.719  0.0116 -1.5619  0.4420
 1276TIP3    H2 3793   1.295   5.895   2.836  0.6021  2.4611 -1.0985
 1277TIP3   OH2 3794   3.125   5.959   3.057  0.4808 -0.0761 -0.1637
 1277TIP3    H1 3795   3.100   6.049   3.039  1.9916  0.5898  0.8269
 1277TIP3    H2 3796   3.072   5.907   2.998 -0.4268  1.4586 -0.7607
 1278TIP3   OH2 3797   5.777   4.854   0.190  0.3205 -0.1235  0.4873
 1278TIP3    H1 3798   5.738   4.936   0.158 -2.1853 -1.6421 -0.7372
 1278TIP3    H2 3799   5.871   4.871   0.192 -0.0273  2.4548 -0.6948
 1279TIP3   OH2 3800   5.406   0.979   0.404  0.0198 -0.3419  0.0715
 1279TIP3    H1 3801   5.418   0.884   0.416 -2.5542 -0.7607 -0.1913
 1279TIP3    H2 3802   5.478   1.004   0.347  0.3602 -2.2910 -0.4552
 1280TIP3   OH2 3803   2.241   0.146   2.686 -0.0567  0.4556 -0.2945
 1280TIP3    H1 3804   2.333   0.119   2.696  0.0281  0.9705  0.4422
 1280TIP3    H2 3805   2.191   0.072   2.720  0.1306  0.6104  0.3465
 1281TIP3   OH2 3806   4.164   2.157   3.653 -0.2107 -0.1374 -0.1589
 1281TIP3    H1 3807   4.228   2.229   3.653 -0.0844 -0.1994  1.8786
 1281TIP3    H2 3808   4.087   2.194   3.609  0.4431  0.6832 -0.6373
 1282TIP3   OH2 3809   6.658   2.913   2.721  0.6429 -0.4073 -0.0729
 1282TIP3    H1 3810   6.669   2.818   2.726  2.3115 -0.1861  1.5724
 1282TIP3    H2 3811   6.564   2.927   2.733  0.2991 -1.8524 -0.8477
 1283TIP3   OH2 3812   5.053   5.365   5.361  0.6822 -0.1059 -0.5026
 1283TIP3    H1 3813   4.997   5.293   5.389 -0.6462  1.2706  0.5099
 1283TIP3    H2 3814   4.993   5.435   5.337  1.9520  0.9630 -0.6989
 1284TIP3   OH2 3815   3.048   4.328   4.759  0.1688  0.0800  0.4252
 1284TIP3    H1 3816   3.063   4.245   4.714  2.1885  0.9353 -0.6492
 1284TIP3    H2 3817   3.079   4.314   4.848  1.6975 -0.0324 -0.0847
 1285TIP3   OH2 3818   5.315   3.183   1.838 -0.2377  0.1178  0.1123
 1285TIP3    H1 3819   5.399   3.214   1.805 -0.8253  0.9180 -0.6813
 1285TIP3    H2 3820   5.302   3.233   1.919 -0.2891  0.5567 -0.1601
 1286TIP3   OH2 3821   0.302   4.615   0.880  0.0019  0.0972 -0.0869
 1286TIP3    H1 3822   0.360   4.602   0.805 -0.8592 -1.8820 -0.4528
 1286TIP3    H2 3823   0.251   4.693   0.857  0.8167  0.4424 -0.8221
 1287TIP3   OH2 3824   0.593   6.267   5.790  0.4024  0.1499  0.5485
 1287TIP3    H1 3825   0.651   6.271   5.865  0.2970 -0.5147  0.6730
 1287TIP3    H2 3826   0.608   6.179   5.753 -0.0041  0.2369  0.1703
 1288TIP3   OH2 3827   3.232   0.237   0.873 -0.0993 -0.3527 -0.1418
 1288TIP3    H1 3828   3.272   0.172   0.815 -0.3530  0.1633 -0.8999
 1288TIP3    H2 3829   3.232   0.195   0.959  0.9469 -0.8406 -0.3655
 1289TIP3   OH2 3830   2.184   4.795   0.249  0.3866 -0.0478  0.0509
 1289TIP3    H1 3831   2.103   4.760   0.286 -1.1681  1.0646 -2.0424
 1289TIP3    H2 3832   2.179   4.889   0.265  2.0533 -0.1015  1.1928
 1290TIP3   OH2 3833   0.223   4.086   2.673 -0.2043  0.0231  0.6064
 1290TIP3    H1 3834   0.243   4.165   2.622 -0.0831  0.1697  0.8752
 1290TIP3    H2 3835   0.303   4.070   2.723 -0.6880  0.4883  1.5370
 1291TIP3   OH2 3836   4.661   2.801   0.299  0.0582 -0.3758 -0.0456
 1291TIP3    H1 3837   4.601   2.801   0.373 -1.4945  0.1599 -1.2412
 1291TIP3    H2 3838   4.636   2.878   0.248  2.0866  0.1254 -0.3625
 1292TIP3   OH2 3839   0.757   1.375   1.844  0.1423 -0.3908 -0.7133
 1292TIP3    H1 3840   0.694   1.305   1.824 -0.2956 -0.0434 -0.5677
 1292TIP3    H2 3841   0.828   1.330   1.891  0.4114 -0.9318 -1.6192
 1293TIP3   OH2 3842   5.521   4.292   4.999 -0.1506  0.3014  0.4148
 1293TIP3    H1 3843   5.534   4.298   4.905 -0.7130  0.1377  0.3201
 1293TIP3    H2 3844   5.486   4.377   5.024 -1.0288 -0.0164  0.2940
 1294TIP3   OH2 3845   3.753   2.897   3.233 -0.2177 -0.1645  0.3369
 1294TIP3    H1 3846   3.683   2.851   3.186  0.8953 -0.5612 -0.9881
 1294TIP3    H2 3847   3.770   2.975   3.180 -0.1709  0.3371  1.0736
 1295TIP3   OH2 3848   4.519   3.025   0.030  0.2337 -0.3515  0.0623
 1295TIP3    H1 3849   4.510   2.930   0.017 -0.8989 -0.0691 -1.5294
 1295TIP3    H2 3850   4.601   3.047  -0.014  1.2653 -0.7577  1.6801
 1296TIP3   OH2 3851   0.513   3.621   0.788 -0.3663 -0.1392  0.5201
 1296TIP3    H1 3852   0.568   3.676   0.845 -1.4181 -0.1884  1.6243
 1296TIP3    H2 3853   0.532   3.532   0.817 -1.2031 -0.1414  1.0782
 1297TIP3   OH2 3854   0.714   5.239   3.716  0.1959  0.4197 -0.1785
 1297TIP3    H1 3855   0.786   5.294   3.687 -0.7294  1.3514 -0.7603
 1297TIP3    H2 3856   0.743   5.150   3.696  2.2402  0.5150  1.8948
 1298TIP3   OH2 3857   0.209   0.992   0.842 -0.1526 -0.0083  0.2083
 1298TIP3    H1 3858   0.213   0.985   0.938  1.2538 -0.6001  0.1270
 1298TIP3    H2 3859   0.298   1.011   0.815  0.2809 -3.3412 -1.2070
 1299TIP3   OH2 3860   4.246   6.214   4.406  0.7276  0.5042 -0.4612
 1299TIP3    H1 3861   4.245   6.183   4.497 -0.1677  0.5789 -0.4328
 1299TIP3    H2 3862   4.247   6.310   4.414  0.4248  0.5150 -0.5181
 1300TIP3   OH2 3863   6.497   1.752   2.143  0.3139 -0.1304 -0.5234
 1300TIP3    H1 3864   6.429   1.818   2.152  0.9590  0.9021 -2.7154
 1300TIP3    H2 3865   6.479   1.690   2.214 -2.2907  0.6172 -0.4186
 1301TIP3   OH2 3866   2.296   4.295   0.576 -0.1781  0.2967  0.2393
 1301TIP3    H1 3867   2.327   4.385   0.567  0.7954 -0.1672 -1.6907
 1301TIP3    H2 3868   2.373   4.241   0.558 -0.9868 -0.9170  0.2625
 1302TIP3   OH2 3869   6.230   0.848   2.614 -0.2708 -0.7324 -0.2542
 1302TIP3    H1 3870   6.311   0.868   2.660 -0.7456  1.4343 -0.2148
 1302TIP3    H2 3871   6.210   0.928   2.564 -1.9606 -1.4866 -0.8938
 1303TIP3   OH2 3872   7.019   4.132   3.723 -0.2419 -0.1501  0.0936
 1303TIP3    H1 3873   6.982   4.220   3.732 -0.4527  0.0315 -1.9641
 1303TIP3    H2 3874   7.011   4.112   3.629  0.1413 -2.2178  0.4394
 1304TIP3   OH2 3875   6.984   2.440   1.855 -0.6670  0.5645 -0.0117
 1304TIP3    H1 3876   7.006   2.515   1.800  3.6056 -0.2280  0.2953
 1304TIP3    H2 3877   7.060   2.429   1.912 -2.3365 -2.3416  1.8914
 1305TIP3   OH2 3878   3.703   1.917   0.125 -0.1121  0.5023 -0.0080
 1305TIP3    H1 3879   3.772   1.982   0.142  0.2115 -0.1152  1.1748
 1305TIP3    H2 3880   3.633   1.941   0.186 -0.1294 -0.0562  0.1914
 1306TIP3   OH2 3881   3.172   2.206   4.276  0.1900  0.0643 -0.0877
 1306TIP3    H1 3882   3.228   2.129   4.282 -0.0252 -0.0172  1.1353
 1306TIP3    H2 3883   3.120   2.204   4.356 -0.2042  1.1823 -0.2975
 1307TIP3   OH2 3884   5.917   6.007   4.482 -0.2030  0.3322 -0.1574
 1307TIP3    H1 3885   5.912   5.915   4.456 -0.5590  0.1699  0.4718
 1307TIP3    H2 3886   6.005   6.016   4.519  0.1000  0.4288 -0.8772
 1308TIP3   OH2 3887   3.217   1.746   5.291  0.1719 -0.4621  0.2198
 1308TIP3    H1 3888   3.186   1.822   5.241 -0.4274 -0.1747  1.0175
 1308TIP3    H2 3889   3.308   1.767   5.311 -0.1321  0.2912  0.8769
 1309TIP3   OH2 3890   4.277   5.079   4.935 -0.2218  0.0978 -0.1485
 1309TIP3    H1 3891   4.348   5.136   4.966  0.2434  1.0005 -2.6734
 1309TIP3    H2 3892   4.304   4.991   4.963  1.7830  0.4530 -0.8007
 1310TIP3   OH2 3893   6.298   5.499   2.387 -0.2651 -0.0199  0.0034
 1310TIP3    H1 3894   6.261   5.472   2.302 -0.0409 -0.4702  0.0429
 1310TIP3    H2 3895   6.225   5.542   2.432  0.1505  2.0317 -1.1990
 1311TIP3   OH2 3896   4.150   4.564   4.524  0.1247 -0.3425  0.0092
 1311TIP3    H1 3897   4.059   4.547   4.499 -0.4573  2.8502 -0.5298
 1311TIP3    H2 3898   4.144   4.600   4.613  0.5002  1.9064 -0.7961
 1312TIP3   OH2 3899   3.496   3.765   5.865 -0.9257 -0.3898  0.2490
 1312TIP3    H1 3900   3.474   3.715   5.944 -0.6941 -0.5563  0.2079
 1312TIP3    H2 3901   3.576   3.724   5.832 -1.6080 -1.0365 -0.6832
 1313TIP3   OH2 3902   5.041   4.290   5.594 -0.4326 -0.3650 -0.2965
 1313TIP3    H1 3903   5.037   4.385   5.579 -2.2246 -0.2241  0.8522
 1313TIP3    H2 3904   5.133   4.273   5.617 -0.7426  1.6840  3.0106
 1314TIP3   OH2 3905   5.579   3.050   3.418  0.1651 -0.4459  0.1083
 1314TIP3    H1 3906   5.660   3.001   3.401 -0.6857 -1.1928 -2.2153
 1314TIP3    H2 3907   5.537   3.003   3.490  0.9487 -1.1509  0.1195
 1315TIP3   OH2 3908   6.360   5.832   0.837  0.1351 -0.8706  0.7827
 1315TIP3    H1 3909   6.352   5.809   0.744 -1.1521 -1.3998  1.0143
 1315TIP3    H2 3910   6.271   5.830   0.871  0.1185  2.4200  1.3364
 1316TIP3   OH2 3911   5.266   5.985   4.088 -0.1386 -0.2285 -0.0198
 1316TIP3    H1 3912   5.262   6.052   4.156 -1.5348 -0.1395 -0.1539
 1316TIP3    H2 3913   5.308   5.910   4.130 -2.5049 -0.7837  1.5346
 1317TIP3   OH2 3914   1.069   1.283   4.491 -0.4310  0.5328  0.3084
 1317TIP3    H1 3915   0.992   1.256   4.541 -1.7249  1.3979 -1.1389
 1317TIP3    H2 3916   1.074   1.221   4.419  1.1657 -0.4423  1.2160
 1318TIP3   OH2 3917   2.021   5.414   2.544  0.6610  0.2995  0.4890
 1318TIP3    H1 3918   2.060   5.490   2.502  1.5913  1.2348  2.8475
 1318TIP3    H2 3919   1.937   5.447   2.579  0.2017 -0.2765 -0.0461
 1319TIP3   OH2 3920   4.369   4.471   2.801  0.7281 -0.3300 -0.2470
 1319TIP3    H1 3921   4.451   4.495   2.842 -0.1683  1.4061  0.6559
 1319TIP3    H2 3922   4.307   4.461   2.874 -0.0357 -0.8850 -0.9440
 1320TIP3   OH2 3923   4.014   5.439   4.321 -0.2203 -0.2439 -0.2497
 1320TIP3    H1 3924   3.997   5.431   4.415  1.6067 -1.5300  0.0266
 1320TIP3    H2 3925   4.109   5.441   4.314 -0.2734  3.0081 -1.8911
 1321TIP3   OH2 3926   3.075   1.495   0.375 -0.0314  0.7216  0.3551
 1321TIP3    H1 3927   3.100   1.446   0.453 -1.2655  0.7949  0.8207
 1321TIP3    H2 3928   3.126   1.456   0.304 -0.0406 -0.3734  0.9357
 1322TIP3   OH2 3929   1.733   2.932   0.084 -0.2328 -0.5410  0.2447
 1322TIP3    H1 3930   1.758   2.986   0.158 -0.4833  2.0761 -1.4416
 1322TIP3    H2 3931   1.641   2.909   0.099 -0.8345  1.4957 -0.0349
 1323TIP3   OH2 3932   6.847   5.761   4.159  0.6667 -0.4056  0.1070
 1323TIP3    H1 3933   6.852   5.723   4.246 -2.9401 -0.6079  0.3629
 1323TIP3    H2 3934   6.822   5.852   4.173 -0.7238 -0.6399 -0.6842
 1324TIP3   OH2 3935   4.733   5.267   4.687 -0.3310 -0.7443  0.7322
 1324TIP3    H1 3936   4.710   5.187   4.734 -0.7136 -1.5346 -0.7443
 1324TIP3    H2 3937   4.794   5.238   4.619 -0.5015  0.2163  0.1534
 1325TIP3   OH2 3938   7.192   5.344   2.196  0.4517  0.0147 -0.5892
 1325TIP3    H1 3939   7.098   5.329   2.203  0.6285 -0.7324  0.6140
 1325TIP3    H2 3940   7.212   5.335   2.103 -0.8452  1.4786 -1.0582
 1326TIP3   OH2 3941   6.671   3.765   0.361 -0.3952  0.0467  0.0381
 1326TIP3    H1 3942   6.654   3.856   0.338 -0.1849  0.1876  0.4405
 1326TIP3    H2 3943   6.719   3.729   0.286 -2.2174 -0.2991 -1.0446
 1327TIP3   OH2 3944   6.767   5.603   3.207  0.6956  0.0077 -0.2697
 1327TIP3    H1 3945   6.731   5.638   3.126 -0.1167 -1.9307 -0.8108
 1327TIP3    H2 3946   6.756   5.508   3.199 -0.0499 -0.2197  2.3813
 1328TIP3   OH2 3947   3.455   1.231   3.234  0.1146 -0.0225  0.4683
 1328TIP3    H1 3948   3.449   1.180   3.153  1.5257  0.6072 -0.0564
 1328TIP3    H2 3949   3.374   1.282   3.236  0.7704  1.2048 -1.4419
 1329TIP3   OH2 3950   1.111   2.995   2.921  0.1499  0.5702  0.3209
 1329TIP3    H1 3951   1.187   3.023   2.871  0.0341 -1.4318 -1.0619
 1329TIP3    H2 3952   1.147   2.938   2.989  0.0118  0.8847  0.6632
 1330TIP3   OH2 3953   6.346   0.376   0.640 -0.5468 -0.1188  0.1482
 1330TIP3    H1 3954   6.421   0.322   0.617 -2.2444 -2.9750  0.7904
 1330TIP3    H2 3955   6.363   0.403   0.730 -0.5431 -1.3119  0.5243
 1331TIP3   OH2 3956   0.268   2.805   2.023  0.1916  0.7459 -0.0993
 1331TIP3    H1 3957   0.208   2.754   2.078  0.4787  0.5113 -0.0019
 1331TIP3    H2 3958   0.323   2.852   2.085 -1.0611  2.3892 -0.1670
 1332TIP3   OH2 3959   5.692   2.644   5.519 -0.2436  0.2392 -0.0457
 1332TIP3    H1 3960   5.625   2.691   5.469 -1.1599  0.2901  1.1758
 1332TIP3    H2 3961   5.655   2.636   5.606  1.1455 -0.2041  0.5285
 1333TIP3   OH2 3962   3.211   0.804   1.683  0.5906  0.2521  0.0644
 1333TIP3    H1 3963   3.134   0.800   1.625  1.6718 -0.2362 -1.3949
 1333TIP3    H2 3964   3.175   0.791   1.771 -1.0807  0.7508 -0.5009
 1334TIP3   OH2 3965   0.193   4.238   3.895  0.4512 -0.2895 -0.4449
 1334TIP3    H1 3966   0.165   4.287   3.972 -0.1327 -0.9689 -0.2158
 1334TIP3    H2 3967   0.203   4.147   3.925  1.2078 -0.3848 -0.9327
 1335TIP3   OH2 3968   2.181   1.186   1.798 -0.3689 -0.2065  0.5946
 1335TIP3    H1 3969   2.152   1.267   1.840  0.3852  0.7599 -0.6923
 1335TIP3    H2 3970   2.204   1.128   1.872 -2.4231  0.1218  1.5685
 1336TIP3   OH2 3971   4.904   2.783   2.365 -0.4932  0.3230 -0.5234
 1336TIP3    H1 3972   4.840   2.723   2.327  0.8774 -0.8612 -1.0985
 1336TIP3    H2 3973   4.867   2.808   2.449 -0.7301 -2.1439  0.1980
 1337TIP3   OH2 3974   2.648   6.269   1.272 -0.1810  0.3143 -0.3086
 1337TIP3    H1 3975   2.609   6.271   1.185 -0.3480 -0.2874 -0.2529
 1337TIP3    H2 3976   2.729   6.318   1.263  1.1292 -1.9167 -1.4722
 1338TIP3   OH2 3977   0.078   2.899   0.149  0.2787 -0.0101 -0.0470
 1338TIP3    H1 3978   0.061   2.819   0.099  0.0476 -0.4851  0.7732
 1338TIP3    H2 3979   0.129   2.869   0.225 -0.0800  0.5706  0.4295
 1339TIP3   OH2 3980   4.898   3.882   0.837 -0.2112 -0.1112  0.1953
 1339TIP3    H1 3981   4.987   3.918   0.846 -0.8089  1.3510  0.4804
 1339TIP3    H2 3982   4.911   3.798   0.792  1.7261 -1.8688  3.5885
 1340TIP3   OH2 3983   3.374   1.049   3.012  0.1349 -0.1615  0.2448
 1340TIP3    H1 3984   3.420   1.093   2.941  1.1457  0.4697  1.2559
 1340TIP3    H2 3985   3.417   0.964   3.019  0.2362 -0.1057  0.2997
 1341TIP3   OH2 3986   2.329   2.860   1.408  0.3405 -0.1939  0.0375
 1341TIP3    H1 3987   2.246   2.824   1.439 -0.5314  1.2913 -0.4475
 1341TIP3    H2 3988   2.358   2.918   1.478 -0.3960  1.2800 -0.8047
 1342TIP3   OH2 3989   4.352   2.198   2.147  0.1230 -0.1845  0.5522
 1342TIP3    H1 3990   4.424   2.198   2.084  0.4131  1.1929  0.8505
 1342TIP3    H2 3991   4.347   2.288   2.178 -1.7511 -0.2403  0.5319
 1343TIP3   OH2 3992   2.498   0.177   1.767  0.2931  0.2177 -0.3946
 1343TIP3    H1 3993   2.473   0.245   1.830  1.7064  1.6113 -1.2552
 1343TIP3    H2 3994   2.583   0.145   1.799 -0.2474 -1.0042 -0.1318
 1344TIP3   OH2 3995   1.201   1.349   4.135 -0.1039  0.6752 -0.4175
 1344TIP3    H1 3996   1.179   1.281   4.199  0.7610  0.6632 -0.1159
 1344TIP3    H2 3997   1.118   1.394   4.118 -0.6988 -0.5038 -0.6949
 1345TIP3   OH2 3998   3.977   3.291   4.540 -0.7035 -0.4769  0.1470
 1345TIP3    H1 3999   3.908   3.284   4.475 -0.7593 -1.4219  0.2864
 1345TIP3    H2 4000   3.993   3.201   4.568  1.0681 -0.3776 -0.3891
 1346TIP3   OH2 4001   4.418   1.197   5.087  0.3022  0.4108  0.0600
 1346TIP3    H1 4002   4.332   1.159   5.068  0.0611  0.6434  0.6713
 1346TIP3    H2 4003   4.435   1.256   5.013  0.9711 -1.3270 -1.2387
 1347TIP3   OH2 4004   6.403   2.312   0.579  0.1760 -0.1597 -0.5073
 1347TIP3    H1 4005   6.452   2.310   0.496  3.4151  2.8632  1.0440
 1347TIP3    H2 4006   6.373   2.402   0.587 -0.6805 -0.5583  1.2802
 1348TIP3   OH2 4007   2.775   4.455   4.400  0.2135  0.5354 -0.0866
 1348TIP3    H1 4008   2.851   4.511   4.388  0.7269 -0.0888  0.2029
 1348TIP3    H2 4009   2.798   4.398   4.474 -1.7759  2.4734  2.2176
 1349TIP3   OH2 4010   1.915   4.689   1.660 -0.1253 -0.4194  0.4987
 1349TIP3    H1 4011   1.933   4.782   1.649 -1.1459 -0.2121  0.4665
 1349TIP3    H2 4012   1.844   4.686   1.725 -0.0389 -1.1755  0.5699
 1350TIP3   OH2 4013   6.278   2.029   1.705 -0.4034 -0.4748  0.3561
 1350TIP3    H1 4014   6.334   2.091   1.753 -0.4851  0.4631 -0.7044
 1350TIP3    H2 4015   6.336   1.955   1.686 -0.3161 -0.7885  1.6951
 1351TIP3   OH2 4016   5.304   2.930   1.032 -0.0791 -0.2563 -0.0880
 1351TIP3    H1 4017   5.327   2.880   1.110  0.6046 -1.9728 -1.3265
 1351TIP3    H2 4018   5.315   3.021   1.058  1.8761 -0.8215  1.3122
 1352TIP3   OH2 4019   2.748   3.762   0.140  0.6310 -0.3181 -0.4610
 1352TIP3    H1 4020   2.754   3.856   0.127  1.6972 -0.0995  1.3260
 1352TIP3    H2 4021   2.839   3.734   0.155  0.1559 -1.3367  0.6966
 1353TIP3   OH2 4022   0.979   4.800   2.128 -0.4612  0.0439 -0.3674
 1353TIP3    H1 4023   1.003   4.798   2.035 -0.5983 -1.2448 -0.3914
 1353TIP3    H2 4024   1.011   4.718   2.163  0.3750  0.9001  0.9509
 1354TIP3   OH2 4025   0.399   6.429   4.721  0.2507  0.2430  0.1665
 1354TIP3    H1 4026   0.385   6.337   4.744 -0.5689  0.5594  1.0078
 1354TIP3    H2 4027   0.485   6.449   4.755  0.9627 -0.5283 -1.0914
 1355TIP3   OH2 4028   6.642   2.224   5.676 -0.3498 -0.5458 -0.4930
 1355TIP3    H1 4029   6.647   2.283   5.600 -1.3168  0.2992  0.0693
 1355TIP3    H2 4030   6.573   2.162   5.654 -0.6017 -0.3261 -0.3284
 1356TIP3   OH2 4031   1.929   3.815   5.192 -0.0303 -0.0666  0.1456
 1356TIP3    H1 4032   1.977   3.756   5.134 -1.2280  1.9450 -3.1515
 1356TIP3    H2 4033   1.994   3.876   5.224  0.2202  0.7530 -1.7875
 1357TIP3   OH2 4034   6.745   0.313   1.919  0.2392  0.1815 -0.2694
 1357TIP3    H1 4035   6.656   0.315   1.954  0.5284  1.8230  0.4419
 1357TIP3    H2 4036   6.734   0.333   1.826 -0.0574  1.4384  0.0264
 1358TIP3   OH2 4037   6.786   6.170   1.399 -0.3104  0.1196 -0.5104
 1358TIP3    H1 4038   6.694   6.157   1.376  0.4458  0.0075 -3.9130
 1358TIP3    H2 4039   6.808   6.093   1.451 -2.0683  0.0827  0.2555
 1359TIP3   OH2 4040   0.634   4.768   5.499 -0.0664 -0.2589 -0.1250
 1359TIP3    H1 4041   0.669   4.721   5.423  0.0655 -0.7598  0.2444
 1359TIP3    H2 4042   0.668   4.721   5.575 -1.7013 -0.8909  0.2566
 1360TIP3   OH2 4043   5.465   6.029   5.805  0.1962 -0.1195 -0.0072
 1360TIP3    H1 4044   5.505   6.043   5.890 -0.0407 -0.0912  0.1011
 1360TIP3    H2 4045   5.538   6.029   5.743  0.5028 -1.2614  0.3265
 1361TIP3   OH2 4046   1.571   3.432   0.373 -0.1164  0.3764 -0.5019
 1361TIP3    H1 4047   1.559   3.338   0.361 -0.0034  0.5909 -2.8024
 1361TIP3    H2 4048   1.485   3.464   0.399 -0.4671 -0.2290 -0.8664
 1362TIP3   OH2 4049   5.955   4.432   3.680 -0.0798  0.0585  0.4364
 1362TIP3    H1 4050   6.011   4.405   3.606 -2.4782  1.6969 -2.1896
 1362TIP3    H2 4051   5.959   4.527   3.680 -2.1096  0.1970  0.7062
 1363TIP3   OH2 4052   0.564   5.378   4.148  0.3051 -0.0599  0.5874
 1363TIP3    H1 4053   0.543   5.317   4.077 -1.2386  1.0895  0.0023
 1363TIP3    H2 4054   0.579   5.322   4.224  1.4128 -1.2839 -0.4930
 1364TIP3   OH2 4055   0.784   1.849   0.256 -0.1992  0.1412 -0.6280
 1364TIP3    H1 4056   0.749   1.769   0.296  0.6170 -0.4794 -1.1437
 1364TIP3    H2 4057   0.867   1.823   0.217 -0.4059  1.0163 -1.6932
 1365TIP3   OH2 4058   4.652   0.652   3.744 -0.1156 -0.5021  0.2759
 1365TIP3    H1 4059   4.603   0.714   3.691  1.5032 -0.7063 -1.5593
 1365TIP3    H2 4060   4.743   0.666   3.719  0.4144 -2.6910  0.8127
 1366TIP3   OH2 4061   0.221   2.178   2.480 -0.1700 -0.4879 -0.1532
 1366TIP3    H1 4062   0.264   2.094   2.465 -1.3577 -1.3552  1.0036
 1366TIP3    H2 4063   0.169   2.193   2.401  0.8221 -0.3109 -0.7948
 1367TIP3   OH2 4064   2.747   5.102   1.930  0.7138  0.0681  0.0905
 1367TIP3    H1 4065   2.743   5.191   1.895 -1.8432 -0.8889 -2.3936
 1367TIP3    H2 4066   2.657   5.082   1.956  1.5659 -1.2056  2.4091
 1368TIP3   OH2 4067   4.106   4.950   5.169  0.0170 -0.3838 -0.2525
 1368TIP3    H1 4068   4.070   4.862   5.169 -1.1880  0.0879  0.1092
 1368TIP3    H2 4069   4.178   4.947   5.106 -0.2156 -1.5377 -0.4767
 1369TIP3   OH2 4070   2.679   3.233   3.032 -0.0348 -0.2090  0.3975
 1369TIP3    H1 4071   2.733   3.274   2.965 -0.1785 -1.7997 -0.7387
 1369TIP3    H2 4072   2.722   3.149   3.049 -0.2115  0.0056  2.0488
 1370TIP3   OH2 4073   2.719   1.714   0.859  0.3605 -0.1340 -0.5037
 1370TIP3    H1 4074   2.660   1.732   0.932 -0.1479  2.4279 -1.4583
 1370TIP3    H2 4075   2.664   1.667   0.796  0.7937 -2.3330  0.6641
 1371TIP3   OH2 4076   3.659   0.788   5.708 -0.3065  0.4843  0.1913
 1371TIP3    H1 4077   3.618   0.707   5.739  1.5184  0.0583  1.6285
 1371TIP3    H2 4078   3.661   0.779   5.613 -2.3509 -0.0144  0.1474
 1372TIP3   OH2 4079   0.714   6.590   0.903  0.1324  0.3364  0.2662
 1372TIP3    H1 4080   0.788   6.585   0.964 -0.7723 -0.0880  1.3655
 1372TIP3    H2 4081   0.705   6.502   0.869 -1.0905 -0.1379  1.6827
 1373TIP3   OH2 4082   3.430   0.081   0.667 -0.0401  0.5922  0.0238
 1373TIP3    H1 4083   3.350   0.028   0.660  0.2926  0.0389  0.3763
 1373TIP3    H2 4084   3.496   0.020   0.698  0.4890  1.0875 -0.1248
 1374TIP3   OH2 4085   4.298   6.571   2.431  0.1729 -0.0929  0.2734
 1374TIP3    H1 4086   4.277   6.486   2.471  0.1107  0.0287  0.5022
 1374TIP3    H2 4087   4.363   6.550   2.364  0.7774 -0.2225  0.8818
 1375TIP3   OH2 4088   1.817   0.066   4.349  0.2964  0.2268 -0.2039
 1375TIP3    H1 4089   1.849   0.141   4.397  1.3763  0.1387 -0.7648
 1375TIP3    H2 4090   1.816   0.094   4.257 -0.3390 -0.0828 -0.2999
 1376TIP3   OH2 4091   1.178   3.546   2.068 -0.2464 -0.0269  0.1031
 1376TIP3    H1 4092   1.220   3.604   2.131  0.8677 -0.9236  0.2212
 1376TIP3    H2 4093   1.199   3.458   2.099 -1.1115 -0.4928 -0.5916
 1377TIP3   OH2 4094   4.623   4.676   1.536  0.0632 -0.6735 -0.0354
 1377TIP3    H1 4095   4.617   4.659   1.630 -0.9206 -0.7739 -0.1061
 1377TIP3    H2 4096   4.641   4.770   1.529 -0.6357 -0.5152  0.2456
 1378TIP3   OH2 4097   1.219   5.507   3.945 -0.3217  0.0705  0.0621
 1378TIP3    H1 4098   1.138   5.547   3.914  0.9116  1.6988 -1.2394
 1378TIP3    H2 4099   1.217   5.418   3.909 -0.8134  0.6201 -1.3207
 1379TIP3   OH2 4100   3.070   6.062   5.393 -0.1947 -0.5745 -0.2289
 1379TIP3    H1 4101   3.034   6.081   5.480 -1.4470 -0.9649 -0.6368
 1379TIP3    H2 4102   3.138   5.997   5.409 -0.9045 -1.1926  0.4181
 1380TIP3   OH2 4103   4.242   3.993   4.579  0.3150 -0.2053 -0.6903
 1380TIP3    H1 4104   4.182   3.919   4.589  0.6173 -0.4284 -0.4942
 1380TIP3    H2 4105   4.206   4.044   4.507 -1.3711  0.8983  0.8321
 1381TIP3   OH2 4106   2.720   0.103   4.145 -0.1650 -0.4293 -0.0482
 1381TIP3    H1 4107   2.682   0.090   4.232 -0.2194  0.2799  0.0422
 1381TIP3    H2 4108   2.724   0.198   4.135 -1.9250 -0.4594 -1.5887
 1382TIP3   OH2 4109   4.840   1.761   3.347  0.6268  0.2236 -0.2488
 1382TIP3    H1 4110   4.877   1.840   3.386 -0.8338  0.5876  0.4513
 1382TIP3    H2 4111   4.871   1.690   3.404 -1.4492  0.7424  1.6917
 1383TIP3   OH2 4112   3.909   5.604   2.444  0.0672 -0.0135 -0.0096
 1383TIP3    H1 4113   3.819   5.597   2.475 -0.0731  0.7489 -0.2492
 1383TIP3    H2 4114   3.913   5.686   2.396  1.1547  0.4891  0.8785
 1384TIP3   OH2 4115   1.400   0.805   0.246  0.2605  0.1429  0.0350
 1384TIP3    H1 4116   1.342   0.859   0.299  1.3851  1.4345  0.0432
 1384TIP3    H2 4117   1.369   0.817   0.156 -0.2646 -0.2238  0.1648
 1385TIP3   OH2 4118   5.422   6.167   4.720 -0.0097  0.2176  0.1216
 1385TIP3    H1 4119   5.411   6.260   4.739  1.3808  0.5200 -0.4299
 1385TIP3    H2 4120   5.492   6.164   4.655 -0.5133 -1.1749 -0.3937
 1386TIP3   OH2 4121   1.558   1.700   1.806  0.4395 -0.5922 -0.2447
 1386TIP3    H1 4122   1.472   1.656   1.811 -0.4305  0.9885 -0.6810
 1386TIP3    H2 4123   1.569   1.741   1.892  0.8637 -0.9660 -0.1192
 1387TIP3   OH2 4124   6.085   6.440   5.746  0.2694  0.0218 -0.1954
 1387TIP3    H1 4125   6.054   6.451   5.657 -1.6111  0.0585  0.4261
 1387TIP3    H2 4126   6.046   6.357   5.775  1.2914 -0.2601  0.4235
 1388TIP3   OH2 4127   2.335   3.152   4.115 -0.5143 -0.5808  0.2142
 1388TIP3    H1 4128   2.315   3.246   4.110 -0.0424 -0.4311  1.0090
 1388TIP3    H2 4129   2.252   3.109   4.096 -0.2931 -0.0576 -2.3474
 1389TIP3   OH2 4130   2.470   3.701   5.401  0.3193 -0.2521  0.1403
 1389TIP3    H1 4131   2.386   3.683   5.444 -0.3276  0.3596 -0.8460
 1389TIP3    H2 4132   2.523   3.744   5.468 -1.1966  2.0547 -0.0607
 1390TIP3   OH2 4133   6.460   5.051   3.799  0.5305 -0.4780  0.4794
 1390TIP3    H1 4134   6.485   5.052   3.892  0.5700 -0.2337  0.4679
 1390TIP3    H2 4135   6.416   5.135   3.786  1.7189  0.0888 -0.0423
 1391TIP3   OH2 4136   5.141   4.520   0.867  0.1028  0.2282 -0.1687
 1391TIP3    H1 4137   5.134   4.505   0.962  0.7489  0.5747 -0.0645
 1391TIP3    H2 4138   5.078   4.459   0.829  0.4860 -0.5508  0.4312
 1392TIP3   OH2 4139   3.839   0.091   2.131 -0.2187  0.7529 -0.2837
 1392TIP3    H1 4140   3.860   0.174   2.175 -2.4190  1.4042 -0.3714
 1392TIP3    H2 4141   3.869   0.104   2.041  2.0808  0.3109  0.3346
 1393TIP3   OH2 4142   2.428   2.577   2.079  0.5104  0.6782  0.0075
 1393TIP3    H1 4143   2.354   2.613   2.128 -2.0379 -1.8227 -1.7079
 1393TIP3    H2 4144   2.456   2.501   2.130  0.6801  0.5313 -0.3015
 1394TIP3   OH2 4145   6.659   1.759   2.954  0.0712 -0.0932  0.2213
 1394TIP3    H1 4146   6.613   1.811   2.889  0.5794  0.5251  0.3518
 1394TIP3    H2 4147   6.752   1.777   2.938  0.2136 -0.1878  0.9037
 1395TIP3   OH2 4148   1.891   6.602   3.438  0.5440 -0.3374 -0.4069
 1395TIP3    H1 4149   1.808   6.619   3.394  0.4762  0.5602  0.0233
 1395TIP3    H2 4150   1.920   6.689   3.468  1.7864 -0.5888 -0.8095
 1396TIP3   OH2 4151   4.558   6.436   5.093 -0.1148  0.4325 -0.1561
 1396TIP3    H1 4152   4.631   6.493   5.117  1.9183 -2.1696  0.3291
 1396TIP3    H2 4153   4.600   6.361   5.050 -2.4669 -1.4227  0.5964
 1397TIP3   OH2 4154   5.240   0.611   5.142  0.0947  0.1678 -0.0491
 1397TIP3    H1 4155   5.292   0.563   5.207  1.0365  0.5695 -0.4895
 1397TIP3    H2 4156   5.301   0.673   5.103 -0.2580 -0.5389 -1.8364
 1398TIP3   OH2 4157   6.808   5.788   1.077  0.2040  0.2224 -0.3496
 1398TIP3    H1 4158   6.748   5.714   1.083 -1.3391  1.4912  0.6172
 1398TIP3    H2 4159   6.820   5.817   1.167  1.3039  0.7521 -0.6472
 1399TIP3   OH2 4160   5.560   0.368   1.609  0.0653  0.4642  0.4000
 1399TIP3    H1 4161   5.581   0.404   1.522  0.4878 -0.0708  0.2715
 1399TIP3    H2 4162   5.469   0.341   1.602  0.5531 -1.1144 -0.4438
 1400TIP3   OH2 4163   4.505   1.976   1.843  0.1792 -0.2820 -0.1131
 1400TIP3    H1 4164   4.544   2.038   1.904  0.3746  0.0203 -0.5447
 1400TIP3    H2 4165   4.568   1.970   1.771 -1.2814  1.4678 -1.6348
 1401TIP3   OH2 4166   3.851   5.410   4.110 -0.7931 -0.1765 -0.0667
 1401TIP3    H1 4167   3.911   5.396   4.183  0.7838  0.1025 -1.2507
 1401TIP3    H2 4168   3.801   5.488   4.135 -1.0331 -0.7110  1.1627
 1402TIP3   OH2 4169   2.550   3.100   0.514 -0.0417  0.1181  0.1550
 1402TIP3    H1 4170   2.482   3.061   0.569  0.8685 -0.7300  0.7229
 1402TIP3    H2 4171   2.589   3.026   0.467 -0.3380  0.7516 -1.1269
 1403TIP3   OH2 4172   4.524   0.836   3.548 -0.8163 -0.8315  0.1224
 1403TIP3    H1 4173   4.558   0.824   3.459 -0.1010  1.5437 -0.0027
 1403TIP3    H2 4174   4.439   0.878   3.535 -1.3994 -1.8504  0.5601
 1404TIP3   OH2 4175   0.821   5.413   4.664  0.6961 -0.0284  0.5331
 1404TIP3    H1 4176   0.851   5.501   4.642 -3.0167  1.0217 -1.1961
 1404TIP3    H2 4177   0.855   5.357   4.594  0.4962  0.6816 -0.1460
 1405TIP3   OH2 4178   0.594   3.518   2.428  0.2152  0.0556 -0.2446
 1405TIP3    H1 4179   0.500   3.505   2.442  0.5667 -1.0128  1.3625
 1405TIP3    H2 4180   0.629   3.429   2.420  1.1594  0.4268 -0.3129
 1406TIP3   OH2 4181   2.794   3.233   4.175 -0.0415 -0.5456  0.1168
 1406TIP3    H1 4182   2.878   3.256   4.136 -0.3067 -0.7445 -0.5950
 1406TIP3    H2 4183   2.748   3.317   4.182 -0.1857 -0.5680 -0.4824
 1407TIP3   OH2 4184   0.724   5.401   0.075  0.1127  0.6005  0.0894
 1407TIP3    H1 4185   0.683   5.409  -0.010 -1.0502 -1.9647  0.3060
 1407TIP3    H2 4186   0.660   5.353   0.128  1.9254 -0.3565  1.5329
 1408TIP3   OH2 4187   5.852   2.138   4.221  0.0761 -0.0555  0.1081
 1408TIP3    H1 4188   5.884   2.128   4.310 -1.0580 -1.3282  0.4008
 1408TIP3    H2 4189   5.760   2.165   4.231 -0.0158 -0.0373 -0.6800
 1409TIP3   OH2 4190   1.454   2.935   2.095 -0.3502  0.4980  0.6826
 1409TIP3    H1 4191   1.499   2.867   2.145 -2.4147 -0.3175  1.5526
 1409TIP3    H2 4192   1.513   2.954   2.022  2.0386  0.5669  2.4961
 1410TIP3   OH2 4193   2.100   4.750   5.518  0.4470  0.0942 -0.0638
 1410TIP3    H1 4194   2.137   4.773   5.433 -1.9632 -0.3575 -1.3090
 1410TIP3    H2 4195   2.161   4.685   5.554  0.9754 -0.4974 -1.9071
 1411TIP3   OH2 4196   4.329   4.344   1.706 -0.1458 -0.1446 -0.5147
 1411TIP3    H1 4197   4.276   4.270   1.677 -1.4793  0.8673 -0.7483
 1411TIP3    H2 4198   4.418   4.311   1.706 -0.8902 -2.3996  1.4326
 1412TIP3   OH2 4199   5.331   5.311   2.759 -0.4355  0.1462 -0.2926
 1412TIP3    H1 4200   5.320   5.353   2.674 -2.9697  1.1789  0.4585
 1412TIP3    H2 4201   5.353   5.383   2.819 -0.9002 -0.2136  0.3161
 1413TIP3   OH2 4202   3.526   0.626   1.091  0.3797 -0.0053  0.2394
 1413TIP3    H1 4203   3.530   0.538   1.127  1.3810  0.1727  0.5854
 1413TIP3    H2 4204   3.583   0.624   1.014 -0.8361 -0.0719 -0.6844
 1414TIP3   OH2 4205   5.022   1.726   2.881 -0.6310 -0.7073 -0.0858
 1414TIP3    H1 4206   5.025   1.634   2.909  0.8658 -0.3959  0.9199
 1414TIP3    H2 4207   4.948   1.764   2.928 -1.8397 -1.5737 -1.2044
 1415TIP3   OH2 4208   4.527   1.328   4.886  0.4577  0.6529 -0.7145
 1415TIP3    H1 4209   4.525   1.376   4.803 -0.5758  2.0732  0.0797
 1415TIP3    H2 4210   4.618   1.332   4.914  0.4165  2.1006 -0.7216
 1416TIP3   OH2 4211   6.992   2.467   4.771  0.5088  0.3214 -0.4073
 1416TIP3    H1 4212   6.968   2.479   4.863 -1.0068 -1.7896 -0.4535
 1416TIP3    H2 4213   6.927   2.520   4.723  1.3476  1.4856 -0.3034
 1417TIP3   OH2 4214   2.348   0.123   1.176  0.0395  0.2595  0.8463
 1417TIP3    H1 4215   2.382   0.212   1.183 -2.1150  1.2075  0.3580
 1417TIP3    H2 4216   2.308   0.120   1.089 -2.5748 -0.1077  1.9475
 1418TIP3   OH2 4217   5.981   1.275   4.851  0.2305  0.4808 -0.1116
 1418TIP3    H1 4218   5.995   1.182   4.870 -2.0409  0.2922  0.9823
 1418TIP3    H2 4219   5.926   1.275   4.773  0.0884  0.9161 -0.0134
 1419TIP3   OH2 4220   3.146   3.449   2.116 -0.0337  0.7853 -0.6148
 1419TIP3    H1 4221   3.084   3.420   2.049 -0.6963  0.0419  0.2863
 1419TIP3    H2 4222   3.184   3.529   2.081 -1.1910  1.0209 -1.3769
 1420TIP3   OH2 4223   6.012   6.520   4.623 -0.1995  0.0840 -0.6039
 1420TIP3    H1 4224   6.027   6.598   4.570  0.5103 -0.8562 -1.8559
 1420TIP3    H2 4225   6.008   6.448   4.559 -2.0680 -0.7735  0.3918
 1421TIP3   OH2 4226   5.669   2.901   1.030  0.3941 -0.2850  0.1341
 1421TIP3    H1 4227   5.618   2.831   1.071  1.2600 -1.4433 -0.7073
 1421TIP3    H2 4228   5.689   2.961   1.102 -2.9673  0.7887  0.3306
 1422TIP3   OH2 4229   6.612   0.632   2.892 -0.6783 -0.1748 -0.4485
 1422TIP3    H1 4230   6.546   0.602   2.829  0.0096 -1.2377 -0.6764
 1422TIP3    H2 4231   6.590   0.588   2.973 -1.1380  0.6498 -0.1082
 1423TIP3   OH2 4232   1.400   1.156   2.755  0.4666 -0.5371  0.4103
 1423TIP3    H1 4233   1.306   1.161   2.734  0.7636 -1.2590 -1.1847
 1423TIP3    H2 4234   1.414   1.066   2.781  0.8714 -0.6505 -0.1813
 1424TIP3   OH2 4235   5.833   0.683   1.017  0.0172 -0.2196  0.3438
 1424TIP3    H1 4236   5.838   0.697   1.112  1.2097 -3.0177  0.7973
 1424TIP3    H2 4237   5.917   0.716   0.984  0.2355 -0.6070  0.5024
 1425TIP3   OH2 4238   2.141   2.786   5.631  0.0099  0.0339  0.3815
 1425TIP3    H1 4239   2.222   2.735   5.640  1.2304  1.8793  0.4838
 1425TIP3    H2 4240   2.119   2.811   5.721  0.2205  0.8486  0.2093
 1426TIP3   OH2 4241  -0.018   0.259   5.329 -0.2268 -0.0245 -0.3522
 1426TIP3    H1 4242   0.034   0.319   5.276 -0.2503  1.5996  1.3522
 1426TIP3    H2 4243   0.032   0.177   5.330  0.3438  0.2843 -1.8525
 1427TIP3   OH2 4244   5.234   3.668   5.278 -0.0022  0.0391  0.8329
 1427TIP3    H1 4245   5.196   3.696   5.362  0.3519 -1.6168  1.5823
 1427TIP3    H2 4246   5.329   3.674   5.291  0.0843  1.9572 -0.2624
 1428TIP3   OH2 4247   6.346   1.205   3.124  0.2372 -0.3460 -0.0668
 1428TIP3    H1 4248   6.311   1.212   3.035  1.1359 -1.6611 -0.5457
 1428TIP3    H2 4249   6.289   1.261   3.176 -1.6293 -1.1797 -1.0985
 1429TIP3   OH2 4250   1.056   2.063   2.374 -0.4441  0.2076 -0.0666
 1429TIP3    H1 4251   0.971   2.038   2.410  0.1172 -1.3137  0.3103
 1429TIP3    H2 4252   1.079   1.990   2.315  1.0052  0.1099  0.5655
 1430TIP3   OH2 4253   5.958   6.202   5.749  0.3862  0.2964 -0.2585
 1430TIP3    H1 4254   6.018   6.173   5.681  0.6651 -0.8796  0.4692
 1430TIP3    H2 4255   5.881   6.233   5.702  1.1970  1.0120 -1.1635
 1431TIP3   OH2 4256   2.745   6.151   3.467  0.3407  0.2154 -0.1357
 1431TIP3    H1 4257   2.839   6.133   3.473  0.0929 -1.0004  0.7711
 1431TIP3    H2 4258   2.721   6.181   3.555 -0.3033 -0.6253 -0.0026
 1432TIP3   OH2 4259   4.243   4.976   2.187  0.2319  0.1252  0.1661
 1432TIP3    H1 4260   4.257   5.055   2.136 -0.7143  0.5586  0.5732
 1432TIP3    H2 4261   4.190   5.003   2.261  2.6086 -0.2273  2.1106
 1433TIP3   OH2 4262   1.923   6.540   3.726  0.7153  0.1848  0.3513
 1433TIP3    H1 4263   1.920   6.529   3.631  1.1930 -1.7849  0.5077
 1433TIP3    H2 4264   2.012   6.511   3.749  0.3744 -0.0115  1.4455
 1434TIP3   OH2 4265   0.642   3.881   1.940 -0.7302 -0.2730  0.4219
 1434TIP3    H1 4266   0.698   3.819   1.893 -0.6343  0.3176 -0.2582
 1434TIP3    H2 4267   0.620   3.836   2.021 -0.4979 -1.1206  0.0295
 1435TIP3   OH2 4268   2.338   0.033   3.399 -0.6449  0.0073 -0.0272
 1435TIP3    H1 4269   2.272   0.077   3.345 -2.5833 -2.6953 -0.0385
 1435TIP3    H2 4270   2.291  -0.039   3.441  1.6119 -0.1502  2.5144
 1436TIP3   OH2 4271   3.090   1.008   4.077  0.0255  0.0215  0.1574
 1436TIP3    H1 4272   3.046   0.938   4.125 -0.3669 -1.4999 -2.2301
 1436TIP3    H2 4273   3.024   1.077   4.071  0.3215  0.5652  2.3116
 1437TIP3   OH2 4274   3.062   2.883   1.718  0.3199 -0.0736 -0.5195
 1437TIP3    H1 4275   2.996   2.942   1.680  1.1560  1.5113  0.4033
 1437TIP3    H2 4276   3.144   2.911   1.678  1.0160  0.7359  1.3977
 1438TIP3   OH2 4277   6.857   4.560   4.693  0.5246 -0.3843 -0.1662
 1438TIP3    H1 4278   6.780   4.533   4.642  0.4259  0.6730 -0.6058
 1438TIP3    H2 4279   6.928   4.505   4.661 -0.0461 -1.3690  0.2371
 1439TIP3   OH2 4280   0.392   4.401   1.262 -0.0591  0.2928 -0.4865
 1439TIP3    H1 4281   0.402   4.315   1.302  4.9395 -0.1105 -1.9768
 1439TIP3    H2 4282   0.399   4.462   1.335  0.1583 -0.5035  0.1748
 1440TIP3   OH2 4283   5.332   2.075   1.921 -1.1425 -0.1003  0.1632
 1440TIP3    H1 4284   5.255   2.032   1.883 -0.2156 -0.9110 -0.8645
 1440TIP3    H2 4285   5.369   2.125   1.849 -1.1533  0.9434  0.8716
 1441TIP3   OH2 4286   6.440   6.563   0.283 -0.0330  0.4650 -0.1489
 1441TIP3    H1 4287   6.377   6.492   0.268  0.4568 -0.3370  1.4357
 1441TIP3    H2 4288   6.505   6.552   0.214 -0.9580  0.5654 -1.0709
 1442TIP3   OH2 4289   4.258   1.090   4.537  0.0279 -0.4504 -0.4473
 1442TIP3    H1 4290   4.298   1.023   4.593 -0.5077 -1.0976 -0.8206
 1442TIP3    H2 4291   4.243   1.164   4.596  2.2942  0.0496 -0.4321
 1443TIP3   OH2 4292   5.538   4.309   0.997 -0.4486  0.3160  0.2188
 1443TIP3    H1 4293   5.496   4.355   0.924  0.0679  2.0857  0.9981
 1443TIP3    H2 4294   5.505   4.352   1.076 -0.4901 -1.1305  1.0378
 1444TIP3   OH2 4295   2.879   4.630   4.599 -0.3605  0.1501 -0.3816
 1444TIP3    H1 4296   2.817   4.611   4.669 -0.2052  0.6815 -0.0913
 1444TIP3    H2 4297   2.848   4.712   4.561  0.6876  0.9505  0.4080
 1445TIP3   OH2 4298   4.521   2.730   2.994  0.2547  0.0901 -0.0229
 1445TIP3    H1 4299   4.512   2.815   3.037 -1.1537 -0.2455  0.4232
 1445TIP3    H2 4300   4.486   2.744   2.906 -1.0397 -0.2523  0.4043
 1446TIP3   OH2 4301   5.843   5.292   4.802  0.5353  0.4151  0.1623
 1446TIP3    H1 4302   5.912   5.304   4.738 -1.2220  0.6756 -1.7926
 1446TIP3    H2 4303   5.764   5.327   4.760 -0.9066 -0.3285  2.0686
 1447TIP3   OH2 4304   3.627   6.059   4.873  0.2228 -0.1804  0.4621
 1447TIP3    H1 4305   3.713   6.098   4.889  0.2468 -0.8301  2.1305
 1447TIP3    H2 4306   3.638   6.008   4.792  0.8588  1.2235 -0.3684
 1448TIP3   OH2 4307   1.087   2.544   0.739  0.4731  0.0223  0.1035
 1448TIP3    H1 4308   1.081   2.455   0.703  0.6351 -0.2525  0.7421
 1448TIP3    H2 4309   1.086   2.601   0.662 -0.5261 -0.4808 -0.2772
 1449TIP3   OH2 4310   4.454   1.105   1.638 -0.2224 -0.0316  0.1283
 1449TIP3    H1 4311   4.546   1.090   1.656 -0.4290 -0.7005  0.6901
 1449TIP3    H2 4312   4.408   1.069   1.714 -0.9954 -0.6828 -0.6223
 1450TIP3   OH2 4313   0.864   2.273   1.660 -0.1885 -0.5914 -0.5818
 1450TIP3    H1 4314   0.845   2.347   1.716 -0.7927 -1.4929  0.4484
 1450TIP3    H2 4315   0.803   2.205   1.688  1.0741 -1.8477 -0.7403
 1451TIP3   OH2 4316   5.295   6.666   2.757 -0.3983  0.5399  0.0594
 1451TIP3    H1 4317   5.366   6.701   2.702 -0.8527  0.7466 -0.4035
 1451TIP3    H2 4318   5.251   6.743   2.791 -1.1649  0.4235 -0.6530
 1452TIP3   OH2 4319   4.867   4.775   4.560 -0.0566  0.1258  0.2334
 1452TIP3    H1 4320   4.911   4.840   4.615  0.1979  0.8612 -0.8166
 1452TIP3    H2 4321   4.913   4.693   4.579 -0.6123  0.1373  1.8428
 1453TIP3   OH2 4322   4.195   3.316   0.966 -0.6226  0.0234  0.1970
 1453TIP3    H1 4323   4.115   3.270   0.943 -0.8276  0.8833 -0.8827
 1453TIP3    H2 4324   4.216   3.368   0.888  0.8477  0.0015  0.5471
 1454TIP3   OH2 4325   5.209   4.153   3.801  0.4256 -0.7038  0.5428
 1454TIP3    H1 4326   5.299   4.178   3.780  0.2424 -1.3677 -1.2001
 1454TIP3    H2 4327   5.165   4.236   3.821  0.2644  0.3326 -3.3739
 1455TIP3   OH2 4328   3.171   5.806   3.826  0.0342  0.4261  0.4355
 1455TIP3    H1 4329   3.155   5.875   3.890 -0.8433  0.0883  0.5915
 1455TIP3    H2 4330   3.234   5.748   3.869 -0.6665  0.1186  1.0716
 1456TIP3   OH2 4331   2.374   2.425   0.410 -0.1140  0.2246  0.2369
 1456TIP3    H1 4332   2.426   2.387   0.339 -0.6925  0.8919 -0.5607
 1456TIP3    H2 4333   2.326   2.496   0.369 -0.8671  0.2834  1.1925
 1457TIP3   OH2 4334   2.542   1.247   0.017  0.7281 -0.3857  0.2742
 1457TIP3    H1 4335   2.596   1.299  -0.043  1.4344 -2.6179 -1.1752
 1457TIP3    H2 4336   2.595   1.237   0.096  0.8757  0.4723  0.2840
 1458TIP3   OH2 4337   5.124   6.278   4.931 -0.4229  0.1698  0.4040
 1458TIP3    H1 4338   5.068   6.201   4.924 -0.7392  0.0259  3.1566
 1458TIP3    H2 4339   5.076   6.347   4.884 -1.5867 -0.6140  0.3945
 1459TIP3   OH2 4340   3.928   4.384   3.299 -0.1999  0.0367 -0.4911
 1459TIP3    H1 4341   3.895   4.397   3.388  1.3973 -0.5505  0.2393
 1459TIP3    H2 4342   3.928   4.471   3.260  0.2922  0.5201  0.5476
 1460TIP3   OH2 4343   6.642   5.124   4.645  0.7526  0.6420  0.0725
 1460TIP3    H1 4344   6.624   5.104   4.553 -1.3445 -1.0682  0.7658
 1460TIP3    H2 4345   6.729   5.088   4.661  0.8573  0.3418 -1.0802
 1461TIP3   OH2 4346   0.236   2.170   4.121  0.0787 -0.4222  0.0320
 1461TIP3    H1 4347   0.196   2.148   4.205 -1.6769 -1.3971 -0.9796
 1461TIP3    H2 4348   0.182   2.124   4.056 -1.4979  3.7217 -2.0104
 1462TIP3   OH2 4349   2.859   4.021   3.824 -0.2017  0.4768  0.2374
 1462TIP3    H1 4350   2.878   4.110   3.796 -1.5361  1.1348  1.3181
 1462TIP3    H2 4351   2.783   3.994   3.773  0.6582 -0.3799 -0.6562
 1463TIP3   OH2 4352   4.964   2.608   1.386 -0.8498 -0.4415 -0.0391
 1463TIP3    H1 4353   4.977   2.700   1.361  0.5382 -0.2061  1.4454
 1463TIP3    H2 4354   5.015   2.558   1.322 -0.0525 -0.0606  0.2930
 1464TIP3   OH2 4355   5.743   2.599   2.571  0.7562 -0.1677 -0.4519
 1464TIP3    H1 4356   5.704   2.584   2.485  0.7372 -0.8908 -0.3227
 1464TIP3    H2 4357   5.672   2.583   2.633  0.4764  1.3768 -0.3262
 1465TIP3   OH2 4358   4.255   1.484   4.907 -0.1631 -0.2249 -0.1253
 1465TIP3    H1 4359   4.329   1.496   4.967 -0.9327  0.3918  0.7358
 1465TIP3    H2 4360   4.178   1.511   4.958 -1.2629 -2.7306 -0.2800
 1466TIP3   OH2 4361   2.550   3.057   5.387 -0.7205  0.5252 -0.1160
 1466TIP3    H1 4362   2.566   2.967   5.416  1.0109  0.3235 -1.5639
 1466TIP3    H2 4363   2.580   3.110   5.461  1.3278 -0.0401 -0.4776
 1467TIP3   OH2 4364   6.238   4.650   3.472  0.0216  0.3482 -0.2774
 1467TIP3    H1 4365   6.174   4.584   3.449  0.0822  0.0774  0.3298
 1467TIP3    H2 4366   6.197   4.701   3.542 -0.0801  1.0469 -0.8262
 1468TIP3   OH2 4367   0.044   2.499   1.788 -0.2769 -0.1290 -0.3704
 1468TIP3    H1 4368   0.121   2.553   1.806 -0.4846  0.3510 -0.8786
 1468TIP3    H2 4369   0.006   2.537   1.709 -1.0783 -0.3116 -0.0873
 1469TIP3   OH2 4370   0.452   1.056   0.801  0.3882 -0.1401  0.1933
 1469TIP3    H1 4371   0.503   1.043   0.880  2.3283  1.3481 -0.7341
 1469TIP3    H2 4372   0.497   1.005   0.734  0.3010  0.6771 -0.5090
 1470TIP3   OH2 4373   5.871   2.488   3.632 -0.1504  0.1458 -0.6996
 1470TIP3    H1 4374   5.777   2.509   3.640 -0.6022 -1.6342 -0.9330
 1470TIP3    H2 4375   5.912   2.538   3.702 -1.0456  2.1898 -1.5636
 1471TIP3   OH2 4376   5.345   4.135   0.780 -0.1156 -0.2102 -0.7123
 1471TIP3    H1 4377   5.321   4.211   0.727  1.1620  2.3664  2.1120
 1471TIP3    H2 4378   5.290   4.143   0.858 -0.7600 -2.9274 -0.8045
 1472TIP3   OH2 4379   6.900   0.546   4.840 -0.1959 -0.2266 -0.4586
 1472TIP3    H1 4380   6.898   0.450   4.842 -2.0786 -0.2221 -0.5860
 1472TIP3    H2 4381   6.891   0.568   4.747 -0.2761  0.0907 -0.3776
 1473TIP3   OH2 4382   6.582   6.364   4.352 -0.0263  0.3623 -0.6210
 1473TIP3    H1 4383   6.572   6.373   4.257  0.8608 -0.5532 -0.8141
 1473TIP3    H2 4384   6.597   6.453   4.383  2.3568  0.4038 -1.6847
 1474TIP3   OH2 4385   3.279   1.075   0.095  0.2002 -0.4498  0.1333
 1474TIP3    H1 4386   3.249   1.011   0.159  0.5760 -1.5529 -0.7485
 1474TIP3    H2 4387   3.375   1.073   0.103  0.2059  0.1754  0.2534
 1475TIP3   OH2 4388   0.940   5.346   4.289  0.2245  0.4337  0.0695
 1475TIP3    H1 4389   1.029   5.380   4.275 -0.0615  1.0656 -0.2229
 1475TIP3    H2 4390   0.954   5.260   4.328  1.0347 -0.5980 -2.2908
 1476TIP3   OH2 4391   6.076   3.571   4.845 -0.1374 -0.3323 -0.6544
 1476TIP3    H1 4392   5.981   3.585   4.848 -0.3556 -1.7841  1.5086
 1476TIP3    H2 4393   6.088   3.505   4.777 -0.6227  0.1121 -1.1812
 1477TIP3   OH2 4394   3.417   1.731   3.714  0.1842 -1.0539  0.2554
 1477TIP3    H1 4395   3.493   1.715   3.658 -0.6504 -0.0631 -1.2466
 1477TIP3    H2 4396   3.355   1.662   3.690 -0.6437  0.0715 -0.9910
 1478TIP3   OH2 4397   1.682   4.714   5.057  0.2087  0.8145  0.5404
 1478TIP3    H1 4398   1.677   4.702   4.962 -1.1417  0.2209  0.6719
 1478TIP3    H2 4399   1.604   4.671   5.091  0.3670  1.5350  1.8784
 1479TIP3   OH2 4400   4.242   1.649   5.391 -0.1122  0.5264  0.2966
 1479TIP3    H1 4401   4.299   1.694   5.454  0.5560 -1.6605  1.3389
 1479TIP3    H2 4402   4.195   1.584   5.444 -0.1899 -0.7783 -1.3180
 1480TIP3   OH2 4403   5.702   3.445   5.204 -0.1213  0.2928 -0.1525
 1480TIP3    H1 4404   5.677   3.369   5.152 -1.6196  1.2489 -0.9159
 1480TIP3    H2 4405   5.795   3.457   5.188 -0.3434 -0.0632 -1.8011
 1481TIP3   OH2 4406   3.483   2.216   4.543  0.1491  0.8494  0.3697
 1481TIP3    H1 4407   3.440   2.133   4.564 -0.5919  1.1364  0.0657
 1481TIP3    H2 4408   3.484   2.217   4.447  1.0348  0.7616  0.3719
 1482TIP3   OH2 4409   0.295   3.689   1.129 -0.4839 -0.0382  0.4853
 1482TIP3    H1 4410   0.248   3.644   1.059  0.8852 -1.4521  0.4267
 1482TIP3    H2 4411   0.380   3.646   1.132 -0.2977  0.3919  2.6446
 1483TIP3   OH2 4412   5.110   1.005   5.709 -0.0754  0.8035  0.1198
 1483TIP3    H1 4413   5.171   0.967   5.773 -0.2752 -3.4580 -1.9208
 1483TIP3    H2 4414   5.024   0.971   5.735  0.0026 -2.2095 -2.9231
 1484TIP3   OH2 4415   3.494   1.114   5.237  0.0284  0.5260 -0.0127
 1484TIP3    H1 4416   3.482   1.133   5.144 -1.1843 -1.3976 -0.3012
 1484TIP3    H2 4417   3.457   1.189   5.283 -0.9895  0.6917 -1.0813
 1485TIP3   OH2 4418   2.251   4.723   2.198 -0.9384 -0.7463 -0.4520
 1485TIP3    H1 4419   2.345   4.716   2.208 -0.7640  2.5813  1.8160
 1485TIP3    H2 4420   2.239   4.759   2.110  0.1088  0.5241 -0.1136
 1486TIP3   OH2 4421   6.390   6.232   5.740  0.0165 -0.6149  0.8506
 1486TIP3    H1 4422   6.400   6.315   5.786 -0.2266 -1.3817  2.3377
 1486TIP3    H2 4423   6.447   6.239   5.664  0.7619  0.5298  1.4984
 1487TIP3   OH2 4424   2.129   4.138   4.242  0.0907  0.2042 -0.1837
 1487TIP3    H1 4425   2.209   4.101   4.280  0.4394 -0.1372 -1.2206
 1487TIP3    H2 4426   2.137   4.232   4.256  0.8722  0.2135 -0.6293
 1488TIP3   OH2 4427   3.132   1.615   3.377  0.0864 -0.3097 -0.6594
 1488TIP3    H1 4428   3.112   1.643   3.288 -0.5210 -0.2234 -0.5026
 1488TIP3    H2 4429   3.227   1.616   3.382  0.1674  3.0308 -0.2952
 1489TIP3   OH2 4430   0.166   4.369   1.634  0.1759  0.1256  0.3210
 1489TIP3    H1 4431   0.207   4.361   1.720  1.0244  1.2741  0.0569
 1489TIP3    H2 4432   0.107   4.294   1.628  1.2911 -0.8612  1.2476
 1490TIP3   OH2 4433   1.784   5.923   1.052  0.1160  0.4414 -0.6940
 1490TIP3    H1 4434   1.853   5.957   1.109 -0.1207  1.0587 -0.7754
 1490TIP3    H2 4435   1.832   5.882   0.979  0.4017  0.7000 -0.6544
 1491TIP3   OH2 4436   4.869   0.571   3.593  0.2732  0.4542 -0.3105
 1491TIP3    H1 4437   4.946   0.520   3.619 -0.4220 -1.3815 -1.6789
 1491TIP3    H2 4438   4.812   0.508   3.549 -1.7790  1.8883  0.1554
 1492TIP3   OH2 4439   2.788   4.874   3.620 -0.2845 -0.1456  0.2183
 1492TIP3    H1 4440   2.817   4.887   3.530  1.7194 -2.4944  0.4238
 1492TIP3    H2 4441   2.694   4.857   3.612 -0.6410  2.0421 -1.1111
 1493TIP3   OH2 4442   0.094   6.046   0.136  0.4199  0.2904  0.1329
 1493TIP3    H1 4443   0.183   6.080   0.131  1.9027 -3.2514 -0.3683
 1493TIP3    H2 4444   0.056   6.065   0.050  0.7563  1.5301  0.2356
 1494TIP3   OH2 4445   2.923   0.725   5.018  0.3686 -0.4911  0.1792
 1494TIP3    H1 4446   3.013   0.705   4.991  0.4263  1.0822 -0.9190
 1494TIP3    H2 4447   2.871   0.709   4.940 -0.1897 -0.5652  0.5616
 1495TIP3   OH2 4448   3.563   0.274   0.126 -0.2331  0.1698  0.3773
 1495TIP3    H1 4449   3.590   0.216   0.055 -2.3303 -0.3477 -0.0653
 1495TIP3    H2 4450   3.534   0.354   0.081  0.1730  0.5701  0.8102
 1496TIP3   OH2 4451   0.196   0.464   1.509  0.1162  0.3783  0.0679
 1496TIP3    H1 4452   0.200   0.434   1.418  0.8460  0.8548 -0.0758
 1496TIP3    H2 4453   0.288   0.483   1.531 -0.1227  0.8171  0.7077
 1497TIP3   OH2 4454   0.592   6.572   0.558 -0.0377 -0.5031  0.6142
 1497TIP3    H1 4455   0.588   6.655   0.606  2.0021 -0.0518  0.1218
 1497TIP3    H2 4456   0.542   6.511   0.611 -3.1309  1.4054  0.1110
 1498TIP3   OH2 4457   6.786   4.304   3.978  0.1990 -0.1796  0.5734
 1498TIP3    H1 4458   6.692   4.321   3.981  0.6632  3.2939 -0.5132
 1498TIP3    H2 4459   6.811   4.320   3.886  1.9685 -0.2383  1.0028
 1499TIP3   OH2 4460   1.770   2.918   1.299 -0.3031  0.0126 -0.0766
 1499TIP3    H1 4461   1.862   2.943   1.296 -0.4698  0.5915 -2.8765
 1499TIP3    H2 4462   1.722   3.000   1.307 -0.6222 -0.2054  0.3252
 1500TIP3   OH2 4463   0.562   1.127   4.360 -0.2187  0.3131 -0.1373
 1500TIP3    H1 4464   0.504   1.087   4.296 -1.6738  0.7256  0.8677
 1500TIP3    H2 4465   0.606   1.054   4.403 -0.6169 -0.0522 -0.3531
 1501TIP3   OH2 4466   7.102   5.031   5.517  0.0269  0.7310  0.1620
 1501TIP3    H1 4467   7.097   4.936   5.521  0.5824  0.7025  0.2485
 1501TIP3    H2 4468   7.147   5.050   5.435  2.0725  0.8239  1.2332
 1502TIP3   OH2 4469   7.073   0.573   1.523  0.4717 -0.3198  0.3926
 1502TIP3    H1 4470   6.984   0.574   1.558  0.7580 -0.0540  1.1410
 1502TIP3    H2 4471   7.129   0.567   1.601  1.1497  1.0771  0.0494
 1503TIP3   OH2 4472   7.091   5.518   0.955 -0.3510  0.0278 -0.1566
 1503TIP3    H1 4473   7.150   5.561   1.017 -0.1613 -0.3807 -0.0473
 1503TIP3    H2 4474   7.149   5.472   0.894 -0.5442 -1.8961  1.0276
 1504TIP3   OH2 4475   0.477   0.616   5.636  0.9802  0.1367  0.0056
 1504TIP3    H1 4476   0.443   0.675   5.570 -0.9556  2.7331  3.0099
 1504TIP3    H2 4477   0.561   0.653   5.661  0.8277  0.2844  0.3053
 1505TIP3   OH2 4478   0.142   1.727   2.376  0.1462  0.0478  0.0639
 1505TIP3    H1 4479   0.207   1.762   2.437 -0.1000 -1.4022  1.2275
 1505TIP3    H2 4480   0.176   1.641   2.351 -0.4220  0.0589 -0.7936
 1506TIP3   OH2 4481   6.065   3.214   3.152 -0.3123  0.0080  0.2045
 1506TIP3    H1 4482   6.051   3.133   3.103  2.3454  0.1599 -0.9622
 1506TIP3    H2 4483   5.979   3.257   3.151 -1.4474 -2.1131 -0.3517
 1507TIP3   OH2 4484   6.339   5.507   2.839  0.3933  0.0488  0.3000
 1507TIP3    H1 4485   6.361   5.461   2.920 -0.7553 -1.0459  0.0382
 1507TIP3    H2 4486   6.395   5.466   2.773 -1.3413 -1.8296 -0.1295
 1508TIP3   OH2 4487   3.469   1.970   5.696 -0.2794  0.4092  0.3739
 1508TIP3    H1 4488   3.384   2.004   5.726 -0.2524  0.0001  0.9280
 1508TIP3    H2 4489   3.516   1.949   5.777 -0.6345 -1.7962  0.0557
 1509TIP3   OH2 4490   6.897   0.404   0.987  0.2121 -0.0562  0.8200
 1509TIP3    H1 4491   6.828   0.428   0.925  0.3191 -1.6846  0.0063
 1509TIP3    H2 4492   6.853   0.345   1.049  0.7396 -0.6778  0.6100
 1510TIP3   OH2 4493   6.382   6.028   1.438  0.0896 -0.8521  0.3846
 1510TIP3    H1 4494   6.442   6.047   1.366 -0.0708 -2.7076 -0.2991
 1510TIP3    H2 4495   6.424   5.956   1.485 -1.2364 -1.6880  0.3232
 1511TIP3   OH2 4496   3.829   1.838   2.609  0.4348 -0.0046  0.3695
 1511TIP3    H1 4497   3.766   1.780   2.652  1.8113 -2.0329 -0.2024
 1511TIP3    H2 4498   3.902   1.842   2.671  0.9220  0.0162 -0.2086
 1512TIP3   OH2 4499   3.180   0.251   4.661  0.6166  0.1077  0.0800
 1512TIP3    H1 4500   3.235   0.268   4.738 -1.1591  1.1993  1.1858
 1512TIP3    H2 4501   3.206   0.164   4.632 -0.8095 -1.8316  3.8910
 1513TIP3   OH2 4502   4.185   4.723   4.250 -0.3709  0.0293  0.0137
 1513TIP3    H1 4503   4.250   4.794   4.250 -0.5940  0.2322 -0.6353
 1513TIP3    H2 4504   4.215   4.664   4.320  1.3187 -0.6060 -1.1606
 1514TIP3   OH2 4505   3.085   3.932   5.576  0.6480 -0.1619  0.0513
 1514TIP3    H1 4506   3.150   3.879   5.622  1.3548 -0.5971 -1.3842
 1514TIP3    H2 4507   3.072   4.009   5.632  1.0715 -0.9149  1.2091
 1515TIP3   OH2 4508   6.256   3.796   5.343  0.0758  0.4844  0.1532
 1515TIP3    H1 4509   6.253   3.857   5.270 -2.4707 -2.6111 -2.5955
 1515TIP3    H2 4510   6.173   3.808   5.388  0.6860  0.7912  1.2472
 1516TIP3   OH2 4511   3.081   0.664   4.353 -0.1762 -0.1232 -0.2054
 1516TIP3    H1 4512   3.080   0.615   4.435 -0.5343  0.6472  0.2679
 1516TIP3    H2 4513   3.109   0.752   4.378  1.3835 -0.3055 -1.1858
 1517TIP3   OH2 4514   5.792   5.719   2.306 -0.0031  0.0082  0.1103
 1517TIP3    H1 4515   5.721   5.783   2.316 -0.8884 -1.0619  0.9486
 1517TIP3    H2 4516   5.847   5.733   2.383  1.1014  1.2687 -0.8570
 1518TIP3   OH2 4517   3.587   4.219   1.361  0.1050  0.0698  0.1691
 1518TIP3    H1 4518   3.633   4.181   1.436  0.0721 -2.0000 -0.7958
 1518TIP3    H2 4519   3.657   4.251   1.304  0.1871  0.3280  0.4126
 1519TIP3   OH2 4520   4.508   3.375   1.014 -0.2430 -0.3123  0.3844
 1519TIP3    H1 4521   4.502   3.316   0.939 -1.5428  1.2416 -0.8060
 1519TIP3    H2 4522   4.595   3.358   1.050  1.1127 -0.0395 -2.4207
 1520TIP3   OH2 4523   3.060   5.084   0.971  0.1813 -0.5146 -0.4501
 1520TIP3    H1 4524   3.129   5.045   0.918  0.7466 -1.5273  0.9679
 1520TIP3    H2 4525   3.106   5.137   1.036 -0.4386 -0.1725 -0.2792
 1521TIP3   OH2 4526   4.612   4.943   3.081 -0.2582 -0.6164  0.4666
 1521TIP3    H1 4527   4.670   4.866   3.079 -0.2575 -0.6629  1.7354
 1521TIP3    H2 4528   4.664   5.013   3.041  0.5830 -0.7199  1.3564
 1522TIP3   OH2 4529   1.911   6.581   4.723  0.3080  0.4204 -0.1244
 1522TIP3    H1 4530   1.976   6.511   4.715  0.5670  0.3489  1.9185
 1522TIP3    H2 4531   1.963   6.661   4.723  0.1940  0.4955 -0.5106
 1523TIP3   OH2 4532   5.970   0.811   2.149 -0.1676 -0.0969 -0.2553
 1523TIP3    H1 4533   5.910   0.747   2.187  0.3261 -0.4478 -0.0600
 1523TIP3    H2 4534   5.965   0.795   2.054 -0.2660 -0.2250 -0.2292
 1524TIP3   OH2 4535   1.656   1.354   4.263 -0.4779  0.4134 -0.3413
 1524TIP3    H1 4536   1.710   1.340   4.184 -0.7181  0.7258 -0.5622
 1524TIP3    H2 4537   1.718   1.384   4.329 -0.4204  1.0354 -0.6734
 1525TIP3   OH2 4538   3.995   6.229   2.902 -0.1731 -0.1399 -0.5422
 1525TIP3    H1 4539   4.032   6.140   2.900 -0.0476 -0.2564  2.4346
 1525TIP3    H2 4540   3.906   6.217   2.935 -0.3265  0.8101 -0.5896
 1526TIP3   OH2 4541   2.974   0.358   1.937  0.5211  0.8930 -0.0319
 1526TIP3    H1 4542   3.048   0.417   1.952  0.6207  0.5277  1.0372
 1526TIP3    H2 4543   2.990   0.319   1.852  1.8473  0.4271  0.4143
 1527TIP3   OH2 4544   3.308   0.876   3.969 -0.3781  0.3819 -0.0261
 1527TIP3    H1 4545   3.300   0.899   3.876 -0.9251  2.1368  0.4132
 1527TIP3    H2 4546   3.239   0.927   4.012  0.2454  0.0453  1.4172
 1528TIP3   OH2 4547   1.941   4.806   5.000 -0.2046 -0.4591 -0.0078
 1528TIP3    H1 4548   2.016   4.784   5.055 -0.3140  5.0358  3.0005
 1528TIP3    H2 4549   1.865   4.775   5.050 -0.1499 -1.0297 -0.2664
 1529TIP3   OH2 4550   0.172   5.411   2.387  0.3650  0.0164 -0.0334
 1529TIP3    H1 4551   0.117   5.410   2.308 -0.4768 -2.5395  0.4768
 1529TIP3    H2 4552   0.176   5.319   2.414 -1.4538  0.9996  4.3164
 1530TIP3   OH2 4553   2.879   3.739   1.188  0.4349 -0.0034  0.3220
 1530TIP3    H1 4554   2.860   3.683   1.113  0.7340 -2.3185  1.8753
 1530TIP3    H2 4555   2.947   3.799   1.156  1.4284 -1.7022 -0.9459
 1531TIP3   OH2 4556   1.513   4.104   2.695  0.3043  0.5175  0.1789
 1531TIP3    H1 4557   1.483   4.053   2.619 -0.9462  1.8134 -0.2333
 1531TIP3    H2 4558   1.609   4.103   2.687  0.2419 -0.3167 -0.7678
 1532TIP3   OH2 4559   7.014   2.845   5.219  0.7297  0.6173 -0.2112
 1532TIP3    H1 4560   6.965   2.882   5.292 -1.4060 -0.9010 -0.7769
 1532TIP3    H2 4561   7.067   2.917   5.186  0.0258  1.9295  1.4024
 1533TIP3   OH2 4562   0.984   5.850   0.994  0.2140  0.2103 -0.3759
 1533TIP3    H1 4563   0.890   5.833   0.999  0.1984  0.5787  0.7743
 1533TIP3    H2 4564   1.026   5.770   1.025  0.2616  0.3532 -0.0711
 1534TIP3   OH2 4565   0.893   4.232   1.560  0.0036  1.1278  0.0127
 1534TIP3    H1 4566   0.808   4.198   1.589 -0.7955  0.7459 -2.5553
 1534TIP3    H2 4567   0.878   4.326   1.548 -0.2535  0.9702 -0.9873
 1535TIP3   OH2 4568   3.468   1.715   2.600 -0.8081  0.1757  0.7231
 1535TIP3    H1 4569   3.524   1.648   2.560 -2.8456 -0.8673 -0.4914
 1535TIP3    H2 4570   3.473   1.789   2.539  1.4945  1.2776  2.0969
 1536TIP3   OH2 4571   5.298   3.902   0.635 -0.0634 -0.1556 -0.1886
 1536TIP3    H1 4572   5.304   3.920   0.541  0.5646 -0.7665 -0.2797
 1536TIP3    H2 4573   5.336   3.979   0.677  0.0091 -0.0466 -0.4546
 1537TIP3   OH2 4574   7.144   6.096   4.640 -0.0690 -0.1430 -0.0178
 1537TIP3    H1 4575   7.092   6.101   4.720 -1.5440 -2.3559 -0.7510
 1537TIP3    H2 4576   7.087   6.134   4.573 -0.5361 -1.9557 -0.7003
 1538TIP3   OH2 4577   0.934   4.598   4.349 -0.1296  0.3894  0.5217
 1538TIP3    H1 4578   0.962   4.660   4.417  1.0992 -0.8365  1.1981
 1538TIP3    H2 4579   0.861   4.641   4.305 -0.3355  1.6286  2.0004
 1539TIP3   OH2 4580   7.201   1.896   5.245  0.2545  0.3940  0.5556
 1539TIP3    H1 4581   7.227   1.988   5.240  1.5094  0.0845  0.9657
 1539TIP3    H2 4582   7.129   1.895   5.308 -0.2738  1.1842 -0.0155
 1540TIP3   OH2 4583   4.125   0.614   4.476  0.2969 -0.3273 -0.0614
 1540TIP3    H1 4584   4.121   0.579   4.565  2.4590 -0.0183  0.2136
 1540TIP3    H2 4585   4.071   0.692   4.479  1.3571  0.4040  1.3767
 1541TIP3   OH2 4586   1.448   6.676   0.409 -0.1866  0.2397 -0.1567
 1541TIP3    H1 4587   1.525   6.622   0.398 -1.1993 -1.6988  1.6542
 1541TIP3    H2 4588   1.472   6.740   0.476  0.1554  0.2775 -0.3149
 1542TIP3   OH2 4589   7.060   1.617   5.126 -0.4682  0.2830 -0.6621
 1542TIP3    H1 4590   7.094   1.688   5.180  1.3220 -0.1361 -1.1790
 1542TIP3    H2 4591   7.111   1.621   5.045 -0.2573 -1.6184 -0.6790
 1543TIP3   OH2 4592   4.371   5.505   3.432  0.4172  0.6430  0.3484
 1543TIP3    H1 4593   4.353   5.464   3.347  0.5245  1.3188 -0.0127
 1543TIP3    H2 4594   4.294   5.485   3.485 -0.0387  0.9248 -0.1898
 1544TIP3   OH2 4595   3.727   6.189   2.984 -0.0504 -0.2610  0.7522
 1544TIP3    H1 4596   3.695   6.268   3.027  0.3739  0.2333  0.1709
 1544TIP3    H2 4597   3.663   6.171   2.915  1.5348  1.5255 -1.3365
 1545TIP3   OH2 4598   6.768   3.385   1.828 -0.3291 -0.2789 -0.2030
 1545TIP3    H1 4599   6.759   3.331   1.907  0.0324 -0.1663 -0.0820
 1545TIP3    H2 4600   6.708   3.345   1.765 -1.4314  0.2611  0.4628
 1546TIP3   OH2 4601   0.590   3.646   4.481  0.5852 -0.4408 -0.8348
 1546TIP3    H1 4602   0.589   3.708   4.409 -1.3845 -0.8375 -1.2022
 1546TIP3    H2 4603   0.510   3.664   4.530  0.9094 -1.4633  0.1268
 1547TIP3   OH2 4604   5.071   3.501   0.218 -0.0984 -0.3452  0.2124
 1547TIP3    H1 4605   5.153   3.484   0.264 -0.0956 -4.4616 -0.8665
 1547TIP3    H2 4606   5.098   3.541   0.135  0.6370  0.0998  0.6642
 1548TIP3   OH2 4607   7.101   3.965   4.462  0.1701 -0.0990  0.6934
 1548TIP3    H1 4608   7.078   3.933   4.549  0.6950  0.5692  1.0788
 1548TIP3    H2 4609   7.141   3.890   4.419  1.7825  0.1179  1.7380
 1549TIP3   OH2 4610   4.524   0.416   3.731  0.8850  0.3265  0.0321
 1549TIP3    H1 4611   4.545   0.509   3.741  1.2299  0.0681  2.0461
 1549TIP3    H2 4612   4.511   0.385   3.820  2.2513 -1.8997 -0.4711
 1550TIP3   OH2 4613   5.958   0.425   0.005  0.1466 -0.8496 -0.3226
 1550TIP3    H1 4614   6.021   0.477  -0.045 -0.3077  0.7223  0.6687
 1550TIP3    H2 4615   6.004   0.404   0.087 -0.7312  0.6984  0.6017
 1551TIP3   OH2 4616   2.992   1.749   4.353  0.0448  0.0458 -0.2476
 1551TIP3    H1 4617   3.036   1.708   4.279 -0.6074  0.3307 -0.8026
 1551TIP3    H2 4618   3.061   1.799   4.397  0.4128 -0.0216 -0.7348
 1552TIP3   OH2 4619   2.256   4.543   5.011 -0.5685 -0.4129 -0.4162
 1552TIP3    H1 4620   2.234   4.518   4.922 -1.5371 -0.6605 -0.1198
 1552TIP3    H2 4621   2.333   4.490   5.033 -1.8381 -2.2680 -0.2297
 1553TIP3   OH2 4622   3.628   0.475   0.409  0.2969 -0.0594  0.1067
 1553TIP3    H1 4623   3.654   0.398   0.359  0.0869 -0.5880  0.7828
 1553TIP3    H2 4624   3.536   0.489   0.386 -0.6391 -1.9587  2.3240
 1554TIP3   OH2 4625   6.521   5.227   5.590  0.0366  0.3076  0.1123
 1554TIP3    H1 4626   6.606   5.205   5.628  0.7699  0.9887 -1.0666
 1554TIP3    H2 4627   6.515   5.322   5.599 -0.2957  0.3390 -0.4216
 1555TIP3   OH2 4628   4.021   4.833   5.635 -0.3113 -0.0279  0.4949
 1555TIP3    H1 4629   4.067   4.917   5.643  0.5168 -0.4859  0.5880
 1555TIP3    H2 4630   3.950   4.851   5.573 -0.4831  0.8781  0.9268
 1556TIP3   OH2 4631   6.875   0.424   0.322 -0.4512 -0.4440  0.3061
 1556TIP3    H1 4632   6.852   0.453   0.410 -0.0400  0.9335 -0.0174
 1556TIP3    H2 4633   6.965   0.390   0.331  0.8672  2.5958 -0.0985
 1557TIP3   OH2 4634   4.452   3.344   1.883 -0.1131  0.2190 -0.5221
 1557TIP3    H1 4635   4.513   3.404   1.841  1.9677 -0.0581  1.8949
 1557TIP3    H2 4636   4.461   3.361   1.976 -2.3628 -1.1819  0.0304
 1558TIP3   OH2 4637   5.360   5.858   0.364 -0.0620 -0.0684 -0.7915
 1558TIP3    H1 4638   5.372   5.932   0.424  1.0968 -0.4697 -0.4892
 1558TIP3    H2 4639   5.265   5.851   0.352 -0.1707  3.1408 -2.9498
 1559TIP3   OH2 4640   0.546   2.376   1.390  0.0163  0.4407 -0.2769
 1559TIP3    H1 4641   0.635   2.361   1.360 -0.1208 -0.0343 -0.4442
 1559TIP3    H2 4642   0.511   2.442   1.330  0.0913  0.2719 -0.5047
 1560TIP3   OH2 4643   3.066   3.659   1.616 -0.1996 -0.1517  0.8607
 1560TIP3    H1 4644   3.018   3.585   1.579 -0.6361 -0.2734  1.6494
 1560TIP3    H2 4645   3.030   3.670   1.704 -1.3039  2.0187  0.2190
 1561TIP3   OH2 4646   6.434   4.817   4.999 -0.5166  0.2238  0.3974
 1561TIP3    H1 4647   6.466   4.881   4.936  1.7181 -0.0581  1.1557
 1561TIP3    H2 4648   6.446   4.860   5.084 -0.6686 -0.5222  0.7994
 1562TIP3   OH2 4649   5.798   5.824   1.989 -0.0773  0.3986  0.1449
 1562TIP3    H1 4650   5.752   5.745   2.017 -0.6126  1.6606  3.2967
 1562TIP3    H2 4651   5.844   5.854   2.068  2.0240  1.9799 -1.5723
 1563TIP3   OH2 4652   2.454   2.288   1.608  0.1607 -0.0600 -0.0353
 1563TIP3    H1 4653   2.380   2.294   1.548  1.2659 -0.0433 -1.4549
 1563TIP3    H2 4654   2.503   2.211   1.579  0.0260 -0.8301  1.6897
 1564TIP3   OH2 4655   3.226   2.716   5.246 -0.4077 -0.0220  0.1412
 1564TIP3    H1 4656   3.287   2.701   5.174 -0.1840  0.5201  0.2118
 1564TIP3    H2 4657   3.160   2.776   5.210 -0.2404  0.3293  0.4141
 1565TIP3   OH2 4658   5.923   0.287   3.767 -0.0380  0.0247  0.5086
 1565TIP3    H1 4659   5.886   0.364   3.811  0.3353 -0.2780  1.3914
 1565TIP3    H2 4660   5.990   0.255   3.828  2.4196  1.1418 -1.4229
 1566TIP3   OH2 4661   4.687   0.612   4.777 -0.2200 -0.1478 -0.2581
 1566TIP3    H1 4662   4.712   0.552   4.847  2.0037  0.8676 -0.1238
 1566TIP3    H2 4663   4.609   0.572   4.738 -0.2302 -1.8344  1.3836
 1567TIP3   OH2 4664   3.761   5.189   4.275  0.4106 -0.0937  0.2274
 1567TIP3    H1 4665   3.854   5.189   4.296  1.1828 -1.6124 -2.6862
 1567TIP3    H2 4666   3.751   5.261   4.213  0.4981 -2.0857 -2.2555
 1568TIP3   OH2 4667   5.989   6.415   4.193  0.5283 -0.1131  0.2037
 1568TIP3    H1 4668   5.943   6.489   4.153 -2.2185 -2.2461 -0.8857
 1568TIP3    H2 4669   6.018   6.362   4.120  1.5330 -0.6739  0.9858
 1569TIP3   OH2 4670   1.953   2.399   3.997  0.1269  0.2247  0.0395
 1569TIP3    H1 4671   2.001   2.348   4.062 -1.1121  0.3820  1.1291
 1569TIP3    H2 4672   1.923   2.477   4.044 -2.3732 -0.5271 -0.1294
 1570TIP3   OH2 4673   4.063   6.360   5.322 -0.2438  0.3171 -0.4861
 1570TIP3    H1 4674   4.003   6.430   5.295  1.2010  1.7442 -0.1998
 1570TIP3    H2 4675   4.143   6.406   5.348  0.6347 -1.4394  0.1097
 1571TIP3   OH2 4676   5.603   1.521   5.038  0.3871  0.3655 -0.2264
 1571TIP3    H1 4677   5.610   1.585   4.967  1.1893  0.0949 -0.3923
 1571TIP3    H2 4678   5.675   1.542   5.097  0.4325 -0.1596 -0.0935
 1572TIP3   OH2 4679   3.393   0.004   2.256  0.0785 -0.4395 -0.7483
 1572TIP3    H1 4680   3.425   0.078   2.204 -0.0299 -1.5142 -2.4040
 1572TIP3    H2 4681   3.321  -0.032   2.205 -0.7431 -0.9060  0.6851
 1573TIP3   OH2 4682   6.059   2.110   5.783 -0.2387  0.0269  0.1648
 1573TIP3    H1 4683   5.990   2.087   5.846  0.5001 -1.0580  0.6124
 1573TIP3    H2 4684   6.023   2.183   5.734 -0.7669  1.0937  2.0162
 1574TIP3   OH2 4685   2.278   3.518   3.693 -0.4247  0.2354  0.2578
 1574TIP3    H1 4686   2.294   3.572   3.770 -0.4068 -0.7475  0.9577
 1574TIP3    H2 4687   2.252   3.433   3.727 -0.7769 -0.1153 -0.8256
 1575TIP3   OH2 4688   1.904   4.792   3.030 -0.0934 -0.0632  0.4695
 1575TIP3    H1 4689   1.885   4.842   3.109  1.0479  0.7809  0.2440
 1575TIP3    H2 4690   2.000   4.792   3.024 -0.1283  1.5135 -1.8640
 1576TIP3   OH2 4691   1.964   2.324   0.313 -0.5415 -0.0136 -0.2279
 1576TIP3    H1 4692   1.983   2.231   0.326 -0.2240 -0.0877 -1.1414
 1576TIP3    H2 4693   1.955   2.360   0.401 -2.0670 -1.1946  0.1395
 1577TIP3   OH2 4694   6.635   0.907   2.278 -0.4029  0.0880 -0.2449
 1577TIP3    H1 4695   6.649   0.837   2.214 -2.5911  1.1839 -2.0676
 1577TIP3    H2 4696   6.686   0.981   2.245 -0.4259  0.2240  0.0252
 1578TIP3   OH2 4697   7.175   6.697   1.767 -0.8665 -0.0659  0.2298
 1578TIP3    H1 4698   7.210   6.783   1.746 -1.4957 -0.1156 -1.1947
 1578TIP3    H2 4699   7.210   6.640   1.699 -1.6291 -0.6246  0.2946
 1579TIP3   OH2 4700   0.414   0.489   0.668 -0.4502  0.2290 -0.1260
 1579TIP3    H1 4701   0.333   0.445   0.643 -0.8796  0.3600  0.9936
 1579TIP3    H2 4702   0.423   0.473   0.762  0.3840  0.9289 -0.0669
 1580TIP3   OH2 4703   0.190   5.030   1.333 -0.6607  0.1277 -0.1274
 1580TIP3    H1 4704   0.131   4.954   1.325 -0.3056 -0.2111  0.4525
 1580TIP3    H2 4705   0.262   4.999   1.387  1.2791 -0.2067 -2.7104
 1581TIP3   OH2 4706   1.690   4.100   3.180 -0.0048 -0.0320 -0.2954
 1581TIP3    H1 4707   1.742   4.138   3.250  0.1355 -1.4494  0.4109
 1581TIP3    H2 4708   1.628   4.169   3.155  0.3836  0.7147  0.7676
 1582TIP3   OH2 4709   2.530   5.851   1.254 -0.0739  0.2597  0.5523
 1582TIP3    H1 4710   2.623   5.866   1.236  0.3896 -1.9309  0.8666
 1582TIP3    H2 4711   2.485   5.895   1.182  1.1671  1.6273  0.5610
 1583TIP3   OH2 4712   2.099   6.349   5.331 -0.2991  0.1692 -0.1173
 1583TIP3    H1 4713   2.128   6.430   5.373 -0.9454  0.2938  0.0955
 1583TIP3    H2 4714   2.007   6.342   5.353 -0.0069 -1.1772  0.7498
 1584TIP3   OH2 4715   0.375   1.144   3.206 -0.1264 -0.2444  0.6399
 1584TIP3    H1 4716   0.426   1.222   3.183  1.8828 -1.5903  0.2553
 1584TIP3    H2 4717   0.326   1.169   3.284  1.1821  1.1238  1.0660
 1585TIP3   OH2 4718   5.864   1.730   5.759  0.4308  0.4569  0.6462
 1585TIP3    H1 4719   5.808   1.658   5.787 -3.0613  2.5747 -0.2188
 1585TIP3    H2 4720   5.848   1.737   5.664  2.8158  0.7311  0.1978
 1586TIP3   OH2 4721   4.486   2.498   1.996  0.0388  0.2286  0.2602
 1586TIP3    H1 4722   4.534   2.563   1.945  0.1630 -0.0274  0.0502
 1586TIP3    H2 4723   4.462   2.544   2.076  0.8040  0.2973  0.4570
 1587TIP3   OH2 4724   1.817   0.858   2.896 -0.7742  0.1872 -0.3478
 1587TIP3    H1 4725   1.859   0.919   2.957  0.2193 -0.8799  0.0865
 1587TIP3    H2 4726   1.835   0.771   2.934 -0.4407 -0.4798 -1.9732
 1588TIP3   OH2 4727   4.534   2.981   5.426 -0.4552 -0.2427 -0.1973
 1588TIP3    H1 4728   4.569   3.069   5.413  0.0048 -0.3954 -0.0067
 1588TIP3    H2 4729   4.464   2.973   5.361  0.4070 -0.2343 -1.1518
 1589TIP3   OH2 4730   6.295   6.071   1.793  0.4172  0.4127  0.2156
 1589TIP3    H1 4731   6.283   6.166   1.797 -0.0310  0.5137 -2.2092
 1589TIP3    H2 4732   6.360   6.058   1.724  0.0350 -1.0697  0.0995
 1590TIP3   OH2 4733   1.563   0.438   0.078  0.4118  0.2036  0.4319
 1590TIP3    H1 4734   1.608   0.368   0.031  0.9201  0.8932 -0.1169
 1590TIP3    H2 4735   1.543   0.504   0.011  0.8458  1.0473  1.1183
 1591TIP3   OH2 4736   3.006   5.271   5.459  0.2401 -0.4395  0.3700
 1591TIP3    H1 4737   2.916   5.289   5.431  0.3606 -0.5435 -0.0844
 1591TIP3    H2 4738   3.027   5.185   5.422  0.7975 -0.0700 -0.2013
 1592TIP3   OH2 4739   3.415   1.427   2.005 -0.7897 -0.0868 -0.0110
 1592TIP3    H1 4740   3.434   1.383   1.922  1.0070  0.1730  0.2256
 1592TIP3    H2 4741   3.374   1.510   1.980 -0.8585 -0.2987 -0.6077
 1593TIP3   OH2 4742   2.581   0.391   3.055  0.4581  0.9254 -0.1926
 1593TIP3    H1 4743   2.671   0.383   3.086 -0.2956  0.2497  1.9783
 1593TIP3    H2 4744   2.538   0.448   3.119 -0.2152  2.9935 -2.3242
 1594TIP3   OH2 4745   5.390   2.299   1.256 -0.3147 -0.2012 -0.0115
 1594TIP3    H1 4746   5.373   2.232   1.322  0.0861 -0.5442 -0.2556
 1594TIP3    H2 4747   5.438   2.254   1.188 -0.8884  0.1108 -0.6332
 1595TIP3   OH2 4748   6.161   4.518   2.253 -0.5714 -0.1250  0.1724
 1595TIP3    H1 4749   6.212   4.512   2.172  1.1047  0.8174  1.1068
 1595TIP3    H2 4750   6.082   4.566   2.229  0.0630  0.4257 -0.8311
 1596TIP3   OH2 4751   1.699   6.644   3.862 -0.3318 -0.1700  0.6173
 1596TIP3    H1 4752   1.765   6.611   3.802 -1.2929 -1.0972  0.0302
 1596TIP3    H2 4753   1.672   6.728   3.825  0.7504  0.3830  1.0549
 1597TIP3   OH2 4754   5.470   0.158   5.168  0.3769 -0.0223 -0.4422
 1597TIP3    H1 4755   5.387   0.194   5.199  1.5352  2.3525  0.1289
 1597TIP3    H2 4756   5.482   0.198   5.082  0.9535 -0.3298 -0.5058
 1598TIP3   OH2 4757   1.761   2.122   2.535  0.3947  0.4553  0.5601
 1598TIP3    H1 4758   1.838   2.079   2.498  1.1245  1.6555  0.6578
 1598TIP3    H2 4759   1.735   2.065   2.607  0.5408 -0.5156 -0.1265
 1599TIP3   OH2 4760   5.648   6.310   5.141  0.1095  0.2699 -0.3898
 1599TIP3    H1 4761   5.629   6.393   5.098 -0.8196  0.0611 -0.3947
 1599TIP3    H2 4762   5.712   6.267   5.084 -2.3312 -0.7700 -2.5525
 1600TIP3   OH2 4763   4.812   5.883   0.947 -0.1467 -0.6310 -0.0554
 1600TIP3    H1 4764   4.867   5.962   0.948 -1.0000 -0.0186  0.8967
 1600TIP3    H2 4765   4.730   5.911   0.908  0.0785 -1.4644 -1.1653
 1601TIP3   OH2 4766   0.675   2.345   2.800  0.3230  0.1543 -0.0758
 1601TIP3    H1 4767   0.755   2.397   2.798 -0.3497  1.2040  0.1484
 1601TIP3    H2 4768   0.685   2.288   2.876 -0.0603  1.7813  1.2311
 1602TIP3   OH2 4769   4.669   5.704   3.133 -0.2013  0.0348 -0.3548
 1602TIP3    H1 4770   4.724   5.699   3.210  0.2129 -0.0892 -0.6533
 1602TIP3    H2 4771   4.645   5.796   3.125 -4.0205 -0.4754  2.5215
 1603TIP3   OH2 4772   0.666   1.348   4.491 -0.0680  0.1531 -0.3485
 1603TIP3    H1 4773   0.623   1.282   4.436  0.0676  0.0276 -0.3061
 1603TIP3    H2 4774   0.724   1.297   4.548  0.0119  0.3065 -0.2919
 1604TIP3   OH2 4775   4.112   3.752   4.955 -0.7766 -0.7403 -0.2221
 1604TIP3    H1 4776   4.189   3.756   4.898 -0.7471 -1.0487 -0.2062
 1604TIP3    H2 4777   4.071   3.837   4.946  1.4352  0.7628  2.3470
 1605TIP3   OH2 4778   6.167   1.121   2.544 -0.1622  0.7148 -0.1458
 1605TIP3    H1 4779   6.186   1.210   2.514 -2.2293  1.8284  1.5889
 1605TIP3    H2 4780   6.112   1.084   2.475  1.3327  0.4494 -1.2414
 1606TIP3   OH2 4781   2.197   1.994   4.078 -0.4489  0.0344 -0.3711
 1606TIP3    H1 4782   2.232   2.044   4.005 -0.0546  1.3007  0.6641
 1606TIP3    H2 4783   2.269   1.986   4.140 -1.1276  0.0727  0.4461
 1607TIP3   OH2 4784   3.029   6.754   5.636 -0.8378 -0.0449 -0.1488
 1607TIP3    H1 4785   2.997   6.763   5.547 -0.2289 -0.2904 -0.4012
 1607TIP3    H2 4786   3.090   6.828   5.647 -1.8594  0.7227  0.5000
 1608TIP3   OH2 4787   1.648   5.592   0.737  0.2200 -0.1578 -0.4540
 1608TIP3    H1 4788   1.576   5.555   0.787  0.3342  2.1328  1.5970
 1608TIP3    H2 4789   1.606   5.638   0.665 -0.5488  1.8449  1.1758
 1609TIP3   OH2 4790   5.196   0.198   4.674  0.1005 -0.3888  0.1827
 1609TIP3    H1 4791   5.269   0.241   4.627  1.6520 -0.6787  2.2071
 1609TIP3    H2 4792   5.121   0.254   4.656  0.4012 -0.7871 -3.1000
 1610TIP3   OH2 4793   4.673   3.127   5.085  0.5146  0.5931 -0.0948
 1610TIP3    H1 4794   4.670   3.131   5.181  0.3016 -1.5842  0.0489
 1610TIP3    H2 4795   4.748   3.180   5.060  0.5453  1.2251  1.2701
 1611TIP3   OH2 4796   1.016   3.725   2.214 -0.2212  0.0296 -0.2853
 1611TIP3    H1 4797   1.038   3.633   2.204  2.4268  0.6241 -0.8797
 1611TIP3    H2 4798   0.988   3.753   2.127  0.4197  0.1002 -0.4732
 1612TIP3   OH2 4799   7.101   1.658   1.792  0.1023  0.2420 -0.2226
 1612TIP3    H1 4800   7.178   1.642   1.847 -0.9426  0.2287  1.2954
 1612TIP3    H2 4801   7.130   1.722   1.727  1.6768 -0.5570 -0.3459
 1613TIP3   OH2 4802   6.043   4.072   2.317  0.9365 -0.1952 -0.3168
 1613TIP3    H1 4803   6.060   4.093   2.225 -1.5659  1.5034 -0.4911
 1613TIP3    H2 4804   5.969   4.013   2.316  1.5574 -1.0298  0.6122
 1614TIP3   OH2 4805   1.522   2.030   4.013 -0.1100 -0.2047 -0.3496
 1614TIP3    H1 4806   1.611   2.052   4.039  0.1358  0.8244 -1.8757
 1614TIP3    H2 4807   1.533   1.985   3.928 -1.0252 -0.2315 -0.4620
 1615TIP3   OH2 4808   2.735   2.655   4.472  0.7700 -0.1289 -0.1979
 1615TIP3    H1 4809   2.708   2.746   4.484 -1.2897 -0.7551  0.4635
 1615TIP3    H2 4810   2.740   2.619   4.561  2.9872 -0.3384 -0.3505
 1616TIP3   OH2 4811   4.570   1.151   2.368  0.4096  0.3544 -0.1600
 1616TIP3    H1 4812   4.597   1.064   2.338  0.3190 -0.1932  1.2643
 1616TIP3    H2 4813   4.595   1.154   2.460  0.0562  1.6996 -0.0828
 1617TIP3   OH2 4814   6.206   6.108   1.227 -0.6259 -0.7396  0.6868
 1617TIP3    H1 4815   6.119   6.097   1.265 -0.0022 -3.0377  1.6401
 1617TIP3    H2 4816   6.265   6.072   1.293  0.8830 -0.9503 -0.7225
 1618TIP3   OH2 4817   0.273   5.208   4.624 -0.1762 -0.2056 -0.1097
 1618TIP3    H1 4818   0.250   5.191   4.715 -0.4515 -1.6512 -0.4191
 1618TIP3    H2 4819   0.279   5.121   4.584 -2.3070  0.4326 -2.0193
 1619TIP3   OH2 4820   0.721   2.971   5.534 -0.4829 -0.3670  0.0026
 1619TIP3    H1 4821   0.660   2.964   5.461  0.4072  2.4181 -1.1532
 1619TIP3    H2 4822   0.682   3.036   5.592  1.0882  1.1906 -0.5816
 1620TIP3   OH2 4823   6.104   4.374   4.632  0.0241  0.1890  1.1272
 1620TIP3    H1 4824   6.195   4.351   4.611  0.8352  4.6118 -1.5052
 1620TIP3    H2 4825   6.111   4.436   4.705 -0.6342  1.6846 -0.0222
 1621TIP3   OH2 4826   0.224   5.639   0.204  0.0136  0.1778 -0.3045
 1621TIP3    H1 4827   0.248   5.627   0.296 -1.2783 -3.5811 -0.2771
 1621TIP3    H2 4828   0.162   5.712   0.205  0.8296  0.9061  1.6027
 1622TIP3   OH2 4829   0.073   5.067   3.043 -0.1241 -0.1758  0.1538
 1622TIP3    H1 4830   0.004   5.122   3.081 -0.2851 -0.3694  0.1422
 1622TIP3    H2 4831   0.041   5.046   2.956 -0.0731 -0.3104  0.1678
 1623TIP3   OH2 4832   2.362   2.336   0.820 -0.0984 -0.1501  0.1627
 1623TIP3    H1 4833   2.336   2.258   0.770  1.1974  0.3784 -1.4515
 1623TIP3    H2 4834   2.454   2.349   0.796  0.3731  0.5919  2.1712
 1624TIP3   OH2 4835   2.788   1.084   3.573 -0.0184 -0.9407  0.1724
 1624TIP3    H1 4836   2.804   1.101   3.666  0.2881 -1.5761  0.2358
 1624TIP3    H2 4837   2.736   1.004   3.571 -2.6553  0.6486 -0.0669
 1625TIP3   OH2 4838   6.383   2.119   3.374  0.2180  0.3761 -0.6784
 1625TIP3    H1 4839   6.475   2.127   3.399  0.2684  3.8733 -1.4354
 1625TIP3    H2 4840   6.343   2.069   3.445  2.3168  0.6476  0.7984
 1626TIP3   OH2 4841   7.047   1.403   1.605 -0.0306  0.0715 -0.4422
 1626TIP3    H1 4842   7.099   1.444   1.675 -1.4740 -0.6511  1.1352
 1626TIP3    H2 4843   6.999   1.476   1.565 -0.3699  0.3074  0.3780
 1627TIP3   OH2 4844   1.332   2.321   2.242  0.3176  0.2113 -0.1130
 1627TIP3    H1 4845   1.346   2.416   2.238 -0.0891  0.3330  1.0105
 1627TIP3    H2 4846   1.366   2.296   2.328 -1.0431 -0.3972  0.2733
 1628TIP3   OH2 4847   1.324   1.919   5.740 -0.3933 -0.4786 -0.4823
 1628TIP3    H1 4848   1.353   1.838   5.698  1.1516  0.1268 -0.6304
 1628TIP3    H2 4849   1.402   1.952   5.784 -0.9275  1.0756 -0.6700
 1629TIP3   OH2 4850   4.877   0.800   5.672  0.4488 -0.1560  0.3070
 1629TIP3    H1 4851   4.808   0.829   5.612 -0.9545 -0.1585  1.8351
 1629TIP3    H2 4852   4.877   0.705   5.663  0.6789 -0.1173 -0.1318
 1630TIP3   OH2 4853   2.279   4.860   4.125 -0.0681  0.8076  0.0341
 1630TIP3    H1 4854   2.289   4.950   4.158 -1.1219  1.0768 -0.3159
 1630TIP3    H2 4855   2.184   4.847   4.122  0.0430 -1.0855  2.1268
 1631TIP3   OH2 4856   6.396   3.575   2.022  0.0321  0.1418  0.1195
 1631TIP3    H1 4857   6.310   3.542   2.049  0.4004 -2.3156 -1.4402
 1631TIP3    H2 4858   6.401   3.555   1.929  1.6824  1.7122 -0.1796
 1632TIP3   OH2 4859   1.856   4.494   0.430 -0.1308 -0.4827 -0.1639
 1632TIP3    H1 4860   1.824   4.530   0.513  0.1603  1.0414 -0.6707
 1632TIP3    H2 4861   1.827   4.403   0.430 -2.3308  0.1711  0.4654
 1633TIP3   OH2 4862   4.044   3.053   0.017  0.3243  0.4013 -0.6342
 1633TIP3    H1 4863   4.110   3.105  -0.027 -0.7058  0.5841 -2.0150
 1633TIP3    H2 4864   3.988   3.117   0.062  0.7875  0.2758  0.1432
 1634TIP3   OH2 4865   3.272   1.742   4.216 -0.2554  0.0914  0.4890
 1634TIP3    H1 4866   3.294   1.771   4.127 -0.4663  2.1566  1.0489
 1634TIP3    H2 4867   3.350   1.762   4.267  0.3274 -2.2131  0.6043
 1635TIP3   OH2 4868   2.809   4.450   0.701  0.6376  0.2103  0.1197
 1635TIP3    H1 4869   2.810   4.471   0.794 -0.6457  1.1996 -0.0617
 1635TIP3    H2 4870   2.777   4.530   0.659  1.6858 -0.0545 -1.2217
 1636TIP3   OH2 4871   1.486   3.655   2.840  0.1596  0.0415 -0.3201
 1636TIP3    H1 4872   1.489   3.603   2.919  0.3165  0.1101 -0.2793
 1636TIP3    H2 4873   1.549   3.613   2.781 -0.0094 -0.0514 -0.4332
 1637TIP3   OH2 4874   2.535   0.483   3.341  0.3373  0.4084 -0.4546
 1637TIP3    H1 4875   2.516   0.577   3.334 -2.2884  0.0402  0.4153
 1637TIP3    H2 4876   2.509   0.460   3.430  2.8584 -0.8101  0.0432
 1638TIP3   OH2 4877   6.149   0.362   1.371 -0.0069  0.3482 -0.1903
 1638TIP3    H1 4878   6.181   0.322   1.452  0.9031 -0.0307 -0.7242
 1638TIP3    H2 4879   6.054   0.363   1.381  0.1306  1.7192  1.5485
 1639TIP3   OH2 4880   4.580   3.375   3.000 -0.1656  0.0255  0.0687
 1639TIP3    H1 4881   4.639   3.303   3.023  0.6667  1.3019  2.1919
 1639TIP3    H2 4882   4.509   3.370   3.064 -0.4943  0.6694 -0.2340
 1640TIP3   OH2 4883   6.991   6.296   1.309  0.3290 -0.0005  0.3130
 1640TIP3    H1 4884   6.990   6.371   1.369  0.7546  0.0698  0.2387
 1640TIP3    H2 4885   6.903   6.260   1.314  0.5285 -0.3625  1.4408
 1641TIP3   OH2 4886   5.458   2.506   5.613 -0.0155  0.1804  0.4697
 1641TIP3    H1 4887   5.391   2.538   5.552  0.6683  0.4080 -0.1817
 1641TIP3    H2 4888   5.422   2.525   5.700 -0.5089  0.8995  0.1232
 1642TIP3   OH2 4889   0.546   2.167   5.841 -0.0854  0.0716  0.1461
 1642TIP3    H1 4890   0.503   2.170   5.927 -0.5521 -1.7146  0.0180
 1642TIP3    H2 4891   0.534   2.077   5.811  0.1914  0.6129 -1.7460
 1643TIP3   OH2 4892   2.923   1.291   5.444  0.1917 -0.4226 -0.5093
 1643TIP3    H1 4893   2.966   1.212   5.475  1.0501  0.2828  0.1585
 1643TIP3    H2 4894   2.992   1.357   5.444 -0.7543  0.5914 -0.0118
 1644TIP3   OH2 4895   4.409   4.376   0.377 -0.3301 -0.0539  0.1762
 1644TIP3    H1 4896   4.402   4.342   0.466  0.7410 -1.0685 -0.0987
 1644TIP3    H2 4897   4.483   4.329   0.339 -1.7131 -0.7945 -1.7738
 1645TIP3   OH2 4898   6.191   4.707   3.993 -0.1464 -0.3129 -0.5429
 1645TIP3    H1 4899   6.247   4.747   3.927 -1.1617  0.8568 -0.7307
 1645TIP3    H2 4900   6.196   4.765   4.069  0.1246 -1.0450  0.0156
 1646TIP3   OH2 4901   3.253   3.259   5.636 -0.3397 -0.0958  0.3996
 1646TIP3    H1 4902   3.219   3.183   5.589 -0.6530  0.2777  0.0188
 1646TIP3    H2 4903   3.175   3.306   5.665 -0.2196  1.3756 -1.4598
 1647TIP3   OH2 4904   3.370   0.355   0.585  0.3453 -0.5824 -0.2152
 1647TIP3    H1 4905   3.348   0.334   0.494 -1.2596  0.9445 -0.2086
 1647TIP3    H2 4906   3.400   0.271   0.621 -0.5072 -1.5802 -1.6983
 1648TIP3   OH2 4907   6.622   1.092   1.799  0.1078  0.0753 -0.3894
 1648TIP3    H1 4908   6.650   1.004   1.825 -0.1051  0.2998  0.6391
 1648TIP3    H2 4909   6.677   1.151   1.850 -1.7104  0.5332  1.1307
 1649TIP3   OH2 4910   0.474   0.096   5.166 -0.5092 -0.0815  0.0982
 1649TIP3    H1 4911   0.404   0.080   5.102  1.6515  0.2866 -2.5454
 1649TIP3    H2 4912   0.522   0.014   5.172  0.8338  0.5993 -0.8009
 1650TIP3   OH2 4913   4.751   1.711   3.796 -0.0472 -0.5113 -0.3605
 1650TIP3    H1 4914   4.805   1.788   3.815 -0.7474 -0.5203  1.9871
 1650TIP3    H2 4915   4.668   1.746   3.766  0.3472 -0.4439 -1.4312
 1651TIP3   OH2 4916   3.089   2.439   5.246  0.6105  0.0524 -0.1716
 1651TIP3    H1 4917   3.124   2.526   5.225  1.1092  0.1805  1.0402
 1651TIP3    H2 4918   2.994   2.452   5.251  0.6488  0.4402 -0.4085
 1652TIP3   OH2 4919   6.001   0.615   2.540 -0.0524  0.1527 -0.5598
 1652TIP3    H1 4920   6.065   0.655   2.481  0.9603  0.8658  0.9383
 1652TIP3    H2 4921   6.031   0.525   2.552 -0.1721  0.0531 -0.9913
 1653TIP3   OH2 4922   5.713   2.127   2.277 -0.5988  0.1656 -0.1400
 1653TIP3    H1 4923   5.808   2.116   2.284 -0.7569 -1.0040  0.3213
 1653TIP3    H2 4924   5.702   2.212   2.235  0.6700 -0.1246 -1.1089
 1654TIP3   OH2 4925   4.332   5.453   1.265 -0.2372 -0.0688 -0.2608
 1654TIP3    H1 4926   4.360   5.529   1.214 -1.8335  0.9585  0.2969
 1654TIP3    H2 4927   4.361   5.472   1.354 -0.0869 -0.4029 -0.2416
 1655TIP3   OH2 4928   7.101   4.964   0.433  0.0595 -0.9100  0.5200
 1655TIP3    H1 4929   7.141   5.047   0.408  0.7319 -1.0926  0.9444
 1655TIP3    H2 4930   7.007   4.983   0.439 -0.1866 -0.8882 -2.2300
 1656TIP3   OH2 4931   5.079   3.186   3.227 -0.3468 -0.4485  0.0509
 1656TIP3    H1 4932   5.070   3.278   3.203  0.4648 -0.9554 -2.4643
 1656TIP3    H2 4933   5.174   3.173   3.236 -0.5259 -0.1895  4.4920
 1657TIP3   OH2 4934   1.338   4.937   2.741  0.3227 -0.6976 -0.1156
 1657TIP3    H1 4935   1.345   4.884   2.820  1.5388 -0.9742 -0.3872
 1657TIP3    H2 4936   1.414   4.912   2.688 -1.0129 -1.2597 -1.8456
 1658TIP3   OH2 4937   0.593   5.951   5.407 -0.3621 -0.4259  0.3133
 1658TIP3    H1 4938   0.641   5.870   5.393 -0.8764 -0.8338  0.8385
 1658TIP3    H2 4939   0.501   5.925   5.404 -0.6049  0.5037 -1.6675
 1659TIP3   OH2 4940   5.589   5.253   0.375  0.9302  0.0772 -0.0173
 1659TIP3    H1 4941   5.503   5.283   0.345  0.6966  1.3285  1.7242
 1659TIP3    H2 4942   5.585   5.157   0.367 -0.8758  0.0629  0.6209
 1660TIP3   OH2 4943   1.556   6.356   0.023  0.0158 -0.9419  0.0209
 1660TIP3    H1 4944   1.586   6.446   0.013 -0.8285 -0.6863 -0.3030
 1660TIP3    H2 4945   1.546   6.344   0.118 -2.4767  0.2179 -0.0241
 1661TIP3   OH2 4946   5.536   2.786   1.286 -0.4144 -0.3280 -0.6101
 1661TIP3    H1 4947   5.442   2.782   1.306  0.1805 -0.4210  2.6854
 1661TIP3    H2 4948   5.562   2.695   1.277  0.0139 -0.6332  2.6308
 1662TIP3   OH2 4949   5.283   5.695   5.244  0.1531  0.0902 -1.0965
 1662TIP3    H1 4950   5.284   5.781   5.202 -2.9804  0.0243 -1.5281
 1662TIP3    H2 4951   5.258   5.634   5.175  1.0536 -0.9730 -0.5038
 1663TIP3   OH2 4952   0.370   3.963   0.775 -0.2826 -0.8292 -0.6244
 1663TIP3    H1 4953   0.437   4.028   0.756  0.2505 -1.1299  0.1931
 1663TIP3    H2 4954   0.364   3.961   0.870 -1.5311 -0.7359 -0.6743
 1664TIP3   OH2 4955   2.108   6.781   3.251  0.0986  0.0727 -0.1627
 1664TIP3    H1 4956   2.188   6.824   3.222 -0.8090 -0.3470 -3.7372
 1664TIP3    H2 4957   2.138   6.701   3.295  1.6375  1.3454  1.2011
 1665TIP3   OH2 4958   6.610   1.048   3.455  0.0654 -0.6710 -0.2345
 1665TIP3    H1 4959   6.621   0.956   3.432  0.1108 -0.8231  0.3690
 1665TIP3    H2 4960   6.589   1.092   3.373 -0.6708 -1.3327 -0.4065
 1666TIP3   OH2 4961   5.922   4.764   1.941  0.2635 -0.0593 -0.0437
 1666TIP3    H1 4962   5.966   4.698   1.888  1.0967  0.0110  0.5291
 1666TIP3    H2 4963   5.902   4.835   1.880 -2.7098 -1.7117 -1.1835
 1667TIP3   OH2 4964   6.661   4.035   4.876  0.2029  0.4485  0.0115
 1667TIP3    H1 4965   6.568   4.013   4.866 -0.4026  2.4449  0.8336
 1667TIP3    H2 4966   6.707   3.954   4.853 -1.7897 -1.2081  1.5053
 1668TIP3   OH2 4967   6.613   2.532   0.885 -0.1933  0.0655  0.0778
 1668TIP3    H1 4968   6.624   2.610   0.940 -0.1953  1.7966 -2.2411
 1668TIP3    H2 4969   6.559   2.474   0.938  0.0345  1.4897  2.0094
 1669TIP3   OH2 4970   5.182   0.992   2.151 -0.0483 -0.4888 -0.3107
 1669TIP3    H1 4971   5.095   1.000   2.189  0.1773  2.8670 -0.2123
 1669TIP3    H2 4972   5.241   1.030   2.216  1.4819 -2.3358 -0.5382
 1670TIP3   OH2 4973   7.080   4.434   4.319 -0.0355  0.1350 -0.0428
 1670TIP3    H1 4974   7.130   4.377   4.377  0.7723 -1.5817 -2.3201
 1670TIP3    H2 4975   7.061   4.381   4.242 -1.3616  2.2103 -1.2482
 1671TIP3   OH2 4976   6.597   5.084   4.026  0.1449 -0.3377  0.0047
 1671TIP3    H1 4977   6.692   5.077   4.017 -0.0454 -1.4795 -1.4331
 1671TIP3    H2 4978   6.584   5.170   4.066  1.7398  0.2764 -0.6809
 1672TIP3   OH2 4979   4.904   4.691   0.276  0.0593  0.0513  0.0633
 1672TIP3    H1 4980   4.810   4.685   0.295  0.5333 -0.9554  2.3830
 1672TIP3    H2 4981   4.911   4.667   0.183 -1.8449 -1.3319  0.2155
 1673TIP3   OH2 4982   0.898   0.235   1.572 -0.6084  0.0071 -0.0748
 1673TIP3    H1 4983   0.870   0.264   1.486  0.0275  0.2886 -0.1919
 1673TIP3    H2 4984   0.837   0.165   1.595 -1.5085  0.7206 -0.2400
 1674TIP3   OH2 4985   1.641   0.405   1.732 -0.0763 -0.1850  0.5832
 1674TIP3    H1 4986   1.689   0.399   1.649  0.0435  0.2466  0.6200
 1674TIP3    H2 4987   1.586   0.326   1.733 -0.6213  0.1658 -0.2451
 1675TIP3   OH2 4988   0.126   3.770   2.967  0.0740  0.1442 -0.2170
 1675TIP3    H1 4989   0.216   3.755   2.995  0.1151 -1.9230 -1.2479
 1675TIP3    H2 4990   0.118   3.720   2.886 -1.1170  2.8078 -1.8773
 1676TIP3   OH2 4991   6.783   5.953   5.654 -0.0396 -0.3612 -0.0327
 1676TIP3    H1 4992   6.704   5.938   5.602  0.0681 -0.4677 -0.1658
 1676TIP3    H2 4993   6.836   5.875   5.641 -0.3215 -0.7071  0.8132
 1677TIP3   OH2 4994   3.485   4.603   0.937 -0.1081 -0.5211 -0.5544
 1677TIP3    H1 4995   3.492   4.517   0.979  0.7105  0.9768  2.6707
 1677TIP3    H2 4996   3.407   4.642   0.976 -0.3264  0.3618 -1.7979
 1678TIP3   OH2 4997   5.183   2.066   2.394  0.2306  0.2583 -0.1553
 1678TIP3    H1 4998   5.238   2.138   2.364  0.9718 -0.4903 -0.6337
 1678TIP3    H2 4999   5.100   2.108   2.419  1.0677  1.4210  0.7675
 1679TIP3   OH2 5000   0.114   3.914   2.493 -0.0045 -0.2312 -0.1995
 1679TIP3    H1 5001   0.144   3.987   2.548 -0.3074 -1.3441  1.5370
 1679TIP3    H2 5002   0.192   3.860   2.482 -0.2539 -0.7164  0.3419
 1680TIP3   OH2 5003   3.358   3.684   3.678  0.4895  0.0284 -0.8739
 1680TIP3    H1 5004   3.356   3.771   3.637  0.4869  0.2898 -0.3381
 1680TIP3    H2 5005   3.422   3.693   3.749 -1.6989  0.5073  1.1389
 1681TIP3   OH2 5006   4.213   0.111   0.026  0.1232 -0.2903 -0.2525
 1681TIP3    H1 5007   4.206   0.078   0.116  0.5043 -1.5444 -0.6587
 1681TIP3    H2 5008   4.272   0.186   0.033 -0.4194  0.0829  0.6416
 1682TIP3   OH2 5009   1.300   3.647   0.773  0.5158  0.0929  0.5322
 1682TIP3    H1 5010   1.388   3.640   0.736  1.1670  0.2633  1.9550
 1682TIP3    H2 5011   1.242   3.658   0.698  1.7571  0.3386 -0.4113
 1683TIP3   OH2 5012   1.069   4.687   3.173 -0.4135  0.4087  0.8248
 1683TIP3    H1 5013   1.064   4.614   3.112 -0.0284  0.7487  0.3761
 1683TIP3    H2 5014   0.995   4.675   3.232 -0.6876 -0.0187  0.3939
 1684TIP3   OH2 5015   0.044   3.503   5.268  0.7246 -0.3013 -0.1673
 1684TIP3    H1 5016   0.035   3.447   5.345 -0.5173  1.4035  0.9906
 1684TIP3    H2 5017  -0.038   3.551   5.263  0.5226 -0.7288 -2.9167
 1685TIP3   OH2 5018   2.527   1.510   5.564  0.3834  0.1134 -0.8468
 1685TIP3    H1 5019   2.489   1.492   5.478  2.7269  1.2740 -2.2216
 1685TIP3    H2 5020   2.619   1.528   5.546  1.1302 -0.4586  2.0501
 1686TIP3   OH2 5021   6.477   6.648   4.508 -0.2213 -0.4399 -0.1268
 1686TIP3    H1 5022   6.401   6.703   4.495 -0.8945 -0.9286  1.4312
 1686TIP3    H2 5023   6.544   6.684   4.449 -1.1817  0.9134 -0.4350
 1687TIP3   OH2 5024   6.411   5.008   5.218  0.1168  0.3883  0.1389
 1687TIP3    H1 5025   6.404   5.005   5.313 -1.7584 -1.5994  0.0267
 1687TIP3    H2 5026   6.340   5.066   5.191  0.0151  0.1664 -0.0738
 1688TIP3   OH2 5027   4.488   2.930   4.977 -0.2315  0.0075  0.1054
 1688TIP3    H1 5028   4.528   3.006   5.021  0.7145 -1.3756  1.7936
 1688TIP3    H2 5029   4.397   2.931   5.006 -0.1631  0.3711  0.3166
 1689TIP3   OH2 5030   1.640   4.434   0.807  0.3682  0.3495 -0.2759
 1689TIP3    H1 5031   1.609   4.381   0.734  3.3141 -1.3091 -0.5121
 1689TIP3    H2 5032   1.653   4.370   0.878  2.7698  0.8807 -0.1409
 1690TIP3   OH2 5033   3.073   5.918   4.055 -0.2400 -0.1835 -0.1811
 1690TIP3    H1 5034   3.044   6.010   4.058  1.4525  0.4188 -1.0652
 1690TIP3    H2 5035   3.163   5.921   4.087 -1.0311 -1.9962  2.5205
 1691TIP3   OH2 5036   5.339   5.799   3.501 -0.2230 -0.0850  0.1304
 1691TIP3    H1 5037   5.302   5.757   3.578 -0.3098  0.6025  0.4661
 1691TIP3    H2 5038   5.304   5.748   3.427 -0.1276 -0.7508  0.5358
 1692TIP3   OH2 5039   3.231   0.408   2.247 -0.0339  0.5085 -0.1267
 1692TIP3    H1 5040   3.309   0.425   2.298 -1.0104  1.1842  1.1916
 1692TIP3    H2 5041   3.175   0.355   2.304  0.0813 -1.3550 -1.6222
 1693TIP3   OH2 5042   4.108   3.354   2.887 -0.4855 -0.6349 -0.1407
 1693TIP3    H1 5043   4.141   3.423   2.830 -2.5633  1.3235  0.8775
 1693TIP3    H2 5044   4.113   3.274   2.834 -1.0121  0.8522 -2.5731
 1694TIP3   OH2 5045   6.216   0.840   0.751  1.1625  0.4706 -0.2671
 1694TIP3    H1 5046   6.275   0.808   0.684  2.0649  0.8882  0.3058
 1694TIP3    H2 5047   6.152   0.894   0.704 -1.8299 -3.7507 -1.6471
 1695TIP3   OH2 5048   5.193   3.290   5.043  0.6206  0.3646  0.3709
 1695TIP3    H1 5049   5.206   3.334   5.127  0.5669 -0.4613  0.8196
 1695TIP3    H2 5050   5.255   3.217   5.044 -0.5577 -0.6760  0.4363
 1696TIP3   OH2 5051   2.012   6.031   1.180  0.2203  0.2412 -0.3453
 1696TIP3    H1 5052   2.021   6.104   1.119 -0.3236 -0.2316 -0.9994
 1696TIP3    H2 5053   1.979   6.072   1.260 -0.4477  0.6754 -0.8282
 1697TIP3   OH2 5054   4.049   0.426   1.495  0.7282 -0.5615 -0.5329
 1697TIP3    H1 5055   4.090   0.489   1.553  3.1388 -1.3595 -1.2684
 1697TIP3    H2 5056   3.959   0.417   1.528  0.4060  2.8844 -0.1913
 1698TIP3   OH2 5057   4.923   5.369   4.931  0.2656 -0.0113 -0.3740
 1698TIP3    H1 5058   4.904   5.305   5.000  1.6134  1.1664  1.1489
 1698TIP3    H2 5059   4.838   5.410   4.913  0.0846  0.5562  1.5367
 1699TIP3   OH2 5060   6.531   2.291   1.045  0.1203  0.0086 -0.6354
 1699TIP3    H1 5061   6.586   2.225   1.088 -0.3029  0.1788  0.1762
 1699TIP3    H2 5062   6.554   2.284   0.952  1.6145  0.1858 -0.2923
 1700TIP3   OH2 5063   7.174   4.464   3.965 -0.5141  0.1088 -0.1542
 1700TIP3    H1 5064   7.126   4.537   4.003 -1.6912 -1.0306  0.6413
 1700TIP3    H2 5065   7.230   4.504   3.899 -0.9658  1.7429  0.4036
 1701TIP3   OH2 5066   5.430   0.982   2.550 -0.2907  0.0555 -0.3021
 1701TIP3    H1 5067   5.438   1.006   2.457  1.9599  0.1234 -0.1611
 1701TIP3    H2 5068   5.492   1.040   2.595 -0.4799 -0.7654  1.0817
 1702TIP3   OH2 5069   5.413   5.544   1.679  0.0331  0.2899 -0.1519
 1702TIP3    H1 5070   5.395   5.509   1.766 -2.5217  0.1871 -0.6423
 1702TIP3    H2 5071   5.331   5.532   1.631  1.3878  0.2707 -2.6127
 1703TIP3   OH2 5072   4.469   0.544   1.056 -0.4179 -0.3670  0.0756
 1703TIP3    H1 5073   4.510   0.462   1.030  2.4876  1.5419 -1.9961
 1703TIP3    H2 5074   4.436   0.582   0.974 -1.8680  0.5235  1.0134
 1704TIP3   OH2 5075   5.880   3.656   0.060 -0.2541  0.0851  0.2341
 1704TIP3    H1 5076   5.891   3.745   0.094  0.0015 -0.5925  2.0029
 1704TIP3    H2 5077   5.967   3.616   0.068  0.3711  0.4453 -3.1026
 1705TIP3   OH2 5078   0.288   4.117   3.387  0.4052 -0.3444 -0.6700
 1705TIP3    H1 5079   0.246   4.054   3.328  1.4549 -0.1877 -1.6311
 1705TIP3    H2 5080   0.362   4.069   3.423 -0.0708 -0.3446  0.3309
 1706TIP3   OH2 5081   6.278   3.812   0.853  0.5488  0.2234 -0.0552
 1706TIP3    H1 5082   6.264   3.905   0.832 -0.3486  0.1394  0.1502
 1706TIP3    H2 5083   6.275   3.767   0.769  0.3423  0.2996 -0.0876
 1707TIP3   OH2 5084   5.490   2.800   5.440  0.8736  0.0381  0.9905
 1707TIP3    H1 5085   5.468   2.893   5.434  0.5305 -0.0554  0.7219
 1707TIP3    H2 5086   5.405   2.756   5.439  1.0667 -0.3767 -0.7952
 1708TIP3   OH2 5087   2.759   3.459   0.208 -0.3686  0.6803 -0.5138
 1708TIP3    H1 5088   2.692   3.391   0.214 -0.0678  0.3373 -1.0099
 1708TIP3    H2 5089   2.805   3.441   0.126 -0.0761  1.2899 -0.4907
 1709TIP3   OH2 5090   5.673   2.695   1.978  0.2765  0.5484 -0.1591
 1709TIP3    H1 5091   5.737   2.638   1.935 -0.2228 -2.5287  2.7608
 1709TIP3    H2 5092   5.589   2.654   1.963 -0.3782  1.6013  0.4306
 1710TIP3   OH2 5093   1.478   1.153   0.759 -0.2378  0.7402  0.3294
 1710TIP3    H1 5094   1.446   1.192   0.840 -1.5614 -1.5128  1.0034
 1710TIP3    H2 5095   1.422   1.076   0.746  0.7902  0.2915 -2.0318
 1711TIP3   OH2 5096   1.611   3.573   3.138  0.1443  0.2405  0.3109
 1711TIP3    H1 5097   1.694   3.579   3.186 -0.3508 -0.7172  1.3195
 1711TIP3    H2 5098   1.589   3.664   3.118  1.0945  0.5548  0.6120
 1712TIP3   OH2 5099   3.610   4.366   4.551  0.5368  0.2407  0.1122
 1712TIP3    H1 5100   3.531   4.315   4.568 -0.0159  0.5705 -1.3183
 1712TIP3    H2 5101   3.610   4.434   4.619 -0.0131 -0.1978  0.5580
 1713TIP3   OH2 5102   2.674   1.627   2.134  0.1620 -0.0665 -0.1653
 1713TIP3    H1 5103   2.608   1.695   2.124  0.2374 -0.0229 -0.3669
 1713TIP3    H2 5104   2.624   1.549   2.160  0.0421 -0.0110 -0.2260
 1714TIP3   OH2 5105   2.202   6.631   0.280  0.4216 -0.0579 -0.1478
 1714TIP3    H1 5106   2.175   6.618   0.189 -0.1799 -1.0668  0.1553
 1714TIP3    H2 5107   2.139   6.579   0.331  1.6451 -0.7191  0.7398
 1715TIP3   OH2 5108   4.795   6.029   5.221  0.2586  0.6211 -0.0219
 1715TIP3    H1 5109   4.785   6.118   5.189 -1.0667  0.9614  1.2109
 1715TIP3    H2 5110   4.720   6.016   5.280  2.0844 -0.2209  2.2868
 1716TIP3   OH2 5111   3.373   6.404   3.838  0.0693  0.0581  0.1166
 1716TIP3    H1 5112   3.381   6.495   3.865  1.0049 -0.4058  1.5450
 1716TIP3    H2 5113   3.416   6.400   3.753 -0.2044  0.9882 -0.0778
 1717TIP3   OH2 5114   1.871   2.014   3.856  0.9240 -0.0768  0.1667
 1717TIP3    H1 5115   1.820   1.937   3.830  0.9085  0.7355 -2.5468
 1717TIP3    H2 5116   1.959   1.995   3.824  0.7477  1.2864 -1.2659
 1718TIP3   OH2 5117   2.373   0.131   2.161 -0.5727 -0.1342 -0.0474
 1718TIP3    H1 5118   2.456   0.104   2.200 -0.8265  0.4039  0.8998
 1718TIP3    H2 5119   2.318   0.154   2.236 -1.0060  1.1371 -0.7249
 1719TIP3   OH2 5120   3.977   4.847   4.814  0.4748  0.2320  0.1936
 1719TIP3    H1 5121   4.032   4.769   4.806  0.4022  0.2174 -0.1786
 1719TIP3    H2 5122   3.919   4.829   4.887  0.6969  0.0813  0.3318
 1720TIP3   OH2 5123   5.145   3.659   3.024  0.4188  0.0872  0.0816
 1720TIP3    H1 5124   5.219   3.600   3.035 -0.2653 -0.7428  0.3737
 1720TIP3    H2 5125   5.184   3.745   3.009  1.5012  0.5373  4.3261
 1721TIP3   OH2 5126   2.926   1.465   5.218 -0.0852 -0.6770  0.0097
 1721TIP3    H1 5127   2.914   1.386   5.165  0.3459 -0.4307 -0.4618
 1721TIP3    H2 5128   2.987   1.438   5.287  0.2509 -0.6964 -0.2902
 1722TIP3   OH2 5129   0.002   2.856   5.724  0.4625  0.4503 -0.2546
 1722TIP3    H1 5130   0.077   2.830   5.670 -0.4752 -1.1543 -0.8532
 1722TIP3    H2 5131  -0.073   2.846   5.666 -0.1803  2.7172  0.1151
 1723TIP3   OH2 5132   5.064   4.635   1.725 -0.5694  0.0820 -0.0865
 1723TIP3    H1 5133   5.082   4.663   1.635  0.8255  0.6171  0.3344
 1723TIP3    H2 5134   5.150   4.624   1.764 -0.9927 -3.5297  0.2007
 1724TIP3   OH2 5135   0.080   6.380   4.471 -0.4100 -0.3019 -1.1682
 1724TIP3    H1 5136   0.131   6.301   4.488 -0.2166 -0.0317 -0.4439
 1724TIP3    H2 5137   0.037   6.400   4.555 -1.8548 -0.6151 -1.7997
 1725TIP3   OH2 5138   3.716   1.083   4.217  0.2145  0.2079  0.3243
 1725TIP3    H1 5139   3.779   1.045   4.157 -0.6354  0.9356 -1.0855
 1725TIP3    H2 5140   3.729   1.178   4.209  1.7544  0.3520  3.1683
 1726TIP3   OH2 5141   0.372   4.809   2.164 -0.1835  0.1248 -0.1737
 1726TIP3    H1 5142   0.381   4.749   2.090 -0.3613  1.2740 -1.1338
 1726TIP3    H2 5143   0.389   4.896   2.128  1.0892  0.5784  1.4124
 1727TIP3   OH2 5144   6.961   5.440   4.699 -0.2656 -0.5287 -0.1345
 1727TIP3    H1 5145   6.956   5.358   4.651 -2.0782 -0.7458  0.3624
 1727TIP3    H2 5146   7.021   5.494   4.648  0.5973 -1.9785 -0.7100
 1728TIP3   OH2 5147   6.900   1.602   3.250 -0.8382 -0.4945 -0.2745
 1728TIP3    H1 5148   6.959   1.529   3.230  2.9793  2.1009  0.2732
 1728TIP3    H2 5149   6.853   1.618   3.168 -1.6807 -3.3487 -0.4396
 1729TIP3   OH2 5150   0.064   1.056   2.345 -0.2022  0.5519  0.3971
 1729TIP3    H1 5151   0.118   1.055   2.424 -0.2713  0.8442  0.4519
 1729TIP3    H2 5152  -0.010   1.113   2.367 -0.6368 -0.0057  0.3895
 1730TIP3   OH2 5153   5.121   0.810   4.931 -0.1164  0.3689  0.0218
 1730TIP3    H1 5154   5.197   0.773   4.976  0.4803  0.0915 -1.1746
 1730TIP3    H2 5155   5.048   0.796   4.992  0.9459  1.6210  1.6553
 1731TIP3   OH2 5156   5.957   2.990   3.030 -0.6044 -0.5497  0.2615
 1731TIP3    H1 5157   5.936   2.902   3.062  0.4297 -0.8694  0.0841
 1731TIP3    H2 5158   5.925   2.991   2.940  1.8872 -1.7586 -0.7319
 1732TIP3   OH2 5159   2.332   2.978   0.290  0.1524  0.3936 -1.0129
 1732TIP3    H1 5160   2.426   2.976   0.311 -0.1345 -1.8486  0.3271
 1732TIP3    H2 5161   2.329   2.982   0.194  1.5725  1.6660 -1.0479
 1733TIP3   OH2 5162   6.421   3.961   4.754 -0.0616 -0.3471 -0.7252
 1733TIP3    H1 5163   6.416   3.972   4.659 -0.9944 -0.0483 -0.6565
 1733TIP3    H2 5164   6.341   3.914   4.777  0.1678 -0.4367 -0.0920
 1734TIP3   OH2 5165   0.703   4.855   3.895 -0.6785 -0.5874  0.0849
 1734TIP3    H1 5166   0.704   4.859   3.799  0.0120  0.6398  0.1192
 1734TIP3    H2 5167   0.786   4.814   3.917  0.0563  0.8806  0.1807
 1735TIP3   OH2 5168   2.756   2.051   4.879  0.4410 -0.0820  0.0396
 1735TIP3    H1 5169   2.692   2.059   4.809  1.6329  0.4296 -1.0315
 1735TIP3    H2 5170   2.840   2.044   4.834  1.1385 -0.9662  1.3976
 1736TIP3   OH2 5171   4.361   4.285   3.156 -0.1525  0.4292  0.3776
 1736TIP3    H1 5172   4.365   4.304   3.250  0.0148 -1.6348  0.8285
 1736TIP3    H2 5173   4.451   4.264   3.132  0.1114  2.4764 -0.6566
 1737TIP3   OH2 5174   1.457   2.287   5.043 -0.1751  0.4199 -0.0255
 1737TIP3    H1 5175   1.524   2.343   5.002 -0.0259  0.4367  0.2346
 1737TIP3    H2 5176   1.379   2.343   5.048 -0.7184 -0.1216 -1.8319
 1738TIP3   OH2 5177   1.186   0.639   1.641  0.1943 -0.2170 -0.3327
 1738TIP3    H1 5178   1.096   0.652   1.612  0.3511  1.6125 -0.1675
 1738TIP3    H2 5179   1.221   0.728   1.647  2.2337 -0.9136 -1.0922
 1739TIP3   OH2 5180   4.801   1.282   5.042 -0.5169 -0.1158 -0.1932
 1739TIP3    H1 5181   4.768   1.320   5.124  1.7549  0.3805  0.5495
 1739TIP3    H2 5182   4.874   1.227   5.069 -0.4049 -0.8023 -1.8088
 1740TIP3   OH2 5183   0.670   5.466   2.826  0.3833  0.0776  0.1153
 1740TIP3    H1 5184   0.651   5.456   2.919  0.3753  1.2377  0.2582
 1740TIP3    H2 5185   0.600   5.418   2.781 -1.6079  2.2613  0.6760
 1741TIP3   OH2 5186   1.841   5.798   4.531 -0.1892 -0.2121  0.3168
 1741TIP3    H1 5187   1.867   5.706   4.543 -0.2980 -0.2753  0.0793
 1741TIP3    H2 5188   1.820   5.804   4.438  1.3264  0.4371 -0.0099
 1742TIP3   OH2 5189   2.352   4.102   1.956 -0.2926  0.2983 -0.3110
 1742TIP3    H1 5190   2.289   4.161   1.997 -0.8802 -0.7060  0.2869
 1742TIP3    H2 5191   2.348   4.122   1.863 -1.6743  0.0908 -0.3097
 1743TIP3   OH2 5192   1.879   4.055   3.644 -0.5284  0.0380  0.1575
 1743TIP3    H1 5193   1.839   4.005   3.572 -1.2486  0.3788  0.3158
 1743TIP3    H2 5194   1.972   4.059   3.621 -0.7545  0.1730 -0.7717
 1744TIP3   OH2 5195   5.501   3.220   5.212  0.1054  0.2636 -0.0125
 1744TIP3    H1 5196   5.457   3.303   5.229 -1.5616 -0.3393 -1.0839
 1744TIP3    H2 5197   5.454   3.183   5.137  0.1372 -2.0949  1.0436
 1745TIP3   OH2 5198   2.967   3.262   5.435  0.1443 -0.1699  0.0559
 1745TIP3    H1 5199   2.919   3.344   5.442  0.9784  0.4251 -1.0447
 1745TIP3    H2 5200   2.998   3.258   5.345  2.2729 -0.4527  0.7342
 1746TIP3   OH2 5201   2.583   0.036   0.100  0.4299 -0.0306  0.8075
 1746TIP3    H1 5202   2.570   0.075   0.186  1.2902 -0.3803  1.0985
 1746TIP3    H2 5203   2.656  -0.024   0.111  2.1821  1.6885 -0.7135
 1747TIP3   OH2 5204   2.824   0.621   5.550  0.1043 -0.0115 -0.1516
 1747TIP3    H1 5205   2.908   0.661   5.526 -0.3913  0.5860 -0.9688
 1747TIP3    H2 5206   2.770   0.632   5.472 -0.6171 -0.7371  0.2304
 1748TIP3   OH2 5207   4.554   1.970   0.185 -0.3380 -0.2447  0.5465
 1748TIP3    H1 5208   4.530   2.045   0.240  1.3881  0.9834 -0.2916
 1748TIP3    H2 5209   4.585   1.904   0.247 -0.7531  0.1776  1.2183
 1749TIP3   OH2 5210   4.855   5.507   4.062  0.3459 -0.0352 -0.6960
 1749TIP3    H1 5211   4.859   5.500   4.157 -1.8533 -0.7551 -0.5838
 1749TIP3    H2 5212   4.856   5.416   4.032  0.2688  0.1618 -1.3046
 1750TIP3   OH2 5213   3.883   3.882   5.168  0.0040  0.5795 -0.0792
 1750TIP3    H1 5214   3.847   3.825   5.101 -0.5454  0.8652 -0.0312
 1750TIP3    H2 5215   3.816   3.949   5.182  0.9556  1.7085 -0.7154
 1751TIP3   OH2 5216   3.622   3.266   5.343 -0.1073  0.0652 -0.0969
 1751TIP3    H1 5217   3.648   3.281   5.253  1.7271  2.6418  0.7507
 1751TIP3    H2 5218   3.542   3.317   5.354 -1.6517 -2.0569 -0.7650
 1752TIP3   OH2 5219   0.383   4.114   4.983 -0.1104 -0.1217  0.4492
 1752TIP3    H1 5220   0.375   4.161   4.900  0.4310 -0.8955 -0.0614
 1752TIP3    H2 5221   0.477   4.113   5.001 -0.2907  0.7909  1.5336
 1753TIP3   OH2 5222   5.464   6.179   1.009 -0.5647 -0.6223  0.1216
 1753TIP3    H1 5223   5.447   6.194   1.102  0.0626  0.8766  0.0175
 1753TIP3    H2 5224   5.386   6.214   0.965 -1.0876 -1.7834  0.0835
 1754TIP3   OH2 5225   4.752   2.929   3.278 -0.0986 -0.0237  0.2486
 1754TIP3    H1 5226   4.709   2.861   3.331  1.3637  0.3254  1.9791
 1754TIP3    H2 5227   4.790   2.881   3.205 -1.3567 -0.6691 -0.0124
 1755TIP3   OH2 5228   4.631   6.678   5.292 -0.1890  0.1828 -0.1198
 1755TIP3    H1 5229   4.571   6.606   5.272  1.8222 -1.2213 -1.5441
 1755TIP3    H2 5230   4.629   6.685   5.387 -0.7005 -1.5303  0.0242
 1756TIP3   OH2 5231   4.064   3.970   1.091 -0.4629 -0.4510 -0.4148
 1756TIP3    H1 5232   3.991   3.990   1.151 -0.2057  0.2099 -0.3152
 1756TIP3    H2 5233   4.057   3.875   1.076 -1.7261 -0.3051 -0.9124
 1757TIP3   OH2 5234   6.259   1.337   1.381 -0.1577  0.5656  0.0774
 1757TIP3    H1 5235   6.286   1.340   1.289  0.3253 -1.4311  0.1044
 1757TIP3    H2 5236   6.283   1.422   1.416 -1.3869  1.8161 -1.9094
 1758TIP3   OH2 5237   3.631   1.684   4.224 -0.6103 -0.5197  0.1747
 1758TIP3    H1 5238   3.578   1.645   4.155 -0.3693 -0.6829  0.0792
 1758TIP3    H2 5239   3.620   1.625   4.299  0.0095 -0.9573 -0.0683
 1759TIP3   OH2 5240   0.654   3.159   3.200 -0.2577  0.3242 -0.1115
 1759TIP3    H1 5241   0.606   3.133   3.121 -2.4258 -0.8585  1.5046
 1759TIP3    H2 5242   0.587   3.171   3.267  1.5602  0.4941  1.7959
 1760TIP3   OH2 5243   0.777   3.992   4.444  0.2278 -0.2327  0.1003
 1760TIP3    H1 5244   0.860   4.005   4.398 -0.4012 -1.0458 -1.3058
 1760TIP3    H2 5245   0.724   3.939   4.385 -1.0580 -0.3116  1.2681
 1761TIP3   OH2 5246   1.391   3.095   5.342 -0.0982 -0.0897 -0.0963
 1761TIP3    H1 5247   1.337   3.101   5.420  2.6665  0.2999  1.9555
 1761TIP3    H2 5248   1.366   3.170   5.289  0.1211  1.5179  1.9631
 1762TIP3   OH2 5249   2.136   5.283   1.565  0.3373 -0.3037 -0.4109
 1762TIP3    H1 5250   2.087   5.359   1.535  1.3859  0.6941  0.3148
 1762TIP3    H2 5251   2.109   5.270   1.656  0.6094 -0.4356 -0.3476
 1763TIP3   OH2 5252   4.165   6.280   0.522  0.1974  0.3549 -0.0793
 1763TIP3    H1 5253   4.109   6.328   0.461 -0.3407  0.9423  0.8467
 1763TIP3    H2 5254   4.229   6.345   0.552 -1.0443  0.8006  1.8222
 1764TIP3   OH2 5255   6.613   3.022   0.233 -0.4722 -0.0138  0.1271
 1764TIP3    H1 5256   6.582   2.950   0.288 -2.1135  0.3833 -0.2233
 1764TIP3    H2 5257   6.682   2.983   0.179  0.4170 -0.6797  1.6757
 1765TIP3   OH2 5258   0.242   5.339   2.770  0.1992 -0.1748  0.8975
 1765TIP3    H1 5259   0.228   5.431   2.747 -0.7921  0.1024  2.4232
 1765TIP3    H2 5260   0.170   5.293   2.727  1.8581 -0.6113 -1.6190
 1766TIP3   OH2 5261   7.205   5.862   1.752  0.5928  0.2185  0.4337
 1766TIP3    H1 5262   7.177   5.880   1.842  1.5808  1.0091  0.6005
 1766TIP3    H2 5263   7.218   5.767   1.749  3.1456  0.4343  1.9334
 1767TIP3   OH2 5264   6.974   1.049   3.142  0.2014  0.1093  0.1282
 1767TIP3    H1 5265   7.040   1.109   3.175 -1.2773  0.5332  2.5799
 1767TIP3    H2 5266   6.917   1.103   3.088  0.1485  0.4438  0.5101
 1768TIP3   OH2 5267   6.463   5.824   1.609 -0.0519 -0.0214 -0.1676
 1768TIP3    H1 5268   6.535   5.767   1.637 -0.2933  0.3001  1.1639
 1768TIP3    H2 5269   6.395   5.764   1.578 -1.4437 -0.7699  3.7741
 1769TIP3   OH2 5270   1.319   0.236   3.062 -0.1323 -0.3421 -0.5321
 1769TIP3    H1 5271   1.362   0.197   3.139  0.0393  0.1624 -0.3715
 1769TIP3    H2 5272   1.262   0.304   3.098 -0.5515 -0.5451 -0.8019
 1770TIP3   OH2 5273   4.276   0.922   3.442 -0.1512 -0.0989  0.8678
 1770TIP3    H1 5274   4.248   0.851   3.385  1.3923 -1.7191  2.0443
 1770TIP3    H2 5275   4.202   0.936   3.501 -0.3791 -0.9020  0.7806
 1771TIP3   OH2 5276   7.003   3.638   5.429  0.0281  0.1123  0.2546
 1771TIP3    H1 5277   7.034   3.674   5.512 -1.5792  0.5186  0.7028
 1771TIP3    H2 5278   6.925   3.588   5.452  0.0845 -0.5461 -0.8950
 1772TIP3   OH2 5279   0.376   4.506   0.628  0.5056 -0.2050 -0.0155
 1772TIP3    H1 5280   0.378   4.558   0.548 -0.6843  1.4124  0.9339
 1772TIP3    H2 5281   0.288   4.468   0.630  0.9141 -1.1585 -0.0290
 1773TIP3   OH2 5282   5.790   6.678   2.329 -0.4119 -0.0521  0.2254
 1773TIP3    H1 5283   5.722   6.628   2.284 -0.8187  1.3507 -0.7833
 1773TIP3    H2 5284   5.764   6.675   2.421 -1.2757 -0.3991 -0.0119
 1774TIP3   OH2 5285   4.520   3.879   5.045  0.4953 -0.2937 -0.3676
 1774TIP3    H1 5286   4.540   3.787   5.032 -3.0191 -1.1726 -0.7044
 1774TIP3    H2 5287   4.502   3.888   5.138 -1.4115 -0.5832 -0.6595
 1775TIP3   OH2 5288   1.184   2.580   3.886 -0.2225  0.3784  0.6889
 1775TIP3    H1 5289   1.144   2.537   3.961 -0.4993  0.4988  0.6110
 1775TIP3    H2 5290   1.134   2.661   3.876 -1.3133 -0.4146 -0.6662
 1776TIP3   OH2 5291   3.215   5.204   1.148 -0.0209  0.0006 -0.0989
 1776TIP3    H1 5292   3.207   5.284   1.199 -0.8412 -1.6287  2.5893
 1776TIP3    H2 5293   3.304   5.173   1.167  0.4471  0.4619 -1.4721
 1777TIP3   OH2 5294   3.188   2.376   1.643 -0.3964  0.1310 -0.1452
 1777TIP3    H1 5295   3.177   2.282   1.659 -1.8340  0.3465  0.2653
 1777TIP3    H2 5296   3.202   2.413   1.730  2.6141  0.0551 -0.5022
 1778TIP3   OH2 5297   1.705   3.276   4.878  0.7324 -0.1555 -0.0341
 1778TIP3    H1 5298   1.635   3.248   4.937  0.0107 -0.0149 -0.7916
 1778TIP3    H2 5299   1.701   3.214   4.805 -1.2699  2.0965 -2.0256
 1779TIP3   OH2 5300   0.760   1.159   0.643 -0.1476 -0.8030 -0.3579
 1779TIP3    H1 5301   0.779   1.246   0.678 -2.0009  0.9130 -3.2470
 1779TIP3    H2 5302   0.838   1.136   0.592  0.5676 -1.1336  0.8487
 1780TIP3   OH2 5303   0.078   3.028   1.928  0.0065 -0.1446 -0.0803
 1780TIP3    H1 5304   0.134   2.953   1.947  1.2602  0.8929  0.4532
 1780TIP3    H2 5305   0.031   3.043   2.010 -0.2947 -0.3698 -0.2077
 1781TIP3   OH2 5306   1.054   3.458   0.622  0.2668  0.4508  0.2694
 1781TIP3    H1 5307   0.984   3.503   0.669  1.2482  1.9209  0.3635
 1781TIP3    H2 5308   1.023   3.367   0.617 -1.1042  0.8090  1.3351
 1782TIP3   OH2 5309   5.442   1.848   4.100 -0.3624 -0.3521  0.1177
 1782TIP3    H1 5310   5.396   1.772   4.064 -1.5638 -0.4365  1.7516
 1782TIP3    H2 5311   5.530   1.815   4.120 -0.3741 -0.8780 -0.6425
 1783TIP3   OH2 5312   3.874   3.790   0.720 -0.1700  0.5945 -0.6214
 1783TIP3    H1 5313   3.899   3.872   0.677  1.3694  0.9111  0.7719
 1783TIP3    H2 5314   3.956   3.739   0.723 -0.6063 -0.0759  0.4688
 1784TIP3   OH2 5315   7.025   5.916   3.325 -0.3848  0.4320 -0.0967
 1784TIP3    H1 5316   6.959   5.848   3.339 -1.1670  1.6696  2.9367
 1784TIP3    H2 5317   7.079   5.913   3.403  1.2352  1.5545 -1.1206
 1785TIP3   OH2 5318   2.599   5.069   4.142  0.2222  0.1909  0.1668
 1785TIP3    H1 5319   2.666   5.103   4.201  0.8999 -1.2570  0.2594
 1785TIP3    H2 5320   2.634   5.084   4.054 -0.8041  2.3832  0.0618
 1786TIP3   OH2 5321   3.402   0.155   0.318 -0.1262  0.6373  0.2614
 1786TIP3    H1 5322   3.463   0.154   0.392  0.0864  1.1606  0.0966
 1786TIP3    H2 5323   3.439   0.219   0.257 -1.0128  1.2026  0.3051
 1787TIP3   OH2 5324   5.120   3.345   5.529  0.1283 -0.4026 -0.3606
 1787TIP3    H1 5325   5.157   3.410   5.589  1.0760 -1.3011  0.0649
 1787TIP3    H2 5326   5.049   3.305   5.579  0.5685 -0.7776 -0.0282
 1788TIP3   OH2 5327   1.356   0.546   4.943 -0.0634 -0.0923 -0.9398
 1788TIP3    H1 5328   1.278   0.513   4.898  0.5951 -1.4504 -1.1601
 1788TIP3    H2 5329   1.416   0.471   4.943  0.6467  0.4525  0.6055
 1789TIP3   OH2 5330   1.809   5.195   1.465  0.4492 -0.3757  0.3392
 1789TIP3    H1 5331   1.766   5.129   1.520  1.3618 -1.5435 -0.3025
 1789TIP3    H2 5332   1.750   5.270   1.468 -0.8977 -1.3935  0.6699
 1790TIP3   OH2 5333   3.800   3.117   3.788 -0.7225 -0.0060 -0.4715
 1790TIP3    H1 5334   3.860   3.190   3.806  1.4856 -1.8997  0.2780
 1790TIP3    H2 5335   3.823   3.088   3.700 -1.5776  0.1524 -0.7567
 1791TIP3   OH2 5336   4.678   3.030   2.162 -0.6259  0.8805 -0.1500
 1791TIP3    H1 5337   4.608   2.977   2.200  0.1550 -0.3933 -0.4282
 1791TIP3    H2 5338   4.751   3.019   2.223  0.4885 -0.7884 -1.6678
 1792TIP3   OH2 5339   0.372   3.438   4.587  0.0211 -0.2543  0.5699
 1792TIP3    H1 5340   0.399   3.422   4.497  0.4410 -1.3745  0.8680
 1792TIP3    H2 5341   0.279   3.415   4.588  0.2798 -1.3816  0.6567
 1793TIP3   OH2 5342   3.985   2.619   2.796  0.6357  0.0919 -0.2524
 1793TIP3    H1 5343   3.927   2.558   2.843  0.0264  1.0648  0.3031
 1793TIP3    H2 5344   4.070   2.574   2.794  0.1455 -0.8844 -0.0939
 1794TIP3   OH2 5345   3.282   2.603   2.180 -0.1186  0.4049 -0.0584
 1794TIP3    H1 5346   3.228   2.664   2.130  0.6986  1.2736  0.0848
 1794TIP3    H2 5347   3.229   2.524   2.187  0.0124 -0.0495 -2.9696
 1795TIP3   OH2 5348  -0.011   2.927   4.412  0.0511  0.2717  0.0980
 1795TIP3    H1 5349   0.081   2.921   4.437 -0.4341 -0.5532  1.8408
 1795TIP3    H2 5350  -0.046   2.840   4.430 -1.5430  1.1545  1.5303
 1796TIP3   OH2 5351   4.275   6.602   1.130 -0.3186  0.1864 -0.1040
 1796TIP3    H1 5352   4.308   6.549   1.202 -0.9283  0.4406  0.3664
 1796TIP3    H2 5353   4.261   6.689   1.168  1.6270  1.0018 -1.0879
 1797TIP3   OH2 5354   0.847   5.833   1.637  0.4994  0.7072  0.0085
 1797TIP3    H1 5355   0.853   5.856   1.730  1.6330 -0.7064  0.3195
 1797TIP3    H2 5356   0.819   5.914   1.594  0.6954  1.5900  1.4864
 1798TIP3   OH2 5357   4.217   3.183   4.346  0.8349 -0.3218  0.2965
 1798TIP3    H1 5358   4.169   3.125   4.286  1.3612 -0.3684 -0.0842
 1798TIP3    H2 5359   4.180   3.163   4.432  1.1426 -1.3794  0.2023
 1799TIP3   OH2 5360   3.102   3.904   2.085 -0.1549  0.0900 -0.4495
 1799TIP3    H1 5361   3.167   3.973   2.073  0.2884 -0.5562 -2.0944
 1799TIP3    H2 5362   3.026   3.934   2.035 -2.0493  1.8049  3.0363
 1800TIP3   OH2 5363   0.251   6.542   2.692 -0.1236  0.1972 -0.1083
 1800TIP3    H1 5364   0.271   6.456   2.654 -0.1271  0.7061 -1.3301
 1800TIP3    H2 5365   0.289   6.539   2.780  1.0352 -0.5892 -0.6041
 1801TIP3   OH2 5366   3.633   3.295   3.133  0.2539  0.2847  0.1781
 1801TIP3    H1 5367   3.706   3.345   3.097 -0.0111  0.1286 -0.5997
 1801TIP3    H2 5368   3.648   3.205   3.102  0.2983  0.0401  0.8920
 1802TIP3   OH2 5369   0.745   2.699   2.717  0.3487  0.1028  0.4046
 1802TIP3    H1 5370   0.814   2.717   2.781 -0.1590  0.4120  0.8758
 1802TIP3    H2 5371   0.700   2.782   2.706  1.1361  0.3442 -1.2410
 1803TIP3   OH2 5372   5.947   2.942   0.891 -0.5935  0.5354 -0.0201
 1803TIP3    H1 5373   5.965   3.036   0.889 -0.2822  0.4732 -0.6692
 1803TIP3    H2 5374   5.857   2.935   0.921 -0.6268  1.0429  0.0069
 1804TIP3   OH2 5375   4.105   1.272   1.333  0.2473 -0.5123 -0.4567
 1804TIP3    H1 5376   4.194   1.297   1.358  0.1025 -0.4658  0.0245
 1804TIP3    H2 5377   4.116   1.214   1.257  0.5988  0.9815 -1.5993
 1805TIP3   OH2 5378   5.370   0.224   3.631  0.7847 -0.0325  0.5396
 1805TIP3    H1 5379   5.303   0.157   3.645 -0.0908  0.9632  1.2575
 1805TIP3    H2 5380   5.366   0.280   3.709 -1.4011  3.2984 -1.6833
 1806TIP3   OH2 5381   6.371   1.475   1.664 -0.3476  0.0384 -0.0747
 1806TIP3    H1 5382   6.352   1.492   1.756 -0.9209  1.1777 -0.3821
 1806TIP3    H2 5383   6.458   1.437   1.664  0.4246  1.7031  0.8251
 1807TIP3   OH2 5384   3.344   5.232   4.679  0.3250  0.7911 -0.2147
 1807TIP3    H1 5385   3.438   5.221   4.663 -0.0171  1.1186 -3.0966
 1807TIP3    H2 5386   3.305   5.153   4.641 -0.5396  0.1008  2.0044
 1808TIP3   OH2 5387   5.467   2.307   2.872 -0.1214 -0.1420  0.4855
 1808TIP3    H1 5388   5.465   2.223   2.827  0.9338  0.6355 -1.1246
 1808TIP3    H2 5389   5.439   2.288   2.961  0.0076 -2.1745  0.1264
 1809TIP3   OH2 5390   0.958   5.181   3.075  0.0250 -0.0214  0.4272
 1809TIP3    H1 5391   0.966   5.276   3.080 -0.1460  0.0252 -0.1962
 1809TIP3    H2 5392   0.910   5.157   3.155 -0.5218  0.4760  0.2528
 1810TIP3   OH2 5393   2.466   5.985   2.562  0.0434  0.5652 -0.0361
 1810TIP3    H1 5394   2.452   6.055   2.499 -2.4898  0.1825 -0.0077
 1810TIP3    H2 5395   2.560   5.983   2.575  0.3682  2.6021 -1.5627
 1811TIP3   OH2 5396   3.907   4.658   1.665  0.1804 -0.0344 -0.1506
 1811TIP3    H1 5397   3.835   4.624   1.612  0.6668 -0.6401 -0.4328
 1811TIP3    H2 5398   3.940   4.581   1.712  0.2537  0.3527  0.4465
 1812TIP3   OH2 5399   4.361   3.912   0.785  0.4537  0.5138  0.2274
 1812TIP3    H1 5400   4.448   3.914   0.746  0.8274  0.6883  1.0528
 1812TIP3    H2 5401   4.334   3.821   0.777  1.3089  0.1577  1.2374
 1813TIP3   OH2 5402   4.735   4.946   0.364 -0.3280 -0.3118 -0.2778
 1813TIP3    H1 5403   4.714   4.855   0.344 -0.9141 -0.0405 -0.9756
 1813TIP3    H2 5404   4.784   4.977   0.287  1.2657 -0.4686  0.6325
 1814TIP3   OH2 5405   1.945   4.309   1.117  0.0791 -0.1223  0.0385
 1814TIP3    H1 5406   1.994   4.351   1.046 -3.0033  2.2529 -0.9032
 1814TIP3    H2 5407   1.981   4.348   1.197 -0.3271  1.7082 -0.6347
 1815TIP3   OH2 5408   3.408   0.178   2.724  0.3649  0.8574 -0.1094
 1815TIP3    H1 5409   3.333   0.123   2.749  1.2181 -0.2640  0.0925
 1815TIP3    H2 5410   3.477   0.153   2.786  1.4248  0.6250 -1.3538
 1816TIP3   OH2 5411   0.119   2.566   5.472 -0.3124  0.0893 -0.1286
 1816TIP3    H1 5412   0.028   2.590   5.456 -0.2529 -0.7712 -2.0016
 1816TIP3    H2 5413   0.162   2.578   5.387  1.6738  1.8980  1.0293
 1817TIP3   OH2 5414   2.469   0.942   0.098 -0.6153  0.8765 -0.0802
 1817TIP3    H1 5415   2.523   0.954   0.021 -0.7218  0.1377 -0.2806
 1817TIP3    H2 5416   2.386   0.907   0.064 -0.4755  0.0371  0.3991
 1818TIP3   OH2 5417   6.644   4.014   1.962  0.6546 -0.1639  0.9127
 1818TIP3    H1 5418   6.650   4.103   1.927  0.4291 -0.1949  0.7979
 1818TIP3    H2 5419   6.662   4.024   2.056 -0.2554  0.1255  1.0627
 1819TIP3   OH2 5420   4.946   4.041   2.703 -0.4889  0.3163 -0.1110
 1819TIP3    H1 5421   4.967   4.095   2.780  1.6779 -0.8568  0.2165
 1819TIP3    H2 5422   4.937   3.953   2.739 -1.1749  0.0078 -1.0162
 1820TIP3   OH2 5423   4.741   4.866   2.156  0.0748  0.2401 -0.0845
 1820TIP3    H1 5424   4.733   4.912   2.072  2.6081 -0.6430 -0.9233
 1820TIP3    H2 5425   4.716   4.930   2.222 -0.1760  1.5543 -1.4084
 1821TIP3   OH2 5426   7.172   1.178   5.510 -0.0705  0.4857 -0.0565
 1821TIP3    H1 5427   7.125   1.155   5.591 -1.2206  1.7996 -0.2973
 1821TIP3    H2 5428   7.105   1.171   5.442  0.4336  1.1242 -0.6233
 1822TIP3   OH2 5429   6.120   6.358   2.871  0.3016 -0.4055 -0.3387
 1822TIP3    H1 5430   6.209   6.390   2.886  1.1227 -1.2824 -2.9269
 1822TIP3    H2 5431   6.126   6.264   2.889 -0.1538 -0.4400 -0.3675
 1823TIP3   OH2 5432   1.918   1.927   0.916 -0.5025 -0.3587 -0.4837
 1823TIP3    H1 5433   1.994   1.941   0.972  0.5738  1.3530 -2.2351
 1823TIP3    H2 5434   1.868   2.008   0.922 -2.3297 -1.5011  0.7326
 1824TIP3   OH2 5435   6.049   5.005   1.837 -0.7506 -0.0214  0.2957
 1824TIP3    H1 5436   6.109   5.018   1.763 -0.8603  1.3832  0.4332
 1824TIP3    H2 5437   6.093   5.045   1.912 -1.6344  0.6003  0.5016
 1825TIP3   OH2 5438   1.572   0.851   1.769 -0.2364 -0.2700  0.4294
 1825TIP3    H1 5439   1.634   0.924   1.755 -1.2960  0.8354  1.3323
 1825TIP3    H2 5440   1.628   0.778   1.795  0.9683 -0.1071 -1.4263
 1826TIP3   OH2 5441   2.057   0.439   4.754 -0.1388  0.0525 -0.1314
 1826TIP3    H1 5442   2.086   0.374   4.691 -0.9834  0.0350 -0.5164
 1826TIP3    H2 5443   2.096   0.522   4.724 -0.4154  0.0178 -0.5944
 1827TIP3   OH2 5444   2.473   1.407   2.388 -0.4071 -0.3080  0.4303
 1827TIP3    H1 5445   2.530   1.398   2.464 -0.1832  0.9212  0.4167
 1827TIP3    H2 5446   2.388   1.375   2.419  0.1749 -1.7994  0.5590
 1828TIP3   OH2 5447   2.962   4.288   3.251 -0.6621 -0.1164 -0.8741
 1828TIP3    H1 5448   2.979   4.378   3.224  0.5837 -0.5823 -1.7446
 1828TIP3    H2 5449   3.041   4.240   3.225 -2.5367 -2.0779 -3.3464
 1829TIP3   OH2 5450   4.398   3.487   5.124  0.0904 -0.2391  0.0634
 1829TIP3    H1 5451   4.303   3.493   5.118 -0.1089 -2.4899 -0.0285
 1829TIP3    H2 5452   4.416   3.475   5.218  0.1421 -1.1193 -0.0466
 1830TIP3   OH2 5453   5.646   0.153   5.593 -0.5565  0.3196  0.1427
 1830TIP3    H1 5454   5.728   0.175   5.637 -0.3755  2.0086 -0.9570
 1830TIP3    H2 5455   5.673   0.108   5.513 -0.7563 -0.0652  0.2892
 1831TIP3   OH2 5456   4.191   1.431   5.639  0.5082  0.4460  0.2244
 1831TIP3    H1 5457   4.173   1.337   5.631  0.6847  0.3997  0.3743
 1831TIP3    H2 5458   4.132   1.461   5.707  0.1512  0.5272 -0.1161
 1832TIP3   OH2 5459   0.717   2.378   4.606 -0.6075  0.6870  0.0766
 1832TIP3    H1 5460   0.699   2.412   4.518 -1.5529 -0.0540 -0.0275
 1832TIP3    H2 5461   0.652   2.309   4.619  0.4445 -0.1866  0.7974
 1833TIP3   OH2 5462   1.893   3.732   1.324 -0.3922 -0.2646  0.0280
 1833TIP3    H1 5463   1.962   3.796   1.307 -0.8016 -0.3795 -2.3647
 1833TIP3    H2 5464   1.885   3.682   1.242 -1.2572 -2.2584  1.2408
 1834TIP3   OH2 5465   4.202   6.254   3.382  0.0776  0.4344  0.4177
 1834TIP3    H1 5466   4.259   6.325   3.352 -0.4524  1.0548  0.8378
 1834TIP3    H2 5467   4.261   6.190   3.419  0.9880 -1.2127 -3.3988
 1835TIP3   OH2 5468   1.528   0.940   4.994 -0.6221 -0.4893 -0.0797
 1835TIP3    H1 5469   1.485   0.953   5.078 -3.5629 -1.0053 -1.4016
 1835TIP3    H2 5470   1.474   0.988   4.931  1.8446  0.4398 -1.6757
 1836TIP3   OH2 5471   2.108   5.651   5.723 -0.4919 -0.1572  0.0386
 1836TIP3    H1 5472   2.038   5.698   5.679 -0.4044 -0.6217 -0.6174
 1836TIP3    H2 5473   2.182   5.656   5.663  0.0813  0.4327  0.7780
 1837TIP3   OH2 5474   5.967   4.955   4.784 -0.2232  0.0626  0.2992
 1837TIP3    H1 5475   6.051   5.000   4.794 -0.6799  0.9898  0.0410
 1837TIP3    H2 5476   5.917   4.979   4.862 -0.2633 -0.4562  0.4344
 1838TIP3   OH2 5477   2.061   4.644   5.195 -0.9094 -0.5488  0.3026
 1838TIP3    H1 5478   2.104   4.607   5.118 -0.1289 -1.3870  1.1095
 1838TIP3    H2 5479   2.133   4.685   5.244 -1.6873  1.7082 -0.3533
 1839TIP3   OH2 5480   6.546   1.692   3.412 -0.0641  0.1603 -0.3099
 1839TIP3    H1 5481   6.455   1.721   3.408  0.7473  2.7848 -3.1321
 1839TIP3    H2 5482   6.547   1.610   3.362 -0.7681  0.6003 -1.0804
 1840TIP3   OH2 5483   6.584   6.250   4.678  0.1705 -0.2755  0.0902
 1840TIP3    H1 5484   6.592   6.282   4.588  2.0778 -0.6330  0.1071
 1840TIP3    H2 5485   6.530   6.317   4.722 -0.7740 -0.0894 -1.2773
 1841TIP3   OH2 5486   3.581   4.746   1.309 -0.2705 -0.2871  0.4806
 1841TIP3    H1 5487   3.591   4.827   1.358 -0.9685  0.0556  0.0726
 1841TIP3    H2 5488   3.486   4.734   1.300 -0.2215  0.7038 -2.4200
 1842TIP3   OH2 5489   2.040   3.202   1.798 -0.2954  0.2397 -0.5068
 1842TIP3    H1 5490   2.105   3.165   1.739 -1.9902 -1.3106 -1.4936
 1842TIP3    H2 5491   1.958   3.198   1.749 -1.4622  0.4903  1.3290
 1843TIP3   OH2 5492   6.627   1.827   4.049 -0.3238  0.7808  0.3403
 1843TIP3    H1 5493   6.633   1.884   4.125  1.7542 -0.1059  0.9024
 1843TIP3    H2 5494   6.553   1.769   4.070 -0.7226  1.4921  0.9855
 1844TIP3   OH2 5495   1.417   3.751   0.226 -0.1811 -0.2658  0.5968
 1844TIP3    H1 5496   1.496   3.770   0.275 -0.9407 -1.3275  2.3486
 1844TIP3    H2 5497   1.358   3.824   0.246  1.2145  2.1778 -3.1021
 1845TIP3   OH2 5498   0.731   0.039   0.553 -0.4670  0.1486  0.4341
 1845TIP3    H1 5499   0.800   0.100   0.579 -1.0083  0.3862  1.3588
 1845TIP3    H2 5500   0.716   0.059   0.461  1.1022 -0.3210  0.0383
 1846TIP3   OH2 5501   4.223   0.163   0.548  0.2083 -0.2194  0.0825
 1846TIP3    H1 5502   4.286   0.229   0.521 -0.5891  0.9491  0.9878
 1846TIP3    H2 5503   4.267   0.116   0.619 -0.0829  0.9242  1.0591
 1847TIP3   OH2 5504   6.299   4.543   0.260 -0.2386 -0.1980 -0.3812
 1847TIP3    H1 5505   6.363   4.475   0.239  0.0220  0.7814 -3.0873
 1847TIP3    H2 5506   6.351   4.622   0.274 -0.7165  0.0722 -0.0982
 1848TIP3   OH2 5507   1.001   1.228   3.940  0.0309  0.0113  0.4659
 1848TIP3    H1 5508   0.979   1.249   3.849  1.7274 -0.1963 -0.0294
 1848TIP3    H2 5509   0.991   1.312   3.986  0.1064  0.3397 -0.1025
 1849TIP3   OH2 5510   2.666   6.178   2.195 -0.0833 -0.1898 -0.1287
 1849TIP3    H1 5511   2.686   6.271   2.205 -1.1678 -0.0711  1.2731
 1849TIP3    H2 5512   2.581   6.176   2.152 -0.4888 -0.4826  0.6538
 1850TIP3   OH2 5513   5.462   4.664   0.924 -0.4262 -0.8689  0.1085
 1850TIP3    H1 5514   5.494   4.689   0.837  1.2637 -0.7889  0.7194
 1850TIP3    H2 5515   5.386   4.607   0.906 -0.4500 -0.4112 -1.3928
 1851TIP3   OH2 5516   5.353   3.870   5.800  0.6607 -0.2977  0.0753
 1851TIP3    H1 5517   5.342   3.781   5.833  1.0098 -0.5285 -0.4190
 1851TIP3    H2 5518   5.277   3.918   5.835  0.5844 -0.7312  0.5191
 1852TIP3   OH2 5519   0.654   0.100   0.069  0.2645  0.0698 -0.3447
 1852TIP3    H1 5520   0.681   0.132  -0.017  1.9166  1.9854  0.7823
 1852TIP3    H2 5521   0.646   0.179   0.122 -0.4625 -1.0806  1.3271
 1853TIP3   OH2 5522   3.465   1.115   3.490  0.5940  0.3365  0.0368
 1853TIP3    H1 5523   3.498   1.172   3.420  1.7869 -0.6416 -0.2478
 1853TIP3    H2 5524   3.431   1.038   3.443 -0.1224  0.3930  0.4558
 1854TIP3   OH2 5525   4.243   0.090   2.312 -0.0576  0.2489 -0.0848
 1854TIP3    H1 5526   4.175   0.037   2.271 -1.6775  1.6357  0.7066
 1854TIP3    H2 5527   4.298   0.119   2.239 -1.4263  0.6381 -0.9929
 1855TIP3   OH2 5528   4.995   1.088   5.102 -0.0549 -0.3210 -0.1827
 1855TIP3    H1 5529   4.982   0.999   5.134  0.8745 -0.4910 -0.2489
 1855TIP3    H2 5530   5.090   1.100   5.102  0.0125 -0.2640 -2.6498
 1856TIP3   OH2 5531   5.566   0.773   3.370  0.3729  0.4036 -0.2751
 1856TIP3    H1 5532   5.508   0.826   3.424  1.2924  1.6855 -0.4782
 1856TIP3    H2 5533   5.517   0.756   3.290 -0.0412  0.7612 -0.1000
 1857TIP3   OH2 5534   0.842   1.491   2.312 -0.6085  0.4580 -0.5262
 1857TIP3    H1 5535   0.883   1.531   2.235  0.0270 -0.7636 -0.8493
 1857TIP3    H2 5536   0.754   1.528   2.313 -0.1342  1.6882 -0.9224
 1858TIP3   OH2 5537   1.184   3.387   3.246  0.2414 -0.2801  0.4714
 1858TIP3    H1 5538   1.207   3.301   3.212  1.0736 -0.1090  0.5895
 1858TIP3    H2 5539   1.267   3.426   3.271 -0.1545  0.4629  0.6516
 1859TIP3   OH2 5540   1.333   3.279   2.418  0.0887  0.2168  0.8425
 1859TIP3    H1 5541   1.363   3.189   2.407  2.2437  0.7771  1.5239
 1859TIP3    H2 5542   1.309   3.308   2.330  2.5152 -0.0480  0.0298
 1860TIP3   OH2 5543   2.082   5.275   3.889  0.0570 -0.5522  0.0593
 1860TIP3    H1 5544   2.022   5.276   3.964 -0.1330  0.2681 -0.0927
 1860TIP3    H2 5545   2.118   5.364   3.886 -1.6714  0.1732 -2.1964
 1861TIP3   OH2 5546   3.579   6.082   0.456 -0.1485  0.0349  0.2843
 1861TIP3    H1 5547   3.614   6.150   0.399 -0.6560  0.1201  0.0662
 1861TIP3    H2 5548   3.559   6.127   0.538 -0.3336  0.1199  0.1942
 1862TIP3   OH2 5549   0.798   1.760   1.022  0.2945  0.2175  0.5837
 1862TIP3    H1 5550   0.752   1.767   0.938  0.4393 -0.7723  0.4083
 1862TIP3    H2 5551   0.732   1.781   1.088 -0.9689 -2.8523  0.4585
 1863TIP3   OH2 5552   3.673   4.604   3.809 -0.2986 -0.1212  0.1497
 1863TIP3    H1 5553   3.653   4.510   3.818  0.7101 -0.3484  0.1612
 1863TIP3    H2 5554   3.711   4.612   3.721 -0.4040  0.2797  0.1404
 1864TIP3   OH2 5555   2.698   6.252   0.201  0.6505  0.2907  0.6158
 1864TIP3    H1 5556   2.653   6.239   0.284 -0.4762  2.0419  0.3169
 1864TIP3    H2 5557   2.670   6.178   0.147 -0.5000  0.4264  1.0097
 1865TIP3   OH2 5558   2.888   3.659   3.411 -0.0722 -0.1752  0.0080
 1865TIP3    H1 5559   2.851   3.693   3.493 -0.4358  0.9800 -0.6176
 1865TIP3    H2 5560   2.828   3.589   3.385 -0.8980  0.5509 -0.1057
 1866TIP3   OH2 5561   0.548   6.471   5.429  0.1321 -0.2130 -0.0211
 1866TIP3    H1 5562   0.597   6.390   5.413 -0.0696 -0.1338 -1.0686
 1866TIP3    H2 5563   0.560   6.523   5.350 -0.0236  0.6509  0.5050
 1867TIP3   OH2 5564   2.144   6.602   2.570 -0.3095  0.2126  0.0802
 1867TIP3    H1 5565   2.152   6.665   2.642 -1.9914  1.1931 -0.5379
 1867TIP3    H2 5566   2.161   6.655   2.491  1.4405 -0.8254 -0.3013
 1868TIP3   OH2 5567   0.607   2.179   3.206  0.2925 -0.4395  0.3174
 1868TIP3    H1 5568   0.620   2.138   3.120 -0.7487  2.7974 -1.5786
 1868TIP3    H2 5569   0.528   2.232   3.195  0.7275  0.9328  2.9693
 1869TIP3   OH2 5570   1.738   3.555   2.292 -0.4467 -0.2642  0.2719
 1869TIP3    H1 5571   1.810   3.511   2.247  0.5577  0.7673  0.8274
 1869TIP3    H2 5572   1.659   3.512   2.259  0.3078 -0.2473 -1.6715
 1870TIP3   OH2 5573   2.465   6.669   2.578  0.1304  0.0404 -0.5158
 1870TIP3    H1 5574   2.412   6.604   2.623 -0.6095 -0.6655 -2.3116
 1870TIP3    H2 5575   2.550   6.665   2.623  0.4752 -2.9595 -1.1670
 1871TIP3   OH2 5576   0.721   2.425   2.284 -0.0762  0.0173 -0.5523
 1871TIP3    H1 5577   0.805   2.471   2.285 -0.4649  0.7587  0.8899
 1871TIP3    H2 5578   0.669   2.468   2.353 -0.5926 -2.3226  0.6343
 1872TIP3   OH2 5579   1.843   3.270   0.363  0.3219 -0.3180 -0.5263
 1872TIP3    H1 5580   1.792   3.210   0.417 -0.0085 -1.5245 -2.1277
 1872TIP3    H2 5581   1.778   3.324   0.318  0.5780  0.3103 -0.1643
 1873TIP3   OH2 5582   5.598   2.903   4.276  0.2937 -0.2121 -0.0976
 1873TIP3    H1 5583   5.647   2.822   4.288  1.4608  0.4241 -0.4110
 1873TIP3    H2 5584   5.660   2.963   4.235 -0.4517  0.9415  0.3946
 1874TIP3   OH2 5585   0.545   1.900   5.824  0.6438 -0.3173  0.4408
 1874TIP3    H1 5586   0.622   1.912   5.880 -1.4518  1.3599  3.2184
 1874TIP3    H2 5587   0.506   1.818   5.854 -2.3074  2.1138  4.2153
 1875TIP3   OH2 5588   1.988   2.382   4.571 -0.8432  0.3084  0.8162
 1875TIP3    H1 5589   2.018   2.392   4.662 -0.7133 -0.4635  0.8697
 1875TIP3    H2 5590   1.979   2.287   4.560 -0.0186  0.3445 -0.2430
 1876TIP3   OH2 5591   6.379   0.353   2.598 -0.3537  0.2871  0.3636
 1876TIP3    H1 5592   6.464   0.336   2.638 -0.5460 -0.2886  0.5455
 1876TIP3    H2 5593   6.397   0.354   2.504  0.1022  1.6611  0.4431
 1877TIP3   OH2 5594   0.375   2.694   2.859 -0.3177  0.1739  0.3293
 1877TIP3    H1 5595   0.359   2.607   2.822  0.2889 -0.0965  0.7046
 1877TIP3    H2 5596   0.292   2.716   2.902 -0.4721 -0.2172  0.2440
 1878TIP3   OH2 5597   1.256   5.420   1.160  1.3914 -0.5163 -1.0212
 1878TIP3    H1 5598   1.172   5.377   1.149 -0.6257  2.0598  2.1823
 1878TIP3    H2 5599   1.307   5.361   1.215 -0.2380 -0.1737  0.9607
 1879TIP3   OH2 5600   6.813   3.675   2.181 -0.1084 -0.0701  0.0862
 1879TIP3    H1 5601   6.767   3.595   2.159  1.7148 -1.1125 -0.1396
 1879TIP3    H2 5602   6.803   3.731   2.104  1.5730 -1.5196 -1.2814
 1880TIP3   OH2 5603   4.008   4.461   5.820 -0.0780  0.4122  0.4806
 1880TIP3    H1 5604   3.919   4.495   5.835 -0.6113 -0.8605  0.3083
 1880TIP3    H2 5605   4.037   4.432   5.906  0.7187  2.0265  0.7935
 1881TIP3   OH2 5606   2.818   4.139   0.329  0.6545  0.4403 -0.0500
 1881TIP3    H1 5607   2.767   4.206   0.283 -0.4217  0.0005  0.4728
 1881TIP3    H2 5608   2.829   4.174   0.417 -0.3621 -0.2705  0.3819
 1882TIP3   OH2 5609   6.598   5.370   4.183 -0.3230 -0.8262  0.3501
 1882TIP3    H1 5610   6.633   5.358   4.272  0.5123  1.9378  0.4808
 1882TIP3    H2 5611   6.510   5.405   4.196 -0.6787 -1.5793  0.0455
 1883TIP3   OH2 5612   0.960   2.174   2.983  0.4485  0.1242  0.0264
 1883TIP3    H1 5613   0.882   2.121   2.969  0.8652 -0.9971  1.5862
 1883TIP3    H2 5614   1.009   2.167   2.901 -1.0309  0.8222 -0.9602
 1884TIP3   OH2 5615   1.135   1.158   2.620 -0.1906  0.0467  0.3912
 1884TIP3    H1 5616   1.055   1.106   2.637 -0.8206  1.2217  1.1746
 1884TIP3    H2 5617   1.103   1.237   2.577  0.6972  0.0515 -0.2768
 1885TIP3   OH2 5618   1.666   1.113   2.172 -0.2140  0.0141 -0.5263
 1885TIP3    H1 5619   1.645   1.139   2.262  0.9963 -1.5905  0.2712
 1885TIP3    H2 5620   1.667   1.017   2.174 -0.0439 -0.0513 -2.2236
 1886TIP3   OH2 5621   1.200   3.093   0.199  0.0038 -0.2067 -0.4276
 1886TIP3    H1 5622   1.148   3.154   0.146  0.0958  1.1539  0.9740
 1886TIP3    H2 5623   1.276   3.145   0.226  0.6416 -1.2975 -0.0852
 1887TIP3   OH2 5624   2.919   1.576   1.660 -0.3491  0.1028 -0.6346
 1887TIP3    H1 5625   2.978   1.648   1.636 -3.4288  2.5111 -1.6846
 1887TIP3    H2 5626   2.952   1.546   1.745  2.0398  1.5888 -0.9288
 1888TIP3   OH2 5627   0.468   0.473  -0.002  0.2719  0.1767  0.0323
 1888TIP3    H1 5628   0.505   0.530   0.066 -0.5752  0.5112  0.2250
 1888TIP3    H2 5629   0.419   0.407   0.046  0.8273 -0.4202 -0.2135
 1889TIP3   OH2 5630   5.879   6.531   3.724 -0.7970  0.0071 -0.1107
 1889TIP3    H1 5631   5.816   6.601   3.708 -0.7102  0.2501  0.5866
 1889TIP3    H2 5632   5.938   6.535   3.648 -1.7807 -0.4163 -0.9088
 1890TIP3   OH2 5633   6.489   4.209   4.265 -0.1792 -0.3169  0.8910
 1890TIP3    H1 5634   6.436   4.156   4.207 -0.3512  0.1295  0.6317
 1890TIP3    H2 5635   6.500   4.292   4.219 -1.5752  0.6128  2.1203
 1891TIP3   OH2 5636   6.368   3.814   3.806 -0.4823 -0.1881 -0.4677
 1891TIP3    H1 5637   6.409   3.897   3.785 -0.2736 -0.3129 -0.5571
 1891TIP3    H2 5638   6.368   3.765   3.723 -0.4615 -0.3377 -0.3803
 1892TIP3   OH2 5639   1.668   4.956   3.894  0.6685 -0.0511  0.1113
 1892TIP3    H1 5640   1.732   4.939   3.962  0.5851  1.7227  0.6936
 1892TIP3    H2 5641   1.636   4.870   3.868  2.4910 -0.8986  0.5682
 1893TIP3   OH2 5642   3.244   5.468   1.257 -0.2718  0.1624 -0.3048
 1893TIP3    H1 5643   3.252   5.471   1.353  1.1864  1.0994 -0.4316
 1893TIP3    H2 5644   3.187   5.541   1.235  0.4670  0.7697 -0.2334
 1894TIP3   OH2 5645   5.922   5.241   5.813 -0.2790 -0.1701 -0.0069
 1894TIP3    H1 5646   5.923   5.311   5.747  1.3497 -0.5913 -0.4750
 1894TIP3    H2 5647   5.986   5.269   5.878 -1.6894  0.1193  1.3123
 1895TIP3   OH2 5648   7.071   2.119   3.257 -0.3009 -0.8678 -0.5232
 1895TIP3    H1 5649   7.074   2.033   3.298 -1.0176 -1.0743 -0.8849
 1895TIP3    H2 5650   7.160   2.152   3.264 -0.2001 -1.2920  0.3480
 1896TIP3   OH2 5651   0.336   5.740   4.444 -0.3634 -0.3451 -0.3713
 1896TIP3    H1 5652   0.297   5.800   4.507  1.3250  0.9678 -0.5051
 1896TIP3    H2 5653   0.345   5.657   4.492 -0.5904  0.1611  0.5697
 1897TIP3   OH2 5654   1.139   1.865   5.437 -0.5899 -0.1877 -0.0492
 1897TIP3    H1 5655   1.081   1.789   5.437 -2.4996  1.1823  0.9977
 1897TIP3    H2 5656   1.188   1.859   5.355 -0.6727 -2.5159  0.0167
 1898TIP3   OH2 5657   4.508   5.977   2.353  0.6301  0.2923  0.1393
 1898TIP3    H1 5658   4.520   6.026   2.434 -1.4011  0.2966  0.4883
 1898TIP3    H2 5659   4.587   5.923   2.346  0.4264 -0.4596  2.6556
 1899TIP3   OH2 5660   6.782   6.358   2.638  0.0115 -0.5580 -0.1643
 1899TIP3    H1 5661   6.723   6.364   2.563  0.2864 -1.8861 -0.5191
 1899TIP3    H2 5662   6.755   6.429   2.696 -0.0676  0.6495 -1.6103
 1900TIP3   OH2 5663   5.109   3.489   1.718 -0.2873  0.0048 -0.2849
 1900TIP3    H1 5664   5.130   3.529   1.803 -0.5622  1.5103 -0.8958
 1900TIP3    H2 5665   5.029   3.440   1.734 -0.6959  0.8066  0.1916
 1901TIP3   OH2 5666   3.497   6.671   3.151  0.0114 -0.1156 -0.3227
 1901TIP3    H1 5667   3.522   6.682   3.060  1.2910 -1.5076 -0.1720
 1901TIP3    H2 5668   3.422   6.612   3.150 -1.2028  1.3401 -0.5423
 1902TIP3   OH2 5669   7.099   1.227   4.584 -0.0924 -0.0896 -0.1259
 1902TIP3    H1 5670   7.139   1.233   4.671 -0.5962  0.4370  0.0779
 1902TIP3    H2 5671   7.154   1.283   4.529  0.6871 -1.0404 -0.3293
 1903TIP3   OH2 5672   0.218   4.945   4.764 -0.1137 -0.1472 -0.2540
 1903TIP3    H1 5673   0.127   4.921   4.744  0.0421  0.2061 -1.5358
 1903TIP3    H2 5674   0.270   4.877   4.721  0.2420  0.2418 -0.4431
 1904TIP3   OH2 5675   4.150   4.157   5.814  0.2034  0.1320 -0.2452
 1904TIP3    H1 5676   4.201   4.105   5.751  1.1348  1.5047 -0.6709
 1904TIP3    H2 5677   4.060   4.127   5.803  0.8066 -2.0220  0.1705
 1905TIP3   OH2 5678   6.936   1.656   2.559  0.6837 -0.1735 -0.0890
 1905TIP3    H1 5679   7.023   1.644   2.597  0.1966  0.9048  1.4746
 1905TIP3    H2 5680   6.919   1.750   2.568  0.2225  0.0029 -2.3618
 1906TIP3   OH2 5681   1.015   3.055   3.299  0.4280  0.0800  0.0033
 1906TIP3    H1 5682   1.106   3.046   3.269 -0.4034  0.4469 -2.8798
 1906TIP3    H2 5683   0.997   3.149   3.292 -0.5273 -0.1405 -0.5598
 1907TIP3   OH2 5684   4.944   6.162   0.948  0.4931 -0.1648  0.3340
 1907TIP3    H1 5685   4.906   6.189   1.031 -1.7732 -1.3219 -0.2223
 1907TIP3    H2 5686   4.916   6.230   0.886  1.3910  0.2163  0.3395
 1908TIP3   OH2 5687   0.165   4.557   1.118 -0.5767  0.2411 -0.2224
 1908TIP3    H1 5688   0.219   4.552   1.039  0.0261  2.8204 -0.0834
 1908TIP3    H2 5689   0.210   4.500   1.181  0.6373  0.4415 -0.8642
 1909TIP3   OH2 5690   0.982   0.157   0.689 -0.0433  0.0725  0.1475
 1909TIP3    H1 5691   1.022   0.186   0.607 -0.7394 -0.1547 -0.2809
 1909TIP3    H2 5692   1.045   0.182   0.757  1.0496 -0.7036 -0.5448
 1910TIP3   OH2 5693   5.623   2.748   0.714  0.5288  0.1282 -0.0649
 1910TIP3    H1 5694   5.666   2.783   0.636 -0.0751  0.1303 -0.4033
 1910TIP3    H2 5695   5.685   2.684   0.749  0.8189  0.1551 -0.5273
 1911TIP3   OH2 5696   4.885   3.320   1.763  0.2302 -0.2956  0.3512
 1911TIP3    H1 5697   4.833   3.384   1.812  0.4622 -0.2126  0.4903
 1911TIP3    H2 5698   4.877   3.239   1.813 -0.4982 -0.5166 -0.1075
 1912TIP3   OH2 5699   6.999   5.607   5.376  0.1468 -0.1101  0.4982
 1912TIP3    H1 5700   7.008   5.521   5.335 -3.1373 -0.7370  0.8034
 1912TIP3    H2 5701   6.983   5.667   5.304  3.4823  0.5970  0.1714
 1913TIP3   OH2 5702   4.528   2.699   1.549 -0.0984 -0.2501 -0.1151
 1913TIP3    H1 5703   4.562   2.615   1.518  0.4098  0.2164 -0.8660
 1913TIP3    H2 5704   4.463   2.724   1.483  1.6553  1.1969 -1.3788
 1914TIP3   OH2 5705   6.204   3.740   0.595 -0.5194 -0.0082 -0.1908
 1914TIP3    H1 5706   6.267   3.764   0.527  1.9125  1.2445  2.3082
 1914TIP3    H2 5707   6.218   3.646   0.608  1.8465  0.4282  1.1053
 1915TIP3   OH2 5708   1.442   3.451   3.290  0.3172  0.4099  0.1009
 1915TIP3    H1 5709   1.510   3.477   3.228  0.9275 -0.7332  0.2498
 1915TIP3    H2 5710   1.419   3.531   3.336  1.1343  0.9356 -0.3756
 1916TIP3   OH2 5711   1.008   2.595   1.609  0.4753 -0.0532  0.0588
 1916TIP3    H1 5712   1.062   2.532   1.657 -0.7171 -1.5456 -0.5029
 1916TIP3    H2 5713   0.918   2.572   1.632 -0.0061  1.7144  0.1381
 1917TIP3   OH2 5714   2.828   3.091   4.921  0.0123 -0.3539  0.2565
 1917TIP3    H1 5715   2.793   3.056   5.003  0.0146 -1.2913 -0.1268
 1917TIP3    H2 5716   2.762   3.070   4.856 -0.5367  1.4165  0.1815
 1918TIP3   OH2 5717   7.034   2.485   3.555 -0.1240  0.8344  0.5586
 1918TIP3    H1 5718   7.085   2.406   3.571 -2.6337 -0.3718  3.4809
 1918TIP3    H2 5719   7.024   2.488   3.459 -0.1258 -2.5254  0.3462
 1919TIP3   OH2 5720   4.656   3.660   2.029 -0.7139  0.1890 -0.3358
 1919TIP3    H1 5721   4.647   3.735   2.087 -1.1000  0.4120 -0.6787
 1919TIP3    H2 5722   4.580   3.606   2.047 -1.2175  0.6115 -1.1330
 1920TIP3   OH2 5723   1.497   3.966   3.528 -0.2019 -0.1534  0.1089
 1920TIP3    H1 5724   1.584   3.926   3.527  0.1770  0.6457 -0.4089
 1920TIP3    H2 5725   1.470   3.968   3.436 -1.5140 -1.9170  0.4160
 1921TIP3   OH2 5726   4.312   5.403   0.895  0.4730  0.2959 -0.9536
 1921TIP3    H1 5727   4.326   5.312   0.919  1.4324  0.2355 -1.6808
 1921TIP3    H2 5728   4.218   5.417   0.908  0.1590 -1.0207 -1.5747
 1922TIP3   OH2 5729   4.525   0.970   4.706 -0.4210 -0.2693 -0.2551
 1922TIP3    H1 5730   4.602   0.915   4.723 -0.5068 -0.4464 -0.4360
 1922TIP3    H2 5731   4.468   0.955   4.781 -0.1575  0.0822  0.0232
 1923TIP3   OH2 5732   1.975   0.478   3.294 -0.5931  0.0198 -0.5865
 1923TIP3    H1 5733   2.039   0.484   3.223 -1.0661  0.7762 -0.9621
 1923TIP3    H2 5734   2.007   0.539   3.360 -0.2284 -0.5797 -0.2080
 1924TIP3   OH2 5735   0.848   2.737   0.665  0.1830 -0.3943 -0.1481
 1924TIP3    H1 5736   0.810   2.666   0.613 -1.5654  0.0414  0.4489
 1924TIP3    H2 5737   0.814   2.817   0.625 -0.9416 -0.0413  1.4023
 1925TIP3   OH2 5738   6.933   2.427   2.971  0.7599 -0.1080  1.0766
 1925TIP3    H1 5739   6.908   2.500   3.028 -1.3131  0.8257 -0.8616
 1925TIP3    H2 5740   6.925   2.462   2.882  1.7677 -2.1061  0.1311
 1926TIP3   OH2 5741   1.532   3.911   5.094 -0.0781  0.6448  0.1954
 1926TIP3    H1 5742   1.565   3.968   5.162  1.5715  0.8337 -0.7175
 1926TIP3    H2 5743   1.570   3.945   5.013 -0.8954 -0.3766 -0.6527
 1927TIP3   OH2 5744   0.975   4.474   2.822 -0.0231  0.1463  0.6435
 1927TIP3    H1 5745   1.052   4.442   2.869 -0.4712 -2.7549 -0.3910
 1927TIP3    H2 5746   0.990   4.448   2.731 -1.4250  1.1711  0.0821
 1928TIP3   OH2 5747   3.896   4.252   0.788 -0.1289  0.0996  0.0698
 1928TIP3    H1 5748   3.982   4.220   0.814  0.7052  1.3506 -1.0756
 1928TIP3    H2 5749   3.884   4.333   0.838 -0.2088  0.4307 -0.4718
 1929TIP3   OH2 5750   2.862   3.347   0.879 -0.0829  0.2012 -0.4438
 1929TIP3    H1 5751   2.951   3.375   0.856  0.9872 -2.1763  0.5059
 1929TIP3    H2 5752   2.826   3.314   0.797  0.3857 -0.0293 -0.5596
 1930TIP3   OH2 5753   1.065   4.808   1.822  0.1139  0.2575 -0.2096
 1930TIP3    H1 5754   1.093   4.899   1.838  1.3152  0.1084 -1.2683
 1930TIP3    H2 5755   1.147   4.762   1.802 -0.7054 -0.5995 -1.7443
 1931TIP3   OH2 5756   1.305   1.894   3.582  0.2488 -0.1074  0.2536
 1931TIP3    H1 5757   1.246   1.852   3.520  0.3256  0.3810 -0.1593
 1931TIP3    H2 5758   1.328   1.977   3.540 -1.1515  1.0917  1.7364
 1932TIP3   OH2 5759   2.421   1.785   4.429  0.1969  0.8643  0.4632
 1932TIP3    H1 5760   2.426   1.790   4.524  2.7170  2.5959  0.3238
 1932TIP3    H2 5761   2.496   1.731   4.404  1.4953  3.0298 -0.6255
 1933TIP3   OH2 5762   2.342   3.166   3.550 -0.0329  0.3754 -0.4628
 1933TIP3    H1 5763   2.435   3.182   3.538  0.3599 -2.3721 -2.0262
 1933TIP3    H2 5764   2.332   3.148   3.643  1.7303 -2.5305 -0.7105
 1934TIP3   OH2 5765   1.681   6.413   4.219  0.2382  0.1751  0.4011
 1934TIP3    H1 5766   1.602   6.452   4.182 -1.0819 -0.7900  2.0769
 1934TIP3    H2 5767   1.704   6.471   4.292  1.1599  0.4834 -0.1071
 1935TIP3   OH2 5768   2.599   1.251   2.594 -0.1416 -0.0514  0.2748
 1935TIP3    H1 5769   2.654   1.224   2.668 -1.0326  0.8773  1.3147
 1935TIP3    H2 5770   2.519   1.284   2.635 -1.3858 -1.1253 -1.2030
 1936TIP3   OH2 5771   6.416   6.812   0.203  0.5818 -0.4603 -0.0050
 1936TIP3    H1 5772   6.508   6.819   0.231  0.6275 -1.3427  0.0813
 1936TIP3    H2 5773   6.386   6.730   0.240 -1.1003  1.0861  2.3481
 1937TIP3   OH2 5774   2.107   0.590   4.260 -0.0734  0.1149 -0.1012
 1937TIP3    H1 5775   2.166   0.528   4.218  0.9255 -0.7052  2.3520
 1937TIP3    H2 5776   2.050   0.620   4.189 -0.4957 -3.4437 -1.4540
 1938TIP3   OH2 5777   6.997   4.887   4.185 -0.2528  0.8615 -0.2976
 1938TIP3    H1 5778   6.934   4.915   4.118  0.1929  1.3790 -0.5167
 1938TIP3    H2 5779   7.025   4.800   4.157  0.6428  1.4418 -1.3410
 1939TIP3   OH2 5780   6.830   2.796   0.344 -0.2920 -0.1004  0.4162
 1939TIP3    H1 5781   6.879   2.776   0.424 -1.1236 -0.5691  0.8173
 1939TIP3    H2 5782   6.832   2.714   0.293  0.4153  0.2556 -0.1534
 1940TIP3   OH2 5783   1.550   3.849   4.574  0.0033 -0.2058 -0.4133
 1940TIP3    H1 5784   1.466   3.803   4.567 -0.7743  1.1026  0.0407
 1940TIP3    H2 5785   1.597   3.826   4.493 -0.7039 -1.0759 -0.5969
 1941TIP3   OH2 5786   5.107   4.497   4.415 -0.3258 -0.7244  0.4568
 1941TIP3    H1 5787   5.082   4.538   4.332 -1.8291 -0.2480  1.1196
 1941TIP3    H2 5788   5.117   4.404   4.394 -1.1170 -0.6707 -0.1729
 1942TIP3   OH2 5789   1.912   2.479   5.396 -0.3691 -0.5061 -0.1724
 1942TIP3    H1 5790   1.986   2.510   5.345 -0.9194  0.1339 -0.5998
 1942TIP3    H2 5791   1.910   2.385   5.381  1.6699 -0.9017  1.6040
 1943TIP3   OH2 5792   0.544   4.076   2.515  0.2375  0.9465 -0.5071
 1943TIP3    H1 5793   0.493   4.047   2.591  2.0521  1.8137  1.1425
 1943TIP3    H2 5794   0.635   4.060   2.540  0.8818  0.2915 -2.9603
 1944TIP3   OH2 5795   2.963   2.136   1.062  0.4929 -0.0062 -0.1497
 1944TIP3    H1 5796   2.925   2.197   0.999 -0.3109 -1.4745 -1.1430
 1944TIP3    H2 5797   3.041   2.102   1.019  1.4195  0.9027  0.7468
 1945TIP3   OH2 5798   0.173   5.251   0.067  0.0408  0.1801 -0.2629
 1945TIP3    H1 5799   0.104   5.248   0.001 -0.1149  0.7243 -0.1351
 1945TIP3    H2 5800   0.249   5.210   0.026 -0.6063 -1.2221 -0.0905
 1946TIP3   OH2 5801   0.997   1.727   4.162 -0.1249 -0.2195  0.4560
 1946TIP3    H1 5802   0.941   1.765   4.230  0.2036 -0.3712  0.8141
 1946TIP3    H2 5803   1.081   1.714   4.205 -0.5289 -2.4415  0.7105
 1947TIP3   OH2 5804   0.129   6.507   1.991 -0.1757 -0.2797 -0.0856
 1947TIP3    H1 5805   0.156   6.504   2.083  0.3588  0.0331 -0.2232
 1947TIP3    H2 5806   0.101   6.418   1.970 -1.7448 -0.0156  0.7949
 1948TIP3   OH2 5807   1.666   0.167   5.684 -0.2958  0.0218  0.1661
 1948TIP3    H1 5808   1.600   0.124   5.738  0.1413 -1.5093 -0.4317
 1948TIP3    H2 5809   1.743   0.110   5.690  0.1326  0.4076 -1.1344
 1949TIP3   OH2 5810   6.584   0.193   4.211  0.3020  0.0691  0.1502
 1949TIP3    H1 5811   6.621   0.154   4.291  1.6857  0.6200 -0.1861
 1949TIP3    H2 5812   6.650   0.176   4.144 -1.1504 -0.9711 -1.0506
 1950TIP3   OH2 5813   1.776   6.118   5.005 -0.2533  0.0179 -0.5891
 1950TIP3    H1 5814   1.791   6.070   5.086 -1.6618  0.8583  0.1991
 1950TIP3    H2 5815   1.842   6.188   5.006 -1.6232  1.3991  0.9978
 1951TIP3   OH2 5816   2.313   1.448   4.570  0.5801  0.0117  0.0658
 1951TIP3    H1 5817   2.363   1.409   4.642 -0.4505 -0.1562  0.7162
 1951TIP3    H2 5818   2.375   1.456   4.498  0.8942 -2.6695 -0.0529
 1952TIP3   OH2 5819   0.170   0.486   1.168 -0.3160 -0.4548 -0.3516
 1952TIP3    H1 5820   0.176   0.528   1.083 -2.3145  0.0471 -0.2875
 1952TIP3    H2 5821   0.115   0.409   1.154  0.0981 -0.8831  0.3008
 1953TIP3   OH2 5822   5.155   6.546   5.801  0.5155 -0.2367  0.5448
 1953TIP3    H1 5823   5.181   6.488   5.873  1.7855 -0.9009 -0.4127
 1953TIP3    H2 5824   5.156   6.634   5.840  0.2903 -0.6665  1.5659
 1954TIP3   OH2 5825   4.010   5.549   2.743 -0.1096 -0.1079  0.1121
 1954TIP3    H1 5826   4.020   5.643   2.760  0.8409 -0.3800  1.1913
 1954TIP3    H2 5827   4.007   5.542   2.648 -2.7182  1.2410  0.0082
 1955TIP3   OH2 5828   5.476   3.904   3.903  0.6451  0.1861 -0.3571
 1955TIP3    H1 5829   5.395   3.854   3.914 -0.3466  1.9860  1.0603
 1955TIP3    H2 5830   5.483   3.919   3.809 -1.5324  1.2547 -0.4172
 1956TIP3   OH2 5831   5.966   6.744   0.150 -0.5770 -0.3696  0.9210
 1956TIP3    H1 5832   6.030   6.815   0.157  0.9163 -1.6458  0.5517
 1956TIP3    H2 5833   5.936   6.747   0.059  0.0047 -0.6448  0.7184
 1957TIP3   OH2 5834   0.882   1.716   2.808 -0.2631  0.7861 -0.0271
 1957TIP3    H1 5835   0.938   1.718   2.731  0.2447  1.2555  0.3544
 1957TIP3    H2 5836   0.862   1.623   2.820  0.8149  0.5653  0.1170
 1958TIP3   OH2 5837   5.625   0.502   5.770  0.0376 -0.1411 -0.0499
 1958TIP3    H1 5838   5.593   0.580   5.815 -0.0882 -0.9202  1.2445
 1958TIP3    H2 5839   5.550   0.472   5.718 -0.1998  0.0633  0.1710
 1959TIP3   OH2 5840   2.701   4.025   5.730  0.0648 -0.1236  0.2743
 1959TIP3    H1 5841   2.663   4.098   5.778 -1.4982 -1.5587  1.3262
 1959TIP3    H2 5842   2.786   4.010   5.771  0.2712  0.9086  0.2269
 1960TIP3   OH2 5843   5.199   0.990   3.150 -0.7316 -0.5104  0.1349
 1960TIP3    H1 5844   5.124   0.968   3.205 -0.1885 -0.7433  0.7995
 1960TIP3    H2 5845   5.242   1.062   3.196 -1.3961  0.6655 -1.0222
 1961TIP3   OH2 5846   1.730   4.906   3.620  0.5967  0.0182  0.4998
 1961TIP3    H1 5847   1.690   4.944   3.698 -0.2386  0.4297 -0.1218
 1961TIP3    H2 5848   1.805   4.962   3.601  0.1002  0.6299  0.3176
 1962TIP3   OH2 5849   2.813   5.882   4.664 -0.1264 -0.4341  0.0115
 1962TIP3    H1 5850   2.785   5.871   4.755  1.3564  0.7527  0.6442
 1962TIP3    H2 5851   2.895   5.930   4.669  0.3048 -0.8668 -1.9424
 1963TIP3   OH2 5852   6.819   3.710   0.125 -0.2818 -0.3446 -0.0480
 1963TIP3    H1 5853   6.770   3.630   0.104 -0.4309 -0.3401  0.2846
 1963TIP3    H2 5854   6.796   3.771   0.055 -0.2110 -0.5738 -0.2739
 1964TIP3   OH2 5855   0.424   5.062   1.764 -0.3321 -0.7700 -0.4463
 1964TIP3    H1 5856   0.400   5.001   1.694 -0.7107  0.1532 -1.1306
 1964TIP3    H2 5857   0.494   5.115   1.727 -0.9026  0.0830 -0.3291
 1965TIP3   OH2 5858   6.293   4.034   2.569  0.9948 -0.1044  0.6379
 1965TIP3    H1 5859   6.222   3.988   2.615 -0.3443  1.8910  0.6680
 1965TIP3    H2 5860   6.302   3.987   2.486  0.6882 -1.2937  1.2587
 1966TIP3   OH2 5861   4.084   4.182   4.392  0.0647 -0.1127 -0.2080
 1966TIP3    H1 5862   4.094   4.213   4.302 -2.7475  0.5197 -0.3715
 1966TIP3    H2 5863   4.056   4.091   4.382 -2.4081  0.5836 -0.1121
 1967TIP3   OH2 5864   4.896   0.988   1.860  0.3083 -0.3379 -0.0752
 1967TIP3    H1 5865   4.819   1.027   1.819  0.4952 -0.8146 -0.8986
 1967TIP3    H2 5866   4.902   1.030   1.946  0.9280  1.9900 -1.1968
 1968TIP3   OH2 5867   4.368   1.998   3.762  0.0219  0.0376  0.1779
 1968TIP3    H1 5868   4.365   2.022   3.854  0.1927 -2.4628  0.9218
 1968TIP3    H2 5869   4.287   2.032   3.724  0.4941  2.1050  0.9345
 1969TIP3   OH2 5870   4.605   2.411   5.462  0.1408  0.2062 -0.0439
 1969TIP3    H1 5871   4.660   2.475   5.417  1.1917 -0.2590  0.5553
 1969TIP3    H2 5872   4.619   2.429   5.555  0.2607 -0.7396  0.1247
 1970TIP3   OH2 5873   0.260   2.538   5.881 -0.0684 -0.1353  0.6101
 1970TIP3    H1 5874   0.323   2.466   5.892 -2.1594 -1.8100  2.4659
 1970TIP3    H2 5875   0.185   2.497   5.838 -0.4421  1.5431 -0.4288
 1971TIP3   OH2 5876   4.229   4.505   2.212 -0.4156 -0.2607  0.6296
 1971TIP3    H1 5877   4.134   4.497   2.221 -0.3623 -0.1096  1.4920
 1971TIP3    H2 5878   4.250   4.588   2.256 -0.0632  0.5861 -1.0558
 1972TIP3   OH2 5879   5.777   4.108   1.283  0.2564  0.0088  0.3310
 1972TIP3    H1 5880   5.707   4.077   1.226 -0.3711  1.1817  0.4321
 1972TIP3    H2 5881   5.854   4.059   1.254 -0.5214 -1.0723  0.0096
 1973TIP3   OH2 5882   3.051   6.672   4.920 -0.2481  0.1855 -0.3364
 1973TIP3    H1 5883   2.999   6.746   4.950 -0.8036  0.5600 -2.1109
 1973TIP3    H2 5884   3.035   6.604   4.986 -1.1318  1.0581  0.3861
 1974TIP3   OH2 5885   0.304   0.340   0.207  0.1042 -0.1656 -0.0535
 1974TIP3    H1 5886   0.210   0.324   0.220 -0.0368 -1.2942 -2.1085
 1974TIP3    H2 5887   0.347   0.265   0.247  0.1312  0.1567  0.5383
 1975TIP3   OH2 5888   3.689   4.234   5.879 -0.0578 -0.2151  0.4898
 1975TIP3    H1 5889   3.610   4.181   5.886 -0.7753  0.7410 -0.1448
 1975TIP3    H2 5890   3.662   4.310   5.827  0.9707  0.7143  1.2877
 1976TIP3   OH2 5891   5.007   0.028   4.788  0.1007 -0.3356 -0.0429
 1976TIP3    H1 5892   5.053  -0.039   4.839  1.8042 -0.3150 -1.4390
 1976TIP3    H2 5893   5.074   0.093   4.767 -1.0981  0.8763 -0.2716
 1977TIP3   OH2 5894   0.686   6.219   5.392 -0.0788  0.1200  0.2275
 1977TIP3    H1 5895   0.779   6.233   5.408 -0.1343  1.0078 -0.1806
 1977TIP3    H2 5896   0.674   6.124   5.399  0.9747 -0.0654 -0.3132
 1978TIP3   OH2 5897   5.939   4.085   2.587 -0.2648 -0.5524 -0.6750
 1978TIP3    H1 5898   6.000   4.107   2.516  0.3432 -0.9513 -0.2829
 1978TIP3    H2 5899   5.967   3.999   2.618 -0.2761 -0.2100  0.3184
 1979TIP3   OH2 5900   2.519   4.040   4.749  0.6740 -0.1593 -0.4508
 1979TIP3    H1 5901   2.515   4.134   4.732  0.5669 -0.4249 -1.9550
 1979TIP3    H2 5902   2.611   4.022   4.768  0.6887  0.2370 -0.1288
 1980TIP3   OH2 5903   1.629   5.482   4.401 -0.2445 -0.0699  0.1890
 1980TIP3    H1 5904   1.667   5.474   4.489 -2.1754 -1.9541  0.9398
 1980TIP3    H2 5905   1.546   5.434   4.406 -0.9650  0.7496 -2.3688
 1981TIP3   OH2 5906   5.658   6.666   0.123 -0.5563 -0.1321 -0.4582
 1981TIP3    H1 5907   5.655   6.661   0.027 -1.2098  1.7154 -0.5618
 1981TIP3    H2 5908   5.569   6.648   0.151 -0.5113 -0.0060 -0.2357
 1982TIP3   OH2 5909   3.759   3.078   1.304 -0.3946  0.3507 -0.1447
 1982TIP3    H1 5910   3.795   3.089   1.216  0.6267 -0.5457  0.1312
 1982TIP3    H2 5911   3.762   2.984   1.320  1.6734  0.6274  1.7036
 1983TIP3   OH2 5912   3.023   2.292   2.994 -0.3828 -0.4461  0.2145
 1983TIP3    H1 5913   3.044   2.199   2.995  0.9991 -0.1821 -0.8538
 1983TIP3    H2 5914   3.046   2.321   2.906 -0.8710  0.8968  0.5014
 1984TIP3   OH2 5915   0.116   0.042   4.445  0.0341 -0.2070  0.0047
 1984TIP3    H1 5916   0.048   0.028   4.380 -0.5542  1.8485  0.1282
 1984TIP3    H2 5917   0.174   0.107   4.406  1.1984 -0.9264  0.4624
 1985TIP3   OH2 5918   5.773   2.878   5.799 -0.4176 -0.3775 -0.0991
 1985TIP3    H1 5919   5.849   2.901   5.853 -1.9225 -1.9633  2.9297
 1985TIP3    H2 5920   5.768   2.949   5.735  2.6244  0.6400  0.6048
 1986TIP3   OH2 5921   4.071   0.073   5.809  0.4559  0.4694 -0.2249
 1986TIP3    H1 5922   4.070   0.137   5.738 -1.4766  1.6138  0.7408
 1986TIP3    H2 5923   3.999   0.013   5.788  1.2456 -0.4750 -0.3075
 1987TIP3   OH2 5924   6.041   0.653   5.292 -0.4212 -0.4611 -0.5412
 1987TIP3    H1 5925   6.124   0.607   5.279 -0.3202 -0.4194 -0.0670
 1987TIP3    H2 5926   6.059   0.743   5.265 -0.1869 -0.3533 -0.0424
 1988TIP3   OH2 5927   0.057   1.048   2.882 -0.1719  0.1930  0.8814
 1988TIP3    H1 5928  -0.032   1.062   2.914 -0.4810 -0.5863  0.3728
 1988TIP3    H2 5929   0.105   1.126   2.912 -1.0092  0.6131  1.1702
 1989TIP3   OH2 5930   0.859   5.714   2.714  0.2720 -0.2040  0.1295
 1989TIP3    H1 5931   0.802   5.698   2.638  0.5200  0.2357 -0.1538
 1989TIP3    H2 5932   0.822   5.660   2.783 -0.5216  0.1005 -0.0427
 1990TIP3   OH2 5933   3.906   0.970   5.556  0.0122  0.2198  0.1497
 1990TIP3    H1 5934   3.985   0.933   5.516 -0.3353 -0.5614  0.1713
 1990TIP3    H2 5935   3.836   0.911   5.529  0.0999 -2.1203  4.1296
 1991TIP3   OH2 5936   1.654   4.761   5.917 -0.5098 -0.1121  0.2359
 1991TIP3    H1 5937   1.692   4.724   5.837 -1.6680 -1.1941  0.1601
 1991TIP3    H2 5938   1.591   4.826   5.887 -1.4211 -0.9829  0.2318
 1992TIP3   OH2 5939   5.152   6.233   5.853 -0.2042 -0.4388  0.1253
 1992TIP3    H1 5940   5.154   6.185   5.936 -3.1223 -0.2054  0.4426
 1992TIP3    H2 5941   5.122   6.168   5.789  0.9845 -0.3403 -0.5473
 1993TIP3   OH2 5942   5.984   1.854   3.728  0.3843  0.9126 -0.0488
 1993TIP3    H1 5943   5.935   1.784   3.687  0.2586  1.4589 -0.8491
 1993TIP3    H2 5944   6.030   1.812   3.801 -0.6850  0.2564  0.2658
 1994TIP3   OH2 5945   6.387   2.972   3.069 -0.1235 -0.7465 -0.2356
 1994TIP3    H1 5946   6.370   3.066   3.082  0.5214 -0.4098 -1.6165
 1994TIP3    H2 5947   6.432   2.945   3.149  0.5113  0.3419 -0.2028
 1995TIP3   OH2 5948   0.204   3.917   5.062 -0.2903  0.3183  0.2826
 1995TIP3    H1 5949   0.287   3.953   5.031 -0.1231 -0.9240 -0.8013
 1995TIP3    H2 5950   0.227   3.863   5.137 -0.3014  0.9072  0.7252
 1996TIP3   OH2 5951   4.989   0.722   4.085 -0.0794  0.3980  0.3970
 1996TIP3    H1 5952   4.924   0.674   4.035 -0.5228  1.7584 -0.3892
 1996TIP3    H2 5953   4.939   0.792   4.128  0.5505  0.2158  1.4777
 1997TIP3   OH2 5954   1.330   1.961   1.771  0.6552  0.1364  0.4828
 1997TIP3    H1 5955   1.371   2.022   1.832  0.5786 -0.4786  1.1551
 1997TIP3    H2 5956   1.305   1.886   1.824  0.9485 -0.5901 -0.3820
 1998TIP3   OH2 5957   4.971   1.767   0.399  0.1374  0.2181 -0.2348
 1998TIP3    H1 5958   5.060   1.766   0.433 -0.5630 -0.4760  1.6759
 1998TIP3    H2 5959   4.963   1.851   0.354  0.6492  1.9238  2.6821
 1999TIP3   OH2 5960   2.750   3.401   1.801 -0.4757 -0.1000  0.3629
 1999TIP3    H1 5961   2.734   3.482   1.752 -0.8416 -1.1860 -1.4405
 1999TIP3    H2 5962   2.670   3.386   1.851 -0.0540  1.1030  1.4179
 2000TIP3   OH2 5963   3.190   4.323   0.997  0.5939 -0.4137 -0.1634
 2000TIP3    H1 5964   3.204   4.317   0.903 -1.1187 -0.6625 -0.4429
 2000TIP3    H2 5965   3.173   4.233   1.025  1.8400 -0.4477  0.5317
 2001TIP3   OH2 5966   0.236   3.746   4.829 -0.2228 -0.5056  0.1781
 2001TIP3    H1 5967   0.204   3.656   4.820  0.9847 -0.7992 -1.9796
 2001TIP3    H2 5968   0.178   3.786   4.894 -0.6209 -2.8951  1.4127
 2002TIP3   OH2 5969   5.058   1.636   3.231 -0.2269 -0.2916 -0.1624
 2002TIP3    H1 5970   5.118   1.594   3.293 -1.9331  0.6848  2.3178
 2002TIP3    H2 5971   5.082   1.728   3.233 -1.5858  0.0609  0.6414
 2003TIP3   OH2 5972   3.995   0.098   3.295  0.0011  0.0729  0.1439
 2003TIP3    H1 5973   3.915   0.149   3.311  0.0676  0.6238 -1.1519
 2003TIP3    H2 5974   4.064   0.164   3.290  0.6836 -0.4591  1.9751
 2004TIP3   OH2 5975   3.923   4.820   2.487 -0.0250 -0.4491 -0.2043
 2004TIP3    H1 5976   4.004   4.868   2.469 -0.5429  2.0638  3.0915
 2004TIP3    H2 5977   3.921   4.810   2.582 -2.7033 -2.1337 -0.3173
 2005TIP3   OH2 5978   0.908   5.480   1.018 -0.1465 -0.6355 -0.6252
 2005TIP3    H1 5979   0.934   5.394   1.051 -0.4674  0.0777  1.6638
 2005TIP3    H2 5980   0.990   5.528   1.008 -0.0027 -1.0399 -1.4839
 2006TIP3   OH2 5981   1.819   4.080   0.752 -0.4691  0.1278 -0.1531
 2006TIP3    H1 5982   1.889   4.143   0.769  0.3525 -0.4551 -1.2204
 2006TIP3    H2 5983   1.857   4.018   0.689 -1.4127 -1.1465  0.4774
 2007TIP3   OH2 5984   4.314   4.727   2.363  0.1250  0.0067 -0.0204
 2007TIP3    H1 5985   4.296   4.813   2.325  2.7733  0.2718 -0.8759
 2007TIP3    H2 5986   4.328   4.744   2.456  1.0017  0.5975 -0.2476
 2008TIP3   OH2 5987   2.784   1.543   5.498  0.0617 -0.2486 -0.4953
 2008TIP3    H1 5988   2.827   1.617   5.457  0.5413 -0.3385 -0.1637
 2008TIP3    H2 5989   2.830   1.466   5.464 -0.6836 -0.4154 -1.1326
 2009TIP3   OH2 5990   1.056   2.416   4.085 -0.2360  0.8529 -0.0242
 2009TIP3    H1 5991   1.051   2.330   4.126  1.8121  0.1946 -1.0271
 2009TIP3    H2 5992   1.015   2.475   4.149 -3.5911 -1.0660 -0.2110
 2010TIP3   OH2 5993   5.305   5.107   0.281 -0.7603  0.4952 -0.1832
 2010TIP3    H1 5994   5.270   5.018   0.275 -0.2684  0.1119  1.8758
 2010TIP3    H2 5995   5.241   5.155   0.334  0.0706  0.7604  0.5970
 2011TIP3   OH2 5996   0.208   3.933   3.201 -0.1118  0.2794  0.2675
 2011TIP3    H1 5997   0.133   3.911   3.146  0.0123  0.0447  0.1877
 2011TIP3    H2 5998   0.276   3.961   3.139 -0.0115  0.1300  0.3083
 2012TIP3   OH2 5999   0.138   4.340   0.588 -0.6282  0.0595 -0.3512
 2012TIP3    H1 6000   0.145   4.253   0.626  1.6795 -0.6656 -2.2284
 2012TIP3    H2 6001   0.140   4.326   0.493  1.5345  2.2150 -0.7126
 2013TIP3   OH2 6002   0.006   1.540   2.941  0.1614  0.0409  0.2611
 2013TIP3    H1 6003  -0.020   1.629   2.964 -1.4542  0.2979 -2.1812
 2013TIP3    H2 6004   0.095   1.548   2.908 -0.3918  1.0401 -1.1017
 2014TIP3   OH2 6005   3.019   1.073   2.758  0.3684 -0.0310 -0.6885
 2014TIP3    H1 6006   2.958   1.106   2.824  1.7072 -2.4857  1.9846
 2014TIP3    H2 6007   2.987   1.109   2.676 -0.2609  4.9281  1.3860
 2015TIP3   OH2 6008   3.497   2.902   5.326  0.7347 -0.0658  0.3899
 2015TIP3    H1 6009   3.486   2.997   5.331 -1.3436 -0.3333  2.8500
 2015TIP3    H2 6010   3.439   2.875   5.254  0.8934  0.4458  0.0626
 2016TIP3   OH2 6011   0.777   1.966   4.993 -0.1996 -0.4779  0.5150
 2016TIP3    H1 6012   0.749   1.998   5.079 -2.0241  0.2087 -0.2889
 2016TIP3    H2 6013   0.707   1.907   4.965 -0.0059 -0.0907 -0.8491
 2017TIP3   OH2 6014   2.041   3.532   0.822 -0.6888 -0.1794 -0.1679
 2017TIP3    H1 6015   2.026   3.497   0.734  1.1732  0.5727 -0.8340
 2017TIP3    H2 6016   2.048   3.454   0.877 -0.1981 -0.7512 -0.9962
 2018TIP3   OH2 6017   4.023   0.830   2.470 -0.0466  0.3242 -0.1926
 2018TIP3    H1 6018   4.089   0.837   2.539 -2.2705  0.1049  2.0994
 2018TIP3    H2 6019   3.953   0.777   2.508 -2.3593  1.9898 -1.7818
 2019TIP3   OH2 6020   5.909   1.787   1.259 -0.0079 -0.0368  0.0417
 2019TIP3    H1 6021   5.947   1.872   1.234  0.0059 -0.0682 -0.0426
 2019TIP3    H2 6022   5.921   1.783   1.354 -1.8113  0.9557  0.3519
 2020TIP3   OH2 6023   5.155   1.197   3.858  0.4244 -0.1582  0.7506
 2020TIP3    H1 6024   5.222   1.258   3.888  0.6689 -0.1569  0.2231
 2020TIP3    H2 6025   5.125   1.153   3.937  2.7547 -1.8792  0.8125
 2021TIP3   OH2 6026   4.609   6.353   5.532 -0.2984 -0.4877 -0.5489
 2021TIP3    H1 6027   4.608   6.268   5.576 -0.1258  1.4771  3.6936
 2021TIP3    H2 6028   4.530   6.397   5.563  0.1031  1.2827 -1.8859
 2022TIP3   OH2 6029   4.670   1.248   3.068  0.7002 -0.5494 -0.2838
 2022TIP3    H1 6030   4.677   1.333   3.023 -0.2941 -0.1270  0.3125
 2022TIP3    H2 6031   4.617   1.267   3.145 -2.4215 -2.2970 -1.8074
 2023TIP3   OH2 6032   5.391   3.743   2.471 -0.0501 -0.3242  0.7103
 2023TIP3    H1 6033   5.340   3.821   2.493 -0.8048 -0.3390 -0.8381
 2023TIP3    H2 6034   5.479   3.761   2.505 -0.2135  1.1910  0.3843
 2024TIP3   OH2 6035   5.586   6.343   2.000 -0.4910  0.0586  0.2007
 2024TIP3    H1 6036   5.618   6.255   2.021 -0.2590 -0.0750 -0.6648
 2024TIP3    H2 6037   5.582   6.388   2.084 -1.2262 -0.9786  0.7477
 2025TIP3   OH2 6038   6.422   2.912   4.005 -0.0496 -0.5180  0.1254
 2025TIP3    H1 6039   6.344   2.877   4.048 -1.3600  1.9776 -0.0605
 2025TIP3    H2 6040   6.466   2.964   4.073 -0.2452  0.5971 -0.5799
 2026TIP3   OH2 6041   3.616   5.725   5.292 -0.0513 -0.5912 -0.2637
 2026TIP3    H1 6042   3.636   5.771   5.211  1.0410  0.4860  0.5864
 2026TIP3    H2 6043   3.603   5.794   5.357  3.2126 -1.3460  1.4270
 2027TIP3   OH2 6044   6.283   2.127   1.374 -0.9139  0.0445 -0.2778
 2027TIP3    H1 6045   6.371   2.160   1.393  0.5580 -1.5031 -3.5732
 2027TIP3    H2 6046   6.234   2.206   1.348  0.6792  0.5601 -1.9967
 2028TIP3   OH2 6047   2.147   5.595   2.361  0.2948 -0.2303 -0.0448
 2028TIP3    H1 6048   2.118   5.686   2.371  1.1936  0.0062  0.5838
 2028TIP3    H2 6049   2.242   5.600   2.367  0.4668 -1.0124 -1.7949
 2029TIP3   OH2 6050   0.832   3.445   2.313  0.3406  0.1673 -0.1770
 2029TIP3    H1 6051   0.803   3.522   2.362 -0.0845 -0.4712  0.6077
 2029TIP3    H2 6052   0.926   3.440   2.329  0.3072  0.3199  0.0780
 2030TIP3   OH2 6053   5.593   0.857   5.277 -0.5519  0.1994 -0.2740
 2030TIP3    H1 6054   5.635   0.773   5.295  0.3224  0.5385 -0.6797
 2030TIP3    H2 6055   5.508   0.851   5.321  0.2412 -0.1982  1.2782
 2031TIP3   OH2 6056   5.192   5.118   5.333 -0.2185 -0.0665 -0.0868
 2031TIP3    H1 6057   5.157   5.035   5.299 -1.8368  1.0605 -1.3131
 2031TIP3    H2 6058   5.144   5.132   5.415 -1.0704  0.4043 -0.6602
 2032TIP3   OH2 6059   0.891   4.016   0.566 -0.4199 -0.1705 -0.2126
 2032TIP3    H1 6060   0.885   3.971   0.650  0.5754 -0.9957 -0.5701
 2032TIP3    H2 6061   0.907   3.947   0.502 -2.1633  0.3237 -1.2584
 2033TIP3   OH2 6062   5.343   2.103   3.684  0.0953 -0.4359 -0.2346
 2033TIP3    H1 6063   5.360   2.009   3.697  0.6932 -0.2661  0.2044
 2033TIP3    H2 6064   5.274   2.105   3.618  0.5352 -1.1736 -0.7331
 2034TIP3   OH2 6065   2.149   4.837   2.890 -0.2850  0.0789  0.1297
 2034TIP3    H1 6066   2.116   4.802   2.807  0.3055  1.3433 -0.6615
 2034TIP3    H2 6067   2.189   4.921   2.867  2.6555 -0.8979  1.1630
 2035TIP3   OH2 6068   2.424   5.034   3.404 -0.3306 -0.2231 -0.1968
 2035TIP3    H1 6069   2.476   5.086   3.343  1.4476 -0.1681  1.2824
 2035TIP3    H2 6070   2.401   5.095   3.474 -2.0031 -0.3826 -0.5683
 2036TIP3   OH2 6071   3.052   1.297   4.792  0.0332  0.5682  0.1885
 2036TIP3    H1 6072   3.124   1.236   4.775 -0.8962  0.0836 -2.6613
 2036TIP3    H2 6073   3.003   1.256   4.863 -0.7799 -2.3675 -1.8458
 2037TIP3   OH2 6074   3.024   3.264   4.024 -0.8102 -0.1554  0.0220
 2037TIP3    H1 6075   3.112   3.259   4.061 -0.4900  1.1508 -0.4957
 2037TIP3    H2 6076   3.029   3.218   3.940 -0.7340 -0.4361  0.1801
 2038TIP3   OH2 6077   3.722   3.698   0.152  0.7369  0.6916  0.2800
 2038TIP3    H1 6078   3.634   3.684   0.116  0.9986  1.8089 -0.8758
 2038TIP3    H2 6079   3.728   3.636   0.225  0.1764 -1.7540 -1.6141
 2039TIP3   OH2 6080   4.464   1.949   2.726  0.1955 -0.3114  0.1063
 2039TIP3    H1 6081   4.541   1.898   2.750  0.5130 -0.0583 -0.3511
 2039TIP3    H2 6082   4.496   2.012   2.661 -0.4300 -0.3251 -0.2268
 2040TIP3   OH2 6083   6.726   4.265   0.428 -0.6152 -0.0869  0.7790
 2040TIP3    H1 6084   6.807   4.310   0.452  0.3150 -1.2515 -0.0010
 2040TIP3    H2 6085   6.702   4.215   0.507 -1.4120  1.3805  1.4956
 2041TIP3   OH2 6086   1.782   2.164   4.990  0.5025  0.3778 -0.0233
 2041TIP3    H1 6087   1.800   2.252   5.023 -1.4668  0.5417  0.7762
 2041TIP3    H2 6088   1.695   2.144   5.024  1.5120 -2.5252  1.1162
 2042TIP3   OH2 6089   4.298   2.454   2.214  0.1747  0.0430  0.4089
 2042TIP3    H1 6090   4.208   2.421   2.210  0.8137 -1.7651  0.4105
 2042TIP3    H2 6091   4.289   2.548   2.198 -1.5318 -0.3661 -1.4612
 2043TIP3   OH2 6092   1.284   1.243   2.234  0.1059 -0.1839  0.5478
 2043TIP3    H1 6093   1.360   1.264   2.180  0.0406  1.5672  1.1053
 2043TIP3    H2 6094   1.318   1.187   2.303  0.7394 -0.0395  0.3563
 2044TIP3   OH2 6095   4.369   2.461   4.629  0.1428  0.4581 -0.1229
 2044TIP3    H1 6096   4.458   2.453   4.596  0.0758  1.1769 -0.4958
 2044TIP3    H2 6097   4.352   2.556   4.631 -0.0258  0.4198  1.5309
 2045TIP3   OH2 6098   2.640   2.679   4.051 -0.1730  0.1361  0.1755
 2045TIP3    H1 6099   2.697   2.708   3.979  0.8246  0.1893  0.9599
 2045TIP3    H2 6100   2.600   2.760   4.083  1.3331  0.4853  1.2896
 2046TIP3   OH2 6101   5.521   5.852   3.923 -0.1226 -0.1077 -0.1738
 2046TIP3    H1 6102   5.606   5.895   3.913 -0.1549 -0.2842 -1.3490
 2046TIP3    H2 6103   5.458   5.920   3.898 -0.3842  0.2730  1.4595
 2047TIP3   OH2 6104   5.391   5.817   1.256  0.2100 -0.0276 -0.5831
 2047TIP3    H1 6105   5.467   5.778   1.298  0.4040  1.7284  0.8140
 2047TIP3    H2 6106   5.318   5.760   1.280  0.7261 -0.4555  0.0045
 2048TIP3   OH2 6107   3.168   1.433   2.502 -0.1802  0.5141 -0.1019
 2048TIP3    H1 6108   3.076   1.449   2.523  0.1014  1.7189  0.2644
 2048TIP3    H2 6109   3.182   1.341   2.525 -0.9650  0.6684  1.0507
 2049TIP3   OH2 6110   1.904   3.719   1.794 -0.4716 -0.1497 -0.0332
 2049TIP3    H1 6111   1.940   3.770   1.722 -1.1290 -1.2133 -1.1533
 2049TIP3    H2 6112   1.841   3.660   1.752 -0.5984 -1.0485  1.3653
 2050TIP3   OH2 6113   7.153   2.997   3.736 -0.7491  0.2976  0.4781
 2050TIP3    H1 6114   7.176   3.034   3.651  0.7813 -0.1033  0.7016
 2050TIP3    H2 6115   7.220   2.931   3.753  0.1536  1.6945  2.8681
 2051TIP3   OH2 6116   2.000   1.350   0.537  0.0760 -0.2672 -0.5217
 2051TIP3    H1 6117   1.924   1.361   0.479 -0.7337 -0.7532  0.4198
 2051TIP3    H2 6118   2.020   1.439   0.566 -0.0746 -0.1223 -0.8460
 2052TIP3   OH2 6119   1.591   2.463   5.318 -0.4558  0.3199 -0.3793
 2052TIP3    H1 6120   1.550   2.498   5.397 -1.8226 -0.9651 -0.4725
 2052TIP3    H2 6121   1.661   2.407   5.350 -1.3112 -0.5837 -0.0056
 2053TIP3   OH2 6122   3.695   3.285   5.053  0.5914  0.2061  0.4481
 2053TIP3    H1 6123   3.681   3.347   4.981  0.3053 -0.6309 -0.2408
 2053TIP3    H2 6124   3.789   3.286   5.067  0.8225 -0.5664 -0.8373
 2054TIP3   OH2 6125   5.065   5.447   0.907  0.0799  0.0603  0.6739
 2054TIP3    H1 6126   5.060   5.442   1.002  0.4728  0.5224  0.7225
 2054TIP3    H2 6127   4.995   5.508   0.882  0.5929  0.6799  0.7447
 2055TIP3   OH2 6128   7.191   4.991   2.800 -0.1540 -0.3057 -0.0003
 2055TIP3    H1 6129   7.201   5.073   2.752  1.2367  1.0436  2.4277
 2055TIP3    H2 6130   7.102   4.995   2.836 -0.3964 -0.2699 -0.6006
 2056TIP3   OH2 6131   5.458   4.629   2.730 -0.2959  0.5940 -0.1316
 2056TIP3    H1 6132   5.493   4.674   2.654 -2.0863  0.7918 -0.8829
 2056TIP3    H2 6133   5.451   4.697   2.797  3.0986  0.0509  0.9590
 2057TIP3   OH2 6134   2.866   5.861   0.186 -0.0366  0.0313 -0.1701
 2057TIP3    H1 6135   2.840   5.944   0.147  0.2852  0.1133 -0.2126
 2057TIP3    H2 6136   2.961   5.867   0.195 -0.0275 -0.2743 -0.0413
 2058TIP3   OH2 6137   5.083   5.250   2.988  0.1049 -0.2290  0.2807
 2058TIP3    H1 6138   5.119   5.246   3.077  0.1145 -1.0451  0.2533
 2058TIP3    H2 6139   5.157   5.272   2.933  0.4229 -1.1980  0.3079
 2059TIP3   OH2 6140   0.300   3.289   4.933  0.2306 -0.1299 -0.4469
 2059TIP3    H1 6141   0.314   3.305   5.027 -1.3791  0.0064 -0.2003
 2059TIP3    H2 6142   0.314   3.374   4.892 -0.6596  0.1889 -0.1119
 2060TIP3   OH2 6143   2.730   6.344   3.268 -1.0774  0.3122  0.4571
 2060TIP3    H1 6144   2.661   6.405   3.244 -0.7531  0.0471 -1.3279
 2060TIP3    H2 6145   2.694   6.292   3.340 -1.8839  1.6348  1.0264
 2061TIP3   OH2 6146   0.837   4.838   0.993 -0.2987 -0.2225  0.0913
 2061TIP3    H1 6147   0.765   4.874   0.941 -0.1235  0.4206  0.2902
 2061TIP3    H2 6148   0.810   4.748   1.012 -0.6071 -0.2924 -0.6557
 2062TIP3   OH2 6149   1.158   2.922   1.151 -0.4292  0.1891  0.0966
 2062TIP3    H1 6150   1.071   2.959   1.133 -1.5532 -1.3468  1.9038
 2062TIP3    H2 6151   1.150   2.830   1.128  0.2894 -0.2384  1.4413
 2063TIP3   OH2 6152   3.364   2.568   2.566 -0.0414  0.2168 -0.0842
 2063TIP3    H1 6153   3.324   2.626   2.631 -1.8902 -0.2619 -0.7216
 2063TIP3    H2 6154   3.322   2.594   2.483  1.5276  0.1499 -0.9369
 2064TIP3   OH2 6155   5.652   0.030   0.160 -0.2327  0.0514 -0.0574
 2064TIP3    H1 6156   5.586  -0.016   0.212 -0.5063  0.5225  0.0116
 2064TIP3    H2 6157   5.655   0.118   0.198 -0.7595  0.5456 -1.1310
 2065TIP3   OH2 6158   7.016   3.044   0.367  0.2867 -0.1214  0.9120
 2065TIP3    H1 6159   7.008   2.959   0.324  1.6345  0.0712  0.2359
 2065TIP3    H2 6160   6.953   3.040   0.439  0.7440 -1.9228  1.2664
 2066TIP3   OH2 6161   0.096   2.875   4.086 -0.4881  0.0028 -0.4964
 2066TIP3    H1 6162   0.033   2.945   4.074 -0.9120 -0.3746 -0.4856
 2066TIP3    H2 6163   0.043   2.796   4.096 -0.0999 -0.0562  1.5128
 2067TIP3   OH2 6164   1.704   2.776   5.314  0.1411 -0.0503  0.0847
 2067TIP3    H1 6165   1.717   2.684   5.338  1.4288  0.3312  0.9481
 2067TIP3    H2 6166   1.737   2.783   5.225  1.1282 -0.1986  0.4262
 2068TIP3   OH2 6167   7.113   1.882   2.333 -0.4810  0.4162 -0.1329
 2068TIP3    H1 6168   7.131   1.975   2.322  0.4563  0.4597  1.4305
 2068TIP3    H2 6169   7.191   1.847   2.376 -0.4494 -1.2862 -1.4815
 2069TIP3   OH2 6170   2.441   4.607   4.148 -0.2733 -0.0935  0.4213
 2069TIP3    H1 6171   2.486   4.610   4.063 -0.2125 -0.1537  0.4517
 2069TIP3    H2 6172   2.373   4.674   4.141 -1.7974 -1.6647 -0.5343
 2070TIP3   OH2 6173   2.793   0.633   0.446 -0.7015  0.1832 -0.3254
 2070TIP3    H1 6174   2.727   0.677   0.500 -0.4280  1.5174 -1.0377
 2070TIP3    H2 6175   2.835   0.704   0.397  0.3220 -0.7979 -0.9067
 2071TIP3   OH2 6176   6.366   4.015   0.432  0.3261 -0.2665 -0.2428
 2071TIP3    H1 6177   6.424   3.967   0.491 -1.2689 -0.8957  0.8557
 2071TIP3    H2 6178   6.311   4.068   0.489 -0.7810 -0.3619 -1.1772
 2072TIP3   OH2 6179   2.808   1.342   5.882 -0.4424 -0.7934 -0.0125
 2072TIP3    H1 6180   2.845   1.423   5.846  1.0169 -0.6003  1.7359
 2072TIP3    H2 6181   2.853   1.272   5.835 -2.4199 -0.6723 -2.2295
 2073TIP3   OH2 6182   4.861   5.470   3.337 -0.3573  0.0522 -0.2563
 2073TIP3    H1 6183   4.807   5.462   3.416  1.2328  0.0471  0.8799
 2073TIP3    H2 6184   4.883   5.563   3.333  0.3415 -0.1062 -0.1509
 2074TIP3   OH2 6185   0.670   6.782   4.595 -0.2206  0.4988 -0.5362
 2074TIP3    H1 6186   0.663   6.690   4.621 -3.8531  1.3840  2.4121
 2074TIP3    H2 6187   0.752   6.786   4.545  1.8159 -3.7087  1.8612
 2075TIP3   OH2 6188   5.202   1.405   1.160  0.5235 -0.1297 -0.1539
 2075TIP3    H1 6189   5.282   1.458   1.165  0.3851  0.0428  0.2840
 2075TIP3    H2 6190   5.226   1.322   1.202  0.6532 -0.3080 -0.5762
 2076TIP3   OH2 6191   5.319   2.377   4.263 -0.2535 -0.2208 -0.4127
 2076TIP3    H1 6192   5.322   2.340   4.352 -0.5851 -0.8268 -0.6498
 2076TIP3    H2 6193   5.234   2.349   4.229 -1.4175  2.3758  0.0900
 2077TIP3   OH2 6194   5.834   3.127   4.167  0.1223  0.0438 -0.1595
 2077TIP3    H1 6195   5.924   3.129   4.199 -0.7586 -1.2173  2.7739
 2077TIP3    H2 6196   5.809   3.219   4.160  0.9481  0.4076  1.2849
 2078TIP3   OH2 6197   4.151   0.348   2.329  0.1049  0.1140 -0.6314
 2078TIP3    H1 6198   4.190   0.262   2.348 -0.0466 -0.2243 -1.7332
 2078TIP3    H2 6199   4.218   0.411   2.356  0.6029 -0.3859 -0.6572
 2079TIP3   OH2 6200   0.309   6.037   5.566  0.3351 -0.3715 -0.4022
 2079TIP3    H1 6201   0.335   6.129   5.563  0.6484 -0.4926 -1.9298
 2079TIP3    H2 6202   0.213   6.039   5.558  0.0320 -0.0915  2.2082
 2080TIP3   OH2 6203   1.371   4.185   1.024  0.4024 -0.1881  0.0595
 2080TIP3    H1 6204   1.463   4.165   1.039  1.0378  2.1456 -0.3469
 2080TIP3    H2 6205   1.324   4.131   1.088  2.1801  0.0968  1.7044
 2081TIP3   OH2 6206   7.152   2.130   0.624 -0.4800  0.6080 -0.4976
 2081TIP3    H1 6207   7.194   2.149   0.540  0.0462  1.0543 -0.1381
 2081TIP3    H2 6208   7.134   2.036   0.621  1.4955  0.1979 -0.2410
 2082TIP3   OH2 6209   4.709   3.507   4.100 -0.0694 -0.3757 -0.2138
 2082TIP3    H1 6210   4.724   3.589   4.052 -0.7913  0.4936  0.9972
 2082TIP3    H2 6211   4.792   3.460   4.093  1.1813  1.5216  1.0482
 2083TIP3   OH2 6212   2.969   5.009   5.346  0.0224  0.6253  0.3564
 2083TIP3    H1 6213   2.976   4.914   5.337  2.0190  0.7635  0.1133
 2083TIP3    H2 6214   2.876   5.024   5.366 -0.1973 -1.4156  1.0936
 2084TIP3   OH2 6215   5.960   4.251   1.528 -0.2520 -0.3280 -0.1699
 2084TIP3    H1 6216   5.903   4.314   1.484  0.7436  0.7910  0.0710
 2084TIP3    H2 6217   5.989   4.192   1.459  1.5665  1.6019 -1.1867
 2085TIP3   OH2 6218   5.120   1.967   0.024 -0.3189  0.4898 -0.8605
 2085TIP3    H1 6219   5.094   1.898  -0.037 -1.1788  0.8255 -0.8899
 2085TIP3    H2 6220   5.204   1.938   0.058 -0.9487 -0.8860 -0.4002
 2086TIP3   OH2 6221   1.496   3.012   1.666  0.0508 -0.3810 -0.2609
 2086TIP3    H1 6222   1.533   3.088   1.623  1.7470 -0.6523  0.6150
 2086TIP3    H2 6223   1.548   3.002   1.746 -2.0730 -0.6924  1.1717
 2087TIP3   OH2 6224   7.038   4.748   2.046 -0.7949  0.0271 -0.1654
 2087TIP3    H1 6225   6.948   4.776   2.058 -0.5781  0.1633  1.3114
 2087TIP3    H2 6226   7.052   4.682   2.113 -0.0041 -0.5313 -0.8546
 2088TIP3   OH2 6227   4.286   1.847   1.880  0.2939  0.1332  0.5846
 2088TIP3    H1 6228   4.358   1.909   1.863 -1.9946  2.2972 -2.2366
 2088TIP3    H2 6229   4.219   1.900   1.923 -1.6820 -0.2953 -1.7592
 2089TIP3   OH2 6230   3.026   3.414   0.420 -0.2547 -0.1952 -0.4817
 2089TIP3    H1 6231   2.960   3.467   0.376  0.1200 -1.0550 -2.1752
 2089TIP3    H2 6232   2.984   3.330   0.434  0.2407 -0.5345 -0.9632
 2090TIP3   OH2 6233   4.946   5.741   0.058  0.3453  0.0261  0.3198
 2090TIP3    H1 6234   4.909   5.774   0.140  0.9074  2.2807 -0.2597
 2090TIP3    H2 6235   4.923   5.808  -0.006 -0.2322 -1.7716 -1.4375
 2091TIP3   OH2 6236   6.586   6.745   2.976 -0.0513 -0.6872  0.3728
 2091TIP3    H1 6237   6.568   6.819   3.034 -0.6465 -0.5814  0.0515
 2091TIP3    H2 6238   6.646   6.690   3.027  1.1464  0.4588  0.2624
 2092TIP3   OH2 6239   2.277   0.574   2.020  0.2501 -0.2141 -0.0598
 2092TIP3    H1 6240   2.219   0.504   1.990 -1.7495 -0.1000  3.0730
 2092TIP3    H2 6241   2.336   0.530   2.082  0.8445  0.3933 -0.1888
 2093TIP3   OH2 6242   5.288   6.400   2.224 -0.4276 -0.3299  0.1732
 2093TIP3    H1 6243   5.276   6.442   2.309  2.7889 -0.6856  0.9381
 2093TIP3    H2 6244   5.281   6.471   2.160 -0.3351  0.4204  0.9831
 2094TIP3   OH2 6245   2.571   3.361   1.266  0.1433  0.7658  0.4235
 2094TIP3    H1 6246   2.523   3.323   1.193  0.6291 -1.6820  1.2970
 2094TIP3    H2 6247   2.513   3.430   1.299 -1.2772  0.1000 -0.5974
 2095TIP3   OH2 6248   4.135   3.845   2.244 -0.0672 -0.3948  0.5426
 2095TIP3    H1 6249   4.190   3.918   2.216 -1.8793  0.9959  0.4359
 2095TIP3    H2 6250   4.127   3.790   2.166 -0.7314  0.6478 -0.1478
 2096TIP3   OH2 6251   0.169   5.569   0.712 -0.0914  0.3299 -0.3363
 2096TIP3    H1 6252   0.116   5.649   0.720 -0.9929 -0.0427 -2.0830
 2096TIP3    H2 6253   0.237   5.579   0.778 -1.1641  1.7677  0.6282
 2097TIP3   OH2 6254   0.971   0.979   2.878  0.6804  0.1276 -0.1586
 2097TIP3    H1 6255   1.001   0.888   2.872  2.0940  0.6143 -1.3188
 2097TIP3    H2 6256   0.935   0.998   2.791  2.3743  1.2611 -0.6842
 2098TIP3   OH2 6257   6.853   6.120   3.421  0.6576 -0.5268 -0.0488
 2098TIP3    H1 6258   6.906   6.063   3.365 -2.3865 -1.4531 -2.2663
 2098TIP3    H2 6259   6.805   6.059   3.478  0.4133  0.1355  0.4676
 2099TIP3   OH2 6260   4.015   1.251   1.997 -0.1854  0.1067 -0.1901
 2099TIP3    H1 6261   3.968   1.170   2.015 -2.3378  1.5553  1.1336
 2099TIP3    H2 6262   3.980   1.282   1.914  0.1788  0.0114 -0.3829
 2100TIP3   OH2 6263   5.097   4.808   0.810  0.3515 -0.2590  0.1586
 2100TIP3    H1 6264   5.073   4.809   0.718  0.2205  0.7326  0.1884
 2100TIP3    H2 6265   5.057   4.728   0.845 -1.1381  0.2774 -0.2471
 2101TIP3   OH2 6266   5.051   6.541   3.891 -0.0356  0.3206  0.2421
 2101TIP3    H1 6267   4.989   6.472   3.868  0.5772 -0.2623  0.3121
 2101TIP3    H2 6268   4.996   6.613   3.924 -0.7993  0.4428 -1.1863
 2102TIP3   OH2 6269   3.129   5.549   2.965  0.0460 -0.1624  0.0469
 2102TIP3    H1 6270   3.180   5.473   2.991 -1.0096 -0.5026  1.1813
 2102TIP3    H2 6271   3.056   5.513   2.915  0.3589  0.2503 -0.7404
 2103TIP3   OH2 6272   2.810   5.961   0.444 -0.0220  0.0009 -0.0080
 2103TIP3    H1 6273   2.819   5.906   0.367 -2.7171  0.6315 -0.8819
 2103TIP3    H2 6274   2.761   5.907   0.506  2.0473 -0.4739  1.3405
 2104TIP3   OH2 6275   0.702   5.690   2.418 -0.1025 -0.0151 -0.4907
 2104TIP3    H1 6276   0.723   5.783   2.412  0.6211 -0.1972 -1.0328
 2104TIP3    H2 6277   0.608   5.687   2.431 -0.0844  0.8033 -0.1081
 2105TIP3   OH2 6278   2.259   4.413   1.852  0.5145 -0.1319 -0.5628
 2105TIP3    H1 6279   2.239   4.504   1.830 -0.3493 -0.1734 -0.0047
 2105TIP3    H2 6280   2.347   4.398   1.816  0.7010  0.9430 -0.5927
 2106TIP3   OH2 6281   6.039   2.283   3.628 -0.0943 -0.1841  0.3058
 2106TIP3    H1 6282   6.084   2.312   3.548  0.8274  0.0302  0.8844
 2106TIP3    H2 6283   5.965   2.343   3.637 -0.7922 -0.8122 -0.9023
 2107TIP3   OH2 6284   5.643   5.286   2.816 -0.3377 -0.2300  0.1211
 2107TIP3    H1 6285   5.727   5.260   2.853  0.7812  2.0144 -0.6365
 2107TIP3    H2 6286   5.578   5.250   2.876  1.2298 -0.5350  1.7248
 2108TIP3   OH2 6287   4.290   5.417   4.369  0.1830  0.0339 -0.0653
 2108TIP3    H1 6288   4.275   5.331   4.329  0.4227 -0.4618  0.8906
 2108TIP3    H2 6289   4.350   5.399   4.442  0.5209  1.0705 -0.0837
 2109TIP3   OH2 6290   5.403   4.789   5.273  0.0397  0.2188  0.5950
 2109TIP3    H1 6291   5.340   4.844   5.227  2.2998  0.2063 -2.9077
 2109TIP3    H2 6292   5.479   4.846   5.286  0.5281 -0.6542  1.7101
 2110TIP3   OH2 6293   2.674   1.659   4.330  0.3454 -0.5375 -0.6031
 2110TIP3    H1 6294   2.719   1.683   4.411 -1.4217 -0.1547  0.3228
 2110TIP3    H2 6295   2.692   1.731   4.270 -1.4353  1.1876  0.7703
 2111TIP3   OH2 6296   4.175   2.984   4.915 -0.2966  0.2320  0.0153
 2111TIP3    H1 6297   4.129   2.900   4.923 -0.3613  0.3496  1.0234
 2111TIP3    H2 6298   4.131   3.041   4.978 -0.3397  1.0658 -0.7569
 2112TIP3   OH2 6299   3.434   4.716   3.229  0.0304 -0.4410 -0.0120
 2112TIP3    H1 6300   3.517   4.697   3.274 -0.9532 -0.4444  1.8703
 2112TIP3    H2 6301   3.383   4.636   3.236 -1.3506  0.5185  1.6774
 2113TIP3   OH2 6302   7.145   1.788   3.056  0.3674 -0.6078 -0.2661
 2113TIP3    H1 6303   7.217   1.850   3.068 -0.0153 -0.2561  0.2741
 2113TIP3    H2 6304   7.071   1.842   3.028 -0.6925 -0.3853  2.6060
 2114TIP3   OH2 6305   4.843   1.316   1.841  0.2703 -0.1876 -0.0651
 2114TIP3    H1 6306   4.869   1.239   1.892 -0.3810 -1.2637 -1.2909
 2114TIP3    H2 6307   4.922   1.370   1.839  0.7604 -0.8287  0.7892
 2115TIP3   OH2 6308   5.677   5.573   5.071 -0.2193 -0.0736  0.1517
 2115TIP3    H1 6309   5.656   5.538   5.158 -2.9780  0.7956 -0.0686
 2115TIP3    H2 6310   5.632   5.513   5.010  0.3120  0.2673 -0.5922
 2116TIP3   OH2 6311   5.638   4.405   2.691  0.0318  0.2302 -0.1234
 2116TIP3    H1 6312   5.713   4.385   2.748  0.4913  1.4468 -0.2780
 2116TIP3    H2 6313   5.570   4.436   2.751 -0.8839 -2.1207  0.1878
 2117TIP3   OH2 6314   2.201   0.701   5.435  0.0010 -0.5375  0.4953
 2117TIP3    H1 6315   2.214   0.663   5.522  0.5799 -3.9524 -0.9162
 2117TIP3    H2 6316   2.271   0.663   5.381  0.0216  1.9139 -1.3780
 2118TIP3   OH2 6317   2.233   5.825   2.568  0.3695  0.0808  0.1258
 2118TIP3    H1 6318   2.292   5.899   2.556  2.0668 -1.0975  0.8590
 2118TIP3    H2 6319   2.283   5.761   2.619 -1.2806 -1.2923  0.1413
 2119TIP3   OH2 6320   4.660   0.246   2.092 -0.5548  0.0045  0.2751
 2119TIP3    H1 6321   4.715   0.274   2.019  0.8226 -0.1975  1.2098
 2119TIP3    H2 6322   4.679   0.308   2.162 -0.9048 -0.5645  0.8870
 2120TIP3   OH2 6323   4.441   6.361   0.798 -0.3132  0.0390 -0.3463
 2120TIP3    H1 6324   4.504   6.363   0.871 -1.9897 -1.7916  1.2997
 2120TIP3    H2 6325   4.494   6.373   0.720  1.6642  1.5475  1.1211
 2121TIP3   OH2 6326   4.336   3.353   1.286 -0.1462  0.0346 -0.0139
 2121TIP3    H1 6327   4.241   3.345   1.288 -0.1288 -0.0940  0.2586
 2121TIP3    H2 6328   4.363   3.291   1.218 -0.3290  0.7868 -0.7936
 2122TIP3   OH2 6329   6.786   6.048   1.893  0.1016 -0.0805  0.0723
 2122TIP3    H1 6330   6.698   6.041   1.930  0.5534 -0.0833  1.1929
 2122TIP3    H2 6331   6.821   5.959   1.900  0.9295  0.3219  1.6067
 2123TIP3   OH2 6332   3.706   6.273   0.309  0.0206 -0.3997  0.3411
 2123TIP3    H1 6333   3.764   6.318   0.370  1.5662 -3.2443  1.1444
 2123TIP3    H2 6334   3.755   6.270   0.226  0.2005 -1.0381  0.4592
 2124TIP3   OH2 6335   0.757   5.589   5.713  0.0077  0.8687  0.4837
 2124TIP3    H1 6336   0.676   5.594   5.662 -0.5634  0.1438  1.3022
 2124TIP3    H2 6337   0.826   5.607   5.649 -0.6382 -0.6119 -0.6941
 2125TIP3   OH2 6338   3.307   0.624   4.582  0.1042  0.3088  0.2192
 2125TIP3    H1 6339   3.264   0.702   4.547 -1.1735 -1.0773 -1.5187
 2125TIP3    H2 6340   3.299   0.633   4.677 -0.3972  2.0675  0.0541
 2126TIP3   OH2 6341   1.422   0.733   4.278 -0.2628  0.2232 -0.0785
 2126TIP3    H1 6342   1.342   0.713   4.326 -0.0307  0.2435  0.3232
 2126TIP3    H2 6343   1.396   0.731   4.185 -1.0164  1.4763  0.0780
 2127TIP3   OH2 6344   0.971   4.514   1.321 -0.1912  0.1609  0.4160
 2127TIP3    H1 6345   1.002   4.601   1.346 -0.7871 -0.0882  2.1674
 2127TIP3    H2 6346   1.049   4.459   1.324 -0.0615  0.3562  0.6815
 2128TIP3   OH2 6347   4.608   3.666   5.365  0.2144 -0.1398  0.2259
 2128TIP3    H1 6348   4.686   3.666   5.309  0.2087 -1.1813  0.2031
 2128TIP3    H2 6349   4.641   3.686   5.452  0.4164  0.0436  0.1094
 2129TIP3   OH2 6350   1.662   3.486   4.117  0.5044 -0.1866 -0.0536
 2129TIP3    H1 6351   1.603   3.556   4.088 -0.1057  0.3076  2.2067
 2129TIP3    H2 6352   1.605   3.418   4.152  1.1652 -1.2486 -0.9550
 2130TIP3   OH2 6353   2.045   4.324   1.476  0.4197 -0.7800  0.2524
 2130TIP3    H1 6354   2.007   4.312   1.563  0.5473 -0.1861  0.3948
 2130TIP3    H2 6355   2.053   4.235   1.441 -0.1102 -0.9850  0.6386
 2131TIP3   OH2 6356   5.908   3.351   3.869  0.3449  0.0211 -0.3028
 2131TIP3    H1 6357   5.861   3.412   3.926 -0.7144  0.0548 -1.1768
 2131TIP3    H2 6358   5.998   3.383   3.869  0.1858  0.4972  0.6991
 2132TIP3   OH2 6359   3.197   3.242   4.344 -0.4707 -0.1145 -0.1030
 2132TIP3    H1 6360   3.121   3.300   4.347 -2.0979 -1.9541 -2.5115
 2132TIP3    H2 6361   3.264   3.293   4.298 -0.9401  0.7501  0.1380
 2133TIP3   OH2 6362   1.303   1.894   0.621 -0.5166 -0.0744  0.2483
 2133TIP3    H1 6363   1.244   1.922   0.691 -0.8101  0.1580 -0.0894
 2133TIP3    H2 6364   1.391   1.910   0.656 -0.5644 -2.1874  1.5098
 2134TIP3   OH2 6365   6.099   3.212   2.266 -0.5301 -0.2552 -0.1410
 2134TIP3    H1 6366   6.108   3.251   2.353 -0.3350  1.4920 -0.9137
 2134TIP3    H2 6367   6.006   3.219   2.246 -0.4814 -0.1059 -0.3183
 2135TIP3   OH2 6368   5.896   6.733   2.595  0.2728  0.9275 -0.5991
 2135TIP3    H1 6369   5.906   6.640   2.613  2.1413  0.4649 -3.3423
 2135TIP3    H2 6370   5.935   6.776   2.671  1.7571 -0.6341 -0.3898
 2136TIP3   OH2 6371   0.153   1.727   1.669 -0.1796 -0.2903  0.5669
 2136TIP3    H1 6372   0.084   1.762   1.614 -0.2191 -1.3238 -0.0771
 2136TIP3    H2 6373   0.225   1.707   1.608  0.4982  0.3139  1.1548
 2137TIP3   OH2 6374   3.574   5.537   3.841  0.3561  0.0332 -0.0099
 2137TIP3    H1 6375   3.572   5.469   3.774  1.0314 -0.2856  0.2929
 2137TIP3    H2 6376   3.664   5.569   3.841  0.0943  0.7907 -0.0069
 2138TIP3   OH2 6377   4.899   2.027   3.395  0.3674 -0.2604 -0.4886
 2138TIP3    H1 6378   4.978   2.045   3.446  0.1099 -0.2315 -0.0992
 2138TIP3    H2 6379   4.826   2.046   3.455  0.0665 -0.4309 -0.7959
 2139TIP3   OH2 6380   6.570   6.018   1.262 -0.3432  0.0739 -0.0400
 2139TIP3    H1 6381   6.613   6.068   1.192  0.0342  1.8803  1.4215
 2139TIP3    H2 6382   6.635   5.951   1.285  0.2700  0.5913 -0.2172
 2140TIP3   OH2 6383   0.587   1.350   0.078 -0.5043  0.0486 -0.1136
 2140TIP3    H1 6384   0.629   1.423   0.124 -0.3784 -0.7133  1.0372
 2140TIP3    H2 6385   0.652   1.321   0.014 -0.4648  0.7837 -0.4152
 2141TIP3   OH2 6386   5.443   2.741   1.745  0.0830 -0.4431  0.4294
 2141TIP3    H1 6387   5.509   2.808   1.729  0.1557 -0.7243 -0.5379
 2141TIP3    H2 6388   5.469   2.668   1.689 -1.6895 -0.1018 -0.9561
 2142TIP3   OH2 6389   0.998   5.431   1.448 -0.0296  0.3271  0.0100
 2142TIP3    H1 6390   0.943   5.495   1.403  1.0533  0.5686 -1.0350
 2142TIP3    H2 6391   1.086   5.469   1.447  0.4648 -0.7487  0.2056
 2143TIP3   OH2 6392   3.361   4.251   4.606  0.2374 -0.3636 -0.6066
 2143TIP3    H1 6393   3.270   4.275   4.589 -0.1968 -0.5455  1.2683
 2143TIP3    H2 6394   3.371   4.165   4.565 -0.5241 -0.4795 -0.5677
 2144TIP3   OH2 6395   3.724   0.160   4.079 -0.1093 -0.7747  0.0632
 2144TIP3    H1 6396   3.815   0.133   4.074 -0.1112 -0.7195 -0.2962
 2144TIP3    H2 6397   3.725   0.236   4.137  0.0004 -1.0826  0.4655
 2145TIP3   OH2 6398   3.335   4.454   3.278 -0.3804  0.3293  0.2522
 2145TIP3    H1 6399   3.419   4.414   3.300 -0.4387  0.8568  1.5029
 2145TIP3    H2 6400   3.272   4.415   3.339 -1.2263 -0.6221 -1.1504
 2146TIP3   OH2 6401   6.497   2.728   0.678 -0.0955  0.0383  0.1344
 2146TIP3    H1 6402   6.472   2.804   0.731  0.1680  0.3920 -0.2401
 2146TIP3    H2 6403   6.555   2.677   0.734  0.0847  0.3437  0.2271
 2147TIP3   OH2 6404   0.310   5.474   4.572  0.4098  0.3958  0.4884
 2147TIP3    H1 6405   0.256   5.499   4.647 -0.3235 -0.0065  0.1084
 2147TIP3    H2 6406   0.307   5.378   4.572  0.5340  0.3921  0.0373
 2148TIP3   OH2 6407   4.727   5.507   0.753  0.0079  0.3462 -0.4479
 2148TIP3    H1 6408   4.776   5.429   0.727  0.7090  0.9214 -0.8782
 2148TIP3    H2 6409   4.793   5.568   0.784  0.0585  2.3662 -4.0207
 2149TIP3   OH2 6410   1.903   3.078   5.090  0.3760  0.0218 -0.2903
 2149TIP3    H1 6411   1.989   3.121   5.087  0.0222  0.7932  0.2054
 2149TIP3    H2 6412   1.844   3.145   5.125  0.3226 -1.6703  3.3645
 2150TIP3   OH2 6413   2.473   1.467   3.821  0.2088 -0.0847  0.1192
 2150TIP3    H1 6414   2.502   1.428   3.738  0.2636  2.0967 -0.9710
 2150TIP3    H2 6415   2.551   1.470   3.875  0.2933 -1.0493  0.0672
 2151TIP3   OH2 6416   4.035   1.444   2.865  0.2019 -0.2026 -0.1584
 2151TIP3    H1 6417   4.102   1.444   2.798 -0.3571  1.7713 -0.7892
 2151TIP3    H2 6418   4.024   1.537   2.889 -0.9959 -0.6527  1.2353
 2152TIP3   OH2 6419   5.898   5.577   2.983 -0.1537 -0.0214 -0.0407
 2152TIP3    H1 6420   5.974   5.519   2.985 -0.1857 -0.1943 -1.8496
 2152TIP3    H2 6421   5.921   5.649   3.041  0.5523 -1.0444  0.9900
 2153TIP3   OH2 6422   1.092   3.127   2.601 -0.0822 -0.3191 -0.1676
 2153TIP3    H1 6423   1.132   3.204   2.642 -1.7395 -0.7070  2.4551
 2153TIP3    H2 6424   1.020   3.162   2.549 -0.1859  0.0008  0.1815
 2154TIP3   OH2 6425   1.334   2.875   3.593  0.0647 -0.3194  0.5645
 2154TIP3    H1 6426   1.424   2.889   3.622  0.4330 -1.2994 -0.0514
 2154TIP3    H2 6427   1.325   2.930   3.515 -0.5357  1.3428  1.7324
 2155TIP3   OH2 6428   0.806   0.071   5.061 -0.2893  0.2580 -0.0387
 2155TIP3    H1 6429   0.794   0.118   5.144 -0.6414 -1.7323  1.0945
 2155TIP3    H2 6430   0.740   0.001   5.063  0.9266 -0.9868 -1.1418
 2156TIP3   OH2 6431   6.793   2.337   2.424  0.3524 -0.8163 -0.0850
 2156TIP3    H1 6432   6.724   2.378   2.371 -0.9839  0.1118  2.2168
 2156TIP3    H2 6433   6.851   2.409   2.449 -0.1354 -0.8570  1.2576
 2157TIP3   OH2 6434   5.175   4.531   4.116 -0.1200  0.2252 -0.8792
 2157TIP3    H1 6435   5.088   4.570   4.124  0.6366  1.6879  1.2146
 2157TIP3    H2 6436   5.192   4.529   4.022 -2.1705  0.4534 -1.2850
 2158TIP3   OH2 6437   2.886   3.641   0.684 -0.3025  0.1556 -0.1095
 2158TIP3    H1 6438   2.908   3.726   0.646 -0.5438 -0.2084 -1.0917
 2158TIP3    H2 6439   2.814   3.609   0.630  0.2213 -0.9711 -0.1610
 2159TIP3   OH2 6440   4.177   2.590   3.532  0.2678  0.3227 -0.0818
 2159TIP3    H1 6441   4.140   2.627   3.612 -1.9444 -2.8176  0.5433
 2159TIP3    H2 6442   4.248   2.534   3.562  1.9837  2.0166 -0.7818
 2160TIP3   OH2 6443   3.186   6.151   4.296  0.0949  0.1993  0.4349
 2160TIP3    H1 6444   3.129   6.093   4.347  1.2676  0.4765  2.1316
 2160TIP3    H2 6445   3.126   6.212   4.253 -0.9017  0.8786  2.6626
 2161TIP3   OH2 6446   4.351   4.017   4.139 -0.5430 -0.6710 -0.0602
 2161TIP3    H1 6447   4.429   4.001   4.086  0.0310 -2.4685  1.2320
 2161TIP3    H2 6448   4.331   4.110   4.126  3.1563  0.4779  1.3417
 2162TIP3   OH2 6449   4.149   2.511   0.720  0.0413 -0.3360  0.4529
 2162TIP3    H1 6450   4.130   2.510   0.626 -3.0153 -0.1613  0.9818
 2162TIP3    H2 6451   4.230   2.461   0.728 -0.5175 -1.8382 -2.0898
 2163TIP3   OH2 6452   4.680   5.051   4.825 -0.5621 -0.2392  0.3263
 2163TIP3    H1 6453   4.685   4.955   4.823 -3.2672 -0.6163  3.4707
 2163TIP3    H2 6454   4.588   5.070   4.808 -0.1500  1.7960  0.1721
 2164TIP3   OH2 6455   0.978   4.991   2.877 -0.2984 -0.2782 -0.4167
 2164TIP3    H1 6456   0.896   4.947   2.896  0.2787 -2.2017 -2.0175
 2164TIP3    H2 6457   0.985   5.059   2.944 -3.2879  0.1439 -0.4100
 2165TIP3   OH2 6458   3.370   4.283   1.519 -0.2494  0.0213 -0.1132
 2165TIP3    H1 6459   3.415   4.328   1.590  0.4243  1.1021 -1.1968
 2165TIP3    H2 6460   3.433   4.280   1.447 -1.0447 -0.6998 -0.8179
 2166TIP3   OH2 6461   1.097   2.712   0.525 -0.0295 -0.5332  0.3411
 2166TIP3    H1 6462   1.139   2.705   0.439 -0.4232 -0.1111  0.1132
 2166TIP3    H2 6463   1.029   2.778   0.513  1.5504  1.4099  1.6434
 2167TIP3   OH2 6464   0.747   0.368   3.488  0.8345  0.8908  0.1511
 2167TIP3    H1 6465   0.726   0.282   3.450  0.0796  1.3234 -0.4696
 2167TIP3    H2 6466   0.763   0.424   3.411  1.5830  1.2385  0.5578
 2168TIP3   OH2 6467   4.489   2.066   0.896  0.2418  0.2631 -0.5495
 2168TIP3    H1 6468   4.514   2.145   0.944 -0.7722  0.4921 -0.3807
 2168TIP3    H2 6469   4.507   2.088   0.804  0.6118  0.4350 -0.4392
 2169TIP3   OH2 6470   2.857   2.969   4.010  0.7166  0.4832  0.3389
 2169TIP3    H1 6471   2.840   3.044   4.067  0.1242 -1.4118  2.8221
 2169TIP3    H2 6472   2.923   2.918   4.057  0.1378 -1.2190 -0.6221
 2170TIP3   OH2 6473   0.628   0.956   4.068  0.6781 -0.5842  0.5164
 2170TIP3    H1 6474   0.581   1.029   4.027  0.5057 -0.3301  1.1559
 2170TIP3    H2 6475   0.720   0.980   4.063  0.5938 -0.0913  1.1440
 2171TIP3   OH2 6476   0.862   1.021   2.615  0.6452 -0.4004 -0.0426
 2171TIP3    H1 6477   0.771   0.998   2.633  0.3426  1.5060  1.1689
 2171TIP3    H2 6478   0.871   1.008   2.520 -1.3912  0.8966 -0.4870
 2172TIP3   OH2 6479   0.639   4.200   4.279  0.8594 -0.1944 -0.2564
 2172TIP3    H1 6480   0.680   4.171   4.360  1.7550  0.8918 -0.2933
 2172TIP3    H2 6481   0.562   4.249   4.307  0.1942 -1.2649 -0.1460
 2173TIP3   OH2 6482   6.823   2.354   4.200 -0.1505  0.0660 -0.8284
 2173TIP3    H1 6483   6.795   2.323   4.115 -0.7724 -0.7664 -0.3346
 2173TIP3    H2 6484   6.919   2.345   4.199 -0.1217  0.3933 -1.5498
 2174TIP3   OH2 6485   0.152   2.872   5.255 -0.5972 -0.2198  1.0334
 2174TIP3    H1 6486   0.078   2.924   5.225 -0.6645 -0.0370  1.5053
 2174TIP3    H2 6487   0.223   2.892   5.194 -1.6397 -2.3653 -1.0371
 2175TIP3   OH2 6488   4.457   1.586   2.880 -0.0231  0.4783 -0.0929
 2175TIP3    H1 6489   4.527   1.529   2.912  0.2304  0.4335 -0.7150
 2175TIP3    H2 6490   4.407   1.530   2.821 -0.5674  0.5213  0.3151
 2176TIP3   OH2 6491   4.287   6.297   4.863 -0.1744 -0.1359  0.8447
 2176TIP3    H1 6492   4.370   6.336   4.835 -0.0097 -2.0982 -1.7526
 2176TIP3    H2 6493   4.310   6.210   4.895 -0.9907  0.2071  2.4498
 2177TIP3   OH2 6494   6.695   3.741   1.959  0.5117 -0.0716  0.3456
 2177TIP3    H1 6495   6.670   3.706   1.874 -1.7270  0.5656  0.6897
 2177TIP3    H2 6496   6.687   3.836   1.950 -0.2202 -0.0120  1.3611
 2178TIP3   OH2 6497   5.973   6.772   0.850  0.6946 -0.2090 -0.1982
 2178TIP3    H1 6498   5.994   6.736   0.936 -2.8014  1.0616  1.3964
 2178TIP3    H2 6499   5.940   6.860   0.869  0.2405  0.2941 -2.9210
 2179TIP3   OH2 6500   5.498   3.505   2.362 -0.5523 -0.1658 -1.0413
 2179TIP3    H1 6501   5.482   3.594   2.393 -0.3210 -0.2278 -0.7446
 2179TIP3    H2 6502   5.591   3.489   2.379 -0.8161 -0.8356 -0.1283
 2180TIP3   OH2 6503   0.297   1.759   1.042 -0.4973  0.0987 -0.0363
 2180TIP3    H1 6504   0.320   1.843   1.082  0.2782 -0.8033  1.4926
 2180TIP3    H2 6505   0.229   1.781   0.978 -1.9202  1.6022  1.8869
 2181TIP3   OH2 6506   6.969   3.062   3.925 -0.3405 -0.4217 -0.0480
 2181TIP3    H1 6507   7.034   3.042   3.858 -0.2205 -1.6195  0.4088
 2181TIP3    H2 6508   7.006   3.025   4.005 -2.6358 -3.3634 -0.1919
 2182TIP3   OH2 6509   4.519   3.857   3.653  0.5767 -0.8400  0.0034
 2182TIP3    H1 6510   4.454   3.787   3.660 -1.6772  1.2423  1.8295
 2182TIP3    H2 6511   4.496   3.903   3.572 -0.0669 -0.2818  0.4956
 2183TIP3   OH2 6512   2.473   1.218   0.819 -0.0511  1.0512 -0.6888
 2183TIP3    H1 6513   2.389   1.249   0.785  0.6235  2.3960 -1.2290
 2183TIP3    H2 6514   2.454   1.192   0.909 -1.1588  0.7818 -0.9831
 2184TIP3   OH2 6515   3.146   5.138   1.570  0.2480 -0.0407 -1.0740
 2184TIP3    H1 6516   3.106   5.069   1.517  1.3402  0.6685 -2.9512
 2184TIP3    H2 6517   3.104   5.218   1.540 -1.1977  0.1745  1.2663
 2185TIP3   OH2 6518   2.523   3.879   0.387  0.5195  0.3842  0.2514
 2185TIP3    H1 6519   2.601   3.831   0.356 -0.4263  0.6394 -2.8517
 2185TIP3    H2 6520   2.473   3.813   0.435  2.1739 -0.0099  1.5680
 2186TIP3   OH2 6521   1.036   1.304   3.532  0.0661 -0.0290 -0.0183
 2186TIP3    H1 6522   0.950   1.338   3.556 -0.1125 -0.9391  0.7269
 2186TIP3    H2 6523   1.042   1.316   3.438 -0.3491  1.2069  0.1009
 2187TIP3   OH2 6524   1.089   4.369   0.037  0.1478  0.4143 -0.2515
 2187TIP3    H1 6525   1.084   4.322   0.121  0.7893  2.1717  0.8364
 2187TIP3    H2 6526   1.168   4.333  -0.005  1.3269  1.2901  1.1066
 2188TIP3   OH2 6527   6.684   6.304   0.227  0.1908 -0.7084 -0.5448
 2188TIP3    H1 6528   6.678   6.308   0.322  0.3588 -0.4678 -0.5429
 2188TIP3    H2 6529   6.594   6.318   0.196  0.4028  1.1025 -0.4711
 2189TIP3   OH2 6530   0.051   3.456   2.393  0.1419  0.2334 -0.3524
 2189TIP3    H1 6531   0.034   3.527   2.332  1.4976  0.5585 -0.3872
 2189TIP3    H2 6532  -0.028   3.451   2.447 -0.4590  0.9489 -1.1471
 2190TIP3   OH2 6533   4.791   2.554   2.623  0.4579 -0.6800 -0.0740
 2190TIP3    H1 6534   4.793   2.506   2.706  0.4323 -0.7472 -0.1122
 2190TIP3    H2 6535   4.819   2.490   2.558  0.3468 -0.6656 -0.1361
 2191TIP3   OH2 6536   4.537   5.141   0.234 -0.1569 -0.1462  0.2573
 2191TIP3    H1 6537   4.483   5.103   0.304 -0.4432  1.8872  1.2113
 2191TIP3    H2 6538   4.587   5.067   0.200 -1.4257 -1.5521  1.3149
 2192TIP3   OH2 6539   2.642   3.812   5.580 -0.5956 -0.2648 -0.0950
 2192TIP3    H1 6540   2.733   3.786   5.569 -0.6430  0.4868 -3.2538
 2192TIP3    H2 6541   2.646   3.888   5.638  0.7434 -0.5012  0.1558
 2193TIP3   OH2 6542   5.102   4.181   2.925 -0.1924  0.5111 -0.1373
 2193TIP3    H1 6543   5.114   4.258   2.980  1.2990  0.9483 -1.0321
 2193TIP3    H2 6544   5.149   4.201   2.844 -1.3108 -0.6096 -1.1088
 2194TIP3   OH2 6545   0.464   5.945   5.846 -0.2044  0.0443  0.5153
 2194TIP3    H1 6546   0.536   5.973   5.790 -1.0589  1.4984  0.0838
 2194TIP3    H2 6547   0.388   5.939   5.788 -0.5645 -0.9501  1.0530
 2195TIP3   OH2 6548   2.795   0.536   5.812  0.0794  0.2267 -0.3528
 2195TIP3    H1 6549   2.711   0.489   5.806  0.4380 -0.5042  0.1923
 2195TIP3    H2 6550   2.820   0.552   5.721  0.3977 -1.4813 -0.6026
 2196TIP3   OH2 6551   4.242   2.980   2.441  0.3623 -0.0501  0.4123
 2196TIP3    H1 6552   4.153   2.951   2.461  0.0714 -0.8921 -1.8492
 2196TIP3    H2 6553   4.246   3.070   2.473 -1.7396  0.4445 -0.6085
 2197TIP3   OH2 6554   0.610   5.385   4.477  0.4273  0.0783 -0.2681
 2197TIP3    H1 6555   0.647   5.387   4.566  1.2860 -2.2408 -0.4819
 2197TIP3    H2 6556   0.526   5.430   4.485  0.4908 -0.0466  1.7332
 2198TIP3   OH2 6557   6.804   1.114   3.639 -0.3340  0.2943  0.5590
 2198TIP3    H1 6558   6.747   1.181   3.675 -0.6356  1.0383 -1.1947
 2198TIP3    H2 6559   6.746   1.056   3.590 -0.0552 -1.2002  1.9154
 2199TIP3   OH2 6560   3.219   1.363   3.199  0.5909  0.0170  0.0238
 2199TIP3    H1 6561   3.141   1.406   3.233  0.0743  0.3852 -1.5845
 2199TIP3    H2 6562   3.222   1.386   3.107  2.7041  0.1502  0.0680
 2200TIP3   OH2 6563   1.149   6.567   0.480  0.6812  0.1477 -0.6016
 2200TIP3    H1 6564   1.139   6.598   0.390  0.9631  1.5970 -0.1640
 2200TIP3    H2 6565   1.183   6.643   0.528  1.3412 -0.8360  0.5588
 2201TIP3   OH2 6566   1.434   5.504   3.325  0.2370  0.4356  0.1183
 2201TIP3    H1 6567   1.369   5.475   3.261  0.6770  1.8867 -1.0329
 2201TIP3    H2 6568   1.518   5.478   3.287  0.3992 -1.3528  1.5536
 2202TIP3   OH2 6569   4.962   3.279   2.340  0.6524  0.3802 -0.2949
 2202TIP3    H1 6570   4.956   3.190   2.305 -0.6641  0.6420 -0.7908
 2202TIP3    H2 6571   4.989   3.267   2.431  1.5325 -0.4608 -0.6524
 2203TIP3   OH2 6572   3.412   0.412   5.403 -0.4602 -0.1480  0.5747
 2203TIP3    H1 6573   3.430   0.325   5.439  1.6688  0.2717  0.6639
 2203TIP3    H2 6574   3.352   0.396   5.330 -1.5422 -1.4585  1.6886
 2204TIP3   OH2 6575   0.504   5.795   3.621  0.2186 -0.2087  0.2522
 2204TIP3    H1 6576   0.498   5.842   3.704 -0.3001 -0.9874  0.6716
 2204TIP3    H2 6577   0.572   5.841   3.572  0.2067  0.5433  0.9236
 2205TIP3   OH2 6578   5.761   3.655   0.389  0.7175 -0.2455  0.2212
 2205TIP3    H1 6579   5.687   3.682   0.334  1.1186 -1.1266 -0.7982
 2205TIP3    H2 6580   5.811   3.735   0.403  0.6885 -0.0196 -0.8520
 2206TIP3   OH2 6581   0.358   1.080   1.415  0.1754  0.0740  0.1480
 2206TIP3    H1 6582   0.342   1.126   1.497  2.8134  0.8441  0.3403
 2206TIP3    H2 6583   0.356   0.987   1.438  2.9193  0.2873  1.6427
 2207TIP3   OH2 6584   2.529   6.228   4.835 -0.2314 -0.0760 -0.5268
 2207TIP3    H1 6585   2.475   6.304   4.816 -0.3910 -0.1593 -0.4063
 2207TIP3    H2 6586   2.619   6.257   4.816 -0.5156 -0.8600 -3.7354
 2208TIP3   OH2 6587   3.902   6.287   1.767  0.0986 -0.1145 -0.2300
 2208TIP3    H1 6588   3.836   6.234   1.722 -0.4354 -0.9335  1.4447
 2208TIP3    H2 6589   3.961   6.223   1.806 -0.6274  0.4681  1.9478
 2209TIP3   OH2 6590   5.745   1.738   2.941  0.1130  0.0332 -0.1293
 2209TIP3    H1 6591   5.654   1.716   2.919  0.1698 -2.2197  1.4554
 2209TIP3    H2 6592   5.740   1.826   2.978 -1.4199  0.0267 -0.2491
 2210TIP3   OH2 6593   5.432   1.807   0.773  0.2533 -0.0004 -0.1426
 2210TIP3    H1 6594   5.493   1.741   0.806  0.3340 -0.2508 -0.7815
 2210TIP3    H2 6595   5.346   1.778   0.804  0.4189  0.2019  0.5233
 2211TIP3   OH2 6596   2.059   0.185   0.979  0.0299  0.5752 -0.0249
 2211TIP3    H1 6597   2.144   0.168   0.939  1.0373  1.6900  1.5337
 2211TIP3    H2 6598   2.078   0.243   1.053 -1.5137 -2.1654  2.7868
 2212TIP3   OH2 6599   1.617   2.705   0.199  0.1068 -0.1137  0.2718
 2212TIP3    H1 6600   1.588   2.695   0.289  0.8803 -0.1575  0.5266
 2212TIP3    H2 6601   1.709   2.732   0.206 -0.0050  0.5249 -0.4912
 2213TIP3   OH2 6602   2.382   4.567   0.534 -0.0205  0.1772 -0.3166
 2213TIP3    H1 6603   2.414   4.638   0.478 -0.0929  0.3372 -0.1581
 2213TIP3    H2 6604   2.368   4.609   0.619  1.1701 -0.2878  0.1401
 2214TIP3   OH2 6605   1.880   5.401   0.741 -0.1774 -0.9744  0.0655
 2214TIP3    H1 6606   1.797   5.445   0.755 -0.0124 -0.9723  1.0564
 2214TIP3    H2 6607   1.945   5.471   0.743  0.2195 -1.3141  2.8189
 2215TIP3   OH2 6608   7.118   3.378   1.499  0.4993 -0.1526 -0.3641
 2215TIP3    H1 6609   7.201   3.389   1.453  0.0125  0.8494 -1.0320
 2215TIP3    H2 6610   7.130   3.298   1.550  1.7632 -0.1901 -0.6769
 2216TIP3   OH2 6611   6.242   1.535   0.837  0.8527  0.4470  0.0310
 2216TIP3    H1 6612   6.146   1.541   0.842  0.7054 -0.7756 -0.7740
 2216TIP3    H2 6613   6.264   1.572   0.751  0.7875 -1.6964 -0.9967
 2217TIP3   OH2 6614   5.656   3.303   3.261 -0.0397 -0.2046 -0.6020
 2217TIP3    H1 6615   5.586   3.347   3.309  1.7155  1.2552  0.7385
 2217TIP3    H2 6616   5.650   3.212   3.290  0.8824  0.5882  2.4611
 2218TIP3   OH2 6617   1.566   5.229   3.533 -0.3953 -0.1625  0.4983
 2218TIP3    H1 6618   1.519   5.256   3.454 -0.7613  1.2942  1.1895
 2218TIP3    H2 6619   1.640   5.177   3.501  0.2196  1.4925 -0.8958
 2219TIP3   OH2 6620   3.604   0.706   3.939  0.5849  0.3950 -0.4398
 2219TIP3    H1 6621   3.635   0.796   3.931  0.9001  0.2736 -0.6422
 2219TIP3    H2 6622   3.519   0.713   3.982  0.4967  0.8080 -0.6718
 2220TIP3   OH2 6623   4.793   6.399   5.899  0.1782  0.5575  0.4772
 2220TIP3    H1 6624   4.834   6.338   5.837  0.4711  0.5421  0.6809
 2220TIP3    H2 6625   4.720   6.438   5.850  0.5421  0.7103  0.0433
 2221TIP3   OH2 6626   3.697   5.664   4.156 -0.1008  0.9731  0.4604
 2221TIP3    H1 6627   3.664   5.726   4.220 -0.5151  1.5988 -0.3352
 2221TIP3    H2 6628   3.692   5.710   4.072 -0.3017 -0.0850 -0.1355
 2222TIP3   OH2 6629   2.094   2.882   0.469  0.1123  0.0960  0.4448
 2222TIP3    H1 6630   2.126   2.878   0.559  0.3234 -0.1082  0.3617
 2222TIP3    H2 6631   2.171   2.861   0.416 -0.3898 -1.3512  0.2711
 2223TIP3   OH2 6632   5.348   3.475   4.098  0.4772  0.2692  0.5536
 2223TIP3    H1 6633   5.303   3.509   4.020  2.6610  3.8344  0.6377
 2223TIP3    H2 6634   5.286   3.489   4.170  0.4924  2.2812  0.2250
 2224TIP3   OH2 6635   1.501   3.239   4.151 -0.1549 -0.2065  0.1959
 2224TIP3    H1 6636   1.506   3.202   4.063  0.8673  1.4606 -0.5002
 2224TIP3    H2 6637   1.408   3.250   4.168 -0.3869 -1.2311 -0.3672
 2225TIP3   OH2 6638   0.268   5.476   5.196 -0.5718 -0.3312  0.0967
 2225TIP3    H1 6639   0.288   5.385   5.178 -0.3405 -0.2364 -0.1330
 2225TIP3    H2 6640   0.352   5.514   5.224 -0.9558 -0.5283  1.6047
 2226TIP3   OH2 6641   1.758   0.256   0.523  0.3527 -0.5593 -0.2747
 2226TIP3    H1 6642   1.693   0.295   0.465  0.5225  1.0592  0.5830
 2226TIP3    H2 6643   1.708   0.227   0.600  0.5922  0.4342  0.2643
 2227TIP3   OH2 6644   2.927   5.988   2.874 -0.1209  0.4538  0.2355
 2227TIP3    H1 6645   2.921   5.892   2.873 -3.0754  0.4597 -3.3211
 2227TIP3    H2 6646   2.988   6.009   2.805 -1.4600  1.0815 -0.7987
 2228TIP3   OH2 6647   6.748   2.274   4.924  0.5098 -0.3173  0.4193
 2228TIP3    H1 6648   6.679   2.340   4.918  1.4309  0.7512  1.1307
 2228TIP3    H2 6649   6.830   2.324   4.920  1.2578 -1.5636 -0.5382
 2229TIP3   OH2 6650   5.825   4.755   2.383  0.1330 -0.2323  0.0511
 2229TIP3    H1 6651   5.860   4.841   2.408 -0.7265 -0.0939  0.8249
 2229TIP3    H2 6652   5.887   4.722   2.318  0.5187  0.9411 -0.1996
 2230TIP3   OH2 6653   6.740   3.031   5.210  0.5750 -0.0768  0.1736
 2230TIP3    H1 6654   6.697   3.068   5.133 -0.0170  0.6671  0.8571
 2230TIP3    H2 6655   6.832   3.053   5.199  0.2890  1.2606  0.3683
 2231TIP3   OH2 6656   5.599   3.069   3.049  0.1273  0.1735  0.0979
 2231TIP3    H1 6657   5.595   3.032   2.961  0.5286 -0.0910  0.1845
 2231TIP3    H2 6658   5.577   2.996   3.107 -1.2243  0.6156  0.1743
 2232TIP3   OH2 6659   2.202   5.084   0.477 -0.5795 -0.7339  0.5414
 2232TIP3    H1 6660   2.156   5.088   0.393 -1.7476 -1.0491  1.1406
 2232TIP3    H2 6661   2.136   5.109   0.541  0.6347  0.7518  1.2701
 2233TIP3   OH2 6662   0.406   4.442   4.067  0.0489  0.1896 -0.1420
 2233TIP3    H1 6663   0.492   4.476   4.091  0.6940 -1.3749 -0.0987
 2233TIP3    H2 6664   0.348   4.470   4.138  0.8043  0.1591  0.4986
 2234TIP3   OH2 6665   2.163   5.422   4.282  0.0444  0.2046  0.4736
 2234TIP3    H1 6666   2.089   5.462   4.237 -0.6940 -2.2181 -0.6595
 2234TIP3    H2 6667   2.239   5.446   4.230 -0.5062 -0.6135 -0.7466
 2235TIP3   OH2 6668   2.662   1.205   4.325  0.5059  0.3079  0.1864
 2235TIP3    H1 6669   2.640   1.163   4.408  0.7474  1.7126  1.0029
 2235TIP3    H2 6670   2.605   1.281   4.321  1.4276  1.0013 -0.2769
 2236TIP3   OH2 6671   6.023   3.797   3.940 -0.6254  0.1553 -0.3952
 2236TIP3    H1 6672   6.069   3.749   3.870 -0.1458  0.4375 -0.2777
 2236TIP3    H2 6673   5.993   3.877   3.897  2.3575  1.8535  0.3902
 2237TIP3   OH2 6674   6.742   4.055   2.198  0.0733 -0.3866  0.1006
 2237TIP3    H1 6675   6.692   4.126   2.238 -0.5511 -1.1273  0.6765
 2237TIP3    H2 6676   6.807   4.032   2.265 -0.7288 -1.3745  0.5711
 2238TIP3   OH2 6677   2.467   0.096   3.886  0.4050  0.1545  0.1121
 2238TIP3    H1 6678   2.464   0.094   3.982  1.9590  3.0747  0.3559
 2238TIP3    H2 6679   2.519   0.020   3.862 -0.4725 -0.9421  1.5157
 2239TIP3   OH2 6680   3.651   0.870   2.381 -0.1855 -0.2006 -0.5406
 2239TIP3    H1 6681   3.713   0.931   2.421 -1.3119 -0.0363  1.0784
 2239TIP3    H2 6682   3.705   0.799   2.347  0.9365  0.2366  0.2640
 2240TIP3   OH2 6683   2.893   4.846   2.358  0.3970  0.3215 -0.4406
 2240TIP3    H1 6684   2.889   4.771   2.299 -0.2211  0.8155 -1.0431
 2240TIP3    H2 6685   2.892   4.922   2.300 -0.0892  0.8139  0.1939
 2241TIP3   OH2 6686   1.285   3.163   5.585  0.0646  0.2824  0.1354
 2241TIP3    H1 6687   1.194   3.176   5.611  0.5108  3.2002  0.6342
 2241TIP3    H2 6688   1.323   3.251   5.588  3.3687 -1.0373  1.6683
 2242TIP3   OH2 6689   3.606   1.432   2.211  0.1739 -0.6532 -0.2530
 2242TIP3    H1 6690   3.674   1.431   2.144 -0.2545  1.1264 -0.7725
 2242TIP3    H2 6691   3.525   1.419   2.162  0.0149 -1.2526  0.1668
 2243TIP3   OH2 6692   3.828   2.802   1.287  0.0596  0.1863 -0.1198
 2243TIP3    H1 6693   3.887   2.729   1.302  1.6749  1.7158  1.5410
 2243TIP3    H2 6694   3.844   2.828   1.196  0.9226 -0.2872 -0.1103
 2244TIP3   OH2 6695   1.509   0.742   3.175 -0.8768  0.2291 -0.4851
 2244TIP3    H1 6696   1.558   0.663   3.153 -0.6108  0.2079  0.1562
 2244TIP3    H2 6697   1.417   0.715   3.173 -0.8037 -0.0094 -0.6071
 2245TIP3   OH2 6698   5.388   2.167   0.372  0.3059  0.0723  0.6847
 2245TIP3    H1 6699   5.349   2.254   0.375  2.2422  0.9793  3.0665
 2245TIP3    H2 6700   5.330   2.113   0.424  0.5903  0.6679  1.6454
 2246TIP3   OH2 6701   0.257   5.369   0.293 -0.3818 -0.2709 -0.2040
 2246TIP3    H1 6702   0.222   5.313   0.224  2.8199 -0.9528 -1.4485
 2246TIP3    H2 6703   0.233   5.458   0.267 -0.4783 -0.6372 -1.4136
 2247TIP3   OH2 6704   5.846   6.255   5.373 -0.2237  0.0243  0.2703
 2247TIP3    H1 6705   5.858   6.161   5.381 -1.6835 -0.0278  2.7924
 2247TIP3    H2 6706   5.770   6.265   5.317  0.1965 -0.2459 -0.3651
 2248TIP3   OH2 6707   5.537   1.532   0.611 -1.0988 -0.1615 -0.2039
 2248TIP3    H1 6708   5.499   1.611   0.573 -1.8561 -0.6753 -0.5401
 2248TIP3    H2 6709   5.517   1.463   0.548 -1.1333 -0.7643  0.4480
 2249TIP3   OH2 6710   4.505   4.997   5.496 -0.3186  0.0593 -0.2714
 2249TIP3    H1 6711   4.516   5.057   5.569  1.6464 -0.1114 -0.3891
 2249TIP3    H2 6712   4.553   4.919   5.521 -1.7148 -0.9768 -0.7035
 2250TIP3   OH2 6713   6.984   6.255   4.453 -0.1450  0.1422 -0.6485
 2250TIP3    H1 6714   6.891   6.267   4.468 -0.0807  0.2666 -0.3536
 2250TIP3    H2 6715   7.006   6.317   4.384 -0.3208 -0.0288 -0.8606
 2251TIP3   OH2 6716   3.185   3.322   4.611  0.1321 -0.7983 -0.6319
 2251TIP3    H1 6717   3.115   3.334   4.547  0.0305 -0.3252 -0.4393
 2251TIP3    H2 6718   3.158   3.377   4.685  0.6872 -0.6467 -0.5419
 2252TIP3   OH2 6719   2.824   1.782   2.962  0.0052  0.3952 -0.2425
 2252TIP3    H1 6720   2.841   1.772   2.869  0.5428  0.9255 -0.2111
 2252TIP3    H2 6721   2.732   1.759   2.973 -1.0150  3.4153 -1.4370
 2253TIP3   OH2 6722   5.146   1.313   1.640  0.3969 -0.0348 -0.1237
 2253TIP3    H1 6723   5.175   1.243   1.698 -0.1379  0.3153  0.5826
 2253TIP3    H2 6724   5.120   1.384   1.699  2.5241  1.4388 -0.8531
 2254TIP3   OH2 6725   6.117   1.533   3.136 -0.0705 -0.1267  0.0749
 2254TIP3    H1 6726   6.190   1.594   3.130 -0.3907  0.3414  0.8813
 2254TIP3    H2 6727   6.141   1.475   3.209 -0.0306 -0.6237 -0.3251
 2255TIP3   OH2 6728   4.726   6.538   1.766 -0.2193 -0.0838 -0.0277
 2255TIP3    H1 6729   4.708   6.448   1.794  1.0666 -0.1287  0.7139
 2255TIP3    H2 6730   4.739   6.532   1.671 -0.6725 -0.5832 -0.0622
 2256TIP3   OH2 6731   2.608   4.784   4.637 -0.8080  0.4871  0.7501
 2256TIP3    H1 6732   2.678   4.846   4.657  1.6834 -1.5077 -1.0176
 2256TIP3    H2 6733   2.567   4.818   4.558 -0.3340  0.5688  0.5347
 2257TIP3   OH2 6734   4.359   5.681   4.493  0.3587  0.0696 -0.6462
 2257TIP3    H1 6735   4.287   5.707   4.550  0.8318  1.2836 -0.5598
 2257TIP3    H2 6736   4.328   5.601   4.450  0.0813 -1.0152  1.4401
 2258TIP3   OH2 6737   6.856   3.838   4.539  0.5594  0.0749  0.3639
 2258TIP3    H1 6738   6.805   3.917   4.558  0.9108  0.2111  0.7328
 2258TIP3    H2 6739   6.874   3.844   4.445  0.3110  0.2690  0.3251
 2259TIP3   OH2 6740   4.476   0.457   4.001 -0.8198  0.2148  0.5643
 2259TIP3    H1 6741   4.551   0.487   4.052  0.8181  0.1032 -1.6416
 2259TIP3    H2 6742   4.430   0.537   3.977 -0.0641  0.4827 -0.0202
 2260TIP3   OH2 6743   0.366   6.300   5.536  0.0382 -0.0925 -0.2856
 2260TIP3    H1 6744   0.316   6.326   5.458 -0.2667 -2.4727 -0.9561
 2260TIP3    H2 6745   0.448   6.349   5.529 -0.9185  1.5031 -0.8298
 2261TIP3   OH2 6746   1.632   3.172   2.426  0.0444 -0.1751 -0.0396
 2261TIP3    H1 6747   1.572   3.243   2.405  0.2482  0.2471  0.7433
 2261TIP3    H2 6748   1.626   3.164   2.522  2.6024  1.1371  0.3187
 2262TIP3   OH2 6749   1.952   0.949   1.981 -0.0382 -0.4244  0.0892
 2262TIP3    H1 6750   2.013   0.955   2.055 -0.2875 -0.7488  0.3190
 2262TIP3    H2 6751   1.938   1.040   1.955 -0.4913 -0.2660  0.8766
 2263TIP3   OH2 6752   2.596   0.237   1.328 -0.4033  0.5830  0.1880
 2263TIP3    H1 6753   2.599   0.260   1.420  0.7047  1.2717  0.0005
 2263TIP3    H2 6754   2.657   0.299   1.286 -1.0284  0.4037 -1.0207
 2264TIP3   OH2 6755   2.796   4.213   0.589  0.4651 -0.4113  0.1820
 2264TIP3    H1 6756   2.769   4.167   0.668 -2.1888  0.9819  0.2228
 2264TIP3    H2 6757   2.823   4.300   0.620 -0.5700  0.1340 -0.3957
 2265TIP3   OH2 6758   0.173   3.231   2.273 -0.1422  0.2453 -0.5528
 2265TIP3    H1 6759   0.110   3.161   2.253 -0.3938  0.4915 -0.6177
 2265TIP3    H2 6760   0.120   3.303   2.305  0.3612 -0.7862  2.9747
 2266TIP3   OH2 6761   2.675   1.608   5.881 -0.8383  0.1155  0.4017
 2266TIP3    H1 6762   2.622   1.620   5.802 -1.8179 -1.1147  0.8223
 2266TIP3    H2 6763   2.762   1.587   5.849 -0.2081  3.2807 -0.3148
 2267TIP3   OH2 6764   0.617   4.205   3.279 -0.0186  0.3575  0.1476
 2267TIP3    H1 6765   0.646   4.114   3.269  0.3380  0.3931  0.8281
 2267TIP3    H2 6766   0.541   4.211   3.221  0.2286 -0.2434 -0.2592
 2268TIP3   OH2 6767   3.479   4.014   0.314  0.7937  0.6524 -0.4218
 2268TIP3    H1 6768   3.541   4.036   0.245  0.3307  1.6978 -0.5136
 2268TIP3    H2 6769   3.533   3.976   0.384  1.4326  0.8622 -0.7949
 2269TIP3   OH2 6770   5.369   2.694   4.157 -0.0095  1.3392 -0.1252
 2269TIP3    H1 6771   5.444   2.636   4.170 -0.9507  0.3996  1.3748
 2269TIP3    H2 6772   5.316   2.651   4.089 -0.9571  0.1215  1.3309
 2270TIP3   OH2 6773   0.288   3.649   1.987  0.0573  0.1934  0.0161
 2270TIP3    H1 6774   0.288   3.686   1.899 -2.1732 -1.6448 -0.8576
 2270TIP3    H2 6775   0.197   3.659   2.016  0.4805 -0.3662  1.6279
 2271TIP3   OH2 6776   7.066   6.585   2.580 -0.4163  0.1287 -0.3343
 2271TIP3    H1 6777   7.094   6.675   2.590 -2.7002  0.8720 -0.0281
 2271TIP3    H2 6778   7.122   6.535   2.640  0.6338  1.3725 -0.2525
 2272TIP3   OH2 6779   6.111   4.380   0.763 -0.3783 -0.0867  0.0667
 2272TIP3    H1 6780   6.117   4.421   0.676  1.2798  0.1546  0.2761
 2272TIP3    H2 6781   6.016   4.377   0.780 -0.7587 -0.3059 -1.8077
 2273TIP3   OH2 6782   2.724   2.331   4.501  0.3335  0.4585 -0.3363
 2273TIP3    H1 6783   2.715   2.401   4.437 -0.9448  2.1563  1.5552
 2273TIP3    H2 6784   2.726   2.376   4.586 -1.2909 -1.8201  1.0309
 2274TIP3   OH2 6785   0.800   6.717   2.084 -0.1204  0.4303  0.4826
 2274TIP3    H1 6786   0.735   6.765   2.136  0.1210  1.0214  0.2479
 2274TIP3    H2 6787   0.771   6.729   1.994 -0.3254 -0.2761  0.4487
 2275TIP3   OH2 6788   5.075   4.864   5.756  0.3535 -0.1503 -0.0082
 2275TIP3    H1 6789   4.995   4.882   5.707 -0.1623 -2.1379  0.0067
 2275TIP3    H2 6790   5.140   4.843   5.688  0.7836  1.0380  0.0039
 2276TIP3   OH2 6791   6.520   1.183   1.315  0.0064 -0.8662 -0.5178
 2276TIP3    H1 6792   6.441   1.131   1.329 -0.5189 -0.0636 -0.4633
 2276TIP3    H2 6793   6.545   1.213   1.403  0.3810 -1.1169 -0.5336
 2277TIP3   OH2 6794   3.986   5.362   2.046 -0.5672 -0.8548  0.0685
 2277TIP3    H1 6795   3.949   5.322   2.125  0.5916 -0.3574  0.8804
 2277TIP3    H2 6796   3.929   5.437   2.029 -0.5543 -0.6929  0.7077
 2278TIP3   OH2 6797   3.102   3.516   0.825 -0.0075  0.8358  0.1126
 2278TIP3    H1 6798   3.177   3.508   0.767  0.1748  1.4116  0.2666
 2278TIP3    H2 6799   3.035   3.560   0.773 -0.3867 -0.0419 -0.1568
 2279TIP3   OH2 6800   3.679   0.892   0.520  0.4339 -0.3642  0.2793
 2279TIP3    H1 6801   3.628   0.891   0.601 -0.6870  4.7556 -0.0298
 2279TIP3    H2 6802   3.623   0.848   0.457 -2.4880  2.3422  0.7084
 2280TIP3   OH2 6803   5.968   1.378   2.936 -0.3807 -0.3360 -0.4677
 2280TIP3    H1 6804   5.977   1.448   3.001 -2.5711 -0.3953 -0.0449
 2280TIP3    H2 6805   6.056   1.340   2.930  0.3989  1.1497  0.7437
 2281TIP3   OH2 6806   5.983   4.578   1.758 -0.1851  0.8289  0.2284
 2281TIP3    H1 6807   6.066   4.548   1.719 -0.1206 -0.6549  1.4177
 2281TIP3    H2 6808   5.938   4.497   1.783 -0.9910  1.6810  1.6313
 2282TIP3   OH2 6809   4.002   0.141   4.192  0.1399 -0.6168 -0.1753
 2282TIP3    H1 6810   3.981   0.064   4.244  0.1530 -0.3618  0.2091
 2282TIP3    H2 6811   4.037   0.204   4.255 -0.9483  0.1343 -0.2881
 2283TIP3   OH2 6812   3.135   5.824   0.190 -0.1862 -0.2017  0.4345
 2283TIP3    H1 6813   3.189   5.745   0.196  0.3581  0.2307  1.4557
 2283TIP3    H2 6814   3.184   5.891   0.238 -1.9802 -0.0074  2.1626
 2284TIP3   OH2 6815   6.285   2.618   2.388  0.6056  0.1284  0.3521
 2284TIP3    H1 6816   6.225   2.605   2.461  0.4190  1.1748  0.4075
 2284TIP3    H2 6817   6.331   2.700   2.409  0.7582  0.2910 -0.5562
 2285TIP3   OH2 6818   7.093   0.101   3.878  0.0775 -0.1850  0.1196
 2285TIP3    H1 6819   7.078   0.192   3.854 -1.5209 -0.2908  0.5656
 2285TIP3    H2 6820   7.061   0.095   3.969 -0.8068 -1.3992 -0.2461
 2286TIP3   OH2 6821   0.848   5.930   2.173  0.5019 -0.2822 -0.1604
 2286TIP3    H1 6822   0.924   5.986   2.156  0.4159 -0.2823 -0.5505
 2286TIP3    H2 6823   0.822   5.951   2.263 -0.3532  1.3053 -0.7346
 2287TIP3   OH2 6824   1.805   3.960   2.294  0.1313 -0.0311 -0.2316
 2287TIP3    H1 6825   1.740   3.902   2.254 -1.7015  2.1753 -0.6466
 2287TIP3    H2 6826   1.848   4.003   2.220  2.1646 -1.4338  0.0354
 2288TIP3   OH2 6827   0.982   0.643   4.782 -0.2330 -0.5822 -0.3035
 2288TIP3    H1 6828   0.986   0.690   4.866 -0.1634 -0.4194 -0.3974
 2288TIP3    H2 6829   1.073   0.638   4.753 -0.3513  0.3182 -0.8912
 2289TIP3   OH2 6830   2.471   6.387   0.767  0.2753 -0.4386 -0.0256
 2289TIP3    H1 6831   2.436   6.466   0.807  2.9796 -0.2017  2.1613
 2289TIP3    H2 6832   2.419   6.376   0.687 -0.9905  2.8324  0.1816
 2290TIP3   OH2 6833   5.190   5.684   1.829  0.2489 -0.0821  0.2321
 2290TIP3    H1 6834   5.218   5.705   1.918 -0.4942 -0.8267  0.6424
 2290TIP3    H2 6835   5.166   5.592   1.832 -1.4405  0.3044 -0.3097
 2291TIP3   OH2 6836   4.629   0.506   0.127  0.1735  0.1707  0.3963
 2291TIP3    H1 6837   4.641   0.427   0.075  0.2246  0.3550  0.1251
 2291TIP3    H2 6838   4.717   0.532   0.153  0.0412 -0.9376  2.1258
 2292TIP3   OH2 6839   0.211   2.169   0.509 -0.0498 -0.0136 -0.1851
 2292TIP3    H1 6840   0.260   2.114   0.570  1.1506 -1.4198 -2.3316
 2292TIP3    H2 6841   0.155   2.109   0.461 -0.7685  1.0340 -0.7026
 2293TIP3   OH2 6842   0.895   6.074   3.072 -0.2258 -0.2112  0.0170
 2293TIP3    H1 6843   0.959   6.028   3.017  0.9906  0.4973  0.7989
 2293TIP3    H2 6844   0.839   6.004   3.105 -0.8547 -0.6820 -1.9138
 2294TIP3   OH2 6845   1.218   3.399   3.532 -0.1893  0.2711 -0.2981
 2294TIP3    H1 6846   1.177   3.426   3.614 -1.1768 -1.0348 -0.3378
 2294TIP3    H2 6847   1.237   3.481   3.486 -1.3546  0.9539  0.4049
 2295TIP3   OH2 6848   3.578   1.113   0.415  0.1759 -0.1716  0.4272
 2295TIP3    H1 6849   3.610   1.028   0.445 -2.8896 -0.9726  1.8116
 2295TIP3    H2 6850   3.514   1.139   0.480 -0.0984  2.5078 -0.7815
 2296TIP3   OH2 6851   6.252   4.894   1.518  0.0157  0.4244  0.4350
 2296TIP3    H1 6852   6.168   4.847   1.512 -0.1149  0.7139  0.0114
 2296TIP3    H2 6853   6.271   4.922   1.429  1.2206 -0.7666  0.2805
 2297TIP3   OH2 6854   5.470   5.084   2.674 -0.3339  0.4631 -0.4167
 2297TIP3    H1 6855   5.495   5.129   2.593  0.0776  1.0276  0.0180
 2297TIP3    H2 6856   5.436   5.153   2.730 -1.4423 -0.0630 -0.4213
 2298TIP3   OH2 6857   1.225   1.595   5.573  0.6175 -0.6144 -0.3822
 2298TIP3    H1 6858   1.259   1.509   5.597  2.9743  0.3869  0.1444
 2298TIP3    H2 6859   1.295   1.656   5.596  0.1800  1.1794 -3.2637
 2299TIP3   OH2 6860   4.704   3.938   5.820  0.1340 -0.2656  0.2782
 2299TIP3    H1 6861   4.652   4.011   5.787 -1.1962 -1.1017  0.4802
 2299TIP3    H2 6862   4.654   3.903   5.894  1.1239 -0.9163  0.6791
 2300TIP3   OH2 6863   5.214   2.758   2.465  0.1291  0.0045 -0.5955
 2300TIP3    H1 6864   5.152   2.749   2.537  0.8796  0.5146  0.1337
 2300TIP3    H2 6865   5.163   2.738   2.387 -0.0895 -3.1269  0.2401
 2301TIP3   OH2 6866   2.433   3.625   0.917  0.7562  0.6184  0.2715
 2301TIP3    H1 6867   2.510   3.657   0.964  0.7526  0.0512  0.6840
 2301TIP3    H2 6868   2.401   3.700   0.867 -0.1000  1.6908  2.2982
 2302TIP3   OH2 6869   0.376   3.300   5.198 -0.3489 -0.2101  0.4507
 2302TIP3    H1 6870   0.411   3.216   5.229 -1.0214 -0.0734  1.6265
 2302TIP3    H2 6871   0.414   3.365   5.256 -0.8833  0.1643  0.3897
 2303TIP3   OH2 6872   4.093   3.654   1.999 -0.8189 -0.1646 -0.2326
 2303TIP3    H1 6873   4.030   3.685   1.934 -2.2097 -2.0038  0.1666
 2303TIP3    H2 6874   4.178   3.676   1.961 -1.6412  1.6762 -1.1543
 2304TIP3   OH2 6875   0.685   6.809   5.745 -0.2265 -0.9017  0.3519
 2304TIP3    H1 6876   0.630   6.749   5.696 -0.0265 -1.5316  0.8889
 2304TIP3    H2 6877   0.767   6.762   5.757 -0.5568 -1.0989  2.0085
 2305TIP3   OH2 6878   0.579   4.782   3.424 -0.0624 -0.1903  0.2666
 2305TIP3    H1 6879   0.672   4.800   3.410 -0.2543 -0.3881 -1.6096
 2305TIP3    H2 6880   0.572   4.687   3.417 -0.6328 -0.0606 -1.6768
 2306TIP3   OH2 6881   7.171   5.946   3.081 -0.5001 -0.1103  0.1412
 2306TIP3    H1 6882   7.141   5.961   3.170 -1.7985  1.2642 -0.4951
 2306TIP3    H2 6883   7.109   5.882   3.046 -2.0886  1.8243 -0.7834
 2307TIP3   OH2 6884   1.149   2.657   1.151 -0.5735  0.1611 -0.3775
 2307TIP3    H1 6885   1.077   2.633   1.092 -1.9013  1.2237  0.7465
 2307TIP3    H2 6886   1.143   2.594   1.223  0.6600 -0.7496 -1.0402
 2308TIP3   OH2 6887   0.634   6.609   2.803 -0.3119  0.1058 -0.1413
 2308TIP3    H1 6888   0.585   6.528   2.800  1.3584 -1.0398  1.4459
 2308TIP3    H2 6889   0.703   6.598   2.737 -0.5812  0.6098 -0.5169
 2309TIP3   OH2 6890   0.534   5.816   2.806 -0.3206  0.0679  0.1055
 2309TIP3    H1 6891   0.489   5.739   2.771  0.0855 -0.1027 -0.0444
 2309TIP3    H2 6892   0.470   5.857   2.865 -0.4271 -0.5534  0.4229
 2310TIP3   OH2 6893   4.118   3.811   3.402 -0.0019  0.4822 -0.1924
 2310TIP3    H1 6894   4.108   3.762   3.320 -0.8888  0.8408 -0.3115
 2310TIP3    H2 6895   4.149   3.746   3.465  2.4538  0.5821 -1.2136
 2311TIP3   OH2 6896   2.207   6.030   5.052  0.1267  0.5945  0.4606
 2311TIP3    H1 6897   2.155   6.103   5.020 -0.1968  0.1990  0.0697
 2311TIP3    H2 6898   2.251   6.064   5.130 -0.1694  1.1434  0.3936
 2312TIP3   OH2 6899   6.477   0.649   2.422 -0.0678 -0.1960  0.3940
 2312TIP3    H1 6900   6.468   0.684   2.334  0.7680  0.5040  0.5614
 2312TIP3    H2 6901   6.435   0.714   2.478  0.4969 -0.0032  0.6087
 2313TIP3   OH2 6902   5.841   3.073   0.290 -0.0866  0.4516 -0.2007
 2313TIP3    H1 6903   5.885   3.157   0.272  0.0451  0.4588  0.1408
 2313TIP3    H2 6904   5.749   3.096   0.300 -0.3194  0.3250 -1.7531
 2314TIP3   OH2 6905   6.126   4.858   0.884  0.4763  0.3106  0.7022
 2314TIP3    H1 6906   6.139   4.872   0.790  1.2065  1.1488  0.9190
 2314TIP3    H2 6907   6.133   4.763   0.895  0.6002  0.2257 -0.0510
 2315TIP3   OH2 6908   6.224   1.970   4.007  0.1095  0.0546 -1.1161
 2315TIP3    H1 6909   6.179   2.018   4.076  1.6662 -0.0647  0.0184
 2315TIP3    H2 6910   6.226   2.031   3.933 -1.1351  0.3688 -0.9106
 2316TIP3   OH2 6911   0.255   0.681   1.707  0.0992 -0.3280 -0.5665
 2316TIP3    H1 6912   0.192   0.753   1.708 -0.6060 -0.9310 -0.0342
 2316TIP3    H2 6913   0.203   0.604   1.683  0.4719 -0.9674  0.6001
 2317TIP3   OH2 6914   6.011   5.532   3.583 -0.3202 -0.1295 -0.5147
 2317TIP3    H1 6915   5.974   5.561   3.667  0.6552  0.7765 -0.3722
 2317TIP3    H2 6916   5.939   5.540   3.521 -0.6099  0.7793 -0.0841
 2318TIP3   OH2 6917   6.663   4.529   0.065 -0.3479  0.1411 -0.5497
 2318TIP3    H1 6918   6.646   4.623   0.073 -1.3312  0.0987 -1.8668
 2318TIP3    H2 6919   6.646   4.509  -0.027 -1.0077 -1.4846 -0.1066
 2319TIP3   OH2 6920   5.553   6.546   2.230 -0.3600 -0.1886 -0.4953
 2319TIP3    H1 6921   5.462   6.535   2.259  0.2832  0.2326  1.8650
 2319TIP3    H2 6922   5.551   6.623   2.174 -1.5448 -0.5601 -1.0083
 2320TIP3   OH2 6923   6.509   4.161   5.543  0.1572 -0.1377 -0.1406
 2320TIP3    H1 6924   6.525   4.071   5.570 -0.1788  0.0649  0.7598
 2320TIP3    H2 6925   6.466   4.153   5.458  0.5022 -0.8161 -0.2566
 2321TIP3   OH2 6926   3.322   1.406   4.578  0.6169 -0.0533 -0.7397
 2321TIP3    H1 6927   3.246   1.463   4.592 -0.2532 -1.0456 -1.2412
 2321TIP3    H2 6928   3.285   1.326   4.541  1.5901 -1.5335  1.2677
 2322TIP3   OH2 6929   5.528   2.449   2.652  0.0580 -0.2083  0.1821
 2322TIP3    H1 6930   5.577   2.375   2.616 -0.6856 -1.0015  0.7775
 2322TIP3    H2 6931   5.511   2.426   2.743 -0.2030  0.6927  0.3787
 2323TIP3   OH2 6932   4.427   3.932   1.728 -0.6956  0.1505  0.1986
 2323TIP3    H1 6933   4.340   3.964   1.752 -0.1745 -0.9193  4.5132
 2323TIP3    H2 6934   4.411   3.851   1.681 -2.1833 -0.8101  2.1954
 2324TIP3   OH2 6935   1.075   4.830   2.676 -0.1485 -0.4173  0.1007
 2324TIP3    H1 6936   1.019   4.900   2.711  0.9246  1.1474 -1.1488
 2324TIP3    H2 6937   1.163   4.853   2.707  0.6919  0.5046 -2.6859
 2325TIP3   OH2 6938   2.112   0.347   1.204  0.6337 -0.3158  0.1407
 2325TIP3    H1 6939   2.166   0.371   1.279  0.4114 -0.4938  0.3618
 2325TIP3    H2 6940   2.025   0.332   1.241  1.0371 -2.7768  0.2714
 2326TIP3   OH2 6941   1.658   5.931   4.855  0.1205  0.2199 -0.1268
 2326TIP3    H1 6942   1.697   6.006   4.900  0.5397 -1.0564  1.7777
 2326TIP3    H2 6943   1.730   5.868   4.847 -0.7482 -0.8956  0.4835
 2327TIP3   OH2 6944   4.297   3.345   2.468  0.3895  0.1652  0.2282
 2327TIP3    H1 6945   4.232   3.415   2.477  0.6332  0.5415 -0.7645
 2327TIP3    H2 6946   4.332   3.332   2.556 -2.3685 -1.3828  1.2459
 2328TIP3   OH2 6947   5.228   3.084   4.784 -0.1747 -0.2808  0.7066
 2328TIP3    H1 6948   5.232   3.179   4.772 -0.4119 -0.4726 -1.3046
 2328TIP3    H2 6949   5.315   3.053   4.762 -0.3549 -0.6119  0.4523
 2329TIP3   OH2 6950   5.823   3.082   1.478 -0.4467 -0.1691  0.8640
 2329TIP3    H1 6951   5.782   3.169   1.478 -2.0173 -0.8674 -0.6579
 2329TIP3    H2 6952   5.917   3.101   1.482 -0.6592  1.6881 -1.1054
 2330TIP3   OH2 6953   7.040   0.051   4.336 -0.1360  0.3397  0.3357
 2330TIP3    H1 6954   7.011   0.083   4.422  0.2765  0.2665  0.5049
 2330TIP3    H2 6955   7.041  -0.044   4.345 -2.2227  0.2077 -0.4472
 2331TIP3   OH2 6956   3.671   3.930   3.035 -0.0436 -0.1548  0.3604
 2331TIP3    H1 6957   3.705   3.948   2.947  0.8117 -0.9020  0.5265
 2331TIP3    H2 6958   3.665   3.834   3.040 -4.0923 -0.1374 -0.3571
 2332TIP3   OH2 6959   4.027   3.194   5.366 -0.2327  0.1505  1.0682
 2332TIP3    H1 6960   3.960   3.140   5.407  0.2937 -1.1948  0.1938
 2332TIP3    H2 6961   4.091   3.210   5.436 -0.3504 -0.4273  1.3145
 2333TIP3   OH2 6962   6.218   1.501   5.392  0.5880 -0.5393 -0.6021
 2333TIP3    H1 6963   6.301   1.491   5.345  0.4068 -0.3316 -0.9722
 2333TIP3    H2 6964   6.154   1.521   5.324  0.6684  1.7502 -0.0694
 2334TIP3   OH2 6965   6.641   1.974   1.214 -0.2654 -0.3163  0.2732
 2334TIP3    H1 6966   6.701   1.900   1.219 -2.3602 -2.0223  1.7734
 2334TIP3    H2 6967   6.591   1.960   1.133  0.9147  0.8573 -0.7290
 2335TIP3   OH2 6968   5.539   4.796   4.555 -0.0463 -0.1530 -0.2038
 2335TIP3    H1 6969   5.568   4.783   4.465  0.4924  0.4764 -0.1315
 2335TIP3    H2 6970   5.594   4.738   4.608 -0.3349 -0.4922 -0.2807
 2336TIP3   OH2 6971   4.484   3.908   4.618  0.0401  0.1648 -0.1976
 2336TIP3    H1 6972   4.406   3.959   4.599  0.6470  0.9704 -0.5853
 2336TIP3    H2 6973   4.511   3.871   4.534  0.4939  0.5087 -0.2095
 2337TIP3   OH2 6974   5.541   0.781   4.069 -0.7142 -1.1229  0.6223
 2337TIP3    H1 6975   5.561   0.870   4.041  1.2305 -1.4531  0.8615
 2337TIP3    H2 6976   5.465   0.791   4.127 -0.4247  0.4024  0.7872
 2338TIP3   OH2 6977   5.967   1.116   5.152 -0.5780 -1.0055  0.1670
 2338TIP3    H1 6978   5.907   1.178   5.194 -0.2941  0.4015 -1.4167
 2338TIP3    H2 6979   5.923   1.090   5.072  1.0222  0.4037 -1.2620
 2339TIP3   OH2 6980   7.011   0.146   3.563  0.3062  0.3590  0.3409
 2339TIP3    H1 6981   7.046   0.138   3.652  0.0276 -1.2631  0.3258
 2339TIP3    H2 6982   6.949   0.074   3.554 -0.3906  1.0701 -0.8524
 2340TIP3   OH2 6983   6.089   0.788   0.396 -0.2453  0.5032 -0.1109
 2340TIP3    H1 6984   6.122   0.758   0.311  0.8611  0.1570  0.4213
 2340TIP3    H2 6985   6.167   0.807   0.447 -0.8987  0.8885  0.7742
 2341TIP3   OH2 6986   1.919   0.663   4.070  0.4068  0.1427  0.2096
 2341TIP3    H1 6987   1.931   0.712   3.988 -0.1077 -2.7821 -1.7807
 2341TIP3    H2 6988   1.832   0.689   4.101  0.6605  1.3978 -0.0858
 2342TIP3   OH2 6989   5.079   3.247   3.912 -0.2498  0.0536  0.4034
 2342TIP3    H1 6990   5.080   3.162   3.957 -1.2085  0.2972  0.9273
 2342TIP3    H2 6991   5.038   3.306   3.975 -1.2597  0.5018 -0.6388
 2343TIP3   OH2 6992   1.770   4.761   3.308  0.4542 -0.0123  0.0642
 2343TIP3    H1 6993   1.816   4.759   3.392  0.4865 -3.4437  0.0891
 2343TIP3    H2 6994   1.794   4.679   3.266 -2.4347 -0.0641 -1.7294
 2344TIP3   OH2 6995   6.389   4.076   4.039 -0.2558 -0.0570 -0.0546
 2344TIP3    H1 6996   6.332   4.111   3.971  0.4215 -0.2554 -0.7355
 2344TIP3    H2 6997   6.460   4.033   3.991  0.2483 -0.1673  0.7771
 2345TIP3   OH2 6998   7.115   6.042   4.165  0.4923  0.3214 -0.0586
 2345TIP3    H1 6999   7.118   5.984   4.089 -0.7801  0.1126  0.0260
 2345TIP3    H2 7000   7.179   6.006   4.226  0.6539 -0.2228 -0.5425
 2346TIP3   OH2 7001   4.269   4.352   5.490 -0.2780  0.5473  0.3635
 2346TIP3    H1 7002   4.223   4.430   5.520 -1.3448  0.0982 -0.0583
 2346TIP3    H2 7003   4.210   4.280   5.513  0.0942 -0.0214 -0.4359
 2347TIP3   OH2 7004   6.170   0.888   4.685 -0.3965 -0.5313 -0.3622
 2347TIP3    H1 7005   6.218   0.969   4.667 -0.4006 -0.2591  0.7776
 2347TIP3    H2 7006   6.128   0.904   4.769 -0.6329 -1.6179 -0.2669
 2348TIP3   OH2 7007   2.262   4.990   1.613  0.0216 -0.8918  0.0836
 2348TIP3    H1 7008   2.247   5.050   1.685  0.9314 -0.8847  0.2801
 2348TIP3    H2 7009   2.319   4.922   1.650  2.1604  0.1652 -1.1165
 2349TIP3   OH2 7010   0.346   0.211   4.073 -0.5730 -0.3914  0.1173
 2349TIP3    H1 7011   0.362   0.304   4.059 -0.2847 -0.2162  1.4216
 2349TIP3    H2 7012   0.259   0.207   4.112  0.2940 -0.4193  2.1789
 2350TIP3   OH2 7013   3.976   2.580   1.403  0.6284 -0.5895 -0.4019
 2350TIP3    H1 7014   4.046   2.523   1.371  0.8654 -0.6127  0.1364
 2350TIP3    H2 7015   3.898   2.526   1.399  0.8004 -0.8617 -0.1779
 2351TIP3   OH2 7016   1.661   5.643   3.543 -0.2840  0.0495 -0.8952
 2351TIP3    H1 7017   1.570   5.668   3.560 -0.2239  0.3509 -1.0109
 2351TIP3    H2 7018   1.699   5.718   3.498 -0.0880 -0.2318 -1.2095
 2352TIP3   OH2 7019   6.501   4.752   2.463 -0.5619  1.0081  0.4272
 2352TIP3    H1 7020   6.466   4.800   2.387 -2.3341  0.5316  0.9116
 2352TIP3    H2 7021   6.532   4.821   2.522  1.1511  1.3821 -0.8131
 2353TIP3   OH2 7022   0.881   6.676   3.128 -0.0442  0.8721  0.3505
 2353TIP3    H1 7023   0.799   6.696   3.173 -0.1260  0.8482  0.2148
 2353TIP3    H2 7024   0.921   6.606   3.180  0.1290  1.2257  0.6919
 2354TIP3   OH2 7025   4.620   4.810   4.683  0.1970 -0.6032 -0.4826
 2354TIP3    H1 7026   4.711   4.791   4.659  0.4893  0.2409 -0.0526
 2354TIP3    H2 7027   4.603   4.896   4.646 -0.1551 -0.3879  0.1768
 2355TIP3   OH2 7028   1.198   6.154   3.413  0.0733  0.2101 -0.2125
 2355TIP3    H1 7029   1.197   6.211   3.336 -0.1975  0.6840  0.1380
 2355TIP3    H2 7030   1.209   6.213   3.487 -3.1038  0.1883  0.4206
 2356TIP3   OH2 7031   1.431   3.661   3.943  0.0166 -0.2345  0.6256
 2356TIP3    H1 7032   1.336   3.668   3.940  0.1338  2.0364 -0.4113
 2356TIP3    H2 7033   1.452   3.587   3.886 -1.0637  1.0153 -1.5308
 2357TIP3   OH2 7034   5.100   4.381   4.918 -0.6834  0.3265 -0.9870
 2357TIP3    H1 7035   5.107   4.356   4.826 -0.7027  1.2681 -1.2589
 2357TIP3    H2 7036   5.006   4.383   4.936 -0.6535 -1.3365 -0.5043
 2358TIP3   OH2 7037   2.003   6.060   5.336  0.3233  0.1866  0.0723
 2358TIP3    H1 7038   2.030   5.983   5.286 -1.0681  0.6487 -1.4673
 2358TIP3    H2 7039   2.077   6.120   5.329  0.5465 -0.1511 -0.5822
 2359TIP3   OH2 7040   0.326   2.698   1.516 -0.0906 -0.0529 -0.0327
 2359TIP3    H1 7041   0.328   2.625   1.454 -0.4346 -0.0189 -0.0804
 2359TIP3    H2 7042   0.302   2.658   1.599 -0.1041 -0.0209 -0.0214
 2360TIP3   OH2 7043   0.605   0.550   4.944 -0.4094  0.1075 -0.1627
 2360TIP3    H1 7044   0.527   0.601   4.966  0.5155  1.3847  0.2558
 2360TIP3    H2 7045   0.607   0.551   4.848 -0.8808  0.0934 -0.1760
 2361TIP3   OH2 7046   1.844   4.189   2.452 -0.2282 -0.5841 -0.0792
 2361TIP3    H1 7047   1.924   4.234   2.425 -1.1750  0.9594 -0.4325
 2361TIP3    H2 7048   1.797   4.173   2.370  0.0317 -2.1709  0.0510
 2362TIP3   OH2 7049   6.967   1.071   0.041  0.0202 -0.3955  0.6201
 2362TIP3    H1 7050   7.003   1.002   0.096 -4.2038 -0.4315  3.9411
 2362TIP3    H2 7051   6.922   1.025  -0.030 -1.7394 -1.1780  2.1419
 2363TIP3   OH2 7052   1.238   2.636   5.126 -0.5888 -0.7064  0.2380
 2363TIP3    H1 7053   1.296   2.640   5.050 -0.3849  0.8544  0.4224
 2363TIP3    H2 7054   1.150   2.633   5.090 -0.4524 -1.0828 -0.0614
 2364TIP3   OH2 7055   0.329   5.455   1.516  0.7444 -0.2615  0.3363
 2364TIP3    H1 7056   0.393   5.427   1.451 -0.0061 -1.0100 -0.0970
 2364TIP3    H2 7057   0.380   5.503   1.581  1.4233  1.2074 -1.1964
 2365TIP3   OH2 7058   6.113   1.837   0.465  0.0048  0.0235  0.6549
 2365TIP3    H1 7059   6.040   1.832   0.527  0.3106  1.0989  1.1127
 2365TIP3    H2 7060   6.109   1.926   0.430  0.6621 -0.1413  0.1399
 2366TIP3   OH2 7061   6.662   5.251   1.256  0.0154 -0.2314 -0.3310
 2366TIP3    H1 7062   6.675   5.342   1.282 -0.2160 -0.2626 -0.0983
 2366TIP3    H2 7063   6.670   5.252   1.161  2.2996 -0.3537 -0.1993
 2367TIP3   OH2 7064   4.917   6.366   3.515 -0.3897 -0.1317  0.3839
 2367TIP3    H1 7065   4.920   6.460   3.532 -1.2481 -0.1602  0.7263
 2367TIP3    H2 7066   4.850   6.356   3.448  1.2920 -0.2792 -1.3683
 2368TIP3   OH2 7067   6.749   0.218   3.683 -0.4070 -0.2209 -0.3256
 2368TIP3    H1 7068   6.773   0.290   3.625  1.7653  0.7780  1.6193
 2368TIP3    H2 7069   6.775   0.139   3.635 -0.9331  0.3882 -1.6602
 2369TIP3   OH2 7070   4.696   4.234   2.207  0.3040  0.3701 -0.2139
 2369TIP3    H1 7071   4.682   4.318   2.162 -1.3238  0.3216  0.1410
 2369TIP3    H2 7072   4.769   4.194   2.161 -0.6385  0.7820 -2.1681
 2370TIP3   OH2 7073   7.218   2.591   4.132  0.0208 -0.3392 -0.0883
 2370TIP3    H1 7074   7.142   2.607   4.077  0.8200  1.4704 -0.7469
 2370TIP3    H2 7075   7.263   2.517   4.090  0.3706  0.7120 -1.6473
 2371TIP3   OH2 7076   5.617   1.382   0.217 -0.1243 -0.4246 -0.5006
 2371TIP3    H1 7077   5.691   1.408   0.271  1.4489 -1.1806 -2.1772
 2371TIP3    H2 7078   5.626   1.435   0.138 -0.2317 -1.8863 -1.5210
 2372TIP3   OH2 7079   2.411   4.182   2.511  0.2002  0.3349  0.0680
 2372TIP3    H1 7080   2.440   4.214   2.596  1.2767  1.0836 -0.5567
 2372TIP3    H2 7081   2.317   4.198   2.511  0.5310  2.7257  0.1646
 2373TIP3   OH2 7082   1.540   3.937   2.460 -0.1175 -0.0256  0.8243
 2373TIP3    H1 7083   1.558   3.843   2.459 -0.6172 -0.1185  0.2486
 2373TIP3    H2 7084   1.627   3.978   2.471  0.3368 -0.5075 -0.6936
 2374TIP3   OH2 7085   0.071   2.466   2.493  0.4460 -0.0147  0.0651
 2374TIP3    H1 7086   0.028   2.423   2.419 -0.0574  2.8197 -1.4591
 2374TIP3    H2 7087   0.153   2.499   2.457  1.0832 -0.1819  1.3088
 2375TIP3   OH2 7088   4.100   6.485   2.898  0.3224 -0.6077  0.3765
 2375TIP3    H1 7089   4.074   6.393   2.891  0.7299 -0.6678 -0.4501
 2375TIP3    H2 7090   4.022   6.530   2.930  0.2373 -1.2999  1.1663
 2376TIP3   OH2 7091   2.254   6.202   1.315 -0.1159 -0.1921 -0.3020
 2376TIP3    H1 7092   2.174   6.215   1.366 -0.4133 -1.4844 -0.4089
 2376TIP3    H2 7093   2.269   6.108   1.318 -0.5392 -0.4298 -3.2084
 2377TIP3   OH2 7094   2.802   1.330   1.448 -0.2697  0.3506 -0.2895
 2377TIP3    H1 7095   2.783   1.370   1.363 -0.7389 -0.0197 -0.3659
 2377TIP3    H2 7096   2.895   1.309   1.445 -0.3977 -0.1719 -0.9417
 2378TIP3   OH2 7097   1.578   3.211   0.113  0.9250  0.6056  0.1922
 2378TIP3    H1 7098   1.514   3.267   0.158 -0.0977  0.0952 -0.5788
 2378TIP3    H2 7099   1.533   3.184   0.033  1.3545 -1.3788  0.5661
 2379TIP3   OH2 7100   2.568   0.996   3.289  0.6840  0.0414 -0.7454
 2379TIP3    H1 7101   2.558   1.091   3.293 -0.6634  0.0005 -2.1402
 2379TIP3    H2 7102   2.661   0.981   3.304  0.7242  1.4625  0.7967
 2380TIP3   OH2 7103   1.928   5.459   3.451 -0.5002  0.1912  0.2968
 2380TIP3    H1 7104   1.883   5.405   3.516  0.5585  0.7749  1.5508
 2380TIP3    H2 7105   2.020   5.453   3.474 -0.2182  1.3548 -0.4286
 2381TIP3   OH2 7106   0.603   1.206   1.002 -0.1333  0.3153 -0.0220
 2381TIP3    H1 7107   0.532   1.173   1.056  0.9560 -1.1723  0.5720
 2381TIP3    H2 7108   0.616   1.296   1.030 -0.8244  0.1400  0.8766
 2382TIP3   OH2 7109   4.743   4.502   5.753  0.3079  0.0444  0.1567
 2382TIP3    H1 7110   4.677   4.571   5.758 -0.5558 -0.6606 -0.8103
 2382TIP3    H2 7111   4.816   4.533   5.805  0.5430  2.3282 -1.4040
 2383TIP3   OH2 7112   6.369   2.950   0.861  0.4786 -0.2665  0.0713
 2383TIP3    H1 7113   6.385   3.023   0.921 -0.8409 -0.2377  0.4292
 2383TIP3    H2 7114   6.367   2.873   0.917 -0.8922 -0.2252  0.1258
 2384TIP3   OH2 7115   6.909   5.306   4.020 -0.2873  0.5458  0.4216
 2384TIP3    H1 7116   6.826   5.349   4.039 -0.1934  0.2191  1.6983
 2384TIP3    H2 7117   6.975   5.372   4.039 -0.1751  0.0975  1.6745
 2385TIP3   OH2 7118   4.720   0.289   1.816 -0.4628 -0.1417 -0.0825
 2385TIP3    H1 7119   4.638   0.337   1.804  0.2735  1.1717 -0.0355
 2385TIP3    H2 7120   4.776   0.319   1.745 -0.3089 -1.7650 -0.7084
 2386TIP3   OH2 7121   6.272   4.360   5.582  0.5201 -0.1928 -0.3224
 2386TIP3    H1 7122   6.274   4.391   5.492 -0.6021  0.6499 -0.0816
 2386TIP3    H2 7123   6.200   4.409   5.623  0.1786 -1.4619  0.6897
 2387TIP3   OH2 7124   2.945   2.174   1.787 -0.0903 -0.0769 -0.0885
 2387TIP3    H1 7125   3.004   2.240   1.824 -0.0771 -0.7307  1.0858
 2387TIP3    H2 7126   2.997   2.132   1.718  1.1817 -1.2469  1.5138
 2388TIP3   OH2 7127   4.500   2.204   0.646 -0.3562 -0.7869  0.1996
 2388TIP3    H1 7128   4.519   2.291   0.613 -0.7859 -0.7861 -0.0490
 2388TIP3    H2 7129   4.565   2.147   0.604 -0.4192 -0.6688 -0.0588
 2389TIP3   OH2 7130   6.716   1.804   4.787 -0.2432 -0.2323 -0.1274
 2389TIP3    H1 7131   6.807   1.833   4.781  0.3720 -1.9691  0.0097
 2389TIP3    H2 7132   6.664   1.876   4.752  1.3129  0.1099 -1.8249
 2390TIP3   OH2 7133   5.267   4.868   5.541  0.6227  0.0911 -0.2255
 2390TIP3    H1 7134   5.342   4.920   5.570 -1.2681  1.8901  1.7214
 2390TIP3    H2 7135   5.289   4.844   5.451  1.6584  4.4172 -1.3672
 2391TIP3   OH2 7136   6.515   4.986   1.083 -0.4696  0.1878 -0.5545
 2391TIP3    H1 7137   6.594   4.975   1.136 -0.1485 -0.4800 -1.1561
 2391TIP3    H2 7138   6.533   5.064   1.030  0.1891 -0.5030 -1.3700
 2392TIP3   OH2 7139   5.975   5.496   2.243  0.0947  0.2673 -0.4415
 2392TIP3    H1 7140   5.991   5.424   2.305  0.0522 -1.7381 -2.6345
 2392TIP3    H2 7141   5.978   5.575   2.297 -1.4396 -1.4428  2.3695
 2393TIP3   OH2 7142   1.141   6.193   5.747 -0.3927  0.4800 -0.0421
 2393TIP3    H1 7143   1.169   6.229   5.831  1.5032 -0.5145 -0.1854
 2393TIP3    H2 7144   1.201   6.234   5.684  0.5139 -1.3612 -0.4445
 2394TIP3   OH2 7145   0.198   2.704   0.888 -0.4332 -0.1266 -0.0856
 2394TIP3    H1 7146   0.179   2.660   0.805 -1.6968 -2.1121  1.1817
 2394TIP3    H2 7147   0.114   2.738   0.918 -0.0543  0.2578  0.5714
 2395TIP3   OH2 7148   3.016   4.628   3.327 -0.2196 -0.5606  0.2464
 2395TIP3    H1 7149   2.989   4.683   3.401  2.5999  0.3579  0.7048
 2395TIP3    H2 7150   3.072   4.561   3.366  0.7535 -0.4870 -0.9630
 2396TIP3   OH2 7151   1.489   4.259   0.352  0.9636 -0.0770 -0.2163
 2396TIP3    H1 7152   1.551   4.188   0.337 -0.6465 -1.6837  0.1922
 2396TIP3    H2 7153   1.428   4.254   0.279 -0.8316 -1.0831  1.2411
 2397TIP3   OH2 7154   6.909   1.974   2.613 -0.8540  0.2988 -0.4596
 2397TIP3    H1 7155   6.944   2.020   2.537 -1.8801  0.2859 -0.9601
 2397TIP3    H2 7156   6.868   2.043   2.665  0.4368  0.4169  0.4612
 2398TIP3   OH2 7157   5.365   2.033   5.747  0.3962 -0.1101 -0.0189
 2398TIP3    H1 7158   5.269   2.033   5.737  0.4179 -0.1450 -0.2175
 2398TIP3    H2 7159   5.396   1.964   5.688  0.5433 -0.1132  0.0613
 2399TIP3   OH2 7160   0.885   0.586   4.149 -0.3104 -0.0818  0.0920
 2399TIP3    H1 7161   0.963   0.637   4.168 -0.5032 -0.3748  1.8452
 2399TIP3    H2 7162   0.887   0.572   4.054  0.5689  1.7939 -0.2009
 2400TIP3   OH2 7163   0.200   1.042   5.393  0.0610  0.2274  0.3058
 2400TIP3    H1 7164   0.126   1.084   5.435 -0.9964 -0.1626 -1.0789
 2400TIP3    H2 7165   0.272   1.106   5.401 -0.8599  1.2988  0.2764
 2401TIP3   OH2 7166   3.859   5.335   5.719 -0.0298  0.1178  0.1379
 2401TIP3    H1 7167   3.854   5.418   5.672  1.3935  0.7442  1.0225
 2401TIP3    H2 7168   3.785   5.337   5.780  0.2351  0.9379  0.4431
 2402TIP3   OH2 7169   4.754   6.329   4.793 -0.2049 -0.1483 -0.4271
 2402TIP3    H1 7170   4.739   6.273   4.716 -2.0049  1.7734 -1.5795
 2402TIP3    H2 7171   4.820   6.392   4.764  0.3443 -0.4304  0.1909
 2403TIP3   OH2 7172   2.326   3.059   3.187  0.6953  0.3048 -0.1085
 2403TIP3    H1 7173   2.345   3.095   3.100  0.8341 -2.0305 -1.1423
 2403TIP3    H2 7174   2.342   3.131   3.247 -0.3816  2.3207 -2.0879
 2404TIP3   OH2 7175   6.492   5.957   4.025 -0.0594  0.5595 -0.0119
 2404TIP3    H1 7176   6.422   6.016   4.054 -0.4396  0.4155 -0.6106
 2404TIP3    H2 7177   6.457   5.916   3.945  0.1910 -0.4764  0.3920
 2405TIP3   OH2 7178   4.862   0.616   1.954  0.1680  0.0174 -0.4243
 2405TIP3    H1 7179   4.934   0.555   1.937  1.5970  2.0864 -2.3030
 2405TIP3    H2 7180   4.891   0.665   2.032 -0.3537 -0.7289  0.2584
 2406TIP3   OH2 7181   0.144   2.436   2.829 -0.2745  0.2503 -0.5019
 2406TIP3    H1 7182   0.239   2.440   2.834 -0.3300  3.3561 -0.0114
 2406TIP3    H2 7183   0.125   2.448   2.736 -0.1776  2.1722 -0.3053
 2407TIP3   OH2 7184   0.501   1.142   2.088  0.7179 -0.3956 -0.0398
 2407TIP3    H1 7185   0.537   1.143   1.999 -0.0183 -0.2841 -0.3453
 2407TIP3    H2 7186   0.414   1.102   2.078  0.5858 -0.2748  0.6104
 2408TIP3   OH2 7187   3.075   2.200   2.525 -0.0393  0.5330  0.4496
 2408TIP3    H1 7188   3.158   2.177   2.565  0.3574  0.7084 -0.2568
 2408TIP3    H2 7189   3.056   2.288   2.558 -0.8652 -0.1819  2.0386
 2409TIP3   OH2 7190   0.091   6.038   4.384 -0.1771  0.5691  0.5109
 2409TIP3    H1 7191   0.144   6.104   4.429  1.8002 -0.6601  0.1087
 2409TIP3    H2 7192   0.074   5.972   4.451  2.0923 -0.8681 -0.1931
 2410TIP3   OH2 7193   5.763   3.462   1.260  0.4690  0.1853  0.2934
 2410TIP3    H1 7194   5.760   3.428   1.170 -1.2463  1.9098 -0.3934
 2410TIP3    H2 7195   5.736   3.554   1.251  0.7958  0.5521  2.5183
 2411TIP3   OH2 7196   2.631   2.199   4.194 -0.3060  0.4208  0.1689
 2411TIP3    H1 7197   2.609   2.236   4.279 -0.0720  0.1532  0.3466
 2411TIP3    H2 7198   2.550   2.157   4.164  0.4522 -2.3908  1.7564
 2412TIP3   OH2 7199   2.294   5.346   4.733  0.0987  0.2474  0.2171
 2412TIP3    H1 7200   2.352   5.318   4.803  0.9289  0.2149 -0.4681
 2412TIP3    H2 7201   2.233   5.407   4.775  0.2200 -0.2046  1.0732
 2413TIP3   OH2 7202   6.523   0.317   5.009 -0.2623 -0.3444  0.8758
 2413TIP3    H1 7203   6.435   0.294   5.038 -1.4232  1.4541 -0.9442
 2413TIP3    H2 7204   6.519   0.411   4.990  1.1553 -0.7317 -2.0035
 2414TIP3   OH2 7205   5.112   0.135   3.330  0.5888 -0.1889 -0.1521
 2414TIP3    H1 7206   5.089   0.126   3.423  0.2095 -1.3961 -0.3501
 2414TIP3    H2 7207   5.032   0.164   3.288  0.1463 -1.7038 -0.4116
 2415TIP3   OH2 7208   4.010   4.262   1.975 -0.1001  0.2261  0.0970
 2415TIP3    H1 7209   3.960   4.181   1.978 -0.7328  0.5970 -0.2963
 2415TIP3    H2 7210   4.048   4.270   2.063 -0.9723  0.0885  0.4948
 2416TIP3   OH2 7211   2.747   6.663   3.927 -0.1929  0.7260  0.3301
 2416TIP3    H1 7212   2.806   6.628   3.861  0.2966  1.5680  0.3140
 2416TIP3    H2 7213   2.783   6.749   3.949 -1.8533  1.6238 -0.2747
 2417TIP3   OH2 7214   0.827   5.338   4.932 -0.2862  0.3046  0.2082
 2417TIP3    H1 7215   0.846   5.244   4.939  0.4362  0.4335  0.1032
 2417TIP3    H2 7216   0.807   5.352   4.839 -3.6012 -0.2920  0.7389
 2418TIP3   OH2 7217   5.327   6.467   1.329  0.3764  0.5310 -0.0079
 2418TIP3    H1 7218   5.281   6.466   1.245  2.1163 -1.8039 -1.0688
 2418TIP3    H2 7219   5.271   6.416   1.388  0.7811 -0.9073 -0.8222
 2419TIP3   OH2 7220   3.121   0.612   4.835  0.0850 -0.0868 -0.3745
 2419TIP3    H1 7221   3.095   0.538   4.890  0.1235  1.0365  1.2250
 2419TIP3    H2 7222   3.213   0.628   4.858 -0.4161  1.5673  0.7123
 2420TIP3   OH2 7223   3.325   6.747   1.333  0.1269  0.1640 -0.0106
 2420TIP3    H1 7224   3.365   6.830   1.305  0.0054  0.5142  0.8084
 2420TIP3    H2 7225   3.330   6.691   1.256  0.0744  0.9840 -0.6316
 2421TIP3   OH2 7226   6.459   4.742   0.310  0.2043 -0.5164 -0.4544
 2421TIP3    H1 7227   6.515   4.741   0.232  0.9756 -1.4803  0.0859
 2421TIP3    H2 7228   6.520   4.754   0.383 -0.2742 -1.6101  0.1522
 2422TIP3   OH2 7229   0.005   1.471   4.891 -0.0622 -0.1662  0.6552
 2422TIP3    H1 7230   0.015   1.399   4.954 -0.5232 -0.6332  0.2009
 2422TIP3    H2 7231   0.095   1.493   4.866  0.0735 -0.6788  0.6905
 2423TIP3   OH2 7232   6.432   2.866   3.317  0.5657 -0.4595  0.2846
 2423TIP3    H1 7233   6.447   2.873   3.411  2.3276  0.8650 -0.0329
 2423TIP3    H2 7234   6.418   2.773   3.302  0.7276 -0.7597  1.7930
 2424TIP3   OH2 7235   6.495   4.882   4.165 -0.4956  0.1965  0.4095
 2424TIP3    H1 7236   6.515   4.794   4.133  0.0117  0.2087  0.6914
 2424TIP3    H2 7237   6.548   4.940   4.111 -0.7789  0.3296  0.2698
 2425TIP3   OH2 7238   5.174   2.096   5.342 -0.7538  0.2399 -0.3824
 2425TIP3    H1 7239   5.191   2.189   5.351  0.9472 -0.1298  0.5508
 2425TIP3    H2 7240   5.236   2.066   5.276 -0.3339 -0.4713  0.3197
 2426TIP3   OH2 7241   6.247   3.728   2.902  0.5630  0.2015  0.2278
 2426TIP3    H1 7242   6.291   3.718   2.818 -0.5349 -1.4607 -0.2012
 2426TIP3    H2 7243   6.297   3.795   2.948  1.3258  0.9787 -1.6479
 2427TIP3   OH2 7244   4.387   5.360   0.195 -0.2594 -0.4262 -0.1974
 2427TIP3    H1 7245   4.341   5.357   0.278  0.9547 -0.9258  0.4854
 2427TIP3    H2 7246   4.459   5.297   0.205  0.1195 -0.2337 -1.4915
 2428TIP3   OH2 7247   2.392   0.756   4.933  0.5592 -0.0672 -0.1253
 2428TIP3    H1 7248   2.362   0.803   5.010  0.4708  0.3140 -0.3893
 2428TIP3    H2 7249   2.391   0.821   4.863  0.5788 -0.4247 -0.4622
 2429TIP3   OH2 7250   6.521   3.728   2.235  0.1192 -0.5680  0.0468
 2429TIP3    H1 7251   6.610   3.695   2.231 -0.2116 -1.3262 -1.7913
 2429TIP3    H2 7252   6.487   3.719   2.146 -0.8247  2.4561 -0.0291
 2430TIP3   OH2 7253   3.109   0.634   3.099 -0.0671  0.5974  0.3090
 2430TIP3    H1 7254   3.199   0.633   3.132  0.4691 -1.7615 -1.0047
 2430TIP3    H2 7255   3.060   0.583   3.163  0.2278 -0.8216 -0.5460
 2431TIP3   OH2 7256   3.510   2.062   3.093 -0.4667 -0.1548 -0.1118
 2431TIP3    H1 7257   3.460   2.139   3.121  0.1530  0.3706 -0.4592
 2431TIP3    H2 7258   3.446   1.991   3.097 -2.0882  0.9616 -3.2704
 2432TIP3   OH2 7259   3.160   1.000   2.409  1.0629 -0.2756 -0.0433
 2432TIP3    H1 7260   3.197   1.039   2.330  0.4838  2.8187  1.0952
 2432TIP3    H2 7261   3.229   1.006   2.474  0.1779  1.2264  0.8173
 2433TIP3   OH2 7262   5.204   2.032   1.356 -0.1334 -0.1969  0.3524
 2433TIP3    H1 7263   5.118   2.006   1.389  0.0969 -1.0814  0.2690
 2433TIP3    H2 7264   5.194   2.032   1.261  0.7370 -3.2075  0.1868
 2434TIP3   OH2 7265   4.981   3.544   4.915  0.1727 -0.2363 -0.6194
 2434TIP3    H1 7266   4.939   3.566   4.832  0.7443  0.3997 -0.7452
 2434TIP3    H2 7267   5.026   3.624   4.942 -0.2166 -0.3467  0.4394
 2435TIP3   OH2 7268   0.003   5.240   2.646  0.5039  0.1845  0.1856
 2435TIP3    H1 7269  -0.056   5.308   2.613 -0.6628 -1.6499 -1.7444
 2435TIP3    H2 7270   0.064   5.224   2.574  0.7188 -0.8485  0.5782
 2436TIP3   OH2 7271   1.152   3.659   3.925 -0.3043  0.3011 -0.0870
 2436TIP3    H1 7272   1.059   3.637   3.930 -0.2486  0.0320 -0.2079
 2436TIP3    H2 7273   1.162   3.738   3.979 -0.4306 -0.2173  0.7119
 2437TIP3   OH2 7274   6.037   0.509   2.949 -0.7138 -0.7082 -0.2420
 2437TIP3    H1 7275   6.016   0.461   3.029 -0.2749 -0.4268  0.0387
 2437TIP3    H2 7276   5.971   0.479   2.886 -1.7741 -0.1004  0.5361
 2438TIP3   OH2 7277   2.379   3.541   1.303  0.0560  0.5638  0.4701
 2438TIP3    H1 7278   2.362   3.623   1.349 -0.6646  2.0527 -2.1905
 2438TIP3    H2 7279   2.304   3.531   1.244 -0.0853 -2.2951  0.9976
 2439TIP3   OH2 7280   6.273   4.331   3.194  0.4658 -0.8798  0.1606
 2439TIP3    H1 7281   6.368   4.332   3.179  0.3227 -0.5497 -0.7972
 2439TIP3    H2 7282   6.245   4.244   3.163  0.3441 -0.6566 -0.3737
 2440TIP3   OH2 7283   4.510   5.068   5.752  0.1412  0.2585 -0.2322
 2440TIP3    H1 7284   4.466   5.151   5.771 -0.8860 -0.7666  2.1080
 2440TIP3    H2 7285   4.592   5.073   5.801  1.3509  0.9114 -2.1956
 2441TIP3   OH2 7286   1.514   6.449   3.855 -0.2168 -0.0854 -0.0119
 2441TIP3    H1 7287   1.591   6.503   3.872 -0.3254  0.2739 -0.6045
 2441TIP3    H2 7288   1.521   6.426   3.762 -1.5305  1.1373 -0.4571
 2442TIP3   OH2 7289   1.508   6.501   2.005 -0.1953 -0.2817 -0.2329
 2442TIP3    H1 7290   1.566   6.576   1.990  0.3124 -0.5145  0.5203
 2442TIP3    H2 7291   1.423   6.540   2.021  0.5041  0.3145  2.5207
 2443TIP3   OH2 7292   1.511   4.490   1.494  0.2518  0.9446  0.3831
 2443TIP3    H1 7293   1.454   4.566   1.507  0.1050  0.8816  0.1111
 2443TIP3    H2 7294   1.475   4.446   1.416 -0.1954  0.1233  1.0294
 2444TIP3   OH2 7295   3.663   2.854   4.982  0.1509 -0.1348 -0.0701
 2444TIP3    H1 7296   3.717   2.888   5.053  1.7752 -1.9051 -0.3792
 2444TIP3    H2 7297   3.723   2.846   4.908 -1.3422  1.0226 -1.4982
 2445TIP3   OH2 7298   4.083   6.189   5.584  0.0072 -0.2807  0.0173
 2445TIP3    H1 7299   4.064   6.255   5.516  0.2291  0.3880  0.5892
 2445TIP3    H2 7300   3.996   6.165   5.617 -0.0405  0.2305  0.2723
 2446TIP3   OH2 7301   6.828   4.932   4.928 -0.0600  0.2073  0.3088
 2446TIP3    H1 7302   6.917   4.929   4.963  0.7506  0.4779 -1.5990
 2446TIP3    H2 7303   6.779   4.985   4.991  1.6624  1.8819  0.3324
 2447TIP3   OH2 7304   1.813   1.467   1.333  0.4691  0.7485  0.4350
 2447TIP3    H1 7305   1.908   1.480   1.342  0.4002  0.7225  1.3160
 2447TIP3    H2 7306   1.802   1.372   1.336  0.3584  0.7757  1.0678
 2448TIP3   OH2 7307   3.446   5.184   0.145 -0.7797 -0.5617  0.2303
 2448TIP3    H1 7308   3.518   5.132   0.180 -1.3005  0.6242  3.3830
 2448TIP3    H2 7309   3.370   5.159   0.198 -2.0184  0.3071 -1.0613
 2449TIP3   OH2 7310   0.588   5.366   2.562  1.0153 -0.0330  0.2558
 2449TIP3    H1 7311   0.611   5.453   2.530  1.0959 -0.8974 -2.2397
 2449TIP3    H2 7312   0.493   5.369   2.573  1.2491  1.0083  2.4360
 2450TIP3   OH2 7313   1.355   0.131   0.148 -0.1404 -0.3477  0.1397
 2450TIP3    H1 7314   1.372   0.177   0.066 -2.1043 -3.0934 -1.9766
 2450TIP3    H2 7315   1.442   0.101   0.176  0.5801  0.6870 -0.8699
 2451TIP3   OH2 7316   6.211   4.210   3.619 -0.6449 -0.1612  0.0558
 2451TIP3    H1 7317   6.224   4.274   3.689  3.0291 -0.5174 -0.1000
 2451TIP3    H2 7318   6.239   4.254   3.540 -0.7058 -1.1028 -0.5104
 2452TIP3   OH2 7319   5.732   4.306   3.737  0.1686 -0.1446  0.8309
 2452TIP3    H1 7320   5.798   4.371   3.712  2.2957 -2.5697 -0.2181
 2452TIP3    H2 7321   5.754   4.282   3.827 -0.1028 -0.0420  0.9278
 2453TIP3   OH2 7322   5.630   5.905   0.224  0.0835 -0.2197  0.6838
 2453TIP3    H1 7323   5.630   5.815   0.190 -0.6078  0.0225  0.0339
 2453TIP3    H2 7324   5.538   5.931   0.224  0.3788  0.9197 -0.3141
 2454TIP3   OH2 7325   0.351   2.421   0.223 -0.0410 -0.1117  0.0205
 2454TIP3    H1 7326   0.289   2.474   0.273 -0.5680  1.0088 -1.7388
 2454TIP3    H2 7327   0.415   2.392   0.288 -1.9172 -0.6302  1.7469
 2455TIP3   OH2 7328   3.970   4.152   3.161  0.7057 -0.5612 -0.1742
 2455TIP3    H1 7329   3.911   4.088   3.200  1.6619 -1.1984  0.2734
 2455TIP3    H2 7330   3.946   4.235   3.202 -0.0783 -0.7561 -0.2303
 2456TIP3   OH2 7331   6.957   2.842   4.726 -0.3215 -0.0090 -0.1921
 2456TIP3    H1 7332   6.914   2.821   4.809 -0.2049 -0.8463 -0.3341
 2456TIP3    H2 7333   6.885   2.846   4.662 -0.1887 -2.0494 -0.5578
 2457TIP3   OH2 7334   1.372   6.544   1.760 -0.5136 -0.4013 -0.3648
 2457TIP3    H1 7335   1.329   6.604   1.820 -1.7380 -0.1684 -1.4231
 2457TIP3    H2 7336   1.418   6.482   1.816  0.8133  1.5059  0.7681
 2458TIP3   OH2 7337   0.316   4.494   2.128 -0.1327 -0.0785 -0.4529
 2458TIP3    H1 7338   0.342   4.461   2.042  0.2351  1.3689 -0.9312
 2458TIP3    H2 7339   0.221   4.502   2.123  0.0551  2.5279 -1.7653
 2459TIP3   OH2 7340   0.876   3.404   2.771 -0.3042 -0.6063 -0.1321
 2459TIP3    H1 7341   0.892   3.354   2.690  1.3226 -1.6071  0.7413
 2459TIP3    H2 7342   0.825   3.345   2.826 -0.0261 -0.5706  0.1711
 2460TIP3   OH2 7343   6.113   3.731   2.247 -0.6256  0.0010  0.2735
 2460TIP3    H1 7344   6.060   3.680   2.308 -1.9941  0.7083 -0.2870
 2460TIP3    H2 7345   6.168   3.666   2.204 -1.5503 -0.8651  0.3605
 2461TIP3   OH2 7346   3.064   5.669   4.428 -0.1450  0.2325 -0.1434
 2461TIP3    H1 7347   3.132   5.622   4.475 -0.3339 -0.5175 -0.6123
 2461TIP3    H2 7348   2.983   5.625   4.452 -0.3495  0.4520 -0.4165
 2462TIP3   OH2 7349   6.798   1.323   5.712 -0.2190 -0.6715 -0.5035
 2462TIP3    H1 7350   6.762   1.370   5.788  2.1468  1.6467 -0.7015
 2462TIP3    H2 7351   6.783   1.382   5.638  2.4100 -0.3108 -0.8449
 2463TIP3   OH2 7352   2.459   4.725   0.307  0.0316 -0.0410  0.1934
 2463TIP3    H1 7353   2.369   4.745   0.282 -0.3458  0.2156  1.6869
 2463TIP3    H2 7354   2.510   4.739   0.226 -1.4249 -1.6299 -1.0782
 2464TIP3   OH2 7355   0.626   2.839   0.274 -0.4332  0.7276  0.2773
 2464TIP3    H1 7356   0.583   2.911   0.226  0.6057  1.3208  0.2187
 2464TIP3    H2 7357   0.627   2.868   0.365  0.2073  0.9008  0.2179
 2465TIP3   OH2 7358   3.612   4.111   2.055  0.4583 -0.0473  0.0619
 2465TIP3    H1 7359   3.578   4.155   1.977 -0.1203 -3.4443 -1.8065
 2465TIP3    H2 7360   3.700   4.084   2.029  0.1712 -1.4148  0.4697
 2466TIP3   OH2 7361   0.921   5.336   2.822 -0.4370 -0.0455  0.2960
 2466TIP3    H1 7362   0.848   5.392   2.796 -0.5387 -0.1049  0.4519
 2466TIP3    H2 7363   0.881   5.252   2.845 -0.1918 -0.4742 -0.7957
 2467TIP3   OH2 7364   2.157   0.389   2.760  0.1635  0.3841  0.0801
 2467TIP3    H1 7365   2.177   0.311   2.707 -2.0904  0.7475 -1.4268
 2467TIP3    H2 7366   2.115   0.355   2.839 -1.9561  0.0272 -1.1213
 2468TIP3   OH2 7367   1.981   0.370   2.217 -0.0633  0.5043 -0.2803
 2468TIP3    H1 7368   1.908   0.349   2.158 -0.1309 -1.2487  0.3726
 2468TIP3    H2 7369   2.059   0.346   2.168 -0.1552 -1.8952  0.6103
 2469TIP3   OH2 7370   2.588   6.459   2.008 -0.6636  0.6854  0.1707
 2469TIP3    H1 7371   2.562   6.551   2.000 -2.4252  0.1320 -1.0225
 2469TIP3    H2 7372   2.651   6.446   1.937 -0.2322  0.9995  0.4855
 2470TIP3   OH2 7373   6.665   3.698   4.946  0.1672 -0.3250 -0.2577
 2470TIP3    H1 7374   6.740   3.742   4.904  0.6903 -0.0833  0.8991
 2470TIP3    H2 7375   6.674   3.719   5.039  0.0834 -2.3757  0.2617
 2471TIP3   OH2 7376   6.673   0.675   5.177  0.2430 -0.1622 -0.2558
 2471TIP3    H1 7377   6.690   0.694   5.085 -0.8686  0.0936 -0.4230
 2471TIP3    H2 7378   6.581   0.701   5.191  0.7389  0.9768  1.2296
 2472TIP3   OH2 7379   2.975   6.283   1.570  0.2188  0.1742  0.4000
 2472TIP3    H1 7380   3.018   6.346   1.628 -0.0052 -1.9954  3.1248
 2472TIP3    H2 7381   3.048   6.237   1.527  0.5176 -0.4691  1.5710
 2473TIP3   OH2 7382   0.990   6.383   2.417 -0.0883  0.0518 -0.1894
 2473TIP3    H1 7383   1.060   6.322   2.393 -1.3381 -1.5225 -0.0312
 2473TIP3    H2 7384   1.033   6.468   2.426  1.4176 -0.4264 -2.2317
 2474TIP3   OH2 7385   4.315   0.959   1.851 -0.2893  0.0083  0.0048
 2474TIP3    H1 7386   4.236   0.934   1.803  0.1325  0.3710 -0.8945
 2474TIP3    H2 7387   4.317   0.900   1.926 -2.6232  1.4251  1.2906
 2475TIP3   OH2 7388   0.099   2.978   3.146 -0.2627  0.0027 -0.2826
 2475TIP3    H1 7389   0.029   3.042   3.132  0.4248  0.9792  0.5722
 2475TIP3    H2 7390   0.180   3.027   3.130  0.3215 -0.3386  1.3531
 2476TIP3   OH2 7391   1.598   5.274   2.314  0.5100 -0.0035  0.0746
 2476TIP3    H1 7392   1.689   5.268   2.285  0.5105 -0.5774  0.2008
 2476TIP3    H2 7393   1.598   5.349   2.375  0.8728  0.0715 -0.0141
 2477TIP3   OH2 7394   6.891   6.672   0.452 -0.0653 -0.0501 -0.2977
 2477TIP3    H1 7395   6.801   6.650   0.474 -0.4672  0.1625 -1.6112
 2477TIP3    H2 7396   6.891   6.767   0.443  0.0033 -0.1390 -1.3976
 2478TIP3   OH2 7397   5.998   3.129   5.600 -0.0010 -0.6347 -0.2127
 2478TIP3    H1 7398   5.960   3.130   5.512  0.7204 -1.8401 -0.5697
 2478TIP3    H2 7399   5.933   3.172   5.655 -0.2071  0.6795 -1.4266
 2479TIP3   OH2 7400   3.755   0.121   4.464 -0.2130 -0.7680 -0.2549
 2479TIP3    H1 7401   3.717   0.166   4.389 -3.6039  1.3205  2.4028
 2479TIP3    H2 7402   3.803   0.189   4.511  1.2569 -1.8673 -0.0793
 2480TIP3   OH2 7403   4.675   6.329   2.214  0.0346 -0.1587 -0.1021
 2480TIP3    H1 7404   4.720   6.268   2.156  1.1074  1.5673 -1.1469
 2480TIP3    H2 7405   4.727   6.328   2.294  0.6150  0.1195 -0.4742
 2481TIP3   OH2 7406   1.378   3.571   1.494 -0.0265 -0.3810 -0.1621
 2481TIP3    H1 7407   1.414   3.495   1.448 -0.8600  0.5924 -2.5906
 2481TIP3    H2 7408   1.286   3.548   1.509 -0.3034  0.1518 -0.9839
 2482TIP3   OH2 7409   2.480   1.268   3.303 -0.0206  0.1311 -0.0128
 2482TIP3    H1 7410   2.481   1.306   3.215 -0.7600  0.2719  0.0375
 2482TIP3    H2 7411   2.389   1.275   3.332  0.1235 -0.3412  0.5816
 2483TIP3   OH2 7412   0.650   2.084   0.200 -0.0697  0.1369 -0.0072
 2483TIP3    H1 7413   0.723   2.026   0.221  0.7174  1.4094  0.9488
 2483TIP3    H2 7414   0.644   2.083   0.105 -0.1136 -1.5243 -0.0137
 2484TIP3   OH2 7415   4.497   2.693   5.529  0.1556 -0.2060 -0.5998
 2484TIP3    H1 7416   4.442   2.667   5.455 -0.7136  0.0992 -0.0755
 2484TIP3    H2 7417   4.520   2.784   5.511 -1.5043  0.4338  0.3374
 2485TIP3   OH2 7418   5.182   1.791   5.278 -0.1071 -0.0865 -0.1079
 2485TIP3    H1 7419   5.133   1.864   5.315 -0.7658  0.8878 -2.7128
 2485TIP3    H2 7420   5.144   1.713   5.319 -1.5362  0.8499  0.4177
 2486TIP3   OH2 7421   4.586   4.449   4.592 -0.3187  0.0880 -0.2971
 2486TIP3    H1 7422   4.516   4.390   4.565  1.1770 -1.7025 -0.4099
 2486TIP3    H2 7423   4.659   4.429   4.534  0.6674  1.1052  0.5417
 2487TIP3   OH2 7424   4.747   6.654   3.752  0.1382 -0.0442 -0.4801
 2487TIP3    H1 7425   4.753   6.735   3.802 -1.1100 -1.2807  1.8903
 2487TIP3    H2 7426   4.768   6.678   3.662  0.8889  2.6552  0.3481
 2488TIP3   OH2 7427   0.319   1.957   0.054  0.6421 -0.2358 -0.7817
 2488TIP3    H1 7428   0.245   1.897   0.048 -0.8576  1.5873 -1.4689
 2488TIP3    H2 7429   0.292   2.022   0.119  2.1067 -0.0998 -0.2584
 2489TIP3   OH2 7430   1.207   1.610   3.898  0.0679  0.3433  0.2006
 2489TIP3    H1 7431   1.285   1.645   3.941  0.8159  1.1036 -1.7006
 2489TIP3    H2 7432   1.205   1.518   3.925  1.0961  0.5274  0.9817
 2490TIP3   OH2 7433   6.924   3.793   3.464 -0.3664  0.1059 -0.6357
 2490TIP3    H1 7434   6.948   3.825   3.378 -0.8733  1.7412 -0.1968
 2490TIP3    H2 7435   6.838   3.752   3.452 -0.7152  0.8763 -0.8026
 2491TIP3   OH2 7436   4.905   3.265   5.052 -0.4808  0.0577  0.5795
 2491TIP3    H1 7437   5.000   3.266   5.048 -0.4202 -0.5160  1.5272
 2491TIP3    H2 7438   4.877   3.332   4.989  0.6266  2.4465  2.4600
 2492TIP3   OH2 7439   3.510   3.327   0.284 -0.0120 -0.8546 -0.5682
 2492TIP3    H1 7440   3.428   3.373   0.265 -1.1421 -1.9712  1.2740
 2492TIP3    H2 7441   3.568   3.395   0.318 -1.5543 -0.6201  1.8379
 2493TIP3   OH2 7442   4.385   5.539   3.938  0.4437  0.3284  0.2408
 2493TIP3    H1 7443   4.290   5.552   3.933  0.0748 -1.2075  2.1812
 2493TIP3    H2 7444   4.406   5.550   4.030  2.4123  1.9241 -0.3352
 2494TIP3   OH2 7445   5.560   1.265   1.217  0.1973  0.2625  0.3285
 2494TIP3    H1 7446   5.542   1.239   1.308 -0.8426  1.4132  0.4750
 2494TIP3    H2 7447   5.541   1.359   1.215 -3.0735 -0.2966 -1.8495
 2495TIP3   OH2 7448   3.938   0.026   4.771  0.4797 -0.4178 -0.6673
 2495TIP3    H1 7449   3.869  -0.022   4.724 -0.4939  1.2362 -1.0077
 2495TIP3    H2 7450   3.902   0.040   4.858  1.4401 -1.6827 -0.0332
 2496TIP3   OH2 7451   2.118   2.057   1.049  0.1670  0.2021  0.7248
 2496TIP3    H1 7452   2.183   2.064   0.979 -0.5473 -1.0908 -0.1071
 2496TIP3    H2 7453   2.071   2.141   1.046 -1.6738 -0.7669 -2.2710
 2497TIP3   OH2 7454   6.377   0.359   4.071 -0.6933 -0.2529 -0.1043
 2497TIP3    H1 7455   6.470   0.369   4.091 -1.0290  0.8868  0.9634
 2497TIP3    H2 7456   6.375   0.326   3.981  0.7188  0.1838 -0.3085
 2498TIP3   OH2 7457   5.138   6.772   4.197 -0.0977 -0.8757  0.2257
 2498TIP3    H1 7458   5.164   6.861   4.172  0.6132 -1.0224  0.4376
 2498TIP3    H2 7459   5.059   6.755   4.145 -1.0544  0.4081  1.2171
 2499TIP3   OH2 7460   1.270   1.750   2.320  0.0602  0.6290 -0.0622
 2499TIP3    H1 7461   1.189   1.769   2.273  1.0319  0.6453 -1.8198
 2499TIP3    H2 7462   1.338   1.798   2.272  1.5765 -1.8518 -0.6198
 2500TIP3   OH2 7463   1.568   1.515   4.924  0.5150  0.5740  0.0814
 2500TIP3    H1 7464   1.532   1.585   4.870  0.5966 -0.1416 -0.9238
 2500TIP3    H2 7465   1.497   1.451   4.931  1.0310 -0.0742 -0.5225
 2501TIP3   OH2 7466   6.612   1.633   4.612 -0.2164  0.5350 -0.6819
 2501TIP3    H1 7467   6.622   1.671   4.700 -0.0154 -0.2247 -0.3680
 2501TIP3    H2 7468   6.689   1.662   4.564  0.5268 -0.3796 -0.0965
 2502TIP3   OH2 7469   5.020   1.033   2.375 -0.3322  0.0215  0.4122
 2502TIP3    H1 7470   4.989   0.983   2.450 -0.9349 -1.4550 -0.7830
 2502TIP3    H2 7471   5.026   1.123   2.408 -2.3273 -0.2598  1.7284
 2503TIP3   OH2 7472   3.412   4.982   1.859  0.6994  0.1302 -0.5613
 2503TIP3    H1 7473   3.505   4.969   1.881  0.3957 -0.0600  0.6803
 2503TIP3    H2 7474   3.384   4.898   1.823  0.8082 -0.0765 -0.1717
 2504TIP3   OH2 7475   4.514   0.258   5.069  0.3202  0.2353 -0.0285
 2504TIP3    H1 7476   4.574   0.228   5.000 -1.5135  0.6049 -1.8688
 2504TIP3    H2 7477   4.446   0.191   5.074 -0.9741  1.4610 -0.4656
 2505TIP3   OH2 7478   2.685   0.733   4.040  0.4003 -0.8930 -0.3699
 2505TIP3    H1 7479   2.687   0.800   4.109  2.3383 -2.0549  0.8318
 2505TIP3    H2 7480   2.623   0.668   4.072  1.6570 -1.6720  0.6196
 2506TIP3   OH2 7481   3.924   4.861   3.369 -0.2383  0.3036  0.5386
 2506TIP3    H1 7482   3.865   4.791   3.400 -0.7887  0.5133 -0.0135
 2506TIP3    H2 7483   3.911   4.863   3.274 -2.2862  2.9388  0.7466
 2507TIP3   OH2 7484   4.896   0.566   2.543 -0.3158 -0.1645  0.3372
 2507TIP3    H1 7485   4.934   0.630   2.603  1.0031  0.2053 -0.8315
 2507TIP3    H2 7486   4.944   0.485   2.562 -0.6169 -0.3156  0.4675
 2508TIP3   OH2 7487   6.807   1.627   5.006  0.5343 -0.0252  0.0884
 2508TIP3    H1 7488   6.899   1.623   4.981  0.0711 -0.7759 -1.6379
 2508TIP3    H2 7489   6.772   1.702   4.959 -0.0512 -0.6263 -0.4658
 2509TIP3   OH2 7490   3.869   5.818   2.268 -0.7633  0.4045  0.6523
 2509TIP3    H1 7491   3.784   5.783   2.241 -0.4924  0.5802 -0.4526
 2509TIP3    H2 7492   3.850   5.905   2.302 -1.0184  0.4507  0.3871
 2510TIP3   OH2 7493   5.609   1.616   0.962 -0.5679  0.1316 -0.3716
 2510TIP3    H1 7494   5.688   1.573   0.994 -0.7782  1.4372  2.1387
 2510TIP3    H2 7495   5.550   1.543   0.939 -0.2431 -0.9657  1.9631
 2511TIP3   OH2 7496   6.999   2.956   3.154 -0.4559  0.2009  0.4839
 2511TIP3    H1 7497   7.000   3.032   3.212 -1.0614  0.8518 -0.3334
 2511TIP3    H2 7498   6.909   2.923   3.159 -0.8089  0.8849 -0.8396
 2512TIP3   OH2 7499   0.575   2.890   4.516 -0.4274 -0.3151  0.1106
 2512TIP3    H1 7500   0.637   2.936   4.459  0.1946  1.5272  2.1346
 2512TIP3    H2 7501   0.626   2.818   4.553  0.2145  0.4659  0.8179
 2513TIP3   OH2 7502   2.158   1.083   0.477 -0.6152 -0.0947  0.2640
 2513TIP3    H1 7503   2.099   1.158   0.470 -0.5594 -0.1340 -0.8192
 2513TIP3    H2 7504   2.225   1.098   0.410  0.6470 -0.0320  1.4921
 2514TIP3   OH2 7505   4.996   5.359   2.403  0.0810 -0.0587 -0.6235
 2514TIP3    H1 7506   4.938   5.420   2.357  0.0455  0.9381  0.7061
 2514TIP3    H2 7507   5.034   5.306   2.333  0.8650  2.1073 -1.9446
 2515TIP3   OH2 7508   1.601   5.354   1.469 -0.1698  0.2995 -0.1000
 2515TIP3    H1 7509   1.552   5.301   1.406 -1.2339  0.0099  0.9339
 2515TIP3    H2 7510   1.535   5.384   1.532  0.7220  1.3072  0.3934
 2516TIP3   OH2 7511   6.945   3.110   3.457 -0.5694 -0.2726 -0.1240
 2516TIP3    H1 7512   6.874   3.107   3.521  0.0248 -1.0362  0.5302
 2516TIP3    H2 7513   6.973   3.201   3.457 -0.1552 -0.3698  1.2122
 2517TIP3   OH2 7514   6.192   0.462   5.661  0.1503 -0.2550  0.0923
 2517TIP3    H1 7515   6.256   0.392   5.670 -1.3463 -1.7668 -0.3956
 2517TIP3    H2 7516   6.233   0.525   5.601  1.1136 -1.2563 -0.3369
 2518TIP3   OH2 7517   2.090   5.988   4.803  0.2827  0.1830  0.5198
 2518TIP3    H1 7518   2.170   6.039   4.791 -0.4087  1.6425  1.7357
 2518TIP3    H2 7519   2.079   5.982   4.898 -0.8645 -0.3072  0.3819
 2519TIP3   OH2 7520   3.104   0.597   0.448  0.3947 -0.0733 -0.4710
 2519TIP3    H1 7521   3.018   0.636   0.466 -0.0118 -0.7924 -0.8251
 2519TIP3    H2 7522   3.128   0.555   0.531 -0.7306 -1.9733 -1.0535
 2520TIP3   OH2 7523   0.930   4.963   4.139 -0.2736  0.3161 -0.6826
 2520TIP3    H1 7524   0.880   5.041   4.115 -0.2433  0.1725 -1.2164
 2520TIP3    H2 7525   0.912   4.952   4.233  0.9241  1.8421 -0.2277
 2521TIP3   OH2 7526   4.558   3.061   4.092 -0.4182 -0.0856  0.5600
 2521TIP3    H1 7527   4.648   3.029   4.085  0.3673  1.8872  0.9817
 2521TIP3    H2 7528   4.518   3.039   4.008  0.1026 -1.9331  0.7581
 2522TIP3   OH2 7529   4.602   4.383   3.830  0.1270  0.2379 -0.1638
 2522TIP3    H1 7530   4.576   4.474   3.843  0.2030  0.0821  1.1117
 2522TIP3    H2 7531   4.697   4.385   3.825  0.0693  0.4343 -1.9575
 2523TIP3   OH2 7532   0.252   6.740   4.816  0.1056 -0.1736  0.0853
 2523TIP3    H1 7533   0.282   6.702   4.733 -1.1554 -0.2394 -0.3665
 2523TIP3    H2 7534   0.328   6.785   4.851  0.1150  1.7666 -2.2077
 2524TIP3   OH2 7535   6.046   3.452   0.405 -0.0708  0.3876 -0.0663
 2524TIP3    H1 7536   6.001   3.415   0.329  1.1841 -1.1841 -0.1191
 2524TIP3    H2 7537   5.994   3.423   0.480  0.0833 -0.2880 -0.2052
 2525TIP3   OH2 7538   6.881   3.807   3.136  0.0884 -0.0635 -0.3238
 2525TIP3    H1 7539   6.933   3.844   3.065 -1.2211 -0.9660 -1.8133
 2525TIP3    H2 7540   6.928   3.727   3.160  0.6026  0.3092 -0.0776
 2526TIP3   OH2 7541   6.929   1.565   3.908  0.7046 -0.5915  0.5725
 2526TIP3    H1 7542   6.970   1.639   3.863  2.3406 -0.4598  2.1588
 2526TIP3    H2 7543   6.968   1.488   3.868 -0.2116 -0.5949 -0.3550
 2527TIP3   OH2 7544   0.210   4.000   3.674  0.0083  0.0982  0.2538
 2527TIP3    H1 7545   0.187   4.087   3.642  0.8070  1.4383  2.9895
 2527TIP3    H2 7546   0.132   3.970   3.720 -0.3936 -0.8621 -0.9863
 2528TIP3   OH2 7547   6.456   3.247   1.029 -0.8688 -0.9183 -0.3513
 2528TIP3    H1 7548   6.369   3.287   1.039  0.1904  1.2852  0.7587
 2528TIP3    H2 7549   6.482   3.269   0.940 -0.0610  1.5501  0.4225
 2529TIP3   OH2 7550   3.687   4.812   5.727 -0.0754  0.2336  0.1394
 2529TIP3    H1 7551   3.608   4.844   5.684  0.0106  2.6229  1.5432
 2529TIP3    H2 7552   3.742   4.890   5.738  2.8139 -1.4085 -1.3230
 2530TIP3   OH2 7553   1.234   4.406   1.326  1.2232  0.1383 -0.0072
 2530TIP3    H1 7554   1.176   4.345   1.279 -1.0052  1.8490  0.3821
 2530TIP3    H2 7555   1.268   4.463   1.258  2.2248 -0.6366 -0.1842
 2531TIP3   OH2 7556   0.022   3.499   3.077  0.1889  0.0235 -0.1016
 2531TIP3    H1 7557   0.105   3.543   3.094  0.3147 -0.4651  0.6211
 2531TIP3    H2 7558   0.005   3.514   2.984  0.6594  0.8405 -0.0655
 2532TIP3   OH2 7559   3.195   1.816   0.553  0.0471 -0.1199 -0.0940
 2532TIP3    H1 7560   3.244   1.735   0.544  0.1400 -0.1472  0.6222
 2532TIP3    H2 7561   3.141   1.820   0.475 -0.1291 -0.9899 -0.0216
 2533TIP3   OH2 7562   4.081   5.573   5.287 -0.8409  0.5941 -0.3416
 2533TIP3    H1 7563   4.043   5.612   5.366 -1.1911  3.4585 -1.7830
 2533TIP3    H2 7564   4.138   5.503   5.319 -0.4814  2.0625  2.5000
 2534TIP3   OH2 7565   0.078   1.757   0.465 -0.0734 -0.5599 -0.6480
 2534TIP3    H1 7566   0.113   1.846   0.458 -2.1096  0.2132 -1.9200
 2534TIP3    H2 7567   0.146   1.701   0.427  1.3099  0.4022  0.3270
 2535TIP3   OH2 7568   2.005   3.273   0.919 -0.8513  1.2961 -0.4923
 2535TIP3    H1 7569   2.087   3.245   0.960  0.1015  2.8142 -1.2640
 2535TIP3    H2 7570   1.937   3.224   0.965  0.4727  0.0457  0.2172
 2536TIP3   OH2 7571   1.297  -0.022   2.976 -0.0399 -0.1356  0.6505
 2536TIP3    H1 7572   1.297   0.067   3.011  2.8039  0.8767 -1.5086
 2536TIP3    H2 7573   1.375  -0.026   2.920 -0.8958 -3.5235 -0.5643
 2537TIP3   OH2 7574   6.154   5.792   5.806 -0.3206  0.0824 -0.1202
 2537TIP3    H1 7575   6.180   5.804   5.898  1.1324 -0.0207 -0.4994
 2537TIP3    H2 7576   6.217   5.844   5.757 -1.8115  1.1208 -1.0220
 2538TIP3   OH2 7577   6.106   3.492   0.046  0.1635  0.3275 -0.6819
 2538TIP3    H1 7578   6.178   3.551   0.070  1.1643 -0.9110 -0.5774
 2538TIP3    H2 7579   6.134   3.451  -0.036  0.2189 -1.1910  0.0711
 2539TIP3   OH2 7580   2.311   0.830   0.849 -0.0906  0.4174  0.0292
 2539TIP3    H1 7581   2.257   0.783   0.785  1.0049  0.7391 -1.1622
 2539TIP3    H2 7582   2.362   0.762   0.892 -0.8197  0.2015  0.5740
 2540TIP3   OH2 7583   3.540   3.436   1.258  0.3787 -0.3161  0.2365
 2540TIP3    H1 7584   3.635   3.452   1.253  0.3839 -0.2302  0.5575
 2540TIP3    H2 7585   3.502   3.524   1.264  0.3754 -0.3889  1.5594
 2541TIP3   OH2 7586   0.664   1.800   1.628  0.2398  0.1943  0.2170
 2541TIP3    H1 7587   0.632   1.890   1.613  1.8412  0.6673 -0.5826
 2541TIP3    H2 7588   0.644   1.754   1.546 -1.8594 -0.6429  1.1125
 2542TIP3   OH2 7589   2.750   2.406   0.263  0.3549  0.3370  0.8363
 2542TIP3    H1 7590   2.720   2.321   0.230  1.5151 -0.7065  2.3550
 2542TIP3    H2 7591   2.680   2.436   0.320 -0.7438  1.1784 -0.8750
 2543TIP3   OH2 7592   1.459   5.267   4.081  0.5081  0.6060  0.4922
 2543TIP3    H1 7593   1.397   5.301   4.145  1.0004  2.5230  0.0050
 2543TIP3    H2 7594   1.413   5.196   4.038 -0.7666  0.9739  1.2104
 2544TIP3   OH2 7595   4.042   3.980   2.685  0.1870  0.4132 -0.6928
 2544TIP3    H1 7596   4.016   3.925   2.760 -2.8382 -2.1197 -3.3203
 2544TIP3    H2 7597   4.137   3.965   2.677  0.1041 -1.5253  0.9244
 2545TIP3   OH2 7598   2.605   5.114   5.166  0.1235  0.6398  0.3565
 2545TIP3    H1 7599   2.659   5.190   5.185  2.3746 -1.3145  2.3774
 2545TIP3    H2 7600   2.529   5.124   5.224  0.0236  1.6839  0.0611
 2546TIP3   OH2 7601   1.852   0.859   0.812 -0.4541  0.4016 -0.2912
 2546TIP3    H1 7602   1.938   0.817   0.808 -0.5690  0.2218 -1.0854
 2546TIP3    H2 7603   1.832   0.882   0.721 -1.7546 -0.6128 -0.3012
 2547TIP3   OH2 7604   1.777   4.539   0.052  0.0135 -0.3731  0.3107
 2547TIP3    H1 7605   1.728   4.479  -0.005  0.2346 -1.0776  0.8366
 2547TIP3    H2 7606   1.718   4.556   0.125 -0.1903  0.3590 -0.0232
 2548TIP3   OH2 7607   3.336   2.527   4.911  0.0838  0.1094 -0.0699
 2548TIP3    H1 7608   3.382   2.509   4.829 -0.7041 -1.0960 -0.2636
 2548TIP3    H2 7609   3.337   2.443   4.958  1.9005  1.1189  1.8887
 2549TIP3   OH2 7610   5.503   0.986   1.188 -0.0035 -0.6126 -0.0156
 2549TIP3    H1 7611   5.409   0.971   1.179  0.2314 -1.1151 -2.1540
 2549TIP3    H2 7612   5.515   1.076   1.158  0.0786 -0.0956  1.4774
 2550TIP3   OH2 7613   2.535   1.924   1.866 -0.2895 -0.2109  0.2446
 2550TIP3    H1 7614   2.586   1.914   1.945  0.6720 -0.0271 -0.3394
 2550TIP3    H2 7615   2.486   2.006   1.879 -2.1785 -1.4892  1.7264
 2551TIP3   OH2 7616   3.148   4.843   0.162 -0.5306 -0.1926 -0.3881
 2551TIP3    H1 7617   3.137   4.907   0.091  2.6337  0.5928 -0.3407
 2551TIP3    H2 7618   3.112   4.887   0.239 -0.6916  0.4911 -0.8417
 2552TIP3   OH2 7619   6.214   5.220   0.518  0.3389  0.2705 -0.4223
 2552TIP3    H1 7620   6.262   5.294   0.556 -0.7232  0.8221 -0.1229
 2552TIP3    H2 7621   6.278   5.149   0.516  1.0637  0.8776  0.3315
 2553TIP3   OH2 7622   5.783   2.030   1.601  0.0526  0.3116  0.1178
 2553TIP3    H1 7623   5.810   1.946   1.566  0.6526 -0.1540  1.6273
 2553TIP3    H2 7624   5.864   2.076   1.620 -0.2619  0.7745  0.3733
 2554TIP3   OH2 7625   1.142   1.375   2.436 -0.0658  0.3098 -0.3019
 2554TIP3    H1 7626   1.173   1.319   2.365  0.3062  0.0872  0.0349
 2554TIP3    H2 7627   1.056   1.406   2.406  0.6183  1.2031 -1.3751
 2555TIP3   OH2 7628   7.000   0.486   4.267 -0.1819 -0.4457  0.4470
 2555TIP3    H1 7629   6.924   0.542   4.285 -0.7953 -0.0153 -2.8298
 2555TIP3    H2 7630   6.962   0.404   4.237  0.6054 -0.2914 -1.0574
 2556TIP3   OH2 7631   7.089   3.208   4.409 -0.0939 -0.5959 -0.6402
 2556TIP3    H1 7632   6.997   3.216   4.432  0.4522  2.7857  1.0445
 2556TIP3    H2 7633   7.121   3.136   4.462 -1.2051  0.0256  0.9392
 2557TIP3   OH2 7634   6.754   5.960   0.764  0.0609 -0.3541 -0.2947
 2557TIP3    H1 7635   6.723   5.887   0.710  1.2173 -1.2955  0.2757
 2557TIP3    H2 7636   6.701   6.034   0.736 -0.6169 -1.2355 -1.4386
 2558TIP3   OH2 7637   2.378   4.863   5.823 -0.5758  0.8596  0.0947
 2558TIP3    H1 7638   2.300   4.808   5.834 -0.4748  0.4728 -1.0668
 2558TIP3    H2 7639   2.449   4.813   5.863 -0.3371 -0.2452 -1.5875
 2559TIP3   OH2 7640   0.123   5.263   3.815  0.3853  0.2125  0.3774
 2559TIP3    H1 7641   0.078   5.272   3.899  1.7111  1.2375  1.0143
 2559TIP3    H2 7642   0.192   5.329   3.818  0.9292 -0.2525 -1.2160
 2560TIP3   OH2 7643   0.866   4.196   3.483 -0.2503 -0.6270  0.2218
 2560TIP3    H1 7644   0.798   4.209   3.549 -0.4259  0.0365 -0.0762
 2560TIP3    H2 7645   0.856   4.271   3.424 -0.0216 -1.1468 -0.4892
 2561TIP3   OH2 7646   0.430   0.475   3.987  0.0774  0.2062  0.1072
 2561TIP3    H1 7647   0.520   0.453   4.011  0.0594  0.6417  0.5945
 2561TIP3    H2 7648   0.412   0.557   4.034 -0.9576 -0.4571  0.9166
 2562TIP3   OH2 7649   3.659   4.052   5.227 -0.7208 -0.1490 -0.0606
 2562TIP3    H1 7650   3.580   4.053   5.281 -1.2029  1.2528 -0.7340
 2562TIP3    H2 7651   3.694   4.141   5.235  0.9241 -0.7962  0.3929
 2563TIP3   OH2 7652   6.754   5.103   2.583  0.0617  0.4526  0.0835
 2563TIP3    H1 7653   6.815   5.076   2.515 -1.4217 -1.3327 -0.6176
 2563TIP3    H2 7654   6.746   5.027   2.641 -1.8886  0.3717 -0.1945
 2564TIP3   OH2 7655   6.169   6.372   0.079 -0.6577  0.8659  0.3685
 2564TIP3    H1 7656   6.102   6.421   0.032  0.2734  0.8610 -1.0541
 2564TIP3    H2 7657   6.197   6.305   0.016  0.7070  0.9076  0.8972
 2565TIP3   OH2 7658   3.558   6.169   4.102 -0.3996  0.2035  0.0975
 2565TIP3    H1 7659   3.596   6.106   4.040  0.9788  1.0550  0.0311
 2565TIP3    H2 7660   3.499   6.222   4.048 -1.6499 -1.0589  0.1728
 2566TIP3   OH2 7661   2.190   0.305   1.979  0.2369  0.4627  0.1510
 2566TIP3    H1 7662   2.284   0.291   1.973  0.0666 -0.9861  0.5670
 2566TIP3    H2 7663   2.153   0.259   1.904 -0.1165  1.6259 -0.4252
 2567TIP3   OH2 7664   1.515   0.322   1.314  0.0998  0.1899 -0.2507
 2567TIP3    H1 7665   1.546   0.259   1.380 -0.5818  0.7567  0.6457
 2567TIP3    H2 7666   1.457   0.381   1.363 -1.1007  0.1262 -1.5323
 2568TIP3   OH2 7667   1.302   1.260   5.494  0.3585 -0.0882 -0.1654
 2568TIP3    H1 7668   1.290   1.168   5.518 -0.1634 -0.4198 -1.6252
 2568TIP3    H2 7669   1.387   1.283   5.532  0.5690 -1.2112  0.0962
 2569TIP3   OH2 7670   4.360   3.638   1.041 -0.0578 -0.5133 -0.2912
 2569TIP3    H1 7671   4.347   3.544   1.034  1.1285 -0.8095  1.0095
 2569TIP3    H2 7672   4.273   3.674   1.057 -0.2761 -1.6102  1.0890
 2570TIP3   OH2 7673   1.982   2.071   5.593 -0.0568 -0.4348  0.8400
 2570TIP3    H1 7674   2.056   2.115   5.635 -0.9736  1.0386  0.9644
 2570TIP3    H2 7675   1.980   1.984   5.634  0.7026  0.0185  1.8874
 2571TIP3   OH2 7676   3.900   0.569   2.532 -0.3497 -0.0080  0.1756
 2571TIP3    H1 7677   3.834   0.509   2.566  0.8366 -1.5169 -0.0841
 2571TIP3    H2 7678   3.982   0.537   2.568  0.0892  3.2492  2.4759
 2572TIP3   OH2 7679   1.544   3.718   1.866  0.6052 -0.3877 -0.2211
 2572TIP3    H1 7680   1.623   3.681   1.906  0.9885  0.9413  0.2791
 2572TIP3    H2 7681   1.481   3.645   1.866  2.5166 -2.2164 -2.7585
 2573TIP3   OH2 7682   5.196   1.745   0.909  0.2499  0.3147 -0.0648
 2573TIP3    H1 7683   5.246   1.789   0.978 -0.8621  0.3111  0.7701
 2573TIP3    H2 7684   5.120   1.709   0.954 -1.6493  2.1503 -1.6187
 2574TIP3   OH2 7685   0.341   4.406   3.030  0.6230 -0.4265 -0.0949
 2574TIP3    H1 7686   0.382   4.430   2.946  2.8731 -0.1524  1.0070
 2574TIP3    H2 7687   0.271   4.471   3.041 -0.0506 -0.7736 -1.9657
 2575TIP3   OH2 7688   0.978   3.190   4.361  0.1851  0.4417  0.5020
 2575TIP3    H1 7689   0.918   3.118   4.380  0.7658 -0.5991 -1.3213
 2575TIP3    H2 7690   0.978   3.243   4.440 -0.2716 -1.5548  1.9091
 2576TIP3   OH2 7691   4.724   5.229   3.602 -0.2540 -0.3782  0.7018
 2576TIP3    H1 7692   4.714   5.188   3.517  0.7901 -2.3321  1.4430
 2576TIP3    H2 7693   4.781   5.305   3.586 -0.0008 -0.7732 -0.3051
 2577TIP3   OH2 7694   4.633   4.603   4.296  0.4668 -0.0847 -0.1162
 2577TIP3    H1 7695   4.553   4.558   4.323 -0.3653  2.0225  1.1120
 2577TIP3    H2 7696   4.693   4.590   4.369 -0.2117  1.7480  0.8347
 2578TIP3   OH2 7697   1.691   1.733   0.914 -0.2642  0.5063  0.1800
 2578TIP3    H1 7698   1.705   1.701   1.003  0.9127 -0.9472 -0.4692
 2578TIP3    H2 7699   1.773   1.777   0.891 -0.8506  1.5599  0.0819
 2579TIP3   OH2 7700   3.212   2.042   4.949 -0.1724  0.1894  0.7813
 2579TIP3    H1 7701   3.231   2.134   4.968 -0.3017 -0.0886  2.3898
 2579TIP3    H2 7702   3.184   2.005   5.033 -0.2766 -1.2893  0.1334
 2580TIP3   OH2 7703   2.426   0.980   4.767  0.6963 -0.3303 -0.1016
 2580TIP3    H1 7704   2.470   1.005   4.686 -1.0828 -0.7748 -1.2596
 2580TIP3    H2 7705   2.409   1.063   4.812  0.5532  0.0271 -0.8034
 2581TIP3   OH2 7706   3.463   3.181   1.284 -0.7021 -0.0840  0.0543
 2581TIP3    H1 7707   3.512   3.145   1.210  1.6134 -0.9918  1.8776
 2581TIP3    H2 7708   3.478   3.275   1.278 -0.4885 -0.1535 -0.6124
 2582TIP3   OH2 7709   1.431   0.465   3.730  0.0663  0.8158 -0.5714
 2582TIP3    H1 7710   1.527   0.468   3.727  0.0704  3.9042 -0.2525
 2582TIP3    H2 7711   1.403   0.553   3.705 -2.7595 -0.2142 -1.4088
 2583TIP3   OH2 7712   6.790   3.111   2.851  0.1958 -0.2631 -0.5758
 2583TIP3    H1 7713   6.757   3.047   2.788 -0.6141 -0.2556 -0.1752
 2583TIP3    H2 7714   6.762   3.196   2.816 -2.0814 -0.3812  0.8100
 2584TIP3   OH2 7715   5.984   3.561   4.144  0.6785 -0.1559  0.2318
 2584TIP3    H1 7716   6.041   3.487   4.122  0.7738 -0.1785  0.5480
 2584TIP3    H2 7717   5.902   3.521   4.173  0.6811 -0.1340  0.2691
 2585TIP3   OH2 7718   1.886   5.090   3.518  0.1679  0.1644  0.0022
 2585TIP3    H1 7719   1.904   5.150   3.590 -1.1631  0.8268 -0.2065
 2585TIP3    H2 7720   1.947   5.117   3.449 -0.2320  1.1022  0.0047
 2586TIP3   OH2 7721   1.729   1.082   5.511  0.0558 -0.0632 -0.0022
 2586TIP3    H1 7722   1.770   1.025   5.575  1.8283  0.9465 -0.1635
 2586TIP3    H2 7723   1.716   1.027   5.434  1.0197 -0.4535  0.1005
 2587TIP3   OH2 7724   2.923   0.032   1.634  0.1180 -0.3381  0.5250
 2587TIP3    H1 7725   2.949  -0.057   1.658  0.6443  0.5572  3.5687
 2587TIP3    H2 7726   2.942   0.037   1.540  1.7696 -2.8575  0.6206
 2588TIP3   OH2 7727   2.367   1.878   2.840  0.2278 -0.4501  0.9201
 2588TIP3    H1 7728   2.314   1.921   2.906 -1.7296 -0.0372 -0.8097
 2588TIP3    H2 7729   2.409   1.949   2.792 -1.3067 -0.4724 -0.5673
 2589TIP3   OH2 7730   4.388   5.177   3.869  0.3000  0.3037 -0.0346
 2589TIP3    H1 7731   4.336   5.254   3.847  0.9834  0.6573 -0.4508
 2589TIP3    H2 7732   4.363   5.112   3.804  2.4132  1.3915 -2.0940
 2590TIP3   OH2 7733   3.251   2.300   5.075 -0.1964 -1.0133  0.4619
 2590TIP3    H1 7734   3.200   2.332   5.150  1.1122 -0.7318  1.2639
 2590TIP3    H2 7735   3.331   2.265   5.114  1.3349  0.7533 -0.9259
 2591TIP3   OH2 7736   4.917   3.666   1.982 -0.0473 -0.7673  0.2883
 2591TIP3    H1 7737   4.824   3.688   1.984 -0.8185 -3.5639 -0.0405
 2591TIP3    H2 7738   4.925   3.589   2.038  1.8753 -1.1847 -0.4717
 2592TIP3   OH2 7739   0.039   4.772   4.470  0.3405  0.3243 -0.0880
 2592TIP3    H1 7740   0.131   4.791   4.486  0.3824 -0.0257  0.0895
 2592TIP3    H2 7741   0.038   4.724   4.388  0.2236  1.1737 -0.5965
 2593TIP3   OH2 7742   1.963   5.611   5.336  0.5551 -0.4233 -0.1385
 2593TIP3    H1 7743   2.008   5.557   5.401  1.8671  0.6532 -0.0980
 2593TIP3    H2 7744   2.008   5.695   5.339 -0.6623  0.3072 -1.0320
 2594TIP3   OH2 7745   2.983   6.564   3.825  0.1641 -0.1467 -0.1036
 2594TIP3    H1 7746   2.998   6.534   3.914  1.3052  0.0824 -0.1975
 2594TIP3    H2 7747   3.047   6.635   3.813 -0.5645  0.4146 -0.8155
 2595TIP3   OH2 7748   5.310   5.809   5.756  0.1028 -0.5230 -0.2830
 2595TIP3    H1 7749   5.338   5.820   5.665  1.7258  1.7360  0.4051
 2595TIP3    H2 7750   5.352   5.882   5.803 -1.6610 -0.9143  2.0644
 2596TIP3   OH2 7751   0.917   5.664   0.544 -0.6065  0.0888 -0.6571
 2596TIP3    H1 7752   0.927   5.756   0.566  1.8912 -0.6555  1.8198
 2596TIP3    H2 7753   0.879   5.625   0.622 -0.0859 -1.2431 -1.0447
 2597TIP3   OH2 7754   3.850   5.659   1.176  0.1473  0.1944 -0.5953
 2597TIP3    H1 7755   3.862   5.611   1.258  0.0893 -0.3936 -0.9288
 2597TIP3    H2 7756   3.932   5.708   1.166  0.4054 -0.2117 -0.5003
 2598TIP3   OH2 7757   2.938   5.650   2.619 -0.5731  0.0289 -0.4278
 2598TIP3    H1 7758   2.863   5.662   2.560 -1.2964  0.2698  0.5201
 2598TIP3    H2 7759   2.900   5.613   2.699  0.4486 -0.6396 -0.2358
 2599TIP3   OH2 7760   4.781   1.378   2.686 -0.0037  0.8220  0.0472
 2599TIP3    H1 7761   4.846   1.448   2.681 -1.1801  1.8772 -1.0295
 2599TIP3    H2 7762   4.811   1.323   2.759  2.2180  1.1221 -0.5692
 2600TIP3   OH2 7763   5.217   6.333   1.545  0.1079  0.3290 -0.2564
 2600TIP3    H1 7764   5.300   6.285   1.545 -0.5268 -0.8197  0.3711
 2600TIP3    H2 7765   5.177   6.310   1.629  0.0896  2.5391  0.3795
 2601TIP3   OH2 7766   3.768   2.215   5.237  0.3964 -0.0659  0.6319
 2601TIP3    H1 7767   3.827   2.182   5.169  1.3282 -1.3883  2.0326
 2601TIP3    H2 7768   3.824   2.232   5.312 -1.0383 -2.0257  2.2563
 2602TIP3   OH2 7769   4.982   6.734   4.841  0.0356 -0.2176  0.0413
 2602TIP3    H1 7770   5.025   6.812   4.806  1.8978 -0.8856  0.6811
 2602TIP3    H2 7771   4.902   6.725   4.789  0.6168  1.1583 -1.1664
 2603TIP3   OH2 7772   3.711   3.799   4.192 -0.6327  0.3226 -0.1148
 2603TIP3    H1 7773   3.720   3.880   4.143  0.3786  0.0736 -0.3637
 2603TIP3    H2 7774   3.747   3.731   4.134  1.4359  0.1461  1.2495
 2604TIP3   OH2 7775   2.696   0.363   1.569 -0.2251 -0.6713  0.9451
 2604TIP3    H1 7776   2.662   0.432   1.512 -1.0739 -2.4507 -0.8066
 2604TIP3    H2 7777   2.678   0.395   1.658  0.6258  1.9175  0.2626
 2605TIP3   OH2 7778   3.386   2.890   1.233 -0.4663 -0.4502 -0.7557
 2605TIP3    H1 7779   3.418   2.973   1.268  1.1573 -0.3384 -2.3781
 2605TIP3    H2 7780   3.387   2.831   1.308 -1.8763  1.0092  0.4780
 2606TIP3   OH2 7781   2.898   6.486   0.835 -0.2742 -0.0968  0.1526
 2606TIP3    H1 7782   2.965   6.423   0.860  1.6778  1.8809  0.1774
 2606TIP3    H2 7783   2.931   6.524   0.753 -1.7686  0.3621 -0.2632
 2607TIP3   OH2 7784   2.293   6.173   5.279  0.5295 -0.6580 -0.8114
 2607TIP3    H1 7785   2.322   6.229   5.207  0.0131 -0.6201 -0.9935
 2607TIP3    H2 7786   2.223   6.223   5.322  1.7585 -0.0775  0.5727
 2608TIP3   OH2 7787   1.662   1.591   5.472 -0.1851 -0.1327 -0.1540
 2608TIP3    H1 7788   1.711   1.669   5.501  0.3241 -0.3349 -0.4502
 2608TIP3    H2 7789   1.724   1.544   5.416 -0.5250 -0.7043 -0.0526
 2609TIP3   OH2 7790   7.036   4.137   1.855 -0.1774  0.7800 -0.0129
 2609TIP3    H1 7791   7.105   4.135   1.921 -0.5810  0.9947  0.4229
 2609TIP3    H2 7792   6.974   4.203   1.887  0.0992  1.6003 -1.0973
 2610TIP3   OH2 7793   3.175   0.917   3.153  0.2497  0.0729 -0.0778
 2610TIP3    H1 7794   3.150   0.825   3.143 -1.1284  0.2928  1.0139
 2610TIP3    H2 7795   3.241   0.931   3.085  0.4361 -1.6929 -0.3237
 2611TIP3   OH2 7796   6.964   4.200   2.634 -0.2236  0.1681  0.1226
 2611TIP3    H1 7797   7.012   4.281   2.655  1.2315 -0.5601 -0.2335
 2611TIP3    H2 7798   6.887   4.202   2.690 -1.6900  3.1006 -1.7228
 2612TIP3   OH2 7799   5.594   4.740   4.296 -0.0728  0.1410  0.2623
 2612TIP3    H1 7800   5.498   4.735   4.295 -0.0597 -1.0120  1.5557
 2612TIP3    H2 7801   5.620   4.723   4.206 -1.1225  2.1248 -0.4694
 2613TIP3   OH2 7802   2.793   1.374   1.831  0.1820  0.2780  0.1081
 2613TIP3    H1 7803   2.752   1.408   1.910 -1.2608 -1.5668  0.2073
 2613TIP3    H2 7804   2.787   1.279   1.839  2.3900 -0.0225 -1.0056
 2614TIP3   OH2 7805   0.213   6.210   0.904  0.1202 -0.0525 -0.2297
 2614TIP3    H1 7806   0.299   6.174   0.883 -0.1753 -1.4318  0.7699
 2614TIP3    H2 7807   0.151   6.150   0.860 -0.3816 -0.8301  1.4497
 2615TIP3   OH2 7808   2.843   4.967   1.604 -0.2045 -0.0409 -0.7671
 2615TIP3    H1 7809   2.889   4.969   1.520 -0.3550  0.6054 -0.8371
 2615TIP3    H2 7810   2.792   5.048   1.606 -1.1359 -0.6149 -0.5717
 2616TIP3   OH2 7811   3.596   4.465   5.786 -0.5760  0.3067  0.0286
 2616TIP3    H1 7812   3.564   4.501   5.703  1.1607 -0.7853 -1.1793
 2616TIP3    H2 7813   3.659   4.530   5.818  0.6968 -0.4248 -0.8860
 2617TIP3   OH2 7814   4.790   6.580   1.515 -0.0693  0.2659  0.3737
 2617TIP3    H1 7815   4.850   6.528   1.461  0.7792  2.2888 -0.7613
 2617TIP3    H2 7816   4.721   6.608   1.454 -0.8016  0.0411  1.0870
 2618TIP3   OH2 7817   5.129   3.372   0.579  0.1935  0.1082 -0.1027
 2618TIP3    H1 7818   5.179   3.422   0.515 -0.6124  0.8747 -0.1441
 2618TIP3    H2 7819   5.092   3.299   0.530  0.9461 -0.2555 -0.1481
 2619TIP3   OH2 7820   5.978   5.970   2.209  0.1198  0.0929 -0.0913
 2619TIP3    H1 7821   6.029   5.896   2.242  1.6332  0.1892 -2.0370
 2619TIP3    H2 7822   5.927   6.000   2.285  1.1463 -1.5299  1.3076
 2620TIP3   OH2 7823   0.246   1.391   3.161  0.4057 -0.0300  0.2382
 2620TIP3    H1 7824   0.338   1.390   3.187  0.6486  1.6659 -0.4273
 2620TIP3    H2 7825   0.244   1.349   3.075  0.9303  1.8132 -0.7191
 2621TIP3   OH2 7826   4.903   5.265   4.294  0.2604 -0.1748  0.6400
 2621TIP3    H1 7827   4.958   5.218   4.232  1.9417  2.5631 -0.1272
 2621TIP3    H2 7828   4.814   5.249   4.264  0.8767 -1.3595 -0.6316
 2622TIP3   OH2 7829   5.399   4.417   2.882  0.1887  0.3224 -0.6620
 2622TIP3    H1 7830   5.341   4.451   2.950 -1.1648 -0.3429 -1.4430
 2622TIP3    H2 7831   5.429   4.495   2.835  0.3858  0.7096  0.0947
 2623TIP3   OH2 7832   5.763   0.302   0.216 -0.0310 -0.1406  0.4698
 2623TIP3    H1 7833   5.817   0.283   0.293  0.6603  2.3882  0.7358
 2623TIP3    H2 7834   5.775   0.396   0.202 -1.1627 -0.2782 -1.9779
 2624TIP3   OH2 7835   5.196   3.890   3.856  0.2437  0.2172  0.1863
 2624TIP3    H1 7836   5.112   3.878   3.813  0.1408  0.4370  0.3252
 2624TIP3    H2 7837   5.225   3.977   3.828 -0.0317  0.5508  0.9138
 2625TIP3   OH2 7838   1.615   6.145   0.805  0.0971 -0.0807  0.2232
 2625TIP3    H1 7839   1.704   6.114   0.820 -0.2983 -0.6455  1.5150
 2625TIP3    H2 7840   1.569   6.129   0.887 -0.2825  3.4972  0.8554
 2626TIP3   OH2 7841   2.662   1.306   2.092  0.3096  0.1484  0.0169
 2626TIP3    H1 7842   2.651   1.211   2.088  0.3951  0.1420 -0.0509
 2626TIP3    H2 7843   2.578   1.341   2.061 -0.7566  0.1001  2.5727
 2627TIP3   OH2 7844   5.891   0.382   2.742 -0.0120 -0.0466 -0.1529
 2627TIP3    H1 7845   5.820   0.430   2.700 -0.7488 -1.5632 -0.7012
 2627TIP3    H2 7846   5.956   0.371   2.674  0.9323  1.5790  0.4209
 2628TIP3   OH2 7847   4.723   5.533   4.640  0.0133  0.0430 -0.6780
 2628TIP3    H1 7848   4.801   5.566   4.684  2.9905 -1.9826 -3.9791
 2628TIP3    H2 7849   4.708   5.447   4.679  0.5791 -0.3438 -1.3111
 2629TIP3   OH2 7850   5.222   4.700   1.933 -0.0424  0.2763 -0.4188
 2629TIP3    H1 7851   5.196   4.747   2.013  0.2689 -0.6863  0.2652
 2629TIP3    H2 7852   5.174   4.618   1.937 -1.8779  1.1442 -2.4403
 2630TIP3   OH2 7853   5.045   1.697   4.682  0.3123  0.3193  0.4307
 2630TIP3    H1 7854   4.983   1.661   4.620 -1.6489  0.9977  1.8866
 2630TIP3    H2 7855   5.077   1.621   4.731  0.1191  0.0226  0.0963
 2631TIP3   OH2 7856   3.296   4.793   5.113 -0.5554  0.4271 -0.2122
 2631TIP3    H1 7857   3.272   4.702   5.095  1.6534 -0.5577  1.3800
 2631TIP3    H2 7858   3.256   4.813   5.198 -0.8859  0.9109 -0.4728
 2632TIP3   OH2 7859   4.486   3.285   0.704  0.4591  0.5686  0.0588
 2632TIP3    H1 7860   4.503   3.299   0.611  1.0741  0.1996  0.1112
 2632TIP3    H2 7861   4.570   3.255   0.740 -0.2343 -1.1794  0.3495
 2633TIP3   OH2 7862   1.446   1.691   3.706 -0.2636 -0.5488  0.2034
 2633TIP3    H1 7863   1.410   1.767   3.661  0.8039  0.3514  0.8012
 2633TIP3    H2 7864   1.396   1.617   3.672 -0.0919  0.1874 -1.7897
 2634TIP3   OH2 7865   4.197   1.119   4.869  0.0079  0.2338  0.2564
 2634TIP3    H1 7866   4.182   1.046   4.808 -0.6208  0.9625 -0.4835
 2634TIP3    H2 7867   4.202   1.196   4.813  3.2380  0.5009  0.7629
 2635TIP3   OH2 7868   4.552   2.118   4.887 -0.0628 -0.1501  0.0638
 2635TIP3    H1 7869   4.497   2.043   4.911 -0.4475 -0.1742 -0.8644
 2635TIP3    H2 7870   4.642   2.086   4.892 -0.2381 -0.7498 -0.5663
 2636TIP3   OH2 7871   4.263   3.341   2.192 -0.4655 -0.1616 -0.0689
 2636TIP3    H1 7872   4.297   3.345   2.281  0.2955  0.8967 -0.3899
 2636TIP3    H2 7873   4.169   3.357   2.202 -0.3631  0.0961  0.5437
 2637TIP3   OH2 7874   0.146   1.084   2.624  0.2030  0.1278  0.2837
 2637TIP3    H1 7875   0.096   1.085   2.706 -0.2831  0.7763 -0.0108
 2637TIP3    H2 7876   0.161   1.177   2.604  0.2180 -0.0203 -0.4198
 2638TIP3   OH2 7877   0.226   3.993   2.223  0.0203  0.3425  0.2182
 2638TIP3    H1 7878   0.320   3.977   2.232  0.3185  1.7636 -0.0802
 2638TIP3    H2 7879   0.188   3.960   2.305  0.6760 -0.8411  0.0665
 2639TIP3   OH2 7880   5.529   1.305   4.571 -0.1513  0.1681  0.1851
 2639TIP3    H1 7881   5.522   1.245   4.497 -0.3844  0.1904  0.1876
 2639TIP3    H2 7882   5.446   1.295   4.618 -0.3678  0.7925 -0.0486
 2640TIP3   OH2 7883   0.465   4.020   2.793 -0.0120  0.5815  0.2000
 2640TIP3    H1 7884   0.442   3.929   2.811  0.2009  0.2921 -0.9369
 2640TIP3    H2 7885   0.528   4.043   2.861  1.0945 -0.6087 -0.3908
 2641TIP3   OH2 7886   5.454   5.939   1.516  0.3528 -0.3008 -0.0740
 2641TIP3    H1 7887   5.385   5.877   1.493  0.5726 -0.3283 -0.6789
 2641TIP3    H2 7888   5.431   5.968   1.604 -2.0181  1.8302 -1.2734
 2642TIP3   OH2 7889   0.792   6.269   2.823 -0.1693  0.7207 -0.0005
 2642TIP3    H1 7890   0.739   6.190   2.817 -0.6997  0.8953  1.7893
 2642TIP3    H2 7891   0.787   6.294   2.915 -0.1761  2.9391 -0.5460
 2643TIP3   OH2 7892   5.957   1.134   5.446 -0.8518  0.0222  0.4876
 2643TIP3    H1 7893   5.938   1.042   5.465  0.5738 -0.2220  0.9014
 2643TIP3    H2 7894   5.944   1.143   5.351 -0.2896 -0.8087  0.3209
 2644TIP3   OH2 7895   5.149   2.825   4.761 -0.1955  0.3637  0.0587
 2644TIP3    H1 7896   5.136   2.849   4.669  2.3615  1.1217 -0.1757
 2644TIP3    H2 7897   5.171   2.907   4.804  1.1330 -0.3724  0.8309
 2645TIP3   OH2 7898   3.977   1.073   4.602 -0.1198  0.0134  0.4179
 2645TIP3    H1 7899   4.058   1.071   4.551  1.0006 -1.9323  2.1058
 2645TIP3    H2 7900   3.934   0.990   4.582 -0.5670  0.0358  1.2248
 2646TIP3   OH2 7901   1.380   3.446   5.793 -0.3780 -0.5132  0.5832
 2646TIP3    H1 7902   1.309   3.471   5.852 -2.7029 -0.9662 -1.8297
 2646TIP3    H2 7903   1.436   3.523   5.788 -1.2949  0.2636  1.7162
 2647TIP3   OH2 7904   1.187   2.600   2.863  0.5068  0.4735 -0.2055
 2647TIP3    H1 7905   1.257   2.584   2.927  1.2613  1.1845 -0.8421
 2647TIP3    H2 7906   1.107   2.595   2.915  0.9404 -1.1641  0.3949
 2648TIP3   OH2 7907   3.340   5.459   0.402  1.2882  0.3668  0.7836
 2648TIP3    H1 7908   3.284   5.443   0.326  1.5984 -2.5976  1.0592
 2648TIP3    H2 7909   3.289   5.426   0.476  2.5059 -0.4385  1.2964
 2649TIP3   OH2 7910   6.801   0.836   2.876  0.2740  0.1097 -0.1305
 2649TIP3    H1 7911   6.745   0.759   2.870 -1.2878  1.1398  0.5677
 2649TIP3    H2 7912   6.852   0.836   2.795 -1.0001 -0.6708 -0.9490
 2650TIP3   OH2 7913   3.521   0.580   5.790  0.3799 -0.3531 -0.0508
 2650TIP3    H1 7914   3.430   0.567   5.765  0.5319  1.1327 -1.5304
 2650TIP3    H2 7915   3.524   0.559   5.883 -1.4182 -0.6161 -0.0299
 2651TIP3   OH2 7916   6.840   3.148   4.792  0.0642 -0.5107 -0.5493
 2651TIP3    H1 7917   6.795   3.136   4.875  0.7394 -1.0410 -0.2451
 2651TIP3    H2 7918   6.771   3.143   4.726 -0.3254 -1.3020 -0.0978
 2652TIP3   OH2 7919   6.768   0.209   5.060 -0.1132 -0.1480 -0.2519
 2652TIP3    H1 7920   6.688   0.250   5.026  0.8598  1.8076 -0.2687
 2652TIP3    H2 7921   6.805   0.273   5.121 -0.5407 -2.5620  2.8427
 2653TIP3   OH2 7922   3.572   6.469   4.495  0.0893  0.6060  0.5581
 2653TIP3    H1 7923   3.483   6.432   4.494  0.1947  0.3322  0.9068
 2653TIP3    H2 7924   3.599   6.468   4.404  0.4244 -1.0204  0.6309
 2654TIP3   OH2 7925   6.158   1.171   2.842  0.3362 -0.0282  0.1613
 2654TIP3    H1 7926   6.248   1.195   2.820  0.2013 -0.4412 -0.8981
 2654TIP3    H2 7927   6.115   1.159   2.758 -0.1002 -2.0964  0.6187
 2655TIP3   OH2 7928   5.550   6.502   1.790 -0.1385  0.0001 -0.3764
 2655TIP3    H1 7929   5.463   6.541   1.781  0.4039  1.4098  0.2187
 2655TIP3    H2 7930   5.543   6.446   1.868 -0.6336 -0.2929 -0.6216
 2656TIP3   OH2 7931   5.778   2.568   2.922 -0.4247  0.3415 -0.7464
 2656TIP3    H1 7932   5.837   2.495   2.906 -0.7274 -0.6441  2.0271
 2656TIP3    H2 7933   5.834   2.646   2.914  0.8759 -0.4643  0.1014
 2657TIP3   OH2 7934   0.147   3.318   1.815 -0.1302  0.2987  0.0619
 2657TIP3    H1 7935   0.227   3.266   1.810 -0.9710 -1.0116 -0.2069
 2657TIP3    H2 7936   0.100   3.283   1.890 -1.3578 -0.3005 -0.9621
 2658TIP3   OH2 7937   1.312   2.023   0.370 -0.0288 -0.0624 -0.3270
 2658TIP3    H1 7938   1.315   2.111   0.406  0.6061 -0.1950 -0.0218
 2658TIP3    H2 7939   1.289   1.967   0.445 -0.5270 -0.1480 -0.5388
 2659TIP3   OH2 7940   1.017   1.589   0.797  0.4827  0.5416 -0.6539
 2659TIP3    H1 7941   0.982   1.637   0.722  0.0176  0.9138 -0.2060
 2659TIP3    H2 7942   1.100   1.632   0.817  0.6487  0.3881 -1.0018
 2660TIP3   OH2 7943   3.221   5.817   5.088  0.4618  0.8297 -0.1950
 2660TIP3    H1 7944   3.142   5.775   5.054 -0.2011  0.7834  1.3151
 2660TIP3    H2 7945   3.256   5.755   5.151  0.5405  1.7222  0.6612
 2661TIP3   OH2 7946   4.927   2.122   3.136  0.3145  0.8715  0.0738
 2661TIP3    H1 7947   4.852   2.176   3.160 -1.0548 -1.6888  2.0161
 2661TIP3    H2 7948   4.941   2.065   3.211  1.5697 -1.5693 -1.8739
 2662TIP3   OH2 7949   7.014   4.143   2.342  0.4354 -0.2347 -0.8593
 2662TIP3    H1 7950   7.015   4.054   2.377  1.7385  0.0253 -0.1763
 2662TIP3    H2 7951   6.994   4.198   2.418 -0.2417  0.0664 -1.2532
 2663TIP3   OH2 7952   6.163   3.068   4.671  0.0004  0.3032  0.9544
 2663TIP3    H1 7953   6.158   2.982   4.629 -1.4579  0.9038 -0.1702
 2663TIP3    H2 7954   6.176   3.129   4.599 -1.0147  1.2162  1.5214
 2664TIP3   OH2 7955   0.791   3.332   3.477 -0.3693 -0.1838 -0.2954
 2664TIP3    H1 7956   0.727   3.279   3.430  0.2144  0.4064 -1.8105
 2664TIP3    H2 7957   0.778   3.309   3.569 -1.1233 -1.8479 -0.7787
 2665TIP3   OH2 7958   1.988   5.849   1.952 -0.0873 -0.0436  0.0642
 2665TIP3    H1 7959   1.965   5.830   2.043 -0.1752 -1.7368 -0.2676
 2665TIP3    H2 7960   2.018   5.940   1.953  1.5134 -0.4968  2.1117
 2666TIP3   OH2 7961   0.514   5.279   3.478  0.1024 -0.2871 -0.1025
 2666TIP3    H1 7962   0.505   5.186   3.497 -0.3289 -0.4628 -1.1126
 2666TIP3    H2 7963   0.586   5.308   3.535  1.2195 -1.5480 -0.7962
 2667TIP3   OH2 7964   6.308   3.573   4.542  0.4279 -0.1343  0.5915
 2667TIP3    H1 7965   6.367   3.629   4.591 -0.6753  0.3162  1.4444
 2667TIP3    H2 7966   6.293   3.498   4.599  1.4763 -1.0671 -0.3232
 2668TIP3   OH2 7967   0.493   5.643   3.963  0.1835  0.0174  0.6955
 2668TIP3    H1 7968   0.533   5.666   4.047  0.5140  1.5517  0.1677
 2668TIP3    H2 7969   0.435   5.717   3.944  1.6672  0.7673 -1.3611
 2669TIP3   OH2 7970   1.787   0.557   1.530  0.0634  0.1786  0.3635
 2669TIP3    H1 7971   1.833   0.631   1.490 -0.5750  0.3952  0.0253
 2669TIP3    H2 7972   1.695   0.573   1.512 -0.0070 -1.4323 -0.9630
 2670TIP3   OH2 7973   5.204   1.195   1.902 -0.9033  0.8322  0.0256
 2670TIP3    H1 7974   5.215   1.275   1.954  1.5058  0.9140 -0.4802
 2670TIP3    H2 7975   5.215   1.124   1.964 -1.0916  0.9069  0.1449
 2671TIP3   OH2 7976   1.453   1.748   2.894  0.5395 -0.4603 -0.0768
 2671TIP3    H1 7977   1.367   1.747   2.936  0.4496 -0.1321 -0.2441
 2671TIP3    H2 7978   1.453   1.830   2.843  1.1485 -0.1990  0.3333
 2672TIP3   OH2 7979   6.952   3.614   1.245 -0.2569  0.3280 -0.5301
 2672TIP3    H1 7980   6.951   3.696   1.293  1.7276 -1.0227  2.0234
 2672TIP3    H2 7981   7.041   3.606   1.211 -0.8676 -0.0767 -2.1620
 2673TIP3   OH2 7982   0.540   5.154   3.953  0.3372 -0.0376 -0.2172
 2673TIP3    H1 7983   0.512   5.137   3.863  0.5098  0.3979 -0.3560
 2673TIP3    H2 7984   0.634   5.167   3.947  0.7244 -2.1813  0.3475
 2674TIP3   OH2 7985   2.507   6.668   3.384 -0.0029  0.5898 -0.3674
 2674TIP3    H1 7986   2.562   6.652   3.307  0.7259  0.1426  0.2352
 2674TIP3    H2 7987   2.457   6.746   3.361 -0.1534  0.1884 -1.4884
 2675TIP3   OH2 7988   0.794   6.501   1.383  0.1351  0.2981  0.3071
 2675TIP3    H1 7989   0.728   6.493   1.315  1.4245  0.7732 -1.0564
 2675TIP3    H2 7990   0.823   6.593   1.378  2.4246 -0.3928 -0.6713
 2676TIP3   OH2 7991   1.351   5.716   5.687  0.2893  0.2941 -0.1062
 2676TIP3    H1 7992   1.370   5.622   5.691 -1.4312 -0.2443 -2.1212
 2676TIP3    H2 7993   1.369   5.748   5.775  2.1733 -1.6540  0.3031
 2677TIP3   OH2 7994   2.340   1.258   1.189 -0.2717  0.1299 -0.3337
 2677TIP3    H1 7995   2.285   1.204   1.245  0.5834  1.9639  2.5116
 2677TIP3    H2 7996   2.280   1.301   1.129 -1.9633  1.5171  2.1848
 2678TIP3   OH2 7997   2.537   1.421   0.344 -0.3999  0.5422  0.3365
 2678TIP3    H1 7998   2.578   1.338   0.320 -1.0502  0.3392 -0.0693
 2678TIP3    H2 7999   2.444   1.402   0.348 -0.6404  1.4492 -0.6002
 2679TIP3   OH2 8000   0.346   2.064   4.808 -0.1770  0.4432 -0.2843
 2679TIP3    H1 8001   0.348   1.976   4.772  0.5918  0.6906 -0.8759
 2679TIP3    H2 8002   0.356   2.052   4.902  1.3234 -0.0357 -0.4835
 2680TIP3   OH2 8003   0.056   1.255   5.061 -0.0827 -0.4389  0.9240
 2680TIP3    H1 8004  -0.036   1.265   5.086  0.1827  0.3391  1.6402
 2680TIP3    H2 8005   0.104   1.311   5.122  0.6629  1.0766 -0.9306
 2681TIP3   OH2 8006   1.195   3.578   0.145 -0.5113  0.5893  0.1274
 2681TIP3    H1 8007   1.251   3.651   0.120 -0.9537  0.4025 -1.5337
 2681TIP3    H2 8008   1.149   3.608   0.224 -0.2928  1.8971 -0.2284
 2682TIP3   OH2 8009   6.907   2.859   1.527  0.0092  0.2332  0.1658
 2682TIP3    H1 8010   6.862   2.939   1.501 -1.4186 -0.5386  0.1871
 2682TIP3    H2 8011   6.891   2.851   1.621  1.7008  0.8564  0.5454
 2683TIP3   OH2 8012   1.695   2.476   5.060  0.1859 -0.0133  0.0345
 2683TIP3    H1 8013   1.779   2.522   5.063 -0.0078  0.3374  0.2206
 2683TIP3    H2 8014   1.666   2.472   5.151 -0.6002  1.0193 -0.1444
 2684TIP3   OH2 8015   1.259   5.900   3.456 -0.4214  0.0676  0.2458
 2684TIP3    H1 8016   1.247   5.991   3.429 -0.7825  0.3427  1.2711
 2684TIP3    H2 8017   1.285   5.854   3.376  1.4791  1.3752  0.0489
 2685TIP3   OH2 8018   4.731   4.481   5.274 -0.1167 -0.2629  0.2049
 2685TIP3    H1 8019   4.635   4.479   5.277 -0.1380 -0.3030 -0.4286
 2685TIP3    H2 8020   4.758   4.432   5.352 -0.6050  1.0056  1.2048
 2686TIP3   OH2 8021   4.282   1.244   1.890 -0.4154  0.4764  0.2604
 2686TIP3    H1 8022   4.201   1.259   1.939 -0.6131  0.8448 -0.1644
 2686TIP3    H2 8023   4.317   1.162   1.925 -2.7268 -1.5769 -1.8051
 2687TIP3   OH2 8024   4.438   5.784   0.234  0.4424  0.3079  0.2300
 2687TIP3    H1 8025   4.493   5.707   0.217 -2.0719 -1.4889 -0.2095
 2687TIP3    H2 8026   4.449   5.838   0.156  0.0830 -0.9996 -0.7667
 2688TIP3   OH2 8027   6.371   6.051   0.235  0.2754 -0.6139  0.0328
 2688TIP3    H1 8028   6.297   6.013   0.187 -0.2143  0.4829 -0.0963
 2688TIP3    H2 8029   6.448   6.024   0.185 -0.1512 -0.4170 -0.7517
 2689TIP3   OH2 8030   3.894   6.735   4.984  0.1693  0.2933 -0.3569
 2689TIP3    H1 8031   3.896   6.645   5.018  1.3404  1.0945  1.9213
 2689TIP3    H2 8032   3.813   6.740   4.933  1.6760 -3.0441 -3.6230
 2690TIP3   OH2 8033   4.685   5.071   2.560  0.1340  0.0116  0.0350
 2690TIP3    H1 8034   4.603   5.066   2.608 -0.5786 -1.7176 -1.2706
 2690TIP3    H2 8035   4.716   4.981   2.555  1.1375  0.3910 -1.1050
 2691TIP3   OH2 8036   6.090   3.299   5.048  0.1339 -0.0574 -0.4149
 2691TIP3    H1 8037   6.147   3.346   4.987 -0.1622  1.6578  0.5595
 2691TIP3    H2 8038   6.150   3.250   5.104  0.4702 -0.5566 -1.1939
 2692TIP3   OH2 8039   3.690   0.334   4.322 -0.2625 -0.7979  0.9669
 2692TIP3    H1 8040   3.681   0.402   4.256 -1.7067 -0.7343  1.2061
 2692TIP3    H2 8041   3.720   0.380   4.401  0.1670 -0.6741  0.7354
 2693TIP3   OH2 8042   5.553   2.212   1.074  0.2477 -0.0907 -0.0378
 2693TIP3    H1 8043   5.531   2.154   1.001  0.5201 -0.0159 -0.1839
 2693TIP3    H2 8044   5.596   2.287   1.032  1.7367 -0.7120  0.3104
 2694TIP3   OH2 8045   2.793   5.951   4.207 -0.3030  0.2553  0.4339
 2694TIP3    H1 8046   2.737   5.912   4.140  1.2572 -0.6175 -0.4112
 2694TIP3    H2 8047   2.784   6.045   4.194 -1.0008  0.1084 -0.1667
 2695TIP3   OH2 8048   2.884   2.950   5.437 -0.2115 -0.6553  0.2214
 2695TIP3    H1 8049   2.794   2.964   5.406  0.1148  1.4859  0.1132
 2695TIP3    H2 8050   2.936   3.014   5.389  1.3673 -1.6947  0.4699
 2696TIP3   OH2 8051   0.065   2.142   0.862  0.0525 -0.4461  0.1526
 2696TIP3    H1 8052   0.022   2.177   0.784 -0.3974 -0.6877  0.2864
 2696TIP3    H2 8053  -0.002   2.146   0.930 -0.1088 -1.7980  0.1117
 2697TIP3   OH2 8054   2.054   6.255   1.049  0.3498 -0.0262 -0.7651
 2697TIP3    H1 8055   2.101   6.332   1.082 -1.2374  0.3844  0.6898
 2697TIP3    H2 8056   2.083   6.246   0.959  1.9710  1.1676 -0.4064
 2698TIP3   OH2 8057   0.527   4.182   1.995  0.4319  0.5105  0.3431
 2698TIP3    H1 8058   0.552   4.205   2.085  0.8083  0.0988  0.3480
 2698TIP3    H2 8059   0.596   4.123   1.965  0.4189  0.8166 -0.2986
 2699TIP3   OH2 8060   0.582   6.048   4.955  0.2853  0.3280  0.3513
 2699TIP3    H1 8061   0.569   5.954   4.968  0.3623  0.0158 -1.5022
 2699TIP3    H2 8062   0.497   6.080   4.923  0.2958  0.8731  0.8524
 2700TIP3   OH2 8063   2.602   2.981   4.736  0.2102 -0.4574 -0.0978
 2700TIP3    H1 8064   2.565   2.953   4.652  1.1730 -0.0896 -0.6630
 2700TIP3    H2 8065   2.627   3.072   4.722  0.2649 -0.3502  0.6414
 2701TIP3   OH2 8066   5.546   3.802   5.046  0.5202  0.1381  0.2565
 2701TIP3    H1 8067   5.505   3.748   5.115 -1.5849  0.2032 -0.8540
 2701TIP3    H2 8068   5.482   3.871   5.030  1.0788  0.2553 -1.5956
 2702TIP3   OH2 8069   2.698   6.175   3.017 -0.4186  0.1356  0.6462
 2702TIP3    H1 8070   2.737   6.171   3.104  1.2009  2.1083  0.0820
 2702TIP3    H2 8071   2.747   6.111   2.965 -0.1201  0.2934  0.7336
 2703TIP3   OH2 8072   4.551   1.111   4.468 -0.2019  0.1763 -0.1228
 2703TIP3    H1 8073   4.458   1.134   4.467 -0.4320 -0.7289 -0.4719
 2703TIP3    H2 8074   4.568   1.082   4.558 -0.2656  0.2809 -0.0766
 2704TIP3   OH2 8075   5.478   1.537   1.881 -0.1269  0.2805 -0.5070
 2704TIP3    H1 8076   5.439   1.498   1.803 -1.4142  1.5744 -0.5584
 2704TIP3    H2 8077   5.403   1.566   1.934  0.7418  0.4365  0.6819
 2705TIP3   OH2 8078   2.927   4.426   5.829  0.2141  0.1329  0.0515
 2705TIP3    H1 8079   2.867   4.501   5.835  0.6333  0.5388 -0.5734
 2705TIP3    H2 8080   3.014   4.464   5.844  0.4377 -0.2146 -0.3378
 2706TIP3   OH2 8081   3.377   1.986   1.767 -0.3351 -0.2723  0.0206
 2706TIP3    H1 8082   3.422   2.069   1.753  0.7764 -0.5318  1.7369
 2706TIP3    H2 8083   3.321   2.002   1.843  1.2769 -1.5518  1.5544
 2707TIP3   OH2 8084   6.059   3.609   3.505 -0.5424 -0.8691 -0.4893
 2707TIP3    H1 8085   6.100   3.604   3.591  0.6877  1.0170 -0.9030
 2707TIP3    H2 8086   5.970   3.576   3.518 -0.5555 -0.1277  1.6240
 2708TIP3   OH2 8087   3.801   2.026   4.281 -0.3386  0.3251  0.1865
 2708TIP3    H1 8088   3.830   1.996   4.195 -0.9552 -2.0604  0.7252
 2708TIP3    H2 8089   3.711   1.994   4.288  0.1395 -0.7344  2.2027
 2709TIP3   OH2 8090   6.453   1.403   0.515  0.2239  0.1227  0.0633
 2709TIP3    H1 8091   6.376   1.383   0.568  1.0045  0.3586  1.3445
 2709TIP3    H2 8092   6.441   1.352   0.435 -0.1013 -1.7575  1.2432
 2710TIP3   OH2 8093   6.649   2.167   3.515  0.4879  0.2313  0.6432
 2710TIP3    H1 8094   6.676   2.246   3.468 -0.5337 -0.6340 -1.4918
 2710TIP3    H2 8095   6.711   2.100   3.488 -0.1745 -0.3107  0.4428
 2711TIP3   OH2 8096   1.268   6.628   0.959  0.2970 -0.2009  0.4851
 2711TIP3    H1 8097   1.230   6.540   0.961  2.1415 -1.0320  0.7728
 2711TIP3    H2 8098   1.246   6.666   1.044 -0.1336 -0.5396  0.5281
 2712TIP3   OH2 8099   6.209   4.514   1.579 -0.2440 -0.5254 -0.3199
 2712TIP3    H1 8100   6.251   4.434   1.548 -0.8177 -0.5322 -1.1231
 2712TIP3    H2 8101   6.212   4.573   1.503 -1.2450 -0.3559 -0.2413
 2713TIP3   OH2 8102   3.048   2.606   1.780  0.7450  0.2975 -0.7359
 2713TIP3    H1 8103   3.013   2.581   1.695  0.2343  0.8834 -0.7070
 2713TIP3    H2 8104   3.081   2.695   1.766  0.7877  0.3411 -0.3591
 2714TIP3   OH2 8105   2.288   5.418   5.270 -0.1561 -0.4048 -0.2318
 2714TIP3    H1 8106   2.342   5.473   5.213 -0.1992  1.9930  1.8560
 2714TIP3    H2 8107   2.350   5.382   5.334 -0.4599 -1.0192 -0.2737
 2715TIP3   OH2 8108   5.773   2.354   3.403 -0.2105  0.6769 -0.3466
 2715TIP3    H1 8109   5.816   2.413   3.464  1.4612 -0.4800 -0.3318
 2715TIP3    H2 8110   5.687   2.337   3.442  0.7218  0.1577  1.5816
 2716TIP3   OH2 8111   3.838   6.587   5.451  0.1880  0.5290 -0.5970
 2716TIP3    H1 8112   3.918   6.634   5.427 -0.0088  1.0993 -0.1700
 2716TIP3    H2 8113   3.767   6.641   5.418 -0.1912  2.3510  2.7022
 2717TIP3   OH2 8114   1.644   1.291   3.619  0.6524 -0.3969 -0.0446
 2717TIP3    H1 8115   1.734   1.306   3.590  0.9265 -3.2403 -0.9255
 2717TIP3    H2 8116   1.648   1.290   3.714  0.6318  4.0064  0.2182
 2718TIP3   OH2 8117   6.616   0.691   0.246 -0.2554  0.0228  0.5723
 2718TIP3    H1 8118   6.594   0.646   0.328  1.4379 -0.1790  0.9498
 2718TIP3    H2 8119   6.679   0.758   0.271 -0.0262  0.2358 -0.5119
 2719TIP3   OH2 8120   1.979   3.264   3.641  0.2512 -0.0604  0.1666
 2719TIP3    H1 8121   1.910   3.328   3.627 -1.4326 -1.6268  0.9444
 2719TIP3    H2 8122   2.030   3.266   3.559 -0.7147  1.1005 -0.4374
 2720TIP3   OH2 8123   5.587   3.370   0.865  1.2604  0.2079 -0.6401
 2720TIP3    H1 8124   5.588   3.284   0.823  0.3237 -0.6021  0.8783
 2720TIP3    H2 8125   5.497   3.402   0.852  1.4241  0.6692 -0.6456
 2721TIP3   OH2 8126   5.697   1.403   1.981  0.1614  0.2177 -0.3972
 2721TIP3    H1 8127   5.619   1.457   1.970  0.2298  0.2349 -0.8054
 2721TIP3    H2 8128   5.716   1.406   2.075  0.6512  1.5817 -0.5258
 2722TIP3   OH2 8129   3.771   4.310   0.548  0.1195 -0.4454  0.5124
 2722TIP3    H1 8130   3.815   4.290   0.631 -0.1938 -0.9182  0.5698
 2722TIP3    H2 8131   3.686   4.345   0.574  1.3993  3.0692  0.4859
 2723TIP3   OH2 8132   3.889   1.214   4.865 -0.1368 -0.2428  0.2312
 2723TIP3    H1 8133   3.960   1.163   4.826  0.7119 -0.6169  2.1037
 2723TIP3    H2 8134   3.860   1.273   4.796 -1.3303 -3.3240 -2.1485
 2724TIP3   OH2 8135   6.915   2.276   5.889  0.8986  0.3705 -0.3363
 2724TIP3    H1 8136   6.821   2.257   5.898  1.0225  0.5183  2.2729
 2724TIP3    H2 8137   6.919   2.362   5.847  0.0496 -1.0190 -3.5601
 2725TIP3   OH2 8138   6.167   0.640   1.379 -0.0146 -0.2485  0.0665
 2725TIP3    H1 8139   6.237   0.665   1.439 -1.0761 -1.5514  1.9431
 2725TIP3    H2 8140   6.175   0.545   1.369  0.1109 -0.0880 -1.9036
 2726TIP3   OH2 8141   0.991   5.069   3.858  0.3983 -0.3634 -0.2404
 2726TIP3    H1 8142   0.933   5.073   3.934 -1.5862  0.3020 -1.6746
 2726TIP3    H2 8143   0.990   4.977   3.832 -1.4671 -0.1177 -1.2189
 2727TIP3   OH2 8144   2.383   0.249   5.619 -0.1147 -0.5371 -0.4538
 2727TIP3    H1 8145   2.313   0.259   5.555 -0.2589 -1.8776 -0.5382
 2727TIP3    H2 8146   2.444   0.188   5.578  0.7143  0.0109 -0.0532
 2728TIP3   OH2 8147   6.613   5.476   0.842  0.1774 -0.0638  0.4907
 2728TIP3    H1 8148   6.688   5.536   0.835 -0.1790  0.4486  0.9948
 2728TIP3    H2 8149   6.562   5.510   0.915 -0.6799 -0.2806 -0.0001
 2729TIP3   OH2 8150   0.401   3.320   1.571  0.4571 -0.2679  0.0055
 2729TIP3    H1 8151   0.354   3.394   1.608  1.0130  0.2561 -0.3212
 2729TIP3    H2 8152   0.402   3.336   1.476  0.7813 -0.5674 -0.0472
 2730TIP3   OH2 8153   6.930   5.567   0.578 -0.3733  0.5107 -0.5902
 2730TIP3    H1 8154   6.888   5.609   0.653 -0.9916  0.6254 -0.9912
 2730TIP3    H2 8155   6.949   5.478   0.608  1.3883  1.1884  0.4258
 2731TIP3   OH2 8156   0.268   6.205   4.508  0.2425 -0.0658 -0.1800
 2731TIP3    H1 8157   0.354   6.236   4.480  0.1092  0.6966  0.2084
 2731TIP3    H2 8158   0.284   6.163   4.593  0.2183  0.2024 -0.0399
 2732TIP3   OH2 8159   5.010   4.168   1.445 -0.1278  0.0944 -0.0990
 2732TIP3    H1 8160   5.061   4.138   1.520  2.0784  1.7835 -0.8044
 2732TIP3    H2 8161   5.019   4.098   1.380  0.7162  0.0302  0.0730
 2733TIP3   OH2 8162   3.762   6.599   1.391 -0.2778  0.2181 -0.1422
 2733TIP3    H1 8163   3.667   6.606   1.394 -0.4451  0.3905 -3.1157
 2733TIP3    H2 8164   3.779   6.531   1.326  1.6004  2.1352 -1.8193
 2734TIP3   OH2 8165   6.711   6.109   2.492 -0.1549 -0.1715  0.5045
 2734TIP3    H1 8166   6.761   6.174   2.541 -2.8122  1.2199  1.6007
 2734TIP3    H2 8167   6.718   6.029   2.544  0.9218 -0.0226  0.6039
 2735TIP3   OH2 8168   0.969   2.271   0.274 -0.1391 -0.3565  0.3657
 2735TIP3    H1 8169   0.893   2.324   0.301 -0.7179 -1.0588  0.1352
 2735TIP3    H2 8170   0.973   2.282   0.179  0.2107 -0.1228  0.4035
 2736TIP3   OH2 8171   6.349   1.691   3.759  0.1021  0.2497 -0.0534
 2736TIP3    H1 8172   6.401   1.765   3.729 -0.4357  0.3688 -0.7130
 2736TIP3    H2 8173   6.310   1.655   3.679  1.3472 -1.5137  0.0691
 2737TIP3   OH2 8174   1.964   6.263   1.725  0.3190 -0.4497 -0.3352
 2737TIP3    H1 8175   1.894   6.198   1.720  1.0311 -1.1452 -1.7317
 2737TIP3    H2 8176   2.029   6.223   1.783  1.0891 -1.3610 -1.7697
 2738TIP3   OH2 8177   2.235   1.560   0.526 -0.1806 -0.1781 -0.1956
 2738TIP3    H1 8178   2.161   1.619   0.511 -0.5338 -0.9534 -1.6047
 2738TIP3    H2 8179   2.288   1.566   0.447  1.6273  0.7954  0.9995
 2739TIP3   OH2 8180   5.931   5.696   0.776  0.5393 -0.2541  0.2168
 2739TIP3    H1 8181   5.842   5.675   0.747  0.0462  0.4304  1.1582
 2739TIP3    H2 8182   5.933   5.672   0.869  0.2718  2.6224  1.0809
 2740TIP3   OH2 8183   3.246   4.401   0.522 -0.4837 -0.6396  0.1910
 2740TIP3    H1 8184   3.250   4.348   0.601 -0.0480 -1.7713 -0.5723
 2740TIP3    H2 8185   3.317   4.369   0.467 -1.3571 -0.5142 -1.0557
 2741TIP3   OH2 8186   6.456   3.149   2.490 -0.1935 -0.4357 -0.5597
 2741TIP3    H1 8187   6.526   3.214   2.484 -1.9309  1.4073 -2.2268
 2741TIP3    H2 8188   6.418   3.163   2.577 -0.1430  0.3844 -0.6592
 2742TIP3   OH2 8189   6.340   2.528   1.061  0.3550  0.3271 -0.3521
 2742TIP3    H1 8190   6.422   2.482   1.079 -0.2682 -0.6881  0.0265
 2742TIP3    H2 8191   6.301   2.478   0.988 -0.3894  0.1735  0.1416
 2743TIP3   OH2 8192   2.527   2.439   5.664  0.4135  0.2701  0.1825
 2743TIP3    H1 8193   2.479   2.360   5.637 -0.2271  0.7871 -0.2120
 2743TIP3    H2 8194   2.612   2.430   5.620 -0.0140  0.2747 -0.6799
 2744TIP3   OH2 8195   3.373   5.731   2.214  0.5752 -0.5550 -0.2883
 2744TIP3    H1 8196   3.371   5.684   2.131 -0.4608 -1.0642  0.0096
 2744TIP3    H2 8197   3.282   5.732   2.243  0.9814 -0.7157  1.0367
 2745TIP3   OH2 8198   3.173   3.121   3.310 -0.1348 -0.7612  0.3826
 2745TIP3    H1 8199   3.120   3.087   3.237 -0.8245  0.8421  0.0970
 2745TIP3    H2 8200   3.233   3.182   3.269 -0.3935  0.0085  1.1363
 2746TIP3   OH2 8201   4.013   2.685   5.588 -0.0366  0.8908 -0.2064
 2746TIP3    H1 8202   4.078   2.643   5.531  0.5943  1.3297  0.1735
 2746TIP3    H2 8203   3.934   2.632   5.578  1.2925 -1.7108  1.8238
 2747TIP3   OH2 8204   6.360   2.200   4.187 -0.0250 -0.0113 -0.5182
 2747TIP3    H1 8205   6.403   2.158   4.262 -1.9812  0.1992  0.7928
 2747TIP3    H2 8206   6.405   2.165   4.110 -0.5816 -3.4558  0.5544
 2748TIP3   OH2 8207   0.250   0.850   2.642 -0.2437 -0.7397 -0.6880
 2748TIP3    H1 8208   0.185   0.920   2.640  1.1739  0.8460  2.2113
 2748TIP3    H2 8209   0.311   0.872   2.571 -0.6551  0.0668 -0.8052
 2749TIP3   OH2 8210   3.047   1.053   1.654  0.5397 -0.6179  0.6713
 2749TIP3    H1 8211   3.105   1.019   1.721 -0.4019 -0.6308  1.5062
 2749TIP3    H2 8212   3.021   1.140   1.686 -0.4654 -0.9089  0.6791
 2750TIP3   OH2 8213   4.611   3.894   0.126  0.7617 -0.5899  0.2264
 2750TIP3    H1 8214   4.580   3.914   0.038  1.2099  0.6064  0.3160
 2750TIP3    H2 8215   4.572   3.810   0.147  0.6213 -0.8769 -1.1014
 2751TIP3   OH2 8216   2.271   6.530   3.330 -0.0291  0.0716  0.5653
 2751TIP3    H1 8217   2.345   6.590   3.331  1.5553 -1.8125  1.4950
 2751TIP3    H2 8218   2.271   6.493   3.242  0.2758 -0.1107  0.6433
 2752TIP3   OH2 8219   1.836   6.618   0.221 -0.4944 -0.1316 -0.4321
 2752TIP3    H1 8220   1.801   6.698   0.261 -1.6889  0.4598 -2.4834
 2752TIP3    H2 8221   1.781   6.604   0.143  0.7465 -2.0263 -1.0516
 2753TIP3   OH2 8222   3.158   4.979   4.856  0.3400  0.6839 -0.0129
 2753TIP3    H1 8223   3.124   4.999   4.769  0.8014 -0.1473 -0.3960
 2753TIP3    H2 8224   3.225   4.912   4.841 -0.2167 -0.1515  1.0554
 2754TIP3   OH2 8225   6.375   5.777   2.165 -0.0975 -0.1373 -0.2736
 2754TIP3    H1 8226   6.417   5.741   2.244 -0.4441 -0.0713 -0.0592
 2754TIP3    H2 8227   6.403   5.719   2.095  1.7027  0.8273 -0.4309
 2755TIP3   OH2 8228   1.320   1.252   0.417  0.4534 -0.6776 -0.0318
 2755TIP3    H1 8229   1.373   1.272   0.340 -1.6904 -0.7045 -1.6011
 2755TIP3    H2 8230   1.366   1.295   0.489  2.2536 -0.2069 -1.3732
 2756TIP3   OH2 8231   7.159   5.633   2.374 -0.6258  0.0189  0.4518
 2756TIP3    H1 8232   7.103   5.565   2.337  0.0853 -0.2650 -0.1319
 2756TIP3    H2 8233   7.216   5.659   2.302  0.6260 -0.3695  1.2642
 2757TIP3   OH2 8234   0.266   1.102   5.762 -0.0963 -0.1926 -0.4620
 2757TIP3    H1 8235   0.352   1.071   5.788 -0.8507  0.2502  2.9996
 2757TIP3    H2 8236   0.204   1.045   5.808 -1.6203  1.1213 -0.7679
 2758TIP3   OH2 8237   5.670   0.024   1.041 -0.6299 -0.0072  0.2726
 2758TIP3    H1 8238   5.634  -0.065   1.031 -0.4547  0.0738 -1.2825
 2758TIP3    H2 8239   5.592   0.080   1.045 -0.7359 -0.0467 -0.8633
 2759TIP3   OH2 8240   2.092   1.185   0.033  0.1168 -0.5190 -0.0409
 2759TIP3    H1 8241   2.015   1.150  -0.011 -0.8152  2.8157 -1.3315
 2759TIP3    H2 8242   2.059   1.255   0.089  2.0696  0.2429  0.2649
 2760TIP3   OH2 8243   3.460   6.507   4.964  0.0193 -0.5188 -0.4132
 2760TIP3    H1 8244   3.535   6.499   5.023  0.7850 -0.5368 -1.3652
 2760TIP3    H2 8245   3.400   6.438   4.992  0.2339 -0.3417  0.5212
 2761TIP3   OH2 8246   3.974   6.466   3.479  0.4244 -0.0676  0.4535
 2761TIP3    H1 8247   4.058   6.475   3.523  0.2239 -0.1226  0.8492
 2761TIP3    H2 8248   3.943   6.556   3.469 -1.2679 -0.1192  3.8118
 2762TIP3   OH2 8249   1.823   4.494   3.182 -0.2926  0.5443 -0.3626
 2762TIP3    H1 8250   1.732   4.495   3.152 -0.2740 -0.8794 -0.5308
 2762TIP3    H2 8251   1.875   4.486   3.102  0.0038  1.4021 -0.2722
 2763TIP3   OH2 8252   6.754   4.303   1.100  0.1000  0.4091 -0.5342
 2763TIP3    H1 8253   6.712   4.243   1.037 -0.8629  1.0704 -0.5575
 2763TIP3    H2 8254   6.713   4.388   1.081  0.4953  0.8019  0.3615
 2764TIP3   OH2 8255   5.139   3.735   5.558 -0.1816 -0.5723  0.6691
 2764TIP3    H1 8256   5.069   3.669   5.561 -1.1612  0.3415 -0.7818
 2764TIP3    H2 8257   5.102   3.810   5.604  0.2351 -0.4153  0.7481
 2765TIP3   OH2 8258   6.088   4.970   5.527 -0.3174  0.0528 -1.0517
 2765TIP3    H1 8259   6.137   4.890   5.508 -1.4244 -1.2455  1.0387
 2765TIP3    H2 8260   6.051   4.996   5.443  2.8805  0.4450 -2.4931
 2766TIP3   OH2 8261   0.355   1.109   1.135  0.4075  0.4370 -0.1908
 2766TIP3    H1 8262   0.262   1.122   1.114  0.4669  0.6488 -0.3226
 2766TIP3    H2 8263   0.357   1.097   1.230  0.1450 -0.4378 -0.2851
 2767TIP3   OH2 8264   6.971   4.550   1.344  0.0014  0.6300 -0.7544
 2767TIP3    H1 8265   6.934   4.619   1.399 -0.1953  0.4493 -0.6546
 2767TIP3    H2 8266   7.056   4.530   1.384 -1.2644 -1.4213  1.2046
 2768TIP3   OH2 8267   6.301   1.950   2.080 -0.2532 -0.5319  0.2265
 2768TIP3    H1 8268   6.232   2.013   2.102  1.7369  1.4595  1.1461
 2768TIP3    H2 8269   6.334   1.980   1.996  1.0208  0.0125  0.8896
 2769TIP3   OH2 8270   3.252   2.875   4.044  0.0128  0.2520 -0.2690
 2769TIP3    H1 8271   3.262   2.907   4.134 -0.7041 -0.5265  0.1005
 2769TIP3    H2 8272   3.277   2.949   3.989  2.8564  0.0269  0.5532
 2770TIP3   OH2 8273   1.539   5.051   2.106 -0.0933 -0.0329  0.4383
 2770TIP3    H1 8274   1.552   5.103   2.185 -0.6585 -0.1268  0.5989
 2770TIP3    H2 8275   1.595   5.092   2.041 -1.9246  2.0077  0.0271
 2771TIP3   OH2 8276   0.748  -0.024   2.065 -0.6021 -0.0368  0.2093
 2771TIP3    H1 8277   0.709   0.050   2.112 -0.2652  0.0952  0.2852
 2771TIP3    H2 8278   0.739  -0.001   1.973  0.2326  0.4801  0.2499
 2772TIP3   OH2 8279   1.006   4.666   0.039 -0.2967 -0.5501 -0.0652
 2772TIP3    H1 8280   1.005   4.574   0.012  0.2780  0.2486 -3.1434
 2772TIP3    H2 8281   1.028   4.715  -0.040  1.7680  2.1144  1.9442
 2773TIP3   OH2 8282   2.630   3.107   1.873  0.2002  0.3563 -0.4683
 2773TIP3    H1 8283   2.602   3.177   1.814  0.7844  0.6567 -0.3911
 2773TIP3    H2 8284   2.564   3.038   1.861  1.5530 -0.6009 -3.2864
 2774TIP3   OH2 8285   2.793   2.096   0.562 -0.2185  0.0789  0.0958
 2774TIP3    H1 8286   2.727   2.086   0.630  0.9524  0.1789  1.2907
 2774TIP3    H2 8287   2.876   2.100   0.610  0.5024  2.1329 -1.1909
 2775TIP3   OH2 8288   2.911   0.909   2.426 -0.4945 -0.6478 -0.0477
 2775TIP3    H1 8289   2.858   0.914   2.505 -0.5685 -1.4965 -0.0442
 2775TIP3    H2 8290   2.993   0.953   2.449 -0.1902 -1.6069  0.7668
 2776TIP3   OH2 8291   6.618   5.170   3.586  0.3812  0.3017 -0.2639
 2776TIP3    H1 8292   6.685   5.105   3.561 -0.1710 -0.2359 -0.3594
 2776TIP3    H2 8293   6.561   5.123   3.646  0.4608  0.9597  0.3378
 2777TIP3   OH2 8294   6.843   6.724   3.840 -0.4018 -0.1184  0.0172
 2777TIP3    H1 8295   6.776   6.692   3.779  0.3915 -2.5351  0.2846
 2777TIP3    H2 8296   6.907   6.769   3.784 -0.9738 -0.0340 -0.5780
 2778TIP3   OH2 8297   4.841   5.049   1.818  0.5930 -0.9880  0.0152
 2778TIP3    H1 8298   4.793   5.074   1.897 -0.7471  1.5910 -1.4755
 2778TIP3    H2 8299   4.847   4.954   1.823  1.4825 -0.8904  3.6847
 2779TIP3   OH2 8300   3.465   1.276   2.410 -0.4610  0.1343 -0.2552
 2779TIP3    H1 8301   3.550   1.309   2.381 -0.6458  1.2262  0.3970
 2779TIP3    H2 8302   3.401   1.326   2.360 -0.7263 -0.6300 -0.6885
 2780TIP3   OH2 8303   5.668   3.760   4.029 -0.0964  0.0029  0.1381
 2780TIP3    H1 8304   5.714   3.709   3.962 -0.4357 -1.6748  1.1221
 2780TIP3    H2 8305   5.609   3.817   3.979 -0.4050 -1.2581 -1.0092
 2781TIP3   OH2 8306   0.900   2.537   5.810  0.1269  0.4143  0.1176
 2781TIP3    H1 8307   0.895   2.548   5.905 -0.8629  2.8365 -0.1434
 2781TIP3    H2 8308   0.870   2.620   5.775  1.1984 -0.1468 -2.3398
 2782TIP3   OH2 8309   2.696   0.397   4.140  0.3443 -0.4230 -0.3349
 2782TIP3    H1 8310   2.617   0.450   4.128 -0.6769 -1.2551  2.1695
 2782TIP3    H2 8311   2.766   0.461   4.148 -0.3496  0.4131 -0.7516
 2783TIP3   OH2 8312   3.367   6.029   3.450 -0.0757  0.1332 -0.2350
 2783TIP3    H1 8313   3.364   6.004   3.543  1.2697 -0.1315 -0.2446
 2783TIP3    H2 8314   3.337   5.951   3.403 -2.6344  0.8728  0.0151
 2784TIP3   OH2 8315   2.448   3.155   2.937  0.3116  0.0900 -0.2354
 2784TIP3    H1 8316   2.525   3.202   2.969 -0.0117 -0.1815  1.0135
 2784TIP3    H2 8317   2.482   3.090   2.877  1.0960 -0.1777  0.4849
 2785TIP3   OH2 8318   5.940   3.121   4.829 -0.3066  0.1542  0.3101
 2785TIP3    H1 8319   6.011   3.099   4.769 -0.8599  1.1519 -0.7647
 2785TIP3    H2 8320   5.973   3.194   4.880  0.4403 -1.1749  1.7892
 2786TIP3   OH2 8321   4.514   1.280   0.087 -0.0895  0.0304 -0.4175
 2786TIP3    H1 8322   4.576   1.232   0.143  0.8004 -0.8252 -2.0721
 2786TIP3    H2 8323   4.462   1.211   0.045 -0.3140  0.6179 -1.1144
 2787TIP3   OH2 8324   4.047   5.780   5.501  0.5371  0.0408  0.3108
 2787TIP3    H1 8325   4.025   5.870   5.478  3.2235  0.7160  0.0601
 2787TIP3    H2 8326   4.040   5.777   5.596 -0.9483  0.0707  0.2219
 2788TIP3   OH2 8327   6.294   4.616   4.344  0.1297 -0.0082  0.4341
 2788TIP3    H1 8328   6.225   4.682   4.350  1.7965  1.9859 -1.1360
 2788TIP3    H2 8329   6.368   4.653   4.392  1.5600 -0.0273 -1.6262
 2789TIP3   OH2 8330   0.764   2.744   4.975 -0.0844  0.3512 -0.1834
 2789TIP3    H1 8331   0.727   2.691   4.904 -2.2451  0.3340  0.8712
 2789TIP3    H2 8332   0.706   2.728   5.049  1.4174  1.2914  1.2686
 2790TIP3   OH2 8333   3.863   1.088   0.957 -0.6922  0.5072  0.0980
 2790TIP3    H1 8334   3.792   1.152   0.963 -0.7831  0.3679  0.4671
 2790TIP3    H2 8335   3.932   1.135   0.909 -1.2732  0.4256 -0.8501
 2791TIP3   OH2 8336   3.247   5.240   2.312  0.4777  0.4015  0.0777
 2791TIP3    H1 8337   3.235   5.195   2.229 -0.2329  0.2330  0.2606
 2791TIP3    H2 8338   3.253   5.170   2.377 -0.0440  0.5455  0.2913
 2792TIP3   OH2 8339   5.195   4.558   0.604  0.0399  0.3332  0.6003
 2792TIP3    H1 8340   5.171   4.561   0.697  0.6015  1.5656  0.7229
 2792TIP3    H2 8341   5.112   4.544   0.558 -0.7115  2.6625  1.1255
 2793TIP3   OH2 8342   0.876   1.988   1.973  0.2753 -0.1827 -0.1332
 2793TIP3    H1 8343   0.802   2.018   1.919  1.3756  0.6784 -1.2261
 2793TIP3    H2 8344   0.840   1.983   2.061 -1.4785 -1.2192 -0.8543
 2794TIP3   OH2 8345   4.795   6.600   5.068 -0.2581  0.6493  0.8052
 2794TIP3    H1 8346   4.868   6.538   5.068 -0.7916 -0.0109 -0.2455
 2794TIP3    H2 8347   4.792   6.634   5.157  0.9299  0.2156  1.0263
 2795TIP3   OH2 8348   1.188   2.009   0.900 -0.0539  0.0533  0.3482
 2795TIP3    H1 8349   1.104   2.053   0.895 -0.4613 -0.8584 -1.9695
 2795TIP3    H2 8350   1.170   1.926   0.945 -0.5691 -0.4524 -0.7632
 2796TIP3   OH2 8351   5.554   2.599   4.474 -0.0420  0.3472 -0.3054
 2796TIP3    H1 8352   5.519   2.687   4.487 -2.0621 -0.1263 -1.9392
 2796TIP3    H2 8353   5.602   2.604   4.391 -1.2450 -0.3360 -1.0721
 2797TIP3   OH2 8354   3.767   2.894   5.231  0.5395  0.7333 -0.1349
 2797TIP3    H1 8355   3.677   2.875   5.257  0.9917 -0.7010  0.4970
 2797TIP3    H2 8356   3.816   2.892   5.313  1.4591 -0.4772 -0.6956
 2798TIP3   OH2 8357   4.385   0.376   5.751  0.4084  0.1101  0.6879
 2798TIP3    H1 8358   4.472   0.343   5.731 -0.3094 -1.4750 -0.0049
 2798TIP3    H2 8359   4.327   0.331   5.689 -0.7842  1.9697  0.3538
 2799TIP3   OH2 8360   6.841   5.445   4.939  0.0990  0.7730  0.2811
 2799TIP3    H1 8361   6.764   5.397   4.909 -0.2734  1.3014  0.3736
 2799TIP3    H2 8362   6.891   5.462   4.859  0.9984 -1.0571  0.4188
 2800TIP3   OH2 8363   5.664   4.309   3.455 -0.5349  0.5074  0.4991
 2800TIP3    H1 8364   5.644   4.218   3.433  1.0642 -0.6805  3.4613
 2800TIP3    H2 8365   5.711   4.304   3.538  0.4410  4.0007  0.3048
 2801TIP3   OH2 8366   3.553   3.838   1.590 -0.0097  0.3719 -0.0438
 2801TIP3    H1 8367   3.461   3.857   1.573  0.4880  0.6078 -3.2228
 2801TIP3    H2 8368   3.552   3.757   1.641 -1.9547  0.7152  0.5422
 2802TIP3   OH2 8369   4.377   1.258   3.938 -0.1320 -0.0889 -0.3216
 2802TIP3    H1 8370   4.401   1.167   3.917 -0.3402 -0.2247  0.0223
 2802TIP3    H2 8371   4.458   1.297   3.970  0.3849  0.3297 -2.0091
 2803TIP3   OH2 8372   0.712   2.605   1.659  0.4573  0.5768  0.6104
 2803TIP3    H1 8373   0.636   2.625   1.605  1.4341  1.5562 -0.4703
 2803TIP3    H2 8374   0.698   2.655   1.740  0.3978  1.5144  0.0286
 2804TIP3   OH2 8375   4.313   5.687   5.550 -0.7463  0.1495  0.3427
 2804TIP3    H1 8376   4.378   5.725   5.492  0.0466 -0.9498  0.4761
 2804TIP3    H2 8377   4.243   5.752   5.554 -1.2765 -0.0913 -2.5749
 2805TIP3   OH2 8378   5.394   0.513   4.124 -0.2420  0.2322 -1.0135
 2805TIP3    H1 8379   5.455   0.491   4.194 -0.8529 -1.5861 -1.0016
 2805TIP3    H2 8380   5.391   0.609   4.124  0.6654  0.2945  0.6482
 2806TIP3   OH2 8381   0.310   6.306   1.430 -0.5385 -0.2231  0.6528
 2806TIP3    H1 8382   0.277   6.282   1.343 -1.2883 -0.1868  0.9220
 2806TIP3    H2 8383   0.384   6.364   1.412 -1.7330  1.1803  0.0194
 2807TIP3   OH2 8384   6.582   6.793   1.400 -0.3979  0.2964  0.2803
 2807TIP3    H1 8385   6.673   6.765   1.401  0.1660  2.0106 -0.2569
 2807TIP3    H2 8386   6.553   6.778   1.310 -0.8567 -0.8137  0.5956
 2808TIP3   OH2 8387   1.297   6.187   4.478  0.1476 -0.1184  0.5928
 2808TIP3    H1 8388   1.274   6.207   4.388 -2.3198  1.4825  1.4686
 2808TIP3    H2 8389   1.351   6.261   4.506 -2.1121  1.2949  1.4213
 2809TIP3   OH2 8390   2.795   6.520   2.876 -0.0320 -0.1639 -0.1602
 2809TIP3    H1 8391   2.715   6.481   2.841  0.0690 -0.1059 -0.4527
 2809TIP3    H2 8392   2.855   6.446   2.888  0.1101 -0.1180 -0.5826
 2810TIP3   OH2 8393   1.081   1.726   3.440  0.3115  0.5209 -0.2022
 2810TIP3    H1 8394   1.031   1.754   3.516 -1.4322 -0.7639 -0.8217
 2810TIP3    H2 8395   1.049   1.780   3.368  0.1906  0.0541 -0.5039
 2811TIP3   OH2 8396   6.278   3.513   5.609 -0.4078 -0.2662  0.0028
 2811TIP3    H1 8397   6.267   3.537   5.517  2.0741  0.5594 -0.1598
 2811TIP3    H2 8398   6.338   3.438   5.607 -2.1646 -1.7744  0.8959
 2812TIP3   OH2 8399   2.668   1.905   5.078  0.7339 -0.8397 -0.6888
 2812TIP3    H1 8400   2.685   1.956   4.998 -0.0323 -1.9120 -1.5765
 2812TIP3    H2 8401   2.640   1.819   5.046 -1.7775 -0.6235  0.6667
 2813TIP3   OH2 8402   1.539   6.677   0.861 -0.0026 -0.1824  0.0360
 2813TIP3    H1 8403   1.540   6.602   0.802  1.2732 -0.8811  0.8761
 2813TIP3    H2 8404   1.503   6.642   0.943 -0.4206  0.4026  0.1055
 2814TIP3   OH2 8405   3.160   3.254   1.035 -0.7722  0.3453 -1.0471
 2814TIP3    H1 8406   3.102   3.190   1.074 -0.1208  0.4937  0.1999
 2814TIP3    H2 8407   3.144   3.335   1.084 -1.2835  1.0476 -2.3205
 2815TIP3   OH2 8408   6.622   4.389   1.580 -0.7731  0.0060  0.7412
 2815TIP3    H1 8409   6.709   4.348   1.575 -1.1975 -0.7735 -0.4988
 2815TIP3    H2 8410   6.616   4.444   1.502 -1.3276  0.1930  0.9114
 2816TIP3   OH2 8411   0.828   3.546   0.196 -0.7511 -0.1393  0.6974
 2816TIP3    H1 8412   0.875   3.592   0.127 -1.2369 -2.4136 -1.3166
 2816TIP3    H2 8413   0.777   3.614   0.240  0.5656  1.5945 -0.3354
 2817TIP3   OH2 8414   2.943   1.745   1.383  0.0903  0.0303 -0.1933
 2817TIP3    H1 8415   3.001   1.687   1.432  0.1731 -0.4106 -0.7961
 2817TIP3    H2 8416   2.998   1.818   1.356 -0.2887  1.0224  1.5982
 2818TIP3   OH2 8417   2.462   1.964   2.268  0.1691  0.2208 -0.0760
 2818TIP3    H1 8418   2.437   1.880   2.308 -0.2532  0.1309 -0.5175
 2818TIP3    H2 8419   2.394   1.980   2.203 -1.2095  2.1501  1.7098
 2819TIP3   OH2 8420   7.096   6.554   0.574 -0.1489  0.5043  0.0989
 2819TIP3    H1 8421   7.039   6.614   0.526  1.4804  0.8160 -1.5610
 2819TIP3    H2 8422   7.037   6.507   0.633 -2.0428  1.0504 -1.2689
 2820TIP3   OH2 8423   5.552   3.271   2.171  0.3337  0.4829 -0.1487
 2820TIP3    H1 8424   5.552   3.326   2.250 -1.8293 -1.1151  1.0781
 2820TIP3    H2 8425   5.464   3.279   2.136  0.7059 -0.3385 -1.3312
 2821TIP3   OH2 8426   1.017   3.506   3.686  0.2684  0.3515 -0.2189
 2821TIP3    H1 8427   0.956   3.568   3.645 -0.9873 -0.1803  0.7515
 2821TIP3    H2 8428   1.007   3.522   3.780  0.9394 -0.3853 -0.0165
 2822TIP3   OH2 8429   0.394   6.792   1.156  0.0343 -0.1698  0.1243
 2822TIP3    H1 8430   0.465   6.855   1.143 -0.4188  0.2994 -0.1287
 2822TIP3    H2 8431   0.407   6.727   1.086  1.0699 -0.9058  0.9701
 2823TIP3   OH2 8432   4.094   3.593   3.886 -0.2503 -0.0232  0.0152
 2823TIP3    H1 8433   4.176   3.553   3.857 -1.7533 -1.0352 -3.3357
 2823TIP3    H2 8434   4.118   3.684   3.908  1.8436 -0.4448 -0.3057
 2824TIP3   OH2 8435   3.962   4.832   3.755  0.1302 -0.1236 -0.1288
 2824TIP3    H1 8436   3.965   4.894   3.682  1.9694 -0.2858 -0.2481
 2824TIP3    H2 8437   3.906   4.874   3.820 -0.1362  0.8200 -0.9429
 2825TIP3   OH2 8438   4.108   1.125   1.684 -0.6600 -0.2507  0.2398
 2825TIP3    H1 8439   4.083   1.200   1.630  0.5366 -0.1655 -0.2335
 2825TIP3    H2 8440   4.187   1.154   1.729 -0.8099 -0.8528  0.8946
 2826TIP3   OH2 8441   3.792   3.980   3.260  0.3928  0.1991 -0.4434
 2826TIP3    H1 8442   3.796   3.906   3.321  0.3180 -0.8637 -1.6909
 2826TIP3    H2 8443   3.721   3.958   3.200  0.5788  1.1371 -1.0266
 2827TIP3   OH2 8444   4.294   4.730   1.369  0.1356  0.2132 -0.1709
 2827TIP3    H1 8445   4.237   4.783   1.424  2.3212  1.7759  0.7042
 2827TIP3    H2 8446   4.306   4.649   1.418  0.3796  0.7365  0.6399
 2828TIP3   OH2 8447   6.110   5.431   3.322  0.0412 -0.4206 -0.1432
 2828TIP3    H1 8448   6.204   5.441   3.340 -0.0771  0.0442  0.2339
 2828TIP3    H2 8449   6.085   5.513   3.279  0.2859 -1.4577 -2.3893
 2829TIP3   OH2 8450   6.513   0.710   4.373 -0.0032  0.2068  0.0599
 2829TIP3    H1 8451   6.492   0.780   4.435  0.2176  0.2380  0.1000
 2829TIP3    H2 8452   6.454   0.638   4.396 -0.1627  0.3448  0.0823
 2830TIP3   OH2 8453   2.609   4.018   3.275 -0.0521  0.0900  0.0283
 2830TIP3    H1 8454   2.521   4.056   3.271 -0.8944 -1.8163 -0.6256
 2830TIP3    H2 8455   2.631   4.000   3.183  1.6405  1.8146  0.0445
 2831TIP3   OH2 8456   6.348   4.508   2.046  0.3591  0.0259 -0.1108
 2831TIP3    H1 8457   6.333   4.414   2.042  2.0617 -0.3286  0.8627
 2831TIP3    H2 8458   6.389   4.529   1.962 -2.2602  0.4119 -1.3888
 2832TIP3   OH2 8459   6.718   3.455   0.484  0.1112  0.2469 -0.5352
 2832TIP3    H1 8460   6.637   3.502   0.464  0.5339  0.7836 -1.0349
 2832TIP3    H2 8461   6.710   3.372   0.437 -1.1805 -0.7577  1.3431
 2833TIP3   OH2 8462   1.553   5.587   4.770 -0.2622  0.1625  0.3424
 2833TIP3    H1 8463   1.624   5.533   4.736  0.7715  2.2848 -1.0376
 2833TIP3    H2 8464   1.585   5.618   4.855 -0.5844 -0.7990  0.8318
 2834TIP3   OH2 8465   5.055   3.541   4.559  0.3159  0.4422  0.1270
 2834TIP3    H1 8466   5.064   3.633   4.584 -0.7355  0.1405  1.7466
 2834TIP3    H2 8467   4.963   3.533   4.533  0.0606 -0.4291  1.2519
 2835TIP3   OH2 8468   1.056   2.212   1.481 -0.1049 -0.1938 -0.7555
 2835TIP3    H1 8469   1.071   2.118   1.466  0.8052 -0.0865 -0.6103
 2835TIP3    H2 8470   0.971   2.216   1.524 -0.6226 -0.8724 -1.6683
 2836TIP3   OH2 8471   2.443   2.895   1.949 -0.6327 -0.2653 -0.0740
 2836TIP3    H1 8472   2.412   2.822   2.002 -1.1896 -0.0016 -0.0352
 2836TIP3    H2 8473   2.401   2.884   1.864 -2.8357  1.4199  0.6842
 2837TIP3   OH2 8474   0.641   4.483   0.686  0.0538  0.1673 -0.1661
 2837TIP3    H1 8475   0.547   4.475   0.703 -0.0009 -0.6382 -0.8095
 2837TIP3    H2 8476   0.650   4.567   0.640 -0.4190  0.0227 -0.5318
 2838TIP3   OH2 8477   3.522   0.818   2.942  0.2781 -0.7519 -0.0874
 2838TIP3    H1 8478   3.601   0.764   2.941  0.3883 -0.5866 -0.5038
 2838TIP3    H2 8479   3.478   0.798   2.859  0.0637 -0.5780 -0.0163
 2839TIP3   OH2 8480   6.970   1.824   5.367  0.2903 -0.5747  0.3213
 2839TIP3    H1 8481   6.890   1.835   5.315  1.0734  0.3999 -0.7303
 2839TIP3    H2 8482   6.938   1.811   5.456 -1.0429  2.1344  0.3523
 2840TIP3   OH2 8483   0.679   6.015   5.687  0.3754  0.4517  0.6674
 2840TIP3    H1 8484   0.772   6.030   5.674  0.2872  0.2239 -0.3036
 2840TIP3    H2 8485   0.641   6.019   5.599 -0.2305 -1.4805  0.7976
 2841TIP3   OH2 8486   6.512   0.421   3.082 -0.1984  0.0135  0.0833
 2841TIP3    H1 8487   6.463   0.442   3.162  0.2518 -1.8227  0.8795
 2841TIP3    H2 8488   6.467   0.345   3.046  0.4925 -0.0739 -0.6185
 2842TIP3   OH2 8489   4.320   5.791   0.942  0.2799  0.1374 -0.0894
 2842TIP3    H1 8490   4.406   5.749   0.935  0.3300  0.0747  0.7516
 2842TIP3    H2 8491   4.275   5.766   0.862  0.1589 -1.9013  0.5493
 2843TIP3   OH2 8492   5.567   1.987   4.358  0.1318  0.4510  0.3160
 2843TIP3    H1 8493   5.531   2.064   4.313  1.5079  0.2243 -1.2930
 2843TIP3    H2 8494   5.644   1.964   4.306  1.0165 -0.6917  2.0632
 2844TIP3   OH2 8495   6.956   6.279   2.841  0.2280  0.2216  0.0856
 2844TIP3    H1 8496   6.973   6.187   2.819  0.3288  0.1811  0.3325
 2844TIP3    H2 8497   6.901   6.310   2.769  0.9172  0.2121 -0.4560
 2845TIP3   OH2 8498   5.592   1.580   4.432  0.0014 -0.0783 -0.0071
 2845TIP3    H1 8499   5.556   1.492   4.443 -0.0949  0.0191  0.4559
 2845TIP3    H2 8500   5.536   1.636   4.486 -1.2376  0.6124 -1.9111
 2846TIP3   OH2 8501   5.627   1.068   2.836 -0.3990 -0.3957 -0.6305
 2846TIP3    H1 8502   5.582   1.050   2.919 -1.4967  0.1728 -1.0804
 2846TIP3    H2 8503   5.720   1.053   2.855 -0.8458 -2.6652  0.0235
 2847TIP3   OH2 8504   4.711   0.455   2.290 -0.5221  0.4505 -0.6193
 2847TIP3    H1 8505   4.749   0.394   2.354 -2.9554 -0.3458  0.2137
 2847TIP3    H2 8506   4.753   0.539   2.309  0.6851 -0.3291  0.3059
 2848TIP3   OH2 8507   6.831   1.685   1.730 -0.5280 -0.0279 -0.3585
 2848TIP3    H1 8508   6.923   1.686   1.756 -0.2119 -0.0614 -1.4617
 2848TIP3    H2 8509   6.784   1.716   1.808  0.6479  3.0840 -0.7388
 2849TIP3   OH2 8510   2.027   1.347   1.463 -0.3178 -0.6722 -0.5073
 2849TIP3    H1 8511   1.981   1.267   1.489 -1.5627  0.2925  0.3947
 2849TIP3    H2 8512   2.080   1.320   1.388 -0.4561 -2.4080 -0.0397
 2850TIP3   OH2 8513   5.123   4.889   5.199  0.6431 -0.2505 -0.0708
 2850TIP3    H1 8514   5.077   4.813   5.235 -0.9143  0.4153 -0.5526
 2850TIP3    H2 8515   5.066   4.921   5.129  1.9371  0.5428 -0.8167
 2851TIP3   OH2 8516   1.152   5.132   2.628  0.0483  0.0112  0.0361
 2851TIP3    H1 8517   1.062   5.119   2.659  0.7987  1.4491  3.1893
 2851TIP3    H2 8518   1.195   5.048   2.643 -0.6653 -0.6602 -1.4156
 2852TIP3   OH2 8519   1.070   6.591   0.229 -0.2196 -0.2148  0.6042
 2852TIP3    H1 8520   1.012   6.528   0.271 -1.2911 -0.1408 -0.7058
 2852TIP3    H2 8521   1.023   6.674   0.235 -0.5197 -0.2459 -0.9224
 2853TIP3   OH2 8522   4.756   0.672   0.871  0.1262 -0.0229  0.0923
 2853TIP3    H1 8523   4.752   0.584   0.833  3.0378 -0.3740  0.3895
 2853TIP3    H2 8524   4.770   0.730   0.797  1.2080 -0.1926  0.1432
 2854TIP3   OH2 8525   0.709   4.671   0.514 -0.2654  0.0237  0.2650
 2854TIP3    H1 8526   0.704   4.698   0.422 -0.4880 -0.3228  0.1755
 2854TIP3    H2 8527   0.729   4.752   0.561 -0.1108  0.1949 -0.0920
 2855TIP3   OH2 8528   6.652   3.645   1.630 -0.3452 -0.4800  0.0720
 2855TIP3    H1 8529   6.680   3.599   1.551 -0.5447 -0.4937  0.0089
 2855TIP3    H2 8530   6.700   3.728   1.627 -0.0797 -0.6293  0.1226
 2856TIP3   OH2 8531   0.606   1.118   4.821 -0.5066 -0.6913 -0.6732
 2856TIP3    H1 8532   0.656   1.177   4.877  1.1884  0.3570 -3.0920
 2856TIP3    H2 8533   0.518   1.157   4.818 -0.5286 -0.5642  0.8789
 2857TIP3   OH2 8534   6.736   6.396   2.177 -0.5813  0.7592 -0.2003
 2857TIP3    H1 8535   6.642   6.390   2.156 -0.4569 -0.1599 -0.5420
 2857TIP3    H2 8536   6.779   6.352   2.104  0.1358  1.3539 -0.1391
 2858TIP3   OH2 8537   5.884   6.223   1.248 -0.3206  0.0354  0.4666
 2858TIP3    H1 8538   5.924   6.170   1.317  0.2786 -2.2354 -1.4929
 2858TIP3    H2 8539   5.887   6.168   1.171 -1.7199  2.1620 -1.2247
 2859TIP3   OH2 8540   0.662   4.459   1.868  0.1573  0.5357  0.0979
 2859TIP3    H1 8541   0.744   4.433   1.827 -0.6574  1.6334 -2.4063
 2859TIP3    H2 8542   0.606   4.381   1.859  0.1637  0.5838 -0.3973
 2860TIP3   OH2 8543   0.569   6.499   2.457 -0.1997 -0.6045  0.4697
 2860TIP3    H1 8544   0.544   6.409   2.475  0.6864 -0.3804  3.1312
 2860TIP3    H2 8545   0.652   6.512   2.502 -1.5325  2.2345  2.4826
 2861TIP3   OH2 8546   3.598   5.423   4.747 -0.0959  0.1396 -0.4658
 2861TIP3    H1 8547   3.600   5.519   4.748 -2.7115  0.2859 -0.6264
 2861TIP3    H2 8548   3.579   5.400   4.656 -3.1528 -0.2585  0.1714
 2862TIP3   OH2 8549   3.357   0.365   3.782  0.4153  0.1607  0.3599
 2862TIP3    H1 8550   3.351   0.457   3.808 -1.5011 -0.2053  1.3664
 2862TIP3    H2 8551   3.361   0.318   3.865  1.6210 -0.6786 -0.1545
 2863TIP3   OH2 8552   6.253   0.280   4.340 -0.0113  0.2674 -0.0762
 2863TIP3    H1 8553   6.297   0.286   4.255 -0.5687  2.4076 -0.2735
 2863TIP3    H2 8554   6.223   0.369   4.358 -0.4110 -0.2459  2.1164
 2864TIP3   OH2 8555   1.735   1.563   5.127 -0.1338 -0.1728 -0.5785
 2864TIP3    H1 8556   1.785   1.643   5.113  1.4789 -0.7254  1.4509
 2864TIP3    H2 8557   1.666   1.565   5.061 -0.2454  2.9329 -0.4853
 2865TIP3   OH2 8558   1.034   3.231   1.292  0.0768  0.2213  0.1288
 2865TIP3    H1 8559   0.980   3.172   1.240  0.6586 -0.3428  0.1525
 2865TIP3    H2 8560   1.014   3.207   1.383  0.2326  0.1307  0.1395
 2866TIP3   OH2 8561   4.806   3.475   0.705 -0.0420 -0.4011  0.0810
 2866TIP3    H1 8562   4.740   3.527   0.751 -0.5907 -2.3426  1.6086
 2866TIP3    H2 8563   4.885   3.529   0.708 -0.7188  0.5800  1.1010
 2867TIP3   OH2 8564   1.800   3.105   5.690  0.0754 -0.0449  0.3547
 2867TIP3    H1 8565   1.766   3.016   5.681  0.9737 -0.5738  1.8956
 2867TIP3    H2 8566   1.722   3.161   5.687 -0.8692 -1.1420  2.5789
 2868TIP3   OH2 8567   0.464   1.526   4.622  0.3152  0.0981 -0.1433
 2868TIP3    H1 8568   0.536   1.563   4.674  0.0741 -0.8322  0.8793
 2868TIP3    H2 8569   0.496   1.440   4.594 -0.0069  0.1147 -0.5857
 2869TIP3   OH2 8570   5.882   0.193   2.932 -0.1167  0.1109 -0.3853
 2869TIP3    H1 8571   5.792   0.179   2.963  0.6864 -1.9360  1.3516
 2869TIP3    H2 8572   5.873   0.246   2.854 -3.0421 -1.9087 -1.6040
 2870TIP3   OH2 8573   2.523   5.298   2.917  0.1398 -0.7979  0.4592
 2870TIP3    H1 8574   2.491   5.282   2.828 -0.0580  0.3188  0.3125
 2870TIP3    H2 8575   2.451   5.343   2.961  1.6582  2.4447 -0.1036
 2871TIP3   OH2 8576   6.205   0.935   5.546 -0.0741  0.2475 -0.6182
 2871TIP3    H1 8577   6.183   1.028   5.539 -0.1101  0.3430  0.5935
 2871TIP3    H2 8578   6.301   0.933   5.547 -0.0716  0.2557 -0.8420
 2872TIP3   OH2 8579   2.987   0.273   3.920 -0.5101  0.0574 -0.0602
 2872TIP3    H1 8580   2.987   0.353   3.868  2.9687  0.0764 -0.3100
 2872TIP3    H2 8581   2.909   0.225   3.892 -0.6185  1.6143 -2.7327
 2873TIP3   OH2 8582   5.682   2.189   3.123  0.5564  0.1354 -0.2628
 2873TIP3    H1 8583   5.657   2.273   3.084 -0.5858  0.4176  1.0121
 2873TIP3    H2 8584   5.714   2.212   3.210  0.3212 -0.7377  0.0651
 2874TIP3   OH2 8585   3.749   4.756   1.071 -0.4233  0.0901 -0.0630
 2874TIP3    H1 8586   3.682   4.734   1.135  0.1935 -1.9553 -0.0348
 2874TIP3    H2 8587   3.703   4.757   0.987 -0.8169  0.5250  0.1561
 2875TIP3   OH2 8588   0.098   3.793   1.464  0.2962 -0.4349 -0.2326
 2875TIP3    H1 8589   0.126   3.854   1.532  2.1448 -1.3889 -0.0577
 2875TIP3    H2 8590   0.030   3.740   1.506 -1.5763  1.6049 -0.4893
 2876TIP3   OH2 8591   3.841   2.461   2.285 -0.3568  0.4024  0.3583
 2876TIP3    H1 8592   3.895   2.455   2.364 -0.4851 -2.0896  0.3513
 2876TIP3    H2 8593   3.889   2.412   2.219 -1.6683 -0.1782 -0.2110
 2877TIP3   OH2 8594   1.431   2.002   1.036  0.3651  0.3733  0.1390
 2877TIP3    H1 8595   1.364   2.038   0.977  1.8754  0.6918 -1.4453
 2877TIP3    H2 8596   1.383   1.942   1.092 -1.4372  1.4011 -0.2153
 2878TIP3   OH2 8597   5.009   6.274   4.319 -0.0477  0.2589  0.4120
 2878TIP3    H1 8598   4.964   6.254   4.237  0.6340  0.0463  0.0823
 2878TIP3    H2 8599   5.101   6.256   4.301  0.1833  0.7555  1.0533
 2879TIP3   OH2 8600   2.070   4.016   0.307 -0.1133 -0.2952 -0.1592
 2879TIP3    H1 8601   2.042   4.059   0.226  0.6270  0.2667 -0.1296
 2879TIP3    H2 8602   2.156   4.053   0.325 -0.4239 -0.1211  1.0935
 2880TIP3   OH2 8603   0.742   6.066   1.533  0.3739 -0.4111 -0.3033
 2880TIP3    H1 8604   0.664   6.020   1.501 -0.3974  0.2045  0.6178
 2880TIP3    H2 8605   0.730   6.156   1.504 -0.6302  0.3006  2.0646
 2881TIP3   OH2 8606   3.843   1.483   0.088  0.1025  0.7806  0.0302
 2881TIP3    H1 8607   3.860   1.576   0.076  1.7973  0.6183  0.8368
 2881TIP3    H2 8608   3.763   1.479   0.140  0.6585  1.8326  1.0095
 2882TIP3   OH2 8609   2.752   5.682   1.108  0.6702 -0.1098  0.1406
 2882TIP3    H1 8610   2.746   5.756   1.168  0.5021 -1.2028  1.5163
 2882TIP3    H2 8611   2.677   5.692   1.049  0.3135  0.4804  0.6878
 2883TIP3   OH2 8612   0.393   3.984   4.334  0.1993  0.2233  0.1071
 2883TIP3    H1 8613   0.367   3.944   4.417  1.2555 -2.3225 -0.6836
 2883TIP3    H2 8614   0.488   3.993   4.340  0.0447  2.2861  0.0553
 2884TIP3   OH2 8615   0.996   3.795   5.156  0.2531 -0.2341  0.0362
 2884TIP3    H1 8616   0.975   3.707   5.126 -0.2783  0.8113 -3.0251
 2884TIP3    H2 8617   1.072   3.821   5.104 -0.8597  1.8146 -0.6953
 2885TIP3   OH2 8618   2.423   2.706   4.297  0.2427  0.3857 -0.1364
 2885TIP3    H1 8619   2.457   2.626   4.336 -0.7717 -0.6813 -1.3238
 2885TIP3    H2 8620   2.488   2.731   4.231  0.4870  0.4593  0.1317
 2886TIP3   OH2 8621   6.740   5.049   5.542  0.6372 -0.1272  0.0448
 2886TIP3    H1 8622   6.714   4.979   5.483 -0.4938  0.8318 -0.6401
 2886TIP3    H2 8623   6.834   5.036   5.555  0.5548 -1.4191 -0.5115
 2887TIP3   OH2 8624   3.506   4.079   4.190  0.0175  0.6140  0.2894
 2887TIP3    H1 8625   3.601   4.070   4.201 -0.2075  0.7067  2.9071
 2887TIP3    H2 8626   3.495   4.164   4.147  1.1174  0.4496 -0.3488
 2888TIP3   OH2 8627   4.602   0.701   0.436  0.1949 -0.1206 -0.0127
 2888TIP3    H1 8628   4.638   0.633   0.493  1.0545 -0.5318 -1.0142
 2888TIP3    H2 8629   4.536   0.745   0.490  1.0299 -0.4402  1.3126
 2889TIP3   OH2 8630   6.957   6.473   4.198 -1.0076  0.2848  0.6379
 2889TIP3    H1 8631   6.954   6.515   4.284 -1.6946  1.2293  0.1675
 2889TIP3    H2 8632   7.008   6.533   4.143  1.5946 -1.4588  0.9457
 2890TIP3   OH2 8633   5.987   4.695   4.316 -0.3266  0.2386 -0.0475
 2890TIP3    H1 8634   5.978   4.725   4.406 -0.3049 -0.9978  0.3891
 2890TIP3    H2 8635   6.036   4.764   4.272 -2.0222  1.7944  0.3717
 2891TIP3   OH2 8636   1.712   0.450   3.682 -0.3719  0.6035 -0.1107
 2891TIP3    H1 8637   1.776   0.432   3.751 -1.5154  0.5985  0.9915
 2891TIP3    H2 8638   1.733   0.538   3.652 -0.1540  0.7993  0.5920
 2892TIP3   OH2 8639   3.308   2.345   1.143 -0.7231 -0.8317  0.0091
 2892TIP3    H1 8640   3.232   2.372   1.092 -0.2336 -1.0845 -0.8839
 2892TIP3    H2 8641   3.275   2.335   1.232 -1.5633 -0.2108 -0.2167
 2893TIP3   OH2 8642   1.650   0.297   2.362  0.4149 -0.5819  0.0014
 2893TIP3    H1 8643   1.677   0.374   2.311 -0.2545 -1.1854 -1.3116
 2893TIP3    H2 8644   1.576   0.261   2.314 -2.2519  0.4869  2.9742
 2894TIP3   OH2 8645   1.923   3.961   4.622  0.1686 -0.0235  0.1894
 2894TIP3    H1 8646   2.006   3.961   4.669 -0.3248  0.3534  1.0880
 2894TIP3    H2 8647   1.881   4.043   4.647  0.4821  0.8781 -2.0255
 2895TIP3   OH2 8648   3.261   2.583   5.504  0.4632  0.4558  0.1048
 2895TIP3    H1 8649   3.216   2.623   5.430  0.0418 -0.1497  0.0235
 2895TIP3    H2 8650   3.332   2.532   5.465 -0.0463 -0.2440  0.0715
 2896TIP3   OH2 8651   1.723   6.713   5.434  0.1446  0.4553 -0.6028
 2896TIP3    H1 8652   1.713   6.766   5.354 -1.0766  1.1599 -0.0261
 2896TIP3    H2 8653   1.633   6.704   5.467  0.7047  0.8581  1.1077
 2897TIP3   OH2 8654   4.562   6.271   1.737  0.4835  0.2142 -0.0367
 2897TIP3    H1 8655   4.499   6.262   1.666  0.6797  2.9564 -0.6964
 2897TIP3    H2 8656   4.627   6.203   1.721  0.6996  0.9470 -2.7113
 2898TIP3   OH2 8657   3.253   5.161   5.220 -0.5574 -0.6446 -0.3942
 2898TIP3    H1 8658   3.319   5.125   5.161 -1.1535 -2.9347  0.2445
 2898TIP3    H2 8659   3.172   5.159   5.170 -0.8844 -1.7008  0.1472
 2899TIP3   OH2 8660   5.525   6.811   4.144 -0.0264  0.0663  0.6803
 2899TIP3    H1 8661   5.497   6.725   4.114 -0.4809 -0.2115  1.8189
 2899TIP3    H2 8662   5.573   6.793   4.225 -0.6933  0.9255  1.2849
 2900TIP3   OH2 8663   6.877   6.362   5.340 -0.4375  0.4003  0.2812
 2900TIP3    H1 8664   6.783   6.344   5.332 -0.3330  0.0946 -0.3746
 2900TIP3    H2 8665   6.903   6.319   5.421 -0.2549 -2.3407 -1.0862
 2901TIP3   OH2 8666   2.158   3.207  -0.013 -0.3603  0.4350 -0.2497
 2901TIP3    H1 8667   2.226   3.273  -0.001  1.8344 -1.3989 -1.6763
 2901TIP3    H2 8668   2.096   3.223   0.058  1.3462  2.4791  0.8911
 2902TIP3   OH2 8669   5.446   4.099   4.088 -0.1313 -0.3663 -0.3700
 2902TIP3    H1 8670   5.493   4.176   4.055  0.6453 -0.2744  0.8866
 2902TIP3    H2 8671   5.482   4.026   4.038  0.2536 -0.1062 -0.4832
 2903TIP3   OH2 8672   6.400   5.445   3.218  0.4891 -0.2554  0.0115
 2903TIP3    H1 8673   6.469   5.400   3.267  1.5319  1.7912  0.5747
 2903TIP3    H2 8674   6.405   5.408   3.130  1.3021 -1.1895  0.4271
 2904TIP3   OH2 8675   2.476   4.424   4.402 -0.1779  0.3911  0.0076
 2904TIP3    H1 8676   2.555   4.473   4.426 -0.1824  0.6423 -0.4900
 2904TIP3    H2 8677   2.475   4.424   4.307 -0.5902  0.0787  0.0086
 2905TIP3   OH2 8678   3.847   6.216   4.508  0.2662  0.1479 -1.2721
 2905TIP3    H1 8679   3.936   6.218   4.543 -0.4407 -2.6193  1.0776
 2905TIP3    H2 8680   3.812   6.304   4.527  2.0024  0.7766 -0.8357
 2906TIP3   OH2 8681   6.141   1.069   0.185 -0.1229 -0.2296 -0.2272
 2906TIP3    H1 8682   6.048   1.047   0.179  0.1590 -1.1036 -1.7333
 2906TIP3    H2 8683   6.175   1.009   0.251 -0.1305 -1.7366 -1.5543
 2907TIP3   OH2 8684   7.126   0.733   0.671 -0.4258  0.6073  0.3720
 2907TIP3    H1 8685   7.109   0.676   0.746  1.0389  3.5282  3.1487
 2907TIP3    H2 8686   7.045   0.782   0.660 -0.6093  0.2420  0.0484
 2908TIP3   OH2 8687   4.271   6.518   5.409 -0.2256 -0.2930  0.4758
 2908TIP3    H1 8688   4.287   6.604   5.371 -0.5313 -0.2109  0.5239
 2908TIP3    H2 8689   4.342   6.505   5.471  0.2295 -0.3912 -0.0593
 2909TIP3   OH2 8690   5.993   4.751   4.590  0.1942  0.3592 -0.4228
 2909TIP3    H1 8691   6.051   4.698   4.645  0.0496 -1.0033 -1.5132
 2909TIP3    H2 8692   5.982   4.833   4.638 -0.7371 -1.1207  2.0761
 2910TIP3   OH2 8693   1.403   1.453   4.269  0.1928 -0.4368  0.2148
 2910TIP3    H1 8694   1.342   1.418   4.204  0.3095 -0.3177  0.0410
 2910TIP3    H2 8695   1.489   1.421   4.241  0.5379  1.3940 -0.9192
 2911TIP3   OH2 8696   3.251   4.752   3.007 -0.0035  0.2453  0.5870
 2911TIP3    H1 8697   3.247   4.808   2.929  1.9259  0.5606  0.6636
 2911TIP3    H2 8698   3.305   4.801   3.069 -1.2045 -0.1570  2.0292
 2912TIP3   OH2 8699   5.558   2.143   1.740  0.4610 -0.3726  0.1745
 2912TIP3    H1 8700   5.640   2.098   1.721  2.3947  2.9176 -0.1715
 2912TIP3    H2 8701   5.506   2.132   1.660  1.6658 -0.3921 -0.6452
 2913TIP3   OH2 8702   2.784   0.713   0.005  0.3412 -0.2968 -0.2256
 2913TIP3    H1 8703   2.733   0.664   0.070 -0.6821 -0.6303 -1.2463
 2913TIP3    H2 8704   2.758   0.804   0.019 -1.5686 -0.5699 -1.5418
 2914TIP3   OH2 8705   4.555   3.598   4.945  0.5605  0.2776 -0.3960
 2914TIP3    H1 8706   4.478   3.617   4.890 -0.0532 -3.2991 -1.0814
 2914TIP3    H2 8707   4.520   3.543   5.015  2.3871 -1.0827 -0.4953
 2915TIP3   OH2 8708   2.589   5.797   4.056  0.2186 -0.5896  0.3443
 2915TIP3    H1 8709   2.499   5.828   4.067 -0.0918 -1.7117  1.1604
 2915TIP3    H2 8710   2.613   5.826   3.968 -1.2344 -0.9601 -0.2107
 2916TIP3   OH2 8711   5.824   2.114   0.617 -0.0292  0.0006  0.5092
 2916TIP3    H1 8712   5.794   2.026   0.591  0.5461  0.3036 -1.3716
 2916TIP3    H2 8713   5.743   2.162   0.635 -0.7091  0.2648 -2.6440
 2917TIP3   OH2 8714   3.437   1.107   4.269 -0.0891 -0.3957  0.1517
 2917TIP3    H1 8715   3.407   1.161   4.197  0.0398 -0.8243 -0.2330
 2917TIP3    H2 8716   3.527   1.083   4.245  0.3573  0.3649  0.9888
 2918TIP3   OH2 8717   6.972   5.293   0.665  0.2280 -0.1070  0.1704
 2918TIP3    H1 8718   6.953   5.202   0.687 -0.2609 -0.3909 -1.3464
 2918TIP3    H2 8719   7.063   5.305   0.691  0.9040 -1.6099 -1.3235
 2919TIP3   OH2 8720   5.387   1.056   1.715  0.2036 -0.2938 -0.0075
 2919TIP3    H1 8721   5.316   0.992   1.714  0.1762 -0.2594 -0.2062
 2919TIP3    H2 8722   5.372   1.107   1.794  0.8889 -1.2813  0.7969
 2920TIP3   OH2 8723   1.316   5.967   2.217 -0.5594 -0.0783 -0.3018
 2920TIP3    H1 8724   1.357   5.891   2.175 -3.1377 -1.7227 -0.0935
 2920TIP3    H2 8725   1.387   6.009   2.264  1.2986 -1.4553 -1.6818
 2921TIP3   OH2 8726   5.458   0.089   3.177  0.3225 -0.3984  0.3813
 2921TIP3    H1 8727   5.544   0.127   3.195 -0.0311 -0.4856  2.5412
 2921TIP3    H2 8728   5.474   0.024   3.109  1.9224 -0.2089  0.5424
 2922TIP3   OH2 8729   3.656   5.924   2.617 -0.4078  0.2421  0.5753
 2922TIP3    H1 8730   3.685   6.013   2.599  0.2573  0.0732  0.7754
 2922TIP3    H2 8731   3.573   5.915   2.569 -0.5112  0.9824  0.6079
 2923TIP3   OH2 8732   6.926   1.740   4.537  0.2959  0.3963  0.4909
 2923TIP3    H1 8733   6.939   1.828   4.572 -0.6204 -0.1535  2.2851
 2923TIP3    H2 8734   6.961   1.682   4.604 -0.0086 -0.6436 -0.2319
 2924TIP3   OH2 8735   5.845   0.050   3.660 -0.2836  0.1754 -0.3077
 2924TIP3    H1 8736   5.881   0.052   3.571 -3.2883  2.0472 -1.6627
 2924TIP3    H2 8737   5.860   0.139   3.693 -1.5531  0.2966 -0.0336
 2925TIP3   OH2 8738   3.905   6.573   3.729  0.4956  0.2260  0.1770
 2925TIP3    H1 8739   3.878   6.515   3.800  0.6337 -0.7711 -0.5640
 2925TIP3    H2 8740   3.910   6.516   3.652 -2.2427  1.7039 -1.2733
 2926TIP3   OH2 8741   5.680   4.469   5.515  0.1143  0.4455 -0.1321
 2926TIP3    H1 8742   5.594   4.430   5.500 -0.4725  1.4831  0.3902
 2926TIP3    H2 8743   5.706   4.502   5.429  0.4017 -0.6532 -0.4767
 2927TIP3   OH2 8744   6.002   4.731   5.732 -0.2120  0.2772 -0.0139
 2927TIP3    H1 8745   6.083   4.774   5.703 -0.8824  0.1411 -2.2810
 2927TIP3    H2 8746   5.954   4.800   5.778  1.2394  0.3124  1.5166
 2928TIP3   OH2 8747   4.190   4.455   3.001 -0.0795 -0.0890  0.1889
 2928TIP3    H1 8748   4.103   4.416   2.998 -0.8578  1.3566  1.9439
 2928TIP3    H2 8749   4.242   4.394   3.053 -0.5184 -0.1839  0.5284
 2929TIP3   OH2 8750   5.358   2.357   2.239 -0.4062  0.5137 -0.0188
 2929TIP3    H1 8751   5.325   2.326   2.323 -0.6966  0.8834  0.0074
 2929TIP3    H2 8752   5.367   2.452   2.250  0.8693  0.4027  0.0330
 2930TIP3   OH2 8753   4.296   0.290   5.472 -0.4834 -0.1756  0.3431
 2930TIP3    H1 8754   4.375   0.245   5.444 -1.5603 -1.1260 -1.3670
 2930TIP3    H2 8755   4.319   0.383   5.471  0.8015 -0.4753  0.6444
 2931TIP3   OH2 8756   3.401   5.852   4.866 -0.1869  0.4122 -1.0666
 2931TIP3    H1 8757   3.453   5.932   4.874  1.1361 -0.5817  1.1704
 2931TIP3    H2 8758   3.370   5.834   4.954 -1.1132 -1.1472 -1.6583
 2932TIP3   OH2 8759   6.234   0.068   3.710  0.8178 -0.2787  0.1485
 2932TIP3    H1 8760   6.292  -0.004   3.737 -0.7681 -1.3627  0.8811
 2932TIP3    H2 8761   6.283   0.115   3.643  1.7880 -2.2903 -0.6522
 2933TIP3   OH2 8762   2.411   4.991   5.567 -0.1412 -0.6327  0.2955
 2933TIP3    H1 8763   2.491   5.042   5.580  0.7023 -2.2598  1.9355
 2933TIP3    H2 8764   2.405   4.935   5.645 -0.9768 -3.0940 -1.4182
 2934TIP3   OH2 8765   6.686   5.135   0.205 -0.2528  1.0124  0.0123
 2934TIP3    H1 8766   6.773   5.142   0.245  0.1879 -1.3894 -0.3811
 2934TIP3    H2 8767   6.625   5.153   0.277  0.5661  0.0316  0.9893
 2935TIP3   OH2 8768   2.642   1.901   5.375  0.3628  0.2224 -0.0065
 2935TIP3    H1 8769   2.647   1.921   5.281 -0.4169  3.3095  0.4762
 2935TIP3    H2 8770   2.725   1.860   5.396  0.5891 -0.4533 -2.0208
 2936TIP3   OH2 8771   6.089   3.177   1.417 -0.0098  0.4904 -0.2997
 2936TIP3    H1 8772   6.120   3.089   1.438  2.6854  0.8850 -2.0590
 2936TIP3    H2 8773   6.168   3.224   1.389 -1.2986  3.5471  0.6842
 2937TIP3   OH2 8774   5.259   6.627   4.693  0.2101  0.1408  0.3786
 2937TIP3    H1 8775   5.213   6.650   4.612 -2.0449  1.4477  1.9316
 2937TIP3    H2 8776   5.309   6.706   4.714  0.4421 -0.0385  0.5025
 2938TIP3   OH2 8777   5.023   4.297   3.378 -0.2906 -0.5492 -0.7688
 2938TIP3    H1 8778   5.027   4.205   3.406  1.4099 -0.8888 -2.0103
 2938TIP3    H2 8779   5.027   4.347   3.460 -0.8346 -1.5582 -0.1048
 2939TIP3   OH2 8780   5.880   0.615   4.700  0.4257 -0.2922  0.2587
 2939TIP3    H1 8781   5.897   0.650   4.613 -1.3705 -0.8271 -0.3394
 2939TIP3    H2 8782   5.960   0.635   4.750  1.8190 -0.6842 -1.6970
 2940TIP3   OH2 8783   2.305   0.344   4.887 -0.3844  0.1751 -0.0098
 2940TIP3    H1 8784   2.277   0.407   4.954  0.2212 -0.8427  1.2383
 2940TIP3    H2 8785   2.382   0.384   4.848 -0.3546  0.4847  0.3568
 2941TIP3   OH2 8786   2.515   2.629   0.124 -0.0165  0.2528 -0.2981
 2941TIP3    H1 8787   2.562   2.553   0.090 -0.8869 -0.1032 -0.7610
 2941TIP3    H2 8788   2.575   2.669   0.187  0.1722 -1.2857  0.5732
 2942TIP3   OH2 8789   0.104   1.101   2.083  0.4659 -0.0577  0.3066
 2942TIP3    H1 8790   0.100   1.007   2.070 -0.7479 -0.0442  0.3958
 2942TIP3    H2 8791   0.066   1.115   2.170 -0.8885  0.6136 -0.3595
 2943TIP3   OH2 8792   5.355   2.948   0.440  0.6450  0.0267 -0.0975
 2943TIP3    H1 8793   5.291   2.944   0.511  1.2497  1.5593  0.5810
 2943TIP3    H2 8794   5.304   2.970   0.362  0.0569 -1.0819 -0.0450
 2944TIP3   OH2 8795   3.665   3.001   4.523 -0.0906  0.9852  0.1624
 2944TIP3    H1 8796   3.580   3.046   4.521 -0.4446  0.3365 -1.8072
 2944TIP3    H2 8797   3.703   3.017   4.436  0.3999 -1.2708 -0.0996
 2945TIP3   OH2 8798   3.112   4.948   3.344  0.0300 -0.3996  0.3578
 2945TIP3    H1 8799   3.154   4.898   3.414 -0.0972  2.0282  2.3211
 2945TIP3    H2 8800   3.185   4.994   3.301 -0.0783 -0.5071  0.0537
 2946TIP3   OH2 8801   1.611   3.379   5.464 -0.7791  0.7444  0.4105
 2946TIP3    H1 8802   1.621   3.314   5.533 -0.5857  1.1032  0.7295
 2946TIP3    H2 8803   1.693   3.429   5.467 -0.7268  0.7027 -0.1464
 2947TIP3   OH2 8804   2.583   4.900   0.489 -0.0916  0.0834 -0.0719
 2947TIP3    H1 8805   2.497   4.858   0.483 -0.2501  0.1522  1.3752
 2947TIP3    H2 8806   2.577   4.957   0.565  1.3786 -0.2587  0.3394
 2948TIP3   OH2 8807   0.436   5.815   5.046  0.1688 -0.5369  0.2233
 2948TIP3    H1 8808   0.394   5.890   5.089 -1.7645 -3.3842  3.9566
 2948TIP3    H2 8809   0.363   5.762   5.014  1.4064 -1.5613 -1.0075
 2949TIP3   OH2 8810   2.096   6.371   4.712 -0.1730  0.0357 -0.0793
 2949TIP3    H1 8811   2.086   6.385   4.618  2.2398  0.2903 -0.3512
 2949TIP3    H2 8812   2.188   6.346   4.724 -1.0141 -2.6787  1.9284
 2950TIP3   OH2 8813   4.881   5.252   5.173 -0.3404  0.7032 -0.0986
 2950TIP3    H1 8814   4.943   5.187   5.207 -2.0954 -0.3880  1.1529
 2950TIP3    H2 8815   4.825   5.273   5.247 -1.0317  2.2221 -1.0080
 2951TIP3   OH2 8816   1.991   5.109   1.105 -0.3274  0.0974 -0.3278
 2951TIP3    H1 8817   1.937   5.043   1.149 -0.4779  0.3927 -0.0634
 2951TIP3    H2 8818   1.994   5.182   1.166 -0.8459  0.6662 -0.9720
 2952TIP3   OH2 8819   1.125   2.375   1.706 -0.5191  0.0738  0.1168
 2952TIP3    H1 8820   1.128   2.338   1.795 -1.0031  1.3463  0.6833
 2952TIP3    H2 8821   1.054   2.327   1.663 -1.7714  0.9399  1.1393
 2953TIP3   OH2 8822   5.611   0.092   0.727 -0.1478 -0.1520  0.1877
 2953TIP3    H1 8823   5.671   0.097   0.802  2.4328 -1.7035 -1.6065
 2953TIP3    H2 8824   5.659   0.133   0.655 -1.8808 -0.1318 -1.0133
 2954TIP3   OH2 8825   1.577   5.722   5.016 -0.2831  0.4299  0.0290
 2954TIP3    H1 8826   1.573   5.810   4.977 -0.8652  1.5086  2.3659
 2954TIP3    H2 8827   1.486   5.699   5.031 -0.0630  0.2353  1.1128
 2955TIP3   OH2 8828   5.021   0.647   0.599 -0.3607 -0.3514 -0.0199
 2955TIP3    H1 8829   4.981   0.734   0.598  1.1130  0.3797  0.9151
 2955TIP3    H2 8830   5.036   0.626   0.507  0.0342  0.7649 -0.2234
 2956TIP3   OH2 8831   5.152   1.733   5.635  0.3027 -0.1030  0.7759
 2956TIP3    H1 8832   5.122   1.824   5.639  1.1834  0.2951 -0.7708
 2956TIP3    H2 8833   5.245   1.740   5.614  0.2643 -1.3580  0.1157
 2957TIP3   OH2 8834   6.953   0.327   5.656 -0.0886  0.0884  0.0110
 2957TIP3    H1 8835   6.918   0.416   5.657 -1.8511 -0.5687  0.8120
 2957TIP3    H2 8836   6.879   0.272   5.628  0.5610 -1.2740  0.8667
 2958TIP3   OH2 8837   3.832   5.589   2.011 -0.4509 -0.2458  0.0365
 2958TIP3    H1 8838   3.774   5.607   2.084  0.6586 -0.6147  1.0442
 2958TIP3    H2 8839   3.887   5.667   2.004  0.8273 -1.0009  0.9876
 2959TIP3   OH2 8840   2.204   5.944   3.197 -0.0506 -0.2755 -0.5627
 2959TIP3    H1 8841   2.209   5.849   3.197  3.8440 -0.2396 -0.8218
 2959TIP3    H2 8842   2.169   5.967   3.110  2.1905 -1.5233 -1.8838
 2960TIP3   OH2 8843   1.330   6.418   4.311  0.1556 -0.0177  0.2578
 2960TIP3    H1 8844   1.404   6.407   4.371  1.5932 -1.0408 -1.6348
 2960TIP3    H2 8845   1.289   6.500   4.340  1.7841  0.3863  1.5939
 2961TIP3   OH2 8846   1.224   4.116   2.134 -0.6758 -0.5047 -0.6574
 2961TIP3    H1 8847   1.159   4.102   2.065 -1.1063 -0.0257 -0.3552
 2961TIP3    H2 8848   1.266   4.199   2.112  0.1447 -1.0253 -1.0873
 2962TIP3   OH2 8849   4.070   0.973   2.903  0.5572  0.1369 -0.0073
 2962TIP3    H1 8850   4.055   1.016   2.987 -0.0736 -2.0375  1.0738
 2962TIP3    H2 8851   4.009   1.016   2.843 -0.6149  0.2385  1.1955
 2963TIP3   OH2 8852   2.921   6.736   0.005  0.2904 -0.1245 -0.1829
 2963TIP3    H1 8853   2.990   6.782   0.053 -1.3420 -0.4322  2.6544
 2963TIP3    H2 8854   2.866   6.805  -0.032 -1.0739  0.3116  2.4637
 2964TIP3   OH2 8855   6.302   2.631   1.844  0.2891  0.3619  0.6214
 2964TIP3    H1 8856   6.255   2.602   1.922  1.0374 -0.1383  0.8999
 2964TIP3    H2 8857   6.233   2.660   1.784 -0.3359  0.1447  1.2156
 2965TIP3   OH2 8858   2.304   3.265   1.373  0.3271 -0.4376 -0.2875
 2965TIP3    H1 8859   2.358   3.342   1.356  0.7969 -0.6231  0.3081
 2965TIP3    H2 8860   2.216   3.290   1.346  0.5732  0.1344 -0.5606
 2966TIP3   OH2 8861   0.058   2.375   0.355 -0.0877 -0.1235 -0.4430
 2966TIP3    H1 8862  -0.013   2.334   0.306 -2.1543  0.6053  1.7054
 2966TIP3    H2 8863   0.102   2.303   0.399 -0.5378 -0.4567 -0.5327
 2967TIP3   OH2 8864   0.617   6.076   2.517 -0.4470 -0.0619  0.7665
 2967TIP3    H1 8865   0.666   6.141   2.467  0.9224 -0.6898  1.2481
 2967TIP3    H2 8866   0.542   6.055   2.461  1.9504 -2.1198 -1.9962
 2968TIP3   OH2 8867   0.170   1.854   4.230  0.1695 -0.2287 -0.0180
 2968TIP3    H1 8868   0.125   1.849   4.315 -1.1201 -0.8893 -0.7150
 2968TIP3    H2 8869   0.261   1.834   4.250  0.0158  0.2761  1.3058
 2969TIP3   OH2 8870   4.426   0.856   1.512  0.2041  0.4086 -0.2730
 2969TIP3    H1 8871   4.443   0.942   1.551  2.3326  0.2146 -0.6522
 2969TIP3    H2 8872   4.410   0.799   1.587 -0.6126  0.9967  0.0151
 2970TIP3   OH2 8873   4.938   6.820   5.256  1.1092  0.8054 -0.8833
 2970TIP3    H1 8874   4.984   6.762   5.196 -0.8687 -1.3606 -0.4525
 2970TIP3    H2 8875   4.956   6.785   5.343 -1.5718 -0.4311 -0.7259
 2971TIP3   OH2 8876   2.421   3.004   0.724 -0.6490  0.1822 -0.2733
 2971TIP3    H1 8877   2.347   2.946   0.706 -1.0575  0.9478 -1.0844
 2971TIP3    H2 8878   2.453   2.975   0.809  0.6202 -2.8309 -1.5889
 2972TIP3   OH2 8879   1.274   6.109   1.869  0.2177 -0.1606  0.1089
 2972TIP3    H1 8880   1.254   6.121   1.962  0.0855 -1.4036  0.2584
 2972TIP3    H2 8881   1.245   6.190   1.828  1.1347  0.7911  1.2672
 2973TIP3   OH2 8882   4.913   5.620   2.626  0.1203  0.1249  0.0905
 2973TIP3    H1 8883   4.865   5.563   2.687  2.8396 -1.2979  1.0506
 2973TIP3    H2 8884   4.998   5.577   2.615  1.4469  2.8306 -1.0048
 2974TIP3   OH2 8885   4.296   2.719   4.637  0.0880 -0.3593 -0.1126
 2974TIP3    H1 8886   4.333   2.802   4.667  0.3369 -0.2363 -0.7421
 2974TIP3    H2 8887   4.201   2.736   4.632  0.1554 -0.0398 -0.4316
 2975TIP3   OH2 8888   7.138   3.278   4.984  0.1220  0.5544  0.1127
 2975TIP3    H1 8889   7.135   3.231   4.901  0.1153 -0.5450  0.7007
 2975TIP3    H2 8890   7.219   3.328   4.982  0.8691 -0.6202  0.0270
 2976TIP3   OH2 8891   3.476   2.889   3.601 -0.0723  0.6381  0.4437
 2976TIP3    H1 8892   3.489   2.909   3.694 -1.5574  2.9369  0.2340
 2976TIP3    H2 8893   3.434   2.967   3.566  0.2547 -0.2754 -2.1438
 2977TIP3   OH2 8894   2.793   1.148   1.064 -0.5010 -0.2226 -0.1188
 2977TIP3    H1 8895   2.844   1.099   1.129 -0.6254  0.1210  0.2444
 2977TIP3    H2 8896   2.769   1.229   1.109 -0.4598  0.0892 -0.6442
 2978TIP3   OH2 8897   0.881   1.202   2.009  0.3071  0.0263  0.6084
 2978TIP3    H1 8898   0.955   1.178   1.953 -0.7311  1.9635 -1.8238
 2978TIP3    H2 8899   0.920   1.252   2.081  1.4025  2.0714 -1.2651
 2979TIP3   OH2 8900   1.494   0.273   4.918 -0.5661 -0.0275  0.1087
 2979TIP3    H1 8901   1.465   0.201   4.863 -0.0586 -0.7622  0.7830
 2979TIP3    H2 8902   1.578   0.300   4.880  0.0868 -0.9403  0.8590
 2980TIP3   OH2 8903   6.338   2.888   5.212  0.2637 -0.0178 -0.3158
 2980TIP3    H1 8904   6.278   2.822   5.247 -0.3237  0.5162 -0.3064
 2980TIP3    H2 8905   6.425   2.854   5.234 -0.0656 -0.0271  1.1157
 2981TIP3   OH2 8906   4.799   6.743   2.419  1.0460  0.1462 -0.3190
 2981TIP3    H1 8907   4.728   6.686   2.449  1.0523 -0.4797 -1.4451
 2981TIP3    H2 8908   4.756   6.810   2.367  1.3222 -0.7957 -1.8383
 2982TIP3   OH2 8909   0.490   0.667   0.474  0.4063 -0.6387 -0.0168
 2982TIP3    H1 8910   0.465   0.607   0.544  1.1123  0.3509  1.1180
 2982TIP3    H2 8911   0.507   0.750   0.518  0.0418  0.2442 -1.4826
 2983TIP3   OH2 8912   3.517   1.208   0.168  0.1068 -0.4779 -0.0004
 2983TIP3    H1 8913   3.513   1.179   0.260  0.7861  0.9535  0.5075
 2983TIP3    H2 8914   3.548   1.299   0.173  2.0803 -0.9924 -1.7725
 2984TIP3   OH2 8915   1.897   2.779   0.342  0.4474 -0.1596 -0.0073
 2984TIP3    H1 8916   1.960   2.824   0.398  1.0293  1.5348 -1.8918
 2984TIP3    H2 8917   1.952   2.733   0.278 -0.2170 -1.0944  0.0775
 2985TIP3   OH2 8918   4.699   3.817   1.645  0.1267 -0.1568  0.4109
 2985TIP3    H1 8919   4.789   3.820   1.678  0.4069 -0.8043 -0.2882
 2985TIP3    H2 8920   4.700   3.750   1.577 -0.5068  0.9690 -0.7427
 2986TIP3   OH2 8921   5.525   4.715   0.646  0.3262 -0.5324 -0.3116
 2986TIP3    H1 8922   5.595   4.767   0.685  0.6042 -1.1535  0.0307
 2986TIP3    H2 8923   5.499   4.764   0.568 -1.1577  1.4150  1.3200
 2987TIP3   OH2 8924   3.351   2.604   4.017 -0.3625  0.1313 -0.0369
 2987TIP3    H1 8925   3.296   2.681   4.002  0.1676  0.5361  0.0728
 2987TIP3    H2 8926   3.310   2.559   4.091  0.3167  1.2735  1.0827
 2988TIP3   OH2 8927   2.145   6.766   2.084  0.2829 -0.2564 -0.2219
 2988TIP3    H1 8928   2.156   6.861   2.072  0.1861  0.0056  1.4811
 2988TIP3    H2 8929   2.185   6.749   2.169 -2.8408 -1.1289  1.1905
 2989TIP3   OH2 8930   1.845   6.160   2.968  0.5168 -0.5444  0.1492
 2989TIP3    H1 8931   1.801   6.153   2.884 -0.2555  1.3494  0.3453
 2989TIP3    H2 8932   1.849   6.254   2.986 -0.9375 -0.9242  3.0272
 2990TIP3   OH2 8933   0.782   6.079   1.163 -0.1095  0.3391 -0.0458
 2990TIP3    H1 8934   0.714   6.145   1.145  0.8125  1.0319 -1.1957
 2990TIP3    H2 8935   0.777   6.019   1.088  1.3223  1.1093 -0.8088
 2991TIP3   OH2 8936   2.674   6.018   0.917  0.4341  0.5575  0.0179
 2991TIP3    H1 8937   2.764   6.028   0.889  0.6026  0.6329  0.5656
 2991TIP3    H2 8938   2.673   6.050   1.008  0.0340 -0.1875  0.2889
 2992TIP3   OH2 8939   5.199   2.600   3.977  0.0984 -0.3153 -0.0816
 2992TIP3    H1 8940   5.150   2.561   4.050  1.2866  0.7484  1.3416
 2992TIP3    H2 8941   5.136   2.656   3.933 -0.7836 -1.3823 -0.2033
 2993TIP3   OH2 8942   0.899   3.311   3.208 -0.1261  0.3800  0.1234
 2993TIP3    H1 8943   0.830   3.246   3.196  0.4639 -0.2840  0.2791
 2993TIP3    H2 8944   0.866   3.368   3.278 -0.8440  0.5305 -0.3278
 2994TIP3   OH2 8945   3.742   5.223   4.851  0.2167 -0.5350 -0.3655
 2994TIP3    H1 8946   3.820   5.261   4.892 -1.3058  0.0191  2.2524
 2994TIP3    H2 8947   3.691   5.298   4.821  0.1439 -0.8452 -1.0351
 2995TIP3   OH2 8948   5.880   5.185   3.661  0.1602  0.1749  0.2146
 2995TIP3    H1 8949   5.848   5.099   3.688 -0.4972  0.2235 -0.3904
 2995TIP3    H2 8950   5.847   5.246   3.727  0.8191 -0.0530  0.7726
 2996TIP3   OH2 8951   1.900   5.900   0.129  0.4130 -0.6592 -0.4427
 2996TIP3    H1 8952   1.902   5.936   0.040 -0.3656 -2.9912 -1.4642
 2996TIP3    H2 8953   1.972   5.945   0.174  1.4403 -0.0758 -2.5123
 2997TIP3   OH2 8954   6.354   1.757   1.031  0.2336 -0.3390 -0.1027
 2997TIP3    H1 8955   6.260   1.754   1.014  0.0169 -1.3049  1.0615
 2997TIP3    H2 8956   6.378   1.665   1.046  1.6823 -0.3033 -1.8942
 2998TIP3   OH2 8957   1.741   0.922   5.289 -0.4075 -0.3617 -0.7292
 2998TIP3    H1 8958   1.801   0.850   5.307 -0.1651  0.4719  2.3564
 2998TIP3    H2 8959   1.654   0.885   5.302 -0.2772 -0.1323  1.0344
 2999TIP3   OH2 8960   0.290   6.385   4.087  0.4421  0.1343 -0.4085
 2999TIP3    H1 8961   0.224   6.453   4.102  1.2004  1.2485 -1.8481
 2999TIP3    H2 8962   0.281   6.325   4.161 -1.1939  1.0470  0.1710
 3000TIP3   OH2 8963   3.831   1.765   2.127  0.5293 -0.5541  0.7167
 3000TIP3    H1 8964   3.806   1.789   2.216  0.7760  0.8864  0.4288
 3000TIP3    H2 8965   3.887   1.838   2.098  0.1826 -0.8422 -0.7292
 3001TIP3   OH2 8966   4.006   2.383   3.527  0.1790 -0.3997  0.6487
 3001TIP3    H1 8967   4.038   2.463   3.486  1.5367 -0.5977  1.2792
 3001TIP3    H2 8968   3.998   2.405   3.620 -0.4768 -0.6839  0.6629
 3002TIP3   OH2 8969   0.012   2.778   0.623  0.0566  0.5791  0.4772
 3002TIP3    H1 8970   0.062   2.853   0.591 -0.2540  0.2394 -0.8775
 3002TIP3    H2 8971  -0.063   2.817   0.669  1.5782  1.0910  2.6871
 3003TIP3   OH2 8972   1.979   1.370   3.079  0.0244 -0.5865  0.6411
 3003TIP3    H1 8973   1.911   1.303   3.071 -1.0948  0.5965 -0.1894
 3003TIP3    H2 8974   1.945   1.430   3.146  0.2338  0.0445  0.1859
 3004TIP3   OH2 8975   6.664   2.924   3.054 -0.3178  0.0503  0.0037
 3004TIP3    H1 8976   6.574   2.914   3.023  0.9587 -0.7393 -4.0508
 3004TIP3    H2 8977   6.701   2.993   2.998  1.7191  0.0493  1.2472
 3005TIP3   OH2 8978   2.658   5.867   4.441  0.4991  0.0954 -0.0915
 3005TIP3    H1 8979   2.724   5.876   4.509 -0.4383 -0.3135  0.9030
 3005TIP3    H2 8980   2.683   5.930   4.374  0.6059  1.6357  1.3346
 3006TIP3   OH2 8981   2.400   0.136   5.866  0.1954  0.0244  0.2474
 3006TIP3    H1 8982   2.458   0.063   5.843 -1.3611 -0.6391 -1.8808
 3006TIP3    H2 8983   2.375   0.174   5.782 -2.5764  0.1699  1.0342
 3007TIP3   OH2 8984   1.293   2.980   0.863 -0.1301 -0.2027  0.3981
 3007TIP3    H1 8985   1.346   2.905   0.889 -0.5304 -0.8442 -0.5808
 3007TIP3    H2 8986   1.204   2.947   0.860 -0.7060  0.9827  2.4658
 3008TIP3   OH2 8987   2.291   3.877   4.111  0.0020  0.4574  0.5622
 3008TIP3    H1 8988   2.231   3.881   4.185 -0.2453  1.5954  0.3103
 3008TIP3    H2 8989   2.357   3.944   4.129 -0.1361  0.8442 -0.3089
 3009TIP3   OH2 8990   0.754   0.716   4.457 -0.2066  0.0528  0.1592
 3009TIP3    H1 8991   0.738   0.635   4.507 -0.1551 -0.5464 -0.7680
 3009TIP3    H2 8992   0.751   0.688   4.365  2.7839  0.5419 -0.1606
 3010TIP3   OH2 8993   6.533   5.461   0.152 -0.6469 -0.2681  0.5415
 3010TIP3    H1 8994   6.525   5.556   0.142 -2.0214 -0.4002  0.1502
 3010TIP3    H2 8995   6.590   5.450   0.228 -2.0505  0.9174  1.8510
 3011TIP3   OH2 8996   3.698   4.758   4.673  0.3894 -0.1246  0.2006
 3011TIP3    H1 8997   3.765   4.694   4.699 -1.0862 -1.0754  1.8746
 3011TIP3    H2 8998   3.721   4.838   4.719  0.0419 -0.6434  1.3104
 3012TIP3   OH2 8999   4.335   1.631   3.151  0.2919 -0.3444  0.0486
 3012TIP3    H1 9000   4.366   1.658   3.064  0.2382 -0.1012  0.1045
 3012TIP3    H2 9001   4.395   1.672   3.212 -0.3614  0.4537  0.1734
 3013TIP3   OH2 9002   1.670   6.639   3.309 -0.1384 -0.2828 -0.0664
 3013TIP3    H1 9003   1.607   6.611   3.243  0.1814  0.8820 -0.9301
 3013TIP3    H2 9004   1.663   6.735   3.309  1.1154 -0.1684  0.3137
 3014TIP3   OH2 9005   2.283   6.459   1.886 -0.1719 -0.1007 -0.0754
 3014TIP3    H1 9006   2.358   6.502   1.926  0.2138 -0.0218 -0.8574
 3014TIP3    H2 9007   2.308   6.447   1.794 -2.1195  2.3627 -1.0436
 3015TIP3   OH2 9008   1.467   0.194   5.174 -0.2907  0.4522 -0.2084
 3015TIP3    H1 9009   1.489   0.102   5.166 -0.4421  0.4678 -0.8726
 3015TIP3    H2 9010   1.463   0.226   5.084  0.4106  1.2630  0.0207
 3016TIP3   OH2 9011   0.075   0.908   1.708 -0.6796 -0.3170 -0.6295
 3016TIP3    H1 9012   0.111   0.992   1.678  1.4525 -1.0376 -0.2482
 3016TIP3    H2 9013  -0.018   0.914   1.688 -0.4908  1.8957 -1.1757
 3017TIP3   OH2 9014   4.336   2.379   3.864  0.2964 -0.0764 -0.0430
 3017TIP3    H1 9015   4.373   2.331   3.938  1.5239  1.3724  0.3352
 3017TIP3    H2 9016   4.242   2.359   3.867  0.8884 -3.6399 -0.8554
 3018TIP3   OH2 9017   4.254   4.275   2.633 -0.1837  0.1213  0.2061
 3018TIP3    H1 9018   4.304   4.349   2.667 -1.4773 -0.0490  2.6672
 3018TIP3    H2 9019   4.256   4.209   2.703 -1.4335 -1.0297 -0.7713
 3019TIP3   OH2 9020   0.598   2.371   4.343  0.1536  0.2473  0.3753
 3019TIP3    H1 9021   0.561   2.295   4.298  0.3990 -0.4570  1.3381
 3019TIP3    H2 9022   0.616   2.434   4.273 -0.0902 -0.5563 -0.4268
 3020TIP3   OH2 9023   1.795   1.135   2.644  0.0690  0.2305  0.2438
 3020TIP3    H1 9024   1.875   1.161   2.598 -0.9780  0.0356 -1.8000
 3020TIP3    H2 9025   1.814   1.046   2.676  0.2930 -0.3115 -1.2962
 3021TIP3   OH2 9026   1.032   5.758   0.012  0.8799  0.4795 -0.2026
 3021TIP3    H1 9027   1.074   5.825  -0.042  0.8413  1.2024  0.6471
 3021TIP3    H2 9028   1.098   5.736   0.078  1.1593 -0.8506 -0.8866
 3022TIP3   OH2 9029   3.904   4.223   3.772 -0.6613  0.5526  0.0033
 3022TIP3    H1 9030   3.908   4.146   3.716  2.0923  0.0454  0.7507
 3022TIP3    H2 9031   3.892   4.189   3.860 -0.1448  1.0007  0.2584
 3023TIP3   OH2 9032   1.031   2.223   5.324 -0.5769  0.2193 -0.1866
 3023TIP3    H1 9033   1.109   2.239   5.376 -1.1962 -1.5523  1.4162
 3023TIP3    H2 9034   0.992   2.144   5.363 -0.8537 -1.5501 -3.6077
 3024TIP3   OH2 9035   1.451   1.335   1.022 -0.2369  0.0445 -0.5736
 3024TIP3    H1 9036   1.507   1.264   1.052  0.1026  0.1822 -0.8693
 3024TIP3    H2 9037   1.363   1.297   1.020 -0.0124 -0.4608 -1.0311
 3025TIP3   OH2 9038   2.466   2.191   5.551  0.0763  0.1756 -0.1026
 3025TIP3    H1 9039   2.532   2.141   5.598  2.3213  0.5531 -2.5881
 3025TIP3    H2 9040   2.382   2.157   5.581  1.4370 -1.6653  1.7917
 3026TIP3   OH2 9041   0.470   4.205   0.693  0.0951 -0.4350 -0.0829
 3026TIP3    H1 9042   0.551   4.181   0.648  0.6464 -1.3079  1.3083
 3026TIP3    H2 9043   0.406   4.219   0.623  1.3932  0.0985 -1.1953
 3027TIP3   OH2 9044   5.030   0.172   1.859 -0.4559  0.4311 -0.6223
 3027TIP3    H1 9045   4.943   0.151   1.824 -0.2388  1.0374 -1.5447
 3027TIP3    H2 9046   5.091   0.146   1.791  0.1171 -0.1311  0.0847
 3028TIP3   OH2 9047   3.609   6.394   2.690  0.6580  0.4878  0.6497
 3028TIP3    H1 9048   3.586   6.462   2.753  0.5819 -1.7728  3.2696
 3028TIP3    H2 9049   3.702   6.378   2.705  0.5954 -0.2071  0.3569
 3029TIP3   OH2 9050   1.075   0.404   2.384 -0.3351 -0.0498  0.0783
 3029TIP3    H1 9051   1.037   0.320   2.408  0.9772 -0.3738  1.1827
 3029TIP3    H2 9052   1.115   0.389   2.299 -1.3569 -0.1148 -0.4059
 3030TIP3   OH2 9053   4.605   5.803   3.711 -0.3990 -0.2781 -0.1705
 3030TIP3    H1 9054   4.588   5.812   3.617  0.4263  1.6431 -0.1939
 3030TIP3    H2 9055   4.570   5.883   3.749 -0.2821 -0.8162  1.1112
 3031TIP3   OH2 9056   4.873   4.421   1.611  0.2655  0.5945 -0.1761
 3031TIP3    H1 9057   4.928   4.495   1.638 -0.9104  1.4896 -0.1898
 3031TIP3    H2 9058   4.856   4.436   1.518  2.6630 -1.4321 -1.0689
 3032TIP3   OH2 9059   4.975   4.497   2.767  0.2686 -0.0118  0.1333
 3032TIP3    H1 9060   5.047   4.558   2.753 -0.8761  1.2536 -0.5105
 3032TIP3    H2 9061   4.990   4.462   2.855 -0.0161  2.6294  1.3304
 3033TIP3   OH2 9062   1.530   4.009   0.478 -0.0176 -0.2396 -0.3851
 3033TIP3    H1 9063   1.552   3.961   0.558 -0.3423  1.2816  0.6547
 3033TIP3    H2 9064   1.602   3.990   0.418  0.0855 -1.6416  0.1572
 3034TIP3   OH2 9065   0.006   6.649   4.910 -0.1682 -1.0243 -0.3210
 3034TIP3    H1 9066   0.097   6.677   4.906 -0.4082 -0.0121  0.7008
 3034TIP3    H2 9067   0.008   6.561   4.947  0.2698 -0.0247  2.2022
 3035TIP3   OH2 9068   3.203   0.541   5.813  0.3325  0.1344  0.0467
 3035TIP3    H1 9069   3.196   0.534   5.718 -0.2115  0.7521  0.0318
 3035TIP3    H2 9070   3.163   0.460   5.846  1.3286 -0.4975 -0.2586
 3036TIP3   OH2 9071   4.855   6.030   2.377  0.1499  0.4588 -0.5174
 3036TIP3    H1 9072   4.939   6.066   2.346  1.2539 -0.8578  0.7926
 3036TIP3    H2 9073   4.807   6.107   2.408  0.9918  1.2046 -0.9826
 3037TIP3   OH2 9074   6.137   3.691   0.302 -0.2222  0.0342 -0.5153
 3037TIP3    H1 9075   6.207   3.655   0.248  2.1927  0.7805  1.9245
 3037TIP3    H2 9076   6.126   3.628   0.373 -2.3637 -0.2553 -1.0382
 3038TIP3   OH2 9077   4.638   0.938   3.044  0.3519 -0.1228 -0.3028
 3038TIP3    H1 9078   4.550   0.924   3.008 -0.1248 -0.4790  0.9717
 3038TIP3    H2 9079   4.646   1.033   3.053 -0.4034 -0.1501  0.7806
 3039TIP3   OH2 9080   5.978   2.663   1.004  0.2742 -0.2035 -0.0035
 3039TIP3    H1 9081   5.990   2.757   0.991  1.5925 -0.0194  2.1143
 3039TIP3    H2 9082   6.042   2.622   0.945  0.4955  0.2600 -0.0899
 3040TIP3   OH2 9083   3.947   0.109   0.573  0.7981 -0.6482 -0.4999
 3040TIP3    H1 9084   4.041   0.113   0.591  0.5024  0.3715  1.0019
 3040TIP3    H2 9085   3.906   0.153   0.647 -0.7703  0.7670 -2.1047
 3041TIP3   OH2 9086   1.210   6.388   1.293  0.4262  0.0338  0.3045
 3041TIP3    H1 9087   1.292   6.358   1.331  0.1825 -0.7618  0.2132
 3041TIP3    H2 9088   1.199   6.336   1.213 -0.5668 -0.4551  0.7407
 3042TIP3   OH2 9089   1.970   1.558   1.635  0.3468  0.5568  0.7056
 3042TIP3    H1 9090   1.990   1.506   1.557 -0.6250  0.8823  0.2290
 3042TIP3    H2 9091   1.878   1.583   1.625  0.0336  0.1068  2.2610
 3043TIP3   OH2 9092   5.230   6.771   2.445  0.4983 -0.2118 -0.1363
 3043TIP3    H1 9093   5.288   6.839   2.482  1.5126 -1.1633  0.0850
 3043TIP3    H2 9094   5.289   6.715   2.394 -0.4222 -0.5933 -0.7927
 3044TIP3   OH2 9095   1.933   4.463   3.769 -0.1285 -0.1815 -0.4688
 3044TIP3    H1 9096   2.028   4.462   3.780 -0.1586  0.9886  0.1190
 3044TIP3    H2 9097   1.909   4.371   3.757  1.0233 -0.5446 -0.1268
 3045TIP3   OH2 9098   3.651   1.062   5.740  0.1129  0.3363 -0.7013
 3045TIP3    H1 9099   3.649   0.967   5.729 -0.6928 -0.0077  1.8099
 3045TIP3    H2 9100   3.591   1.096   5.674 -1.0996 -1.0619 -0.3489
 3046TIP3   OH2 9101   3.678   3.408   4.802  0.4393  0.5298 -0.3302
 3046TIP3    H1 9102   3.654   3.501   4.798  0.2863  0.5354  0.5992
 3046TIP3    H2 9103   3.600   3.362   4.769 -0.8834  0.5569  2.4783
 3047TIP3   OH2 9104   1.447   2.104   2.468  0.1359  0.0992  0.6861
 3047TIP3    H1 9105   1.403   2.053   2.535 -0.6285 -0.7207 -0.4021
 3047TIP3    H2 9106   1.474   2.185   2.513 -0.3918 -0.4016  1.9445
 3048TIP3   OH2 9107   3.193   6.471   1.598  0.1752  0.2216  0.1531
 3048TIP3    H1 9108   3.232   6.436   1.678 -0.1384 -0.7123 -0.0878
 3048TIP3    H2 9109   3.199   6.399   1.535 -3.4515 -0.6412  0.5809
 3049TIP3   OH2 9110   3.474   2.682   5.095  0.3814  0.0823 -0.0859
 3049TIP3    H1 9111   3.502   2.619   5.029  1.2933  0.3169  0.0714
 3049TIP3    H2 9112   3.521   2.763   5.073  0.5451  0.2165  0.7352
 3050TIP3   OH2 9113   1.016   4.025   2.690  0.3235 -0.4575  0.3390
 3050TIP3    H1 9114   1.075   3.980   2.750  1.7212 -0.3154 -0.8549
 3050TIP3    H2 9115   0.994   3.958   2.624 -0.7441 -0.4612  0.6845
 3051TIP3   OH2 9116   3.399   5.699   3.937 -0.3201  0.0586  0.0304
 3051TIP3    H1 9117   3.473   5.642   3.914 -0.6700 -0.9119  1.2301
 3051TIP3    H2 9118   3.398   5.701   4.033 -0.0665  2.4537  0.0658
 3052TIP3   OH2 9119   2.501   6.368   5.376 -0.2273  0.0323  0.1542
 3052TIP3    H1 9120   2.591   6.337   5.378 -0.0397  0.5145 -0.5271
 3052TIP3    H2 9121   2.451   6.293   5.343  0.0647  0.0719 -0.3961
 3053TIP3   OH2 9122   3.415   1.310   1.752  0.5551  0.2587  0.4574
 3053TIP3    H1 9123   3.496   1.285   1.708 -0.7524 -2.0418 -0.8458
 3053TIP3    H2 9124   3.375   1.227   1.778 -2.3442  1.1028 -0.8259
 3054TIP3   OH2 9125   4.346   0.587   5.473 -0.2851 -0.7520 -0.2825
 3054TIP3    H1 9126   4.290   0.596   5.550  1.0577 -0.5654  0.7058
 3054TIP3    H2 9127   4.382   0.675   5.459  0.6766 -1.1229 -0.1779
 3055TIP3   OH2 9128   1.679   6.700   1.916  0.8247  0.1015 -0.1816
 3055TIP3    H1 9129   1.747   6.637   1.894  2.5511  0.9219  2.3499
 3055TIP3    H2 9130   1.718   6.756   1.983 -2.3720  0.5885  1.5043
 3056TIP3   OH2 9131   2.734   1.376   1.192  0.4996 -0.2270  0.4195
 3056TIP3    H1 9132   2.772   1.459   1.163  0.9246 -0.4174  0.4327
 3056TIP3    H2 9133   2.643   1.398   1.214  0.4312  0.1044 -0.1795
 3057TIP3   OH2 9134   2.038   3.035   0.731  0.2244  0.3145  0.2226
 3057TIP3    H1 9135   2.014   3.099   0.798 -0.2438 -1.1424  1.4964
 3057TIP3    H2 9136   2.043   2.952   0.778  0.4776 -0.6540 -1.4536
 3058TIP3   OH2 9137   6.290   2.571   0.555 -0.2844  0.0985  0.2741
 3058TIP3    H1 9138   6.330   2.655   0.578  0.0550 -0.3120  1.2247
 3058TIP3    H2 9139   6.282   2.574   0.459  0.7488  0.7555  0.1914
 3059TIP3   OH2 9140   1.514   6.502   2.382 -0.3926 -0.6543  0.1322
 3059TIP3    H1 9141   1.604   6.468   2.387  0.1657  0.1997 -2.5924
 3059TIP3    H2 9142   1.469   6.441   2.324 -0.9204  0.1686 -0.3415
 3060TIP3   OH2 9143   4.639   5.587   0.233  0.0498  0.1795  0.4307
 3060TIP3    H1 9144   4.662   5.503   0.195 -1.7631 -0.5355  0.7939
 3060TIP3    H2 9145   4.616   5.568   0.324 -0.8466  0.9606  0.3935
 3061TIP3   OH2 9146   1.486   2.915   5.053 -0.0929 -1.1219  1.1620
 3061TIP3    H1 9147   1.481   2.834   5.002  1.0018 -0.4141 -0.1383
 3061TIP3    H2 9148   1.488   2.985   4.988 -0.0075 -0.0964  2.2177
 3062TIP3   OH2 9149   1.951   0.671   5.286 -0.2280 -0.1396 -0.7440
 3062TIP3    H1 9150   2.039   0.678   5.323 -0.6004  1.5864 -0.0762
 3062TIP3    H2 9151   1.963   0.623   5.204  1.4517  0.5999 -0.9761
 3063TIP3   OH2 9152   5.636   5.759   1.623 -0.2089 -0.2824  0.5747
 3063TIP3    H1 9153   5.691   5.810   1.683  1.3216 -1.1036 -0.0750
 3063TIP3    H2 9154   5.565   5.818   1.600  0.0063  0.5843  1.9951
 3064TIP3   OH2 9155   2.259   1.860   1.183 -0.1839  0.6492 -0.1226
 3064TIP3    H1 9156   2.189   1.923   1.165 -0.1861  0.7721  0.3047
 3064TIP3    H2 9157   2.340   1.908   1.163 -0.1320  1.1553  1.2265
 3065TIP3   OH2 9158   2.084   3.884   3.910  0.3935 -0.4233  0.0420
 3065TIP3    H1 9159   2.166   3.910   3.952  0.0101  0.8975  0.0118
 3065TIP3    H2 9160   2.103   3.887   3.816 -0.7092  3.9460 -0.2381
 3066TIP3   OH2 9161   7.201   5.446   1.317 -0.1720  0.0355 -0.0466
 3066TIP3    H1 9162   7.240   5.376   1.265  1.0901  0.6194  0.0822
 3066TIP3    H2 9163   7.121   5.469   1.269  0.6091  0.0995 -1.3701
 3067TIP3   OH2 9164   2.609   5.093   4.651 -0.1758  0.1775  0.0606
 3067TIP3    H1 9165   2.646   5.165   4.702 -0.7158  0.7809 -0.3700
 3067TIP3    H2 9166   2.537   5.060   4.705 -1.6986  1.7754 -0.8832
 3068TIP3   OH2 9167   1.566   6.021   3.348  0.3160 -0.2962  0.0097
 3068TIP3    H1 9168   1.531   5.932   3.349  2.3846 -1.1718  0.6309
 3068TIP3    H2 9169   1.654   6.012   3.312 -0.1885  1.8655 -1.9851
 3069TIP3   OH2 9170   6.051   3.932   4.660 -0.7374 -0.2234  0.4258
 3069TIP3    H1 9171   6.074   4.014   4.616 -2.1746  1.0487  1.9085
 3069TIP3    H2 9172   5.972   3.902   4.615 -0.4305 -0.5990  0.1340
 3070TIP3   OH2 9173   6.619   1.000   5.285 -0.2757  0.0523  0.6825
 3070TIP3    H1 9174   6.655   1.033   5.367 -0.0775  0.9002  0.2693
 3070TIP3    H2 9175   6.624   0.905   5.292  0.9698  0.1383  1.1058
 3071TIP3   OH2 9176   7.229   3.661   1.991 -0.0180 -0.0118 -0.1087
 3071TIP3    H1 9177   7.164   3.592   1.978 -0.8259  0.6041  0.5518
 3071TIP3    H2 9178   7.215   3.721   1.918  0.9790 -0.7369 -0.9336
 3072TIP3   OH2 9179   3.696   5.120   2.011 -0.2016  0.1107 -0.6365
 3072TIP3    H1 9180   3.783   5.119   1.971  0.1367  1.4524  0.0146
 3072TIP3    H2 9181   3.674   5.027   2.024  1.8071 -0.2480  0.6144
 3073TIP3   OH2 9182   5.216   1.356   4.466  0.0933  0.0516 -0.5483
 3073TIP3    H1 9183   5.234   1.341   4.558  0.1769 -0.4143 -0.6398
 3073TIP3    H2 9184   5.259   1.439   4.446  0.2225  0.0638 -0.2148
 3074TIP3   OH2 9185   4.613   2.382   3.167  0.4134  0.3413 -0.2777
 3074TIP3    H1 9186   4.592   2.307   3.111 -0.2871 -0.0573  0.4999
 3074TIP3    H2 9187   4.536   2.438   3.163  1.1022  1.2474 -1.1925
 3075TIP3   OH2 9188   5.918   1.960   3.339 -0.2674  0.0026 -0.2540
 3075TIP3    H1 9189   5.922   1.886   3.278 -1.9748 -1.3625  1.1824
 3075TIP3    H2 9190   5.827   1.962   3.368 -0.1628  2.4243  0.1259
 3076TIP3   OH2 9191   0.691   5.012   2.957 -0.0027  0.3239  0.7829
 3076TIP3    H1 9192   0.632   5.078   2.921 -0.9820 -0.9815 -0.1373
 3076TIP3    H2 9193   0.679   5.019   3.052 -0.5632  1.0426  0.6716
 3077TIP3   OH2 9194   0.390   4.116   0.165  0.9247 -0.8587  0.4248
 3077TIP3    H1 9195   0.351   4.030   0.147 -0.3244 -0.7299  2.2343
 3077TIP3    H2 9196   0.422   4.108   0.255  0.6880  0.6142  0.6513
 3078TIP3   OH2 9197   5.563   4.864   5.778  0.2447 -1.0505  0.0393
 3078TIP3    H1 9198   5.467   4.857   5.772  0.0041  0.5629  1.4970
 3078TIP3    H2 9199   5.593   4.774   5.769 -1.4005 -1.5936 -0.5002
 3079TIP3   OH2 9200   2.709   5.843   2.440 -0.1083 -0.4241  0.2967
 3079TIP3    H1 9201   2.696   5.756   2.477  0.5958 -0.7952 -0.2985
 3079TIP3    H2 9202   2.659   5.843   2.359 -2.0051  0.5380  1.4041
 3080TIP3   OH2 9203   5.726   6.684   0.672 -1.1347  0.6374  0.2743
 3080TIP3    H1 9204   5.643   6.712   0.633 -1.4115  0.0766  0.4466
 3080TIP3    H2 9205   5.773   6.765   0.689 -0.8746  0.9107 -1.5104
 3081TIP3   OH2 9206   2.347   2.184   0.562 -0.0604  0.2842  0.4353
 3081TIP3    H1 9207   2.411   2.119   0.532  0.9684  0.8543  1.3409
 3081TIP3    H2 9208   2.363   2.261   0.508 -0.2364  0.3080  0.4159
 3082TIP3   OH2 9209   5.469   6.393   5.474 -0.0115 -0.0429  0.3257
 3082TIP3    H1 9210   5.503   6.384   5.563 -0.8049  0.0969  0.6475
 3082TIP3    H2 9211   5.374   6.384   5.483 -0.1554  0.5754 -0.4195
 3083TIP3   OH2 9212   6.302   5.967   2.397  0.1442  0.1759  0.6491
 3083TIP3    H1 9213   6.368   5.907   2.363  1.3574  0.8777  1.6594
 3083TIP3    H2 9214   6.280   5.933   2.483 -1.2967 -0.3834  0.0918
 3084TIP3   OH2 9215   1.805   6.442   0.859 -0.2186  0.0693 -0.1998
 3084TIP3    H1 9216   1.724   6.443   0.807  0.4749 -1.4334 -1.3795
 3084TIP3    H2 9217   1.808   6.355   0.898  0.4443  0.3875  0.4913
 3085TIP3   OH2 9218   3.494   4.352   1.093  0.1050  0.2176  0.4978
 3085TIP3    H1 9219   3.434   4.287   1.055  1.8529 -0.8180 -0.6793
 3085TIP3    H2 9220   3.468   4.357   1.185 -2.8521  1.1315 -0.2619
 3086TIP3   OH2 9221   5.181  -0.010   1.186  0.7056  0.1621  0.0427
 3086TIP3    H1 9222   5.269  -0.013   1.223  0.5835 -2.5604  0.3172
 3086TIP3    H2 9223   5.191   0.040   1.105  1.7878  2.6669  1.5720
 3087TIP3   OH2 9224   6.224   5.183   5.612 -0.2077  0.0819  0.4017
 3087TIP3    H1 9225   6.176   5.100   5.611 -1.0645  0.5121  2.0943
 3087TIP3    H2 9226   6.316   5.158   5.604 -0.3351 -1.1957  2.2554
 3088TIP3   OH2 9227   2.410   4.175   3.746  0.1460 -0.2957  0.1125
 3088TIP3    H1 9228   2.408   4.216   3.832  2.0519  0.1167  0.0099
 3088TIP3    H2 9229   2.361   4.236   3.690 -0.5053 -0.2195  0.7466
 3089TIP3   OH2 9230   1.305   4.485   5.766 -0.2371  0.3244 -0.4569
 3089TIP3    H1 9231   1.295   4.462   5.859  0.8674  0.3503 -0.3208
 3089TIP3    H2 9232   1.317   4.580   5.766 -0.8678  0.4066 -0.6864
 3090TIP3   OH2 9233   0.848   2.925   3.105 -0.8127 -0.3240 -0.3537
 3090TIP3    H1 9234   0.902   2.961   3.176  1.2391 -0.3785 -1.8112
 3090TIP3    H2 9235   0.795   2.999   3.075  0.3358  0.4442 -0.5666
 3091TIP3   OH2 9236   2.213   0.082   3.722 -0.6703 -0.7231  0.2997
 3091TIP3    H1 9237   2.232   0.147   3.655  1.9457 -1.1698  0.5248
 3091TIP3    H2 9238   2.298   0.059   3.759 -1.9451 -0.7971  3.5191
 3092TIP3   OH2 9239   0.223   0.142   2.304 -0.2860  0.1293  0.1155
 3092TIP3    H1 9240   0.165   0.082   2.257  0.8897 -0.1674 -1.0146
 3092TIP3    H2 9241   0.283   0.084   2.351  1.0242  0.3726 -1.1957
 3093TIP3   OH2 9242   4.776   5.541   1.126 -0.2230 -0.0516 -0.1861
 3093TIP3    H1 9243   4.712   5.503   1.066 -0.0767  0.3325 -0.5947
 3093TIP3    H2 9244   4.726   5.561   1.205 -1.1754  2.3236 -1.2842
 3094TIP3   OH2 9245   3.405   5.285   0.827 -0.4374 -0.4823 -0.4771
 3094TIP3    H1 9246   3.422   5.244   0.912  0.4951 -0.0460 -0.4483
 3094TIP3    H2 9247   3.481   5.341   0.811  0.2022 -1.8239 -2.3878
 3095TIP3   OH2 9248   3.484   4.917   1.025  0.1658  0.6275 -0.2481
 3095TIP3    H1 9249   3.414   4.858   1.052  0.0107  0.8166 -0.2303
 3095TIP3    H2 9250   3.488   4.982   1.096 -0.8357  1.6423 -1.0742
 3096TIP3   OH2 9251   3.828   1.771   3.487  0.1554  0.9261  0.4310
 3096TIP3    H1 9252   3.911   1.813   3.466  0.0623  1.3672  0.9342
 3096TIP3    H2 9253   3.767   1.844   3.501 -0.3210  0.6096  0.0657
 3097TIP3   OH2 9254   1.192   5.240   5.489 -0.3337 -0.1276 -0.0409
 3097TIP3    H1 9255   1.126   5.268   5.553 -0.5624  1.0692 -0.7587
 3097TIP3    H2 9256   1.271   5.287   5.513  0.5023 -2.0341  1.1940
 3098TIP3   OH2 9257   1.503   3.910   1.093  0.1560 -0.3078  0.1756
 3098TIP3    H1 9258   1.585   3.902   1.046  0.4839  0.8698  0.5170
 3098TIP3    H2 9259   1.435   3.896   1.027  0.6202 -0.7171 -0.2172
 3099TIP3   OH2 9260   6.114   3.023   3.596 -0.2941  0.8047  0.2811
 3099TIP3    H1 9261   6.094   3.107   3.556  0.4152  0.9686  0.2566
 3099TIP3    H2 9262   6.085   2.958   3.532  0.6938  1.0609 -0.4611
 3100TIP3   OH2 9263   1.613   3.304   5.736  0.0699 -0.5840  0.1074
 3100TIP3    H1 9264   1.522   3.327   5.751  0.0424 -0.4798 -0.2058
 3100TIP3    H2 9265   1.662   3.354   5.802 -0.0718 -0.3823  0.0596
 3101TIP3   OH2 9266   3.538   5.188   1.077 -0.0010 -0.2926  0.5972
 3101TIP3    H1 9267   3.614   5.154   1.124 -0.6341 -1.1863  1.0119
 3101TIP3    H2 9268   3.550   5.283   1.078  0.6943 -0.3731  1.3821
 3102TIP3   OH2 9269   6.617   1.292   3.751 -0.3446 -0.1085  0.2654
 3102TIP3    H1 9270   6.525   1.267   3.748 -0.7904  1.2749 -3.2240
 3102TIP3    H2 9271   6.618   1.376   3.797 -0.9732  0.2143 -0.2911
 3103TIP3   OH2 9272   6.028   5.982   5.033 -0.2597  0.1803 -0.1967
 3103TIP3    H1 9273   6.106   5.982   4.977 -0.8440  1.2072 -1.0381
 3103TIP3    H2 9274   5.960   5.941   4.979 -0.3912 -0.4255  0.4186
 3104TIP3   OH2 9275   4.390   4.667   4.681  0.2971  0.0893  0.0360
 3104TIP3    H1 9276   4.442   4.593   4.652  0.7386  0.0683  0.8395
 3104TIP3    H2 9277   4.452   4.740   4.687 -0.6181  1.3671 -3.5292
 3105TIP3   OH2 9278   1.120   5.877   1.471 -0.4881 -0.0687  0.2996
 3105TIP3    H1 9279   1.061   5.803   1.484 -0.7289 -0.4003 -2.1179
 3105TIP3    H2 9280   1.072   5.935   1.411  1.5049 -0.2593 -1.5833
 3106TIP3   OH2 9281   0.604   3.822   5.005  0.1270  0.3384 -0.9667
 3106TIP3    H1 9282   0.633   3.810   5.095  1.4326 -0.6726 -1.4903
 3106TIP3    H2 9283   0.658   3.762   4.954 -0.8290  0.6336 -2.3889
 3107TIP3   OH2 9284   2.832   3.485   5.444  0.3974 -0.2709 -0.5854
 3107TIP3    H1 9285   2.774   3.525   5.509 -0.2752 -2.2458  0.1328
 3107TIP3    H2 9286   2.852   3.555   5.382  1.0260  1.6783  1.6949
 3108TIP3   OH2 9287   5.246   2.152   4.453 -0.1075 -0.3203 -0.1599
 3108TIP3    H1 9288   5.174   2.166   4.515 -1.3575 -0.1878 -1.5800
 3108TIP3    H2 9289   5.315   2.211   4.483 -0.9174  0.1992  0.7400
 3109TIP3   OH2 9290   0.322   1.909   2.077  0.0553  0.0221 -0.3220
 3109TIP3    H1 9291   0.304   1.980   2.139 -1.8477 -0.3693 -0.3652
 3109TIP3    H2 9292   0.401   1.867   2.112 -1.6718 -1.0505  2.7072
 3110TIP3   OH2 9293   2.407   3.608   3.030  0.1902 -0.5663 -0.0786
 3110TIP3    H1 9294   2.420   3.582   2.939 -1.0727  2.3281 -1.1601
 3110TIP3    H2 9295   2.496   3.618   3.064  0.6742 -1.5714 -0.9720
 3111TIP3   OH2 9296   4.721   2.321   0.806  0.4611 -0.2673  0.0654
 3111TIP3    H1 9297   4.761   2.250   0.856  1.8004  1.0766  1.0128
 3111TIP3    H2 9298   4.632   2.326   0.839  0.6081 -0.9525  0.6047
 3112TIP3   OH2 9299   6.687   0.079   3.250  0.5615 -0.1327 -0.0456
 3112TIP3    H1 9300   6.765   0.055   3.200  1.5166 -1.4320  1.9366
 3112TIP3    H2 9301   6.702   0.042   3.337 -1.6112  0.8894  0.8370
 3113TIP3   OH2 9302   5.234   4.958   1.825 -0.3226 -0.3203  0.2430
 3113TIP3    H1 9303   5.284   4.963   1.744 -0.6908 -1.2267 -0.0469
 3113TIP3    H2 9304   5.238   4.866   1.851 -1.4186 -0.3201  0.4755
 3114TIP3   OH2 9305   2.157   4.211   4.599  0.5578 -0.1285  0.1258
 3114TIP3    H1 9306   2.170   4.286   4.658  1.9351  0.5020 -0.9415
 3114TIP3    H2 9307   2.140   4.250   4.513 -1.1308 -1.0440 -0.0107
 3115TIP3   OH2 9308   2.059   0.934   0.264 -0.6340  0.6155 -0.5819
 3115TIP3    H1 9309   2.131   0.972   0.215 -1.8195  1.6984 -1.5435
 3115TIP3    H2 9310   2.059   0.981   0.348  0.3649 -0.0787 -0.1799
 3116TIP3   OH2 9311   2.973   0.084   3.485 -0.1691 -0.1368 -0.4564
 3116TIP3    H1 9312   3.027   0.155   3.521 -1.2786 -0.2894  1.6562
 3116TIP3    H2 9313   2.899   0.128   3.445  1.0549  0.0325 -2.6826
 3117TIP3   OH2 9314   2.532   0.864   2.340 -0.2466 -0.0983  0.0141
 3117TIP3    H1 9315   2.574   0.949   2.330 -0.8930  0.2536  0.2051
 3117TIP3    H2 9316   2.543   0.842   2.433  1.7451 -1.2197 -0.4292
 3118TIP3   OH2 9317   3.117   3.958   2.985  0.0933  0.0431 -1.0594
 3118TIP3    H1 9318   3.106   3.863   2.987  0.6641 -0.0558  1.4799
 3118TIP3    H2 9319   3.152   3.977   2.898  0.0371 -2.0842 -1.5873
 3119TIP3   OH2 9320   2.497   5.864   4.726 -0.1432 -0.1547  0.4753
 3119TIP3    H1 9321   2.579   5.843   4.681  0.7029 -0.5469  2.1141
 3119TIP3    H2 9322   2.431   5.809   4.683  0.8986 -1.5930  0.6374
 3120TIP3   OH2 9323   4.657   3.699   2.384 -0.3042 -0.2196  0.8766
 3120TIP3    H1 9324   4.641   3.716   2.291 -0.6319  1.3005  1.1797
 3120TIP3    H2 9325   4.720   3.627   2.384 -0.1784 -0.1482 -0.5260
 3121TIP3   OH2 9326   7.032   2.373   0.671  0.2087 -0.6399 -0.4718
 3121TIP3    H1 9327   7.043   2.376   0.576 -0.0774  0.6109 -0.4959
 3121TIP3    H2 9328   7.069   2.290   0.698 -1.6678 -2.0392 -1.9311
 3122TIP3   OH2 9329   5.052   5.466   4.409  0.4416  0.1685  0.2825
 3122TIP3    H1 9330   4.997   5.414   4.350  1.2055 -0.8555  0.4322
 3122TIP3    H2 9331   5.009   5.551   4.414 -0.9053 -0.4666  0.0818
 3123TIP3   OH2 9332   3.731   3.615   5.731  0.1805 -0.5785  0.3923
 3123TIP3    H1 9333   3.767   3.700   5.703 -0.6444  0.0974  1.3036
 3123TIP3    H2 9334   3.761   3.553   5.665 -0.4044  0.6822 -1.1064
 3124TIP3   OH2 9335   2.314   2.974   2.355  0.6126  0.3347  0.0971
 3124TIP3    H1 9336   2.224   3.001   2.333  0.4745  1.7577  2.0778
 3124TIP3    H2 9337   2.323   2.887   2.315 -1.9565 -0.2300  0.5081
 3125TIP3   OH2 9338   4.046   6.714   1.944 -0.1671 -0.2285  0.1945
 3125TIP3    H1 9339   4.057   6.692   2.036 -0.9916  0.6480  0.5296
 3125TIP3    H2 9340   4.121   6.674   1.900 -1.1516 -2.9796  0.8266
 3126TIP3   OH2 9341   6.004   2.583   0.158  0.1867  0.2916 -0.5039
 3126TIP3    H1 9342   5.912   2.600   0.181  0.3307 -1.5703  1.9251
 3126TIP3    H2 9343   6.000   2.535   0.076 -0.9838  0.6183 -0.6535
 3127TIP3   OH2 9344   6.036   1.010   0.637  0.2472  0.8515  0.2545
 3127TIP3    H1 9345   5.998   1.064   0.706  1.2002  0.9352  0.7265
 3127TIP3    H2 9346   5.968   1.007   0.569 -1.5054 -0.7735  1.9480
 3128TIP3   OH2 9347   5.986   6.579   2.831 -0.3441  0.0290 -0.0324
 3128TIP3    H1 9348   6.025   6.637   2.897 -0.3819  1.3683 -1.1353
 3128TIP3    H2 9349   6.030   6.495   2.844 -0.3921  0.2278  1.7121
 3129TIP3   OH2 9350   4.947   2.436   0.034 -0.0424  0.2605 -0.5432
 3129TIP3    H1 9351   5.027   2.390   0.061  0.8042  2.1641  0.3781
 3129TIP3    H2 9352   4.878   2.398   0.089 -0.0143 -1.9696 -1.8971
 3130TIP3   OH2 9353   0.594   6.069   4.654  0.5848 -0.1518 -0.0525
 3130TIP3    H1 9354   0.675   6.073   4.705  0.7043 -0.1782 -0.2374
 3130TIP3    H2 9355   0.526   6.100   4.714  1.0113  1.7587 -0.5009
 3131TIP3   OH2 9356   5.225   3.784   1.149 -0.2433 -0.1009  0.0607
 3131TIP3    H1 9357   5.320   3.785   1.151 -0.2401  0.2069 -0.1209
 3131TIP3    H2 9358   5.203   3.787   1.056 -0.4242 -2.1219 -0.0104
 3132TIP3   OH2 9359   5.248   4.586   4.647 -0.0969 -0.0544  0.2623
 3132TIP3    H1 9360   5.234   4.674   4.681 -0.9780  0.0001 -0.2299
 3132TIP3    H2 9361   5.182   4.575   4.579 -1.5596 -1.9344  1.8398
 3133TIP3   OH2 9362   5.904   6.480   1.999  0.4392 -0.1491  0.0884
 3133TIP3    H1 9363   5.898   6.390   2.031 -2.9970  0.5358  1.8264
 3133TIP3    H2 9364   5.938   6.530   2.074  0.6847  0.2280 -0.2708
 3134TIP3   OH2 9365   0.151   5.726   3.268  0.1054  0.7491 -0.6339
 3134TIP3    H1 9366   0.085   5.659   3.287  0.8048 -0.6845 -2.8639
 3134TIP3    H2 9367   0.235   5.679   3.274  0.5847  1.2688 -2.5972
 3135TIP3   OH2 9368   3.085   6.673   0.310 -0.2750  0.2303  0.4373
 3135TIP3    H1 9369   3.151   6.671   0.379  1.4015  1.8200 -1.0022
 3135TIP3    H2 9370   3.011   6.720   0.349  1.0444  2.0385  0.9099
 3136TIP3   OH2 9371   5.095   0.093   3.610 -0.6319 -0.0735  0.0257
 3136TIP3    H1 9372   5.021   0.080   3.670 -0.1382  0.7245  0.8459
 3136TIP3    H2 9373   5.154   0.020   3.628 -0.7379 -0.1293  0.1444
 3137TIP3   OH2 9374   2.639   0.111   0.975  0.2742  0.3795  0.1935
 3137TIP3    H1 9375   2.553   0.070   0.966  0.6472 -0.0926 -1.7110
 3137TIP3    H2 9376   2.671   0.083   1.061 -0.7861 -0.7954  0.2278
 3138TIP3   OH2 9377   5.352   4.168   2.120 -0.3121 -0.1752  0.1668
 3138TIP3    H1 9378   5.349   4.085   2.166  0.8196 -1.2720 -1.6043
 3138TIP3    H2 9379   5.363   4.234   2.189 -1.8778 -1.3881  1.6517
 3139TIP3   OH2 9380   0.581   4.486   5.576  0.2018  0.1878 -0.0538
 3139TIP3    H1 9381   0.507   4.520   5.627 -0.5345  0.0892 -1.0192
 3139TIP3    H2 9382   0.551   4.400   5.546 -0.3917  1.1685 -2.6003
 3140TIP3   OH2 9383   1.412   6.768   5.708  0.5293  0.6701  0.2845
 3140TIP3    H1 9384   1.429   6.692   5.654  1.5644  0.7445  0.4783
 3140TIP3    H2 9385   1.352   6.822   5.657  0.0906 -0.0957 -0.0093
 3141TIP3   OH2 9386   6.176   0.519   4.045 -0.4642  0.2313  0.3960
 3141TIP3    H1 9387   6.254   0.464   4.058  0.5716  1.4735 -0.2759
 3141TIP3    H2 9388   6.170   0.529   3.950 -0.9566  0.8231  0.4832
 3142TIP3   OH2 9389   3.861   1.625   5.681  0.0691  0.0918  0.2802
 3142TIP3    H1 9390   3.899   1.555   5.734 -3.1532 -0.9404  1.4832
 3142TIP3    H2 9391   3.853   1.699   5.741  2.2552  1.1639 -0.6369
 3143TIP3   OH2 9392   0.212   4.987   0.256  0.3712  0.7182 -0.0021
 3143TIP3    H1 9393   0.270   5.016   0.186  1.0687  2.2728  1.1633
 3143TIP3    H2 9394   0.270   4.939   0.316 -0.4537 -1.7635 -1.0565
 3144TIP3   OH2 9395   4.545   3.862   2.170  0.0972  0.1956 -0.5450
 3144TIP3    H1 9396   4.635   3.894   2.177  0.5500 -0.7548 -1.7347
 3144TIP3    H2 9397   4.502   3.896   2.249  1.4075  0.9118 -0.0994
 3145TIP3   OH2 9398   3.296   6.037   1.345  0.0939 -0.2700 -0.6218
 3145TIP3    H1 9399   3.221   5.995   1.303 -0.0743 -1.0041  0.3594
 3145TIP3    H2 9400   3.364   5.969   1.344  0.4086  0.0411 -0.5891
 3146TIP3   OH2 9401   2.574   6.065   5.049 -0.5910 -0.8109 -0.3633
 3146TIP3    H1 9402   2.663   6.096   5.036 -0.5471 -1.4068 -1.6225
 3146TIP3    H2 9403   2.520   6.123   4.994 -0.9785 -0.4841  0.3513
 3147TIP3   OH2 9404   6.169   2.955   0.693 -0.0655 -0.5970  0.0453
 3147TIP3    H1 9405   6.244   2.950   0.752  0.0557 -1.7685 -0.1794
 3147TIP3    H2 9406   6.093   2.960   0.751  0.0997 -0.9302  0.2939
 3148TIP3   OH2 9407   0.375   4.542   5.750  0.1456 -0.5061  0.1820
 3148TIP3    H1 9408   0.311   4.613   5.761 -0.3624 -0.7764 -0.8752
 3148TIP3    H2 9409   0.402   4.521   5.839 -2.3591 -1.3813  0.8393
 3149TIP3   OH2 9410   4.418   2.795   2.731  0.4573  0.2230  0.0630
 3149TIP3    H1 9411   4.332   2.835   2.745  1.3405  2.3796 -0.2793
 3149TIP3    H2 9412   4.414   2.761   2.641  0.5336  1.9665 -0.6298
 3150TIP3   OH2 9413   1.360   6.380   5.735 -0.4255 -0.4002 -0.0866
 3150TIP3    H1 9414   1.282   6.425   5.767  0.2095  0.0873  0.8139
 3150TIP3    H2 9415   1.432   6.442   5.748  0.1221 -0.8334 -0.9068
 3151TIP3   OH2 9416   1.503   1.474   4.519 -0.5418 -0.2534 -0.2155
 3151TIP3    H1 9417   1.494   1.487   4.425  0.6883 -1.0779 -0.4785
 3151TIP3    H2 9418   1.447   1.399   4.538 -0.9694  0.0574 -0.2515
 3152TIP3   OH2 9419   3.946   5.141   1.911  0.2062  0.3238  0.1466
 3152TIP3    H1 9420   3.997   5.213   1.948  1.0633  0.2782 -0.9054
 3152TIP3    H2 9421   3.985   5.062   1.950  1.8772  0.1924 -1.6173
 3153TIP3   OH2 9422  -0.002   6.453   2.777  0.7164  0.8451  0.1159
 3153TIP3    H1 9423  -0.013   6.371   2.825 -0.5625  0.5151 -0.6801
 3153TIP3    H2 9424   0.086   6.447   2.741  0.8713  0.1014  0.5761
 3154TIP3   OH2 9425   4.876   4.672   0.706  0.2719  0.0123  0.3074
 3154TIP3    H1 9426   4.838   4.604   0.652 -1.4740  0.5488  0.8102
 3154TIP3    H2 9427   4.840   4.754   0.671  2.4137  0.7449 -0.3680
 3155TIP3   OH2 9428   5.501   3.335   4.685  0.4273  0.0269  0.0270
 3155TIP3    H1 9429   5.414   3.355   4.718  0.1469 -0.6873 -0.2441
 3155TIP3    H2 9430   5.560   3.392   4.734 -0.3232  1.5553 -0.7787
 3156TIP3   OH2 9431   1.599   3.797   0.701  0.1790  0.4387  0.1206
 3156TIP3    H1 9432   1.610   3.729   0.767 -1.1836 -0.5935 -0.6659
 3156TIP3    H2 9433   1.629   3.756   0.620 -1.0071  0.6163 -0.4299
 3157TIP3   OH2 9434   2.380   5.153   3.688 -0.3124 -0.2071  0.0322
 3157TIP3    H1 9435   2.297   5.132   3.731 -0.8051  0.1633 -0.7187
 3157TIP3    H2 9436   2.442   5.164   3.760 -0.8863 -0.6011  0.5947
 3158TIP3   OH2 9437   4.642   3.834   0.733 -0.1611 -0.3737 -0.0583
 3158TIP3    H1 9438   4.639   3.765   0.799  1.2232  0.1849  0.6235
 3158TIP3    H2 9439   4.726   3.877   0.747 -0.1631  0.2338 -1.7178
 3159TIP3   OH2 9440   3.172   1.614   1.108  0.1424  0.2537  0.0125
 3159TIP3    H1 9441   3.158   1.585   1.199 -0.9337  1.4384  0.2552
 3159TIP3    H2 9442   3.267   1.611   1.097  0.2130 -1.2850  0.6933
 3160TIP3   OH2 9443   4.152   3.147   5.917  0.8405  0.5107 -0.6813
 3160TIP3    H1 9444   4.134   3.196   5.837 -0.2484  1.2846  0.0113
 3160TIP3    H2 9445   4.141   3.055   5.891 -0.0001  0.7740 -1.3002
 3161TIP3   OH2 9446   5.700   3.692   3.690  0.0112  0.0186 -0.2348
 3161TIP3    H1 9447   5.648   3.703   3.611  1.4079  1.0487 -1.0545
 3161TIP3    H2 9448   5.750   3.773   3.697 -1.2682  0.7099  2.6406
 3162TIP3   OH2 9449   6.510   5.018   1.781  0.7167 -0.4655 -0.2962
 3162TIP3    H1 9450   6.482   5.039   1.870  0.7868 -0.6408 -0.2316
 3162TIP3    H2 9451   6.457   4.942   1.757  0.4477 -0.2039 -0.5353
 3163TIP3   OH2 9452   6.581   3.561   0.890 -0.0562  0.7027 -0.7428
 3163TIP3    H1 9453   6.577   3.559   0.985 -2.6791 -2.3111 -0.7793
 3163TIP3    H2 9454   6.567   3.654   0.868  3.0799  1.9465  1.6863
 3164TIP3   OH2 9455   5.589   1.323   3.216  0.3451  0.5609  0.2683
 3164TIP3    H1 9456   5.676   1.301   3.250 -0.4389 -1.7303  0.9645
 3164TIP3    H2 9457   5.604   1.342   3.124  1.4683 -0.9373  0.1019
 3165TIP3   OH2 9458   4.147   2.052   1.976  0.3298 -0.3786  0.0342
 3165TIP3    H1 9459   4.226   2.099   2.004  0.0112  0.2905 -0.1883
 3165TIP3    H2 9460   4.089   2.053   2.052  0.3456 -0.4722  0.0485
 3166TIP3   OH2 9461   2.327   5.351   0.892 -0.3137 -0.6897 -0.2074
 3166TIP3    H1 9462   2.354   5.425   0.838  0.4829  0.4691  1.6680
 3166TIP3    H2 9463   2.409   5.310   0.920 -0.6115 -0.3018  1.3441
 3167TIP3   OH2 9464   2.483   4.117   1.430 -0.1669 -0.2465  0.1546
 3167TIP3    H1 9465   2.439   4.165   1.360 -0.7414  1.6639  1.7130
 3167TIP3    H2 9466   2.459   4.026   1.416 -0.9383  0.1821 -1.6224
 3168TIP3   OH2 9467   0.246   6.593   4.563 -0.1193  0.2317  0.0479
 3168TIP3    H1 9468   0.302   6.535   4.615  0.3764 -0.5797 -1.3418
 3168TIP3    H2 9469   0.191   6.533   4.513 -2.1574  1.0050  1.2281
 3169TIP3   OH2 9470   6.492   4.597   3.391 -0.4354  0.5399 -0.0969
 3169TIP3    H1 9471   6.400   4.606   3.413 -1.2145 -1.4683 -2.0704
 3169TIP3    H2 9472   6.497   4.621   3.298  0.3550 -2.2337 -0.8817
 3170TIP3   OH2 9473   0.739   5.249   0.882 -0.7115  0.3338  0.0483
 3170TIP3    H1 9474   0.691   5.330   0.901 -1.9890 -0.6026  0.9637
 3170TIP3    H2 9475   0.787   5.269   0.801 -0.5502  2.1753  0.5382
 3171TIP3   OH2 9476   1.472   1.862   3.178 -0.3340 -0.2773 -0.5966
 3171TIP3    H1 9477   1.415   1.785   3.177 -0.2691 -0.3343 -1.9056
 3171TIP3    H2 9478   1.509   1.863   3.266 -2.6601  0.0194  0.4507
 3172TIP3   OH2 9479   4.792   1.365   0.068  0.5036 -0.8134 -0.4670
 3172TIP3    H1 9480   4.703   1.341   0.041  0.2269  1.1673 -1.4605
 3172TIP3    H2 9481   4.849   1.319   0.006  0.1517 -1.3626 -0.3922
 3173TIP3   OH2 9482   1.486   4.279   3.120 -0.7173  0.9514 -0.3074
 3173TIP3    H1 9483   1.533   4.355   3.086 -0.3836  1.5534  1.4295
 3173TIP3    H2 9484   1.454   4.306   3.206 -2.7720 -0.0430 -0.6995
 3174TIP3   OH2 9485   0.574   0.665   2.474 -0.1785  0.1113  0.8078
 3174TIP3    H1 9486   0.562   0.724   2.400 -0.0358  0.1074  0.7818
 3174TIP3    H2 9487   0.516   0.591   2.455  1.2330 -0.7872 -0.2420
 3175TIP3   OH2 9488   2.421   2.605   1.172 -0.5755  0.1304  0.0816
 3175TIP3    H1 9489   2.349   2.645   1.220 -1.0899  1.7440 -1.8756
 3175TIP3    H2 9490   2.388   2.596   1.082  1.4244  0.3695 -0.7428
 3176TIP3   OH2 9491   5.991   1.762   2.525 -0.0065 -0.1010 -0.2828
 3176TIP3    H1 9492   6.062   1.753   2.461 -0.1068 -1.4896 -0.2294
 3176TIP3    H2 9493   6.016   1.704   2.597  0.4262  1.9294  1.2995
 3177TIP3   OH2 9494   1.040   0.041   5.456 -0.0901  0.1592 -0.2069
 3177TIP3    H1 9495   0.988   0.006   5.383  0.9217 -1.7318 -0.0945
 3177TIP3    H2 9496   0.981   0.035   5.532 -0.0903 -1.0105 -0.2732
 3178TIP3   OH2 9497   6.197   1.426   0.335  0.0925 -0.2678  0.6045
 3178TIP3    H1 9498   6.231   1.508   0.300 -0.5390 -0.1973  0.1262
 3178TIP3    H2 9499   6.260   1.360   0.307 -0.3189 -0.1930 -0.5823
 3179TIP3   OH2 9500   6.154   4.289   2.652  0.5860  0.6765  0.2310
 3179TIP3    H1 9501   6.204   4.208   2.661  1.3779  1.2013  0.6220
 3179TIP3    H2 9502   6.143   4.299   2.557  1.9012  0.9424  0.0837
 3180TIP3   OH2 9503   3.499   6.643   5.755  0.4794 -0.0886 -0.4756
 3180TIP3    H1 9504   3.474   6.568   5.809  0.6501 -0.4440 -0.8866
 3180TIP3    H2 9505   3.464   6.622   5.668 -0.4141  0.7992 -0.3569
 3181TIP3   OH2 9506   5.956   1.815   1.531 -0.0707  0.1416  0.8017
 3181TIP3    H1 9507   5.976   1.831   1.623 -0.2593 -0.6887  0.9928
 3181TIP3    H2 9508   6.037   1.782   1.494  0.4162  1.7743  0.3282
 3182TIP3   OH2 9509   7.188   1.175   3.936 -0.4504 -0.6825 -0.6718
 3182TIP3    H1 9510   7.153   1.198   3.850  0.6420 -0.5221 -1.0962
 3182TIP3    H2 9511   7.138   1.098   3.963  0.5541 -2.0011 -2.3807
 3183TIP3   OH2 9512   7.011   3.419   5.697  0.0795  0.1079 -0.0893
 3183TIP3    H1 9513   7.094   3.371   5.699 -1.6937 -3.2609 -0.9482
 3183TIP3    H2 9514   6.960   3.383   5.769 -1.3648  0.6905 -0.7839
 3184TIP3   OH2 9515   6.752   1.369   2.931 -0.3316  0.7548  0.0593
 3184TIP3    H1 9516   6.671   1.419   2.925 -1.3329 -0.9333 -1.7961
 3184TIP3    H2 9517   6.730   1.283   2.895  2.1546  0.0596 -0.0186
 3185TIP3   OH2 9518   6.937   1.349  -0.019  0.0425 -0.3342 -0.3752
 3185TIP3    H1 9519   6.931   1.255  -0.001 -0.7888 -0.0609  0.9201
 3185TIP3    H2 9520   6.865   1.387   0.032  0.0284  0.9487 -1.3160
 3186TIP3   OH2 9521   0.607   0.915   4.584 -0.5299  0.1446  0.0343
 3186TIP3    H1 9522   0.677   0.948   4.640 -0.6342  0.4247  0.0028
 3186TIP3    H2 9523   0.647   0.845   4.534 -0.2073  0.4590 -0.1530
 3187TIP3   OH2 9524   7.029   3.599   3.248  0.3727 -0.1484 -0.5296
 3187TIP3    H1 9525   7.087   3.656   3.299 -0.0503  0.4020 -0.6405
 3187TIP3    H2 9526   7.083   3.569   3.175  0.8994 -0.7104  0.0834
 3188TIP3   OH2 9527   6.256   4.951   1.251 -0.3979 -0.6306 -0.2583
 3188TIP3    H1 9528   6.207   5.007   1.191 -0.7206  0.4407  0.9654
 3188TIP3    H2 9529   6.343   4.943   1.212 -0.8132 -0.5250 -1.2131
 3189TIP3   OH2 9530   4.482   1.766   3.713  0.5107  0.7287  0.3597
 3189TIP3    H1 9531   4.436   1.696   3.759  1.5184 -0.7380 -0.8014
 3189TIP3    H2 9532   4.434   1.846   3.737 -1.2594 -0.4602  0.9346
 3190TIP3   OH2 9533   2.986   4.828   3.811  0.0477 -0.6334  0.1957
 3190TIP3    H1 9534   2.951   4.856   3.895 -0.7748 -0.5682 -0.1533
 3190TIP3    H2 9535   2.911   4.834   3.751  1.4000  2.9784 -1.4204
 3191TIP3   OH2 9536   2.763   5.723   2.070 -0.2644 -0.2047  0.0843
 3191TIP3    H1 9537   2.792   5.645   2.117 -1.0684  0.4038  1.6653
 3191TIP3    H2 9538   2.699   5.764   2.128 -2.0247  0.1136 -1.9154
 3192TIP3   OH2 9539   0.336   5.346   0.944  0.8556  0.2103  0.2547
 3192TIP3    H1 9540   0.313   5.322   1.034  0.7715 -1.5055 -0.1878
 3192TIP3    H2 9541   0.310   5.270   0.892  1.6863  0.8362 -1.1183
 3193TIP3   OH2 9542   1.959   0.875   2.642  0.2193 -0.0011  0.7471
 3193TIP3    H1 9543   1.919   0.857   2.727  1.7727 -2.2381  1.0755
 3193TIP3    H2 9544   1.954   0.792   2.595 -1.2287  1.3678 -1.6786
 3194TIP3   OH2 9545   0.947   2.943   5.053  0.3266 -0.3857 -0.0901
 3194TIP3    H1 9546   0.894   2.864   5.040  0.3752 -0.5286  0.5576
 3194TIP3    H2 9547   0.931   2.968   5.144  0.8138 -0.0198 -0.1033
 3195TIP3   OH2 9548   3.535   4.603   5.562  0.1387 -0.1253  0.1466
 3195TIP3    H1 9549   3.617   4.622   5.517  1.5000  0.2411  2.6126
 3195TIP3    H2 9550   3.491   4.688   5.569  0.2352 -0.0698  0.0837
 3196TIP3   OH2 9551   5.642   6.132   4.536  0.5751 -0.7558 -0.1300
 3196TIP3    H1 9552   5.572   6.125   4.471  0.7127 -0.5819 -0.2988
 3196TIP3    H2 9553   5.722   6.112   4.488  1.0262  2.0348 -0.7145
 3197TIP3   OH2 9554   4.659   1.790   0.353  0.1965  0.8141 -0.1310
 3197TIP3    H1 9555   4.740   1.788   0.404 -0.6575 -0.3756  1.2572
 3197TIP3    H2 9556   4.635   1.698   0.343 -1.6952  1.1645  0.6996
 3198TIP3   OH2 9557   7.112   0.860   2.199  0.0923  0.1404 -0.0218
 3198TIP3    H1 9558   7.152   0.925   2.257  0.5108  0.2545 -0.4283
 3198TIP3    H2 9559   7.172   0.855   2.124 -1.9911  2.3707 -2.0148
 3199TIP3   OH2 9560   2.248   4.545   5.607 -0.4832 -1.4821 -0.0085
 3199TIP3    H1 9561   2.307   4.574   5.677  0.5519 -0.7598 -1.1259
 3199TIP3    H2 9562   2.205   4.468   5.642  0.2752 -1.3495  1.2853
 3200TIP3   OH2 9563   3.847   1.770   1.639  0.8330  0.6208  0.8258
 3200TIP3    H1 9564   3.868   1.841   1.579  2.1457 -0.4392 -0.0187
 3200TIP3    H2 9565   3.920   1.770   1.702  0.2327  0.7662  1.5358
 3201TIP3   OH2 9566   5.459   5.934   1.796 -0.3031  0.4585 -0.4038
 3201TIP3    H1 9567   5.526   5.876   1.833 -0.0936  1.2160  0.4594
 3201TIP3    H2 9568   5.387   5.931   1.859 -2.7027 -3.0333 -2.9239
 3202TIP3   OH2 9569   4.831   2.283   3.805 -0.0888  0.0310  0.1080
 3202TIP3    H1 9570   4.764   2.312   3.743  1.1852 -1.2590 -1.9883
 3202TIP3    H2 9571   4.781   2.238   3.874 -1.5115  0.9571 -0.2680
 3203TIP3   OH2 9572   2.997   4.763   1.161  0.1474  0.5613  0.0753
 3203TIP3    H1 9573   2.982   4.669   1.172 -0.1235  0.5560 -0.3357
 3203TIP3    H2 9574   3.014   4.774   1.068  0.9327  0.8188  0.2394
 3204TIP3   OH2 9575   0.552   4.011   4.586  0.2873  0.0685 -0.2745
 3204TIP3    H1 9576   0.555   3.932   4.640  1.4425 -0.5810 -1.2302
 3204TIP3    H2 9577   0.633   4.007   4.535 -0.9817  0.3961 -2.4036
 3205TIP3   OH2 9578   2.666   3.684   3.662 -0.6926 -0.0973  0.4121
 3205TIP3    H1 9579   2.650   3.701   3.569  2.3022 -0.3600 -0.2559
 3205TIP3    H2 9580   2.629   3.760   3.707 -0.9072  0.7530 -1.1349
 3206TIP3   OH2 9581   6.771   2.749   5.787 -0.0372  0.7762 -0.4607
 3206TIP3    H1 9582   6.677   2.744   5.802 -0.4674  1.8800 -2.4467
 3206TIP3    H2 9583   6.793   2.842   5.798  0.7446  0.5972 -0.4252
 3207TIP3   OH2 9584   4.755   2.541   0.294 -0.4726 -0.3396 -0.0820
 3207TIP3    H1 9585   4.738   2.635   0.296  0.7688 -0.1040  1.2116
 3207TIP3    H2 9586   4.812   2.525   0.370 -0.5335 -2.1105 -0.3547
 3208TIP3   OH2 9587   6.465   5.819   4.642  0.1799 -0.3805  0.5256
 3208TIP3    H1 9588   6.521   5.896   4.635 -0.2204  0.0709  1.9828
 3208TIP3    H2 9589   6.525   5.745   4.644  0.6081 -0.0575 -0.0099
 3209TIP3   OH2 9590   1.756   6.058   1.334 -0.5169  0.0312  0.1402
 3209TIP3    H1 9591   1.687   5.999   1.304  0.9629 -0.4526 -2.5654
 3209TIP3    H2 9592   1.734   6.075   1.426 -2.4393 -2.6342  0.2946
 3210TIP3   OH2 9593   6.705   6.753   3.610  0.0628 -0.9395  0.3885
 3210TIP3    H1 9594   6.719   6.688   3.541 -1.3095 -1.8952  0.9691
 3210TIP3    H2 9595   6.734   6.836   3.572 -1.2187 -1.3265 -1.5637
 3211TIP3   OH2 9596   4.452   2.328   0.125  0.8215 -0.2400 -0.4944
 3211TIP3    H1 9597   4.425   2.270   0.196  1.2269 -0.1632 -0.2767
 3211TIP3    H2 9598   4.381   2.392   0.120 -1.4461 -2.7103 -3.0749
 3212TIP3   OH2 9599   7.031   3.264   5.459 -0.1820 -0.1390 -0.0132
 3212TIP3    H1 9600   7.118   3.282   5.492 -0.0179  0.5889 -0.8037
 3212TIP3    H2 9601   6.974   3.323   5.508 -0.3513 -1.1631  1.0561
 3213TIP3   OH2 9602   6.306   1.943  -0.000 -0.0315 -0.0612 -0.2113
 3213TIP3    H1 9603   6.294   1.964   0.092  0.1807 -0.1082 -0.1718
 3213TIP3    H2 9604   6.395   1.909  -0.005 -0.8505 -2.3827 -0.0189
 3214TIP3   OH2 9605   3.472   4.628   2.883 -0.2606 -0.8562 -0.5088
 3214TIP3    H1 9606   3.382   4.637   2.913  0.1787  1.7222  0.2941
 3214TIP3    H2 9607   3.519   4.590   2.958 -0.3224 -0.3229 -0.1984
 3215TIP3   OH2 9608   4.553   5.555   5.205 -0.1345 -0.1192  0.3462
 3215TIP3    H1 9609   4.465   5.594   5.202 -0.8525 -1.3731  2.3650
 3215TIP3    H2 9610   4.576   5.557   5.298  2.1761  0.5092 -0.1796
 3216TIP3   OH2 9611   3.413   4.217   2.895  0.2247 -0.4952 -0.3754
 3216TIP3    H1 9612   3.419   4.122   2.885  0.1767 -0.3032 -3.1420
 3216TIP3    H2 9613   3.340   4.231   2.954  0.9817 -2.1658  1.0478
 3217TIP3   OH2 9614   5.680   3.015   4.962 -0.1782 -0.2405 -0.1968
 3217TIP3    H1 9615   5.755   3.064   4.929 -1.1533  0.3828 -1.5894
 3217TIP3    H2 9616   5.713   2.926   4.972  1.5780  0.5824  2.2065
 3218TIP3   OH2 9617   1.289   0.399   0.259  0.4467  0.5624 -0.0071
 3218TIP3    H1 9618   1.355   0.460   0.225  0.7352 -0.2446 -0.9483
 3218TIP3    H2 9619   1.335   0.316   0.271 -0.0046  0.4378  0.9863
 3219TIP3   OH2 9620   0.144   6.357   5.724 -0.3570  0.3457  0.0548
 3219TIP3    H1 9621   0.204   6.297   5.680 -1.4903 -0.7713 -0.0583
 3219TIP3    H2 9622   0.154   6.337   5.817  0.2886  0.9969  0.1309
 3220TIP3   OH2 9623   6.875   0.052   1.851 -0.0030  0.5268 -0.3272
 3220TIP3    H1 9624   6.808  -0.004   1.813 -0.2623  1.2777 -1.0204
 3220TIP3    H2 9625   6.828   0.133   1.873  0.8213  1.4028 -1.6582
 3221TIP3   OH2 9626   4.259   1.333   0.856 -0.3635 -0.5369  0.1802
 3221TIP3    H1 9627   4.297   1.376   0.779 -0.1185 -1.2298 -0.0893
 3221TIP3    H2 9628   4.238   1.405   0.915 -0.5882  0.0110 -0.5453
 3222TIP3   OH2 9629   5.793   4.446   0.399 -0.0958  0.3904  0.1317
 3222TIP3    H1 9630   5.724   4.501   0.364 -1.0560 -0.8464  0.0021
 3222TIP3    H2 9631   5.870   4.466   0.345  0.1014  2.8724  1.2375
 3223TIP3   OH2 9632   5.332   0.750   2.613  0.2092  0.4815  0.7247
 3223TIP3    H1 9633   5.376   0.834   2.604 -0.0230  0.7738  2.1374
 3223TIP3    H2 9634   5.309   0.744   2.706  0.2216 -1.1380  0.6625
 3224TIP3   OH2 9635   2.950   4.779   3.039  0.2246  0.3675  0.0314
 3224TIP3    H1 9636   2.983   4.730   3.114  0.3473 -1.1930 -1.0044
 3224TIP3    H2 9637   3.027   4.818   2.999  0.4251 -0.5532 -0.4917
 3225TIP3   OH2 9638   6.927   0.030   4.578  0.0945 -0.6138  0.1876
 3225TIP3    H1 9639   6.917   0.122   4.600 -0.0369 -0.3401 -0.9323
 3225TIP3    H2 9640   6.963  -0.010   4.657 -1.3002  0.0841  1.2162
 3226TIP3   OH2 9641   4.010   3.814   2.466 -0.7386 -0.4488 -0.1952
 3226TIP3    H1 9642   4.014   3.886   2.529 -1.7543 -1.6637  1.3402
 3226TIP3    H2 9643   4.058   3.846   2.389 -1.4898  1.9748  0.2785
 3227TIP3   OH2 9644   5.840   6.619   5.776  0.3611 -0.6525  0.2665
 3227TIP3    H1 9645   5.907   6.600   5.710  0.3713  1.0133 -0.2450
 3227TIP3    H2 9646   5.785   6.541   5.778  2.0050 -1.8582  0.3412
 3228TIP3   OH2 9647   2.276   5.347   3.075 -0.0447  0.4542  0.1375
 3228TIP3    H1 9648   2.221   5.383   3.005 -0.7574 -0.6700  0.0816
 3228TIP3    H2 9649   2.243   5.257   3.087  0.7883  0.2651  1.1623
 3229TIP3   OH2 9650   1.802   5.699   2.272  0.5950  0.2784 -0.2763
 3229TIP3    H1 9651   1.745   5.625   2.294  0.0322  0.5779 -0.7079
 3229TIP3    H2 9652   1.755   5.745   2.203  0.8422  1.1588  0.1378
 3230TIP3   OH2 9653   2.082   0.400   0.014  0.8733 -0.2227 -0.2625
 3230TIP3    H1 9654   2.086   0.314   0.056 -0.2162 -0.5051 -0.6811
 3230TIP3    H2 9655   1.995   0.401  -0.028  0.8481  1.1054 -0.2002
 3231TIP3   OH2 9656   3.036   3.182   1.594 -0.2794 -0.3139 -0.3995
 3231TIP3    H1 9657   3.048   3.163   1.501 -0.8140  0.8007 -0.7078
 3231TIP3    H2 9658   2.955   3.137   1.618 -0.4714 -0.0866 -0.6255
 3232TIP3   OH2 9659   0.648   5.137   3.207  0.4079  0.5729  0.1683
 3232TIP3    H1 9660   0.669   5.175   3.292  2.0274  0.9920 -0.3801
 3232TIP3    H2 9661   0.594   5.204   3.164 -1.6219 -0.2129  1.3276
 3233TIP3   OH2 9662   5.130   2.946   0.634  0.3046  0.0397 -0.2004
 3233TIP3    H1 9663   5.066   2.992   0.579  0.1028  0.3260  0.2735
 3233TIP3    H2 9664   5.154   3.009   0.701  1.4887  0.1146 -0.6770
 3234TIP3   OH2 9665   4.127   0.132   5.230  0.2996  0.1775  0.1188
 3234TIP3    H1 9666   4.155   0.211   5.183  1.6015 -0.1856  0.2358
 3234TIP3    H2 9667   4.037   0.150   5.255  1.0300  2.3089  1.5158
 3235TIP3   OH2 9668   3.508   5.799   4.280  0.4201 -0.2690  0.2226
 3235TIP3    H1 9669   3.478   5.799   4.371  0.5369 -5.1974  0.4973
 3235TIP3    H2 9670   3.429   5.820   4.229 -0.1164  0.5229  1.3384
 3236TIP3   OH2 9671   7.130   1.114   4.308  0.0008  0.1229  0.5955
 3236TIP3    H1 9672   7.047   1.133   4.264  0.8088  1.2095 -0.5290
 3236TIP3    H2 9673   7.107   1.105   4.400 -1.3190  0.8314  0.3605
 3237TIP3   OH2 9674   5.184   0.679   3.392  0.1999  0.4902  0.1882
 3237TIP3    H1 9675   5.179   0.709   3.482 -2.0498  0.6516  0.0698
 3237TIP3    H2 9676   5.093   0.683   3.360  0.3487 -2.6763 -1.0425
 3238TIP3   OH2 9677   3.091   6.466   0.143 -0.0795  0.1253 -0.0646
 3238TIP3    H1 9678   3.147   6.498   0.073  0.7820 -0.6009  0.2772
 3238TIP3    H2 9679   3.073   6.543   0.197 -1.2236  0.8257 -1.3576
 3239TIP3   OH2 9680   3.207   4.611   2.117 -0.0761  0.2383 -0.1297
 3239TIP3    H1 9681   3.121   4.570   2.111 -0.7563  1.7433 -1.3506
 3239TIP3    H2 9682   3.196   4.682   2.180 -0.1342  1.2554 -1.2347
 3240TIP3   OH2 9683   3.506   3.311   5.747  0.3553  0.0241  0.3232
 3240TIP3    H1 9684   3.433   3.266   5.703 -0.0145  0.3866  0.5641
 3240TIP3    H2 9685   3.513   3.395   5.703  1.0341 -0.2460 -0.1093
 3241TIP3   OH2 9686   4.673   2.594   1.245  0.1060 -0.3713  0.0252
 3241TIP3    H1 9687   4.751   2.571   1.295 -0.3635  0.1440  1.0200
 3241TIP3    H2 9688   4.615   2.518   1.253 -0.4302  0.1283  1.2490
 3242TIP3   OH2 9689   5.029   2.107   2.885  0.3858  0.4662 -0.0710
 3242TIP3    H1 9690   5.021   2.115   2.980  4.0467 -0.2111  0.4239
 3242TIP3    H2 9691   4.941   2.083   2.856 -0.7984  0.3986  3.1320
 3243TIP3   OH2 9692   0.369   1.331   0.897  0.0559 -0.2249  0.5549
 3243TIP3    H1 9693   0.421   1.258   0.864  1.5292  0.5661  1.0147
 3243TIP3    H2 9694   0.343   1.304   0.985 -2.5533 -1.6809 -0.5563
 3244TIP3   OH2 9695   2.572   5.385   4.378 -0.0787 -0.0117 -0.2885
 3244TIP3    H1 9696   2.576   5.467   4.330 -0.0115 -0.4646 -1.0613
 3244TIP3    H2 9697   2.577   5.412   4.470  1.1543  0.7711 -0.5567
 3245TIP3   OH2 9698   5.772   0.124   1.980  0.7054  0.1587 -0.3115
 3245TIP3    H1 9699   5.793   0.041   1.937 -1.1516 -0.5310  0.0238
 3245TIP3    H2 9700   5.781   0.105   2.073  2.4984  1.0089 -0.2836
 3246TIP3   OH2 9701   3.825   3.422   5.532  0.0449  0.5204 -0.3715
 3246TIP3    H1 9702   3.769   3.352   5.498  0.9084 -0.0672 -0.6108
 3246TIP3    H2 9703   3.854   3.470   5.454  1.0072 -0.0479 -0.3722
 3247TIP3   OH2 9704   1.336   0.870   1.629 -0.3513 -0.3281 -0.1267
 3247TIP3    H1 9705   1.428   0.864   1.657 -0.3324  0.9815  0.1746
 3247TIP3    H2 9706   1.337   0.935   1.558 -1.1558  0.3450  0.4576
 3248TIP3   OH2 9707   2.882   2.637   3.555  0.1530 -0.1923  0.6763
 3248TIP3    H1 9708   2.811   2.685   3.597 -0.4075  0.4860 -0.9427
 3248TIP3    H2 9709   2.927   2.592   3.626 -1.3730  0.0549  1.8408
 3249TIP3   OH2 9710   3.668   0.464   2.670  0.0503 -0.0515  0.2675
 3249TIP3    H1 9711   3.624   0.537   2.625  1.8109  0.3352 -0.8950
 3249TIP3    H2 9712   3.626   0.462   2.756 -1.0741  1.3770 -0.1938
 3250TIP3   OH2 9713   5.542   3.492   0.516  0.5552 -0.7536  1.5820
 3250TIP3    H1 9714   5.614   3.534   0.470  0.5090 -2.5573 -0.3309
 3250TIP3    H2 9715   5.524   3.548   0.591  2.1237  1.1805  0.5909
 3251TIP3   OH2 9716   7.062   0.911   0.971 -0.3205 -0.5919 -0.1520
 3251TIP3    H1 9717   7.055   0.965   0.893  0.9161  1.7627  1.2620
 3251TIP3    H2 9718   7.156   0.901   0.985 -0.4480  0.7582  2.1038
 3252TIP3   OH2 9719   6.696   2.999   0.985 -0.7899 -0.1715 -0.3961
 3252TIP3    H1 9720   6.672   3.058   1.057  0.8021  0.0244  0.0119
 3252TIP3    H2 9721   6.665   3.044   0.906 -1.4918  0.1775  0.0651
 3253TIP3   OH2 9722   2.288   4.529   2.556 -0.2703  0.2710  0.0984
 3253TIP3    H1 9723   2.217   4.553   2.496 -0.8985  0.9270  1.0600
 3253TIP3    H2 9724   2.302   4.609   2.608  1.5938  0.3448 -0.4703
 3254TIP3   OH2 9725   6.403   1.051   2.260  1.1449 -0.0094  0.8115
 3254TIP3    H1 9726   6.339   0.987   2.290  1.0179 -0.6186 -0.6776
 3254TIP3    H2 9727   6.475   0.998   2.225 -0.0076  0.4743 -2.7713
 3255TIP3   OH2 9728   2.721   5.829   4.918  0.2613 -0.0552  0.0417
 3255TIP3    H1 9729   2.627   5.847   4.917  0.1567 -0.4637 -1.7092
 3255TIP3    H2 9730   2.754   5.874   4.996 -1.2493  0.7674  0.2411
 3256TIP3   OH2 9731   2.674   1.625   1.453 -0.1938 -0.0794 -0.2734
 3256TIP3    H1 9732   2.609   1.695   1.447 -0.5550 -0.4538 -0.7998
 3256TIP3    H2 9733   2.753   1.662   1.413  0.0490  0.5154  0.7213
 3257TIP3   OH2 9734   1.763   0.341   2.611  0.0418  0.0382 -0.0426
 3257TIP3    H1 9735   1.690   0.349   2.550 -0.4165 -0.6002  0.4142
 3257TIP3    H2 9736   1.739   0.268   2.668  1.3912 -0.6905 -0.3707
 3258TIP3   OH2 9737   5.870   1.576   4.849  0.2903  0.1130  0.1361
 3258TIP3    H1 9738   5.788   1.527   4.844 -1.7574  2.9523  2.2805
 3258TIP3    H2 9739   5.918   1.536   4.922  0.6480 -1.2314 -0.7957
 3259TIP3   OH2 9740   0.830   0.407   4.704 -0.0692  0.1834  0.1031
 3259TIP3    H1 9741   0.880   0.488   4.711 -0.4113  0.3776  0.3277
 3259TIP3    H2 9742   0.868   0.349   4.771 -0.6698  0.6121  0.8245
 3260TIP3   OH2 9743   0.698   4.462   3.836  0.0948  0.2740 -0.5504
 3260TIP3    H1 9744   0.620   4.413   3.812 -1.4655  1.1639  2.1799
 3260TIP3    H2 9745   0.707   4.448   3.930  4.1293 -0.9157 -0.9162
 3261TIP3   OH2 9746   4.315   0.378   2.848 -0.6028  0.6787 -0.1260
 3261TIP3    H1 9747   4.375   0.358   2.919 -2.2399 -0.6043  0.9735
 3261TIP3    H2 9748   4.274   0.460   2.874 -0.7251  0.5493  0.0950
 3262TIP3   OH2 9749   1.880   3.751   4.140  0.7328 -0.1479 -0.9778
 3262TIP3    H1 9750   1.883   3.813   4.213 -0.0842 -1.9687  0.7056
 3262TIP3    H2 9751   1.806   3.780   4.087 -2.5432 -1.9343  2.1408
 3263TIP3   OH2 9752   6.129   0.093   3.235 -0.1449  0.2103 -0.3332
 3263TIP3    H1 9753   6.094   0.048   3.157 -0.3194  0.0007 -0.1363
 3263TIP3    H2 9754   6.210   0.134   3.204 -1.2653  1.8934 -1.1566
 3264TIP3   OH2 9755   0.888   3.947   1.185 -0.0755  0.0524 -0.0417
 3264TIP3    H1 9756   0.899   4.038   1.160 -0.2975  0.5374  1.5587
 3264TIP3    H2 9757   0.974   3.907   1.173  0.0497  0.4841 -0.6198
 3265TIP3   OH2 9758   0.936   3.541   5.091 -0.1726 -0.5114  0.1290
 3265TIP3    H1 9759   0.951   3.514   5.181  1.1051 -0.0117  0.0877
 3265TIP3    H2 9760   0.993   3.485   5.039 -2.8138 -2.6697 -0.7022
 3266TIP3   OH2 9761   5.403   4.784   2.311  0.1127  0.7792  0.2855
 3266TIP3    H1 9762   5.467   4.794   2.240 -0.2761  2.0583  0.0876
 3266TIP3    H2 9763   5.455   4.774   2.390  0.5461  1.0973  0.0390
 3267TIP3   OH2 9764   1.354   1.521   1.840 -0.4220  0.2935 -0.5119
 3267TIP3    H1 9765   1.272   1.501   1.796 -0.7027 -0.6995  0.4171
 3267TIP3    H2 9766   1.387   1.436   1.870 -0.0020  0.8741  0.7463
 3268TIP3   OH2 9767   3.452   5.751   0.121 -0.6679 -0.1951  0.5861
 3268TIP3    H1 9768   3.411   5.788   0.043  1.5152  1.2191 -0.0081
 3268TIP3    H2 9769   3.483   5.828   0.170 -0.0086 -1.1273  1.6765
 3269TIP3   OH2 9770   4.490   2.595   3.741  0.3026  0.7984 -0.8129
 3269TIP3    H1 9771   4.527   2.610   3.827 -0.4791 -0.7458 -0.1727
 3269TIP3    H2 9772   4.404   2.556   3.758 -0.8921  2.6236 -2.2651
 3270TIP3   OH2 9773   1.353   1.330   4.931 -0.1771  0.1842  0.0093
 3270TIP3    H1 9774   1.289   1.352   4.862  1.2584  0.9941 -1.1128
 3270TIP3    H2 9775   1.413   1.269   4.889 -0.1650 -0.5354  1.0470
 3271TIP3   OH2 9776   5.952   0.305   4.100 -0.3708  0.3639  0.1174
 3271TIP3    H1 9777   6.033   0.336   4.058 -0.4752  2.9650  1.6129
 3271TIP3    H2 9778   5.939   0.365   4.173 -2.3216 -1.5638  1.4715
 3272TIP3   OH2 9779   4.173   1.553   2.192  0.6249  0.1984  0.6446
 3272TIP3    H1 9780   4.140   1.609   2.262 -2.8810  0.3272 -0.8920
 3272TIP3    H2 9781   4.107   1.560   2.123  3.3479 -0.7312 -2.2917
 3273TIP3   OH2 9782   0.015   6.530   5.271  0.5601 -0.1413  0.1822
 3273TIP3    H1 9783   0.080   6.593   5.239  1.5799 -2.2877 -2.3114
 3273TIP3    H2 9784  -0.065   6.582   5.282  1.9263  2.0101  0.5987
 3274TIP3   OH2 9785   6.368   4.318   5.089 -0.3986  0.1367  0.0290
 3274TIP3    H1 9786   6.402   4.388   5.034  0.3648  0.0585  0.3974
 3274TIP3    H2 9787   6.291   4.286   5.042 -1.7141  2.2596  0.5942
 3275TIP3   OH2 9788   6.949   1.191   5.353  0.3082 -0.1733  0.5062
 3275TIP3    H1 9789   6.951   1.178   5.258  2.9448  0.9601  0.3396
 3275TIP3    H2 9790   6.932   1.284   5.364 -0.6868 -0.4167  1.2189
 3276TIP3   OH2 9791   2.739   1.746   4.589  0.0176 -0.0181 -0.2238
 3276TIP3    H1 9792   2.752   1.827   4.540 -0.6460  0.9650  1.1755
 3276TIP3    H2 9793   2.819   1.737   4.642 -0.8118  0.9170  1.2416
 3277TIP3   OH2 9794   5.817   1.697   4.608  0.0336  0.0568 -0.1461
 3277TIP3    H1 9795   5.732   1.732   4.634 -0.0686 -0.1140 -0.2586
 3277TIP3    H2 9796   5.842   1.639   4.680  0.6231  1.0541  0.4961
 3278TIP3   OH2 9797   5.976   1.990   0.863 -0.4662  0.2110 -0.6617
 3278TIP3    H1 9798   6.021   2.059   0.815 -1.6799  0.2768 -1.7575
 3278TIP3    H2 9799   5.891   1.982   0.820 -1.1581 -0.5351  0.7619
 3279TIP3   OH2 9800   4.768   3.706   4.744 -0.1922 -0.9380 -0.1663
 3279TIP3    H1 9801   4.735   3.795   4.750 -0.2902 -1.0190  0.5099
 3279TIP3    H2 9802   4.718   3.657   4.809 -0.3329 -1.5449 -0.7183
 3280TIP3   OH2 9803   5.719   5.927   0.943 -0.3549  0.0714 -0.8061
 3280TIP3    H1 9804   5.670   5.922   0.861 -1.9445  1.7376 -0.0472
 3280TIP3    H2 9805   5.693   6.011   0.981  0.8793 -0.3292  1.0688
 3281TIP3   OH2 9806   1.579   1.764   5.240 -0.2788  0.1263  0.1126
 3281TIP3    H1 9807   1.611   1.674   5.229  1.1601  0.7338 -1.0623
 3281TIP3    H2 9808   1.590   1.804   5.154 -2.0192  1.1149  0.3058
 3282TIP3   OH2 9809   1.558   0.146   1.800 -0.3623  0.0773 -0.5559
 3282TIP3    H1 9810   1.621   0.148   1.871  0.6593 -0.5328 -1.4139
 3282TIP3    H2 9811   1.482   0.101   1.836  0.0937 -0.1029  0.1881
 3283TIP3   OH2 9812   5.419   3.519   3.040 -0.1514 -0.1748 -0.0574
 3283TIP3    H1 9813   5.383   3.497   3.127 -0.4270  0.3797 -0.0299
 3283TIP3    H2 9814   5.511   3.537   3.056 -0.0020 -0.9106 -0.0176
 3284TIP3   OH2 9815   4.305   5.175   1.687 -0.4460 -0.5662 -0.4482
 3284TIP3    H1 9816   4.370   5.105   1.685 -0.3259 -0.6362  2.0479
 3284TIP3    H2 9817   4.301   5.208   1.597  0.5124 -2.8163 -1.3747
 3285TIP3   OH2 9818   4.453   4.568   2.010 -0.5088  0.2389  0.4595
 3285TIP3    H1 9819   4.366   4.541   2.040 -0.7630  1.5583  0.9806
 3285TIP3    H2 9820   4.509   4.556   2.087 -0.4847  0.5165  0.4870
 3286TIP3   OH2 9821   2.818   3.171   4.450 -0.2889 -0.2478  0.1108
 3286TIP3    H1 9822   2.810   3.178   4.355 -1.9443 -0.7741  0.1793
 3286TIP3    H2 9823   2.861   3.087   4.465  0.1169 -0.0905 -0.1739
 3287TIP3   OH2 9824   6.745   1.919   3.403  0.1354  0.4700  0.3773
 3287TIP3    H1 9825   6.834   1.890   3.425 -0.4095 -0.0243  2.0474
 3287TIP3    H2 9826   6.688   1.852   3.441 -1.0202  1.7924  1.0620
 3288TIP3   OH2 9827   5.203   5.325   0.690 -0.3873  0.0955  0.0759
 3288TIP3    H1 9828   5.157   5.283   0.617  2.0851 -1.6637 -0.5975
 3288TIP3    H2 9829   5.133   5.356   0.748 -2.3966 -1.1617 -1.5293
 3289TIP3   OH2 9830   5.369   6.355   0.558  0.4468  0.2886  0.1207
 3289TIP3    H1 9831   5.397   6.446   0.569  1.0057  0.1238  0.1149
 3289TIP3    H2 9832   5.274   6.358   0.565  0.3170  1.0990 -1.5224
 3290TIP3   OH2 9833   4.655   6.676   1.990 -0.3495 -0.5493  0.5749
 3290TIP3    H1 9834   4.597   6.749   1.968  1.1432 -0.0967 -2.3344
 3290TIP3    H2 9835   4.665   6.628   1.907  3.5890 -0.4257  0.7926
 3291TIP3   OH2 9836   4.563   6.678   1.350  0.9363 -0.0682 -0.6302
 3291TIP3    H1 9837   4.510   6.600   1.368  2.5788 -0.9517  0.7536
 3291TIP3    H2 9838   4.534   6.742   1.415  0.8085 -0.1706 -0.5847
 3292TIP3   OH2 9839   1.315   2.867   0.041 -0.1391  0.0385  0.2126
 3292TIP3    H1 9840   1.257   2.927   0.088 -1.3817 -1.3896  0.5402
 3292TIP3    H2 9841   1.345   2.919  -0.035 -0.9382  1.1683  0.6368
 3293TIP3   OH2 9842   0.634   4.907   4.522  0.1155  0.3259  0.2986
 3293TIP3    H1 9843   0.622   4.972   4.591  2.2995  2.5078 -1.1727
 3293TIP3    H2 9844   0.721   4.927   4.486  0.3567 -2.6861 -1.0564
 3294TIP3   OH2 9845   0.001   4.871   3.835 -0.6435  0.3156  0.4824
 3294TIP3    H1 9846   0.017   4.786   3.876 -0.9436 -0.1527 -0.3400
 3294TIP3    H2 9847   0.054   4.932   3.885  0.8577 -0.6075  0.0856
 3295TIP3   OH2 9848   5.675   5.708   1.128  0.6894 -0.5699 -0.0601
 3295TIP3    H1 9849   5.679   5.782   1.067  1.3956 -0.9371 -0.4788
 3295TIP3    H2 9850   5.705   5.744   1.211  0.0053 -0.1341  0.0081
 3296TIP3   OH2 9851   7.014   5.769   0.346  0.3306 -0.0344  0.0631
 3296TIP3    H1 9852   7.101   5.808   0.352  1.4392 -2.5388  2.0748
 3296TIP3    H2 9853   7.005   5.717   0.426 -4.6093  3.0093  1.9648
 3297TIP3   OH2 9854   4.213   4.978   3.668  0.2239 -0.2456  0.3914
 3297TIP3    H1 9855   4.303   4.949   3.651  1.1158  1.6208  1.6456
 3297TIP3    H2 9856   4.178   4.913   3.729  0.7911 -0.8706  0.0628
 3298TIP3   OH2 9857   5.666   2.463   5.091 -0.1707  0.1069  0.4190
 3298TIP3    H1 9858   5.716   2.464   5.173 -0.6167  2.2422  0.7275
 3298TIP3    H2 9859   5.729   2.488   5.024  0.0236 -0.9391  0.1889
 3299TIP3   OH2 9860   5.442   1.319   0.428  0.3594 -0.3633 -0.3186
 3299TIP3    H1 9861   5.359   1.366   0.438 -0.8768 -2.2288 -1.1982
 3299TIP3    H2 9862   5.459   1.319   0.334  1.6356  0.3971 -0.1152
 3300TIP3   OH2 9863   4.058   4.419   4.912  0.0535  0.3723  0.8188
 3300TIP3    H1 9864   4.060   4.324   4.903 -2.2750  0.3693 -0.4014
 3300TIP3    H2 9865   4.067   4.434   5.006  0.4390 -1.0462  1.0354
 3301TIP3   OH2 9866   6.078   0.256   4.750  0.2157 -0.2190  0.6020
 3301TIP3    H1 9867   6.048   0.225   4.836 -0.8062  1.1745  0.7827
 3301TIP3    H2 9868   6.141   0.325   4.770  2.0518 -1.7070  0.2025
 3302TIP3   OH2 9869   1.483   5.484   0.948 -0.2904  0.2332  0.0670
 3302TIP3    H1 9870   1.537   5.535   1.009 -0.9548  0.1155  0.7618
 3302TIP3    H2 9871   1.416   5.443   1.002  0.5255 -1.8393 -0.3985
 3303TIP3   OH2 9872   5.852   4.078   4.356  0.0177 -0.5365  0.3073
 3303TIP3    H1 9873   5.808   4.159   4.381 -0.1476 -0.5484  0.0634
 3303TIP3    H2 9874   5.942   4.089   4.385 -0.0910 -0.4118  0.5925
 3304TIP3   OH2 9875   4.106   0.663   1.345 -0.4039  0.0287  0.2179
 3304TIP3    H1 9876   4.062   0.725   1.404  0.5207  0.1682  0.7897
 3304TIP3    H2 9877   4.113   0.582   1.395 -1.2675 -0.4407 -0.3924
 3305TIP3   OH2 9878   1.160   0.443   3.188  0.1262  0.0647  0.2346
 3305TIP3    H1 9879   1.150   0.537   3.174 -0.5237  0.1039  0.9398
 3305TIP3    H2 9880   1.184   0.435   3.280  0.9185 -0.4238 -0.0000
 3306TIP3   OH2 9881   1.288   4.248   5.634  0.5192 -0.3580 -0.2628
 3306TIP3    H1 9882   1.321   4.258   5.544 -3.0502  1.8796 -1.5363
 3306TIP3    H2 9883   1.312   4.330   5.677  1.2306 -0.9631  0.5347
 3307TIP3   OH2 9884   4.849   3.380   1.484 -0.3957 -0.6443 -0.5036
 3307TIP3    H1 9885   4.864   3.375   1.578 -0.5097  2.1337 -0.2444
 3307TIP3    H2 9886   4.936   3.394   1.446 -0.6971  2.5575 -0.2854
 3308TIP3   OH2 9887   5.789   0.440   4.943  0.2529 -0.1683  0.5470
 3308TIP3    H1 9888   5.875   0.412   4.975 -0.0135 -0.4330  1.0357
 3308TIP3    H2 9889   5.809   0.506   4.876  0.7795  1.7471  2.5031
 3309TIP3   OH2 9890   3.759   0.668   1.466  1.1899 -0.5179  0.2591
 3309TIP3    H1 9891   3.847   0.700   1.485  0.6605 -0.1976  2.4349
 3309TIP3    H2 9892   3.707   0.694   1.542 -0.5926 -1.4872 -0.5652
 3310TIP3   OH2 9893   2.890   4.372   5.570  0.6295 -0.3516  0.1959
 3310TIP3    H1 9894   2.819   4.309   5.560 -1.3761  1.7558  0.3308
 3310TIP3    H2 9895   2.916   4.365   5.661  2.2760 -2.7451 -0.3748
 3311TIP3   OH2 9896   0.581   0.215   4.354  0.0273  0.3958  1.1307
 3311TIP3    H1 9897   0.604   0.137   4.304 -0.4336  1.7315 -1.3103
 3311TIP3    H2 9898   0.485   0.213   4.359  0.0376  0.5750  1.4534
 3312TIP3   OH2 9899   3.376   4.749   4.025  0.5881  0.4170  0.0342
 3312TIP3    H1 9900   3.448   4.708   4.074  0.6277  1.7407  1.1462
 3312TIP3    H2 9901   3.417   4.783   3.945  0.6511 -1.2067 -0.6537
 3313TIP3   OH2 9902   1.339   2.022   5.006 -0.2318  0.2965  0.2477
 3313TIP3    H1 9903   1.380   2.104   5.034  0.7478 -0.6740  1.8319
 3313TIP3    H2 9904   1.388   1.996   4.928 -1.1775  1.6597 -0.8431
 3314TIP3   OH2 9905   3.505   4.036   5.852 -0.2689  0.2501 -0.4810
 3314TIP3    H1 9906   3.510   3.941   5.856  1.5286  0.3711  1.1572
 3314TIP3    H2 9907   3.430   4.058   5.908  1.3241 -0.1104  1.9575
 3315TIP3   OH2 9908   5.097   0.064   5.656  0.2492  0.1870 -1.1015
 3315TIP3    H1 9909   5.155   0.140   5.659 -1.3230  1.4587 -1.6655
 3315TIP3    H2 9910   5.056   0.068   5.569 -0.3029 -0.9704 -0.9163
 3316TIP3   OH2 9911   1.388   0.600   2.653  0.1413 -0.5894 -0.4868
 3316TIP3    H1 9912   1.452   0.671   2.650 -0.3419 -0.1328 -0.2322
 3316TIP3    H2 9913   1.427   0.535   2.711  0.3612 -0.2980 -0.3051
 3317TIP3   OH2 9914   1.396   1.215  -0.005  0.2250  0.3305 -0.0388
 3317TIP3    H1 9915   1.420   1.252   0.080  1.2220 -0.3450 -0.0060
 3317TIP3    H2 9916   1.368   1.290  -0.057  0.8792  0.9333  0.4582
 3318TIP3   OH2 9917   0.484   2.926   3.417 -0.3837  0.5052 -0.2934
 3318TIP3    H1 9918   0.403   2.925   3.466  1.1262  0.8701  2.4058
 3318TIP3    H2 9919   0.458   2.905   3.327 -3.3923  0.5173  0.4680
 3319TIP3   OH2 9920   3.560   1.474   4.386 -0.0309  0.1834  1.0197
 3319TIP3    H1 9921   3.481   1.434   4.422 -1.0845  0.3884 -0.9603
 3319TIP3    H2 9922   3.629   1.408   4.398 -1.0785 -1.0373  0.4725
 3320TIP3   OH2 9923   3.475   1.963   2.524  0.1220  0.2911  0.1953
 3320TIP3    H1 9924   3.512   1.997   2.442 -1.0416 -0.4552 -0.6639
 3320TIP3    H2 9925   3.431   2.039   2.563 -0.7319  0.2817 -0.7094
 3321TIP3   OH2 9926   5.268   2.814   1.941 -0.6723  0.2555 -0.1770
 3321TIP3    H1 9927   5.338   2.795   1.879 -0.8089  0.8602 -0.5215
 3321TIP3    H2 9928   5.227   2.893   1.908 -1.1271  0.2542  0.3640
 3322TIP3   OH2 9929   6.443   2.226   3.707  0.3663 -0.0666 -0.1835
 3322TIP3    H1 9930   6.512   2.201   3.646  0.7312  2.0480 -0.7283
 3322TIP3    H2 9931   6.466   2.315   3.733 -0.7575 -0.2625  1.6857
 3323TIP3   OH2 9932   5.200   5.468   2.544 -0.4161 -0.1417 -0.3471
 3323TIP3    H1 9933   5.273   5.488   2.486 -0.1726 -0.9703 -0.3344
 3323TIP3    H2 9934   5.138   5.419   2.489 -1.3302  1.2146 -0.5708
 3324TIP3   OH2 9935   2.116   1.946   3.749  0.1117  0.9590  0.0722
 3324TIP3    H1 9936   2.196   1.976   3.791  0.8393  0.0731 -0.6252
 3324TIP3    H2 9937   2.144   1.920   3.661 -1.3356  2.7093 -0.9812
 3325TIP3   OH2 9938   1.309   3.893   5.390  0.3878  0.1089  0.0366
 3325TIP3    H1 9939   1.357   3.890   5.473  0.5024  0.4020 -0.0183
 3325TIP3    H2 9940   1.221   3.861   5.411  0.6857 -0.7110  0.0825
 3326TIP3   OH2 9941   6.436   2.037   5.052 -0.0114 -0.4596 -0.4983
 3326TIP3    H1 9942   6.396   2.097   4.989 -0.9557 -0.3223  0.2129
 3326TIP3    H2 9943   6.405   2.067   5.137  0.0105 -1.5797 -0.0766
 3327TIP3   OH2 9944   4.078   5.850   4.574 -0.2560 -0.4440  0.3253
 3327TIP3    H1 9945   3.987   5.833   4.554 -1.5890  1.9086  3.4717
 3327TIP3    H2 9946   4.097   5.794   4.649  0.5357 -0.2043  0.3149
 3328TIP3   OH2 9947   7.077   1.696   0.924 -0.6463  0.0505 -0.2068
 3328TIP3    H1 9948   7.103   1.634   0.855  0.5722  1.4497 -1.0606
 3328TIP3    H2 9949   7.075   1.643   1.004 -0.0702 -1.1853 -0.9745
 3329TIP3   OH2 9950   1.505   3.943   2.003  0.6194  0.2320 -0.0975
 3329TIP3    H1 9951   1.560   3.901   2.070 -0.1806 -0.1914  0.2973
 3329TIP3    H2 9952   1.496   3.877   1.935 -1.6079 -0.7198  1.0459
 3330TIP3   OH2 9953   6.013   6.315   4.436 -0.1999  0.7619  0.0104
 3330TIP3    H1 9954   6.006   6.356   4.349 -2.2222  0.5530  0.0309
 3330TIP3    H2 9955   6.095   6.265   4.432 -0.5057  0.3216 -1.9907
 3331TIP3   OH2 9956   4.239   3.407   0.704  0.0882  0.6218  0.1193
 3331TIP3    H1 9957   4.320   3.356   0.714  0.7959  1.2171 -1.9797
 3331TIP3    H2 9958   4.257   3.464   0.629 -3.3200 -1.3200 -2.4385
 3332TIP3   OH2 9959   6.502   3.529   1.158 -0.1733  0.0834 -0.0179
 3332TIP3    H1 9960   6.480   3.544   1.249 -0.6502 -0.9127  0.0494
 3332TIP3    H2 9961   6.499   3.433   1.148 -0.7125  0.1969 -1.2086
 3333TIP3   OH2 9962   2.487   2.453   3.934  0.6249  0.1360 -0.1815
 3333TIP3    H1 9963   2.545   2.523   3.964 -0.1250 -0.2002  2.2801
 3333TIP3    H2 9964   2.448   2.419   4.014 -2.3928 -0.1900 -1.6798
 3334TIP3   OH2 9965   4.468   4.095   4.355  0.2522  0.2530  0.2331
 3334TIP3    H1 9966   4.417   4.059   4.282 -0.1134  0.3484  0.4414
 3334TIP3    H2 9967   4.407   4.152   4.401  0.7752  1.0133  0.0087
 3335TIP3   OH2 9968   2.125   4.299   5.663 -0.0496  0.4896  0.5561
 3335TIP3    H1 9969   2.036   4.274   5.638  0.7109  0.2485 -2.2974
 3335TIP3    H2 9970   2.181   4.232   5.623  1.4491  0.8849  1.9084
 3336TIP3   OH2 9971   1.487   1.281   2.050 -0.0331 -0.0455 -0.0836
 3336TIP3    H1 9972   1.524   1.360   2.090  0.2257 -0.4516  0.5043
 3336TIP3    H2 9973   1.540   1.210   2.086 -1.6983 -0.7129  1.1995
 3337TIP3   OH2 9974   6.011   1.226   1.781  0.3142 -0.3339 -0.0434
 3337TIP3    H1 9975   5.983   1.193   1.867  1.2179  0.1339  0.4421
 3337TIP3    H2 9976   6.047   1.149   1.737  1.4637 -0.2475  0.6921
 3338TIP3   OH2 9977   5.745   4.634   4.623 -0.1072  0.0696  0.2409
 3338TIP3    H1 9978   5.822   4.684   4.594 -1.0961  0.3198 -2.2357
 3338TIP3    H2 9979   5.776   4.585   4.699  2.2509  0.8611 -0.1113
 3339TIP3   OH2 9980   0.134   1.474   5.225 -0.3069 -0.2680  0.0314
 3339TIP3    H1 9981   0.197   1.495   5.293 -0.4678  0.7395 -0.1227
 3339TIP3    H2 9982   0.053   1.516   5.253  0.1437  2.0131 -1.7729
 3340TIP3   OH2 9983   1.158   2.819   4.246  0.3189  0.1065 -0.2754
 3340TIP3    H1 9984   1.109   2.828   4.328 -1.3727 -0.7556 -1.1525
 3340TIP3    H2 9985   1.183   2.908   4.222 -3.3005  0.9908 -1.2522
 3341TIP3   OH2 9986   4.015   4.205   5.441 -0.1959 -0.1827  0.0574
 3341TIP3    H1 9987   3.968   4.204   5.357 -2.2217 -1.5455  1.1078
 3341TIP3    H2 9988   4.041   4.114   5.455  0.0510  0.0124  0.9411
 3342TIP3   OH2 9989   3.145   0.056   3.274 -0.3552 -0.2608 -0.3411
 3342TIP3    H1 9990   3.210   0.090   3.337  0.7265 -1.8368 -0.5604
 3342TIP3    H2 9991   3.068   0.037   3.328 -0.3173  0.7077  0.0853
 3343TIP3   OH2 9992   2.370   4.127   3.284  0.0360 -0.2203 -0.3164
 3343TIP3    H1 9993   2.316   4.058   3.324  0.0898 -0.6784 -1.0153
 3343TIP3    H2 9994   2.309   4.179   3.233  0.3054 -1.0165 -1.4843
 3344TIP3   OH2 9995   7.108   5.316   0.146  0.6683 -0.3899 -0.1942
 3344TIP3    H1 9996   7.056   5.287   0.071 -0.6702 -0.4754  0.7122
 3344TIP3    H2 9997   7.115   5.411   0.135 -0.6709 -0.2130  0.2154
 3345TIP3   OH2 9998   1.591   3.190   0.796  0.3040  0.0823  0.5277
 3345TIP3    H1 9999   1.685   3.185   0.778  1.1256 -0.7019  4.1738
 3345TIP3    H210000   1.566   3.100   0.816 -1.5678  0.0843 -1.4392
 3346TIP3   OH210001   0.514   1.356   5.579 -0.2946 -0.0616  0.1994
 3346TIP3    H110002   0.516   1.299   5.656 -1.2669 -0.9121 -0.3813
 3346TIP3    H210003   0.455   1.312   5.518 -3.8584  3.1227  0.9667
 3347TIP3   OH210004   4.041   0.268   3.916  0.1484  0.3838 -0.1721
 3347TIP3    H110005   4.043   0.209   3.992 -2.4029  2.7966  1.9440
 3347TIP3    H210006   3.968   0.236   3.863  0.9659 -0.3742 -0.8769
 3348TIP3   OH210007   4.666   0.875   5.483 -0.0903 -0.0967 -0.2420
 3348TIP3    H110008   4.649   0.858   5.391 -1.5274  1.4626 -0.3250
 3348TIP3    H210009   4.658   0.970   5.491  2.0637  0.0551  1.1288
 3349TIP3   OH210010   1.242   2.715   0.299 -0.2504  0.3387 -0.0597
 3349TIP3    H110011   1.253   2.757   0.214 -0.2999 -0.5622 -0.5195
 3349TIP3    H210012   1.270   2.625   0.285  0.5241  0.3764  1.0864
 3350TIP3   OH210013   6.729   5.826   1.353 -0.0320  0.0583 -0.1657
 3350TIP3    H110014   6.817   5.832   1.391  0.6506 -1.7926 -1.3589
 3350TIP3    H210015   6.705   5.734   1.363 -0.6461 -0.0672 -2.3878
 3351TIP3   OH210016   1.196   5.310   5.203  0.7152  0.1781  0.3066
 3351TIP3    H110017   1.211   5.280   5.293 -0.2163  0.3441  0.5271
 3351TIP3    H210018   1.273   5.363   5.183  1.8443 -1.3772  0.3183
 3352TIP3   OH210019   1.253   3.247   5.148 -0.0988  0.1387  0.5796
 3352TIP3    H110020   1.215   3.180   5.092  0.2408  1.4125 -1.2534
 3352TIP3    H210021   1.323   3.286   5.096  0.5832  1.0486  2.0893
 3353TIP3   OH210022   6.684   0.771   1.422  0.6894  0.1725 -0.3827
 3353TIP3    H110023   6.732   0.708   1.476 -1.0534  0.4747  1.6450
 3353TIP3    H210024   6.691   0.854   1.470  0.4656  0.8406 -1.4834
 3354TIP3   OH210025   0.707   2.439   5.460 -0.0109  0.9174  0.2259
 3354TIP3    H110026   0.672   2.523   5.491  0.0559  1.2485 -0.5695
 3354TIP3    H210027   0.771   2.463   5.393  1.8883  0.3450  1.7226
 3355TIP3   OH210028   4.604   1.352   4.074 -0.2695 -0.4721  0.0110
 3355TIP3    H110029   4.624   1.375   4.165  0.3817 -0.5480 -0.1073
 3355TIP3    H210030   4.669   1.400   4.023  0.7367 -2.0922 -0.2873
 3356TIP3   OH210031   3.942   0.762   3.975 -0.1064 -0.1411 -0.3425
 3356TIP3    H110032   3.960   0.849   4.012  0.7201 -1.1291  1.7464
 3356TIP3    H210033   3.868   0.776   3.916 -1.2695  1.6622  1.4035
 3357TIP3   OH210034   6.841   2.658   0.576 -0.0263  0.3171  0.5069
 3357TIP3    H110035   6.908   2.606   0.530 -0.1663  1.0178 -0.5332
 3357TIP3    H210036   6.788   2.593   0.622  0.6089 -0.3541  0.3156
 3358TIP3   OH210037   4.011   5.108   5.742 -0.2802 -0.2424 -0.0675
 3358TIP3    H110038   3.981   5.192   5.707 -0.6654 -1.0517 -1.8065
 3358TIP3    H210039   3.950   5.088   5.813  0.7142  1.6094  1.3791
 3359TIP3   OH210040   1.633   6.010   2.835  0.2507 -0.2798 -0.6188
 3359TIP3    H110041   1.566   5.942   2.830  1.9171 -2.0110 -0.3071
 3359TIP3    H210042   1.676   5.996   2.919 -0.6894  2.5332  0.4656
 3360TIP3   OH210043   6.422   4.017   4.481 -0.1653 -0.0202 -0.0066
 3360TIP3    H110044   6.466   4.085   4.430  0.6078  0.0212  0.7005
 3360TIP3    H210045   6.428   3.939   4.426  1.4010 -0.1820  0.3458
 3361TIP3   OH210046   1.315   3.275   1.422  0.6634  0.6861  0.3461
 3361TIP3    H110047   1.337   3.189   1.387 -1.3262 -0.0679  0.8366
 3361TIP3    H210048   1.240   3.304   1.370  1.3309  2.1680  0.1494
 3362TIP3   OH210049   6.818   4.686   0.827 -0.2357  0.0452  0.6788
 3362TIP3    H110050   6.779   4.681   0.740 -0.0308 -0.3355  0.6077
 3362TIP3    H210051   6.910   4.709   0.810  0.1061 -1.2006  0.7170
 3363TIP3   OH210052   2.023   3.901   3.344 -0.0816 -0.0880 -0.2178
 3363TIP3    H110053   2.021   3.847   3.264 -0.1813  0.1234 -0.3593
 3363TIP3    H210054   2.064   3.983   3.317  0.8464 -0.4110  0.2024
 3364TIP3   OH210055   1.181   3.820   4.782  0.0321  0.5008  0.1295
 3364TIP3    H110056   1.112   3.878   4.748  0.3709  0.4920 -0.6053
 3364TIP3    H210057   1.251   3.880   4.809  0.1192  0.4703 -0.0240
 3365TIP3   OH210058   6.481   0.283   1.988  0.3164 -0.3745  0.1359
 3365TIP3    H110059   6.424   0.243   2.054 -0.7378 -0.9832 -1.0966
 3365TIP3    H210060   6.520   0.358   2.034 -2.6101  0.9790  0.6829
 3366TIP3   OH210061   0.976   0.145   2.459 -0.3541 -0.6595 -0.2308
 3366TIP3    H110062   1.024   0.062   2.459  2.3869  0.8184 -0.4354
 3366TIP3    H210063   0.948   0.157   2.550  0.2871 -1.2463  0.0484
 3367TIP3   OH210064   6.436   1.602   5.657  0.0408 -0.4655  0.0608
 3367TIP3    H110065   6.363   1.555   5.617  2.0955 -1.8535 -2.3620
 3367TIP3    H210066   6.422   1.592   5.751 -3.6477  0.6884 -0.1830
 3368TIP3   OH210067   5.561   3.297   3.582  0.5307 -0.2334  0.6215
 3368TIP3    H110068   5.538   3.273   3.672  1.9929  1.7680  1.6133
 3368TIP3    H210069   5.655   3.314   3.585  0.4574  0.7168 -1.0672
 3369TIP3   OH210070   1.147   0.819   4.936 -0.3033 -0.7156 -0.2761
 3369TIP3    H110071   1.184   0.781   5.015  0.1863 -0.8861 -0.5840
 3369TIP3    H210072   1.100   0.897   4.967  0.9071 -0.0974  0.0372
 3370TIP3   OH210073   0.227   2.151   2.150  0.2675  0.2530  0.5627
 3370TIP3    H110074   0.225   2.125   2.058 -0.7817  1.1116  0.3267
 3370TIP3    H210075   0.153   2.212   2.160  1.1915  1.2548  1.6403
 3371TIP3   OH210076   5.914   4.930   3.494  0.0355  0.1214 -0.1411
 3371TIP3    H110077   5.823   4.960   3.487  0.6477  1.8602 -1.6271
 3371TIP3    H210078   5.966   5.007   3.472  1.8980 -0.7738  0.9057
 3372TIP3   OH210079   4.948   4.487   2.310  0.2599 -0.2861 -0.4999
 3372TIP3    H110080   4.975   4.550   2.376 -0.4545  2.1791 -2.4059
 3372TIP3    H210081   4.920   4.410   2.360  0.1173  1.3022  2.0255
 3373TIP3   OH210082   0.708   3.207   0.575  0.2190 -0.5341 -0.4069
 3373TIP3    H110083   0.697   3.255   0.657 -1.7098 -0.0880 -0.8764
 3373TIP3    H210084   0.718   3.274   0.508  2.9122 -0.8983 -0.4826
 3374TIP3   OH210085   4.594   2.251   1.064 -0.1544 -0.5102 -0.1511
 3374TIP3    H110086   4.686   2.259   1.089  0.1894  0.4486 -1.5868
 3374TIP3    H210087   4.550   2.317   1.118  0.6804  2.0516 -2.3765
 3375TIP3   OH210088   1.147   0.279   0.880 -0.2887  0.1249 -0.1545
 3375TIP3    H110089   1.227   0.325   0.856 -1.3739  1.9965 -0.3253
 3375TIP3    H210090   1.132   0.300   0.972 -1.4728  1.2324 -0.5676
 3376TIP3   OH210091   5.629   5.514   2.192  0.8221  0.2749 -0.2478
 3376TIP3    H110092   5.689   5.579   2.228 -0.0317  0.1549  1.5544
 3376TIP3    H210093   5.547   5.529   2.240  0.0638 -0.9456 -1.1022
 3377TIP3   OH210094   2.831   4.535   2.062 -0.6373 -0.1235  0.4152
 3377TIP3    H110095   2.875   4.594   2.001 -1.4691  1.8565  1.6041
 3377TIP3    H210096   2.755   4.502   2.014  0.4030 -1.1099 -0.6153
 3378TIP3   OH210097   6.394   6.529   5.437 -0.9007 -0.8966  0.5168
 3378TIP3    H110098   6.464   6.494   5.381 -0.7972  0.9690 -0.6197
 3378TIP3    H210099   6.326   6.463   5.435  0.2360 -2.1106  0.4551
 3379TIP3   OH210100   2.808   0.425   0.277 -0.6184  0.2914 -0.3455
 3379TIP3    H110101   2.807   0.504   0.331 -0.8742  0.1448 -0.1308
 3379TIP3    H210102   2.900   0.403   0.267 -0.5949 -0.0551  0.5844
 3380TIP3   OH210103   0.822   2.386   1.275  0.7370 -0.3974  0.0731
 3380TIP3    H110104   0.914   2.411   1.280  0.8192 -0.5677 -0.5563
 3380TIP3    H210105   0.785   2.442   1.206 -0.0538  0.9360  1.5124
 3381TIP3   OH210106   4.289   1.820   0.945  0.0504  0.0145 -0.1634
 3381TIP3    H110107   4.375   1.859   0.929  1.2393 -1.5365  1.9387
 3381TIP3    H210108   4.258   1.861   1.026  0.0309 -1.2868  0.5165
 3382TIP3   OH210109   6.347   2.724   1.349  0.4005 -0.5338  0.2733
 3382TIP3    H110110   6.274   2.745   1.408 -0.2400  0.9648 -0.9734
 3382TIP3    H210111   6.362   2.631   1.362 -1.3748 -0.7715  0.9804
 3383TIP3   OH210112   1.802   4.128   0.144 -0.2592 -0.6279 -0.1181
 3383TIP3    H110113   1.883   4.147   0.096 -0.4775  0.2056 -0.1663
 3383TIP3    H210114   1.747   4.081   0.082 -0.6208  0.6268 -0.7530
 3384TIP3   OH210115   2.372   6.206   3.281  0.3311  0.1452 -0.3851
 3384TIP3    H110116   2.341   6.145   3.348 -1.4424  0.5515 -0.8024
 3384TIP3    H210117   2.355   6.293   3.317  2.3030  0.4397 -0.0455
 3385TIP3   OH210118   1.333   4.233   2.882 -0.3474  0.0490  0.1718
 3385TIP3    H110119   1.377   4.237   2.967 -0.7278  0.5142  0.3469
 3385TIP3    H210120   1.401   4.203   2.821  0.3227  1.1641  0.3586
 3386TIP3   OH210121   7.229   5.982   2.356 -0.5594 -0.4183  0.1475
 3386TIP3    H110122   7.237   6.060   2.411 -2.0112 -0.4877  0.4842
 3386TIP3    H210123   7.136   5.977   2.333 -0.3680 -1.6486 -0.4598
 3387TIP3   OH210124   5.610   4.523   1.608  0.1888 -0.5245 -0.5055
 3387TIP3    H110125   5.580   4.541   1.698  0.5887  0.9006 -0.6192
 3387TIP3    H210126   5.682   4.460   1.619 -0.8452 -1.6401  0.0164
 3388TIP3   OH210127   6.366   3.303   2.844 -0.0222 -0.1165  0.2809
 3388TIP3    H110128   6.411   3.369   2.896 -0.1859  0.3823 -0.2127
 3388TIP3    H210129   6.276   3.333   2.840  0.2251  0.4753 -1.2891
 3389TIP3   OH210130   1.610   3.023   3.639 -0.0544 -0.2663  0.2612
 3389TIP3    H110131   1.641   3.015   3.549  2.3645  0.9066  0.8964
 3389TIP3    H210132   1.688   3.047   3.689 -1.2741 -1.0737  2.7216
 3390TIP3   OH210133   2.835   5.340   5.168 -0.2369  0.3121  0.3075
 3390TIP3    H110134   2.915   5.392   5.174 -0.7653  1.1046  0.5114
 3390TIP3    H210135   2.865   5.255   5.134  0.8143  0.2842  1.2435
 3391TIP3   OH210136   3.763   2.394   3.375 -0.1145 -0.4084 -0.3163
 3391TIP3    H110137   3.680   2.362   3.407 -0.6943 -0.2264 -1.5674
 3391TIP3    H210138   3.829   2.345   3.424 -0.9433 -0.5516  0.6870
 3392TIP3   OH210139   5.239   0.709   3.882 -0.1805  0.0489  0.5428
 3392TIP3    H110140   5.321   0.758   3.896 -0.5099  0.8014 -0.1320
 3392TIP3    H210141   5.190   0.722   3.964 -0.4975  1.3313  0.1842
 3393TIP3   OH210142   1.908   4.092   5.580 -0.2040 -0.3493  0.4948
 3393TIP3    H110143   1.987   4.041   5.601  0.5073 -1.3368 -3.7315
 3393TIP3    H210144   1.860   4.037   5.518 -0.8047  2.9523 -2.2235
 3394TIP3   OH210145   5.299   6.493   0.292 -0.5182  0.3414  0.3027
 3394TIP3    H110146   5.340   6.539   0.219  1.1162 -1.2248  0.1487
 3394TIP3    H210147   5.305   6.554   0.366  1.3769  0.5177  0.0590
 3395TIP3   OH210148   2.203   0.534   5.662 -0.3010  0.3145 -0.1191
 3395TIP3    H110149   2.161   0.472   5.603 -1.1248 -2.0901  2.7395
 3395TIP3    H210150   2.297   0.521   5.647 -0.4928 -0.2588 -0.8850
 3396TIP3   OH210151   5.552   3.202   4.433  0.1607  0.2589 -0.3629
 3396TIP3    H110152   5.509   3.213   4.518  1.1235  0.2608  0.1401
 3396TIP3    H210153   5.643   3.181   4.455  0.0611 -1.4082 -1.3687
 3397TIP3   OH210154   1.561   3.856   3.141  0.1410  0.4569  0.2651
 3397TIP3    H110155   1.602   3.933   3.180 -0.4332  0.4461  0.9095
 3397TIP3    H210156   1.470   3.860   3.169  0.0409 -0.3194  0.0845
 3398TIP3   OH210157   6.986   5.426   2.671  0.1714  0.0242  0.1610
 3398TIP3    H110158   6.945   5.508   2.698  0.8060 -0.5045  2.9908
 3398TIP3    H210159   6.929   5.357   2.705  1.2240 -0.7021  0.5041
 3399TIP3   OH210160   6.088   2.515   0.743  0.2755  0.4451  0.3480
 3399TIP3    H110161   6.150   2.553   0.681  0.5301  0.2227  0.4663
 3399TIP3    H210162   6.012   2.493   0.690 -0.0414  1.4918  0.3440
 3400TIP3   OH210163   4.341   4.313   4.461 -0.7648  0.0324  0.2498
 3400TIP3    H110164   4.345   4.370   4.384 -0.7663 -0.1077  0.1451
 3400TIP3    H210165   4.251   4.280   4.462 -0.2032 -1.7073 -0.9633
 3401TIP3   OH210166   1.225   3.035   3.863 -0.0772 -0.1520 -0.3214
 3401TIP3    H110167   1.237   2.943   3.887 -0.3806 -0.4570 -1.2981
 3401TIP3    H210168   1.314   3.069   3.854  0.0363 -0.3192  0.1386
 3402TIP3   OH210169   0.947   6.168   0.775 -0.2554  0.1880  0.1703
 3402TIP3    H110170   0.853   6.177   0.792  0.0226  1.6977  1.1182
 3402TIP3    H210171   0.983   6.255   0.794  1.4359 -0.5602  0.5668
 3403TIP3   OH210172   3.046   6.702   2.212 -0.2872 -0.2015  0.1315
 3403TIP3    H110173   3.052   6.793   2.239  2.4938 -0.5106  0.8586
 3403TIP3    H210174   3.069   6.702   2.119  0.2343 -0.2162  0.2603
 3404TIP3   OH210175   0.912   5.678   1.433 -0.2117  0.1752 -0.1487
 3404TIP3    H110176   0.899   5.718   1.519  0.6165  0.4133 -0.1241
 3404TIP3    H210177   0.841   5.712   1.380 -0.8646 -0.1498  0.4983
 3405TIP3   OH210178   6.121   0.691   3.244  0.2828  0.8898  0.0684
 3405TIP3    H110179   6.147   0.602   3.268 -1.0787  0.4155 -0.1641
 3405TIP3    H210180   6.153   0.746   3.317  1.8747  0.3554 -0.1901
 3406TIP3   OH210181   6.926   1.631   1.489 -0.3496 -0.1835 -0.5444
 3406TIP3    H110182   6.845   1.607   1.444 -0.8790  0.4323  0.0617
 3406TIP3    H210183   6.898   1.662   1.575  0.4768  0.5484 -0.5201
 3407TIP3   OH210184   4.399   0.362   0.525  0.3313 -0.3656 -0.2732
 3407TIP3    H110185   4.490   0.347   0.500  0.7982  0.4757  0.8272
 3407TIP3    H210186   4.374   0.443   0.480  0.4478 -0.0798  0.1636
 3408TIP3   OH210187   6.976   4.500   5.604  0.4161 -0.6514 -0.8103
 3408TIP3    H110188   6.932   4.462   5.529 -0.3390 -0.2672 -0.5783
 3408TIP3    H210189   6.953   4.442   5.677 -2.4675  1.2376 -0.0286
 3409TIP3   OH210190   4.332   4.251   4.722 -0.0224  0.6790 -0.2517
 3409TIP3    H110191   4.310   4.294   4.639 -1.5456 -1.4917 -1.0714
 3409TIP3    H210192   4.323   4.158   4.703  3.2866 -0.1227  1.3643
 3410TIP3   OH210193   1.554   1.814   2.064 -0.5604 -0.3456 -0.6567
 3410TIP3    H110194   1.484   1.853   2.116 -0.1129  2.7653 -2.1954
 3410TIP3    H210195   1.627   1.805   2.125 -0.8313  0.8530 -0.1372
 3411TIP3   OH210196   3.598   1.448   2.903 -0.5173  0.3405  0.3100
 3411TIP3    H110197   3.606   1.541   2.881 -1.9177  0.5830  0.7513
 3411TIP3    H210198   3.602   1.446   2.999  1.4326 -0.2779  0.2608
 3412TIP3   OH210199   0.930   2.482   4.387 -0.3188 -0.2276  0.2461
 3412TIP3    H110200   0.918   2.390   4.409  0.0185 -0.4447 -0.4481
 3412TIP3    H210201   1.024   2.492   4.374 -0.4536 -0.0455 -0.7247
 3413TIP3   OH210202   5.481   1.611   2.913  0.5920 -0.3793  0.3130
 3413TIP3    H110203   5.524   1.594   2.830  0.5357  1.0718 -0.0410
 3413TIP3    H210204   5.388   1.597   2.896  0.4483  1.1181 -0.2227
 3414TIP3   OH210205   0.401   2.850   1.298  0.6402 -0.4250 -0.1433
 3414TIP3    H110206   0.435   2.937   1.320 -0.5122 -0.0210  0.0740
 3414TIP3    H210207   0.382   2.809   1.383  0.6792 -0.7008 -0.2639
 3415TIP3   OH210208   2.165   0.925   3.270 -0.1930 -0.1059 -0.0296
 3415TIP3    H110209   2.233   0.859   3.287  2.1384  1.6786 -1.7496
 3415TIP3    H210210   2.136   0.908   3.181 -0.0697  0.7436 -0.2417
 3416TIP3   OH210211   1.279   2.800   1.795 -0.2630 -0.1588 -0.5901
 3416TIP3    H110212   1.349   2.743   1.764 -1.9329 -1.2205 -2.6578
 3416TIP3    H210213   1.277   2.872   1.732 -1.3672 -0.4506 -0.9197
 3417TIP3   OH210214   4.034   5.921   3.922  0.6355 -0.2559  0.1443
 3417TIP3    H110215   4.126   5.930   3.896  1.1053 -0.6099  1.5848
 3417TIP3    H210216   4.016   6.001   3.972 -0.0477  0.1084 -0.6559
 3418TIP3   OH210217   0.965   5.035   0.295  0.8663 -0.1098  0.3981
 3418TIP3    H110218   1.020   5.085   0.235  0.4796 -0.2807 -0.0989
 3418TIP3    H210219   0.989   4.944   0.280  0.5211 -0.1772  0.2524
 3419TIP3   OH210220   6.293   2.289   5.707 -0.7289  0.4256 -0.4880
 3419TIP3    H110221   6.369   2.236   5.685 -0.0379  1.1520  0.0870
 3419TIP3    H210222   6.223   2.256   5.651  0.0938 -0.0416 -1.2501
 3420TIP3   OH210223   2.004   6.251   4.007  0.9688  0.1530  0.0472
 3420TIP3    H110224   1.938   6.282   4.069  0.7470  1.6375 -0.8849
 3420TIP3    H210225   2.032   6.166   4.042 -1.7212 -0.7520  0.2846
 3421TIP3   OH210226   1.095   3.572   1.518 -0.3655  0.2545 -0.2976
 3421TIP3    H110227   1.055   3.540   1.437 -0.5326  0.7780 -0.4232
 3421TIP3    H210228   1.059   3.516   1.587 -1.1227  0.5542 -0.4404
 3422TIP3   OH210229   0.231   4.949   2.640 -0.1552 -0.2176  0.1499
 3422TIP3    H110230   0.292   4.876   2.646 -2.1063 -2.2035 -2.0600
 3422TIP3    H210231   0.166   4.931   2.708 -0.3815 -0.2700 -0.0803
 3423TIP3   OH210232   1.984   5.879   0.476 -0.3441  0.4314 -0.0954
 3423TIP3    H110233   1.999   5.964   0.434  0.2421  0.7318  0.7006
 3423TIP3    H210234   2.034   5.883   0.558  1.4476 -1.4606 -0.9900
 3424TIP3   OH210235   1.385   2.334   4.236 -0.4410  0.7368  0.0627
 3424TIP3    H110236   1.474   2.307   4.213 -0.4274 -2.0242  2.6938
 3424TIP3    H210237   1.328   2.275   4.186 -0.7743  1.7011 -0.7164
 3425TIP3   OH210238   5.488   6.349   4.361 -0.1433  0.0406 -0.2422
 3425TIP3    H110239   5.582   6.362   4.346  0.2077 -0.0514  1.6279
 3425TIP3    H210240   5.466   6.412   4.430 -0.8231 -1.7375  1.2431
 3426TIP3   OH210241   2.973   2.937   4.518  0.0030  0.8494  0.1574
 3426TIP3    H110242   3.050   2.960   4.569  0.5379 -0.9535  0.2320
 3426TIP3    H210243   2.934   2.864   4.565  0.1032 -0.3837 -1.5689
 3427TIP3   OH210244   5.972   2.736   2.760  0.4667 -0.2707  0.0974
 3427TIP3    H110245   6.062   2.768   2.753  0.4842 -0.3333  0.0300
 3427TIP3    H210246   5.918   2.815   2.756  0.5508 -0.1559  0.9248
 3428TIP3   OH210247   5.813   1.448   2.257 -0.0014  0.2121  0.1145
 3428TIP3    H110248   5.895   1.484   2.222 -0.3717  0.6838 -0.2910
 3428TIP3    H210249   5.768   1.524   2.296 -0.4624  0.0597 -0.1061
 3429TIP3   OH210250   2.132   4.411   3.176  0.3770 -0.0229 -0.6076
 3429TIP3    H110251   2.170   4.466   3.107  1.2125  0.7425  0.4298
 3429TIP3    H210252   2.137   4.465   3.255  2.1226 -1.9091  0.6707
 3430TIP3   OH210253   2.045   4.320   4.015  0.1800  0.6531 -0.0040
 3430TIP3    H110254   2.040   4.228   4.043  0.4538 -0.2737 -2.6550
 3430TIP3    H210255   2.099   4.317   3.935 -0.4318  3.0248 -0.5695
 3431TIP3   OH210256   5.949   1.353   2.499 -0.4807 -0.2851  0.1610
 3431TIP3    H110257   5.893   1.388   2.430 -0.1828 -0.0312  0.0479
 3431TIP3    H210258   6.032   1.333   2.455  0.0783  0.8766  0.6533
 3432TIP3   OH210259   7.032   2.977   4.193  0.1490 -0.1669  0.3097
 3432TIP3    H110260   7.089   2.984   4.270  0.5833 -0.2012 -0.0048
 3432TIP3    H210261   6.946   2.954   4.229  0.3698 -0.2733  0.7777
 3433TIP3   OH210262   2.480   1.057   5.457  0.2216 -0.0926  0.0142
 3433TIP3    H110263   2.525   1.136   5.486 -0.0251  0.4799 -1.1108
 3433TIP3    H210264   2.412   1.088   5.397  0.5098 -1.1952 -0.9211
 3434TIP3   OH210265   7.034   1.960   4.250 -0.4515 -0.5301 -0.4412
 3434TIP3    H110266   7.071   1.892   4.306 -1.0502 -0.7657 -0.3236
 3434TIP3    H210267   7.094   1.964   4.175  0.3987 -0.1417  0.2600
 3435TIP3   OH210268   5.551   1.109   5.494 -0.3371  0.1524  0.4591
 3435TIP3    H110269   5.609   1.075   5.563 -0.2517 -0.0142  0.3066
 3435TIP3    H210270   5.556   1.043   5.424  1.3361  1.3695 -0.6608
 3436TIP3   OH210271   6.862   5.115   0.905  0.1544 -0.0570 -0.7093
 3436TIP3    H110272   6.946   5.101   0.860  0.5362  1.5016 -0.5428
 3436TIP3    H210273   6.869   5.063   0.984  1.4698  0.9011 -0.1396
 3437TIP3   OH210274   6.592   0.062   0.043 -0.3254  0.1434 -0.2046
 3437TIP3    H110275   6.678   0.066  -0.000 -0.6521 -1.9100 -1.1682
 3437TIP3    H210276   6.604  -0.002   0.113 -1.2847 -0.8921 -0.9566
 3438TIP3   OH210277   0.012   6.765   4.530 -0.3205 -0.4406  0.3316
 3438TIP3    H110278   0.003   6.798   4.619 -2.4324 -1.5371  0.6020
 3438TIP3    H210279   0.105   6.746   4.520  0.4184  2.2390  1.3128
 3439TIP3   OH210280   4.818   3.672   5.172  0.4165 -0.4535  0.1363
 3439TIP3    H110281   4.807   3.677   5.077 -0.9546 -0.2164  0.2770
 3439TIP3    H210282   4.912   3.671   5.186  0.7061 -3.3678 -1.3684
 3440TIP3   OH210283   3.426   0.704   2.216  0.5009  0.3556  0.1572
 3440TIP3    H110284   3.434   0.614   2.182 -1.2036  0.8839 -1.8896
 3440TIP3    H210285   3.501   0.750   2.180  0.5911  0.0859 -0.0060
 3441TIP3   OH210286   3.021   2.476   5.595  0.4361  0.5656 -0.1711
 3441TIP3    H110287   3.102   2.490   5.548  0.8038 -1.3428 -0.1728
 3441TIP3    H210288   2.969   2.555   5.579  0.5078  0.0229 -3.7972
 3442TIP3   OH210289   4.602   5.355   2.049  0.2464 -0.4121  0.1782
 3442TIP3    H110290   4.644   5.341   2.134  0.8248  0.2436  0.0181
 3442TIP3    H210291   4.511   5.328   2.062  0.6235 -1.4952  0.6455
 3443TIP3   OH210292   4.739   0.112   0.868  0.4056 -0.4624 -0.2608
 3443TIP3    H110293   4.731   0.077   0.780  0.3143 -1.3529  0.0865
 3443TIP3    H210294   4.826   0.150   0.872  0.0567  0.4480 -1.0279
 3444TIP3   OH210295   3.354   2.844   0.193  0.0213  0.4685 -0.2566
 3444TIP3    H110296   3.417   2.901   0.238  0.5645 -1.2063  1.2292
 3444TIP3    H210297   3.408   2.779   0.148 -0.6117 -0.2507 -0.0036
 3445TIP3   OH210298   1.607   0.763   2.724 -0.0519  0.2771 -0.8245
 3445TIP3    H110299   1.646   0.760   2.637  2.1087 -2.3880  0.0515
 3445TIP3    H210300   1.678   0.795   2.781 -0.5003 -0.5970  0.2772
 3446TIP3   OH210301   4.860   5.339   5.721  0.6869 -1.1696 -0.4903
 3446TIP3    H110302   4.892   5.348   5.631  1.0982 -0.0801 -0.2448
 3446TIP3    H210303   4.933   5.366   5.776 -0.1787  0.0519  0.1135
 3447TIP3   OH210304   5.634   3.073   0.819 -0.2689  0.6149 -0.1574
 3447TIP3    H110305   5.625   3.004   0.885  0.9726 -0.0711 -0.6885
 3447TIP3    H210306   5.630   3.027   0.735  1.0907  1.1093 -0.5086
 3448TIP3   OH210307   4.753   5.570   4.353  0.1447 -0.1426  0.0397
 3448TIP3    H110308   4.701   5.649   4.338  2.0868  1.3969  0.9239
 3448TIP3    H210309   4.750   5.558   4.448 -0.5036 -1.4312 -0.1263
 3449TIP3   OH210310   1.511   0.986   4.484 -0.1371  0.1610  0.1912
 3449TIP3    H110311   1.441   1.051   4.489 -0.5982 -0.1355 -1.7049
 3449TIP3    H210312   1.467   0.902   4.489  0.0434 -0.0293 -1.0278
 3450TIP3   OH210313   6.857   5.055   3.535 -0.1484  0.4680 -0.3269
 3450TIP3    H110314   6.864   5.034   3.442  0.0204  0.5280 -0.3282
 3450TIP3    H210315   6.917   5.128   3.547 -1.3224  1.4854 -0.4842
 3451TIP3   OH210316   5.161   4.845   3.057 -0.0609 -0.1117  0.3623
 3451TIP3    H110317   5.089   4.905   3.037  1.9042  3.1038  2.0933
 3451TIP3    H210318   5.127   4.786   3.124 -1.5126  0.2880 -0.0070
 3452TIP3   OH210319   3.142   5.428   0.580 -0.0294  0.0626  0.0604
 3452TIP3    H110320   3.091   5.498   0.621 -0.7676 -0.9965  1.0360
 3452TIP3    H210321   3.079   5.383   0.523 -0.0808 -0.9281  0.8683
 3453TIP3   OH210322   2.743   4.512   3.045 -0.1363  0.1731  0.1229
 3453TIP3    H110323   2.826   4.467   3.032  0.4120  1.0423  0.5346
 3453TIP3    H210324   2.742   4.580   2.978  0.2445  1.2065  1.1336
 3454TIP3   OH210325   2.450   1.965   4.221 -0.5211 -0.3017 -0.2743
 3454TIP3    H110326   2.505   1.917   4.160 -2.0244  0.2487 -2.1655
 3454TIP3    H210327   2.415   1.898   4.280  1.3651 -0.7710  0.4029
 3455TIP3   OH210328   5.848   2.496   0.585  0.1794  0.2001  0.7509
 3455TIP3    H110329   5.766   2.486   0.536  0.4046 -2.1597  0.7473
 3455TIP3    H210330   5.904   2.548   0.527 -1.6304  2.9047  1.2600
 3456TIP3   OH210331   3.880   6.772   2.704  0.0367  0.2363 -0.0035
 3456TIP3    H110332   3.964   6.756   2.660 -1.0061 -1.9264 -1.3581
 3456TIP3    H210333   3.814   6.756   2.636 -1.5703 -0.6364  1.6864
 3457TIP3   OH210334   4.703   2.513   4.642 -0.8465  1.0343  0.4165
 3457TIP3    H110335   4.674   2.470   4.722  1.3394  0.8853  1.1797
 3457TIP3    H210336   4.741   2.596   4.671 -0.0753  1.0028 -0.4694
 3458TIP3   OH210337   4.218   3.468   1.717 -0.2210 -0.0906 -0.4409
 3458TIP3    H110338   4.278   3.446   1.787  1.5126 -0.2641 -1.9188
 3458TIP3    H210339   4.237   3.405   1.647 -1.8848  0.0727 -1.1040
 3459TIP3   OH210340   5.388   0.672   0.525  0.1113 -0.5146  0.6043
 3459TIP3    H110341   5.300   0.638   0.509  0.1382 -0.3350  0.0453
 3459TIP3    H210342   5.386   0.703   0.616 -0.4022 -0.5143  0.5942
 3460TIP3   OH210343   2.121   4.467   0.947 -0.2873  0.0981  0.0608
 3460TIP3    H110344   2.105   4.461   0.852 -1.8634 -0.8629  0.3388
 3460TIP3    H210345   2.103   4.559   0.968  2.5414  0.9702 -0.9137
 3461TIP3   OH210346   3.674   0.358   2.390  0.0070  0.1447 -0.5038
 3461TIP3    H110347   3.616   0.299   2.343 -0.1153  0.1712 -0.3858
 3461TIP3    H210348   3.656   0.342   2.482 -1.0912  1.4060 -0.4751
 3462TIP3   OH210349   5.748   6.674   4.720  0.4697 -0.0468 -0.5085
 3462TIP3    H110350   5.819   6.694   4.781  0.9170  0.9900 -1.3311
 3462TIP3    H210351   5.738   6.754   4.669  1.2918 -1.4239 -2.9766
 3463TIP3   OH210352   5.503   3.232   3.866 -0.4292  0.0251  0.2462
 3463TIP3    H110353   5.507   3.218   3.961  2.3370 -0.0270  0.2164
 3463TIP3    H210354   5.569   3.300   3.849 -1.2429  0.4203 -1.5987
 3464TIP3   OH210355   5.439   4.945   4.082 -0.2410 -0.4235 -0.5720
 3464TIP3    H110356   5.402   4.911   4.163  1.9876 -0.9210  0.3103
 3464TIP3    H210357   5.453   4.868   4.028  0.6737 -0.4004 -0.3763
 3465TIP3   OH210358   1.453   4.684   4.401 -0.3645  0.0195  0.0592
 3465TIP3    H110359   1.419   4.607   4.356 -1.4239  1.1878 -1.2605
 3465TIP3    H210360   1.532   4.654   4.445  0.1278 -1.4795 -1.7117
 3466TIP3   OH210361   1.135   5.341   3.316  0.0458  0.0092  0.5266
 3466TIP3    H110362   1.089   5.380   3.242  2.0318  1.9657  0.2554
 3466TIP3    H210363   1.166   5.257   3.282 -1.4281 -0.3861  0.0607
 3467TIP3   OH210364   1.375   5.119   4.693  0.1972  0.3722 -0.4487
 3467TIP3    H110365   1.368   5.029   4.724  2.0964  0.8535  1.6700
 3467TIP3    H210366   1.435   5.114   4.618 -0.1904 -0.1654 -0.7316
 3468TIP3   OH210367   7.185   2.360   1.223  0.4635 -0.3253 -0.1696
 3468TIP3    H110368   7.152   2.428   1.165 -0.8953  1.3076  2.3670
 3468TIP3    H210369   7.133   2.282   1.200 -1.1990  0.7149 -0.0790
 3469TIP3   OH210370   0.471   3.505   4.834 -0.3644  0.0470 -0.2164
 3469TIP3    H110371   0.546   3.446   4.830 -0.4470  0.0111 -1.3967
 3469TIP3    H210372   0.431   3.500   4.747  0.0716  2.4287 -0.6144
 3470TIP3   OH210373   6.534   2.090   3.958 -0.4218  0.3504 -0.1586
 3470TIP3    H110374   6.545   1.996   3.972 -1.9036  0.4250  2.0819
 3470TIP3    H210375   6.527   2.100   3.863  3.2681 -1.2907 -0.8107
 3471TIP3   OH210376   6.158   6.073   2.906 -0.0271  0.3725  0.4533
 3471TIP3    H110377   6.120   5.988   2.927 -1.7138  1.0880  0.3964
 3471TIP3    H210378   6.248   6.067   2.939 -0.0169 -1.5236  0.1813
 3472TIP3   OH210379   2.986   5.006   1.347 -0.1960  0.0296  0.3374
 3472TIP3    H110380   2.972   4.924   1.300 -0.1181  1.0938 -1.6591
 3472TIP3    H210381   2.922   5.066   1.310  0.3284  1.1278  1.1390
 3473TIP3   OH210382   3.517   6.302   3.159 -0.2961  0.6616  0.3384
 3473TIP3    H110383   3.510   6.207   3.152 -1.3056  0.6564  1.1616
 3473TIP3    H210384   3.540   6.318   3.251 -1.3504  1.2527  0.5179
 3474TIP3   OH210385   2.366   6.473   4.849 -0.3337  0.1581  0.3199
 3474TIP3    H110386   2.359   6.487   4.754  1.9442  0.3727  0.1255
 3474TIP3    H210387   2.378   6.561   4.885  2.8195 -0.1284  0.2945
 3475TIP3   OH210388   0.200   0.365   4.924 -0.0065 -0.2981  0.0495
 3475TIP3    H110389   0.222   0.443   4.873 -1.5936 -0.1424 -0.4297
 3475TIP3    H210390   0.206   0.292   4.862 -1.6647 -0.1428 -0.3204
 3476TIP3   OH210391   6.987   6.637   3.524  0.2634  0.2105  0.0702
 3476TIP3    H110392   6.985   6.670   3.614 -0.6519  1.5410 -0.4133
 3476TIP3    H210393   6.965   6.544   3.533  2.2938 -0.2096  1.4011
 3477TIP3   OH210394   3.052   6.732   5.342  0.1540 -0.0815 -0.5933
 3477TIP3    H110395   2.976   6.748   5.286  0.3839 -0.4860 -1.0329
 3477TIP3    H210396   3.110   6.806   5.325 -0.6810  0.9140  0.7133
 3478TIP3   OH210397   6.969   4.545   3.314  0.4616  0.2123 -0.0252
 3478TIP3    H110398   7.051   4.514   3.352  0.6589 -1.2612 -1.5281
 3478TIP3    H210399   6.902   4.515   3.376  0.9873  0.6150  0.7436
 3479TIP3   OH210400   0.916   4.395   0.651  0.2510 -0.1263 -0.1687
 3479TIP3    H110401   0.827   4.416   0.622  0.2354  0.5765  0.3692
 3479TIP3    H210402   0.908   4.308   0.689  0.5912 -1.8575 -3.6967
 3480TIP3   OH210403   5.373   2.724   0.843 -0.0015  0.7059 -0.4846
 3480TIP3    H110404   5.343   2.803   0.887  1.9480  0.8057  0.7711
 3480TIP3    H210405   5.466   2.737   0.829  0.3259 -1.2675 -0.4761
 3481TIP3   OH210406   4.906   6.709   4.039 -0.2591 -0.0702 -0.2393
 3481TIP3    H110407   4.873   6.629   4.081 -0.5806 -0.3281 -0.9665
 3481TIP3    H210408   4.835   6.772   4.049 -1.0898 -0.6691 -1.9313
 3482TIP3   OH210409   5.893   4.668   1.039  0.3162  0.3905 -0.1027
 3482TIP3    H110410   5.822   4.604   1.043  0.0036  0.7809  0.7214
 3482TIP3    H210411   5.965   4.621   0.996  0.4375 -0.8577  1.3817
 3483TIP3   OH210412   3.309   0.902   5.022 -0.3473  0.4536 -0.1132
 3483TIP3    H110413   3.361   0.921   5.100 -0.4518  0.9699 -0.1655
 3483TIP3    H210414   3.372   0.874   4.956 -0.0499  1.7113 -0.3818
 3484TIP3   OH210415   0.970   5.159   3.524 -0.5127  0.3329 -0.1721
 3484TIP3    H110416   0.949   5.192   3.437  1.5679 -2.8226 -2.1270
 3484TIP3    H210417   1.066   5.161   3.527 -0.5504  0.5513  2.1726
 3485TIP3   OH210418   3.589   5.621   1.467  0.2101 -0.1050  0.0011
 3485TIP3    H110419   3.630   5.631   1.552  1.1955  0.5292 -0.5255
 3485TIP3    H210420   3.592   5.527   1.449  0.7321 -0.1490  0.3122
 3486TIP3   OH210421   1.507   0.534   1.944  0.0735 -0.0694  0.3300
 3486TIP3    H110422   1.490   0.452   1.990  1.7634  0.3961  1.8897
 3486TIP3    H210423   1.560   0.508   1.869  1.0825 -0.3799  1.1261
 3487TIP3   OH210424   2.736   3.502   5.709 -0.3639  0.6218  0.2966
 3487TIP3    H110425   2.784   3.585   5.707 -0.0650  0.4589  0.7118
 3487TIP3    H210426   2.750   3.468   5.797  0.5020 -0.4446 -0.2409
 3488TIP3   OH210427   0.793   6.825   5.225 -0.6184 -0.3988  0.6533
 3488TIP3    H110428   0.875   6.804   5.271 -0.3688  1.2890  1.0504
 3488TIP3    H210429   0.752   6.740   5.209  0.1423 -1.1515  2.4316
 3489TIP3   OH210430   0.399   0.299   3.356 -0.5546 -0.8745 -0.0816
 3489TIP3    H110431   0.464   0.242   3.397 -1.8670 -1.6673  0.9996
 3489TIP3    H210432   0.439   0.326   3.273  1.2381 -1.1004  0.6669
 3490TIP3   OH210433   3.665   1.377   4.140  0.0324 -0.3328 -0.6609
 3490TIP3    H110434   3.605   1.394   4.213  0.0555  0.9570 -0.9217
 3490TIP3    H210435   3.609   1.344   4.070  0.0079 -1.5756 -0.0805
 3491TIP3   OH210436   5.783   3.938   5.411 -0.0735  0.3201 -0.0119
 3491TIP3    H110437   5.789   4.033   5.422  1.5121  0.1945  0.4263
 3491TIP3    H210438   5.793   3.923   5.317  0.4660  0.5498  0.0060
 3492TIP3   OH210439   0.927   0.333   5.528  0.2044 -0.7304 -0.2672
 3492TIP3    H110440   0.857   0.268   5.515 -0.5047 -0.3907  1.5583
 3492TIP3    H210441   0.881   0.412   5.555  1.1442  0.2719 -1.4899
 3493TIP3   OH210442   4.645   4.783   5.580 -0.1203  0.1992 -0.0012
 3493TIP3    H110443   4.580   4.713   5.582  0.7056 -0.5909  2.8104
 3493TIP3    H210444   4.721   4.743   5.536 -0.9021  0.6246 -1.8423
 3494TIP3   OH210445   2.755   5.085   5.729 -0.1756  0.3101  0.2976
 3494TIP3    H110446   2.752   4.994   5.701 -0.6339  0.7101 -1.0614
 3494TIP3    H210447   2.703   5.088   5.809  1.8151 -1.0373  1.7301
 3495TIP3   OH210448   2.058   4.645   4.322 -0.2702  0.0587  0.0469
 3495TIP3    H110449   1.979   4.686   4.357 -1.2459 -1.4532 -0.2485
 3495TIP3    H210450   2.130   4.688   4.367 -1.2238  1.8132 -0.0204
 3496TIP3   OH210451   5.462   4.336   5.440 -0.0368 -0.0831 -0.1339
 3496TIP3    H110452   5.421   4.289   5.513  0.4994 -1.6151 -0.7738
 3496TIP3    H210453   5.389   4.380   5.397 -0.6577 -0.7700  0.1791
 3497TIP3   OH210454   4.918   6.743   1.709 -0.0423 -0.2621 -0.1006
 3497TIP3    H110455   4.852   6.804   1.743  0.4580  0.2077  0.0278
 3497TIP3    H210456   4.872   6.695   1.640 -0.4737  0.1833 -0.1328
 3498TIP3   OH210457   3.365   0.352   2.968  0.2432 -0.4545  0.8678
 3498TIP3    H110458   3.295   0.415   2.951 -0.5325 -1.3248  0.7752
 3498TIP3    H210459   3.369   0.299   2.888  1.2611 -0.1942  0.7255
 3499TIP3   OH210460   4.336   2.928   4.200  0.1905  0.5008  0.5135
 3499TIP3    H110461   4.394   2.984   4.149  0.4563  0.2712  0.5622
 3499TIP3    H210462   4.391   2.894   4.270  0.5988 -1.4234 -0.6507
 3500TIP3   OH210463   3.383   0.103   1.694 -0.2433  0.1578  0.4204
 3500TIP3    H110464   3.354   0.016   1.665 -0.1248  0.7969 -1.7894
 3500TIP3    H210465   3.443   0.133   1.626  0.1660  1.7576  1.4229
 3501TIP3   OH210466   0.207   0.833   2.992  0.0195 -0.0084  0.1590
 3501TIP3    H110467   0.141   0.884   2.946  1.2904  0.3757 -1.3076
 3501TIP3    H210468   0.172   0.744   2.994 -0.6233  0.2256 -0.4415
 3502TIP3   OH210469   4.176   0.009   0.825 -0.5328 -0.1364 -0.0495
 3502TIP3    H110470   4.193   0.055   0.907 -1.4668  2.6483 -1.2996
 3502TIP3    H210471   4.090  -0.031   0.836 -0.9854  0.8629  0.0769
 3503TIP3   OH210472   5.452   6.594   4.502 -0.6369  0.0777 -0.3866
 3503TIP3    H110473   5.364   6.611   4.468 -1.0807  0.6902  0.9890
 3503TIP3    H210474   5.451   6.633   4.590  0.4926 -1.3374  0.2809
 3504TIP3   OH210475   5.219   6.345   2.980 -0.5793 -0.0728 -0.0839
 3504TIP3    H110476   5.212   6.362   2.886  0.4317  1.1907  0.0334
 3504TIP3    H210477   5.304   6.301   2.989  1.0030  2.8415  0.5301
 3505TIP3   OH210478   3.585   2.225   3.460 -0.1686 -0.2395 -0.3953
 3505TIP3    H110479   3.518   2.253   3.523  0.1944 -0.6344  0.1649
 3505TIP3    H210480   3.557   2.138   3.433  0.0277 -0.3361 -0.2883
 3506TIP3   OH210481   3.534   1.184   4.982  0.1644  0.1663 -0.2618
 3506TIP3    H110482   3.616   1.144   4.953  0.4927  1.3505 -1.0421
 3506TIP3    H210483   3.531   1.268   4.937 -1.4457  0.1884 -0.1684
 3507TIP3   OH210484   6.480   1.483   5.341  0.4732  0.5473 -0.1460
 3507TIP3    H110485   6.486   1.579   5.341 -1.1589  0.7000 -1.7280
 3507TIP3    H210486   6.506   1.458   5.253  1.4639 -0.5418  0.4360
 3508TIP3   OH210487   6.508   2.485   4.513  0.6424  0.4827 -0.3664
 3508TIP3    H110488   6.504   2.576   4.542 -1.5121 -0.1545  1.7699
 3508TIP3    H210489   6.541   2.489   4.424  3.0728  3.0909  0.5009
 3509TIP3   OH210490   6.257   6.298   4.658  0.3887  0.3161 -0.0957
 3509TIP3    H110491   6.288   6.388   4.666 -0.6719  0.8280 -1.3347
 3509TIP3    H210492   6.273   6.276   4.566 -0.3095 -0.3968 -0.0507
 3510TIP3   OH210493   1.048   1.832   1.086 -0.4311  0.2890  0.0639
 3510TIP3    H110494   0.965   1.785   1.075  0.1231 -0.5025 -0.8355
 3510TIP3    H210495   1.022   1.924   1.093 -1.3573  0.1075 -0.7481
 3511TIP3   OH210496   6.339   4.236   0.662 -0.5372 -0.1022 -0.1264
 3511TIP3    H110497   6.274   4.299   0.694 -0.2632 -0.9271  2.2281
 3511TIP3    H210498   6.421   4.286   0.660 -0.5284 -0.0606  0.6973
 3512TIP3   OH210499   4.219   4.514   0.227  0.9930 -0.4061  0.9027
 3512TIP3    H110500   4.161   4.503   0.302  2.0785 -1.0572  1.6798
 3512TIP3    H210501   4.301   4.471   0.253  0.4993 -3.3096 -1.7430
 3513TIP3   OH210502   3.212   1.446   4.040  0.3915  0.2219 -0.3720
 3513TIP3    H110503   3.292   1.497   4.032 -0.7685  2.1834 -0.0714
 3513TIP3    H210504   3.234   1.360   4.004  3.1080  0.1267  1.2836
 3514TIP3   OH210505   6.350   0.784   3.783  0.3154  0.2055  0.1306
 3514TIP3    H110506   6.414   0.825   3.841  0.4121 -1.2708  1.1132
 3514TIP3    H210507   6.369   0.691   3.789 -3.1538 -0.5189  2.0087
 3515TIP3   OH210508   2.461   6.594   5.227 -0.4130 -0.3947  0.1954
 3515TIP3    H110509   2.473   6.618   5.135 -0.5174 -2.5731 -0.4448
 3515TIP3    H210510   2.514   6.515   5.238 -1.7496 -1.1527  1.5386
 3516TIP3   OH210511   1.637   0.974   0.286 -0.1087  0.7677 -0.3522
 3516TIP3    H110512   1.702   0.908   0.264  2.1575  1.8613  2.4306
 3516TIP3    H210513   1.559   0.924   0.312  0.0165 -0.6003 -2.3960
 3517TIP3   OH210514   2.221   5.108   4.244 -0.1369 -0.1195 -0.2789
 3517TIP3    H110515   2.268   5.175   4.293 -1.1678  2.2658 -2.2926
 3517TIP3    H210516   2.151   5.080   4.303  0.1961  0.7433  0.5474
 3518TIP3   OH210517   1.032   2.303   2.496  0.1324 -0.6663 -0.7190
 3518TIP3    H110518   1.066   2.229   2.445  0.6975  0.7414 -2.5132
 3518TIP3    H210519   1.089   2.308   2.573  1.3262 -0.9428 -1.5567
 3519TIP3   OH210520   6.918   5.697   5.747  0.1922  0.2110  0.6501
 3519TIP3    H110521   6.960   5.613   5.728  2.3346  1.3001  0.3186
 3519TIP3    H210522   6.903   5.694   5.842  0.3639 -0.4975  0.6631
 3520TIP3   OH210523   1.642   6.456   0.421 -0.1058 -0.4813 -0.2331
 3520TIP3    H110524   1.731   6.456   0.386 -0.3898 -0.1333 -0.9699
 3520TIP3    H210525   1.590   6.408   0.357 -1.0198  1.8559 -1.3804
 3521TIP3   OH210526   3.752   0.366   5.798  0.5186 -0.1159  0.2298
 3521TIP3    H110527   3.674   0.419   5.814  0.2970 -0.5080  0.4460
 3521TIP3    H210528   3.825   0.429   5.801  0.0657  0.6070 -1.9276
 3522TIP3   OH210529   6.180   0.540   4.402  0.1167  0.0739  0.4589
 3522TIP3    H110530   6.230   0.581   4.473 -0.1180  0.9943  0.1059
 3522TIP3    H210531   6.174   0.608   4.335 -0.3119 -0.5378 -0.1282
 3523TIP3   OH210532   3.543   6.376   3.585  0.3201 -0.2987  0.5096
 3523TIP3    H110533   3.461   6.342   3.550  0.5734 -0.0881 -0.3256
 3523TIP3    H210534   3.570   6.443   3.521  0.4009  0.6708  1.5324
 3524TIP3   OH210535   4.760   4.003   3.741  0.0114  0.2355 -0.3597
 3524TIP3    H110536   4.736   4.039   3.826 -1.3089  2.4128 -1.5457
 3524TIP3    H210537   4.676   3.976   3.702  0.3244  1.0601 -1.6855
 3525TIP3   OH210538   2.829   5.264   3.333 -0.0819  0.0933 -0.5427
 3525TIP3    H110539   2.917   5.245   3.365 -0.4434 -0.5023  0.1202
 3525TIP3    H210540   2.775   5.268   3.412 -1.3612 -3.2647 -1.1124
 3526TIP3   OH210541   6.004   5.251   0.026  0.2622 -0.0687  0.0259
 3526TIP3    H110542   6.095   5.221   0.020 -0.0837 -1.4191  0.9418
 3526TIP3    H210543   5.982   5.243   0.119 -0.4329  1.4155  0.0187
 3527TIP3   OH210544   4.651   5.315   4.235  0.3364 -0.3638  0.6160
 3527TIP3    H110545   4.648   5.331   4.140  0.3092 -0.0524  0.6677
 3527TIP3    H210546   4.645   5.402   4.274  1.2749 -0.4132  0.8951
 3528TIP3   OH210547   2.917   1.757   4.825 -0.3550 -0.3146  0.1000
 3528TIP3    H110548   2.987   1.744   4.889  0.4977 -2.1617 -1.1397
 3528TIP3    H210549   2.837   1.733   4.872  0.3338 -2.3250  0.3104
 3529TIP3   OH210550   3.665   4.841   2.025  0.4058  0.0099 -0.2874
 3529TIP3    H110551   3.610   4.811   2.097 -0.7073  1.2045 -0.6100
 3529TIP3    H210552   3.750   4.856   2.065  0.6008 -2.0343  0.1851
 3530TIP3   OH210553   0.378   1.004   4.207  0.3290  0.0031  0.0865
 3530TIP3    H110554   0.435   0.953   4.150 -1.0035  1.5031 -2.8384
 3530TIP3    H210555   0.290   0.971   4.189 -0.5374  2.8413 -1.6282
 3531TIP3   OH210556   3.597   0.134   3.349  0.5120 -0.5562  0.1129
 3531TIP3    H110557   3.530   0.110   3.285 -0.2976  0.7363  0.4381
 3531TIP3    H210558   3.549   0.144   3.431  1.3239 -0.8850  0.6408
 3532TIP3   OH210559   6.947   1.927   0.820 -0.7610 -0.4277 -0.0323
 3532TIP3    H110560   6.996   1.860   0.867  1.4633  1.9592  1.3371
 3532TIP3    H210561   6.990   1.933   0.734  0.4351  0.5559  0.5904
 3533TIP3   OH210562   2.055   2.673   4.867 -0.1291 -0.1991 -0.1394
 3533TIP3    H110563   2.028   2.623   4.944  0.6012 -0.4624 -0.0483
 3533TIP3    H210564   1.981   2.730   4.848 -0.3284 -0.1625  0.7336
 3534TIP3   OH210565   6.514   5.804   4.237  0.0073  0.2605 -0.6467
 3534TIP3    H110566   6.528   5.870   4.305  1.8197 -0.4200 -0.3108
 3534TIP3    H210567   6.500   5.855   4.157  1.7527  1.0941 -0.4622
 3535TIP3   OH210568   1.846   0.191   4.919  1.0547 -0.2722  0.1379
 3535TIP3    H110569   1.863   0.181   5.013  2.5045  0.0282 -0.0641
 3535TIP3    H210570   1.858   0.284   4.902 -2.3242  0.2703  0.1840
 3536TIP3   OH210571   4.040   0.431   0.662  0.0259 -0.4060 -0.1562
 3536TIP3    H110572   4.027   0.385   0.579  2.4602 -0.2754 -0.6674
 3536TIP3    H210573   4.019   0.365   0.728  0.6552 -1.3886 -0.8894
 3537TIP3   OH210574   4.880   6.346   2.408  0.3505  0.4862  0.0415
 3537TIP3    H110575   4.834   6.333   2.491  0.0351  1.4816  0.0340
 3537TIP3    H210576   4.927   6.429   2.419  0.8584  0.2850 -0.5345
 3538TIP3   OH210577   5.647   5.569   4.351 -0.1672  0.3769 -0.1863
 3538TIP3    H110578   5.597   5.572   4.269 -1.0177  1.1556  0.3326
 3538TIP3    H210579   5.648   5.477   4.374 -0.5921  0.2366 -0.6878
 3539TIP3   OH210580   3.820   0.133   1.012 -0.3441 -0.0298  0.0737
 3539TIP3    H110581   3.852   0.118   1.101  0.6586  0.4692 -0.1822
 3539TIP3    H210582   3.823   0.047   0.971  0.4286 -0.0471  0.1486
 3540TIP3   OH210583   6.976   3.270   0.616 -0.2349 -0.1131  0.5677
 3540TIP3    H110584   6.917   3.194   0.616  0.2648 -0.5234  1.5110
 3540TIP3    H210585   6.924   3.341   0.654 -0.9531  0.2467 -1.0161
 3541TIP3   OH210586   6.189   4.280   2.381 -0.0246  0.3733  0.3039
 3541TIP3    H110587   6.140   4.210   2.337 -0.2948  0.4422  0.4892
 3541TIP3    H210588   6.160   4.361   2.338 -1.5319  0.6227  1.6589
 3542TIP3   OH210589   3.358   5.538   2.033 -0.4521  0.2504  0.0226
 3542TIP3    H110590   3.428   5.478   2.057 -2.1689 -1.9334 -0.0383
 3542TIP3    H210591   3.371   5.553   1.939  0.5536  0.7915  0.2351
 3543TIP3   OH210592   1.079   1.432   1.468  0.2921  0.1471 -0.0072
 3543TIP3    H110593   1.130   1.356   1.495 -0.9524 -1.0507 -0.8903
 3543TIP3    H210594   1.014   1.397   1.407  0.3962  2.0808 -1.3425
 3544TIP3   OH210595   4.728   4.353   0.316 -0.3021 -0.3328 -0.2003
 3544TIP3    H110596   4.821   4.339   0.298 -0.4784 -1.4086 -0.3194
 3544TIP3    H210597   4.683   4.283   0.269 -1.3855  1.4613 -2.0308
 3545TIP3   OH210598   3.429   1.398   0.714  0.0582  0.0509 -0.7633
 3545TIP3    H110599   3.370   1.461   0.756  0.5787 -1.5220  2.6679
 3545TIP3    H210600   3.380   1.315   0.714  0.4021 -0.1962 -2.6716
 3546TIP3   OH210601   4.666   6.700   4.815 -0.2278 -0.9189  0.0171
 3546TIP3    H110602   4.703   6.668   4.898 -1.5281 -1.4320  0.4158
 3546TIP3    H210603   4.572   6.701   4.830 -0.4496 -0.6336 -1.3402
 3547TIP3   OH210604   0.448   1.699   0.170  1.0510 -0.1195 -0.2575
 3547TIP3    H110605   0.541   1.679   0.170  1.0706 -0.2456 -2.4343
 3547TIP3    H210606   0.435   1.755   0.093 -0.4741  0.9055  0.6887
 3548TIP3   OH210607   3.399   5.017   1.322 -0.7450 -0.0724  0.1619
 3548TIP3    H110608   3.402   5.052   1.410 -0.4467  1.8658 -0.5766
 3548TIP3    H210609   3.325   4.956   1.322 -0.7000 -0.1566  1.7343
 3549TIP3   OH210610   6.985   2.123   2.059 -0.7540 -0.8286 -0.2039
 3549TIP3    H110611   6.975   2.190   2.127 -0.8087 -1.4453  0.3968
 3549TIP3    H210612   7.048   2.161   1.997 -0.9282 -0.1434  0.0274
 3550TIP3   OH210613   5.086   6.693   3.306 -0.1264  0.0198  0.2622
 3550TIP3    H110614   5.114   6.785   3.314 -2.0773  0.6121  0.6947
 3550TIP3    H210615   5.147   6.655   3.242  0.9147  1.5112  0.3101
 3551TIP3   OH210616   0.107   5.560   4.741  0.3240 -0.2512 -0.0455
 3551TIP3    H110617   0.052   5.501   4.690  0.4228 -1.9524  1.7157
 3551TIP3    H210618   0.077   5.648   4.717 -1.2975 -1.0598 -1.1234
 3552TIP3   OH210619   2.435   1.776   1.436 -0.2302  0.6148 -0.3701
 3552TIP3    H110620   2.376   1.850   1.419 -0.9027  0.3434  0.6527
 3552TIP3    H210621   2.407   1.743   1.521  1.6134  0.6673  0.3055
 3553TIP3   OH210622   5.858   5.058   4.545  0.3206 -0.0745  0.2664
 3553TIP3    H110623   5.864   5.016   4.631  1.4732  0.6288  0.5476
 3553TIP3    H210624   5.948   5.064   4.515 -0.0520 -0.1698 -0.9476
 3554TIP3   OH210625   5.871   5.733   4.670 -0.2965 -0.2840  0.5984
 3554TIP3    H110626   5.903   5.663   4.613 -2.0360 -0.3480 -0.3784
 3554TIP3    H210627   5.872   5.695   4.758  1.4394 -0.5368  0.5157
 3555TIP3   OH210628   1.019   2.621   4.972 -0.4141  0.4588 -0.2421
 3555TIP3    H110629   0.952   2.690   4.966  1.4678  2.3228 -1.5881
 3555TIP3    H210630   0.986   2.551   4.916 -0.7274  1.8694 -1.9150
 3556TIP3   OH210631   4.666   4.563   0.044  0.8327 -0.2377 -0.0987
 3556TIP3    H110632   4.689   4.484   0.093  1.1250  0.2140  0.5060
 3556TIP3    H210633   4.679   4.540  -0.047  0.8761 -0.9022  0.0726
 3557TIP3   OH210634   4.352   2.347   1.753 -0.2194  0.2301 -0.5147
 3557TIP3    H110635   4.379   2.352   1.844 -0.2114 -0.2083 -0.4930
 3557TIP3    H210636   4.276   2.406   1.747  0.0962  0.6553 -0.3465
 3558TIP3   OH210637   3.126   0.571   4.099 -0.2559 -0.2662 -0.1796
 3558TIP3    H110638   3.079   0.618   4.031 -1.1082 -0.3506  0.3385
 3558TIP3    H210639   3.103   0.616   4.180 -0.0113 -0.7530  0.1680
 3559TIP3   OH210640   2.859   1.726   2.701 -0.4858  0.6141  0.5765
 3559TIP3    H110641   2.784   1.750   2.646  0.1385 -1.4259 -1.2933
 3559TIP3    H210642   2.935   1.756   2.651  0.0877 -0.7707  0.5988
 3560TIP3   OH210643   4.720   2.908   5.638  0.3262  0.5226  0.0330
 3560TIP3    H110644   4.701   2.977   5.701 -0.4979  0.8053 -0.5023
 3560TIP3    H210645   4.659   2.925   5.566  1.1386  0.1154 -0.7606
 3561TIP3   OH210646   3.919   0.220   0.184 -0.5094  0.4470 -0.4174
 3561TIP3    H110647   3.955   0.309   0.181  0.1393  0.1503 -1.9462
 3561TIP3    H210648   3.824   0.234   0.185 -0.4101  1.1670  0.3235
 3562TIP3   OH210649   1.006   4.778   4.566 -0.3171  0.3689  0.5696
 3562TIP3    H110650   1.100   4.796   4.560 -0.6892  3.0049  1.2978
 3562TIP3    H210651   0.998   4.717   4.639  0.9057 -0.9924 -0.3861
 3563TIP3   OH210652   6.862   2.968   2.199  0.5067  0.0021 -0.4189
 3563TIP3    H110653   6.863   3.057   2.236 -0.6581 -0.5566  1.0498
 3563TIP3    H210654   6.945   2.931   2.228  0.8673  0.5060 -0.7834
 3564TIP3   OH210655   6.419   3.719   1.753 -0.0211  0.5018 -0.4454
 3564TIP3    H110656   6.497   3.681   1.712  0.2370  0.3889  0.1328
 3564TIP3    H210657   6.361   3.644   1.769 -0.1331  0.5490 -0.6311
 3565TIP3   OH210658   5.253   2.405   0.328 -0.2468 -0.2443 -0.1484
 3565TIP3    H110659   5.219   2.399   0.239  0.3222  1.4884 -0.5326
 3565TIP3    H210660   5.199   2.472   0.370  1.1476  0.8795 -0.0608
 3566TIP3   OH210661   3.747   6.689   3.991 -0.6692 -0.3241 -0.2029
 3566TIP3    H110662   3.818   6.754   3.992 -0.2929 -0.7290  0.0086
 3566TIP3    H210663   3.792   6.605   3.984 -1.1017 -0.6178  0.4237
 3567TIP3   OH210664   5.041   5.899   1.316  0.2256 -0.0485  0.5561
 3567TIP3    H110665   5.064   5.834   1.383 -0.4562 -0.5130  0.3451
 3567TIP3    H210666   5.035   5.848   1.235 -1.4247  0.0732  0.5807
 3568TIP3   OH210667   5.738   5.430   1.761 -0.1045 -0.4381  0.0358
 3568TIP3    H110668   5.706   5.358   1.816  1.8827 -1.7546 -0.4387
 3568TIP3    H210669   5.785   5.487   1.822 -1.0574  0.0918  0.2904
 3569TIP3   OH210670   3.881   6.126   4.878  0.4126 -0.5134 -0.0206
 3569TIP3    H110671   3.917   6.203   4.921  1.2492 -1.3610  0.8806
 3569TIP3    H210672   3.957   6.075   4.851 -0.1068 -0.3533 -1.9254
 3570TIP3   OH210673   4.061   3.592   3.244 -0.5794 -0.0724  0.7846
 3570TIP3    H110674   3.966   3.600   3.235 -0.5835 -1.5892 -1.1617
 3570TIP3    H210675   4.075   3.505   3.282  0.0456  0.0472  0.8479
 3571TIP3   OH210676   4.356   0.895   2.949 -0.1469  0.6750  0.4840
 3571TIP3    H110677   4.318   0.808   2.967  0.4732 -0.0333 -1.3942
 3571TIP3    H210678   4.282   0.947   2.916 -0.1392  0.2547 -0.2165
 3572TIP3   OH210679   6.284   0.220   5.105  0.1598 -0.0202  0.6294
 3572TIP3    H110680   6.279   0.129   5.076 -0.4876 -0.0454  0.8020
 3572TIP3    H210681   6.277   0.215   5.201  1.6005  0.1095  0.7625
 3573TIP3   OH210682   6.002   4.057   3.860  0.4710 -0.6934  0.0142
 3573TIP3    H110683   6.063   4.097   3.798  0.2374 -0.1206  0.1527
 3573TIP3    H210684   5.996   4.120   3.932 -0.6674 -0.5150 -0.2304
 3574TIP3   OH210685   0.547   4.554   2.296  0.2636  0.2975 -0.6053
 3574TIP3    H110686   0.464   4.526   2.259 -0.0273  1.6653 -1.0513
 3574TIP3    H210687   0.583   4.616   2.232  1.1965  0.4057 -0.0051
 3575TIP3   OH210688   6.492   5.662   3.443  0.2638 -0.0078 -0.2851
 3575TIP3    H110689   6.406   5.688   3.477 -0.3285 -1.1889 -0.8148
 3575TIP3    H210690   6.531   5.743   3.411 -0.3529  0.6616  0.5928
 3576TIP3   OH210691   4.385   1.167   3.498 -0.5551 -0.0461 -0.2557
 3576TIP3    H110692   4.339   1.201   3.575 -0.8605  0.6520 -0.7387
 3576TIP3    H210693   4.332   1.094   3.469 -0.9763  0.3088 -0.3848
 3577TIP3   OH210694   3.781   3.586   4.015 -0.1370  0.7883 -0.1956
 3577TIP3    H110695   3.865   3.565   4.057 -0.7938  0.4842  1.0044
 3577TIP3    H210696   3.770   3.518   3.949 -0.0802  0.0180  0.5772
 3578TIP3   OH210697   1.447   6.302   2.221  0.3433  0.4060  0.2857
 3578TIP3    H110698   1.503   6.234   2.258  0.2737  0.2854  0.1697
 3578TIP3    H210699   1.503   6.349   2.159  0.2355  0.1034 -0.0417
 3579TIP3   OH210700   4.779   1.160   4.773  0.4508  0.1589 -0.0083
 3579TIP3    H110701   4.706   1.101   4.791  0.2238  0.3654 -0.2467
 3579TIP3    H210702   4.829   1.162   4.855  0.3312 -0.1821  0.0748
 3580TIP3   OH210703  -0.021   4.789   0.204 -0.1577 -0.4469 -0.0218
 3580TIP3    H110704  -0.016   4.861   0.266 -3.6856  0.6888 -0.8531
 3580TIP3    H210705   0.043   4.811   0.136  0.7919  0.3959  1.1141
 3581TIP3   OH210706   7.145   3.695   4.416 -0.0034  0.3050 -0.3310
 3581TIP3    H110707   7.079   3.651   4.363 -0.0476  1.0761 -0.9472
 3581TIP3    H210708   7.114   3.687   4.506 -0.4692 -0.1256 -0.5279
 3582TIP3   OH210709   2.512   3.358   0.358 -0.3935  0.3877  0.3951
 3582TIP3    H110710   2.493   3.279   0.409  0.9970  0.8910  1.7415
 3582TIP3    H210711   2.428   3.380   0.316 -1.0294 -1.2514  0.7462
 3583TIP3   OH210712   1.721   3.361   4.390  0.3886  0.2649 -0.2618
 3583TIP3    H110713   1.674   3.327   4.466 -0.5569 -1.5728 -1.5857
 3583TIP3    H210714   1.676   3.443   4.368 -0.1790  0.1205  0.3665
 3584TIP3   OH210715   7.059   1.680   2.130 -0.1610 -0.7431 -0.9295
 3584TIP3    H110716   6.964   1.681   2.118 -0.4179 -2.3645  0.5272
 3584TIP3    H210717   7.077   1.745   2.198  0.1095  1.2220 -2.7681
 3585TIP3   OH210718   1.598   0.962   3.575 -0.3758 -0.1480 -0.0577
 3585TIP3    H110719   1.686   0.999   3.570 -0.9965  1.5001  0.3446
 3585TIP3    H210720   1.556   0.988   3.493 -2.0807  3.7328  1.7561
 3586TIP3   OH210721   1.857   4.926   2.782 -0.5057  0.1295  0.2820
 3586TIP3    H110722   1.928   4.891   2.728 -0.2817 -0.1789  0.7608
 3586TIP3    H210723   1.856   4.868   2.859 -1.6252 -0.1956  0.0372
 3587TIP3   OH210724   1.272   4.761   5.801  0.1531  0.0754 -0.1464
 3587TIP3    H110725   1.186   4.793   5.826  0.3996  0.7258 -0.1184
 3587TIP3    H210726   1.330   4.837   5.811  0.8432 -0.5053  0.4272
 3588TIP3   OH210727   6.361   0.490   1.633 -0.5097  0.1448 -0.0000
 3588TIP3    H110728   6.411   0.440   1.568  2.2977 -0.5065  2.4250
 3588TIP3    H210729   6.311   0.424   1.681 -1.3363  0.4329 -0.4441
 3589TIP3   OH210730   0.876   3.545   3.945  0.2358 -0.1067  0.1811
 3589TIP3    H110731   0.820   3.575   3.873  2.0528 -0.2933 -1.4169
 3589TIP3    H210732   0.820   3.490   3.999 -1.7103  1.6192  0.0334
 3590TIP3   OH210733   3.230   6.014   0.472 -0.2984 -0.4438  0.6014
 3590TIP3    H110734   3.248   5.922   0.492 -0.1248 -0.6273 -0.3496
 3590TIP3    H210735   3.154   6.036   0.527 -0.8217 -1.3754  0.2840
 3591TIP3   OH210736   0.953   4.355   4.486  0.2571 -0.1311 -0.2532
 3591TIP3    H110737   1.013   4.303   4.432  0.2672  0.2045 -0.5629
 3591TIP3    H210738   0.954   4.442   4.447 -0.3024 -0.0781 -0.1580
 3592TIP3   OH210739   4.985   3.484   3.212 -0.2024 -0.0670 -0.0365
 3592TIP3    H110740   4.895   3.459   3.233  0.4588 -3.1227 -0.3983
 3592TIP3    H210741   4.991   3.470   3.117  1.4704 -3.2998  0.4105
 3593TIP3   OH210742   6.090   4.804   3.639 -0.2804 -0.3467 -0.4918
 3593TIP3    H110743   6.032   4.854   3.582  0.3924  0.0924 -0.7959
 3593TIP3    H210744   6.044   4.800   3.722 -0.8530 -0.2042 -0.7965
 3594TIP3   OH210745   1.322   3.100   3.427  0.2174 -0.8546 -0.1480
 3594TIP3    H110746   1.354   3.174   3.478  1.3037 -2.2556  1.3041
 3594TIP3    H210747   1.331   3.129   3.336 -0.9864  1.3886  0.3730
 3595TIP3   OH210748   2.859   1.335   2.295  0.0676 -0.6575 -0.1058
 3595TIP3    H110749   2.794   1.360   2.230 -0.9767 -0.4362  0.9854
 3595TIP3    H210750   2.910   1.415   2.311  0.4805 -0.7736 -0.7985
 3596TIP3   OH210751   1.103   1.099   4.251 -0.2931 -0.1625 -0.0910
 3596TIP3    H110752   1.046   1.038   4.299 -1.6720  0.4535 -0.8780
 3596TIP3    H210753   1.174   1.044   4.218 -0.4698 -0.9818  0.8422
 3597TIP3   OH210754   2.661   4.237   4.249  0.3167 -0.5683 -0.0030
 3597TIP3    H110755   2.685   4.320   4.290 -0.0800 -1.2552  1.6911
 3597TIP3    H210756   2.742   4.205   4.210  0.7439  0.0402  0.3665
 3598TIP3   OH210757   4.831   0.459   0.663 -0.2652  0.4671  0.5304
 3598TIP3    H110758   4.900   0.519   0.691  1.7578 -1.4075 -0.1652
 3598TIP3    H210759   4.876   0.376   0.647 -2.9634 -1.4322  1.8795
 3599TIP3   OH210760   3.105   0.863   4.535  0.3709 -0.1153 -0.1672
 3599TIP3    H110761   3.060   0.900   4.611  0.2707  0.4512 -0.4996
 3599TIP3    H210762   3.149   0.938   4.494 -1.2284 -0.0308 -1.8208
 3600TIP3   OH210763   5.733   3.325   1.474  0.1001  0.3432 -0.5389
 3600TIP3    H110764   5.774   3.350   1.391  0.2172  0.9113 -0.3204
 3600TIP3    H210765   5.690   3.405   1.504 -0.8355 -0.1429 -0.5620
 3601TIP3   OH210766   5.905   2.611   5.748  0.0870  0.3866 -0.3043
 3601TIP3    H110767   5.847   2.661   5.690  0.3179 -0.7788 -1.5852
 3601TIP3    H210768   5.927   2.672   5.819 -1.3906  1.3694 -0.6559
 3602TIP3   OH210769   2.064   0.908   2.280  0.3667  0.2008  0.0090
 3602TIP3    H110770   2.132   0.844   2.257  0.1851  0.5989 -1.7881
 3602TIP3    H210771   1.988   0.855   2.303  0.1942 -0.2957 -1.5412
 3603TIP3   OH210772   1.825   0.883   5.680  0.7130  0.1682 -0.3375
 3603TIP3    H110773   1.888   0.816   5.707 -0.1593 -1.0085 -1.0695
 3603TIP3    H210774   1.739   0.843   5.698  0.1592  1.7539  0.7225
 3604TIP3   OH210775   5.180   0.501   0.402  0.0507 -0.0045  0.4237
 3604TIP3    H110776   5.224   0.453   0.332 -0.1488  1.2826 -0.6128
 3604TIP3    H210777   5.166   0.436   0.471  0.2313 -1.2983 -0.7332
 3605TIP3   OH210778   1.136   1.953   2.092  0.8436  0.1352  0.1257
 3605TIP3    H110779   1.150   1.866   2.053 -0.7118 -0.3847  0.6672
 3605TIP3    H210780   1.081   1.999   2.030 -0.1476 -0.0587  0.8427
 3606TIP3   OH210781   5.980   6.615   1.085  0.6040  0.1923 -0.2395
 3606TIP3    H110782   5.910   6.574   1.137  0.6378  0.7310  0.2343
 3606TIP3    H210783   6.044   6.645   1.150  1.5961 -0.8539 -0.6902
 3607TIP3   OH210784   5.354   6.048   2.403  0.2408 -0.2508 -0.0575
 3607TIP3    H110785   5.277   6.086   2.360  1.5561  1.6588 -0.8518
 3607TIP3    H210786   5.320   6.009   2.483 -1.3167  2.3993  0.6860
 3608TIP3   OH210787   1.335   5.608   4.628  0.1068 -0.4506  0.4769
 3608TIP3    H110788   1.281   5.565   4.695  0.0853 -1.6886 -0.3052
 3608TIP3    H210789   1.422   5.614   4.668 -0.6430  1.9685  1.9279
 3609TIP3   OH210790   2.799   4.381   3.472  0.4956  0.5036  0.2342
 3609TIP3    H110791   2.853   4.458   3.488  0.2931  0.8763 -0.7600
 3609TIP3    H210792   2.845   4.333   3.403 -0.6454  1.0847 -0.9812
 3610TIP3   OH210793   3.796   0.991   4.981  0.1318 -0.1129 -0.4520
 3610TIP3    H110794   3.836   1.073   4.952 -0.5857  0.7878  0.9829
 3610TIP3    H210795   3.827   0.979   5.071  0.8516 -1.8485 -0.8911
 3611TIP3   OH210796   5.521   4.116   1.393  0.0558  0.2135  0.7075
 3611TIP3    H110797   5.570   4.110   1.312 -1.9508  2.0632 -0.7488
 3611TIP3    H210798   5.588   4.129   1.461  1.6550  0.7773 -0.9069
 3612TIP3   OH210799   0.132   5.736   3.018  0.1738  0.2842  0.4243
 3612TIP3    H110800   0.056   5.775   2.973  0.0977  0.5106  0.7481
 3612TIP3    H210801   0.110   5.742   3.111  0.0559 -0.7657  0.4670
 3613TIP3   OH210802   0.553   1.630   2.463  0.4010  0.3491 -0.0424
 3613TIP3    H110803   0.562   1.667   2.551  1.4738  1.3967 -0.5645
 3613TIP3    H210804   0.577   1.538   2.473 -2.2506 -0.2961  1.2712
 3614TIP3   OH210805   6.447   1.777   5.167  0.7930  0.4763 -0.3023
 3614TIP3    H110806   6.436   1.867   5.137  1.6924  1.6309  2.4822
 3614TIP3    H210807   6.360   1.750   5.195  0.6046  0.6219 -0.7317
 3615TIP3   OH210808   5.052   1.239   3.447  0.4256  0.2682 -0.7737
 3615TIP3    H110809   5.127   1.249   3.388  0.5356  0.9397 -0.5342
 3615TIP3    H210810   4.981   1.288   3.404  0.3098  0.1743 -0.6901
 3616TIP3   OH210811   0.098   2.506   0.688 -0.5920  0.3302  0.2254
 3616TIP3    H110812   0.049   2.587   0.676  0.1563  0.8897  0.7709
 3616TIP3    H210813   0.032   2.438   0.698 -1.2448  1.0071  0.5772
 3617TIP3   OH210814   5.701   1.380   2.968  0.2795  0.4870  0.0942
 3617TIP3    H110815   5.769   1.317   2.947  0.8581  0.3930  2.0595
 3617TIP3    H210816   5.736   1.464   2.938 -0.2677  0.0159 -2.0352
 3618TIP3   OH210817   2.652   2.175   0.972 -0.0168  0.1363 -0.0283
 3618TIP3    H110818   2.668   2.122   0.894  0.0564  0.1009  0.0107
 3618TIP3    H210819   2.715   2.247   0.967  1.8609 -1.3055  1.3473
 3619TIP3   OH210820   2.012   5.593   3.701 -0.2132 -0.4821 -0.2725
 3619TIP3    H110821   2.009   5.549   3.786  1.2816 -1.6465 -0.7884
 3619TIP3    H210822   1.933   5.563   3.656 -1.5102  0.8479  0.9720
 3620TIP3   OH210823   1.814   5.114   5.766 -0.2245  0.0990 -0.3524
 3620TIP3    H110824   1.829   5.167   5.687  1.0909 -0.4848 -0.5201
 3620TIP3    H210825   1.859   5.032   5.748 -0.2107 -0.1756  0.8749
 3621TIP3   OH210826   7.099   4.396   0.708  1.1394  0.4985 -0.2592
 3621TIP3    H110827   7.130   4.335   0.776  0.9761  3.1990  2.4067
 3621TIP3    H210828   7.167   4.391   0.640  1.1787 -2.4929 -0.1685
 3622TIP3   OH210829   4.084   1.516   4.532 -0.3255 -0.3185 -0.1129
 3622TIP3    H110830   4.073   1.593   4.477  1.4270 -0.2986 -0.4812
 3622TIP3    H210831   4.088   1.442   4.471 -0.4778 -0.5416  0.1415
 3623TIP3   OH210832   3.903   0.079   1.817  0.6497 -0.3383  0.0744
 3623TIP3    H110833   3.932   0.136   1.746  0.7426 -0.5342 -0.0460
 3623TIP3    H210834   3.978   0.022   1.834 -0.0677 -1.6946 -1.0857
 3624TIP3   OH210835   5.869   0.858   5.429 -0.3603  0.3030 -0.4692
 3624TIP3    H110836   5.837   0.809   5.353  1.2832 -0.2717 -0.8469
 3624TIP3    H210837   5.951   0.814   5.452  1.1875  2.8097 -0.7876
 3625TIP3   OH210838   4.330   5.771   4.142 -0.1197 -0.1066 -0.2407
 3625TIP3    H110839   4.382   5.810   4.073  1.9865 -1.4535  0.4868
 3625TIP3    H210840   4.341   5.829   4.217  1.0176 -0.7685  0.1305
 3626TIP3   OH210841   0.510   1.118   5.088 -0.3524  0.2764 -0.1871
 3626TIP3    H110842   0.429   1.069   5.105 -0.9988  0.4781 -2.3915
 3626TIP3    H210843   0.480   1.200   5.048  0.9368  0.3332 -1.1007
 3627TIP3   OH210844   6.674   0.387   3.982  0.1305  0.0014  0.2334
 3627TIP3    H110845   6.759   0.350   4.005 -0.3348 -1.3668 -0.1668
 3627TIP3    H210846   6.695   0.462   3.927  1.2058  2.1222  3.2714
 3628TIP3   OH210847   1.176   1.830   3.029  0.4305 -0.3046  0.0270
 3628TIP3    H110848   1.113   1.839   3.101 -0.1435  0.2173 -0.5315
 3628TIP3    H210849   1.219   1.916   3.024 -0.6958  0.2096 -1.3114
 3629TIP3   OH210850   6.122   0.950   3.724  0.2619 -0.3305  0.3121
 3629TIP3    H110851   6.151   1.027   3.676  1.4854 -0.6237  0.5471
 3629TIP3    H210852   6.202   0.912   3.759 -0.5722 -0.1320  2.6079
 3630TIP3   OH210853   7.037   2.485   1.407 -0.0313 -0.4506 -0.1050
 3630TIP3    H110854   6.983   2.414   1.443  0.8840 -0.5966  1.0418
 3630TIP3    H210855   7.088   2.444   1.338 -0.9675 -0.4271 -0.8416
 3631TIP3   OH210856   0.130   0.903   5.871 -0.2841 -0.4034  0.1896
 3631TIP3    H110857   0.103   0.886   5.781 -1.6528 -0.5613  0.6048
 3631TIP3    H210858   0.113   0.820   5.917 -1.5563  0.2822  1.0155
 3632TIP3   OH210859   2.451   2.984   1.686 -0.3981 -0.4627  0.3589
 3632TIP3    H110860   2.362   3.017   1.700 -0.2821 -0.1392  0.3480
 3632TIP3    H210861   2.494   3.053   1.636 -0.6625 -1.3889 -1.2014
 3633TIP3   OH210862   2.460   4.629   4.776  0.0448 -0.8059  0.3256
 3633TIP3    H110863   2.504   4.707   4.742  0.1521  0.5825  3.2985
 3633TIP3    H210864   2.531   4.575   4.811 -0.2392 -0.6890  1.1119
 3634TIP3   OH210865   4.267   4.079   0.284  0.0837  0.2552 -0.0135
 3634TIP3    H110866   4.198   4.122   0.334  0.5624  1.1926 -0.1473
 3634TIP3    H210867   4.225   4.052   0.202  0.1059  1.7696 -0.5561
 3635TIP3   OH210868   1.959   4.725   1.161 -0.1834 -0.1006 -0.7804
 3635TIP3    H110869   1.910   4.803   1.187  1.8362  0.8943  0.3603
 3635TIP3    H210870   1.947   4.663   1.233  1.4227  0.7585  0.2898
 3636TIP3   OH210871   2.667   4.682   3.231 -0.4267 -0.0845 -0.3378
 3636TIP3    H110872   2.741   4.734   3.263 -0.3940 -2.0258  3.3696
 3636TIP3    H210873   2.707   4.613   3.179  0.2673 -0.2590  0.3983
 3637TIP3   OH210874   3.683   1.180   1.897  0.4489  0.8721  0.6224
 3637TIP3    H110875   3.670   1.087   1.882  1.6980  1.0843 -2.6315
 3637TIP3    H210876   3.758   1.185   1.955  0.6925 -0.1465  0.4096
 3638TIP3   OH210877   1.647   5.773   2.058  0.2690  0.2351 -0.8017
 3638TIP3    H110878   1.637   5.813   1.972  0.5293  1.2849 -0.3573
 3638TIP3    H210879   1.563   5.787   2.101  0.6928  1.2833 -0.2630
 3639TIP3   OH210880   0.840   0.327   0.871  0.0382 -0.3745 -0.3400
 3639TIP3    H110881   0.848   0.307   0.964  1.1238  0.3867 -0.2487
 3639TIP3    H210882   0.906   0.271   0.829 -0.4944 -0.7650 -0.6562
 3640TIP3   OH210883   0.604   2.397   5.124  0.6265 -0.1545 -0.6082
 3640TIP3    H110884   0.631   2.345   5.049 -0.0485 -1.5223  0.0616
 3640TIP3    H210885   0.684   2.412   5.173  0.4288 -4.4043  1.5084
 3641TIP3   OH210886   2.005   0.908   3.924 -0.4310  0.1053 -0.9195
 3641TIP3    H110887   1.914   0.932   3.943 -0.2538 -0.3753  0.6821
 3641TIP3    H210888   2.051   0.992   3.918 -0.7723  0.3201 -0.5977
 3642TIP3   OH210889   6.964   5.971   2.348  0.0560  0.0071  0.1292
 3642TIP3    H110890   6.940   5.878   2.341  0.5125 -0.1292  0.3060
 3642TIP3    H210891   6.965   5.987   2.443  0.9306 -0.0698  0.1418
 3643TIP3   OH210892   0.183   0.435   3.911  0.0456 -0.1984 -0.4362
 3643TIP3    H110893   0.139   0.497   3.968 -1.8630 -2.3169  0.5220
 3643TIP3    H210894   0.276   0.450   3.926 -0.3821  1.3390  0.9039
 3644TIP3   OH210895   3.468   4.361   5.117 -0.2028 -0.1786  0.0957
 3644TIP3    H110896   3.423   4.278   5.101  0.5953 -0.3267 -1.6264
 3644TIP3    H210897   3.515   4.347   5.199 -2.7637 -0.2117  1.6493
 3645TIP3   OH210898   0.929   2.709   1.927  0.3017 -0.1861 -0.5338
 3645TIP3    H110899   0.989   2.678   1.860  3.5907  0.6534  1.7509
 3645TIP3    H210900   0.947   2.652   2.003 -0.4203  1.2817  0.7963
 3646TIP3   OH210901   6.228   0.059   1.875 -0.0527  0.1829  0.0285
 3646TIP3    H110902   6.309   0.008   1.883 -0.9851 -1.5262 -1.1014
 3646TIP3    H210903   6.184   0.047   1.959  1.0235  1.5070  0.8338
 3647TIP3   OH210904   1.187   5.637   5.363 -0.2995 -0.4460  0.0293
 3647TIP3    H110905   1.239   5.587   5.427  0.6785 -0.9663 -1.1446
 3647TIP3    H210906   1.251   5.695   5.320 -0.9416 -0.1214 -0.5043
 3648TIP3   OH210907   2.623   0.376   1.011 -0.0038 -0.0364 -0.0872
 3648TIP3    H110908   2.554   0.379   0.945  0.2384  2.3655 -0.3014
 3648TIP3    H210909   2.687   0.313   0.977 -1.3191 -1.1310 -0.6146
 3649TIP3   OH210910   5.599   5.900   3.455 -0.3750 -0.4914  0.5406
 3649TIP3    H110911   5.520   5.853   3.428 -0.6912  0.0273  0.5320
 3649TIP3    H210912   5.581   5.928   3.545 -0.4124  0.0525  0.3707
 3650TIP3   OH210913   1.069   4.223   0.310  0.2751 -0.6968 -0.2028
 3650TIP3    H110914   1.106   4.281   0.377  0.4647 -0.4758 -0.4958
 3650TIP3    H210915   1.094   4.135   0.339 -0.3557 -0.6696  0.4549
 3651TIP3   OH210916   5.714   3.103   1.787  0.3207  0.1117  0.1113
 3651TIP3    H110917   5.734   3.044   1.859  1.2850  1.5827  1.0950
 3651TIP3    H210918   5.741   3.055   1.708  1.4751 -0.5977  0.9135
 3652TIP3   OH210919   1.788   5.244   0.954  0.0321  0.0924  0.0273
 3652TIP3    H110920   1.853   5.180   0.983  1.3747  0.6286 -1.6315
 3652TIP3    H210921   1.808   5.258   0.861 -0.9255  2.0711  0.0701
 3653TIP3   OH210922   2.276   3.829   1.220  0.7131  0.6632  0.2246
 3653TIP3    H110923   2.206   3.885   1.255  0.5639  0.9324 -0.4993
 3653TIP3    H210924   2.232   3.775   1.155  0.8451 -0.3468  0.9509
 3654TIP3   OH210925   2.297   5.962   2.171 -0.1594  0.0784 -0.0539
 3654TIP3    H110926   2.303   5.997   2.083 -1.0984  1.7438  0.5045
 3654TIP3    H210927   2.203   5.952   2.186 -0.0764  0.8467  1.1251
 3655TIP3   OH210928   2.098   3.404   1.202  0.1412 -0.4219  0.1840
 3655TIP3    H110929   2.044   3.482   1.191  0.6255  0.1518  1.6345
 3655TIP3    H210930   2.161   3.407   1.130  0.6260  0.9341  0.6424
 3656TIP3   OH210931   6.236   0.411   3.706 -0.6252  0.5785 -0.7254
 3656TIP3    H110932   6.329   0.402   3.687 -0.6574  3.0064 -2.6133
 3656TIP3    H210933   6.207   0.323   3.732  2.2287 -0.1351  0.2976
 3657TIP3   OH210934   0.514   5.912   1.519  0.2971 -0.1850 -0.7186
 3657TIP3    H110935   0.514   5.823   1.554  3.8192 -0.7951 -1.8639
 3657TIP3    H210936   0.475   5.904   1.432 -2.7063  0.1619  0.5119
 3658TIP3   OH210937   4.811   2.037   4.888 -0.1134  0.3333 -0.2469
 3658TIP3    H110938   4.826   1.951   4.928 -1.4944 -0.1459 -0.7044
 3658TIP3    H210939   4.876   2.042   4.817 -0.9292 -0.9599 -1.1309
 3659TIP3   OH210940   0.205   6.442   2.248 -0.0131 -0.2091 -0.1050
 3659TIP3    H110941   0.209   6.526   2.294 -2.3440  0.8260 -1.5918
 3659TIP3    H210942   0.116   6.410   2.265 -0.2217 -0.8226 -2.0739
 3660TIP3   OH210943   4.740   1.079   1.646 -0.4787  0.0196  0.0069
 3660TIP3    H110944   4.707   1.169   1.641  0.0717  0.1777 -0.9993
 3660TIP3    H210945   4.821   1.080   1.596  0.1598 -0.7698  1.0012
 3661TIP3   OH210946   2.279   5.459   1.883 -0.6547  0.4601 -0.2232
 3661TIP3    H110947   2.256   5.506   1.964 -0.9079 -0.0484  0.0029
 3661TIP3    H210948   2.362   5.497   1.856  0.3523 -0.6122  1.2605
 3662TIP3   OH210949   2.758   6.730   2.673 -0.1171  0.0747  0.5298
 3662TIP3    H110950   2.762   6.646   2.720 -1.3086 -0.2870  0.0346
 3662TIP3    H210951   2.811   6.789   2.725  1.7536 -1.2776  0.2459
 3663TIP3   OH210952   6.482   0.579   4.915  0.4384 -0.4560  0.0294
 3663TIP3    H110953   6.430   0.637   4.970 -0.6170 -1.5211  0.1856
 3663TIP3    H210954   6.544   0.637   4.871  1.5886  0.4203  2.6060
 3664TIP3   OH210955   2.205   3.110   1.597 -0.2895 -0.5149 -0.4207
 3664TIP3    H110956   2.262   3.149   1.530 -0.1270 -1.3841 -0.8055
 3664TIP3    H210957   2.120   3.101   1.554  0.0382 -1.9029 -0.8468
 3665TIP3   OH210958   4.086   3.033   4.555  0.8331  0.1638  0.2123
 3665TIP3    H110959   4.170   3.035   4.601 -0.8691 -1.6456  3.7624
 3665TIP3    H210960   4.061   2.941   4.553 -0.4255  0.4798 -2.1523
 3666TIP3   OH210961   0.829   0.703   3.070 -0.4454 -0.4464 -0.2844
 3666TIP3    H110962   0.833   0.653   3.151 -0.5779 -1.2465 -0.7577
 3666TIP3    H210963   0.921   0.717   3.046 -0.4044 -0.9591 -0.4406
 3667TIP3   OH210964   2.168   3.768   0.686 -0.2497 -0.1733 -0.0813
 3667TIP3    H110965   2.125   3.686   0.711  0.8305 -0.6434  0.2849
 3667TIP3    H210966   2.240   3.741   0.629 -1.0256  0.6819 -1.5479
 3668TIP3   OH210967   3.221   0.667   5.128  0.2382  0.4412  0.6917
 3668TIP3    H110968   3.282   0.597   5.151 -0.3715 -0.1211  0.5939
 3668TIP3    H210969   3.275   0.730   5.079  0.4064 -0.8180 -0.7999
 3669TIP3   OH210970   0.698   1.653   3.599 -0.3399 -0.6825 -0.3174
 3669TIP3    H110971   0.744   1.612   3.673 -0.1565  0.2838  0.1257
 3669TIP3    H210972   0.748   1.733   3.582 -0.5885 -0.7219 -1.2700
 3670TIP3   OH210973   0.818   4.914   4.787  0.1168  0.3400 -0.7249
 3670TIP3    H110974   0.821   4.917   4.883  1.1619 -0.7093 -0.7054
 3670TIP3    H210975   0.746   4.972   4.764 -1.1465 -0.5554  0.7662
 3671TIP3   OH210976   3.631   0.764   5.016  0.7356 -0.2457 -0.0847
 3671TIP3    H110977   3.636   0.807   4.931 -1.5835  0.1872 -0.0888
 3671TIP3    H210978   3.683   0.819   5.075 -0.3504  1.3520 -0.5622
 3672TIP3   OH210979   2.693   6.389   5.127  0.1103 -0.3807 -0.0179
 3672TIP3    H110980   2.731   6.339   5.055 -1.5111 -0.5269 -0.8119
 3672TIP3    H210981   2.769   6.423   5.175  1.3057 -3.4078  0.4628
 3673TIP3   OH210982   1.683   4.949   0.779 -0.5376  0.4239  0.5906
 3673TIP3    H110983   1.659   5.025   0.727 -2.2549 -2.0834 -2.5995
 3673TIP3    H210984   1.609   4.936   0.839 -0.8904  0.4963  0.1753
 3674TIP3   OH210985   5.920   6.763   4.898 -0.1689  1.0280 -0.7748
 3674TIP3    H110986   6.007   6.791   4.869  1.3873 -1.4025  1.1654
 3674TIP3    H210987   5.932   6.734   4.988 -2.6017 -1.0120 -0.9773
 3675TIP3   OH210988   2.220   6.720   1.522  0.1381 -0.3347  0.2065
 3675TIP3    H110989   2.281   6.712   1.449 -0.6071 -1.4979 -0.3155
 3675TIP3    H210990   2.182   6.633   1.532  0.3094 -0.2320  2.0768
 3676TIP3   OH210991   3.771   3.358   2.182 -1.0682  0.2604 -0.3170
 3676TIP3    H110992   3.767   3.444   2.225 -2.1396 -0.0593  0.2714
 3676TIP3    H210993   3.851   3.360   2.130 -0.5908  1.2700  0.4357
 3677TIP3   OH210994   2.007   4.102   4.865 -0.4335  0.6867  0.4356
 3677TIP3    H110995   2.092   4.064   4.889 -1.1738 -1.3343  0.0030
 3677TIP3    H210996   2.028   4.191   4.838  1.8961 -0.4063 -1.7670
 3678TIP3   OH210997   3.149   3.107   2.618  0.2113 -0.2610  0.2224
 3678TIP3    H110998   3.220   3.124   2.679 -1.1947  0.6226  1.7002
 3678TIP3    H210999   3.091   3.046   2.664 -0.2953 -0.5220 -0.7199
 3679TIP3   OH211000   2.950   4.261   3.773  0.1046 -0.0391 -0.0727
 3679TIP3    H111001   2.985   4.261   3.684  0.6664 -0.4147  0.1389
 3679TIP3    H211002   3.028   4.259   3.829 -0.2518 -1.4056  0.4190
 3680TIP3   OH211003   4.645   1.541   3.253 -0.2513 -0.3235 -0.6980
 3680TIP3    H111004   4.567   1.541   3.309  1.1293 -1.8853  1.3881
 3680TIP3    H211005   4.707   1.598   3.298  0.3683 -0.4020 -1.4367
 3681TIP3   OH211006   3.769   0.895   3.323  0.6073  0.4153  0.0047
 3681TIP3    H111007   3.758   0.805   3.293 -0.0444 -0.0954  1.6814
 3681TIP3    H211008   3.724   0.948   3.257  1.0993 -0.4563 -1.0605
 3682TIP3   OH211009   2.248   3.445   4.931  0.3569  0.3032  0.0372
 3682TIP3    H111010   2.160   3.424   4.903 -0.6419 -0.3565  3.2814
 3682TIP3    H211011   2.304   3.382   4.886 -1.0879 -0.7928 -0.2707
 3683TIP3   OH211012   7.145   0.573   3.259 -0.3410  0.3149 -0.4271
 3683TIP3    H111013   7.102   0.520   3.326 -0.4067 -1.4175 -1.7681
 3683TIP3    H211014   7.073   0.609   3.206 -0.2404 -0.2207 -0.9378
 3684TIP3   OH211015   5.234   6.247   0.864 -0.2911 -0.2531 -0.2145
 3684TIP3    H111016   5.157   6.236   0.918 -0.1851 -1.4479 -0.2882
 3684TIP3    H211017   5.216   6.326   0.812 -0.2650  1.1027  1.7300
 3685TIP3   OH211018   2.745   2.351   1.643  0.8007 -0.4656 -0.1602
 3685TIP3    H111019   2.768   2.305   1.562 -0.9141 -0.3014 -0.7807
 3685TIP3    H211020   2.794   2.305   1.711  1.8110 -0.9896 -1.1933
 3686TIP3   OH211021   1.216   1.413   4.708  0.1043 -0.2915 -0.8152
 3686TIP3    H111022   1.170   1.382   4.630 -1.9659 -0.2112  0.3188
 3686TIP3    H211023   1.229   1.507   4.693 -0.5816 -0.2122 -0.9376
 3687TIP3   OH211024   3.787   5.769   0.424  0.1955 -0.3249  0.4872
 3687TIP3    H111025   3.857   5.714   0.458 -0.2593 -0.7232  0.7966
 3687TIP3    H211026   3.708   5.736   0.467 -0.3505 -0.6333 -0.7325
 3688TIP3   OH211027   3.196   1.595   1.382  0.0726 -0.2536 -0.0514
 3688TIP3    H111028   3.288   1.601   1.354  0.1512  0.1126  0.2849
 3688TIP3    H211029   3.199   1.543   1.462 -0.0419 -0.4413 -0.1686
 3689TIP3   OH211030   6.280   2.590   5.098  0.4843  0.2865 -0.7508
 3689TIP3    H111031   6.243   2.617   5.182  1.7405  1.2389 -0.4652
 3689TIP3    H211032   6.213   2.614   5.034 -1.6215 -2.7646  0.1124
 3690TIP3   OH211033   1.416   1.002   5.249  0.1892  0.1309 -0.1634
 3690TIP3    H111034   1.331   1.042   5.269 -0.7980 -1.6855 -0.5334
 3690TIP3    H211035   1.423   0.928   5.309  1.9883  0.8094  0.5275
 3691TIP3   OH211036   3.406   1.660   0.443  0.1002  0.5032 -0.3737
 3691TIP3    H111037   3.431   1.594   0.378  0.3773 -1.4600  1.6340
 3691TIP3    H211038   3.485   1.675   0.494 -0.5490  0.7278  0.5823
 3692TIP3   OH211039   5.034   2.782   3.837  0.1571 -0.4688  0.3455
 3692TIP3    H111040   5.061   2.809   3.749  5.0717 -3.5974  0.4925
 3692TIP3    H211041   5.076   2.845   3.895 -0.9253  0.1056  0.5184
 3693TIP3   OH211042   1.646   6.032   3.730  0.2933  0.1199  0.4819
 3693TIP3    H111043   1.716   6.076   3.681  2.1546 -0.6841  2.2228
 3693TIP3    H211044   1.631   5.951   3.682  1.3697 -0.1977  0.6363
 3694TIP3   OH211045   1.510   5.507   1.913  0.1700  0.2258 -0.1025
 3694TIP3    H111046   1.563   5.587   1.922  1.9651 -0.9818  0.6067
 3694TIP3    H211047   1.445   5.514   1.983  0.4808  0.9293  0.1287
 3695TIP3   OH211048   3.926   5.824   2.730 -0.3572  0.1106  0.1026
 3695TIP3    H111049   3.950   5.867   2.649  0.2874 -1.3730 -0.5279
 3695TIP3    H211050   3.862   5.882   2.770 -0.4956  0.9875 -1.3374
 3696TIP3   OH211051   4.962   6.389   1.428  0.0649  0.0119 -0.0747
 3696TIP3    H111052   4.928   6.304   1.455  0.9982 -0.1232  0.7441
 3696TIP3    H211053   5.037   6.405   1.486  1.6779  0.0875 -2.0464
 3697TIP3   OH211054   4.636   4.653   1.814 -0.0369 -0.3129 -0.3025
 3697TIP3    H111055   4.711   4.697   1.854 -0.2583 -1.2242  1.1752
 3697TIP3    H211056   4.595   4.605   1.886 -0.4374 -2.0618 -1.6390
 3698TIP3   OH211057   1.596   2.002   3.547 -0.3743 -0.4520 -0.0460
 3698TIP3    H111058   1.508   2.027   3.518  0.0077  0.9511 -0.1043
 3698TIP3    H211059   1.628   1.943   3.479 -0.4466  0.7963 -1.2206
 3699TIP3   OH211060   3.171   2.503   0.546  0.2158  0.0978 -0.1095
 3699TIP3    H111061   3.119   2.469   0.620 -1.0777 -0.0763 -1.0557
 3699TIP3    H211062   3.108   2.554   0.495  1.2674  0.8080 -0.7089
 3700TIP3   OH211063   0.136   6.557   4.254  0.0584 -0.0117 -0.1572
 3700TIP3    H111064   0.095   6.505   4.323  0.2736 -0.2384 -0.1995
 3700TIP3    H211065   0.109   6.647   4.273  0.6922  0.0201  0.6459
 3701TIP3   OH211066   5.318   4.795   4.279 -0.6648 -0.0715  0.4753
 3701TIP3    H111067   5.249   4.730   4.290 -1.5586  0.8427  0.3395
 3701TIP3    H211068   5.323   4.840   4.363  0.0362 -0.3787  0.6068
 3702TIP3   OH211069   1.248   5.111   3.468  0.4500  1.1223 -0.1707
 3702TIP3    H111070   1.297   5.149   3.395  1.7049 -1.8595 -1.0235
 3702TIP3    H211071   1.292   5.027   3.485 -2.6287 -0.4037  0.9393
 3703TIP3   OH211072   6.771   1.156   2.427 -0.7032 -0.0190 -0.0549
 3703TIP3    H111073   6.855   1.133   2.387 -0.8891 -0.2494 -0.3231
 3703TIP3    H211074   6.788   1.235   2.478 -0.4579  0.2704 -0.5849
 3704TIP3   OH211075   6.714   5.286   5.334 -0.7553  0.1181  0.4726
 3704TIP3    H111076   6.751   5.330   5.410 -1.6631 -0.9613  1.5934
 3704TIP3    H211077   6.727   5.193   5.352  0.3980 -0.1381 -1.4458
 3705TIP3   OH211078   0.884   1.548   5.380  0.0238  0.1372  0.3237
 3705TIP3    H111079   0.974   1.533   5.351 -0.2992 -0.1293 -0.5884
 3705TIP3    H211080   0.865   1.638   5.353 -0.7289 -0.5475 -1.6013
 3706TIP3   OH211081   4.384   0.613   4.344 -0.7633 -0.4229  0.0232
 3706TIP3    H111082   4.365   0.661   4.263  0.2806 -1.5093 -0.8918
 3706TIP3    H211083   4.300   0.613   4.391 -1.3155  0.4844 -0.9161
 3707TIP3   OH211084   3.512   0.602   3.538  0.0412 -0.0572 -0.3436
 3707TIP3    H111085   3.427   0.611   3.494  1.1201  0.7247 -2.4183
 3707TIP3    H211086   3.528   0.687   3.577 -1.8607 -1.3020  3.6743
 3708TIP3   OH211087   3.812   2.026   1.474 -0.0689  0.2987  0.4124
 3708TIP3    H111088   3.795   2.072   1.391 -0.8759  0.1318  0.4726
 3708TIP3    H211089   3.844   2.094   1.533  0.4596  0.4286 -0.0218
 3709TIP3   OH211090   1.540   6.194   2.611 -0.4768  0.6478 -0.0885
 3709TIP3    H111091   1.447   6.214   2.622 -1.1260 -1.3543 -1.5601
 3709TIP3    H211092   1.565   6.149   2.692 -0.8857  0.7748  0.1107
 3710TIP3   OH211093   0.635   3.311   0.815  0.7780 -0.1873 -0.2543
 3710TIP3    H111094   0.548   3.286   0.846  0.5795 -0.3266 -0.9105
 3710TIP3    H211095   0.690   3.309   0.894  0.5137 -1.5547 -0.0900
 3711TIP3   OH211096   2.506   4.843   5.172  0.0767 -0.0187  0.0976
 3711TIP3    H111097   2.555   4.925   5.171  0.3652 -0.0917  2.2540
 3711TIP3    H211098   2.568   4.777   5.142  0.7191  0.1770  0.9592
 3712TIP3   OH211099   4.745   4.807   2.473 -0.0699 -0.8418  0.0638
 3712TIP3    H111100   4.701   4.722   2.467  1.3560 -1.6281  0.2739
 3712TIP3    H211101   4.811   4.806   2.404  2.3730 -1.4281  2.2632
 3713TIP3   OH211102   3.773   5.355   1.815  0.8646  0.4529 -0.1499
 3713TIP3    H111103   3.737   5.418   1.878  0.8615 -1.0064  1.3574
 3713TIP3    H211104   3.816   5.289   1.869 -0.5765 -1.7737 -1.5827
 3714TIP3   OH211105   6.665   6.584   2.753  0.2157 -0.2991  0.8334
 3714TIP3    H111106   6.720   6.654   2.718 -0.0502 -0.5163 -0.0626
 3714TIP3    H211107   6.604   6.628   2.812 -0.5789  0.3979 -0.4450
 3715TIP3   OH211108   0.404   1.709   0.544  0.9147 -0.4739  0.5791
 3715TIP3    H111109   0.384   1.760   0.623 -1.9073  0.6556 -0.7274
 3715TIP3    H211110   0.361   1.625   0.559 -0.3395  0.0329 -0.0267
 3716TIP3   OH211111   3.519   0.181   5.298  0.2073  0.3938 -0.3451
 3716TIP3    H111112   3.610   0.154   5.304 -0.2701 -1.9917 -2.0079
 3716TIP3    H211113   3.470   0.105   5.330 -1.2128  1.3824 -0.0888
 3717TIP3   OH211114   6.256   6.463   5.182 -0.2812 -0.0265 -0.1227
 3717TIP3    H111115   6.214   6.399   5.125  1.1433 -1.3634  0.2567
 3717TIP3    H211116   6.249   6.425   5.270  2.1267 -0.5964 -0.1141
 3718TIP3   OH211117   0.343   4.819   3.212  0.1887 -0.3536 -0.1156
 3718TIP3    H111118   0.326   4.727   3.194 -0.1237  0.0011 -1.8003
 3718TIP3    H211119   0.437   4.823   3.229  0.1333 -1.0309  0.3996
 3719TIP3   OH211120   0.208   3.558   0.887 -0.4167  0.2045  0.6300
 3719TIP3    H111121   0.121   3.518   0.877 -0.6285  1.0384 -1.2972
 3719TIP3    H211122   0.231   3.587   0.798  1.4206  0.8626  1.2839
 3720TIP3   OH211123   3.430   4.633   1.929 -0.4796  0.5251 -0.4945
 3720TIP3    H111124   3.478   4.699   1.979 -1.6157  1.7436 -0.9386
 3720TIP3    H211125   3.346   4.625   1.975 -0.4891 -0.3619 -0.6508
 3721TIP3   OH211126   3.120   3.510   5.675 -0.2624 -0.3036  0.2495
 3721TIP3    H111127   3.190   3.553   5.625  0.0647  2.8806  3.1194
 3721TIP3    H211128   3.039   3.541   5.635 -0.0790 -1.1181 -0.8106
 3722TIP3   OH211129   1.301   4.048   4.862  0.9371 -0.3980 -0.6501
 3722TIP3    H111130   1.378   4.099   4.888  1.1153  0.3899 -2.5703
 3722TIP3    H211131   1.239   4.113   4.830 -0.3241 -1.0898  0.2913
 3723TIP3   OH211132   1.174   5.492   4.214 -0.1243 -0.1280 -0.3483
 3723TIP3    H111133   1.189   5.486   4.120 -3.0276  0.1349 -0.9371
 3723TIP3    H211134   1.125   5.573   4.225  0.0728 -0.2085  1.3718
 3724TIP3   OH211135   3.629   0.089   4.860  0.2203  0.2235  0.0136
 3724TIP3    H111136   3.607   0.017   4.921 -0.3614  0.9280  0.6636
 3724TIP3    H211137   3.672   0.046   4.787 -2.7725 -1.2426 -1.0597
 3725TIP3   OH211138   1.496   4.529   3.925 -0.1508  0.0585 -0.1735
 3725TIP3    H111139   1.421   4.565   3.972 -0.9330 -1.4681 -0.1939
 3725TIP3    H211140   1.570   4.582   3.954 -0.5182 -1.0616  3.1314
 3726TIP3   OH211141   0.736   3.793   5.240 -0.0152 -0.2996  0.5285
 3726TIP3    H111142   0.827   3.801   5.213 -0.4720  0.7904 -0.8190
 3726TIP3    H211143   0.736   3.815   5.334  1.3408 -2.2652  1.0613
 3727TIP3   OH211144   1.134   4.424   3.042 -0.3100  0.2513 -0.2329
 3727TIP3    H111145   1.104   4.374   3.118  0.3943 -0.4986 -0.4449
 3727TIP3    H211146   1.227   4.405   3.035  0.0275  1.7316 -0.2155
 3728TIP3   OH211147   6.075   2.064   2.942 -0.1532  0.5444  0.2201
 3728TIP3    H111148   6.160   2.068   2.986 -0.7061  3.6726  1.2390
 3728TIP3    H211149   6.051   1.971   2.946  1.2085  0.1672  3.8991
 3729TIP3   OH211150   6.338   5.331   4.823  0.8293 -0.2202 -0.1343
 3729TIP3    H111151   6.310   5.321   4.732  0.7175 -0.3976 -0.0817
 3729TIP3    H211152   6.284   5.403   4.857 -1.4246 -2.1703  0.6942
 3730TIP3   OH211153   2.394   6.728   2.986 -0.2374 -0.0675 -0.0462
 3730TIP3    H111154   2.399   6.762   3.076  1.5313  0.7486 -0.4145
 3730TIP3    H211155   2.458   6.780   2.938 -1.3070 -0.3592 -1.8476
 3731TIP3   OH211156   1.661   1.945   0.542  0.1484 -0.4374  0.0544
 3731TIP3    H111157   1.614   1.957   0.624 -0.4412 -0.8322 -0.2152
 3731TIP3    H211158   1.739   1.895   0.566  0.5751  0.4445  0.5442
 3732TIP3   OH211159   6.504   2.736   5.776  0.5268  0.1024  0.3396
 3732TIP3    H111160   6.426   2.685   5.798  0.7869 -0.2387  0.4674
 3732TIP3    H211161   6.474   2.827   5.778 -0.0487 -0.0594 -0.3190
 3733TIP3   OH211162   1.126   5.597   2.709  0.3058  0.4174 -0.1829
 3733TIP3    H111163   1.034   5.616   2.689  0.0620  0.6603  1.0748
 3733TIP3    H211164   1.140   5.509   2.673  0.1417  1.1080 -2.0337
 3734TIP3   OH211165   2.545   3.784   4.312  0.0458 -0.7509  0.1169
 3734TIP3    H111166   2.466   3.731   4.317  0.5181 -1.6169 -0.9022
 3734TIP3    H211167   2.568   3.784   4.218  1.3249 -0.6538  0.4033
 3735TIP3   OH211168   6.843   1.116   4.574 -0.1862 -0.6583  0.0833
 3735TIP3    H111169   6.931   1.152   4.575  0.1943 -1.5067 -0.8813
 3735TIP3    H211170   6.786   1.192   4.568  0.3649  0.0100  2.4561
 3736TIP3   OH211171   1.910   6.623   4.325 -0.2502 -0.0169 -0.4757
 3736TIP3    H111172   1.893   6.712   4.355  0.3234  0.1763 -0.7015
 3736TIP3    H211173   1.903   6.627   4.230 -0.3990 -0.2501 -0.4746
 3737TIP3   OH211174   5.897   4.676   3.374  0.1257 -0.0631  0.3310
 3737TIP3    H111175   5.953   4.686   3.298  1.3636 -0.0732  1.2170
 3737TIP3    H211176   5.891   4.764   3.411  0.9127 -0.3353  1.1514
 3738TIP3   OH211177   0.260   1.219   3.836  0.0253  0.3400  0.3476
 3738TIP3    H111178   0.274   1.125   3.850  1.4270  0.7676  2.0332
 3738TIP3    H211179   0.165   1.229   3.838 -0.0963 -0.7794  2.1036
 3739TIP3   OH211180   5.140   2.079   3.490 -0.3748 -0.4148  0.4213
 3739TIP3    H111181   5.182   2.142   3.432  0.1979 -0.4048  0.8461
 3739TIP3    H211182   5.122   2.128   3.570 -1.0421 -0.4644  0.3090
 3740TIP3   OH211183   4.878   3.113   4.172 -0.0334 -0.0074 -0.0998
 3740TIP3    H111184   4.821   3.065   4.232  1.0971 -1.2321  0.0306
 3740TIP3    H211185   4.938   3.160   4.228 -0.3761  0.6260 -0.2534
 3741TIP3   OH211186   3.232   0.576   2.857  0.1803 -0.7805 -0.3380
 3741TIP3    H111187   3.150   0.591   2.904  1.1749 -0.2087  1.2785
 3741TIP3    H211188   3.249   0.658   2.811  0.5261 -0.4262  0.4165
 3742TIP3   OH211189   3.228   4.096   2.492 -0.4992 -0.1898 -0.5047
 3742TIP3    H111190   3.257   4.163   2.430 -0.6708  0.8267  0.4867
 3742TIP3    H211191   3.158   4.050   2.446 -0.6445  0.5685 -1.0591
 3743TIP3   OH211192   5.972   2.310   5.644 -0.2905 -0.2140  0.0377
 3743TIP3    H111193   5.878   2.320   5.658 -0.4656 -0.1236 -1.1101
 3743TIP3    H211194   6.005   2.400   5.640 -0.8187 -0.0602 -3.5787
 3744TIP3   OH211195   0.360   3.804   5.310 -0.1993  0.5788 -0.1028
 3744TIP3    H111196   0.330   3.766   5.393  2.0801 -0.8179  0.1638
 3744TIP3    H211197   0.356   3.732   5.247 -0.6845  1.2908 -0.9153
 3745TIP3   OH211198   3.477   3.402   2.684 -0.0769  0.3164 -0.1146
 3745TIP3    H111199   3.488   3.310   2.709  1.5526  0.5719  0.1648
 3745TIP3    H211200   3.423   3.439   2.754 -0.6020 -0.3775 -0.1398
 3746TIP3   OH211201   2.238   3.083   3.804  0.5903  0.0113 -0.4686
 3746TIP3    H111202   2.206   2.999   3.770 -1.5858  1.2656 -1.7049
 3746TIP3    H211203   2.165   3.119   3.853  0.7610  2.0361 -1.5820
 3747TIP3   OH211204   3.359   0.011   5.460  0.3241 -0.1051 -0.2014
 3747TIP3    H111205   3.349  -0.073   5.504  0.1792  0.1026  0.1650
 3747TIP3    H211206   3.358   0.076   5.530  0.5479  0.1960 -0.4718
 3748TIP3   OH211207   3.707   1.984   2.883  0.3072 -0.4194 -0.0430
 3748TIP3    H111208   3.645   2.015   2.949 -0.7714 -1.1926 -0.6556
 3748TIP3    H211209   3.660   1.914   2.837  1.0595  0.0237 -1.5586
 3749TIP3   OH211210   0.990   5.341   3.799 -0.7650 -0.4833 -0.0263
 3749TIP3    H111211   1.048   5.365   3.726  0.2720 -1.7915  0.3347
 3749TIP3    H211212   1.004   5.247   3.811 -2.8948 -0.8109  0.1758
 3750TIP3   OH211213   5.045   3.656   4.170 -0.2095  0.3947  0.3268
 3750TIP3    H111214   5.075   3.727   4.226  2.1688 -0.0822 -0.2374
 3750TIP3    H211215   5.084   3.674   4.084 -1.4915 -0.3731 -0.4594
 3751TIP3   OH211216   5.283   3.181   1.163  0.1902 -0.1642 -0.7179
 3751TIP3    H111217   5.300   3.256   1.106  1.1098 -0.2796 -0.6174
 3751TIP3    H211218   5.342   3.194   1.237  1.4093 -1.6962 -1.3595
 3752TIP3   OH211219   0.891   4.830   2.447  0.3796  0.3756 -0.1331
 3752TIP3    H111220   0.961   4.816   2.511 -0.7423 -1.8417  0.6932
 3752TIP3    H211221   0.813   4.845   2.499 -0.2425  0.2440 -1.0036
 3753TIP3   OH211222   6.685   2.702   5.518 -0.3026  0.2915 -0.1119
 3753TIP3    H111223   6.644   2.719   5.603  1.0208  0.2469  0.5487
 3753TIP3    H211224   6.646   2.767   5.460 -0.3771  1.0801  0.7960
 3754TIP3   OH211225   3.298   2.133   0.316  0.1127  0.0116 -0.7104
 3754TIP3    H111226   3.204   2.138   0.330 -0.0798  1.9564 -2.1812
 3754TIP3    H211227   3.335   2.201   0.372  0.8341 -1.5624  0.8172
 3755TIP3   OH211228   1.594   6.809   2.655 -0.0639 -0.0246  0.5731
 3755TIP3    H111229   1.557   6.723   2.636 -2.9305  1.0704  0.6480
 3755TIP3    H211230   1.626   6.803   2.744 -0.8984 -0.8506  0.8318
 3756TIP3   OH211231   6.342   5.444   0.893 -0.1514 -0.9032 -0.1939
 3756TIP3    H111232   6.323   5.462   0.800 -0.3325  0.1919  0.0359
 3756TIP3    H211233   6.364   5.351   0.895  0.2625 -0.8599 -1.4085
 3757TIP3   OH211234   7.048   0.361   3.806 -0.4656 -0.6369 -0.5335
 3757TIP3    H111235   7.115   0.415   3.763 -1.2787  1.0171  0.1651
 3757TIP3    H211236   6.973   0.363   3.745 -1.3229  1.0204  0.5030
 3758TIP3   OH211237   1.656   1.523   3.425  0.1092  0.2493 -0.2682
 3758TIP3    H111238   1.674   1.476   3.507  1.3245 -0.7022 -1.0515
 3758TIP3    H211239   1.582   1.476   3.387 -0.2386  0.4800  0.1172
 3759TIP3   OH211240   6.177   2.940   2.023  0.0449 -0.4346  0.2674
 3759TIP3    H111241   6.149   2.899   1.942 -1.5939 -1.2881  1.1987
 3759TIP3    H211242   6.097   2.943   2.077  1.0703  0.0941  1.8350
 3760TIP3   OH211243   5.911   4.311   2.088  0.4186 -0.4514 -0.2031
 3760TIP3    H111244   5.953   4.301   2.002  0.9970 -0.9718  0.1299
 3760TIP3    H211245   5.822   4.339   2.068  0.9055  0.6480 -0.9370
 3761TIP3   OH211246   5.124   5.263   0.403  0.0835  0.1089 -0.1748
 3761TIP3    H111247   5.164   5.341   0.364 -0.6580  3.1227  4.2675
 3761TIP3    H211248   5.031   5.272   0.386 -0.1716  1.1107  1.5252
 3762TIP3   OH211249   7.194   1.272   5.885 -0.0726  0.0980  0.3547
 3762TIP3    H111250   7.129   1.342   5.882  0.0516  0.1991 -1.5541
 3762TIP3    H211251   7.151   1.198   5.841  0.8434 -0.0308 -0.3584
 3763TIP3   OH211252   3.701   4.208   0.293  0.8304  0.2022  0.0386
 3763TIP3    H111253   3.745   4.132   0.256 -0.0235 -0.3739  0.1848
 3763TIP3    H211254   3.739   4.218   0.380  0.8317 -0.1479  0.0782
 3764TIP3   OH211255   4.215   3.002   2.823  0.1351  0.1866 -0.1611
 3764TIP3    H111256   4.187   3.019   2.733 -0.5451 -1.7040 -0.3735
 3764TIP3    H211257   4.135   2.972   2.867  0.2441  1.9793  1.3554
 3765TIP3   OH211258   2.879   5.739   2.936  0.2299  0.2037  0.3098
 3765TIP3    H111259   2.908   5.655   2.972 -1.2047 -0.6491 -0.4203
 3765TIP3    H211260   2.792   5.753   2.974 -0.1356  0.6387 -0.6460
 3766TIP3   OH211261   6.107   5.277   2.359  0.4643  0.0777 -0.0449
 3766TIP3    H111262   6.145   5.228   2.286  0.7759 -1.2039  0.9511
 3766TIP3    H211263   6.046   5.216   2.400  0.4990  0.6867  0.9518
 3767TIP3   OH211264   6.002   2.565   2.523  0.1895  0.6545  0.7534
 3767TIP3    H111265   5.998   2.624   2.598 -1.9139 -0.4887  1.6343
 3767TIP3    H211266   5.910   2.549   2.500  0.7504  0.9786 -2.1178
 3768TIP3   OH211267   6.316   1.188   4.268  0.4526 -0.0034  0.0050
 3768TIP3    H111268   6.330   1.243   4.191 -1.9775  0.5328 -0.1234
 3768TIP3    H211269   6.238   1.137   4.248  1.0688 -1.5234  1.2400
 3769TIP3   OH211270   6.905   5.043   4.683 -0.5427 -0.2320 -0.1703
 3769TIP3    H111271   6.997   5.064   4.671 -0.2788 -1.6133 -0.7836
 3769TIP3    H211272   6.895   5.031   4.778 -0.3130  0.7808 -0.0043
 3770TIP3   OH211273   1.580   0.831   5.773  0.3169  0.1852  0.3097
 3770TIP3    H111274   1.586   0.873   5.859 -1.8380  1.8890 -0.2796
 3770TIP3    H211275   1.491   0.848   5.744 -0.0432 -3.0675 -0.9655
 3771TIP3   OH211276   2.705   6.638   0.148 -0.1612 -0.0195  0.1448
 3771TIP3    H111277   2.784   6.649   0.095 -0.9465 -0.8848 -1.2412
 3771TIP3    H211278   2.739   6.620   0.236  1.1592  1.6029  0.0225
 3772TIP3   OH211279   3.161   5.945   5.722  0.1966 -0.2255 -0.2418
 3772TIP3    H111280   3.104   5.874   5.754  0.7145 -0.4955  0.0936
 3772TIP3    H211281   3.146   6.017   5.783  0.5759 -0.4635  0.1375
 3773TIP3   OH211282   3.796   4.338   5.600 -0.0888  0.1413 -0.1397
 3773TIP3    H111283   3.836   4.389   5.670 -1.5324  1.1461 -0.0039
 3773TIP3    H211284   3.870   4.293   5.558  1.0581  1.2437  0.6269
 3774TIP3   OH211285   6.689   2.713   1.057 -0.4051  0.1499  0.4559
 3774TIP3    H111286   6.696   2.801   1.018 -0.8922 -0.7832 -1.8923
 3774TIP3    H211287   6.749   2.716   1.131 -0.1045  2.3557  0.2058
 3775TIP3   OH211288   4.906   3.774   3.029  0.0402 -0.2316 -0.6538
 3775TIP3    H111289   4.871   3.775   2.940 -0.8723 -1.0815 -0.3215
 3775TIP3    H211290   4.979   3.712   3.025  0.9836  0.8714 -1.1411
 3776TIP3   OH211291   4.038   2.065   1.030  0.2966  0.1046  0.2364
 3776TIP3    H111292   4.106   2.104   0.974  0.8099  0.7465  1.2811
 3776TIP3    H211293   4.004   1.992   0.978  0.0663  1.2674 -1.3337
 3777TIP3   OH211294   3.620   2.097   4.916 -0.5320 -0.0533  0.5269
 3777TIP3    H111295   3.570   2.165   4.960  2.4241  1.2090  2.2645
 3777TIP3    H211296   3.608   2.019   4.972 -1.0298  0.0496  0.5695
 3778TIP3   OH211297   1.668   5.883   5.286 -0.0513  0.6378 -0.5577
 3778TIP3    H111298   1.726   5.850   5.217 -0.4537 -0.3989 -0.4251
 3778TIP3    H211299   1.690   5.975   5.294  0.8158  0.5071 -1.2668
 3779TIP3   OH211300   2.891   4.297   4.045  0.6637  0.5973  0.5837
 3779TIP3    H111301   2.855   4.288   3.957 -1.8520 -0.3037  1.6048
 3779TIP3    H211302   2.887   4.391   4.063 -0.3142  0.6200  0.2978
 3780TIP3   OH211303   6.443   4.985   5.486  0.3896 -0.1935 -1.1076
 3780TIP3    H111304   6.491   5.063   5.513  1.5330 -0.8982 -1.0226
 3780TIP3    H211305   6.443   4.929   5.563 -0.9325 -0.0483 -0.9905
 3781TIP3   OH211306   1.878   0.338   1.421 -0.1381  0.2883  0.0907
 3781TIP3    H111307   1.828   0.418   1.438  0.2764  0.4853  0.3961
 3781TIP3    H211308   1.866   0.285   1.500  1.9456  1.2862  1.1361
 3782TIP3   OH211309   0.713   3.860   1.607  0.2333 -0.5356  0.0916
 3782TIP3    H111310   0.651   3.805   1.656  0.6354 -1.2123 -0.1468
 3782TIP3    H211311   0.707   3.946   1.650 -0.3438 -0.7792  0.5227
 3783TIP3   OH211312   2.258   4.380   2.173 -0.1936 -0.2591  0.0814
 3783TIP3    H111313   2.238   4.286   2.175  1.1547 -0.7423 -3.1038
 3783TIP3    H211314   2.234   4.407   2.084  0.8885  2.0631  0.4349
 3784TIP3   OH211315   6.369   1.240   0.258 -0.5299  0.4222  0.2837
 3784TIP3    H111316   6.427   1.263   0.185 -0.2585  0.3183  0.4618
 3784TIP3    H211317   6.295   1.196   0.217 -0.1927  0.0104  0.1046
 3785TIP3   OH211318   0.061   5.302   4.080 -0.2566  0.2406  0.0651
 3785TIP3    H111319   0.060   5.322   4.174 -1.4234  1.6543 -0.2149
 3785TIP3    H211320   0.021   5.378   4.039 -0.6766 -0.7865 -1.5124
 3786TIP3   OH211321   6.416   2.788   2.061 -0.1176 -0.0174  0.4330
 3786TIP3    H111322   6.390   2.755   1.976 -0.9705  0.8520  0.3364
 3786TIP3    H211323   6.351   2.855   2.082  0.7794  0.6488  1.2063
 3787TIP3   OH211324   2.819   4.271   4.609 -0.4463  0.0757 -0.1716
 3787TIP3    H111325   2.878   4.200   4.582  0.1290  0.8803 -1.0596
 3787TIP3    H211326   2.863   4.311   4.684 -0.9553 -0.7138  0.5818
 3788TIP3   OH211327   4.766   3.647   3.550 -0.1752  0.1529 -0.1265
 3788TIP3    H111328   4.821   3.570   3.534  3.1276  2.5777 -1.6560
 3788TIP3    H211329   4.728   3.668   3.464 -4.5337 -1.9095  1.0132
 3789TIP3   OH211330   5.444   5.706   0.770 -0.4739  0.2246 -0.0112
 3789TIP3    H111331   5.385   5.737   0.839  0.1996  2.2807 -0.2914
 3789TIP3    H211332   5.491   5.785   0.741  1.3200 -1.0741 -0.8403
 3790TIP3   OH211333   5.075   4.913   1.292  0.0912 -0.1211 -0.2546
 3790TIP3    H111334   5.066   4.950   1.380  1.9864  0.3115 -0.1993
 3790TIP3    H211335   5.162   4.939   1.264  0.4327 -2.2127 -1.3516
 3791TIP3   OH211336   2.890   4.415   5.015 -0.4814  0.1131  0.0842
 3791TIP3    H111337   2.821   4.372   5.065 -1.2423 -0.7324 -1.6029
 3791TIP3    H211338   2.965   4.355   5.019 -1.6895 -1.8019 -2.6673
 3792TIP3   OH211339   5.557   6.221   2.272 -0.6658  0.8863 -0.0920
 3792TIP3    H111340   5.464   6.196   2.267 -0.3612 -1.3358  2.6143
 3792TIP3    H211341   5.576   6.223   2.366  2.1977  0.5900 -0.5789
 3793TIP3   OH211342   6.336   5.627   1.425 -0.3335  0.9277 -0.2448
 3793TIP3    H111343   6.296   5.612   1.339 -0.5104  2.4777 -0.4721
 3793TIP3    H211344   6.426   5.598   1.415 -0.7488 -0.3652 -0.4617
 3794TIP3   OH211345   7.129   5.089   1.552  0.3105  0.0470 -0.3098
 3794TIP3    H111346   7.082   5.105   1.633  0.2457 -0.3721 -0.2627
 3794TIP3    H211347   7.101   5.159   1.493 -2.0651 -1.4172 -1.0231
 3795TIP3   OH211348   1.032   1.474   5.011 -0.1641 -0.5096 -0.1345
 3795TIP3    H111349   1.095   1.462   5.082  0.4074 -0.3804 -0.6146
 3795TIP3    H211350   0.991   1.388   5.001 -1.3628 -0.1558  1.3732
 3796TIP3   OH211351   0.464   3.013   0.170  0.9845 -0.1276  0.1252
 3796TIP3    H111352   0.409   3.058   0.234  3.0540 -1.2761  2.8640
 3796TIP3    H211353   0.512   3.084   0.126  1.2877  0.5961  1.5657
 3797TIP3   OH211354   5.793   4.511   0.677  0.6728 -0.3263 -0.3671
 3797TIP3    H111355   5.782   4.605   0.666  4.0405  0.1653 -0.6928
 3797TIP3    H211356   5.769   4.474   0.592 -0.1080  0.2667 -0.4161
 3798TIP3   OH211357   3.390   6.219   1.147  0.1167  0.5445  0.2641
 3798TIP3    H111358   3.343   6.170   1.214 -0.2086  1.3224  0.6230
 3798TIP3    H211359   3.438   6.287   1.196 -0.1601  1.1476 -0.2878
 3799TIP3   OH211360   2.344   2.252   1.071  0.2953 -0.0182  0.2441
 3799TIP3    H111361   2.393   2.310   1.013  0.6539  0.9297  1.4559
 3799TIP3    H211362   2.380   2.165   1.054  0.2858  0.2158 -1.0477
 3800TIP3   OH211363   1.069   2.270   2.202  0.0462  0.0367  0.4670
 3800TIP3    H111364   1.154   2.296   2.238 -0.6982  0.2796  2.1421
 3800TIP3    H211365   1.036   2.205   2.263 -0.9020 -0.2030 -0.2671
 3801TIP3   OH211366   4.410   2.016   3.158 -0.2968  0.1033 -0.1452
 3801TIP3    H111367   4.330   1.992   3.112 -0.5196  1.6884 -0.6282
 3801TIP3    H211368   4.381   2.042   3.245 -0.1786 -0.2909  0.0161
 3802TIP3   OH211369   3.606   0.033   2.919  0.1329 -0.3163 -0.1700
 3802TIP3    H111370   3.689   0.078   2.935 -0.4610  1.4466 -1.6312
 3802TIP3    H211371   3.551   0.058   2.994  0.5301 -0.4537  0.1668
 3803TIP3   OH211372   7.096   5.394   1.692 -0.7989 -0.4072  0.5846
 3803TIP3    H111373   7.167   5.416   1.751 -1.3166  1.9862  0.3920
 3803TIP3    H211374   7.138   5.383   1.606 -0.1632 -3.1059  1.1539
 3804TIP3   OH211375   4.766   2.926   3.907  0.6107  0.0730  0.1095
 3804TIP3    H111376   4.743   3.010   3.867  0.1274 -0.1527 -0.1016
 3804TIP3    H211377   4.859   2.933   3.925  1.2189 -0.3872 -2.4886
 3805TIP3   OH211378   4.045   2.725   5.289 -0.3632 -0.1806 -0.4321
 3805TIP3    H111379   4.036   2.664   5.215 -3.5138 -1.4540  0.8243
 3805TIP3    H211380   3.981   2.794   5.271 -0.2210  0.1987  0.4706
 3806TIP3   OH211381   2.743   1.440   3.184  0.4681  0.1625  0.3505
 3806TIP3    H111382   2.772   1.385   3.256 -1.3342 -2.3558 -0.7039
 3806TIP3    H211383   2.665   1.485   3.217  0.7152  0.4471  0.5471
 3807TIP3   OH211384   1.772   0.352   2.050  0.5248 -0.3652  0.3802
 3807TIP3    H111385   1.811   0.413   1.987  0.9744 -0.4817  0.5459
 3807TIP3    H211386   1.709   0.405   2.099 -0.4370 -0.4524 -0.7166
 3808TIP3   OH211387   5.633   5.322   0.679  0.3465 -0.1689  0.0713
 3808TIP3    H111388   5.558   5.298   0.733 -1.1457  1.5195 -1.1170
 3808TIP3    H211389   5.616   5.280   0.595  0.3926  0.6938 -0.3821
 3809TIP3   OH211390   1.323   2.235   1.583  0.1995  0.2158 -0.0187
 3809TIP3    H111391   1.324   2.154   1.635 -0.6555 -1.2304 -2.1164
 3809TIP3    H211392   1.231   2.258   1.576  0.3059  0.4595 -0.7375
 3810TIP3   OH211393   4.632   5.982   3.089 -0.3241 -0.1175  0.2940
 3810TIP3    H111394   4.580   6.060   3.106 -0.6910 -0.1623 -0.6008
 3810TIP3    H211395   4.719   6.004   3.122  0.1630  1.5181 -1.8670
 3811TIP3   OH211396   3.821   5.775   4.877 -0.4240  0.4307  0.5493
 3811TIP3    H111397   3.824   5.794   4.970 -0.2585 -0.9592  0.8440
 3811TIP3    H211398   3.910   5.746   4.855 -0.8948 -0.9224  0.3514
 3812TIP3   OH211399   2.563   0.128   2.945  0.2126 -0.5450  0.4777
 3812TIP3    H111400   2.563   0.214   2.989  1.3723  0.1278 -0.7553
 3812TIP3    H211401   2.613   0.143   2.865  0.3167 -2.3606  0.1747
 3813TIP3   OH211402   5.950   4.984   3.194 -0.5096  0.6049 -0.4057
 3813TIP3    H111403   5.957   5.031   3.111  1.1939  1.1675  0.0097
 3813TIP3    H211404   5.957   4.891   3.170 -0.3350  0.7513 -0.9178
 3814TIP3   OH211405   3.633   5.014   0.280 -0.1657 -0.0323 -0.1889
 3814TIP3    H111406   3.660   5.005   0.372 -0.5153  2.5829  0.2349
 3814TIP3    H211407   3.716   5.019   0.232  0.0244 -0.5884  0.0686
 3815TIP3   OH211408   1.047   6.453   5.495  0.0494 -0.0700 -0.2736
 3815TIP3    H111409   0.997   6.451   5.577 -1.0352 -0.2421 -0.9170
 3815TIP3    H211410   1.133   6.419   5.519 -1.1059 -2.9596  0.2588
 3816TIP3   OH211411   0.787   4.185   2.641  0.3095  0.4420 -0.4376
 3816TIP3    H111412   0.762   4.181   2.549 -0.9797 -0.3094 -0.0850
 3816TIP3    H211413   0.872   4.142   2.646 -0.2383 -0.7342 -1.0847
 3817TIP3   OH211414   6.525   4.625   5.510  0.0442 -0.6166  0.4329
 3817TIP3    H111415   6.522   4.619   5.415 -0.9353  0.6896  0.3572
 3817TIP3    H211416   6.535   4.535   5.540  2.6480 -0.8665 -0.9486
 3818TIP3   OH211417   0.112   0.520   2.038  0.2716 -0.8987 -0.5435
 3818TIP3    H111418   0.183   0.456   2.043  1.0576  0.0406  1.3784
 3818TIP3    H211419   0.074   0.521   2.126 -1.3917 -0.5370 -1.2199
 3819TIP3   OH211420   0.258   0.156   4.698  0.0850 -0.1020  0.4218
 3819TIP3    H111421   0.313   0.233   4.686  1.5910 -1.2349 -0.3804
 3819TIP3    H211422   0.231   0.132   4.609 -0.2612 -0.5591  0.6471
 3820TIP3   OH211423   4.630   2.044   4.453  0.2192 -0.5367  0.2564
 3820TIP3    H111424   4.675   2.121   4.487  1.2567 -0.8995 -0.2282
 3820TIP3    H211425   4.678   1.970   4.491  1.6369 -0.9673 -2.1366
 3821TIP3   OH211426   6.056   2.826   4.027  0.2039  0.6617  0.2436
 3821TIP3    H111427   6.109   2.818   3.947 -0.0226  0.9043  0.0663
 3821TIP3    H211428   5.981   2.768   4.012  0.2539  0.5681  0.3569
 3822TIP3   OH211429   2.513   1.225   1.540  0.7940 -0.5200  0.4871
 3822TIP3    H111430   2.585   1.267   1.493  0.7327 -1.2586 -0.2913
 3822TIP3    H211431   2.469   1.296   1.587  0.6824  0.2876 -0.8130
 3823TIP3   OH211432   3.551   2.183   1.342  0.1523  0.4366 -0.2832
 3823TIP3    H111433   3.535   2.241   1.268 -0.8677  0.2379 -0.2322
 3823TIP3    H211434   3.646   2.173   1.344  0.2081  0.4421 -1.5707
 3824TIP3   OH211435   1.300   0.375   5.329 -0.0197 -0.9416  0.0793
 3824TIP3    H111436   1.264   0.363   5.417  0.8161 -1.4071  0.3720
 3824TIP3    H211437   1.356   0.298   5.316 -0.8887 -1.3873 -1.2485
 3825TIP3   OH211438   2.912   2.832   4.258  0.2193 -0.0545  0.1904
 3825TIP3    H111439   2.949   2.887   4.327  0.8483  0.8072 -0.7941
 3825TIP3    H211440   2.818   2.837   4.270  0.3398 -0.3259  1.2896
 3826TIP3   OH211441   5.373   6.510   2.459 -0.5604 -0.2311 -0.1470
 3826TIP3    H111442   5.466   6.493   2.477 -0.5126  1.7961  2.0030
 3826TIP3    H211443   5.333   6.518   2.546 -2.0067  2.3633 -0.9474
 3827TIP3   OH211444   0.923   6.806   3.487 -0.5735 -0.0995 -0.3835
 3827TIP3    H111445   0.870   6.801   3.567 -2.8548  1.8674 -1.6538
 3827TIP3    H211446   0.970   6.722   3.485 -0.9701 -0.5189  2.6026
 3828TIP3   OH211447   1.875   6.599   2.092  0.0248 -0.0496 -0.0653
 3828TIP3    H111448   1.831   6.610   2.177  0.4573 -1.6529  0.4132
 3828TIP3    H211449   1.904   6.687   2.069 -1.9690  0.7935  0.3872
 3829TIP3   OH211450   5.065   6.736   1.239  0.0582  0.1565 -0.0601
 3829TIP3    H111451   4.985   6.771   1.278 -0.4787 -0.8011 -0.2825
 3829TIP3    H211452   5.050   6.642   1.233  0.7127  0.1055 -1.2245
 3830TIP3   OH211453   4.177   6.083   1.158  0.0795 -0.6525  1.1298
 3830TIP3    H111454   4.206   6.104   1.069 -2.4986 -1.7115 -0.0480
 3830TIP3    H211455   4.244   6.123   1.214  2.7302 -1.3791 -1.2476
 3831TIP3   OH211456   4.257   4.163   2.912 -0.6067 -0.4443  0.6010
 3831TIP3    H111457   4.332   4.130   2.862 -1.9700 -0.1742 -1.7570
 3831TIP3    H211458   4.295   4.189   2.996  1.7023 -1.5122 -0.0004
 3832TIP3   OH211459   3.580   6.014   3.884 -0.2834 -0.0190 -0.2197
 3832TIP3    H111460   3.606   5.928   3.918  0.6237 -0.1414 -1.1643
 3832TIP3    H211461   3.504   5.997   3.829  0.6288 -0.4320 -1.3971
 3833TIP3   OH211462   1.047   0.716   5.723 -0.0880  0.5909  0.0553
 3833TIP3    H111463   1.044   0.704   5.628 -1.0445  0.0690  0.1353
 3833TIP3    H211464   1.132   0.681   5.749 -1.0536 -2.3147 -0.2562
 3834TIP3   OH211465   4.078   1.340   4.308  0.1186 -0.2288 -0.1762
 3834TIP3    H111466   4.050   1.345   4.216 -0.6732 -2.7002 -0.1198
 3834TIP3    H211467   4.171   1.318   4.303  0.8763  2.5651 -0.3175
 3835TIP3   OH211468   0.646   3.042   1.676  0.2779  0.2289  0.2569
 3835TIP3    H111469   0.624   3.129   1.710 -2.4295  0.6124 -2.1032
 3835TIP3    H211470   0.568   2.990   1.692 -0.5362 -0.0157 -3.5921
 3836TIP3   OH211471   3.501   3.473   0.042 -0.0590 -0.4060  0.3665
 3836TIP3    H111472   3.505   3.409  -0.029 -0.1392 -0.4118  0.3673
 3836TIP3    H211473   3.529   3.424   0.120  1.2510 -0.0824  0.1243
 3837TIP3   OH211474   1.740   4.679   1.868  0.4492 -0.1351  0.1650
 3837TIP3    H111475   1.752   4.710   1.958 -1.8666  1.5455 -0.0218
 3837TIP3    H211476   1.718   4.587   1.877  3.8876 -1.0245  0.9929
 3838TIP3   OH211477   2.135   3.503   1.624  0.2317  0.2531  0.0040
 3838TIP3    H111478   2.179   3.429   1.583 -1.5839 -1.0387  0.2649
 3838TIP3    H211479   2.048   3.504   1.585 -0.9217  0.1334  2.3679
 3839TIP3   OH211480   1.722   1.674   1.583 -0.4123 -0.3537 -0.5876
 3839TIP3    H111481   1.671   1.650   1.506 -1.8797 -0.0043  0.2421
 3839TIP3    H211482   1.657   1.688   1.652  0.8894 -1.4047  0.9351
 3840TIP3   OH211483   6.031   3.592   2.675 -0.0842  0.8787 -0.3020
 3840TIP3    H111484   6.090   3.591   2.750 -1.6548  1.8907  1.0180
 3840TIP3    H211485   5.950   3.554   2.708 -0.2358 -0.4361 -2.0605
 3841TIP3   OH211486   3.869   0.731   2.024 -0.3309 -0.0274 -0.1030
 3841TIP3    H111487   3.860   0.696   2.113 -1.6931 -0.1989 -0.2999
 3841TIP3    H211488   3.941   0.681   1.986 -0.4386 -0.6827  0.5429
 3842TIP3   OH211489   5.438   6.150   4.999 -0.1155 -0.0981 -0.5201
 3842TIP3    H111490   5.426   6.151   4.904  0.4966 -1.7185 -0.6545
 3842TIP3    H211491   5.527   6.184   5.011 -0.8026  1.7669 -0.3516
 3843TIP3   OH211492   1.676   3.499   1.686  0.0930 -0.7787  0.8414
 3843TIP3    H111493   1.686   3.485   1.780  0.5980 -0.4686  0.8411
 3843TIP3    H211494   1.617   3.573   1.678  0.6774 -0.2896  0.9411
 3844TIP3   OH211495   1.303   1.286   3.893  0.0212  0.2063 -0.1908
 3844TIP3    H111496   1.251   1.246   3.823  1.3686 -0.1672 -1.0085
 3844TIP3    H211497   1.243   1.289   3.968 -1.1289 -0.3280 -1.0488
 3845TIP3   OH211498   5.114   4.247   4.334  0.7354 -0.4252 -0.6675
 3845TIP3    H111499   5.095   4.197   4.413 -2.3609 -0.6363 -1.4064
 3845TIP3    H211500   5.142   4.182   4.270  0.5195 -0.6578 -0.5281
 3846TIP3   OH211501   4.777   2.552   1.923 -0.2482 -0.2476 -0.3575
 3846TIP3    H111502   4.709   2.600   1.876 -1.1763 -1.0503  0.1101
 3846TIP3    H211503   4.837   2.522   1.854  0.6639  1.9955 -0.5962
 3847TIP3   OH211504   2.917   0.744   1.634  0.5770 -0.0006  0.4550
 3847TIP3    H111505   2.897   0.725   1.725  1.7095  2.1750  1.2407
 3847TIP3    H211506   2.926   0.658   1.593  3.7479 -1.2802  3.2684
 3848TIP3   OH211507   4.703   2.939   0.935  0.0539  0.4085 -0.4159
 3848TIP3    H111508   4.793   2.970   0.924  0.9726 -1.6273  0.8037
 3848TIP3    H211509   4.655   2.978   0.862  2.1253  0.8238 -1.6354
 3849TIP3   OH211510   0.336   4.546   1.509 -0.4336  0.0035 -0.3386
 3849TIP3    H111511   0.382   4.593   1.579  0.6406 -0.2718 -0.8287
 3849TIP3    H211512   0.277   4.486   1.555 -0.4440  0.4983  0.3150
 3850TIP3   OH211513   0.116   4.672   2.549 -0.2991 -0.1077 -0.2020
 3850TIP3    H111514   0.210   4.685   2.553 -0.3613  0.1389  1.1016
 3850TIP3    H211515   0.082   4.749   2.504  0.2582 -1.0794 -2.3808
 3851TIP3   OH211516   1.710   4.090   5.230 -0.1055 -0.1428 -0.1556
 3851TIP3    H111517   1.752   4.057   5.150  0.4398  1.8335 -0.7390
 3851TIP3    H211518   1.667   4.171   5.202 -0.9697 -0.0703  1.3018
 3852TIP3   OH211519   5.885   0.392   2.186  0.5257  0.0718 -0.1369
 3852TIP3    H111520   5.968   0.384   2.139  0.1692  0.7456 -0.9071
 3852TIP3    H211521   5.846   0.473   2.154 -1.1158 -0.9579 -0.8995
 3853TIP3   OH211522   2.387   1.822   0.635 -0.1682 -0.4221  0.2326
 3853TIP3    H111523   2.327   1.788   0.701  0.3449  1.7707  1.9588
 3853TIP3    H211524   2.332   1.874   0.577 -0.3470 -0.8720 -0.0107
 3854TIP3   OH211525   0.313   5.583   2.033 -0.0210  0.1941 -0.5029
 3854TIP3    H111526   0.319   5.655   1.970  0.4365 -0.3515 -1.0945
 3854TIP3    H211527   0.347   5.507   1.986 -2.4357 -0.8993 -0.6198
 3855TIP3   OH211528   3.320   3.111   3.555 -0.5852 -0.1585  0.1048
 3855TIP3    H111529   3.344   3.198   3.586  1.3192 -0.6729  0.1610
 3855TIP3    H211530   3.238   3.125   3.506  0.0677  1.7726 -0.5233
 3856TIP3   OH211531   5.275   3.264   3.711 -0.1260 -0.3088 -0.4754
 3856TIP3    H111532   5.355   3.255   3.763  0.6040 -3.4099 -1.9310
 3856TIP3    H211533   5.205   3.265   3.776  0.9509 -0.0255  0.7217
 3857TIP3   OH211534   4.662   6.431   4.494 -0.0941  0.1020  0.3583
 3857TIP3    H111535   4.623   6.483   4.424  2.4117  0.0969 -1.1635
 3857TIP3    H211536   4.589   6.381   4.530 -2.0245  2.3296 -0.1874
 3858TIP3   OH211537   1.263   4.839   4.533 -0.3732  0.1794  0.2081
 3858TIP3    H111538   1.332   4.802   4.478 -0.0595  0.1644  0.6091
 3858TIP3    H211539   1.309   4.879   4.607 -0.6740  1.7459 -0.4267
 3859TIP3   OH211540   1.146   2.208   2.739 -0.3403 -0.0467  0.0843
 3859TIP3    H111541   1.231   2.203   2.783  0.3948 -1.1412 -1.3910
 3859TIP3    H211542   1.120   2.116   2.727 -2.3317  0.2424  1.5362
 3860TIP3   OH211543   2.905   1.107   0.543  0.9023 -0.3462  0.0641
 3860TIP3    H111544   2.843   1.103   0.616  0.9460  0.0973  0.1286
 3860TIP3    H211545   2.962   1.181   0.564  0.6928  0.0151 -0.5996
 3861TIP3   OH211546   4.332   2.139   5.601 -0.3913 -0.9571  0.2227
 3861TIP3    H111547   4.299   2.172   5.517  1.4478 -0.9078 -0.5163
 3861TIP3    H211548   4.287   2.192   5.666 -0.6457  0.1308 -0.7955
 3862TIP3   OH211549   2.940   1.570   5.789 -0.0738 -0.3087  0.1596
 3862TIP3    H111550   3.022   1.601   5.828  0.3503 -1.1243 -0.0674
 3862TIP3    H211551   2.937   1.612   5.703 -0.3937  0.4972  0.5458
 3863TIP3   OH211552   5.307   3.518   1.542 -0.5513  0.6056 -0.0960
 3863TIP3    H111553   5.279   3.608   1.522 -0.4831  0.3906 -1.2263
 3863TIP3    H211554   5.243   3.487   1.606 -1.3836  1.0022 -0.7142
 3864TIP3   OH211555   2.931   4.595   0.308  0.2098  0.3863  0.1402
 3864TIP3    H111556   2.949   4.656   0.379 -0.6116 -0.0165  0.7035
 3864TIP3    H211557   2.858   4.542   0.339 -0.0004  0.0353 -0.9003
 3865TIP3   OH211558   6.644   5.641   5.331 -0.0757  0.1730  0.4072
 3865TIP3    H111559   6.659   5.624   5.238  0.6600  0.6439  0.4346
 3865TIP3    H211560   6.728   5.624   5.373 -0.1012  1.0557  0.8317
 3866TIP3   OH211561   5.645   5.420   5.328 -0.2786  0.7474  0.1515
 3866TIP3    H111562   5.735   5.401   5.300 -0.0232  1.5643  0.3769
 3866TIP3    H211563   5.649   5.420   5.424 -1.1371 -1.9810  0.2696
 3867TIP3   OH211564   2.545   2.817   3.312  0.0303 -0.6661 -0.1413
 3867TIP3    H111565   2.614   2.852   3.368  0.5051 -2.7219  0.6416
 3867TIP3    H211566   2.466   2.818   3.367 -0.2986  0.4251 -0.5943
 3868TIP3   OH211567   5.057   5.941   3.922 -0.2228  0.3982  0.0803
 3868TIP3    H111568   4.979   5.921   3.975 -0.5176  0.2470 -0.4004
 3868TIP3    H211569   5.128   5.947   3.985 -0.1498 -1.9589  0.2949
 3869TIP3   OH211570   6.833   1.757   5.594  0.2010 -0.2537 -0.5619
 3869TIP3    H111571   6.776   1.682   5.611 -0.5985  0.5551  0.4522
 3869TIP3    H211572   6.815   1.818   5.665  3.9122 -0.8012  1.0690
 3870TIP3   OH211573   2.723   3.865   4.804  0.0646  0.3718  0.3415
 3870TIP3    H111574   2.677   3.827   4.729 -0.9097  3.0043 -0.5180
 3870TIP3    H211575   2.672   3.836   4.880 -0.5903 -0.0760 -0.2491
 3871TIP3   OH211576   1.519   2.107   1.298  0.0013 -0.1206  0.3198
 3871TIP3    H111577   1.543   2.040   1.234  3.4463 -0.6673  1.9220
 3871TIP3    H211578   1.458   2.063   1.357 -2.3022  0.0452 -1.7749
 3872TIP3   OH211579   5.459   3.174   5.826 -0.1655  0.1271 -0.3118
 3872TIP3    H111580   5.493   3.245   5.880  0.2093 -1.0170  1.0275
 3872TIP3    H211581   5.478   3.201   5.736  1.8411  0.8087  0.2510
 3873TIP3   OH211582   1.019   3.880   2.465  0.5513 -0.4727 -0.1167
 3873TIP3    H111583   1.093   3.898   2.408  2.7421 -1.4750  2.1627
 3873TIP3    H211584   0.970   3.812   2.420  0.5624  0.7139 -2.0145
 3874TIP3   OH211585   6.659   5.393   4.454 -0.0698  0.1809 -0.5615
 3874TIP3    H111586   6.745   5.353   4.467  0.2623  0.0910 -2.7632
 3874TIP3    H211587   6.602   5.347   4.516  1.0520 -1.1989 -0.5120
 3875TIP3   OH211588   2.268   6.137   2.742 -0.0555 -0.0226  0.5896
 3875TIP3    H111589   2.310   6.077   2.680 -0.8999  0.2127 -0.2238
 3875TIP3    H211590   2.332   6.146   2.813  0.6518 -0.8110  0.0745
 3876TIP3   OH211591   2.634   5.841   1.647 -0.3768  0.1328 -0.4883
 3876TIP3    H111592   2.602   5.773   1.587  1.1467  0.8173 -2.2193
 3876TIP3    H211593   2.649   5.917   1.590 -1.9012  1.9081  1.3671
 3877TIP3   OH211594   4.321   5.257   5.903  0.2044 -0.5082  0.3836
 3877TIP3    H111595   4.342   5.344   5.868  2.8395 -1.5214 -0.8196
 3877TIP3    H211596   4.249   5.226   5.848  2.1742 -0.7866 -2.2388
 3878TIP3   OH211597   3.090   3.940   1.652  0.0054 -0.0198 -0.5939
 3878TIP3    H111598   3.045   3.948   1.736  1.4618  1.3722  0.1091
 3878TIP3    H211599   3.089   3.846   1.633 -0.9895 -0.2756  0.6101
 3879TIP3   OH211600   4.831   6.213   1.192 -0.3195  0.5629  0.0761
 3879TIP3    H111601   4.914   6.194   1.235  1.0847  1.8648 -1.8923
 3879TIP3    H211602   4.779   6.259   1.258  2.2262  3.6149  0.2114
 3880TIP3   OH211603   0.647   0.706   4.154  0.1115 -0.1296  0.4540
 3880TIP3    H111604   0.729   0.659   4.142 -0.5747 -1.7290  1.6273
 3880TIP3    H211605   0.671   0.798   4.151  1.6105 -0.5150 -1.3562
 3881TIP3   OH211606   5.600   2.263   4.251 -0.0472 -0.1908 -0.4273
 3881TIP3    H111607   5.505   2.255   4.249 -0.2214  1.2816  0.6675
 3881TIP3    H211608   5.617   2.357   4.260  1.4919 -0.4585 -0.1720
 3882TIP3   OH211609   4.582   5.767   4.614  0.2325 -0.0810 -0.4786
 3882TIP3    H111610   4.629   5.684   4.613  0.9939  0.3256 -0.1314
 3882TIP3    H211611   4.504   5.752   4.561  0.6351 -0.8502 -0.8677
 3883TIP3   OH211612   1.589   5.786   1.768  0.1687 -0.3392 -0.0944
 3883TIP3    H111613   1.655   5.743   1.713  1.1347  2.7864 -1.6010
 3883TIP3    H211614   1.521   5.813   1.707  1.0290  2.7831  0.1793
 3884TIP3   OH211615   4.790   5.729   2.061 -0.0934 -0.1549  0.5992
 3884TIP3    H111616   4.837   5.779   1.994 -0.4781 -1.4194 -0.6822
 3884TIP3    H211617   4.731   5.672   2.010  0.3673 -1.9382  1.9794
 3885TIP3   OH211618   1.404   1.462   5.305 -0.0388  0.2215 -0.3885
 3885TIP3    H111619   1.363   1.425   5.383 -0.5094 -1.5291 -1.4073
 3885TIP3    H211620   1.496   1.469   5.328  0.1463 -1.9599 -0.2009
 3886TIP3   OH211621   6.476   3.593   0.387 -0.8396 -0.3083  0.3068
 3886TIP3    H111622   6.547   3.658   0.391 -1.5398  0.4863  0.0782
 3886TIP3    H211623   6.444   3.598   0.297 -1.0713 -0.7958  0.3600
 3887TIP3   OH211624   2.401   2.682   5.607 -0.1886 -0.4471  0.2176
 3887TIP3    H111625   2.464   2.728   5.552 -0.0615  0.2233  0.9190
 3887TIP3    H211626   2.449   2.606   5.640  1.4155  1.8018  3.4659
 3888TIP3   OH211627   0.158   1.960   3.045 -0.4479  0.2206  0.4576
 3888TIP3    H111628   0.167   2.014   2.966  0.6034  0.1812  0.5407
 3888TIP3    H211629   0.241   1.913   3.052 -0.6428 -0.0033  1.4171
 3889TIP3   OH211630   4.354   1.908   4.996  0.6233 -0.8454 -0.3349
 3889TIP3    H111631   4.273   1.943   5.030  1.8070  0.7698  0.9788
 3889TIP3    H211632   4.333   1.883   4.906 -1.8804 -2.6787  0.6448
 3890TIP3   OH211633   2.612   2.221   2.059  0.0736 -0.2959 -0.0545
 3890TIP3    H111634   2.517   2.234   2.067  0.4167  1.3799  2.6777
 3890TIP3    H211635   2.624   2.126   2.058 -1.7107 -0.6142 -3.2442
 3891TIP3   OH211636   2.991   6.082   0.588 -0.2834 -0.4416  0.0388
 3891TIP3    H111637   2.932   6.051   0.519  0.0957  0.4525 -0.7189
 3891TIP3    H211638   2.943   6.068   0.669 -1.1057 -0.6972 -0.4767
 3892TIP3   OH211639   7.041   1.227   3.706 -0.0909  0.1367  0.1291
 3892TIP3    H111640   6.965   1.174   3.686 -0.3829  1.1994 -1.8308
 3892TIP3    H211641   7.025   1.310   3.661  1.5288  0.9337  0.9308
 3893TIP3   OH211642   2.583   2.452   3.649 -0.1191  0.8089  0.4210
 3893TIP3    H111643   2.619   2.441   3.737  0.0859 -0.9553  0.1566
 3893TIP3    H211644   2.508   2.392   3.646  0.4764  0.0706 -0.9024
 3894TIP3   OH211645   0.300   6.028   5.135 -0.0478 -0.0584  0.5937
 3894TIP3    H111646   0.210   6.012   5.162 -0.1738  2.4451  1.9660
 3894TIP3    H211647   0.292   6.080   5.055 -0.0034  2.4453  2.0970
 3895TIP3   OH211648   2.056   1.742   4.027 -0.5398 -0.0922  0.2327
 3895TIP3    H111649   2.098   1.827   4.008 -2.1277  0.6412 -0.1383
 3895TIP3    H211650   2.089   1.684   3.958  0.6853  0.1514  0.5763
 3896TIP3   OH211651   3.522   5.654   0.365  0.2823 -0.7735 -0.3987
 3896TIP3    H111652   3.452   5.593   0.388 -0.0972 -0.5664 -0.9686
 3896TIP3    H211653   3.516   5.662   0.270  2.2533 -2.1530 -0.6805
 3897TIP3   OH211654   2.973   1.579   4.135  0.1637  0.7157 -0.3591
 3897TIP3    H111655   3.051   1.527   4.113 -1.3418 -1.2298 -1.4238
 3897TIP3    H211656   2.944   1.544   4.219  1.1820  2.4537  0.7967
 3898TIP3   OH211657   3.706   4.015   2.742 -0.9050  0.1978  0.1997
 3898TIP3    H111658   3.659   4.097   2.728 -1.1748  0.3792  1.9573
 3898TIP3    H211659   3.660   3.951   2.688 -1.2238  1.0214 -0.5206
 3899TIP3   OH211660   3.046   4.682   4.842  0.5563  0.1361  0.2301
 3899TIP3    H111661   3.114   4.745   4.867 -0.0753  0.1854  1.9593
 3899TIP3    H211662   2.966   4.717   4.881 -0.9692  1.1377 -3.3636
 3900TIP3   OH211663   6.413   3.302   5.368 -0.4999  0.5816  0.0378
 3900TIP3    H111664   6.352   3.376   5.366  0.5371  1.4575 -0.1881
 3900TIP3    H211665   6.491   3.334   5.322 -1.0300 -1.6028 -2.6431
 3901TIP3   OH211666   2.921   6.735   3.359  0.2099  0.3777 -0.6180
 3901TIP3    H111667   2.857   6.807   3.362  1.1224  1.1911  1.0112
 3901TIP3    H211668   3.004   6.778   3.337  0.7418 -0.1937  0.2279
 3902TIP3   OH211669   4.795   1.972   3.771  0.4706  0.0789  0.2874
 3902TIP3    H111670   4.775   2.040   3.835 -0.4308  1.2780 -1.1920
 3902TIP3    H211671   4.725   1.980   3.706  0.6071 -1.9746 -0.1773
 3903TIP3   OH211672   4.775   2.201   1.658 -0.2186 -0.1378  0.1463
 3903TIP3    H111673   4.817   2.229   1.577  0.2279 -1.2299 -0.0278
 3903TIP3    H211674   4.753   2.109   1.643 -0.1203 -0.3640  1.2618
 3904TIP3   OH211675   3.863   4.489   4.500 -0.3154 -0.3559 -0.0704
 3904TIP3    H111676   3.777   4.449   4.491 -0.2644 -0.3168 -0.7981
 3904TIP3    H211677   3.890   4.508   4.411  0.2550  0.0486  0.1811
 3905TIP3   OH211678   3.205   5.409   5.603 -0.1858 -0.7056  0.4044
 3905TIP3    H111679   3.277   5.352   5.577 -0.1826 -0.5823  0.1375
 3905TIP3    H211680   3.128   5.375   5.557 -0.0475 -0.0869 -0.2950
 3906TIP3   OH211681   1.001   0.973   0.984  0.4840 -0.1138 -0.0830
 3906TIP3    H111682   0.940   0.960   1.057  0.0526  0.0399 -0.4144
 3906TIP3    H211683   0.972   1.053   0.941 -2.1882 -2.4669 -3.2218
 3907TIP3   OH211684   2.967   0.161   4.398  0.2834 -0.3435  0.5106
 3907TIP3    H111685   3.003   0.091   4.453  0.4401 -1.5666 -1.0704
 3907TIP3    H211686   3.006   0.146   4.312 -0.0495  1.4399  0.0081
 3908TIP3   OH211687   1.733   4.421   3.561 -0.3034 -0.1326 -0.5241
 3908TIP3    H111688   1.817   4.438   3.605 -1.3509 -0.7213  1.8366
 3908TIP3    H211689   1.684   4.502   3.570 -1.2374 -0.8368  1.1811
 3909TIP3   OH211690   5.463   5.085   1.011 -0.1878 -0.0847 -0.4423
 3909TIP3    H111691   5.449   5.137   0.931  3.6518 -0.3166 -1.4825
 3909TIP3    H211692   5.438   4.996   0.986  0.9742 -0.1536 -1.4499
 3910TIP3   OH211693   1.159   0.471   1.865  0.3829  0.1692 -0.3508
 3910TIP3    H111694   1.125   0.391   1.826 -1.9130  0.4468  0.9239
 3910TIP3    H211695   1.176   0.529   1.791 -0.8625 -0.4286 -1.1369
 3911TIP3   OH211696   2.888   5.748   3.979  0.1122 -0.2443 -0.1995
 3911TIP3    H111697   2.853   5.794   3.903  1.2584  0.3239 -0.4018
 3911TIP3    H211698   2.932   5.816   4.030  1.1026 -0.9613 -0.0625
 3912TIP3   OH211699   2.944   4.173   1.614 -0.4728 -0.4037 -0.1581
 3912TIP3    H111700   2.858   4.139   1.639  0.0539  0.5615  3.5067
 3912TIP3    H211701   3.001   4.096   1.612 -0.9624 -0.7631 -0.4933
 3913TIP3   OH211702   7.160   4.843   4.720 -0.3523  0.5092 -0.3998
 3913TIP3    H111703   7.167   4.820   4.627 -1.5201  0.3272 -0.4551
 3913TIP3    H211704   7.117   4.767   4.760 -2.9595  1.9132 -0.3212
 3914TIP3   OH211705   0.441   4.757   1.136  0.0309  0.3804  0.0482
 3914TIP3    H111706   0.435   4.721   1.047 -2.9032  0.0705  0.2684
 3914TIP3    H211707   0.374   4.710   1.185  0.9581  1.2000  2.2349
 3915TIP3   OH211708   1.872   1.604   0.716 -0.9608 -0.3998 -0.2661
 3915TIP3    H111709   1.787   1.638   0.746  0.9352  2.1085  3.0785
 3915TIP3    H211710   1.894   1.660   0.641 -2.0282 -0.7821 -0.8903
 3916TIP3   OH211711   4.602   6.101   5.653  0.3946  0.4275  0.3396
 3916TIP3    H111712   4.571   6.059   5.733  0.1608 -0.1937 -0.0723
 3916TIP3    H211713   4.694   6.122   5.671 -0.0965  1.8728  1.4027
 3917TIP3   OH211714   0.688   4.126   2.938 -0.4802 -0.0752  0.0734
 3917TIP3    H111715   0.745   4.056   2.971 -0.0856  0.7218  1.1378
 3917TIP3    H211716   0.720   4.144   2.850 -0.4656 -1.0954 -0.1414
 3918TIP3   OH211717   5.658   1.071   0.540  0.9829 -0.3893  0.4121
 3918TIP3    H111718   5.728   1.130   0.513  0.1340  0.1928 -0.5869
 3918TIP3    H211719   5.577   1.117   0.516  0.2645 -1.2870  1.0310
 3919TIP3   OH211720   4.285   0.097   4.313  0.1559 -0.3996 -0.3854
 3919TIP3    H111721   4.266   0.187   4.342 -3.5249 -1.5525  1.4610
 3919TIP3    H211722   4.370   0.077   4.351  0.8089  2.1065 -0.3619
 3920TIP3   OH211723   6.963   2.977   0.998  0.0683  0.4447  0.2875
 3920TIP3    H111724   6.876   2.941   1.015 -0.1013  0.8206  0.2239
 3920TIP3    H211725   6.958   3.068   1.028  0.7677  0.1608  1.3115
 3921TIP3   OH211726   4.371   1.462   0.644  0.2528  0.1539 -0.3021
 3921TIP3    H111727   4.314   1.511   0.584  0.1758  1.4479  0.8037
 3921TIP3    H211728   4.458   1.472   0.606  0.5133  2.6123  0.7582
 3922TIP3   OH211729   2.537   5.845   5.604 -0.0667 -0.1116 -0.5837
 3922TIP3    H111730   2.541   5.911   5.535  0.9740  0.4643 -0.0099
 3922TIP3    H211731   2.627   5.813   5.612  0.4026  1.5820  2.1071
 3923TIP3   OH211732   5.513   2.491   1.623  0.2267 -0.3696  0.4508
 3923TIP3    H111733   5.592   2.439   1.605  0.1938 -0.1580 -0.3123
 3923TIP3    H211734   5.441   2.437   1.591  0.2240  0.3167 -0.7420
 3924TIP3   OH211735   2.186   1.747   3.129  0.9020 -0.1051 -0.2470
 3924TIP3    H111736   2.236   1.695   3.193  1.9175 -0.1713 -1.0651
 3924TIP3    H211737   2.162   1.827   3.176  0.9046 -0.5141  0.4677
 3925TIP3   OH211738   4.639   4.123   0.596 -0.5383 -0.7139  0.1513
 3925TIP3    H111739   4.694   4.062   0.547 -1.3346  0.1796 -2.0139
 3925TIP3    H211740   4.550   4.089   0.584 -0.7718 -0.3607  0.8395
 3926TIP3   OH211741   5.859   5.222   1.490  0.1133  0.5394  0.0903
 3926TIP3    H111742   5.806   5.185   1.419  1.4497  0.9638 -1.1644
 3926TIP3    H211743   5.945   5.235   1.451  0.4040  2.4831  1.2595
 3927TIP3   OH211744   2.292   4.424   0.273  0.6584 -0.0516  0.4610
 3927TIP3    H111745   2.319   4.450   0.361  1.3195 -0.0362  0.2614
 3927TIP3    H211746   2.331   4.490   0.216 -0.1032  0.1716  0.1781
 3928TIP3   OH211747   5.117   6.649   5.094  0.4117  0.7141  0.0592
 3928TIP3    H111748   5.073   6.672   5.012 -0.2956  0.6248  0.4123
 3928TIP3    H211749   5.089   6.560   5.113  2.1052 -0.0150 -0.6002
 3929TIP3   OH211750   2.451   5.983   1.829 -0.0725 -0.2599  0.2195
 3929TIP3    H111751   2.382   5.917   1.827 -0.2863 -0.0392  0.2320
 3929TIP3    H211752   2.524   5.943   1.784  0.6662 -1.4671  2.3352
 3930TIP3   OH211753   2.864   2.410   4.832 -0.6862 -0.4392 -0.0223
 3930TIP3    H111754   2.935   2.349   4.853  0.4481  0.8258 -0.0006
 3930TIP3    H211755   2.789   2.380   4.883 -0.6395 -2.6886 -1.1660
 3931TIP3   OH211756   3.798   4.076   4.866  0.3373  0.2339  0.6895
 3931TIP3    H111757   3.713   4.120   4.874  0.3877  0.4866 -0.1578
 3931TIP3    H211758   3.844   4.123   4.797  0.9207 -0.3106  0.6954
 3932TIP3   OH211759   4.172   5.406   2.891  0.2799  0.0525  0.5125
 3932TIP3    H111760   4.153   5.319   2.855 -1.8430  0.8949 -0.5843
 3932TIP3    H211761   4.107   5.463   2.851  0.2372  1.7851  2.8613
 3933TIP3   OH211762   2.631   1.974   0.760 -0.3592 -0.2437 -0.5684
 3933TIP3    H111763   2.549   1.931   0.734 -0.1835 -0.2567 -1.1178
 3933TIP3    H211764   2.699   1.912   0.734 -0.2217 -0.9087  1.2196
 3934TIP3   OH211765   2.732   6.187   5.401  0.0267  0.2859  0.1262
 3934TIP3    H111766   2.774   6.138   5.471 -2.1736 -0.4829  0.9928
 3934TIP3    H211767   2.657   6.133   5.375 -2.7353  3.2294  1.3422
 3935TIP3   OH211768   4.857   2.761   4.732  0.2577 -0.0379  0.4307
 3935TIP3    H111769   4.934   2.710   4.757 -0.8218 -1.8619  0.2343
 3935TIP3    H211770   4.891   2.849   4.714  2.0341 -0.3935  1.8177
 3936TIP3   OH211771   4.674   5.538   3.521 -0.3461  0.4381 -0.1125
 3936TIP3    H111772   4.626   5.606   3.473 -1.1843  2.1217  2.8551
 3936TIP3    H211773   4.608   5.497   3.577  1.2664  2.2729  3.4994
 3937TIP3   OH211774   3.978   4.252   2.596  0.4417  0.4008 -0.3561
 3937TIP3    H111775   4.069   4.256   2.626  0.1763 -0.6378  0.6817
 3937TIP3    H211776   3.938   4.184   2.651 -0.2646 -1.1365 -2.6464
 3938TIP3   OH211777   5.803   1.557   5.221  0.0270  0.4304 -0.1253
 3938TIP3    H111778   5.875   1.517   5.172 -0.0178  1.4572 -1.0753
 3938TIP3    H211779   5.845   1.599   5.295  0.6235  2.1491 -1.3733
 3939TIP3   OH211780   1.650   5.776   0.158 -0.4035 -0.1886  0.0046
 3939TIP3    H111781   1.740   5.802   0.139  0.0427 -0.4236  1.6456
 3939TIP3    H211782   1.655   5.734   0.244 -1.9808 -0.7918 -0.1672
 3940TIP3   OH211783   0.635   3.049   3.612 -0.1939  0.1911  0.4351
 3940TIP3    H111784   0.575   3.022   3.542  1.1734 -0.3023 -0.5745
 3940TIP3    H211785   0.660   2.967   3.655  0.4282  0.3030  0.2924
 3941TIP3   OH211786   1.952   1.026   4.656 -0.3572  0.5554  0.6589
 3941TIP3    H111787   1.922   0.986   4.574 -0.4698  0.7298  0.6149
 3941TIP3    H211788   1.969   0.952   4.714  2.2927  0.2677 -0.3706
 3942TIP3   OH211789   3.931   3.985   3.592 -0.5857 -0.1788 -0.1045
 3942TIP3    H111790   3.882   3.931   3.655  0.4469  0.5250  1.3413
 3942TIP3    H211791   4.006   3.930   3.567 -2.2233 -1.4805 -2.7344
 3943TIP3   OH211792   5.761   5.950   2.721 -0.1225  0.4689  0.1848
 3943TIP3    H111793   5.668   5.950   2.744 -0.1030  2.3694  0.4104
 3943TIP3    H211794   5.805   5.981   2.800  0.9478 -2.2286  0.7480
 3944TIP3   OH211795   2.983   6.576   5.869 -0.8300 -0.7245  0.0829
 3944TIP3    H111796   2.975   6.609   5.779 -0.5421 -0.8808 -0.0009
 3944TIP3    H211797   3.067   6.610   5.900 -0.7442 -1.0010  0.1553
 3945TIP3   OH211798   6.514   5.215   3.317  0.0053  0.1332 -0.2178
 3945TIP3    H111799   6.495   5.208   3.410  0.1977  0.7841 -0.1255
 3945TIP3    H211800   6.554   5.130   3.295  0.6184  0.2381  0.4513
 3946TIP3   OH211801   5.679   5.516   3.131 -0.1340  0.1090  0.0914
 3946TIP3    H111802   5.742   5.559   3.073  0.8142 -0.6977  0.5169
 3946TIP3    H211803   5.719   5.432   3.153 -1.1874 -0.2567  0.6729
 3947TIP3   OH211804   7.093   3.130   4.748 -0.1676 -0.5763  0.6149
 3947TIP3    H111805   7.009   3.159   4.713 -0.4501 -0.6915  1.1997
 3947TIP3    H211806   7.082   3.036   4.763 -0.5043 -0.2972  2.2906
 3948TIP3   OH211807   2.680   2.269   3.432 -0.7507  0.2186  0.0523
 3948TIP3    H111808   2.653   2.360   3.446 -0.0269  0.4143  0.2125
 3948TIP3    H211809   2.615   2.218   3.480 -2.0454  0.5628 -1.2862
 3949TIP3   OH211810   4.981   6.360   3.154 -0.5122  0.0404 -0.0341
 3949TIP3    H111811   5.047   6.334   3.090 -0.3806  0.2555  0.0127
 3949TIP3    H211812   4.932   6.280   3.173  0.0601 -0.2306  0.3115
 3950TIP3   OH211813   0.647   1.984   5.286  0.3649  0.3134  0.2255
 3950TIP3    H111814   0.583   2.054   5.284 -0.7920 -0.7248 -0.1225
 3950TIP3    H211815   0.639   1.947   5.374 -0.0417 -0.2805 -0.0555
 3951TIP3   OH211816   3.774   2.182   2.697  0.4230 -0.2658 -0.2858
 3951TIP3    H111817   3.751   2.112   2.759 -1.4457  0.6582  0.1560
 3951TIP3    H211818   3.709   2.173   2.627  1.1129  0.1023 -0.9787
 3952TIP3   OH211819   3.262   6.432   1.909 -0.2109  0.7641 -0.1892
 3952TIP3    H111820   3.235   6.340   1.904 -0.8005  0.9170  0.0768
 3952TIP3    H211821   3.322   6.435   1.983  1.6560  0.1600 -1.6071
 3953TIP3   OH211822   2.939   5.342   0.423  0.1492  0.3930  0.0529
 3953TIP3    H111823   2.934   5.377   0.334  0.5258  0.6296  0.1219
 3953TIP3    H211824   2.848   5.326   0.447  0.1538 -3.3727 -1.8106
 3954TIP3   OH211825   2.741   4.011   1.560  0.1674  0.2489  0.1861
 3954TIP3    H111826   2.680   4.040   1.493  2.2973  0.4393 -1.8309
 3954TIP3    H211827   2.767   3.923   1.532  1.6258  0.6033  0.3043
 3955TIP3   OH211828   0.621   4.130   1.628 -0.1397 -0.0059  0.2455
 3955TIP3    H111829   0.555   4.091   1.684 -0.5395  0.1821 -0.0912
 3955TIP3    H211830   0.573   4.193   1.574  0.3135  0.1459  0.0134
 3956TIP3   OH211831   4.150   5.648   1.642 -0.1156 -0.0297  0.0222
 3956TIP3    H111832   4.128   5.690   1.725 -1.7493  1.0564 -0.9059
 3956TIP3    H211833   4.103   5.565   1.643  0.7342 -0.5181  0.6104
 3957TIP3   OH211834   2.214   2.418   5.057 -0.5721 -0.1138 -0.3112
 3957TIP3    H111835   2.235   2.351   5.122 -1.1311  0.0314  0.0205
 3957TIP3    H211836   2.211   2.499   5.107  0.4010  0.2177 -0.7580
 3958TIP3   OH211837   6.955   2.279   0.242  0.0741 -0.1760 -0.1775
 3958TIP3    H111838   6.953   2.200   0.189  1.9101 -0.5610  0.2637
 3958TIP3    H211839   6.919   2.252   0.326 -0.7163 -0.1438 -0.5005
 3959TIP3   OH211840   1.711   0.242   1.063 -0.0451  0.0341  0.0819
 3959TIP3    H111841   1.741   0.248   0.972 -0.7752 -1.1669 -0.2536
 3959TIP3    H211842   1.756   0.166   1.098  1.3826  1.3241  1.2171
 3960TIP3   OH211843   3.275   2.989   5.816  0.2032 -0.1652  0.4292
 3960TIP3    H111844   3.189   3.029   5.830  0.4564  1.2442 -1.6504
 3960TIP3    H211845   3.258   2.918   5.754  0.2888 -1.1547  1.5019
 3961TIP3   OH211846   2.923   0.693   3.909  0.3522  0.3918 -0.2255
 3961TIP3    H111847   2.835   0.713   3.940  0.7696 -0.9274  2.1217
 3961TIP3    H211848   2.911   0.624   3.844 -0.3320 -0.3800  0.6917
 3962TIP3   OH211849   1.252   2.292   4.482 -0.3455  0.0172  0.5023
 3962TIP3    H111850   1.278   2.293   4.390 -2.2421  2.8834 -0.1516
 3962TIP3    H211851   1.334   2.290   4.531  0.7986  0.7637 -1.3075
 3963TIP3   OH211852   5.788   3.609   4.722  0.1735 -0.4730 -0.3479
 3963TIP3    H111853   5.779   3.686   4.666  0.0783 -1.1589 -1.3091
 3963TIP3    H211854   5.706   3.604   4.770  0.6905  0.7618  0.7060
 3964TIP3   OH211855   6.463   1.443   1.193  0.2549 -0.4604 -0.1396
 3964TIP3    H111856   6.552   1.475   1.176 -0.3897 -0.1475 -3.5796
 3964TIP3    H211857   6.476   1.356   1.231  2.0231 -0.4047 -0.5330
 3965TIP3   OH211858   1.617   3.190   2.716 -0.6135 -0.6505  0.5014
 3965TIP3    H111859   1.677   3.147   2.777 -3.2470 -0.3497  3.5585
 3965TIP3    H211860   1.610   3.280   2.748 -1.6290 -0.2961 -0.6315
 3966TIP3   OH211861   0.375   5.582   0.436  0.5574 -1.0083 -0.2468
 3966TIP3    H111862   0.381   5.587   0.531 -2.2306  1.3615 -0.0330
 3966TIP3    H211863   0.393   5.490   0.416  3.0579 -1.2270  2.2956
 3967TIP3   OH211864   3.422   5.209   3.907  0.1864  0.1141 -0.3250
 3967TIP3    H111865   3.383   5.161   3.834  0.6826 -2.3488  0.9139
 3967TIP3    H211866   3.350   5.256   3.947 -0.1200  1.4220 -2.2598
 3968TIP3   OH211867   4.289   0.467   0.133  0.1829  0.4671 -0.7642
 3968TIP3    H111868   4.347   0.393   0.151 -0.4213  0.3365  0.7682
 3968TIP3    H211869   4.282   0.513   0.217 -2.3381  0.1711 -0.7294
 3969TIP3   OH211870   1.673   2.098   2.266  0.1985 -0.3485 -0.5173
 3969TIP3    H111871   1.582   2.070   2.261 -0.3895  1.2259  0.8162
 3969TIP3    H211872   1.689   2.113   2.359  2.1611 -1.5826 -0.5871
 3970TIP3   OH211873   3.404   5.033   5.022  0.1682  0.4433  0.4006
 3970TIP3    H111874   3.424   5.029   4.928 -0.7233  1.9840  0.1164
 3970TIP3    H211875   3.348   4.958   5.038  0.6696 -0.0734 -0.1980
 3971TIP3   OH211876   2.395   0.067   5.077  0.2141  0.1045  0.7174
 3971TIP3    H111877   2.310   0.108   5.095 -0.6814 -0.8007 -1.1680
 3971TIP3    H211878   2.378   0.008   5.004  2.4933 -0.0666  0.2536
 3972TIP3   OH211879   2.037   1.321   2.628  0.5561  0.2312  0.0236
 3972TIP3    H111880   1.955   1.363   2.602 -0.7140 -0.8659  1.9464
 3972TIP3    H211881   2.054   1.355   2.716  1.6939 -0.2100 -0.0130
 3973TIP3   OH211882   6.558   4.361   3.117 -0.2566 -0.0340  0.3058
 3973TIP3    H111883   6.511   4.355   3.033  0.9578 -0.2416 -0.3805
 3973TIP3    H211884   6.585   4.453   3.122  2.0553 -0.5780 -0.9074
 3974TIP3   OH211885   7.152   3.339   4.154  0.0110 -0.3218 -0.1287
 3974TIP3    H111886   7.142   3.299   4.240  1.4979 -0.0079  0.2239
 3974TIP3    H211887   7.078   3.307   4.103  0.0383 -1.8745  0.7607
 3975TIP3   OH211888   3.060   5.523   3.832  0.2449  0.3993  0.0141
 3975TIP3    H111889   3.104   5.504   3.749 -1.8594 -0.4742 -0.9633
 3975TIP3    H211890   3.066   5.618   3.841  0.7199  0.4727 -0.9954
 3976TIP3   OH211891   1.581   5.066   1.598  0.0078  0.4285 -0.4514
 3976TIP3    H111892   1.549   5.148   1.637  0.8730  0.1600  0.8991
 3976TIP3    H211893   1.513   5.002   1.620  0.1172  0.4491 -0.0267
 3977TIP3   OH211894   6.088   0.013   2.945  0.9153 -0.1763 -0.2047
 3977TIP3    H111895   6.168   0.036   2.899  0.7997 -1.9360 -1.3797
 3977TIP3    H211896   6.028   0.086   2.927  1.7507  0.4430 -0.5421
 3978TIP3   OH211897   6.274   6.101   2.168  0.4040 -0.0065  0.3148
 3978TIP3    H111898   6.234   6.181   2.205 -2.0219 -0.8124 -0.3533
 3978TIP3    H211899   6.284   6.043   2.242 -0.2035  0.0277  0.4333
 3979TIP3   OH211900   0.743   6.812   3.785  0.1396  0.3083  0.2330
 3979TIP3    H111901   0.691   6.739   3.819  0.2552 -0.1940 -0.6308
 3979TIP3    H211902   0.800   6.837   3.858 -0.8709  0.4649  0.9929
 3980TIP3   OH211903   3.931   1.298   2.270  0.0690 -0.2670 -0.5462
 3980TIP3    H111904   3.992   1.255   2.210 -1.0443 -2.5867 -0.1482
 3980TIP3    H211905   3.881   1.357   2.215  1.3585  0.2383 -1.2263
 3981TIP3   OH211906   2.247   6.538   4.287 -0.0517 -0.5640 -0.4594
 3981TIP3    H111907   2.225   6.493   4.206 -1.9174 -0.2546 -0.1571
 3981TIP3    H211908   2.228   6.630   4.270  1.1592 -0.2422 -0.1951
 3982TIP3   OH211909   6.661   0.214   1.111 -0.6310 -0.3402 -0.0286
 3982TIP3    H111910   6.613   0.144   1.156 -1.3374  1.0427  1.4556
 3982TIP3    H211911   6.612   0.294   1.131  1.3569  0.9036  0.1700
 3983TIP3   OH211912   2.433   6.464   5.763  0.3178  0.1513  0.2972
 3983TIP3    H111913   2.493   6.447   5.836  1.1566  0.6048 -0.2631
 3983TIP3    H211914   2.454   6.395   5.699 -0.0701  0.0483  0.2786
 3984TIP3   OH211915   6.562   1.649   2.588  0.5910  0.8248  0.6555
 3984TIP3    H111916   6.617   1.661   2.511  0.6776  1.6379  0.8427
 3984TIP3    H211917   6.555   1.736   2.627 -0.8089  0.7473  0.6413
 3985TIP3   OH211918   1.612   2.135   1.716 -0.0794  0.1365 -0.2844
 3985TIP3    H111919   1.614   2.156   1.623  0.4699 -0.0300 -0.3146
 3985TIP3    H211920   1.669   2.058   1.725 -0.0626  0.1968  0.1957
 3986TIP3   OH211921   0.543   4.946   2.363 -0.1014 -0.1678 -0.1730
 3986TIP3    H111922   0.499   4.867   2.332 -0.2816 -0.0447 -0.2325
 3986TIP3    H211923   0.545   4.937   2.458  0.1809 -0.4035 -0.2023
 3987TIP3   OH211924   4.060   0.027   4.529  0.0728 -0.1858 -0.4236
 3987TIP3    H111925   4.129   0.090   4.509 -0.3817  0.0733 -1.1930
 3987TIP3    H211926   4.049   0.032   4.624 -1.0102  1.9999 -0.6203
 3988TIP3   OH211927   5.216   5.139   1.160  0.0952 -0.3583  0.4194
 3988TIP3    H111928   5.301   5.098   1.149  0.3416  0.2030  0.2066
 3988TIP3    H211929   5.159   5.095   1.098 -0.2433 -2.0186  1.8225
 3989TIP3   OH211930   3.405   2.886   0.947  0.5714  0.2099  0.4476
 3989TIP3    H111931   3.441   2.806   0.909 -2.4445 -0.4386 -1.4961
 3989TIP3    H211932   3.380   2.862   1.036  0.8656 -0.6262  0.3133
 3990TIP3   OH211933   3.771   5.341   0.985 -0.1847  0.5755 -0.6285
 3990TIP3    H111934   3.845   5.354   1.044 -0.0867  0.8447 -0.8107
 3990TIP3    H211935   3.759   5.425   0.941  0.2660  0.1551 -1.5972
 3991TIP3   OH211936   6.909   3.824   4.065  0.0727  0.0690 -0.5567
 3991TIP3    H111937   6.975   3.893   4.058 -1.1543  1.6711  2.0208
 3991TIP3    H211938   6.926   3.782   4.149 -1.6954  0.0658 -0.1508
 3992TIP3   OH211939   4.887   3.325   5.704 -0.1314 -0.5010 -0.2020
 3992TIP3    H111940   4.807   3.277   5.725 -0.0047 -0.0110  1.4874
 3992TIP3    H211941   4.922   3.353   5.788  0.8398  0.8817 -1.0155
 3993TIP3   OH211942   2.979   2.857   5.791 -0.3658 -0.1539 -0.3326
 3993TIP3    H111943   3.007   2.839   5.880 -3.3173 -1.8304  0.3831
 3993TIP3    H211944   3.060   2.856   5.739  1.1423 -1.7241  1.9095
 3994TIP3   OH211945   3.329   5.930   5.503  0.2785  0.2548 -0.7773
 3994TIP3    H111946   3.414   5.892   5.524 -0.3272 -0.3895  0.6688
 3994TIP3    H211947   3.280   5.925   5.585 -1.1450  0.6590 -1.5705
 3995TIP3   OH211948   2.271   5.643   2.095 -0.0109  0.1443  0.0917
 3995TIP3    H111949   2.294   5.735   2.086 -3.6985  1.0634 -1.8907
 3995TIP3    H211950   2.215   5.640   2.173  0.5138 -0.5173  0.4454
 3996TIP3   OH211951   5.067   0.522   4.914 -0.2029  0.2014 -0.2790
 3996TIP3    H111952   5.118   0.548   4.837  0.1735 -1.3662 -0.6043
 3996TIP3    H211953   5.130   0.477   4.970 -0.5678  0.9674  0.7739
 3997TIP3   OH211954   4.627   5.930   2.810 -0.1330 -0.5342 -0.2032
 3997TIP3    H111955   4.710   5.915   2.764 -0.5948 -0.0467 -1.2035
 3997TIP3    H211956   4.654   5.956   2.898  0.7991  0.2865 -0.7122
 3998TIP3   OH211957   4.121   0.327   5.022 -0.0111 -0.1572  0.1515
 3998TIP3    H111958   4.129   0.422   5.027 -1.6829  0.1700 -1.8809
 3998TIP3    H211959   4.185   0.301   4.956 -1.6857  0.0230 -1.6345
 3999TIP3   OH211960   3.874   6.694   4.397 -0.2660  0.0756  0.0052
 3999TIP3    H111961   3.820   6.743   4.458 -0.4595 -1.1841  0.8881
 3999TIP3    H211962   3.941   6.756   4.367 -0.4710  0.8461  1.1190
 4000TIP3   OH211963   2.240   1.003   2.564 -0.1755 -0.0374  0.0015
 4000TIP3    H111964   2.290   0.945   2.506  0.8936  1.9733 -1.1827
 4000TIP3    H211965   2.149   0.990   2.537 -0.1180 -2.0485  0.6160
 4001TIP3   OH211966   5.406   4.474   1.174 -0.2139  0.2088 -0.2334
 4001TIP3    H111967   5.353   4.395   1.180  0.5152 -0.1996  3.4220
 4001TIP3    H211968   5.343   4.546   1.181 -0.6739 -0.0858 -1.1888
 4002TIP3   OH211969   3.219   2.420   1.900 -0.2000  0.7911 -0.2483
 4002TIP3    H111970   3.148   2.475   1.868 -0.5040  0.0580 -0.8766
 4002TIP3    H211971   3.186   2.384   1.982 -1.0551 -0.4637 -1.1084
 4003TIP3   OH211972   1.813   0.812   0.193 -0.0189  0.4707 -0.2172
 4003TIP3    H111973   1.794   0.777   0.106  1.4591 -1.6919  0.2515
 4003TIP3    H211974   1.907   0.826   0.194  0.3034 -1.3384  1.5654
 4004TIP3   OH211975   3.255   3.031   3.827  0.0744  0.5835  0.0453
 4004TIP3    H111976   3.296   3.031   3.741 -2.2693 -0.7074 -1.1489
 4004TIP3    H211977   3.217   3.118   3.836  0.9723  0.9808  0.1554
 4005TIP3   OH211978   2.450   6.092   0.773 -0.0093  0.5595  0.1551
 4005TIP3    H111979   2.531   6.051   0.804 -1.4959 -1.6708  1.4311
 4005TIP3    H211980   2.463   6.185   0.786  3.3053  0.5700 -2.1528
 4006TIP3   OH211981   2.516   2.480   5.272 -0.2559 -0.9091 -0.1273
 4006TIP3    H111982   2.542   2.445   5.357 -1.6712 -0.8441  0.3715
 4006TIP3    H211983   2.438   2.429   5.248 -0.1978 -0.5469 -1.1133
 4007TIP3   OH211984   4.239   5.085   1.434  0.2292 -0.7076  0.4781
 4007TIP3    H111985   4.190   5.073   1.353 -0.7628  0.9369  0.7939
 4007TIP3    H211986   4.317   5.135   1.409  0.3420 -0.9167  0.4109
 4008TIP3   OH211987   4.196   5.403   3.229 -0.1637  0.2964  0.1226
 4008TIP3    H111988   4.124   5.437   3.283  0.8922  1.8387  0.6142
 4008TIP3    H211989   4.168   5.421   3.139 -1.8051 -2.0332  0.0593
 4009TIP3   OH211990   1.980   1.383   3.830 -0.0111 -0.0757 -0.2474
 4009TIP3    H111991   1.976   1.383   3.734 -1.2265 -0.1304 -0.2178
 4009TIP3    H211992   2.073   1.388   3.850  0.2688 -0.1408 -1.4322
 4010TIP3   OH211993   1.758   1.840   4.379 -0.6049 -0.6004 -0.2549
 4010TIP3    H111994   1.779   1.755   4.342  3.1310 -0.2713  0.6949
 4010TIP3    H211995   1.665   1.852   4.361 -0.4163 -3.0713 -4.0054
 4011TIP3   OH211996   2.238   1.088   0.938 -0.2867  0.0256  0.1023
 4011TIP3    H111997   2.146   1.073   0.916  0.2672 -0.1121 -2.5497
 4011TIP3    H211998   2.280   1.003   0.925  0.5248  0.5450 -0.8038
 4012TIP3   OH211999   0.590   2.084   1.504  0.7643 -0.2306  0.5416
 4012TIP3    H112000   0.609   2.176   1.527  0.8128 -0.5369  1.8468
 4012TIP3    H212001   0.495   2.076   1.515  0.2558  0.4041 -2.5593
 4013TIP3   OH212002   0.653   4.632   3.060 -0.2222  0.0934  0.4067
 4013TIP3    H112003   0.722   4.566   3.072  0.5255  1.1751  2.5497
 4013TIP3    H212004   0.593   4.617   3.133 -0.2024  1.5492  0.7451
 4014TIP3   OH212005   1.453   2.580   3.807  0.5264  0.4231  0.3173
 4014TIP3    H112006   1.482   2.494   3.838 -1.3258 -0.4354 -0.1454
 4014TIP3    H212007   1.358   2.580   3.821 -0.0729  0.9772 -2.8494
 4015TIP3   OH212008   2.102   5.161   2.430 -0.3844 -0.1125 -0.2608
 4015TIP3    H112009   2.062   5.239   2.470 -3.5252 -0.4550 -2.4059
 4015TIP3    H212010   2.100   5.178   2.336  0.8649 -1.9424 -0.6689
 4016TIP3   OH212011   6.311   1.629   4.755  0.6614  0.5688  0.1247
 4016TIP3    H112012   6.352   1.712   4.779  1.1651  0.3968 -0.1368
 4016TIP3    H212013   6.248   1.652   4.687 -1.0441  1.1189  1.8104
 4017TIP3   OH212014   0.154   3.709   4.016 -0.1080 -0.4161 -0.1911
 4017TIP3    H112015   0.211   3.783   3.995 -0.0336 -1.0103 -2.1965
 4017TIP3    H212016   0.159   3.703   4.112 -0.0539  2.0962  0.0530
 4018TIP3   OH212017   0.775   6.023   4.328  0.5447  0.0306 -0.1777
 4018TIP3    H112018   0.775   5.955   4.261 -0.4198 -0.0504 -0.0996
 4018TIP3    H212019   0.738   5.981   4.405  1.0685  0.3079  0.2343
 4019TIP3   OH212020   0.863   5.956   1.868 -0.2798 -0.1143 -0.0805
 4019TIP3    H112021   0.847   6.047   1.846  2.1671  0.7323  1.3228
 4019TIP3    H212022   0.833   5.947   1.958 -1.0405 -0.8997 -0.3907
 4020TIP3   OH212023   3.162   6.177   3.669 -0.2127 -0.3031 -0.4168
 4020TIP3    H112024   3.211   6.244   3.623  1.8328 -0.9146  0.7385
 4020TIP3    H212025   3.103   6.226   3.727  0.1768  0.4676 -0.6597
 4021TIP3   OH212026   3.925   0.070   1.287 -0.0948  0.7496 -0.0449
 4021TIP3    H112027   3.969   0.155   1.280 -0.3569  0.8809 -0.1454
 4021TIP3    H212028   3.995   0.007   1.302  0.2532  0.8046 -1.3393
 4022TIP3   OH212029   0.131   2.919   1.436 -0.1896 -0.0242  0.1626
 4022TIP3    H112030   0.164   2.829   1.435 -0.6931 -0.2113  0.0906
 4022TIP3    H212031   0.204   2.971   1.468 -0.9279 -0.8614  3.6039
 4023TIP3   OH212032   2.122   1.409   5.808  0.3522 -0.2162 -0.4039
 4023TIP3    H112033   2.123   1.360   5.725 -0.3859 -1.0364  0.0575
 4023TIP3    H212034   2.175   1.357   5.867 -2.4183 -1.8584  0.8202
 4024TIP3   OH212035   4.186   2.445   2.672  0.1396 -0.2869  0.1111
 4024TIP3    H112036   4.214   2.438   2.581 -0.9497 -0.1041 -0.2490
 4024TIP3    H212037   4.240   2.381   2.719  2.1477  0.9917 -0.2940
 4025TIP3   OH212038   4.609   1.903   1.396  0.5140 -0.5783 -0.2828
 4025TIP3    H112039   4.534   1.962   1.401 -0.6307 -2.0318  0.3001
 4025TIP3    H212040   4.580   1.833   1.338  2.0003 -0.3948 -1.3103
 4026TIP3   OH212041   3.119   5.232   1.833  0.2126  0.8219  0.5601
 4026TIP3    H112042   3.136   5.199   1.745  4.3319  0.3206  1.3354
 4026TIP3    H212043   3.115   5.327   1.823  1.4523  0.8207 -0.1270
 4027TIP3   OH212044   6.311   2.241   1.984  0.1204 -0.0774 -0.4150
 4027TIP3    H112045   6.372   2.307   1.953  0.0542 -0.9181 -2.5369
 4027TIP3    H212046   6.226   2.267   1.946 -0.2416 -0.4603  0.1167
 4028TIP3   OH212047   0.394   0.817   1.446 -0.7058  0.0847  0.2447
 4028TIP3    H112048   0.396   0.796   1.353 -0.7343  0.6007  0.1261
 4028TIP3    H212049   0.317   0.770   1.480 -1.2892  0.7150 -0.1898
 4029TIP3   OH212050   2.337   6.311   0.245  0.0787 -0.2530  0.1840
 4029TIP3    H112051   2.377   6.380   0.191 -0.1253 -0.0987  0.2274
 4029TIP3    H212052   2.357   6.230   0.198  0.6471 -0.2050  0.3279
 4030TIP3   OH212053   0.223   5.895   4.629 -0.5620  0.3376  0.1168
 4030TIP3    H112054   0.248   5.953   4.701  0.5581 -0.4927  0.4370
 4030TIP3    H212055   0.137   5.862   4.653 -1.1519  1.7256  0.0052
 4031TIP3   OH212056   0.563   0.394   5.277 -0.4312 -0.8027  0.2505
 4031TIP3    H112057   0.499   0.354   5.336 -1.1375  0.2745  0.2522
 4031TIP3    H212058   0.527   0.481   5.258  0.8526 -0.3126 -0.0528
 4032TIP3   OH212059   6.965   1.314   2.067  0.4210 -0.0945 -0.1646
 4032TIP3    H112060   7.010   1.386   2.110  2.2032 -1.8433  1.0818
 4032TIP3    H212061   7.034   1.267   2.020 -0.1400 -2.4198  1.1565
 4033TIP3   OH212062   1.164   3.589   4.933 -0.3856  0.8411 -0.1448
 4033TIP3    H112063   1.175   3.684   4.931  0.0182  0.8208  0.8363
 4033TIP3    H212064   1.209   3.561   5.012  1.2908 -0.3947 -1.4567
 4034TIP3   OH212065   0.656   5.956   3.393 -0.2701  0.1916  0.4035
 4034TIP3    H112066   0.722   5.887   3.398  0.9077  1.1548 -1.0260
 4034TIP3    H212067   0.706   6.037   3.398 -1.4016  0.9519 -0.2214
 4035TIP3   OH212068   1.654   3.094   0.443  0.3946 -0.6462  0.1820
 4035TIP3    H112069   1.686   3.052   0.522 -0.7990 -0.7984  0.6019
 4035TIP3    H212070   1.576   3.045   0.419  0.4764 -0.3144 -0.8356
 4036TIP3   OH212071   6.816   0.378   3.066  0.2507 -0.0936  0.4558
 4036TIP3    H112072   6.722   0.389   3.078  0.3697  1.3648  0.2465
 4036TIP3    H212073   6.847   0.344   3.149 -0.6017 -1.7470  0.1514
 4037TIP3   OH212074   2.580   6.644   1.671 -0.2417 -0.4050 -0.3275
 4037TIP3    H112075   2.514   6.713   1.684  0.2442 -0.0138  0.1143
 4037TIP3    H212076   2.600   6.648   1.577 -0.4502 -0.1575 -0.3640
 4038TIP3   OH212077   3.544   4.225   4.852 -0.0543 -0.2847  0.0733
 4038TIP3    H112078   3.489   4.194   4.923  0.9072 -0.2630  0.8423
 4038TIP3    H212079   3.482   4.258   4.786 -0.9466 -0.2961  0.8910
 4039TIP3   OH212080   4.087   3.497   5.045  0.6603 -0.8154  0.4904
 4039TIP3    H112081   4.046   3.454   4.970  0.8037 -0.5209  0.2389
 4039TIP3    H212082   4.103   3.587   5.016 -4.3069  1.0923  2.6212
 4040TIP3   OH212083   0.503   3.509   1.925 -0.0398  0.3551  0.1355
 4040TIP3    H112084   0.418   3.537   1.958 -0.1892  1.4479 -1.0949
 4040TIP3    H212085   0.566   3.541   1.990 -0.6131 -2.3461  2.2310
 4041TIP3   OH212086   1.025   5.171   1.578 -0.3891 -0.6851 -0.3039
 4041TIP3    H112087   1.041   5.215   1.494  1.0380  1.5919  1.0673
 4041TIP3    H212088   0.951   5.219   1.616  1.2877  0.8256  1.2791
 4042TIP3   OH212089   5.603   6.510   4.955  0.2591  0.8287 -0.3747
 4042TIP3    H112090   5.546   6.460   4.895  1.3752 -0.2541 -0.5733
 4042TIP3    H212091   5.646   6.575   4.899 -1.6956  2.5487 -0.0035
 4043TIP3   OH212092   3.061   0.710   5.357 -0.3784 -0.0055 -0.1401
 4043TIP3    H112093   3.009   0.646   5.308  0.1753 -0.3612 -0.2839
 4043TIP3    H212094   3.118   0.749   5.291 -1.0509  1.0026 -0.1421
 4044TIP3   OH212095   0.369   6.757   0.408  0.1751 -0.7086  0.1508
 4044TIP3    H112096   0.424   6.783   0.483  1.7665  1.9163 -1.7461
 4044TIP3    H212097   0.317   6.835   0.388 -0.9356 -1.6749 -0.9180
 4045TIP3   OH212098   2.639   6.232   3.891  0.0211 -0.2268  0.3191
 4045TIP3    H112099   2.570   6.178   3.853 -0.1472  1.2388 -1.6359
 4045TIP3    H212100   2.593   6.289   3.953 -0.6509  0.9121 -1.1510
 4046TIP3   OH212101   3.169   3.066   5.437 -0.4253 -0.1911  0.1370
 4046TIP3    H112102   3.198   3.103   5.353 -2.7717 -1.2587 -1.2724
 4046TIP3    H212103   3.080   3.100   5.448 -0.9245 -1.7145  1.1077
 4047TIP3   OH212104   5.299   5.478   5.430 -0.1521  0.2101  0.5338
 4047TIP3    H112105   5.300   5.540   5.356 -1.4384  0.5851  0.7882
 4047TIP3    H212106   5.227   5.419   5.409  1.2720 -1.4538  0.1387
 4048TIP3   OH212107   5.741   2.313   1.892  0.0114 -0.2409  0.3474
 4048TIP3    H112108   5.686   2.383   1.927  0.9128  0.4656  0.3887
 4048TIP3    H212109   5.683   2.263   1.834 -0.5822  0.6706  0.1427
 4049TIP3   OH212110   6.005   2.495   5.160  0.6042  0.5734 -0.6424
 4049TIP3    H112111   5.969   2.533   5.080 -0.0821  0.9811 -0.1576
 4049TIP3    H212112   5.928   2.469   5.211  0.9684 -3.0305 -1.6151
 4050TIP3   OH212113   0.455   0.947   3.484 -0.0744  0.1200 -0.3644
 4050TIP3    H112114   0.382   0.949   3.421 -0.5111  2.3795  0.1158
 4050TIP3    H212115   0.517   1.012   3.451  0.9445 -0.5821  0.1317
 4051TIP3   OH212116   4.170   4.886   4.596  0.2076  0.1413 -0.0149
 4051TIP3    H112117   4.213   4.802   4.611  1.1150  0.8296  1.4525
 4051TIP3    H212118   4.155   4.922   4.684  2.3769  2.7536 -0.5841
 4052TIP3   OH212119   5.985   1.531   2.719  0.3793 -0.8233  0.0783
 4052TIP3    H112120   5.961   1.467   2.651  0.5988 -1.1937  0.3439
 4052TIP3    H212121   6.007   1.478   2.795  0.1249 -0.4064  0.4468
 4053TIP3   OH212122   0.297   2.388   3.710  0.7129  0.8364  0.8670
 4053TIP3    H112123   0.243   2.435   3.647 -0.2271 -1.4553 -0.1166
 4053TIP3    H212124   0.365   2.346   3.657  0.4071 -0.4367  1.4539
 4054TIP3   OH212125   2.151   5.902   0.752 -0.3951  0.0255  0.1416
 4054TIP3    H112126   2.115   5.878   0.837  0.9411 -0.3295  0.6220
 4054TIP3    H212127   2.243   5.920   0.769 -0.1736  0.2315 -1.1864
 4055TIP3   OH212128   7.166   0.620   3.772 -0.1180 -0.1128 -0.3291
 4055TIP3    H112129   7.082   0.621   3.818 -0.7272 -1.1652 -1.3436
 4055TIP3    H212130   7.231   0.637   3.839 -1.1987  1.5539  0.3473
 4056TIP3   OH212131   4.432   6.002   2.630  0.0869 -0.6369  0.2478
 4056TIP3    H112132   4.495   5.977   2.697 -0.2250  2.3394  1.7851
 4056TIP3    H212133   4.358   5.943   2.644  1.3022 -2.2122  0.3242
 4057TIP3   OH212134   3.921   4.613   4.269 -0.3093 -0.6836 -0.6535
 4057TIP3    H112135   3.878   4.695   4.245 -2.6027 -1.9842 -1.1715
 4057TIP3    H212136   4.014   4.636   4.273 -0.8728  1.9429 -0.7178
 4058TIP3   OH212137   5.007   0.602   4.348  0.4261 -0.3320  0.2833
 4058TIP3    H112138   4.925   0.612   4.398  1.0225  0.1892  1.1785
 4058TIP3    H212139   4.981   0.617   4.257 -0.6118 -0.9200  0.4595
 4059TIP3   OH212140   3.729   3.595   0.574  0.7316 -0.0965  0.3062
 4059TIP3    H112141   3.689   3.541   0.641  0.4320  0.0521  0.2505
 4059TIP3    H212142   3.771   3.667   0.622  1.8069 -0.7929  0.4363
 4060TIP3   OH212143   6.054   4.849   0.166 -0.0093  0.2326 -0.0479
 4060TIP3    H112144   6.090   4.792   0.098  0.2745 -1.8022  1.6809
 4060TIP3    H212145   6.131   4.890   0.206 -0.2366  2.3324 -1.5894
 4061TIP3   OH212146   6.444   6.345   1.166  0.2053 -0.5863 -0.3528
 4061TIP3    H112147   6.413   6.433   1.189 -1.0926 -1.4089  1.1549
 4061TIP3    H212148   6.538   6.347   1.188  0.4838  0.7659 -1.4910
 4062TIP3   OH212149   5.967   2.343   4.534 -0.2012 -0.2697 -0.1322
 4062TIP3    H112150   5.968   2.417   4.473  0.2233  0.0149  0.2128
 4062TIP3    H212151   6.058   2.336   4.564 -0.7379  0.8229  1.9305
 4063TIP3   OH212152   0.842   0.896   2.382  0.0027  0.2249  0.2767
 4063TIP3    H112153   0.803   0.928   2.301 -0.8126 -0.5409  0.3490
 4063TIP3    H212154   0.894   0.820   2.356 -0.2610 -0.0226  0.4685
 4064TIP3   OH212155   0.066   3.038   0.485  0.1379 -0.0692  0.2445
 4064TIP3    H112156  -0.021   3.049   0.447  0.6270  1.2123 -0.5797
 4064TIP3    H212157   0.075   3.112   0.545 -1.1801 -2.7649  4.1978
 4065TIP3   OH212158   7.103   1.956   3.596 -0.2309 -0.7885 -0.0099
 4065TIP3    H112159   7.121   1.921   3.683 -2.5990 -1.3216  0.3295
 4065TIP3    H212160   7.062   1.883   3.549 -0.0900 -0.1401 -1.1907
 4066TIP3   OH212161   6.650   4.477   4.522 -0.1067  0.5356 -0.4688
 4066TIP3    H112162   6.575   4.423   4.547  1.6785 -0.6200  3.1239
 4066TIP3    H212163   6.704   4.418   4.469 -0.2282  0.2799 -0.3119
 4067TIP3   OH212164   0.433   4.151   3.084 -0.3076  0.3345  0.3100
 4067TIP3    H112165   0.411   4.244   3.080  0.7148  0.6425  1.1722
 4067TIP3    H212166   0.517   4.144   3.040 -1.2488 -0.5356 -1.4640
 4068TIP3   OH212167   3.466   5.135   5.675  0.0947  0.1774 -0.1951
 4068TIP3    H112168   3.561   5.136   5.663  0.0445  1.4698 -0.5765
 4068TIP3    H212169   3.430   5.160   5.590 -0.4754  2.1596  0.5585
 4069TIP3   OH212170   1.574   0.988   4.154  0.6273  0.1020  0.5391
 4069TIP3    H112171   1.668   1.003   4.140  1.3085 -3.0440  1.0446
 4069TIP3    H212172   1.566   0.976   4.249 -0.5708  1.5923  0.6715
 4070TIP3   OH212173   1.598   6.478   3.097  0.5062  0.7525 -0.4852
 4070TIP3    H112174   1.535   6.484   3.026 -0.8754  1.9997  0.7837
 4070TIP3    H212175   1.569   6.403   3.149 -1.4681  2.6689  1.4019
 4071TIP3   OH212176   7.138   4.565   0.380 -0.5780  0.3888  0.7024
 4071TIP3    H112177   7.200   4.626   0.420 -0.1116 -0.2606  0.9927
 4071TIP3    H212178   7.153   4.573   0.286  0.5941 -0.4145  0.8046
 4072TIP3   OH212179   2.427   1.378   2.000 -0.5155 -0.6588 -0.6267
 4072TIP3    H112180   2.400   1.453   2.054  2.5671 -0.0651  0.2757
 4072TIP3    H212181   2.402   1.302   2.052 -0.1858 -0.1536  0.3012
 4073TIP3   OH212182   1.819   0.351   5.490  0.1127  0.0376 -0.1068
 4073TIP3    H112183   1.774   0.435   5.476  1.7328  1.1157  0.7485
 4073TIP3    H212184   1.752   0.285   5.474 -0.5840  1.3542 -3.4683
 4074TIP3   OH212185   6.859   4.321   5.440  0.5108 -0.0362 -0.4530
 4074TIP3    H112186   6.873   4.290   5.351 -2.5975  0.1676 -1.1260
 4074TIP3    H212187   6.865   4.242   5.494  1.8249 -0.2535 -0.8864
 4075TIP3   OH212188   6.662   0.268   0.279  0.2239  0.0754  0.2943
 4075TIP3    H112189   6.663   0.220   0.196 -1.7695  1.1605 -0.4041
 4075TIP3    H212190   6.736   0.329   0.272  1.2789 -1.1704  0.1804
 4076TIP3   OH212191   5.925   4.976   2.535 -0.2188  0.0535 -0.2279
 4076TIP3    H112192   5.861   4.947   2.601 -0.1824  0.3720 -0.0517
 4076TIP3    H212193   6.010   4.948   2.570 -0.1984  0.2318 -0.1325
 4077TIP3   OH212194   7.177   5.852   3.961  0.3758 -0.4174  0.3304
 4077TIP3    H112195   7.273   5.851   3.959  0.3607 -1.0326 -0.4486
 4077TIP3    H212196   7.151   5.845   3.869 -0.4218  2.2524  0.2740
 4078TIP3   OH212197   5.101   6.122   2.275  0.1212  0.3775  0.2305
 4078TIP3    H112198   5.071   6.113   2.185 -0.6189 -1.2554  0.5976
 4078TIP3    H212199   5.141   6.209   2.279 -0.8088  0.9220 -1.3805
 4079TIP3   OH212200   6.247   3.672   1.096 -0.0415 -1.0006  0.2110
 4079TIP3    H112201   6.320   3.612   1.081  0.0706 -0.9397  0.5055
 4079TIP3    H212202   6.258   3.740   1.030  0.6583 -0.5406  0.7929
 4080TIP3   OH212203   1.682   4.534   2.733  0.3784  0.1242  0.0668
 4080TIP3    H112204   1.629   4.613   2.739  0.6004  0.1985  1.4839
 4080TIP3    H212205   1.628   4.472   2.683 -1.3157  0.0251  1.8875
 4081TIP3   OH212206   2.988   4.375  -0.020  0.3700  0.6663  0.3982
 4081TIP3    H112207   3.036   4.435   0.038 -0.1771  0.8218  0.6969
 4081TIP3    H212208   2.904   4.361   0.024 -0.2442  1.1516 -0.5688
 4082TIP3   OH212209   1.618   1.662   3.086  0.4172  0.2641 -0.1089
 4082TIP3    H112210   1.696   1.706   3.118  0.5531 -0.0047 -0.0729
 4082TIP3    H212211   1.563   1.733   3.052  0.1957  0.5747  0.8550
 4083TIP3   OH212212   2.235   0.668   2.487 -0.0937 -0.6990 -0.2326
 4083TIP3    H112213   2.301   0.627   2.542  0.6225 -0.4308 -0.8827
 4083TIP3    H212214   2.152   0.651   2.533  0.6192  0.9985  1.8330
 4084TIP3   OH212215   6.416   3.500   1.501  0.3923  0.4578  0.7609
 4084TIP3    H112216   6.356   3.574   1.508  0.0160  0.1618  0.7272
 4084TIP3    H212217   6.429   3.471   1.591 -0.3198 -0.1044  0.6920
 4085TIP3   OH212218   5.265   1.069   5.173  0.0705  0.0593 -0.2326
 4085TIP3    H112219   5.305   1.142   5.221  1.3001  0.0190 -1.1348
 4085TIP3    H212220   5.261   0.998   5.237  0.5906  0.3597  0.1455
 4086TIP3   OH212221   2.752   6.159   1.874  0.1611  0.1296  0.2147
 4086TIP3    H112222   2.698   6.221   1.824 -0.6447 -1.2296 -0.6433
 4086TIP3    H212223   2.751   6.195   1.963  0.7222  1.9997 -0.4737
 4087TIP3   OH212224   5.509   3.650   5.277  0.2763 -0.2536 -0.5534
 4087TIP3    H112225   5.561   3.668   5.356 -0.6784  0.3505 -0.0428
 4087TIP3    H212226   5.553   3.576   5.236  1.8381  0.5493 -0.4102
 4088TIP3   OH212227   1.953   4.671   2.110  0.4036 -0.3925 -0.1326
 4088TIP3    H112228   1.950   4.575   2.101 -0.0511 -0.4636  0.6630
 4088TIP3    H212229   2.047   4.692   2.104  0.7241 -1.1150  1.6042
 4089TIP3   OH212230   0.881   6.046   5.062  0.3031  0.0365  0.1164
 4089TIP3    H112231   0.806   6.069   5.118  1.1589  2.1269  0.4931
 4089TIP3    H212232   0.921   5.971   5.105 -0.8182 -0.2923  0.6296
 4090TIP3   OH212233   4.918   2.797   0.503  0.2928  0.3233 -0.2777
 4090TIP3    H112234   4.885   2.709   0.524 -1.0930  0.6739 -0.9354
 4090TIP3    H212235   4.846   2.856   0.524  0.9820  1.2580 -0.4741
 4091TIP3   OH212236   1.695   2.315   1.336  0.1716  0.3712  0.6943
 4091TIP3    H112237   1.637   2.243   1.310  1.4318 -0.3170 -0.3201
 4091TIP3    H212238   1.639   2.393   1.333 -0.3033  0.0259 -2.0413
 4092TIP3   OH212239   4.330   3.441   3.875  0.1979  0.6336  0.5208
 4092TIP3    H112240   4.290   3.428   3.961  0.1301  2.5866  0.8413
 4092TIP3    H212241   4.412   3.393   3.878  0.4824  1.1635  1.9207
 4093TIP3   OH212242   5.159   2.817   4.277  0.4335 -0.7649  0.7164
 4093TIP3    H112243   5.235   2.760   4.265  0.0359 -1.5498  1.7886
 4093TIP3    H212244   5.084   2.762   4.253  0.1659 -0.0963 -0.0285
 4094TIP3   OH212245   0.005   4.519   1.453 -0.1169 -0.5473 -0.6405
 4094TIP3    H112246   0.057   4.492   1.528 -1.2399 -0.4320  0.1987
 4094TIP3    H212247   0.016   4.448   1.389  0.6634 -0.7493 -0.2943
 4095TIP3   OH212248   2.722   4.121   0.829  0.5236 -0.0904 -0.3366
 4095TIP3    H112249   2.647   4.159   0.875  1.6340  1.0164  0.6315
 4095TIP3    H212250   2.797   4.137   0.888  1.4579 -1.5319 -1.0756
 4096TIP3   OH212251   2.181   5.665   0.475  0.4715 -0.0070 -0.3769
 4096TIP3    H112252   2.098   5.709   0.456 -0.4611 -1.3693  0.4649
 4096TIP3    H212253   2.159   5.573   0.486  2.0219 -0.3341  0.3748
 4097TIP3   OH212254   3.804   0.391   1.641  0.4404  0.5046 -0.8173
 4097TIP3    H112255   3.789   0.404   1.735  0.8034 -1.5526 -0.4104
 4097TIP3    H212256   3.744   0.451   1.598 -0.8777  0.3866  0.7507
 4098TIP3   OH212257   7.151   3.174   2.138  0.2873  0.2852  0.0890
 4098TIP3    H112258   7.139   3.224   2.058 -2.0026  0.4808  0.4986
 4098TIP3    H212259   7.073   3.191   2.190  0.7590 -1.4419  1.4978
 4099TIP3   OH212260   0.066   5.492   3.526 -0.0281  0.0301  0.3273
 4099TIP3    H112261   0.104   5.574   3.559 -0.1240  0.5434 -0.7920
 4099TIP3    H212262   0.141   5.442   3.494 -0.1412  0.4681 -0.6502
 4100TIP3   OH212263   2.931   3.760   3.699  0.3295 -0.1517 -0.3884
 4100TIP3    H112264   2.846   3.715   3.691  0.2908 -0.7625  2.3257
 4100TIP3    H212265   2.908   3.850   3.723  0.3764 -0.5684  1.3762
 4101TIP3   OH212266   3.833   3.236   3.451 -0.3223 -0.1242  0.1594
 4101TIP3    H112267   3.776   3.161   3.468 -0.1368 -0.3851 -0.3315
 4101TIP3    H212268   3.781   3.293   3.394 -0.8922  0.6814  1.4458
 4102TIP3   OH212269   6.415   2.875   3.591 -0.2795  0.1342  0.6840
 4102TIP3    H112270   6.330   2.872   3.635 -0.8519 -0.9534 -0.4427
 4102TIP3    H212271   6.478   2.858   3.661 -1.2400 -2.8710  0.9793
 4103TIP3   OH212272   4.249   2.553   1.312  0.0991  0.1193  0.0225
 4103TIP3    H112273   4.253   2.647   1.329  1.4336  0.0793  0.0099
 4103TIP3    H212274   4.227   2.547   1.219  2.4503  0.4956 -0.6295
 4104TIP3   OH212275   6.281   2.093   5.289 -0.0816  0.0391  0.0838
 4104TIP3    H112276   6.241   2.178   5.304 -0.8464 -0.1573 -0.7752
 4104TIP3    H212277   6.208   2.031   5.295 -0.4126 -0.1344 -3.6008
 4105TIP3   OH212278   5.397   1.591   5.211 -0.1915 -0.2618 -0.4396
 4105TIP3    H112279   5.486   1.581   5.176 -0.0134 -1.0776  0.2134
 4105TIP3    H212280   5.371   1.679   5.185 -0.1102 -0.8320 -2.6733
 4106TIP3   OH212281   1.417   5.960   4.708 -0.5337  0.7132  0.3489
 4106TIP3    H112282   1.499   5.942   4.754 -0.6581  0.7467  0.5846
 4106TIP3    H212283   1.358   5.990   4.776 -1.0366 -0.2295  0.3378
 4107TIP3   OH212284   4.008   4.780   2.764  0.6321 -0.1494  0.6526
 4107TIP3    H112285   4.094   4.758   2.730 -0.1458 -1.4746 -0.5859
 4107TIP3    H212286   3.969   4.696   2.789 -1.4001  0.0056 -1.6053
 4108TIP3   OH212287   3.167   2.405   2.780  0.5019 -0.2397  0.0476
 4108TIP3    H112288   3.216   2.464   2.837 -0.4174 -0.5776  1.2298
 4108TIP3    H212289   3.204   2.419   2.693  2.7309 -0.5416  0.8899
 4109TIP3   OH212290   4.854   5.223   0.451  0.5602 -0.2786 -0.0241
 4109TIP3    H112291   4.801   5.237   0.529 -0.0011 -0.2077 -0.4199
 4109TIP3    H212292   4.830   5.135   0.422  0.5772 -0.2006 -0.2716
 4110TIP3   OH212293   0.360   1.442   3.711  0.3312 -0.2281  0.2622
 4110TIP3    H112294   0.352   1.353   3.745  0.0450 -0.2565  0.1261
 4110TIP3    H212295   0.320   1.437   3.624  0.0143  0.1121  0.3913
 4111TIP3   OH212296   6.216   2.441   3.873 -0.1460 -0.0692  0.1820
 4111TIP3    H112297   6.197   2.371   3.810  3.2631 -0.9945 -0.0365
 4111TIP3    H212298   6.200   2.522   3.825 -0.2514 -0.7449 -0.9635
 4112TIP3   OH212299   3.445   5.017   3.264  0.3195  0.2185 -0.2565
 4112TIP3    H112300   3.474   5.020   3.355 -1.9756  1.4940  0.5027
 4112TIP3    H212301   3.420   4.925   3.250  2.5799 -0.4443 -0.3083
 4113TIP3   OH212302   6.984   1.769   3.446 -0.0825  0.5064  0.0264
 4113TIP3    H112303   6.934   1.722   3.380 -0.9131  0.3782  0.7281
 4113TIP3    H212304   7.066   1.720   3.453 -0.2718  0.1196 -0.4221
 4114TIP3   OH212305   6.855   3.293   1.425  0.2523  0.0973  0.7334
 4114TIP3    H112306   6.937   3.334   1.453 -1.0135  3.1183  0.4099
 4114TIP3    H212307   6.793   3.366   1.418 -2.2182 -1.9291 -0.0017
 4115TIP3   OH212308   4.638   1.059   5.021 -0.4442 -0.0155  0.0898
 4115TIP3    H112309   4.701   1.129   5.042 -1.3758  0.7692  0.3640
 4115TIP3    H212310   4.552   1.100   5.036 -1.0451 -0.7648 -1.2084
 4116TIP3   OH212311   2.499   5.180   0.145 -0.4078  0.4175  0.3544
 4116TIP3    H112312   2.487   5.263   0.192  0.2402  0.4615  0.4502
 4116TIP3    H212313   2.583   5.147   0.176 -0.9596 -0.5973  0.7954
 4117TIP3   OH212314   1.995   2.833   1.881  0.3257  0.1285 -0.1052
 4117TIP3    H112315   1.939   2.881   1.820 -0.5388 -1.6348 -0.7705
 4117TIP3    H212316   1.944   2.754   1.903  1.0911  0.1534  2.0113
 4118TIP3   OH212317   3.756   2.672   3.425  0.1860 -0.0091 -0.0693
 4118TIP3    H112318   3.792   2.724   3.353  3.3100 -0.6323  0.9068
 4118TIP3    H212319   3.760   2.581   3.393  0.1391 -0.1566  0.3430
 4119TIP3   OH212320   6.151   0.207   3.914  0.1797  0.3044 -0.0405
 4119TIP3    H112321   6.213   0.182   3.983 -1.0231 -2.3078  0.2264
 4119TIP3    H212322   6.173   0.149   3.841 -0.7621  0.6447 -0.6040
 4120TIP3   OH212323   4.049   3.201   2.606  0.2032 -0.0756 -0.4105
 4120TIP3    H112324   4.029   3.294   2.600 -0.3834 -0.0075  1.6930
 4120TIP3    H212325   3.964   3.158   2.595  0.7921 -0.6492 -4.2311
 4121TIP3   OH212326   5.573   0.094   3.513  0.2230  0.4860 -0.3117
 4121TIP3    H112327   5.515   0.134   3.577  0.2130 -0.7363  0.4772
 4121TIP3    H212328   5.655   0.142   3.522  0.5619 -0.3349  1.4059
 4122TIP3   OH212329   6.639   0.923   4.569  0.2577  0.1089 -0.5942
 4122TIP3    H112330   6.723   0.969   4.565  0.5774 -0.4735 -0.6978
 4122TIP3    H212331   6.575   0.988   4.539  0.5227  0.8755  0.4371
 4123TIP3   OH212332   2.070   6.210   3.689  0.0986 -0.5726  0.5540
 4123TIP3    H112333   2.117   6.249   3.763 -0.6855  1.2464  0.1516
 4123TIP3    H212334   2.084   6.271   3.617 -0.2310 -1.6578 -0.4569
 4124TIP3   OH212335   6.063   0.015   1.642 -0.2318  0.5849 -0.2603
 4124TIP3    H112336   6.081   0.108   1.629  1.2866  0.5517  1.2808
 4124TIP3    H212337   6.132  -0.015   1.700 -1.9402 -1.0224  1.0637
 4125TIP3   OH212338   1.256   0.130   1.934  0.1724  0.0035 -0.0586
 4125TIP3    H112339   1.214   0.151   1.851 -0.7974  1.3936  0.7371
 4125TIP3    H212340   1.195   0.161   2.001  1.6563  0.4821  1.1552
 4126TIP3   OH212341   5.411   1.117   3.293 -0.0462  0.0514  0.1775
 4126TIP3    H112342   5.426   1.211   3.292 -0.7922  0.1788 -0.2361
 4126TIP3    H212343   5.450   1.087   3.374  1.0618  0.5651 -0.1487
 4127TIP3   OH212344   4.138   2.709   2.308 -0.0819  0.0206 -0.1256
 4127TIP3    H112345   4.106   2.776   2.248 -1.5649 -0.7548 -0.2506
 4127TIP3    H212346   4.076   2.710   2.381 -0.0757 -1.1192 -0.0806
 4128TIP3   OH212347   1.917   0.498   3.846 -0.3739 -0.5197 -0.1374
 4128TIP3    H112348   2.008   0.505   3.819 -0.4007  1.0686  0.1014
 4128TIP3    H212349   1.918   0.519   3.940 -0.9726 -0.5733 -0.1142
 4129TIP3   OH212350   3.784   3.770   3.738 -0.1747 -0.7125 -0.4799
 4129TIP3    H112351   3.860   3.789   3.792  1.8414  0.8664 -3.5930
 4129TIP3    H212352   3.802   3.683   3.701 -0.6166 -0.9555 -0.1393
 4130TIP3   OH212353   4.327   1.651   3.895 -0.0063  0.2557  0.5868
 4130TIP3    H112354   4.251   1.691   3.936  0.3540 -0.1021  1.6390
 4130TIP3    H212355   4.308   1.558   3.893  0.2072  0.2137  0.4391
 4131TIP3   OH212356   1.712   2.084   4.676  0.4655  0.1787 -0.1367
 4131TIP3    H112357   1.754   2.096   4.590 -0.2909 -0.4689 -0.6033
 4131TIP3    H212358   1.785   2.083   4.738  0.9183  2.9100 -0.4806
 4132TIP3   OH212359   5.699   0.492   1.815 -0.0683  0.3615 -0.2244
 4132TIP3    H112360   5.645   0.458   1.886  0.5159 -0.0551  0.0288
 4132TIP3    H212361   5.645   0.480   1.737  0.9911 -3.6505 -0.5825
 4133TIP3   OH212362   1.471   3.614   1.130 -0.0171 -0.0062 -0.8297
 4133TIP3    H112363   1.536   3.579   1.069 -0.4106 -2.1249 -0.1129
 4133TIP3    H212364   1.473   3.709   1.115  1.8987 -0.1904 -2.1175
 4134TIP3   OH212365   5.044   4.378   2.079  0.7181 -0.0481 -0.4505
 4134TIP3    H112366   5.014   4.423   2.158 -0.7345  0.5434 -1.2993
 4134TIP3    H212367   5.133   4.411   2.065  0.7705  0.2808  0.6035
 4135TIP3   OH212368   4.623   4.720   0.276 -0.0030  0.0332 -0.1216
 4135TIP3    H112369   4.607   4.672   0.195 -1.3010  0.9234 -0.4179
 4135TIP3    H212370   4.537   4.726   0.318  0.5398  0.1583  1.0044
 4136TIP3   OH212371   0.337   0.189   2.702  0.2321  0.2613 -0.2311
 4136TIP3    H112372   0.253   0.167   2.661  0.2409 -1.0862  0.4151
 4136TIP3    H212373   0.317   0.267   2.755 -0.1142  1.1461 -1.6086
 4137TIP3   OH212374   4.477   1.488   4.343  0.0819 -0.1647  0.4617
 4137TIP3    H112375   4.555   1.453   4.387 -0.9798 -0.7705  1.9190
 4137TIP3    H212376   4.512   1.554   4.283  1.5890  0.8666  2.3531
 4138TIP3   OH212377   4.311   5.626   0.699  0.4173 -0.2681 -0.2795
 4138TIP3    H112378   4.308   5.589   0.611  0.3470 -0.6445 -0.1198
 4138TIP3    H212379   4.336   5.553   0.756  0.2156 -0.0911  0.0453
 4139TIP3   OH212380   2.796   1.115   1.848  0.0054 -0.7224 -0.1349
 4139TIP3    H112381   2.726   1.072   1.896 -1.3530  0.9926 -0.5059
 4139TIP3    H212382   2.876   1.088   1.894 -1.1853  0.7700  3.1473
 4140TIP3   OH212383   0.595   1.873   4.077 -0.1508  0.2292 -0.6727
 4140TIP3    H112384   0.647   1.792   4.076 -0.1827  0.2090 -1.5562
 4140TIP3    H212385   0.512   1.848   4.038 -0.7841  0.3048  0.5815
 4141TIP3   OH212386   0.145   6.312   5.364 -0.0578  0.1387  0.4600
 4141TIP3    H112387   0.101   6.394   5.343  1.7716  1.3221  0.9617
 4141TIP3    H212388   0.094   6.244   5.320 -0.7071  1.7137 -1.3216
 4142TIP3   OH212389   0.080   1.304   0.121  0.5563  0.4703  0.0530
 4142TIP3    H112390   0.105   1.244   0.192 -1.3237  0.5844  0.8714
 4142TIP3    H212391   0.028   1.372   0.164 -1.4256  0.0465 -1.5409
 4143TIP3   OH212392   3.734   1.875   2.353 -0.1484 -0.3720  0.1269
 4143TIP3    H112393   3.712   1.963   2.324 -4.0290 -0.9891  0.5963
 4143TIP3    H212394   3.755   1.885   2.446 -2.3455 -0.0609  0.6398
 4144TIP3   OH212395   3.843   1.641   4.989  0.2352  0.0358 -0.6260
 4144TIP3    H112396   3.891   1.655   5.071 -2.5504  1.5205  0.9199
 4144TIP3    H212397   3.874   1.711   4.931  2.3235 -1.1019 -0.9938
 4145TIP3   OH212398   3.957   5.348   4.597 -0.0261 -0.2936  0.8048
 4145TIP3    H112399   3.910   5.277   4.641  0.8225 -1.6575 -0.4074
 4145TIP3    H212400   4.039   5.356   4.647  0.6390 -1.3820 -0.0679
 4146TIP3   OH212401   1.596   1.518   2.147 -0.0497  0.4913  0.3738
 4146TIP3    H112402   1.657   1.478   2.210  1.4372  0.7486 -0.8575
 4146TIP3    H212403   1.568   1.599   2.190 -1.2753 -0.6750  1.8890
 4147TIP3   OH212404   1.041   6.668   1.196 -0.2188 -0.1233  0.1908
 4147TIP3    H112405   1.128   6.664   1.237 -0.5441  0.2595  0.9353
 4147TIP3    H212406   1.029   6.582   1.157  0.5195 -0.1648  0.0210
 4148TIP3   OH212407   4.588   1.859   5.152  0.3858 -0.3281 -0.0832
 4148TIP3    H112408   4.518   1.845   5.088 -0.0082  2.0032 -0.2234
 4148TIP3    H212409   4.542   1.880   5.234  0.8866  0.9490 -0.1064
 4149TIP3   OH212410   0.211   4.092   1.100 -0.8018 -0.3124 -0.1440
 4149TIP3    H112411   0.227   4.135   1.016  0.5134 -0.3865  0.0340
 4149TIP3    H212412   0.294   4.103   1.148 -0.3052 -3.2594 -0.1797
 4150TIP3   OH212413   1.703   5.614   5.405 -0.3105  0.3276  0.1024
 4150TIP3    H112414   1.799   5.615   5.406 -0.2986  1.0870  2.1118
 4150TIP3    H212415   1.680   5.692   5.354  0.1507  0.4963  0.1406
 4151TIP3   OH212416   1.248   2.176   3.783 -0.2414  0.0881  0.6217
 4151TIP3    H112417   1.153   2.170   3.795 -0.4039  1.7397  0.3954
 4151TIP3    H212418   1.258   2.215   3.696  0.6519  0.0760  0.7150
 4152TIP3   OH212419   5.502   6.161   5.312  0.5802 -0.1051  0.3688
 4152TIP3    H112420   5.561   6.200   5.248 -2.1448  1.4521 -1.4001
 4152TIP3    H212421   5.471   6.235   5.364  1.0811 -1.0621  2.1072
 4153TIP3   OH212422   4.118   2.066   2.676  0.0631 -0.2463  0.0134
 4153TIP3    H112423   4.141   2.135   2.738 -0.1766  0.9197 -1.1522
 4153TIP3    H212424   4.088   1.994   2.731 -0.9577  1.0397  1.2297
 4154TIP3   OH212425   0.622   1.134   3.374 -0.6255  0.3794 -0.1849
 4154TIP3    H112426   0.662   1.122   3.288 -1.1525 -0.2135 -0.3581
 4154TIP3    H212427   0.651   1.221   3.402 -1.2101  0.9912 -1.3868
 4155TIP3   OH212428   4.467   1.757   5.579 -0.0094 -0.4845  0.3381
 4155TIP3    H112429   4.485   1.823   5.512  1.4478 -0.3289  0.8380
 4155TIP3    H212430   4.461   1.674   5.531 -0.0023 -0.2418 -0.0879
 4156TIP3   OH212431   2.931   1.899   5.186 -0.7509  0.4869 -0.0236
 4156TIP3    H112432   2.843   1.888   5.150  0.3012  0.5464 -2.8951
 4156TIP3    H212433   2.930   1.986   5.227 -2.0508  0.4487  0.0509
 4157TIP3   OH212434   4.427   2.572   0.778 -0.3477 -0.0349  0.8436
 4157TIP3    H112435   4.521   2.571   0.800 -0.3413  1.1813  0.9761
 4157TIP3    H212436   4.392   2.645   0.830 -1.2651 -0.1470  0.3957
 4158TIP3   OH212437   2.965   4.608   1.787 -0.0083  0.3427  0.0340
 4158TIP3    H112438   2.932   4.694   1.813 -0.5556 -0.2976  1.5925
 4158TIP3    H212439   2.918   4.587   1.707 -2.2802  0.1601  1.3321
 4159TIP3   OH212440   1.233   3.906   4.013 -0.1216 -0.0658 -0.4067
 4159TIP3    H112441   1.265   3.892   3.925 -1.0866 -1.3724 -0.5824
 4159TIP3    H212442   1.244   4.000   4.028  1.9491 -0.1452 -1.1253
 4160TIP3   OH212443   1.041   5.910   2.651 -0.2435 -0.5506  0.2088
 4160TIP3    H112444   1.068   5.938   2.739 -0.4233  0.1645  0.0476
 4160TIP3    H212445   0.981   5.837   2.667 -0.1001 -0.5760  0.6678
 4161TIP3   OH212446   3.815   2.812   2.249  0.5161  0.5554 -0.7565
 4161TIP3    H112447   3.862   2.869   2.187  2.1093 -0.6864 -0.7477
 4161TIP3    H212448   3.877   2.800   2.321  0.6432 -1.9226 -1.1936
 4162TIP3   OH212449   6.735   2.413   0.001 -0.9730  0.7011  0.4578
 4162TIP3    H112450   6.663   2.358   0.032 -0.3606 -1.5881 -1.8245
 4162TIP3    H212451   6.803   2.351  -0.025  0.4162  2.6339 -0.7792
 4163TIP3   OH212452   6.029   0.764   2.781 -0.0784  0.1143  0.3474
 4163TIP3    H112453   6.015   0.686   2.727 -2.3804 -0.6054  1.8009
 4163TIP3    H212454   6.093   0.816   2.733 -0.3290 -1.5123 -1.9048
 4164TIP3   OH212455   1.407   5.173   3.254 -0.2398 -0.3165  0.2494
 4164TIP3    H112456   1.472   5.103   3.260 -1.3231 -1.5338 -1.3303
 4164TIP3    H212457   1.373   5.166   3.165 -2.5175  0.3147  1.0153
 4165TIP3   OH212458   5.930   3.791   0.698  0.0639  0.1993 -0.2647
 4165TIP3    H112459   6.024   3.797   0.679  0.2968  0.8643  0.9624
 4165TIP3    H212460   5.887   3.815   0.616  0.9000 -2.8450 -1.7471
 4166TIP3   OH212461   2.437   0.254   4.363 -0.4390  0.2801  0.2000
 4166TIP3    H112462   2.465   0.340   4.331  0.9677  1.0036  3.0739
 4166TIP3    H212463   2.517   0.211   4.391 -1.2792 -1.4199  0.1216
 4167TIP3   OH212464   4.792   1.173   5.812  0.0310 -0.8791  0.3357
 4167TIP3    H112465   4.841   1.167   5.730  0.0845 -2.3311  0.4359
 4167TIP3    H212466   4.832   1.246   5.859 -0.1918  0.1521 -1.0395
 4168TIP3   OH212467   2.048   3.133   3.986 -0.2878  0.0193 -0.5492
 4168TIP3    H112468   1.979   3.072   3.958  0.2212 -1.5592  1.4601
 4168TIP3    H212469   2.003   3.195   4.043 -0.2018 -0.5478  0.1439
 4169TIP3   OH212470   4.545   0.858   5.753  0.3578  0.3496  0.0837
 4169TIP3    H112471   4.554   0.814   5.838  0.5926 -1.6176 -0.9062
 4169TIP3    H212472   4.570   0.792   5.689  0.2123  1.8003 -1.5429
 4170TIP3   OH212473   3.435   6.459   0.825 -0.2237  0.1941 -0.1782
 4170TIP3    H112474   3.410   6.383   0.772  0.9621  0.4362 -1.1449
 4170TIP3    H212475   3.386   6.449   0.906  0.5773 -2.1324  0.1136
 4171TIP3   OH212476   1.490   3.041   5.868  0.4042 -0.3536  0.3892
 4171TIP3    H112477   1.437   3.044   5.788  0.7954 -1.0473  0.1030
 4171TIP3    H212478   1.485   3.130   5.903 -2.2447 -0.7185  1.2141
 4172TIP3   OH212479   3.688   3.005   0.841  0.1849  0.2058  0.1707
 4172TIP3    H112480   3.658   2.983   0.753  1.4903 -0.5628 -0.1064
 4172TIP3    H212481   3.608   3.017   0.891 -0.5807  0.3844 -1.0466
 4173TIP3   OH212482   2.117   6.237   0.771 -0.2858 -0.0667 -0.2271
 4173TIP3    H112483   2.153   6.326   0.767  0.9232 -0.5836 -1.6339
 4173TIP3    H212484   2.193   6.180   0.777 -1.0702 -1.0099  1.5317
 4174TIP3   OH212485   2.781   1.435   0.634 -0.9058 -0.7208  0.3663
 4174TIP3    H112486   2.707   1.469   0.683 -0.2018 -1.2186  1.8112
 4174TIP3    H212487   2.776   1.340   0.643 -1.5139 -0.9314 -1.6709
 4175TIP3   OH212488   1.279   2.261   1.188 -0.2257 -0.5608 -0.0442
 4175TIP3    H112489   1.325   2.345   1.186  0.3624 -0.8705 -0.0072
 4175TIP3    H212490   1.341   2.201   1.230 -1.0991 -0.7474  1.0164
 4176TIP3   OH212491   2.872   1.274   3.388 -0.3272 -0.1362 -0.0578
 4176TIP3    H112492   2.932   1.233   3.327  1.7514  0.3826  1.5011
 4176TIP3    H212493   2.855   1.207   3.454  0.9792  0.6012  1.0834
 4177TIP3   OH212494   7.132   2.258   2.600 -0.0385 -0.0698 -0.0598
 4177TIP3    H112495   7.082   2.237   2.521 -0.7006  1.5537 -0.1225
 4177TIP3    H212496   7.184   2.334   2.576 -0.3445  0.5286  1.0890
 4178TIP3   OH212497   1.006   6.136   0.498  0.0692  0.2372 -0.1359
 4178TIP3    H112498   1.078   6.193   0.525 -0.7869  2.2094 -1.7423
 4178TIP3    H212499   1.031   6.104   0.411 -0.3488 -0.2585 -0.0830
 4179TIP3   OH212500   2.414   6.067   3.807  0.0963  0.3406 -0.0734
 4179TIP3    H112501   2.339   6.050   3.863  0.8306  2.3182  1.6894
 4179TIP3    H212502   2.385   6.138   3.749  0.5153  1.0299  0.5349
 4180TIP3   OH212503   4.244   4.070   3.708 -0.0534 -0.2353 -0.2310
 4180TIP3    H112504   4.196   4.124   3.645  0.6587  1.6836  0.7694
 4180TIP3    H212505   4.330   4.113   3.715  0.7265 -1.7952  0.2879
 4181TIP3   OH212506   1.111   6.276   3.136 -0.0267  0.3044 -0.3228
 4181TIP3    H112507   1.187   6.276   3.078  1.1446  0.2649  1.1565
 4181TIP3    H212508   1.042   6.234   3.085  0.9653  0.2509 -1.6715
 4182TIP3   OH212509   2.502   0.609   4.199 -0.2130  0.3902  0.0771
 4182TIP3    H112510   2.474   0.561   4.277  0.3785  1.7165  1.1435
 4182TIP3    H212511   2.448   0.687   4.197  1.6212  1.7633  0.7855
 4183TIP3   OH212512   4.285   4.734   2.962 -0.7157  0.3584  0.3222
 4183TIP3    H112513   4.256   4.648   2.992 -0.3118  0.1394  0.0896
 4183TIP3    H212514   4.324   4.775   3.040 -1.6151  0.6502  0.6358
 4184TIP3   OH212515   3.528   2.960   3.057 -0.1845 -0.5211  0.1089
 4184TIP3    H112516   3.484   2.981   3.139 -0.5982 -0.5114 -0.1145
 4184TIP3    H212517   3.481   3.009   2.991  1.3961  1.0929  0.0980
 4185TIP3   OH212518   0.663   3.946   1.327 -0.8939  0.1230 -0.0107
 4185TIP3    H112519   0.683   3.962   1.419 -1.1883  0.6178 -0.0297
 4185TIP3    H212520   0.741   3.903   1.292 -0.6744  0.1840  0.4048
 4186TIP3   OH212521   6.382   6.585   2.242 -0.4997 -0.1714  0.1657
 4186TIP3    H112522   6.303   6.608   2.192 -0.7039  1.2998  1.1041
 4186TIP3    H212523   6.396   6.660   2.301  0.6323 -1.1512  1.2014
 4187TIP3   OH212524   1.483   5.695   2.997 -0.6003  0.5320  0.0539
 4187TIP3    H112525   1.462   5.740   3.079  0.4179  1.6181 -0.2699
 4187TIP3    H212526   1.447   5.751   2.929  1.2237  1.2008 -0.3850
 4188TIP3   OH212527   4.984   0.062   4.454  0.4716  0.8013  0.3120
 4188TIP3    H112528   4.991  -0.022   4.408  0.8730  2.0085 -1.9630
 4188TIP3    H212529   4.917   0.048   4.520 -0.2268 -1.0104 -0.7258
 4189TIP3   OH212530   0.526   3.253   3.429 -0.1040  0.2506  0.0928
 4189TIP3    H112531   0.580   3.266   3.507 -0.1365 -3.4848  0.8946
 4189TIP3    H212532   0.437   3.247   3.462 -0.2151 -0.5374 -0.3277
 4190TIP3   OH212533   6.699   5.660   4.655 -0.7219 -0.3425 -0.1670
 4190TIP3    H112534   6.708   5.716   4.578  0.5524  1.6366  1.3246
 4190TIP3    H212535   6.728   5.574   4.626  0.8809  0.6314 -1.6238
 4191TIP3   OH212536   1.543   3.963   1.674 -0.1783  0.4876 -0.2038
 4191TIP3    H112537   1.609   3.996   1.734 -1.3723  0.7060  1.0444
 4191TIP3    H212538   1.592   3.916   1.607  1.1712 -0.3055  1.2812
 4192TIP3   OH212539   3.596   3.810   2.596 -0.5423 -0.3193  0.0478
 4192TIP3    H112540   3.670   3.751   2.581  1.1365  1.5740  0.4647
 4192TIP3    H212541   3.582   3.854   2.512 -1.0517 -0.4940  0.0368
 4193TIP3   OH212542   5.827   5.902   1.735 -0.7162 -0.2526 -0.0166
 4193TIP3    H112543   5.867   5.989   1.735 -0.3143 -0.4097  1.6490
 4193TIP3    H212544   5.804   5.885   1.826 -1.4044 -1.6278 -0.4084
 4194TIP3   OH212545   3.376   1.988   1.418  0.0990  0.7581  0.4350
 4194TIP3    H112546   3.433   1.913   1.436  0.5428  1.0562  0.2757
 4194TIP3    H212547   3.434   2.054   1.380 -0.4584  0.8499 -0.2879
 4195TIP3   OH212548   1.347   3.206   0.669  0.0105 -0.6884 -0.6274
 4195TIP3    H112549   1.432   3.242   0.696 -1.4180  0.9351  2.2097
 4195TIP3    H212550   1.338   3.126   0.720  0.0649 -1.2018 -1.4042
 4196TIP3   OH212551   2.409   3.316   4.342  0.7925 -0.3030  0.4600
 4196TIP3    H112552   2.496   3.352   4.324  0.4262  0.6802  0.6128
 4196TIP3    H212553   2.386   3.268   4.262  1.3253 -0.2760  0.2848
 4197TIP3   OH212554   1.429   5.499   3.594 -0.2158  0.0646  0.6322
 4197TIP3    H112555   1.420   5.497   3.499 -1.6415 -1.0084  0.7518
 4197TIP3    H212556   1.521   5.518   3.610 -0.1264  1.0557 -0.9499
 4198TIP3   OH212557   0.372   4.698   1.727  0.1151 -0.2308  1.0390
 4198TIP3    H112558   0.420   4.696   1.809  0.3955 -0.0269  0.8824
 4198TIP3    H212559   0.284   4.726   1.751 -0.2144 -1.5714  1.4631
 4199TIP3   OH212560   2.261   2.622   0.239  0.4005 -0.5027 -0.1293
 4199TIP3    H112561   2.336   2.615   0.179  1.4886  3.0806  0.5772
 4199TIP3    H212562   2.188   2.647   0.182  0.8792  0.5628 -0.3012
 4200TIP3   OH212563   1.906   6.224   5.844  0.2121 -0.4249 -0.0662
 4200TIP3    H112564   1.873   6.299   5.795  2.8783  1.0841  0.2322
 4200TIP3    H212565   1.970   6.184   5.785  1.1761 -0.4730  0.9887
 4201TIP3   OH212566   0.065   1.974   1.875 -0.3882  0.1133 -0.6688
 4201TIP3    H112567  -0.021   1.945   1.846  0.4281 -1.5267 -1.6143
 4201TIP3    H212568   0.060   2.070   1.875 -2.6148  0.0581  0.6932
 4202TIP3   OH212569   3.048   5.549   5.805  0.0625  0.1014 -0.3658
 4202TIP3    H112570   2.962   5.527   5.769 -0.1974  0.2268  0.1633
 4202TIP3    H212571   3.110   5.501   5.751 -0.3944 -0.6363 -0.2397
 4203TIP3   OH212572   6.977   2.209   1.143 -0.3081 -0.0123  0.2575
 4203TIP3    H112573   7.020   2.131   1.108  0.1582  0.6937 -0.7964
 4203TIP3    H212574   6.908   2.229   1.080 -0.9205  0.0045  0.9155
 4204TIP3   OH212575   6.592   2.341   5.223 -0.5776 -0.4673  0.0903
 4204TIP3    H112576   6.615   2.356   5.314  0.1066 -0.0708 -0.1385
 4204TIP3    H212577   6.647   2.268   5.196 -1.4579 -1.2050  0.2504
 4205TIP3   OH212578   3.283   4.716   1.356 -0.5147  0.1158 -0.9095
 4205TIP3    H112579   3.289   4.633   1.404 -0.3812  0.1991 -0.7824
 4205TIP3    H212580   3.197   4.751   1.380  0.5339  1.3912  1.2960
 4206TIP3   OH212581   7.020   2.069   5.734 -0.6380  0.0630 -0.6623
 4206TIP3    H112582   6.986   2.136   5.793 -1.0278  0.1095 -0.9359
 4206TIP3    H212583   6.956   1.998   5.739 -1.7631  0.8690 -2.5418
 4207TIP3   OH212584   1.436   6.268   1.417  0.4036  0.6759 -0.4033
 4207TIP3    H112585   1.430   6.238   1.508 -0.9369 -0.1413 -0.7350
 4207TIP3    H212586   1.529   6.264   1.397  0.4625 -1.9152  0.0444
 4208TIP3   OH212587   5.600   2.217   3.626  0.6093 -0.4802  0.3425
 4208TIP3    H112588   5.507   2.197   3.626  0.0724  1.7178  0.6109
 4208TIP3    H212589   5.626   2.213   3.718  0.2634  0.8843  0.5206
 4209TIP3   OH212590   6.168   2.688   5.326  0.5207  0.7163 -0.2606
 4209TIP3    H112591   6.078   2.721   5.324  0.5985  0.9680  0.1649
 4209TIP3    H212592   6.189   2.684   5.419  0.7051 -0.0223 -0.3262
 4210TIP3   OH212593   1.091   3.784   1.136  0.0248 -0.1095  0.4484
 4210TIP3    H112594   1.110   3.704   1.185 -2.3079 -0.2566  1.2169
 4210TIP3    H212595   1.174   3.805   1.093  1.3395 -1.6540  2.0337
 4211TIP3   OH212596   5.633   6.478   0.359 -0.6867 -0.4872 -0.0821
 4211TIP3    H112597   5.629   6.387   0.390  1.3016 -0.8269 -0.6564
 4211TIP3    H212598   5.545   6.512   0.374 -1.3770 -2.3776  0.5362
 4212TIP3   OH212599   5.164   2.001   0.473  0.5416 -0.3916 -0.1752
 4212TIP3    H112600   5.117   2.014   0.555 -0.5172 -2.2083 -0.4412
 4212TIP3    H212601   5.098   2.014   0.405  0.7506 -1.5595 -0.6192
 4213TIP3   OH212602   1.932   3.650   4.463  0.3615  0.1667  0.1398
 4213TIP3    H112603   1.915   3.733   4.419 -0.5157 -0.1493 -0.1382
 4213TIP3    H212604   1.994   3.605   4.405  1.5280  0.9668  0.7226
 4214TIP3   OH212605   3.122   4.373   4.481 -0.2764  0.6440 -0.3631
 4214TIP3    H112606   3.192   4.384   4.417  0.4720 -2.2471 -0.1694
 4214TIP3    H212607   3.079   4.291   4.456 -0.1219 -0.4703  2.6337
 4215TIP3   OH212608   3.458   2.429   0.174  0.6197 -0.0221 -0.3130
 4215TIP3    H112609   3.428   2.347   0.135 -1.1260  0.4439 -0.0665
 4215TIP3    H212610   3.418   2.429   0.262 -2.4223  2.5737 -1.4901
 4216TIP3   OH212611   3.964   1.590   0.953  0.6138  0.2748  0.1786
 4216TIP3    H112612   4.055   1.598   0.982  0.6782 -0.1148  0.0859
 4216TIP3    H212613   3.963   1.628   0.865  1.0449 -1.2265 -0.5020
 4217TIP3   OH212614   0.406   3.170   3.729  0.1201  0.5782  0.7342
 4217TIP3    H112615   0.498   3.143   3.728 -0.3088 -1.2747  2.7517
 4217TIP3    H212616   0.361   3.102   3.679 -0.2591  1.1167  0.3277
 4218TIP3   OH212617   6.806   6.736   1.547 -0.1603 -0.4737 -0.1988
 4218TIP3    H112618   6.889   6.770   1.512 -0.4632  0.5977  0.0972
 4218TIP3    H212619   6.830   6.653   1.589  0.9802  0.3380  0.8352
 4219TIP3   OH212620   1.356   0.732   2.084 -0.0348 -0.0853 -0.1224
 4219TIP3    H112621   1.348   0.678   2.163  1.2346 -0.0868  0.0224
 4219TIP3    H212622   1.398   0.674   2.020  0.6154  0.4843 -0.2160
 4220TIP3   OH212623   4.162   0.198   3.593 -0.1210  0.3906 -0.2127
 4220TIP3    H112624   4.109   0.276   3.577  0.1898  1.0263  1.5674
 4220TIP3    H212625   4.101   0.136   3.633  0.0405  0.4240  0.0908
 4221TIP3   OH212626   3.425   1.381   5.322  0.1328  0.7182  0.4643
 4221TIP3    H112627   3.335   1.400   5.294  0.2321  0.5809  0.0410
 4221TIP3    H212628   3.476   1.457   5.295  0.4049  0.1659 -0.6170
 4222TIP3   OH212629   4.716   1.081   4.076  0.0813 -0.1370 -0.2076
 4222TIP3    H112630   4.711   1.059   3.983  0.7019  0.1708 -0.3174
 4222TIP3    H212631   4.663   1.160   4.085 -0.3910 -0.4482 -0.2020
 4223TIP3   OH212632   0.938   4.612   4.787  0.4151 -0.3334  0.2578
 4223TIP3    H112633   1.025   4.571   4.792  1.1950  1.1152 -0.7486
 4223TIP3    H212634   0.947   4.693   4.838 -0.1626  0.1035 -0.3177
 4224TIP3   OH212635   5.992   2.535   4.337 -0.1001 -0.1895 -0.1342
 4224TIP3    H112636   6.064   2.499   4.285  1.6891  0.6471  1.6364
 4224TIP3    H212637   5.974   2.620   4.298 -0.3970 -0.5612 -0.8151
 4225TIP3   OH212638   2.633   0.295   0.023 -0.2103 -0.1176 -0.2906
 4225TIP3    H112639   2.583   0.217   0.046 -1.9462  0.8034 -0.7091
 4225TIP3    H212640   2.650   0.338   0.107  1.6992 -1.4429  0.0454
 4226TIP3   OH212641   4.337   2.366   3.602 -0.3043 -0.0285  0.4903
 4226TIP3    H112642   4.360   2.360   3.694 -0.6583  0.3914  0.6150
 4226TIP3    H212643   4.418   2.348   3.555  0.1661  0.9384  0.9051
 4227TIP3   OH212644   6.308   1.688   0.306 -0.1966  1.0711 -0.6819
 4227TIP3    H112645   6.369   1.736   0.250  0.1912  1.5305  0.1127
 4227TIP3    H212646   6.240   1.753   0.326  0.2248  1.2414  0.2347
 4228TIP3   OH212647   3.061   3.285   5.161 -0.3814  0.2970 -0.0337
 4228TIP3    H112648   3.009   3.352   5.118  0.2616  1.1195  0.4419
 4228TIP3    H212649   3.108   3.242   5.090  1.0857  1.9988 -0.1747
 4229TIP3   OH212650   6.175   2.840   3.790  0.3208  0.2524  0.2863
 4229TIP3    H112651   6.132   2.908   3.739 -0.8426 -1.5493 -1.3018
 4229TIP3    H212652   6.176   2.764   3.732  0.0616 -1.5643  2.5152
 4230TIP3   OH212653   4.419   0.311   1.535  0.3410  0.2287 -0.1735
 4230TIP3    H112654   4.368   0.327   1.456 -0.5116  1.2997  0.5623
 4230TIP3    H212655   4.472   0.390   1.546  3.1613 -1.3290 -1.5839
 4231TIP3   OH212656   1.851   0.282   5.172 -0.2525  0.4652  0.8155
 4231TIP3    H112657   1.778   0.328   5.214 -0.4655  1.0308 -0.1395
 4231TIP3    H212658   1.886   0.345   5.109 -0.7626 -0.7608 -0.7682
 4232TIP3   OH212659   6.258   1.320   1.045  0.5160  0.4387 -0.7781
 4232TIP3    H112660   6.218   1.368   0.972  1.5049  0.9883 -0.9748
 4232TIP3    H212661   6.329   1.376   1.075  0.8209 -0.2867 -0.1016
 4233TIP3   OH212662   3.672   5.149   0.806  0.5261 -0.1301 -0.4493
 4233TIP3    H112663   3.613   5.121   0.876  0.5254 -2.0504 -1.1442
 4233TIP3    H212664   3.732   5.211   0.848 -0.1932 -0.3376  0.9474
 4234TIP3   OH212665   6.037   3.865   5.499 -0.5072 -0.5162  0.6519
 4234TIP3    H112666   6.074   3.947   5.532 -1.9105 -0.2393  1.5862
 4234TIP3    H212667   5.944   3.882   5.489 -0.4133 -1.0784 -2.0639
 4235TIP3   OH212668   6.245   6.726   5.539  0.2471 -0.4654 -0.8644
 4235TIP3    H112669   6.163   6.724   5.490 -1.2518 -1.7172  1.5165
 4235TIP3    H212670   6.281   6.638   5.529 -1.4487 -1.6819  2.2140
 4236TIP3   OH212671   3.731   0.653   2.948  0.2511 -0.2010  0.1166
 4236TIP3    H112672   3.730   0.558   2.932  0.4858 -0.1237 -0.3769
 4236TIP3    H212673   3.812   0.683   2.907 -0.0402  0.2768 -0.1167
 4237TIP3   OH212674   0.645   1.567   5.201  0.1269 -0.3916 -0.2368
 4237TIP3    H112675   0.715   1.613   5.153  0.0402  1.0362  0.9076
 4237TIP3    H212676   0.689   1.531   5.278 -0.1749 -0.5763 -0.1508
 4238TIP3   OH212677   6.131   1.420   5.665 -0.0562 -0.1569 -0.3215
 4238TIP3    H112678   6.151   1.445   5.575 -0.0928  1.0491 -0.0089
 4238TIP3    H212679   6.133   1.502   5.714  0.6747 -0.8878  0.9200
 4239TIP3   OH212680   6.167   4.241   0.122 -0.3191 -0.9575 -0.6259
 4239TIP3    H112681   6.259   4.256   0.099 -0.9506  1.6518 -1.8255
 4239TIP3    H212682   6.127   4.208   0.041 -0.7203 -0.6649 -0.5521
 4240TIP3   OH212683   7.029   5.907   3.720 -0.4072  0.0851 -0.1553
 4240TIP3    H112684   7.085   5.926   3.645 -3.0419  1.0853 -2.0487
 4240TIP3    H212685   7.034   5.986   3.775  1.4205 -0.5968  0.7412
 4241TIP3   OH212686   3.283   3.876   0.627  0.3368 -0.4232 -0.1762
 4241TIP3    H112687   3.301   3.947   0.565  2.9856 -2.0883 -1.5046
 4241TIP3    H212688   3.225   3.817   0.579  1.7421 -1.3119 -0.8460
 4242TIP3   OH212689  -0.009   1.583   2.585  0.1492  0.0151 -0.6588
 4242TIP3    H112690   0.037   1.650   2.636 -0.4440  0.6517 -0.9490
 4242TIP3    H212691  -0.008   1.616   2.495 -0.3465 -0.2613 -0.7652
 4243TIP3   OH212692   6.401   0.051   4.014 -0.2427 -0.0534  0.0307
 4243TIP3    H112693   6.472   0.026   3.955  0.6161  2.9360 -0.3578
 4243TIP3    H212694   6.444   0.092   4.088 -1.5205  0.2989  0.6166
 4244TIP3   OH212695   3.752   1.028   2.822 -0.0202  0.0976 -0.5499
 4244TIP3    H112696   3.787   1.078   2.749  0.7691 -0.4352 -0.5421
 4244TIP3    H212697   3.745   0.938   2.789  0.7400 -0.2331  0.1509
 4245TIP3   OH212698   3.166   4.547   0.161 -0.2304 -0.6026 -0.4513
 4245TIP3    H112699   3.192   4.638   0.178 -0.3183 -0.4379 -1.1775
 4245TIP3    H212700   3.081   4.538   0.205 -0.3059 -0.2789 -0.5302
 4246TIP3   OH212701   0.569   0.265   4.939  0.1346  0.1541 -0.1777
 4246TIP3    H112702   0.568   0.216   5.021 -1.0920  0.5489  0.0651
 4246TIP3    H212703   0.581   0.356   4.965  2.6391  0.0311 -0.6395
 4247TIP3   OH212704   5.261   5.962   4.804 -0.9248  0.0203  0.2136
 4247TIP3    H112705   5.275   6.057   4.800  1.0738 -0.0953  2.4800
 4247TIP3    H212706   5.346   5.924   4.784 -1.6221 -1.3082 -0.3223
 4248TIP3   OH212707   2.846   0.955   3.263 -0.1463  0.4404  0.4142
 4248TIP3    H112708   2.928   0.999   3.285 -0.4130  0.5630  1.1737
 4248TIP3    H212709   2.837   0.967   3.168  0.6199  0.5800  0.3589
 4249TIP3   OH212710   4.476   4.202   3.685  0.3949  0.2651  0.7922
 4249TIP3    H112711   4.526   4.211   3.603  0.0016  0.4615  0.5715
 4249TIP3    H212712   4.509   4.273   3.741 -0.4402  1.1193  0.2247
 4250TIP3   OH212713   5.498   5.960   2.732 -0.1513  0.2774  0.5549
 4250TIP3    H112714   5.432   5.990   2.669  0.9946  1.5488 -0.1028
 4250TIP3    H212715   5.454   5.963   2.817 -1.0640  0.7017  0.0790
 4251TIP3   OH212716   3.574   2.428   1.188 -0.6393  0.1068  0.3938
 4251TIP3    H112717   3.598   2.517   1.164  0.5310 -0.2247  0.2932
 4251TIP3    H212718   3.478   2.427   1.185 -0.6385  1.1704 -0.2544
 4252TIP3   OH212719   4.727   1.948   4.198 -1.0252  0.3072  0.1448
 4252TIP3    H112720   4.706   2.004   4.272  0.1245  1.8369 -0.6506
 4252TIP3    H212721   4.810   1.907   4.220 -1.9966 -1.4192  0.8569
 4253TIP3   OH212722   4.064   3.390   5.678  0.1713  0.4544  0.2316
 4253TIP3    H112723   3.970   3.396   5.663 -0.3604  0.6210  3.1210
 4253TIP3    H212724   4.081   3.296   5.679  0.2770  0.4264 -1.2619
 4254TIP3   OH212725   6.196   5.327   3.569  0.4927  0.6795  0.2516
 4254TIP3    H112726   6.161   5.250   3.524 -0.3138  0.0722  1.8585
 4254TIP3    H212727   6.130   5.395   3.556  0.8890  0.9161 -0.5907
 4255TIP3   OH212728   3.749   2.619   5.548 -0.2742 -0.1405 -0.1224
 4255TIP3    H112729   3.719   2.540   5.592 -0.2868 -0.2187 -0.2723
 4255TIP3    H212730   3.686   2.634   5.478 -1.1299  0.8459  0.8296
 4256TIP3   OH212731   2.162   1.255   3.664 -0.3333 -0.1416 -0.3614
 4256TIP3    H112732   2.179   1.198   3.589  0.7726  0.3026 -0.4659
 4256TIP3    H212733   2.191   1.341   3.636 -3.3305  0.8549 -0.7308
 4257TIP3   OH212734   6.495   4.160   2.229  0.0372  0.2296 -0.0507
 4257TIP3    H112735   6.491   4.214   2.308  0.7772  0.1805  0.0293
 4257TIP3    H212736   6.483   4.071   2.261  2.7048 -0.0707  0.3763
 4258TIP3   OH212737   1.946   4.469   4.551 -0.6881  0.2183 -0.3370
 4258TIP3    H112738   1.999   4.464   4.472 -1.4885  0.9709 -0.9359
 4258TIP3    H212739   1.993   4.530   4.608 -0.1049 -0.3364 -0.2058
 4259TIP3   OH212740   3.461   0.165   4.342 -0.0438 -0.0967  0.1033
 4259TIP3    H112741   3.399   0.235   4.322 -0.4375 -0.4657 -0.0040
 4259TIP3    H212742   3.547   0.207   4.343 -0.1719  0.2018 -0.9169
 4260TIP3   OH212743   3.409   5.337   2.657 -0.3185  0.2994  0.9160
 4260TIP3    H112744   3.314   5.333   2.666 -0.4917  3.3601  1.6328
 4260TIP3    H212745   3.424   5.396   2.583  1.1155 -1.7191 -0.5274
 4261TIP3   OH212746   6.406   4.239   1.970  0.1057  0.1590 -0.2476
 4261TIP3    H112747   6.478   4.266   1.912 -0.2266  0.1034 -0.6901
 4261TIP3    H212748   6.449   4.220   2.053  0.2412  3.5750  0.6428
 4262TIP3   OH212749   4.081   5.264   0.927  0.5651  0.0685 -0.7507
 4262TIP3    H112750   3.996   5.220   0.926 -0.3652  1.7878 -0.9125
 4262TIP3    H212751   4.078   5.320   1.004  2.2919 -1.1544  0.2627
 4263TIP3   OH212752   1.829   1.692   4.147 -0.6111 -0.1116  0.0150
 4263TIP3    H112753   1.876   1.616   4.182  0.3419  0.1874 -0.5572
 4263TIP3    H212754   1.896   1.741   4.099 -1.3481  0.7674 -0.1410
 4264TIP3   OH212755   3.264   1.430   0.152  0.0111  0.4485 -0.1186
 4264TIP3    H112756   3.284   1.336   0.149 -3.5413 -0.4913  0.6350
 4264TIP3    H212757   3.235   1.451   0.063  2.3165  1.3674 -0.7442
 4265TIP3   OH212758   5.217   1.012   1.234 -0.2359  0.0013 -0.2465
 4265TIP3    H112759   5.248   1.077   1.297  0.2957  1.3111 -1.8273
 4265TIP3    H212760   5.158   0.956   1.286  1.5406 -0.0890  1.8356
 4266TIP3   OH212761   5.562   0.750   0.089 -0.0494  0.5338  0.3402
 4266TIP3    H112762   5.620   0.691   0.042  0.2888  0.8199  0.3955
 4266TIP3    H212763   5.611   0.832   0.096 -0.0382  0.4551  1.3126
 4267TIP3   OH212764   1.245   1.752   1.962  0.1357 -0.2814  0.3161
 4267TIP3    H112765   1.178   1.684   1.969 -1.5510  1.3598  0.6387
 4267TIP3    H212766   1.324   1.704   1.937 -0.5274 -2.6298  2.2763
 4268TIP3   OH212767   1.573   2.967   3.304  0.1067 -0.1260 -0.2845
 4268TIP3    H112768   1.615   2.917   3.233  0.9621  1.2216 -0.7635
 4268TIP3    H212769   1.503   2.909   3.335 -0.4107 -0.7062 -2.3293
 4269TIP3   OH212770   6.177   2.351   5.335  0.1854  0.1919  0.7093
 4269TIP3    H112771   6.260   2.387   5.365  0.4059  0.9731 -0.7526
 4269TIP3    H212772   6.145   2.414   5.271 -1.1481 -0.4980  0.6499
 4270TIP3   OH212773   6.632   5.071   5.052  0.1426 -0.0093  0.3536
 4270TIP3    H112774   6.621   5.156   5.009  0.3759 -0.2726 -0.2367
 4270TIP3    H212775   6.558   5.064   5.111  0.5738  0.9798  1.0413
 4271TIP3   OH212776   4.896   5.128   0.897  0.6628  0.2519 -0.3859
 4271TIP3    H112777   4.898   5.060   0.966 -2.0793  0.5590  0.1144
 4271TIP3    H212778   4.951   5.198   0.931 -0.1971  0.1626  1.3027
 4272TIP3   OH212779   5.165   2.678   0.680  0.3840  0.2082 -0.0618
 4272TIP3    H112780   5.246   2.671   0.731  0.9993 -2.4371 -1.2228
 4272TIP3    H212781   5.161   2.770   0.656  2.3697  0.6790  1.0950
 4273TIP3   OH212782   6.619   3.017   1.747 -0.5708  0.1787  0.5020
 4273TIP3    H112783   6.646   3.042   1.659  1.1125 -0.7027  0.7351
 4273TIP3    H212784   6.656   2.929   1.760  0.3273  0.7993  2.5422
 4274TIP3   OH212785   1.781   0.758   2.018  0.4719 -0.3630 -0.2898
 4274TIP3    H112786   1.810   0.675   1.981  2.2849 -1.0676  2.3819
 4274TIP3    H212787   1.845   0.822   1.986  0.1862 -0.3520 -0.8459
 4275TIP3   OH212788   2.272   5.791   1.828 -0.2278 -0.1346  0.2670
 4275TIP3    H112789   2.256   5.722   1.764  0.2595  0.9550 -1.1031
 4275TIP3    H212790   2.186   5.809   1.867 -0.5206 -0.8702 -0.0264
 4276TIP3   OH212791   2.326   5.572   0.218 -0.6361 -0.4634  0.0989
 4276TIP3    H112792   2.310   5.625   0.140  1.1486  2.2716  1.4190
 4276TIP3    H212793   2.273   5.612   0.287 -0.7592 -1.6485  0.7277
 4277TIP3   OH212794   4.004   5.062   1.642 -0.4940 -0.0652  0.3281
 4277TIP3    H112795   4.097   5.086   1.642 -0.8683  1.4954 -0.6972
 4277TIP3    H212796   3.975   5.080   1.731 -0.1580  0.8713  0.2553
 4278TIP3   OH212797   4.626   1.674   4.797 -0.0447 -0.5850 -0.8288
 4278TIP3    H112798   4.559   1.641   4.738  0.0337 -0.3093 -1.0682
 4278TIP3    H212799   4.649   1.598   4.851  0.0504 -0.8949 -1.3035
 4279TIP3   OH212800   6.197   4.910   4.218 -0.6185 -0.3486  0.0510
 4279TIP3    H112801   6.293   4.901   4.221 -0.5549  0.3033  0.1516
 4279TIP3    H212802   6.181   5.002   4.240 -1.2718 -0.4588  0.0516
 4280TIP3   OH212803   0.102   0.902   1.145  0.1772  0.5772  0.1084
 4280TIP3    H112804   0.081   0.835   1.209  0.6951  0.8360  0.5561
 4280TIP3    H212805   0.043   0.974   1.166  0.0107  0.4763 -0.0140
 4281TIP3   OH212806   2.660   2.758   5.719  0.1915  0.4100 -0.5587
 4281TIP3    H112807   2.711   2.737   5.798  0.7425 -0.5050 -1.1366
 4281TIP3    H212808   2.595   2.822   5.749  0.2484 -0.0818  0.6899
 4282TIP3   OH212809   6.438   0.588   5.852  0.3341 -0.0555  0.0307
 4282TIP3    H112810   6.347   0.605   5.873  0.3771  0.7787 -0.4437
 4282TIP3    H212811   6.454   0.499   5.885 -0.7407 -0.3469 -0.2086
 4283TIP3   OH212812   0.778   6.235   2.375 -0.6067 -0.0933 -0.0479
 4283TIP3    H112813   0.773   6.271   2.286  0.5750 -1.7542 -0.8420
 4283TIP3    H212814   0.862   6.265   2.409  0.4821 -2.0828 -0.7883
 4284TIP3   OH212815   5.924   6.785   1.622  0.0215 -0.1714  0.0253
 4284TIP3    H112816   5.896   6.755   1.535 -1.4145  2.8215 -0.6857
 4284TIP3    H212817   5.857   6.752   1.682 -1.4159  1.3192 -0.6945
 4285TIP3   OH212818   4.058   3.339   1.364  0.7943 -0.2517 -0.0476
 4285TIP3    H112819   4.005   3.310   1.438  0.7358  0.3027  0.1356
 4285TIP3    H212820   4.021   3.294   1.288  0.5357 -0.4359  0.1868
 4286TIP3   OH212821   6.040   2.174   3.247 -0.4812  0.0745  0.6317
 4286TIP3    H112822   5.987   2.104   3.286 -1.3144  0.2870 -0.0881
 4286TIP3    H212823   6.098   2.129   3.186  0.7401 -0.2465  1.9666
 4287TIP3   OH212824   2.179   5.866   1.030 -0.3186  0.2072  0.0593
 4287TIP3    H112825   2.265   5.909   1.035  0.0367 -0.4922  0.1794
 4287TIP3    H212826   2.126   5.911   1.095 -0.1637  0.9087 -0.2918
 4288TIP3   OH212827   5.507   5.303   1.552  0.5191 -0.4086  0.1918
 4288TIP3    H112828   5.465   5.336   1.472  0.1865  0.9782  0.9174
 4288TIP3    H212829   5.445   5.238   1.586  0.1611 -0.2273 -0.1039
 4289TIP3   OH212830   1.848   1.473   4.426 -0.1292  0.4170 -0.2636
 4289TIP3    H112831   1.783   1.467   4.497  1.2754 -1.8887  0.9597
 4289TIP3    H212832   1.919   1.525   4.463  0.7535 -1.0683  0.2495
 4290TIP3   OH212833   6.508   6.285   5.156  0.2895 -0.4968 -0.5156
 4290TIP3    H112834   6.436   6.346   5.143 -0.2808 -0.8320  0.9000
 4290TIP3    H212835   6.468   6.211   5.202  1.8610  0.1049  1.9938
 4291TIP3   OH212836   2.148   6.512   5.699 -0.6271 -0.2558  0.8569
 4291TIP3    H112837   2.177   6.526   5.609 -0.4639  1.0526  1.1004
 4291TIP3    H212838   2.226   6.484   5.746 -1.1680 -3.3015  0.1441
 4292TIP3   OH212839   3.114   5.620   3.247  0.5350  0.0776  0.2949
 4292TIP3    H112840   3.117   5.565   3.168  1.4459 -0.2074  0.5195
 4292TIP3    H212841   3.061   5.695   3.221  1.6322  0.4776 -0.9200
 4293TIP3   OH212842   0.958   6.444   1.071  0.0015  0.1904 -0.1239
 4293TIP3    H112843   0.864   6.450   1.091 -0.1288 -0.7124 -0.3888
 4293TIP3    H212844   0.973   6.350   1.059  0.8680  0.3656 -0.4564
 4294TIP3   OH212845   1.171   4.832   4.206 -0.5354  0.0042  0.0554
 4294TIP3    H112846   1.246   4.875   4.248 -0.0053  2.1616 -2.7773
 4294TIP3    H212847   1.099   4.895   4.216 -0.1723  0.9989 -2.8103
 4295TIP3   OH212848   5.006   3.020   3.015  0.2533 -0.5186 -0.7676
 4295TIP3    H112849   5.029   3.084   3.082 -0.5409 -0.7359 -0.2805
 4295TIP3    H212850   5.087   3.007   2.965  0.3037  1.2163 -1.1827
 4296TIP3   OH212851   5.389   0.442   1.899  0.1380 -0.0878 -1.0453
 4296TIP3    H112852   5.376   0.536   1.899  0.3902  0.0408  1.5474
 4296TIP3    H212853   5.430   0.424   1.984  0.6681 -2.4640 -1.7194
 4297TIP3   OH212854   4.056   5.915   3.240  0.4141  0.4243 -0.1831
 4297TIP3    H112855   4.037   5.993   3.292  0.3321  0.3094 -0.0372
 4297TIP3    H212856   4.077   5.848   3.305 -0.2932  0.1144 -0.2549
 4298TIP3   OH212857   6.688   3.598   3.402  0.2036 -0.1491  0.0651
 4298TIP3    H112858   6.697   3.517   3.454 -1.9143 -0.3701  0.1755
 4298TIP3    H212859   6.692   3.568   3.311  0.2143 -0.2516  0.0985
 4299TIP3   OH212860   4.973   0.103   2.868 -0.0263 -0.4395 -0.5280
 4299TIP3    H112861   5.063   0.075   2.882 -0.4636 -1.5712  0.1045
 4299TIP3    H212862   4.964   0.181   2.923 -0.2833 -2.0583  1.8791
 4300TIP3   OH212863   5.057   0.895   1.447 -0.5945  0.4801 -0.9723
 4300TIP3    H112864   5.112   0.837   1.394 -0.4986 -0.6381  0.2989
 4300TIP3    H212865   4.970   0.891   1.406 -0.7777 -1.1807 -0.4911
 4301TIP3   OH212866   1.771   0.887   3.189  0.2955 -0.2016 -0.1059
 4301TIP3    H112867   1.764   0.936   3.270  0.6442  2.4657 -1.5553
 4301TIP3    H212868   1.689   0.838   3.182  0.7072 -1.3433  2.2900
 4302TIP3   OH212869   1.018   3.613   5.791 -0.4839  0.1486  0.0209
 4302TIP3    H112870   1.069   3.681   5.835 -0.4680 -0.8850  1.7015
 4302TIP3    H212871   0.988   3.557   5.862 -2.0787 -0.5451 -1.1514
 4303TIP3   OH212872   4.435   6.226   4.034 -0.4354 -0.1107  0.6390
 4303TIP3    H112873   4.370   6.177   4.084 -0.7930  0.6457  0.9266
 4303TIP3    H212874   4.404   6.222   3.944 -0.9440  0.3402  0.7911
 4304TIP3   OH212875   0.047   1.994   4.741 -0.3999 -0.5475 -0.3527
 4304TIP3    H112876   0.054   2.011   4.835 -1.1409 -1.1458 -0.1766
 4304TIP3    H212877   0.099   2.062   4.700  0.4813 -0.6762  0.5220
 4305TIP3   OH212878   2.403   0.019   4.150  0.2648 -0.1099  0.2249
 4305TIP3    H112879   2.387   0.053   4.238 -0.6436  0.6102 -0.2045
 4305TIP3    H212880   2.318   0.025   4.106  0.7345 -0.3384 -0.7409
 4306TIP3   OH212881   4.861   6.193   3.763 -0.4013 -0.0173 -0.0560
 4306TIP3    H112882   4.951   6.193   3.795 -0.2451 -2.7106 -0.2190
 4306TIP3    H212883   4.850   6.277   3.719  1.6823  0.7899  0.8469
 4307TIP3   OH212884   4.835   3.713   4.316  0.4460  0.3559 -0.1108
 4307TIP3    H112885   4.823   3.656   4.392  1.2353 -0.2610 -0.4463
 4307TIP3    H212886   4.911   3.678   4.270 -0.6419  0.0751 -1.7765
 4308TIP3   OH212887   0.986   4.593   5.727 -0.4875  0.3255 -0.2049
 4308TIP3    H112888   0.967   4.586   5.633  0.6745 -2.0286 -0.3399
 4308TIP3    H212889   1.049   4.664   5.733 -0.1067  0.1099 -1.3221
 4309TIP3   OH212890   1.356   4.679   0.776  0.0626 -0.7410  0.2359
 4309TIP3    H112891   1.321   4.598   0.812 -0.3591 -0.5234  0.3181
 4309TIP3    H212892   1.375   4.659   0.684  2.2984 -1.6765  0.8276
 4310TIP3   OH212893   4.579   2.832   1.147  0.1713  0.1322 -0.1151
 4310TIP3    H112894   4.623   2.851   1.064  0.4974 -0.8084 -0.1722
 4310TIP3    H212895   4.601   2.740   1.165  0.9671  0.6001  1.5217
 4311TIP3   OH212896   3.349   5.781   3.025  0.2290 -0.5380  0.4839
 4311TIP3    H112897   3.294   5.708   2.996 -0.0863 -0.0314 -0.2176
 4311TIP3    H212898   3.287   5.852   3.043  0.7201  0.4829 -1.6440
 4312TIP3   OH212899   3.225   3.588   2.791 -0.2510 -0.4661  0.3087
 4312TIP3    H112900   3.311   3.622   2.815 -0.4123 -0.3803  0.7866
 4312TIP3    H212901   3.166   3.625   2.857 -1.0013  1.1363 -1.1688
 4313TIP3   OH212902   7.059   3.590   0.122  0.1305  0.2202  0.0835
 4313TIP3    H112903   6.971   3.628   0.123  0.4604  1.0959 -1.1683
 4313TIP3    H212904   7.114   3.657   0.160  0.3850  0.0292  0.0521
 4314TIP3   OH212905   1.357   5.297   0.534  0.2362 -0.3176 -0.6610
 4314TIP3    H112906   1.404   5.336   0.460  0.5690 -1.5687 -1.1312
 4314TIP3    H212907   1.370   5.203   0.524  0.0891 -0.5272  0.8701
 4315TIP3   OH212908   4.652   1.442   2.353  0.0694  0.3949 -0.6833
 4315TIP3    H112909   4.670   1.349   2.362 -0.5171  0.3174 -0.2511
 4315TIP3    H212910   4.557   1.449   2.363  0.0041  0.9441 -1.5403
 4316TIP3   OH212911   6.231   1.356   4.792 -0.1199 -0.0023  0.5167
 4316TIP3    H112912   6.255   1.448   4.801 -0.4314 -0.1037  4.1864
 4316TIP3    H212913   6.139   1.352   4.818 -0.3442 -1.2631 -0.3801
 4317TIP3   OH212914   6.722   3.351   3.584 -0.1235 -0.3893 -0.2674
 4317TIP3    H112915   6.635   3.314   3.601 -0.1810 -0.7872 -1.3506
 4317TIP3    H212916   6.769   3.339   3.667 -0.7474 -1.1763 -0.0039
 4318TIP3   OH212917   4.701   1.502   2.992  0.5537 -0.1308 -0.5891
 4318TIP3    H112918   4.790   1.537   2.991  1.2579 -1.7499  0.6778
 4318TIP3    H212919   4.669   1.520   3.080 -0.8525  1.4183 -1.3518
 4319TIP3   OH212920   4.491   3.326   0.127  0.7162 -0.0118  0.4199
 4319TIP3    H112921   4.582   3.309   0.100 -0.2732 -4.0495 -1.1413
 4319TIP3    H212922   4.453   3.375   0.054  0.6448 -2.0659 -0.9970
 4320TIP3   OH212923   6.570   2.416   3.129  0.1704  0.0938 -0.3873
 4320TIP3    H112924   6.475   2.407   3.136  0.3016 -0.2085  1.4117
 4320TIP3    H212925   6.596   2.349   3.065 -0.6220 -1.4030  0.7838
 4321TIP3   OH212926   4.838   3.900   1.242  0.2030  0.5469 -0.1322
 4321TIP3    H112927   4.824   3.810   1.213  1.2875  0.7672 -1.4235
 4321TIP3    H212928   4.765   3.949   1.204 -0.8287  0.1200  1.2179
 4322TIP3   OH212929   4.851   1.891   5.711  0.8223  0.1250  0.2244
 4322TIP3    H112930   4.763   1.852   5.718  1.1836 -0.9364 -0.8768
 4322TIP3    H212931   4.840   1.966   5.653  0.5662  0.2995  0.4909
 4323TIP3   OH212932   5.608   6.172   0.133 -0.0164 -0.0961  0.3984
 4323TIP3    H112933   5.668   6.210   0.068  0.2546  1.2487  1.4023
 4323TIP3    H212934   5.643   6.084   0.149  0.2294 -0.2464 -0.8541
 4324TIP3   OH212935   0.945   5.668   2.259  0.1544 -0.0473 -0.6018
 4324TIP3    H112936   0.918   5.760   2.255  0.0482 -0.1227 -2.1968
 4324TIP3    H212937   0.865   5.620   2.280  0.1792  0.1990  0.0810
 4325TIP3   OH212938   5.427   1.401   2.291  0.6801  0.8767 -0.0899
 4325TIP3    H112939   5.503   1.349   2.318  0.1517 -0.1200 -0.4748
 4325TIP3    H212940   5.423   1.471   2.355  1.3785  0.4145  0.4871
 4326TIP3   OH212941   5.053   0.911   5.409 -0.1511 -0.5229  0.1596
 4326TIP3    H112942   5.040   0.912   5.504  0.3913  0.0635  0.2305
 4326TIP3    H212943   5.041   1.003   5.383  2.6756 -0.1019  0.0737
 4327TIP3   OH212944   0.604   5.508   5.032 -0.3113  0.5873  0.1936
 4327TIP3    H112945   0.685   5.480   4.990 -0.0703 -0.3039  1.2265
 4327TIP3    H212946   0.616   5.602   5.046 -0.1561  0.7882 -1.1540
 4328TIP3   OH212947   5.467   5.081   4.378  0.3244  0.2744  0.1286
 4328TIP3    H112948   5.490   5.031   4.456  0.2951  1.2927  0.8060
 4328TIP3    H212949   5.536   5.146   4.369 -0.5436  1.2561  0.3035
 4329TIP3   OH212950   0.068   5.304   4.355  0.0751 -0.2913  0.4368
 4329TIP3    H112951   0.044   5.229   4.410  1.2620 -0.9558  0.0896
 4329TIP3    H212952   0.151   5.335   4.392 -0.1650  0.5682  0.2826
 4330TIP3   OH212953   6.736   4.429   2.095 -0.5243 -0.2676 -0.4669
 4330TIP3    H112954   6.776   4.356   2.143  0.0947  0.2279 -0.2227
 4330TIP3    H212955   6.689   4.478   2.161 -0.5869 -0.2035 -0.5589
 4331TIP3   OH212956   2.311   3.410   1.013  0.2705  0.0066 -0.5392
 4331TIP3    H112957   2.310   3.357   0.933  0.6176 -1.5566  0.4514
 4331TIP3    H212958   2.346   3.495   0.985  1.7235 -0.9558 -1.7982
 4332TIP3   OH212959   1.399   1.551   1.200  0.3168 -0.1489  0.0212
 4332TIP3    H112960   1.424   1.496   1.125 -2.0716 -0.9300 -0.2727
 4332TIP3    H212961   1.440   1.507   1.275  0.3396 -1.0158 -0.4817
 4333TIP3   OH212962   6.053   1.698   0.064 -0.0718  0.1823 -0.7549
 4333TIP3    H112963   6.066   1.790   0.041 -0.0322  0.4740  0.3510
 4333TIP3    H212964   5.975   1.699   0.120 -0.0842 -0.4650 -0.7559
 4334TIP3   OH212965   3.300   3.677   5.197 -0.2867  0.4019 -0.3145
 4334TIP3    H112966   3.218   3.724   5.213 -1.0976 -1.2239  0.6199
 4334TIP3    H212967   3.357   3.702   5.270 -0.3921  0.6135 -0.3039
 4335TIP3   OH212968   0.858   4.623   3.344  0.0286  0.7679 -0.3842
 4335TIP3    H112969   0.831   4.611   3.435  0.2130  1.0866 -0.2872
 4335TIP3    H212970   0.843   4.537   3.303 -0.1961  0.6663 -0.0923
 4336TIP3   OH212971   2.337   2.274   2.179  0.1273  0.5668 -0.0281
 4336TIP3    H112972   2.275   2.203   2.199  0.9291 -0.4446 -0.9979
 4336TIP3    H212973   2.285   2.339   2.132 -0.0427 -0.7381 -1.7514
 4337TIP3   OH212974   5.108   4.833   3.860  0.1535 -0.2759 -1.1900
 4337TIP3    H112975   5.068   4.911   3.900  1.2263  0.5719 -1.7344
 4337TIP3    H212976   5.043   4.764   3.873 -0.4000  0.4616  0.2032
 4338TIP3   OH212977   0.543   6.717   3.091 -0.1785  0.2160  0.2964
 4338TIP3    H112978   0.594   6.698   3.170  1.8732 -0.1380 -1.0308
 4338TIP3    H212979   0.525   6.632   3.052 -1.2915  0.3785  0.4228
 4339TIP3   OH212980   2.520   4.751   2.099  0.0510 -0.3692  0.3577
 4339TIP3    H112981   2.508   4.680   2.036 -0.8393 -1.1981  1.4236
 4339TIP3    H212982   2.540   4.828   2.045  2.1991 -1.6091 -0.7795
 4340TIP3   OH212983   2.003   3.363   0.605  0.2996  0.3867 -0.2838
 4340TIP3    H112984   1.976   3.357   0.514 -3.2566 -1.8582  0.7012
 4340TIP3    H212985   2.072   3.296   0.614  0.3169  0.2768 -1.2013
 4341TIP3   OH212986   4.557   2.391   0.440  0.0471 -0.2494 -0.7065
 4341TIP3    H112987   4.639   2.407   0.393 -0.6042  1.5835 -1.2980
 4341TIP3    H212988   4.527   2.478   0.466  0.5600 -1.1078  3.5666
 4342TIP3   OH212989   5.040   6.611   2.945  0.2997 -0.7940 -0.3539
 4342TIP3    H112990   5.025   6.542   3.009  0.2832 -0.8628 -0.4327
 4342TIP3    H212991   4.987   6.587   2.870 -0.0633 -0.4637 -0.2106
 4343TIP3   OH212992   0.986   6.074   1.333  0.1715 -0.3508  0.0619
 4343TIP3    H112993   0.905   6.083   1.282 -0.1724 -0.7278  0.5298
 4343TIP3    H212994   0.988   6.151   1.389  0.7819  0.2970 -0.8273
 4344TIP3   OH212995   0.312   1.899   0.372  0.0844  0.2852  0.2991
 4344TIP3    H112996   0.340   1.855   0.453 -0.2082 -0.5598 -0.0485
 4344TIP3    H212997   0.368   1.861   0.304 -0.6402 -0.0520 -0.1134
 4345TIP3   OH212998   0.704   3.188   2.806  0.4096 -0.3158  0.0282
 4345TIP3    H112999   0.622   3.151   2.840 -0.9275 -0.5669 -3.1378
 4345TIP3    H213000   0.745   3.116   2.759  0.8226  0.6175 -1.0870
 4346TIP3   OH213001   5.154   0.817   3.646 -0.0688  0.0113 -0.0731
 4346TIP3    H113002   5.171   0.780   3.733  1.1071  0.5545 -0.0595
 4346TIP3    H213003   5.192   0.904   3.648  0.1861 -0.0546 -1.2152
 4347TIP3   OH213004   2.215   2.931   4.693  0.1238 -0.2173 -0.2877
 4347TIP3    H113005   2.275   2.978   4.635  0.2479  0.3781  0.3196
 4347TIP3    H213006   2.270   2.865   4.736  0.6567  1.1802  1.2548
 4348TIP3   OH213007   6.748   2.662   3.997 -0.1553  0.2619  0.0234
 4348TIP3    H113008   6.840   2.658   3.972 -0.6101 -2.2803 -1.5922
 4348TIP3    H213009   6.735   2.590   4.058 -1.1928  0.2175 -0.2206
 4349TIP3   OH213010   5.879   2.097   3.726  0.0148  0.1142 -0.0310
 4349TIP3    H113011   5.905   2.009   3.698 -0.3983  0.0506 -0.2280
 4349TIP3    H213012   5.950   2.154   3.696  0.7434 -0.2668  0.9236
 4350TIP3   OH213013   7.001   2.559   3.273  0.2845 -0.8586  0.1259
 4350TIP3    H113014   7.090   2.564   3.238  0.2163 -0.4160  0.0096
 4350TIP3    H213015   6.948   2.609   3.212 -0.4462 -2.9287 -1.0351
 4351TIP3   OH213016   2.436   5.241   0.487 -0.7217 -0.2243 -0.0580
 4351TIP3    H113017   2.355   5.196   0.461 -0.5884 -0.7818  0.4599
 4351TIP3    H213018   2.477   5.181   0.549  1.0607 -0.8319 -1.7404
 4352TIP3   OH213019   0.526   2.068   0.887 -0.0311 -0.3531  0.5621
 4352TIP3    H113020   0.604   2.123   0.891 -0.0735 -0.1879 -0.5793
 4352TIP3    H213021   0.461   2.116   0.939  0.5976 -0.4797  1.5049
 4353TIP3   OH213022   4.895   1.821   1.823 -0.0141  0.1968  0.3585
 4353TIP3    H113023   4.855   1.850   1.905 -0.1443  0.7340  0.1091
 4353TIP3    H213024   4.900   1.726   1.831 -0.5268  0.1981  0.7659
 4354TIP3   OH213025   4.567   0.715   1.240  0.0390 -0.0697  0.1748
 4354TIP3    H113026   4.542   0.647   1.178 -0.7716 -0.9043  1.3752
 4354TIP3    H213027   4.491   0.726   1.296  0.7416  0.6684  1.0242
 4355TIP3   OH213028   2.330   1.319   2.793 -0.2003  0.2036  0.3730
 4355TIP3    H113029   2.265   1.379   2.831 -1.6312  0.1665 -1.8211
 4355TIP3    H213030   2.287   1.283   2.716  1.8778 -1.0898 -0.2663
 4356TIP3   OH213031   0.789   0.725   0.639 -0.0225  0.1884 -0.4885
 4356TIP3    H113032   0.742   0.795   0.683 -1.8001 -0.5979 -1.0602
 4356TIP3    H213033   0.873   0.721   0.685  0.3698  3.0147 -0.8110
 4357TIP3   OH213034   5.523   3.687   3.431 -0.5162 -0.3634 -0.2133
 4357TIP3    H113035   5.584   3.722   3.366 -1.1286 -0.7987 -1.0384
 4357TIP3    H213036   5.482   3.612   3.388  0.4310 -1.8499  1.3344
 4358TIP3   OH213037   5.133   1.774   1.500  0.7219 -0.6610  0.2417
 4358TIP3    H113038   5.088   1.692   1.477  2.2538 -1.0351 -1.6932
 4358TIP3    H213039   5.154   1.765   1.593  1.8670 -3.0309 -0.1681
 4359TIP3   OH213040   1.902   0.203   3.841 -0.0800 -0.3334 -0.7305
 4359TIP3    H113041   1.972   0.138   3.835  0.3368  0.2541 -3.3718
 4359TIP3    H213042   1.933   0.266   3.906  1.1055 -0.9226 -0.7027
 4360TIP3   OH213043   0.374   4.813   5.503  0.2034  0.0792 -0.0538
 4360TIP3    H113044   0.465   4.786   5.509  0.1207 -0.2627 -0.3092
 4360TIP3    H213045   0.329   4.739   5.463 -0.4760 -0.4259  1.5331
 4361TIP3   OH213046   0.235   1.576   0.298 -0.3634  0.4908  0.3640
 4361TIP3    H113047   0.301   1.632   0.257 -0.3533  1.2519  1.3952
 4361TIP3    H213048   0.276   1.490   0.302  0.2920  0.7976  0.3401
 4362TIP3   OH213049   1.931   1.371   4.985 -0.2628  0.5554 -0.3406
 4362TIP3    H113050   1.856   1.329   5.027  0.6593 -0.3379  0.4561
 4362TIP3    H213051   1.938   1.329   4.899 -0.0488 -0.1166 -0.0010
 4363TIP3   OH213052   6.521   6.045   2.040  0.0307 -0.0556  0.0577
 4363TIP3    H113053   6.596   6.018   2.093  0.0546  1.3873  0.8158
 4363TIP3    H213054   6.486   6.121   2.085 -3.0408 -1.7267  0.7462
 4364TIP3   OH213055   5.809   5.066   1.698  0.6433  1.0833  0.0767
 4364TIP3    H113056   5.898   5.058   1.733  0.5641 -0.3061  0.0296
 4364TIP3    H213057   5.818   5.120   1.620  1.8080 -0.7248 -1.1038
 4365TIP3   OH213058   2.011   5.032   1.892 -0.2160 -0.4140  0.1050
 4365TIP3    H113059   1.977   5.118   1.866  0.6680 -0.4638 -1.3126
 4365TIP3    H213060   1.945   4.971   1.860  0.3081 -0.4012 -1.0149
 4366TIP3   OH213061   6.820   2.166   0.464 -0.0585 -0.1778 -0.4534
 4366TIP3    H113062   6.735   2.123   0.473 -0.5340  0.5225 -1.4938
 4366TIP3    H213063   6.855   2.169   0.554 -1.1116 -0.4777 -0.0212
 4367TIP3   OH213064   6.293   2.124   1.000 -0.6999  0.0537 -0.1931
 4367TIP3    H113065   6.272   2.206   0.955 -2.1702  0.0550  0.4287
 4367TIP3    H213066   6.376   2.140   1.044  0.2245  0.4140 -1.9695
 4368TIP3   OH213067   4.481   5.439   3.686 -0.1619  0.2809  0.1872
 4368TIP3    H113068   4.401   5.461   3.639 -0.5564 -1.9755 -0.3349
 4368TIP3    H213069   4.476   5.488   3.768 -1.2743  1.4213 -0.5324
 4369TIP3   OH213070   0.984   0.750   2.604 -0.0743 -0.4405 -0.8746
 4369TIP3    H113071   0.920   0.816   2.579 -0.5528 -1.0936 -1.4000
 4369TIP3    H213072   0.951   0.668   2.567 -0.4324 -1.3224  1.2450
 4370TIP3   OH213073   0.362   2.337   3.114 -0.1588 -0.3703  0.2146
 4370TIP3    H113074   0.284   2.286   3.133 -0.4293 -0.1799 -0.3674
 4370TIP3    H213075   0.344   2.378   3.029  0.3858  0.0367  0.2910
 4371TIP3   OH213076   3.668   2.901   1.887  0.1303  0.3452 -0.1443
 4371TIP3    H113077   3.706   2.958   1.955 -0.4467  0.3328  0.1958
 4371TIP3    H213078   3.641   2.961   1.818  0.2902  0.4037 -0.1563
 4372TIP3   OH213079   4.877   1.187   5.564  0.3210 -0.2738 -0.2690
 4372TIP3    H113080   4.939   1.189   5.491 -0.1437 -2.5900 -0.8100
 4372TIP3    H213081   4.796   1.154   5.526 -0.6698  0.8290  0.8208
 4373TIP3   OH213082   3.871   2.134   5.804  0.7091  0.3296 -0.2562
 4373TIP3    H113083   3.963   2.137   5.830  0.4093 -1.0110  1.1532
 4373TIP3    H213084   3.851   2.040   5.800 -0.0551  0.5361 -2.6919
 4374TIP3   OH213085   1.567   2.885   4.542 -0.2563  0.1290 -0.3718
 4374TIP3    H113086   1.496   2.831   4.576  0.4087  0.5210  1.8144
 4374TIP3    H213087   1.565   2.872   4.447 -2.9759 -0.1712 -0.3442
 4375TIP3   OH213088   6.279   5.572   1.149 -0.4142 -0.1182 -0.4533
 4375TIP3    H113089   6.310   5.556   1.060 -0.3529  0.6085 -0.5634
 4375TIP3    H213090   6.255   5.664   1.151 -1.3687 -0.3569 -0.0012
 4376TIP3   OH213091   6.824   0.081   0.610  0.3701  0.4345  0.4778
 4376TIP3    H113092   6.878   0.136   0.666  1.0681 -1.2567  1.5761
 4376TIP3    H213093   6.886   0.039   0.551 -0.0200  0.1723  0.2467
 4377TIP3   OH213094   5.131   0.442   3.971  0.5069  0.6551  0.4184
 4377TIP3    H113095   5.105   0.525   3.930  0.7163  0.9253  0.8202
 4377TIP3    H213096   5.215   0.462   4.012  0.5424  0.2495  0.5408
 4378TIP3   OH213097   4.275   1.811   2.524  0.6935  0.0118 -0.8866
 4378TIP3    H113098   4.346   1.828   2.587 -0.8626 -1.8490  1.5593
 4378TIP3    H213099   4.239   1.898   2.506  2.7426  0.8619 -1.2368
 4379TIP3   OH213100   3.745   2.455   0.186 -0.1805 -0.1903 -0.0134
 4379TIP3    H113101   3.658   2.490   0.165 -0.1518 -1.0697 -1.7139
 4379TIP3    H213102   3.729   2.386   0.250 -0.6820 -0.0967 -0.0365
 4380TIP3   OH213103   1.842   1.018   4.177 -0.1460 -0.6277 -0.1734
 4380TIP3    H113104   1.836   0.992   4.269 -0.4801  0.1022  0.0216
 4380TIP3    H213105   1.924   1.069   4.172 -1.0426  0.9144  0.1481
 4381TIP3   OH213106   3.657   3.777   1.966  0.0613  0.1830 -0.0298
 4381TIP3    H113107   3.571   3.817   1.958 -0.8731 -1.6436  0.2239
 4381TIP3    H213108   3.640   3.692   2.007  1.9842 -0.2477 -0.0193
 4382TIP3   OH213109   5.118   2.306   2.678 -0.3159 -0.0966  0.2955
 4382TIP3    H113110   5.059   2.299   2.603  1.4230 -0.0032 -1.1493
 4382TIP3    H213111   5.086   2.240   2.740  0.1391 -2.6391 -1.9641
 4383TIP3   OH213112   1.278   1.583   0.567  0.0937  0.9946  0.0014
 4383TIP3    H113113   1.321   1.567   0.651 -0.1977  0.4865  0.0536
 4383TIP3    H213114   1.285   1.678   0.555 -0.3238  1.1450  0.8452
 4384TIP3   OH213115   3.228   1.601   0.790 -0.3639 -0.4896  0.2462
 4384TIP3    H113116   3.154   1.638   0.838 -0.0679 -0.6503  0.8398
 4384TIP3    H213117   3.292   1.673   0.786 -1.0807  0.0927 -1.4687
 4385TIP3   OH213118   2.071   2.514   5.873 -0.2541  0.0396 -0.2344
 4385TIP3    H113119   2.160   2.545   5.854 -0.1230 -0.7314 -0.9320
 4385TIP3    H213120   2.077   2.419   5.868 -1.5171  0.0103 -2.2415
 4386TIP3   OH213121   1.579   2.138   4.367  0.4760  0.3854 -0.3274
 4386TIP3    H113122   1.534   2.056   4.345  0.7888 -0.2212  1.1942
 4386TIP3    H213123   1.628   2.160   4.288  1.2667 -1.5002 -0.4176
 4387TIP3   OH213124   5.530   2.669   3.395  0.3476  0.1630  0.3761
 4387TIP3    H113125   5.575   2.591   3.364  1.0360  0.0637  1.5846
 4387TIP3    H213126   5.588   2.707   3.461 -0.4204  1.1551  0.5146
 4388TIP3   OH213127   3.443   6.274   0.235 -0.0135 -0.0714 -0.0084
 4388TIP3    H113128   3.531   6.286   0.270 -0.0862 -2.8995  1.4085
 4388TIP3    H213129   3.385   6.294   0.308 -0.2784 -2.9974  0.7152
 4389TIP3   OH213130   0.142   2.194   3.210  0.1811 -0.2318  0.2310
 4389TIP3    H113131   0.141   2.103   3.237  0.2190 -0.6104 -0.9730
 4389TIP3    H213132   0.074   2.200   3.142 -0.2751  0.7862  0.7474
 4390TIP3   OH213133   5.381   3.941   4.479  0.6332 -0.4409  0.1373
 4390TIP3    H113134   5.443   3.968   4.412 -0.6086 -0.3866 -1.0228
 4390TIP3    H213135   5.414   3.982   4.560  0.4368  2.1759 -1.0010
 4391TIP3   OH213136   2.855   5.336   2.541  0.0018 -0.0519  0.5855
 4391TIP3    H113137   2.904   5.333   2.459  0.6798 -1.8659  1.0286
 4391TIP3    H213138   2.821   5.247   2.553  0.8217 -0.1265  2.7999
 4392TIP3   OH213139   3.739   6.375   1.129 -0.5478 -0.3807 -0.1906
 4392TIP3    H113140   3.697   6.301   1.172 -0.9447 -0.6678 -1.0633
 4392TIP3    H213141   3.806   6.336   1.073 -0.8912 -0.1048 -0.8107
 4393TIP3   OH213142   4.147   1.925   5.172  0.3456  0.1235  0.3223
 4393TIP3    H113143   4.207   1.989   5.212 -0.6928 -0.4637  3.0752
 4393TIP3    H213144   4.087   1.902   5.243 -1.5782 -1.2066 -1.6195
 4394TIP3   OH213145   2.497   1.534   2.679 -0.0916 -0.1200  0.4387
 4394TIP3    H113146   2.482   1.467   2.747  0.0396 -1.5179 -0.8610
 4394TIP3    H213147   2.427   1.598   2.694  1.2656  0.8977  3.3191
 4395TIP3   OH213148   2.138   5.626   3.235 -0.2743 -0.2307 -0.1346
 4395TIP3    H113149   2.111   5.536   3.213  0.5899 -0.5686  0.1573
 4395TIP3    H213150   2.142   5.626   3.330  0.2974 -0.0547 -0.1564
 4396TIP3   OH213151   5.845   4.798   0.470  0.2735 -0.1938 -0.0769
 4396TIP3    H113152   5.834   4.761   0.382 -1.8576  1.1676 -0.4579
 4396TIP3    H213153   5.892   4.880   0.455 -2.0854  1.2086 -0.3401
 4397TIP3   OH213154   1.818   2.413   3.764  0.1217  0.6109  0.3654
 4397TIP3    H113155   1.863   2.391   3.845 -0.0055  0.4551  0.3941
 4397TIP3    H213156   1.773   2.333   3.738  2.9064 -0.4560 -1.6798
 4398TIP3   OH213157   4.452   3.323   2.684  0.2880  0.1094  0.0511
 4398TIP3    H113158   4.541   3.359   2.683  0.1814  0.4770  1.4550
 4398TIP3    H213159   4.454   3.257   2.753 -0.2612 -0.6499 -0.6388
 4399TIP3   OH213160   6.781   6.017   4.231  0.0917  0.9330  0.1669
 4399TIP3    H113161   6.695   6.036   4.269 -0.9736  0.5632 -1.8893
 4399TIP3    H213162   6.814   6.103   4.203 -0.9562  0.8048 -1.6163
 4400TIP3   OH213163   0.550   2.885   2.724 -0.1469  0.1239 -0.6671
 4400TIP3    H113164   0.503   2.804   2.742  0.1038  0.1027 -0.0638
 4400TIP3    H213165   0.484   2.943   2.687 -0.4280 -0.2158 -0.7046
 4401TIP3   OH213166   6.074   4.035   2.035 -0.5085 -0.2535 -0.3000
 4401TIP3    H113167   6.148   3.981   2.009 -0.0857  0.8893 -1.5877
 4401TIP3    H213168   6.083   4.115   1.984 -1.6865  0.6270  0.7912
 4402TIP3   OH213169   3.922   2.078   0.138 -0.2994 -0.1916 -0.3421
 4402TIP3    H113170   3.960   2.149   0.085  0.0902  0.6664  1.0318
 4402TIP3    H213171   3.989   2.060   0.204 -1.0395 -0.7849  0.2555
 4403TIP3   OH213172   6.212   1.787   3.270  0.6692 -0.0722  0.4498
 4403TIP3    H113173   6.294   1.827   3.240 -0.4035  0.0051 -2.7479
 4403TIP3    H213174   6.143   1.840   3.230 -0.9182 -1.6131  1.0015
 4404TIP3   OH213175   1.641   3.565   4.900  0.2856  0.1241  0.0431
 4404TIP3    H113176   1.663   3.646   4.854  0.7741  0.7573  1.3450
 4404TIP3    H213177   1.649   3.497   4.833 -0.4000  1.1610 -1.1439
 4405TIP3   OH213178   3.717   0.575   0.910 -0.7542 -0.0124  0.7630
 4405TIP3    H113179   3.729   0.581   0.816 -2.2812  0.7954  0.5963
 4405TIP3    H213180   3.798   0.609   0.947 -0.4686  0.4400 -0.2574
 4406TIP3   OH213181   4.940   0.243   5.857  0.0681 -0.2150  0.0323
 4406TIP3    H113182   4.947   0.201   5.943  1.2465  0.1178  0.1254
 4406TIP3    H213183   4.977   0.179   5.796  1.8467  0.6035  0.1711
 4407TIP3   OH213184   0.567   5.010   1.192 -0.4274  0.3498  0.2051
 4407TIP3    H113185   0.497   5.055   1.240 -0.2545 -0.5645  1.3648
 4407TIP3    H213186   0.527   4.928   1.163 -0.1814  0.3679 -0.2003
 4408TIP3   OH213187   6.839   4.026   1.147 -0.3363 -0.2733  0.3271
 4408TIP3    H113188   6.787   4.063   1.076  1.5228  3.3759  0.6592
 4408TIP3    H213189   6.920   3.998   1.106 -0.6418 -1.5729  0.5433
 4409TIP3   OH213190   5.796   2.450   5.336 -0.5132 -0.1286 -0.1016
 4409TIP3    H113191   5.790   2.362   5.372 -0.2890  0.2919  0.9939
 4409TIP3    H213192   5.784   2.508   5.411  0.3260  0.7753 -0.6373
 4410TIP3   OH213193   0.783   4.406   2.983  0.4562  0.5407 -0.1036
 4410TIP3    H113194   0.851   4.429   2.919  2.0006  0.2796  1.3844
 4410TIP3    H213195   0.739   4.330   2.945  2.6901 -0.8820  0.0026
 4411TIP3   OH213196   2.111   6.704   5.905  0.7086 -0.2099 -0.1368
 4411TIP3    H113197   2.021   6.730   5.886  1.1175  1.6280  0.3149
 4411TIP3    H213198   2.135   6.647   5.831 -0.4430  0.1643 -0.8338
 4412TIP3   OH213199   0.753   4.266   0.839 -0.0203 -0.0728  0.1013
 4412TIP3    H113200   0.695   4.339   0.820 -1.6765 -1.2421  0.4200
 4412TIP3    H213201   0.713   4.223   0.915  0.9103 -1.2966 -0.0694
 4413TIP3   OH213202   1.809   3.141   1.669  0.3801 -0.1136  0.5977
 4413TIP3    H113203   1.785   3.122   1.759 -2.7139 -1.0470 -0.2931
 4413TIP3    H213204   1.755   3.216   1.645  2.0731  0.9188 -0.1684
 4414TIP3   OH213205   5.330   4.271   1.591  0.0432  0.3054  0.4394
 4414TIP3    H113206   5.320   4.234   1.678  0.8252  1.0083  0.8397
 4414TIP3    H213207   5.422   4.295   1.585 -0.1685  1.0079 -0.2714
 4415TIP3   OH213208   1.031   0.877   1.960  0.1611  0.3134 -0.3330
 4415TIP3    H113209   1.118   0.840   1.975  0.0277  0.8970  2.4047
 4415TIP3    H213210   1.042   0.971   1.974 -0.7531  0.5145 -0.8829
 4416TIP3   OH213211   1.581   3.535   0.098  0.0915 -0.9850  0.0351
 4416TIP3    H113212   1.621   3.473   0.159 -0.2365 -1.1438  0.0918
 4416TIP3    H213213   1.511   3.576   0.149 -0.8503 -1.8398 -0.5232
 4417TIP3   OH213214   5.879   5.745   4.967  0.0938  0.2652  0.1385
 4417TIP3    H113215   5.801   5.698   4.997  0.0543 -0.8038 -1.5257
 4417TIP3    H213216   5.948   5.718   5.028 -0.5650  0.2519  0.8875
 4418TIP3   OH213217   5.183   1.089   2.657  0.0903  0.0584  0.2480
 4418TIP3    H113218   5.212   1.180   2.652  1.5481 -0.3903  0.1244
 4418TIP3    H213219   5.250   1.040   2.610 -1.2901 -0.9663 -0.7316
 4419TIP3   OH213220   6.321   5.968   5.668  0.2668  0.2838  0.0166
 4419TIP3    H113221   6.408   5.931   5.657  0.1575 -0.4853  1.4978
 4419TIP3    H213222   6.336   6.060   5.689  1.0057 -0.5076  3.6988
 4420TIP3   OH213223   2.653   2.993   3.502 -0.4177  0.0838  0.2004
 4420TIP3    H113224   2.731   2.954   3.541 -0.7372 -1.5257 -0.7206
 4420TIP3    H213225   2.676   3.086   3.492  1.3169 -0.3210  0.0785
 4421TIP3   OH213226   4.812   0.463   4.989  0.1015  0.1814 -0.5986
 4421TIP3    H113227   4.823   0.484   5.082  1.6979 -2.0511 -0.2013
 4421TIP3    H213228   4.900   0.473   4.951 -0.5133  1.0072 -1.8917
 4422TIP3   OH213229   5.524   1.232   1.493 -0.6429  0.3820 -0.0531
 4422TIP3    H113230   5.582   1.287   1.548  1.0780 -1.1300 -0.2537
 4422TIP3    H213231   5.509   1.154   1.546 -2.2641  0.5968 -0.1655
 4423TIP3   OH213232   1.320   2.655   2.633 -0.0011 -0.9806  0.4899
 4423TIP3    H113233   1.306   2.743   2.598  2.0122 -1.2363 -1.1659
 4423TIP3    H213234   1.271   2.654   2.715 -0.2302  1.6186  0.4845
 4424TIP3   OH213235   2.649   4.462   0.375 -0.0530 -0.3644 -0.1861
 4424TIP3    H113236   2.581   4.405   0.411 -0.5220 -0.4111 -1.1139
 4424TIP3    H213237   2.621   4.551   0.399 -0.7848 -0.3366 -1.0978
 4425TIP3   OH213238   5.088   3.708   0.482  0.2580  0.7107 -0.2602
 4425TIP3    H113239   5.153   3.775   0.463 -0.1899  0.7144 -1.8788
 4425TIP3    H213240   5.029   3.709   0.407 -1.2723  0.2899  0.8703
 4426TIP3   OH213241   5.769   5.973   3.688 -0.5430  0.2759  0.2883
 4426TIP3    H113242   5.793   5.979   3.780 -0.5313  3.3824  0.1791
 4426TIP3    H213243   5.839   6.020   3.642 -1.5178  0.4405 -1.0922
 4427TIP3   OH213244   2.767   4.742   0.839  0.1926 -0.2224  0.2210
 4427TIP3    H113245   2.677   4.735   0.871  0.3744  0.9207  1.0671
 4427TIP3    H213246   2.811   4.666   0.876 -0.7578 -1.6690 -1.4901
 4428TIP3   OH213247   4.850   0.875   4.256 -0.2381  0.1621 -0.4247
 4428TIP3    H113248   4.876   0.911   4.341  2.3086  0.2285 -1.1374
 4428TIP3    H213249   4.809   0.949   4.210 -1.5833  0.1376  0.6800
 4429TIP3   OH213250   4.097   5.657   3.070 -0.7677  0.1044  0.4942
 4429TIP3    H113251   4.071   5.749   3.070 -0.8349  0.1616  3.4439
 4429TIP3    H213252   4.193   5.659   3.060 -0.9381  0.3448 -1.3841
 4430TIP3   OH213253   2.160  -0.013   2.050  0.1684  0.0153  0.3135
 4430TIP3    H113254   2.219   0.037   2.105  0.3032  1.8267 -1.3534
 4430TIP3    H213255   2.074  -0.002   2.090  0.4035  0.5186  0.6823
 4431TIP3   OH213256   2.260   2.091   4.644  0.1613 -0.5323 -0.2358
 4431TIP3    H113257   2.291   2.143   4.719  0.2007 -1.5588  0.4770
 4431TIP3    H213258   2.243   2.005   4.681 -1.0908 -0.6941 -1.1476
 4432TIP3   OH213259   3.372   4.097   5.065  0.5992 -0.1097 -0.0205
 4432TIP3    H113260   3.352   4.090   5.158  1.9966 -0.2700  0.2933
 4432TIP3    H213261   3.336   4.017   5.027  1.6365 -0.9658  0.7194
 4433TIP3   OH213262   0.585   1.837   4.847  0.5605 -0.3117  0.2392
 4433TIP3    H113263   0.543   1.872   4.769  0.3477  2.6846  1.5552
 4433TIP3    H213264   0.514   1.803   4.901  0.5827 -1.2831 -0.3289
 4434TIP3   OH213265   3.656   4.036   3.787  0.3409  0.1250 -0.3075
 4434TIP3    H113266   3.647   3.940   3.789  1.2965  0.0204 -0.3135
 4434TIP3    H213267   3.722   4.054   3.854  1.0380  0.6717 -1.1285
 4435TIP3   OH213268   3.428   5.841   2.476  0.3035 -0.3171  0.6961
 4435TIP3    H113269   3.365   5.775   2.505 -0.8175  0.2574 -0.2950
 4435TIP3    H213270   3.426   5.836   2.380  0.8154  0.5831  0.6206
 4436TIP3   OH213271   3.914   4.039   0.601 -0.1903  0.3148 -0.0491
 4436TIP3    H113272   3.967   4.089   0.539  0.2809  0.0443  0.1275
 4436TIP3    H213273   3.919   4.089   0.682 -1.3467  1.0173 -0.3886
 4437TIP3   OH213274   5.605   3.583   5.781 -0.3324  0.0675 -0.4699
 4437TIP3    H113275   5.550   3.640   5.728 -1.5564 -0.5427  0.1154
 4437TIP3    H213276   5.616   3.504   5.728 -0.8527 -0.2029 -0.1840
 4438TIP3   OH213277   3.000   5.871   3.619 -0.2955  0.3100  0.1938
 4438TIP3    H113278   2.921   5.880   3.671 -0.6958 -1.6268 -0.0173
 4438TIP3    H213279   3.064   5.831   3.678 -0.3147 -0.5916 -0.3792
 4439TIP3   OH213280   5.254   3.974   0.377  0.3607  0.7145  0.3386
 4439TIP3    H113281   5.173   4.025   0.381  0.8857  1.5763  0.3009
 4439TIP3    H213282   5.288   3.991   0.289  1.4654  1.7924  0.9337
 4440TIP3   OH213283   4.566   0.663   2.736  0.0912  0.2029 -0.1724
 4440TIP3    H113284   4.590   0.573   2.757 -0.8707  0.1517  0.8245
 4440TIP3    H213285   4.642   0.716   2.761  0.1747 -0.2039  0.4448
 4441TIP3   OH213286   3.023   6.273   5.670 -0.6321 -0.9551 -0.3535
 4441TIP3    H113287   3.065   6.349   5.628 -0.0477 -1.3841 -0.5574
 4441TIP3    H213288   3.078   6.256   5.747  0.6991 -2.6732 -1.6246
 4442TIP3   OH213289   6.689   5.274   0.659 -0.2709  0.0928  0.0237
 4442TIP3    H113290   6.781   5.286   0.636 -0.0964 -1.9475 -0.4851
 4442TIP3    H213291   6.676   5.327   0.737  2.0201 -1.5824  1.6405
 4443TIP3   OH213292   5.324   6.073   3.568 -0.6212  0.1981  0.1106
 4443TIP3    H113293   5.405   6.113   3.539 -0.6469 -0.4392 -0.8859
 4443TIP3    H213294   5.327   5.984   3.533 -0.4911 -0.7488  2.3719
 4444TIP3   OH213295   6.713   3.540   1.381  0.6608  0.0697 -0.3651
 4444TIP3    H113296   6.780   3.581   1.326 -0.2977  2.0188 -0.1269
 4444TIP3    H213297   6.640   3.602   1.382  0.4129 -0.1243  2.6685
 4445TIP3   OH213298   1.906   5.797   4.809  0.0827 -0.7146 -0.1149
 4445TIP3    H113299   1.988   5.843   4.789 -0.0777  0.1226  1.0276
 4445TIP3    H213300   1.863   5.788   4.724  1.1863 -0.8521 -0.6869
 4446TIP3   OH213301   6.387   5.542   4.207 -1.2282  0.3694 -0.3413
 4446TIP3    H113302   6.314   5.538   4.269 -0.3109  3.5089  1.1366
 4446TIP3    H213303   6.439   5.618   4.235  1.6199 -0.6214 -2.4345
 4447TIP3   OH213304   0.649   0.420   1.752  0.4501  0.0669 -0.5825
 4447TIP3    H113305   0.663   0.513   1.767  0.1844  0.0314 -0.1120
 4447TIP3    H213306   0.642   0.412   1.657  0.0336  0.5832 -0.5971
 4448TIP3   OH213307   2.358   4.036   4.531  0.0700 -0.2752  0.2731
 4448TIP3    H113308   2.279   4.078   4.566 -0.0713 -0.1328 -0.2050
 4448TIP3    H213309   2.419   4.033   4.605  0.0155  0.6000  0.3588
 4449TIP3   OH213310   5.566   4.278   4.672 -0.1762 -0.2923 -0.5679
 4449TIP3    H113311   5.542   4.365   4.703 -1.4291 -0.7290 -0.2397
 4449TIP3    H213312   5.617   4.294   4.593  0.0034  0.7415 -0.2610
 4450TIP3   OH213313   5.311   6.657   1.791 -0.1962  0.7515 -0.2357
 4450TIP3    H113314   5.313   6.741   1.837 -1.6380 -0.3909  2.0265
 4450TIP3    H213315   5.314   6.682   1.698  2.8015  3.1313  0.3315
 4451TIP3   OH213316   4.673   5.130   1.617 -0.2336 -0.0231  0.6379
 4451TIP3    H113317   4.593   5.079   1.612  0.5577 -1.2276 -0.3103
 4451TIP3    H213318   4.712   5.106   1.701 -1.1768  1.0906  1.4211
 4452TIP3   OH213319   5.650   6.190   1.752  0.1877  0.0668 -0.3680
 4452TIP3    H113320   5.637   6.253   1.823 -0.3113 -0.6536  0.1937
 4452TIP3    H213321   5.598   6.114   1.778  2.4397 -1.4373  0.0649
 4453TIP3   OH213322   1.185   5.346   2.859 -0.7630 -0.9692 -0.0290
 4453TIP3    H113323   1.098   5.348   2.820 -0.7631  0.3011  0.0064
 4453TIP3    H213324   1.237   5.292   2.800 -1.0041  0.1536 -1.3108
 4454TIP3   OH213325   6.849   1.915   3.908 -0.1663 -1.1395  0.5987
 4454TIP3    H113326   6.782   1.888   3.971 -1.1538 -1.3022 -0.4841
 4454TIP3    H213327   6.830   1.865   3.829  1.4616 -1.4431  0.3632
 4455TIP3   OH213328   2.402   0.531   2.266  0.0800  0.4320 -0.1317
 4455TIP3    H113329   2.477   0.554   2.321 -0.3112  1.4509 -0.0207
 4455TIP3    H213330   2.325   0.558   2.316 -0.3439 -0.0257 -0.5210
 4456TIP3   OH213331   5.107   2.298   0.980  0.4703 -0.2505  0.1665
 4456TIP3    H113332   5.146   2.335   0.901 -1.0817  1.2070  0.0436
 4456TIP3    H213333   5.164   2.224   1.002  1.8560  0.3005 -1.3747
 4457TIP3   OH213334   3.706   6.226   3.766 -0.4690 -0.5427  0.3134
 4457TIP3    H113335   3.673   6.136   3.770  1.3024 -1.5232 -3.1520
 4457TIP3    H213336   3.646   6.271   3.706 -0.3275  0.0600  0.6212
 4458TIP3   OH213337   7.017   5.032   2.048  0.2157 -0.6269  0.2572
 4458TIP3    H113338   7.007   4.938   2.037 -1.0776 -0.4432 -0.3341
 4458TIP3    H213339   7.026   5.065   1.958  1.5835 -0.2699  0.5101
 4459TIP3   OH213340   2.332   4.166   1.214 -0.2384 -0.4970  0.0881
 4459TIP3    H113341   2.330   4.183   1.120  0.1889 -0.1850  0.1322
 4459TIP3    H213342   2.255   4.113   1.231 -0.0577 -0.9583 -0.5173
 4460TIP3   OH213343   1.332   0.487   1.454 -0.5393  0.2075 -0.8104
 4460TIP3    H113344   1.309   0.545   1.526  0.7552 -1.3068  0.9297
 4460TIP3    H213345   1.301   0.401   1.482  0.7561 -0.5696 -1.6478
 4461TIP3   OH213346   1.575   5.540   2.430  0.0386  0.2498 -0.2405
 4461TIP3    H113347   1.538   5.562   2.515 -1.9286  0.8381 -1.1882
 4461TIP3    H213348   1.561   5.618   2.376  0.6788 -0.3239 -1.2739
 4462TIP3   OH213349   6.606   1.872   0.415 -0.4816  0.0180 -0.6811
 4462TIP3    H113350   6.577   1.783   0.437  1.4407  0.1167  3.0633
 4462TIP3    H213351   6.532   1.927   0.439 -1.0272 -0.4341 -1.2955
 4463TIP3   OH213352   6.086   4.885   2.140 -0.0618  0.2927 -0.3328
 4463TIP3    H113353   6.026   4.855   2.072  1.7337 -0.4339 -1.6913
 4463TIP3    H213354   6.095   4.979   2.125 -1.3599  0.5350  0.3257
 4464TIP3   OH213355   1.664   0.814   3.939  0.0583  0.0461 -0.0193
 4464TIP3    H113356   1.626   0.898   3.915  0.8363  0.8933  1.5975
 4464TIP3    H213357   1.626   0.794   4.024  2.3850  0.4253  1.1774
 4465TIP3   OH213358   0.362   4.186   4.712 -0.1768 -0.8401  0.4136
 4465TIP3    H113359   0.302   4.206   4.640 -1.2492 -1.7609  1.0057
 4465TIP3    H213360   0.437   4.145   4.670  0.5881  1.3096 -0.4621
 4466TIP3   OH213361   4.529   2.648   2.262  0.2138 -0.3567 -0.5557
 4466TIP3    H113362   4.517   2.647   2.357  0.4874  0.2540 -0.5110
 4466TIP3    H213363   4.486   2.729   2.234 -1.5190 -1.4251 -1.1846
 4467TIP3   OH213364   2.971   0.096   0.606 -0.0824 -0.4836 -0.0711
 4467TIP3    H113365   2.893   0.074   0.656  0.0708  0.1511  0.4601
 4467TIP3    H213366   3.043   0.058   0.656  0.1849  1.1518  0.8577
 4468TIP3   OH213367   2.720   2.677   1.182  0.2218 -0.1186 -0.5451
 4468TIP3    H113368   2.715   2.771   1.164  0.4326  0.2516  1.1102
 4468TIP3    H213369   2.629   2.650   1.196  0.2902  0.3057  0.9355
 4469TIP3   OH213370   2.127   4.389   4.819 -0.1866  0.5139 -0.3603
 4469TIP3    H113371   2.032   4.404   4.821 -0.5759 -1.5405  1.8540
 4469TIP3    H213372   2.157   4.437   4.743 -2.9343  1.6594 -0.8615
 4470TIP3   OH213373   1.624   0.520   2.226 -0.5636  0.4883  0.2592
 4470TIP3    H113374   1.654   0.608   2.248  0.2856  0.1030  0.7017
 4470TIP3    H213375   1.541   0.511   2.272  0.3683  0.3061  1.9918
 4471TIP3   OH213376   1.549   0.149   1.497  0.4763  0.5569 -0.3480
 4471TIP3    H113377   1.553   0.136   1.591 -1.1403 -1.0978 -0.4494
 4471TIP3    H213378   1.614   0.088   1.461 -0.0785 -0.0475 -0.3527
 4472TIP3   OH213379   4.281   3.226   4.659 -0.2309  0.1124  0.1680
 4472TIP3    H113380   4.264   3.213   4.753 -0.6325 -2.2357 -0.1704
 4472TIP3    H213381   4.229   3.302   4.636 -2.3328 -0.8868  1.3149
 4473TIP3   OH213382   2.503   5.339   3.514 -0.0629  0.8796 -0.1532
 4473TIP3    H113383   2.474   5.281   3.585  0.8957  1.1147  0.4493
 4473TIP3    H213384   2.507   5.426   3.555 -1.6610  1.4324 -1.0896
 4474TIP3   OH213385   1.056   4.504   4.134 -0.0053  0.2037  0.1452
 4474TIP3    H113386   1.022   4.417   4.156 -4.0057  1.6094  0.4526
 4474TIP3    H213387   1.037   4.557   4.211  0.1819  1.8455 -0.8882
 4475TIP3   OH213388   3.981   0.223   0.813 -0.2423  0.7361 -0.9297
 4475TIP3    H113389   4.067   0.202   0.849  0.0941 -1.0046 -2.6060
 4475TIP3    H213390   3.920   0.204   0.884  0.6379  0.8746 -0.1095
 4476TIP3   OH213391   3.714   1.514   1.055  0.4049 -0.1428 -0.3858
 4476TIP3    H113392   3.799   1.486   1.088 -0.5630 -2.5466  0.2712
 4476TIP3    H213393   3.733   1.562   0.974  2.3739 -0.2620 -0.0267
 4477TIP3   OH213394   0.571   3.150   4.624  0.0844 -0.1017 -0.0699
 4477TIP3    H113395   0.498   3.194   4.581 -0.5450  1.0724  2.0591
 4477TIP3    H213396   0.572   3.062   4.585 -2.6466 -0.2611 -0.0225
 4478TIP3   OH213397   1.275   3.365   2.918  0.8927 -0.1129 -0.5177
 4478TIP3    H113398   1.280   3.305   2.992  2.2228 -1.4130 -1.5775
 4478TIP3    H213399   1.202   3.424   2.938  1.0202 -0.6229  1.6349
 4479TIP3   OH213400   0.194   4.932   3.411 -0.1595 -0.6256  0.3449
 4479TIP3    H113401   0.208   4.909   3.319 -0.0095  0.2890  0.1277
 4479TIP3    H213402   0.136   4.864   3.444 -0.7654 -0.6020 -0.6168
 4480TIP3   OH213403   0.778   3.546   1.648 -0.4380  0.3239 -0.6336
 4480TIP3    H113404   0.712   3.604   1.611 -0.7598  0.2440 -0.1917
 4480TIP3    H213405   0.824   3.600   1.713  1.7059  1.2070 -2.7362
 4481TIP3   OH213406   1.707   4.505   1.179  0.2329 -0.3450 -0.5201
 4481TIP3    H113407   1.652   4.427   1.183 -0.2822  0.0565  1.0038
 4481TIP3    H213408   1.743   4.514   1.268  1.0455  0.6036 -0.9265
 4482TIP3   OH213409   1.553   1.543   2.650  0.3981 -0.2058  0.6912
 4482TIP3    H113410   1.473   1.504   2.616 -0.2542  1.4929  0.1769
 4482TIP3    H213411   1.575   1.612   2.588  2.5356 -0.8975  0.5768
 4483TIP3   OH213412   3.657   0.297   0.694  0.3144 -0.0448 -0.0547
 4483TIP3    H113413   3.607   0.225   0.657 -0.5727  0.3379  0.3626
 4483TIP3    H213414   3.647   0.369   0.631 -0.1514  0.2139  0.3089
 4484TIP3   OH213415   4.981   2.811   5.614  0.7208 -0.5128  0.1265
 4484TIP3    H113416   4.995   2.810   5.519  0.4930  1.6669  0.0115
 4484TIP3    H213417   4.895   2.851   5.625  1.3743  0.6322  1.2772
 4485TIP3   OH213418   1.721   5.972   5.604  0.7106  0.4107 -0.3078
 4485TIP3    H113419   1.643   6.028   5.604  0.4004 -0.0178  0.1045
 4485TIP3    H213420   1.689   5.886   5.576  0.9578  0.1306  0.2495
 4486TIP3   OH213421   2.692   0.885   5.344  0.4194 -0.2601 -0.6461
 4486TIP3    H113422   2.756   0.902   5.413  0.5943 -1.1301 -0.5883
 4486TIP3    H213423   2.617   0.940   5.367  0.6991 -0.1046 -0.0876
 4487TIP3   OH213424   6.076   2.094   2.145  0.1648  0.0112 -0.0894
 4487TIP3    H113425   6.114   2.160   2.203  0.1755  1.5852 -1.8314
 4487TIP3    H213426   6.027   2.037   2.204  0.9958  0.9404  1.5863
 4488TIP3   OH213427   6.571   1.305   1.598 -0.3589 -0.3266  0.4494
 4488TIP3    H113428   6.612   1.231   1.642  0.9676 -0.0505 -0.2731
 4488TIP3    H213429   6.645   1.356   1.564 -1.3151  0.1033 -1.0414
 4489TIP3   OH213430   3.573   2.709   1.160 -0.3421 -0.0860 -0.2849
 4489TIP3    H113431   3.660   2.741   1.186  0.2684 -0.5254 -1.6506
 4489TIP3    H213432   3.512   2.753   1.219  0.9071 -0.8479  1.6610
 4490TIP3   OH213433   5.883   4.321   2.758 -0.0811 -0.2730 -0.3475
 4490TIP3    H113434   5.964   4.325   2.808 -1.0370  0.7420  1.2162
 4490TIP3    H213435   5.893   4.244   2.701  1.8965 -0.2299 -0.1218
 4491TIP3   OH213436   5.001   4.763   2.150  0.1980  0.4034 -0.2729
 4491TIP3    H113437   4.988   4.693   2.214  2.0014  1.6786  1.6250
 4491TIP3    H213438   4.920   4.815   2.155 -1.8385 -2.2063 -2.8172
 4492TIP3   OH213439   2.002   3.501   4.262  0.0889  0.1746  0.1495
 4492TIP3    H113440   2.021   3.414   4.229  2.3185  1.4633 -2.3314
 4492TIP3    H213441   1.916   3.523   4.225  0.3149 -0.3115 -0.6759
 4493TIP3   OH213442   4.624   1.328   3.512  0.2530  0.3655  0.5801
 4493TIP3    H113443   4.669   1.254   3.471 -0.4187  0.7633 -0.9554
 4493TIP3    H213444   4.542   1.291   3.544 -0.7725  0.6694 -1.5179
 4494TIP3   OH213445   7.037   6.445   2.117 -0.1820 -0.1387  0.1772
 4494TIP3    H113446   7.006   6.356   2.099  0.7253 -0.9522  2.2889
 4494TIP3    H213447   7.084   6.437   2.200 -3.0447  2.9124  2.3695
 4495TIP3   OH213448   1.385   0.052   4.828  0.0022  0.7843  0.0215
 4495TIP3    H113449   1.386   0.062   4.733  4.2364 -0.3884 -0.2887
 4495TIP3    H213450   1.400  -0.041   4.843 -0.1084  1.0090  1.8459
 4496TIP3   OH213451   5.488   5.763   4.983  0.2640 -0.0518  0.4729
 4496TIP3    H113452   5.544   5.701   5.029 -0.2587 -1.3818 -0.6078
 4496TIP3    H213453   5.414   5.710   4.952  0.0485  0.9980 -0.9201
 4497TIP3   OH213454   7.134   0.468   2.268 -0.2796 -0.2358 -0.3228
 4497TIP3    H113455   7.078   0.526   2.320  0.4439  0.7450 -0.6148
 4497TIP3    H213456   7.082   0.447   2.191  0.0688  1.3932 -1.0251
 4498TIP3   OH213457   0.254   6.014   0.630  0.8625  0.5274  0.6705
 4498TIP3    H113458   0.170   6.057   0.648  0.0679 -1.0852  0.9836
 4498TIP3    H213459   0.320   6.073   0.667  0.0543  2.7316 -1.1457
 4499TIP3   OH213460   4.048   2.304   0.037  0.0125  0.1063  0.0072
 4499TIP3    H113461   4.081   2.262  -0.043 -0.0973 -1.2478  0.6441
 4499TIP3    H213462   4.125   2.344   0.076  0.3915 -0.6415  0.0520
 4500TIP3   OH213463   0.029   2.259   1.923  0.3382 -0.3641 -0.0361
 4500TIP3    H113464  -0.001   2.296   2.006  1.0867 -0.4471  0.2797
 4500TIP3    H213465   0.051   2.334   1.869  3.5508 -0.2274  1.2148
 4501TIP3   OH213466   0.145   0.416   0.637 -0.2653 -0.4086 -1.0632
 4501TIP3    H113467   0.069   0.448   0.588 -0.1159  0.2193 -0.9022
 4501TIP3    H213468   0.122   0.327   0.663 -0.7904 -0.3565 -1.3423
 4502TIP3   OH213469   6.787   0.845   4.965 -0.0672  0.8650 -0.7600
 4502TIP3    H113470   6.840   0.906   4.915  0.5180  0.3099 -0.8275
 4502TIP3    H213471   6.848   0.776   4.992 -0.5679  0.6679 -0.0928
 4503TIP3   OH213472   5.866   2.745   1.524 -0.0937 -0.1637  0.2807
 4503TIP3    H113473   5.903   2.720   1.439  0.9053 -0.5762  0.8112
 4503TIP3    H213474   5.897   2.835   1.538 -1.3093  0.3694 -0.3443
 4504TIP3   OH213475   3.943   1.593   3.288  0.3430 -0.5555  0.5812
 4504TIP3    H113476   4.021   1.552   3.325  0.2733 -0.0289  1.3303
 4504TIP3    H213477   3.918   1.660   3.352  1.7947  2.3069 -1.5747
 4505TIP3   OH213478   0.552   3.727   0.384  0.4842  0.5396 -0.0907
 4505TIP3    H113479   0.489   3.788   0.424  0.4924  1.7476 -1.8112
 4505TIP3    H213480   0.587   3.775   0.309  1.1544 -1.2850 -0.9978
 4506TIP3   OH213481   3.366   5.685   3.633 -0.0422 -0.0408 -0.0499
 4506TIP3    H113482   3.379   5.707   3.726 -1.9247  2.2459 -0.2358
 4506TIP3    H213483   3.454   5.667   3.601  1.0002  1.6309  1.6285
 4507TIP3   OH213484   2.571   6.757   0.554  0.4733  0.2113  0.4336
 4507TIP3    H113485   2.540   6.707   0.629 -1.4745  1.7128  0.6911
 4507TIP3    H213486   2.501   6.750   0.489  1.6623 -0.1760 -0.8826
 4508TIP3   OH213487   0.485   2.192   2.205  0.0601 -0.1591 -0.2016
 4508TIP3    H113488   0.397   2.160   2.220  0.7182 -1.0707  2.0765
 4508TIP3    H213489   0.473   2.270   2.151 -2.1566  0.0176  0.4531
 4509TIP3   OH213490   6.044   4.165   3.355 -0.4437 -0.1641  0.0433
 4509TIP3    H113491   5.953   4.141   3.342 -0.4128 -0.3453  0.1568
 4509TIP3    H213492   6.068   4.123   3.438 -0.5627  0.7343  0.5509
 4510TIP3   OH213493   3.685   3.013   3.480  0.2089  0.5182 -0.3353
 4510TIP3    H113494   3.707   2.964   3.401 -0.0113 -0.4502  0.1823
 4510TIP3    H213495   3.617   2.961   3.522  0.3220  1.0161  0.4918
 4511TIP3   OH213496   3.378   6.155   4.754 -0.3011 -0.3973  0.4117
 4511TIP3    H113497   3.388   6.084   4.690 -0.9817 -2.2642  2.2688
 4511TIP3    H213498   3.465   6.162   4.795  0.0345  0.5480 -0.4345
 4512TIP3   OH213499   6.252   1.143   4.605 -0.6581  0.0031  0.7404
 4512TIP3    H113500   6.270   1.222   4.657  0.2949  0.3989 -0.1537
 4512TIP3    H213501   6.214   1.176   4.524 -2.9454 -0.6656  1.4707
 4513TIP3   OH213502   3.445   3.635   4.864  0.5615 -0.3079  0.4945
 4513TIP3    H113503   3.436   3.607   4.773  1.1709  1.4525 -0.1643
 4513TIP3    H213504   3.517   3.699   4.861  0.6265 -0.2698  2.2300
 4514TIP3   OH213505   4.166   6.008   4.928  0.0468  0.3032  0.4047
 4514TIP3    H113506   4.113   6.017   5.007  0.1926 -2.3333  0.8925
 4514TIP3    H213507   4.256   6.021   4.958  0.2152 -1.8097  0.9955
 4515TIP3   OH213508   3.032   1.069   5.549  0.4006  0.2337 -0.2343
 4515TIP3    H113509   2.949   1.020   5.549  1.5356 -1.8044 -0.2702
 4515TIP3    H213510   3.035   1.110   5.636 -0.8861  0.8142 -0.4381
 4516TIP3   OH213511   2.151   0.158   0.132 -0.4742 -0.5048 -0.1519
 4516TIP3    H113512   2.087   0.089   0.150 -0.8442 -0.1597 -0.1514
 4516TIP3    H213513   2.181   0.140   0.043 -1.3578 -0.0449 -0.5561
 4517TIP3   OH213514   4.323   2.823   1.346 -0.0222  0.1445 -0.9445
 4517TIP3    H113515   4.253   2.858   1.401 -0.5431 -3.2503  0.7731
 4517TIP3    H213516   4.368   2.901   1.313 -2.4607  2.4030  0.6532
 4518TIP3   OH213517   2.447   4.790   1.650 -0.2131 -0.3674 -0.4473
 4518TIP3    H113518   2.476   4.738   1.725 -0.2821  0.9495  0.5268
 4518TIP3    H213519   2.522   4.790   1.591  0.2170 -0.5537  0.0929
 4519TIP3   OH213520   6.879   0.861   0.676 -0.2310 -0.0662 -0.1276
 4519TIP3    H113521   6.878   0.957   0.680  0.3137 -0.1088  1.9020
 4519TIP3    H213522   6.818   0.834   0.745 -0.7158 -1.2020 -0.9760
 4520TIP3   OH213523   1.647   2.570   4.403 -0.2827  0.1898 -0.0243
 4520TIP3    H113524   1.709   2.618   4.458  1.8685 -0.6026 -1.6118
 4520TIP3    H213525   1.636   2.486   4.447  1.2133 -0.3372 -0.5881
 4521TIP3   OH213526   4.846   4.731   3.103  0.5059 -0.0808  0.1983
 4521TIP3    H113527   4.805   4.728   3.016  0.6126 -1.7155  0.1747
 4521TIP3    H213528   4.843   4.640   3.134  1.8927  0.1995  1.2362
 4522TIP3   OH213529   4.766   5.107   5.871  0.2339  0.0211 -0.3159
 4522TIP3    H113530   4.800   5.160   5.799  0.1138  0.4676 -0.0488
 4522TIP3    H213531   4.841   5.089   5.926  0.4075 -0.6670 -0.7546
 4523TIP3   OH213532   4.257   6.359   1.001  0.7913 -0.0505 -0.5007
 4523TIP3    H113533   4.302   6.442   1.020  0.0457  0.0731  0.8879
 4523TIP3    H213534   4.299   6.326   0.922  1.8460  1.1176 -0.4560
 4524TIP3   OH213535   0.078   2.902   4.935 -0.0666 -0.2383 -0.1490
 4524TIP3    H113536   0.073   2.833   4.869  1.4354  0.2794 -0.8541
 4524TIP3    H213537   0.172   2.915   4.949 -0.3032 -1.1648  3.0046
 4525TIP3   OH213538   2.957   4.901   4.082  0.0119  0.0322  0.2555
 4525TIP3    H113539   3.044   4.941   4.082  0.7325 -1.3798 -1.5586
 4525TIP3    H213540   2.968   4.819   4.130 -0.4733  0.0802  0.4623
 4526TIP3   OH213541   3.996   0.476   5.870  0.0298 -0.1511  0.3880
 4526TIP3    H113542   4.001   0.561   5.915 -1.1679  0.0454  0.1917
 4526TIP3    H213543   4.045   0.489   5.789  2.1585 -0.4888  1.5589
 4527TIP3   OH213544   0.103   3.534   5.006 -0.4059 -0.2332 -0.5450
 4527TIP3    H113545   0.183   3.586   5.009 -1.3355  1.3834 -1.9145
 4527TIP3    H213546   0.081   3.517   5.098  1.7830 -1.2417 -0.1533
 4528TIP3   OH213547   6.259   5.482   0.638  0.6408  0.3888  0.0442
 4528TIP3    H113548   6.175   5.457   0.676  0.5429  1.0695  0.2991
 4528TIP3    H213549   6.235   5.542   0.566  0.9216  1.1348  0.5541
 4529TIP3   OH213550   1.505   0.793   5.400 -0.3650 -0.1192  0.2514
 4529TIP3    H113551   1.571   0.728   5.423 -0.5504  0.0072  1.1724
 4529TIP3    H213552   1.425   0.763   5.442 -0.7689  0.0224 -0.3980
 4530TIP3   OH213553   6.030   1.249   4.043  0.0817  0.0632  0.4541
 4530TIP3    H113554   6.034   1.330   3.992  1.4822  0.0689  0.5443
 4530TIP3    H213555   6.000   1.183   3.981 -1.0485  0.6261  0.3732
 4531TIP3   OH213556   3.067   4.525   0.764 -0.1283  0.0307  0.1958
 4531TIP3    H113557   3.139   4.530   0.702 -0.2259 -0.2983  0.0565
 4531TIP3    H213558   2.999   4.475   0.719  0.8314 -2.7322  1.5490
 4532TIP3   OH213559   4.704   3.905   2.552  0.4559 -0.1630 -0.1592
 4532TIP3    H113560   4.670   3.830   2.505  1.5062 -1.7060  1.3924
 4532TIP3    H213561   4.760   3.951   2.489 -1.6411  0.4328 -1.6682
 4533TIP3   OH213562   1.278   2.143   4.056  0.7082 -0.1456 -0.0929
 4533TIP3    H113563   1.255   2.124   3.965  2.2462 -0.4136 -0.4514
 4533TIP3    H213564   1.356   2.090   4.072 -1.1958 -2.5128  2.3510
 4534TIP3   OH213565   0.379   2.517   5.560  0.0253 -0.2221 -0.0595
 4534TIP3    H113566   0.283   2.519   5.559  0.0279  1.1904 -1.5517
 4534TIP3    H213567   0.402   2.445   5.502 -0.1440  0.1109 -0.5472
 4535TIP3   OH213568   3.758   3.328   4.383  0.0342 -0.4261  0.1826
 4535TIP3    H113569   3.765   3.289   4.296 -1.9694  0.4787 -0.4413
 4535TIP3    H213570   3.666   3.317   4.407  0.0110  1.5213  1.1254
 4536TIP3   OH213571   6.537   5.423   2.671  0.3100 -0.1796 -0.0637
 4536TIP3    H113572   6.555   5.407   2.578 -0.8067  2.2829 -0.7726
 4536TIP3    H213573   6.618   5.396   2.715  0.5850 -2.1589 -1.5921
 4537TIP3   OH213574   4.930   5.673   0.801 -0.2774 -0.2652  0.0854
 4537TIP3    H113575   4.982   5.719   0.736  1.2385 -0.4507  1.1102
 4537TIP3    H213576   4.875   5.740   0.841  0.2717  0.2264  0.0153
 4538TIP3   OH213577   2.675   1.774   0.463 -0.2089  0.2675  0.9066
 4538TIP3    H113578   2.628   1.704   0.508 -1.1015 -0.2459 -0.7622
 4538TIP3    H213579   2.765   1.767   0.496 -0.3072 -1.5839  0.8714
 4539TIP3   OH213580   1.971   6.151   4.540  0.5337 -0.4403 -0.0868
 4539TIP3    H113581   1.946   6.198   4.460  1.2839  0.9443  0.4834
 4539TIP3    H213582   2.026   6.211   4.588 -0.5224 -0.9535  1.8735
 4540TIP3   OH213583   2.851   5.162   4.099 -0.1724  0.8826 -0.7672
 4540TIP3    H113584   2.876   5.074   4.127  0.9923  1.8565  1.5152
 4540TIP3    H213585   2.893   5.173   4.014  0.1071 -0.5731 -0.8389
 4541TIP3   OH213586   7.017   3.398   3.442 -0.3309 -0.0765  0.1299
 4541TIP3    H113587   6.983   3.442   3.521  1.3023 -0.3158  0.9984
 4541TIP3    H213588   6.998   3.460   3.371  0.4357  1.3328  1.0886
 4542TIP3   OH213589   1.289   3.856   3.232 -0.2120  0.0067  0.1889
 4542TIP3    H113590   1.217   3.796   3.211  0.9813 -2.7839  3.2775
 4542TIP3    H213591   1.264   3.897   3.315 -0.0280  2.3132 -0.8073
 4543TIP3   OH213592   1.935   5.731   2.850 -0.4714 -0.4933 -0.1159
 4543TIP3    H113593   1.851   5.708   2.810 -0.8521  0.5076  0.0744
 4543TIP3    H213594   1.912   5.777   2.930  0.2759 -0.6738  0.2180
 4544TIP3   OH213595   4.587   0.763   3.277 -0.3851 -0.4643 -0.5263
 4544TIP3    H113596   4.609   0.795   3.189  0.9493  1.5524  0.4550
 4544TIP3    H213597   4.628   0.678   3.283 -1.1179 -0.9731 -2.0825
 4545TIP3   OH213598   4.373   2.070   1.370  0.2957  0.1066  0.2871
 4545TIP3    H113599   4.344   2.145   1.318 -0.6386  0.0020  0.6447
 4545TIP3    H213600   4.316   2.071   1.447  0.8059 -0.5089  0.6774
 4546TIP3   OH213601   4.221   4.132   1.268  0.3074 -0.1121  0.2728
 4546TIP3    H113602   4.149   4.193   1.280  0.3008 -0.5336  3.0588
 4546TIP3    H213603   4.185   4.063   1.213 -0.5827  0.9597 -0.5190
 4547TIP3   OH213604   5.926   1.000   4.876  0.3161  0.8833 -0.1347
 4547TIP3    H113605   5.912   0.924   4.932  1.3491  1.0946  0.4213
 4547TIP3    H213606   5.840   1.017   4.837 -0.3266  0.4915  1.0708
 4548TIP3   OH213607   5.737   0.429   0.905  0.0563  0.2985 -0.1584
 4548TIP3    H113608   5.761   0.511   0.948  0.9681 -0.9234  1.8680
 4548TIP3    H213609   5.759   0.442   0.813  0.2110  2.2873  0.1192
 4549TIP3   OH213610   3.609   3.361   0.828  0.5161 -0.0735  0.3399
 4549TIP3    H113611   3.668   3.286   0.836 -0.1445 -0.6780 -0.3052
 4549TIP3    H213612   3.522   3.324   0.841 -0.0599  0.0811 -2.4746
 4550TIP3   OH213613   3.805   0.609   0.625  0.1541  0.2900 -0.4733
 4550TIP3    H113614   3.753   0.591   0.547 -0.1781  0.6404 -0.3298
 4550TIP3    H213615   3.865   0.534   0.631 -2.2289 -1.6127  0.9906
 4551TIP3   OH213616   6.937   3.234   5.903  0.6055  0.4210 -0.2026
 4551TIP3    H113617   6.862   3.185   5.870 -1.1937  0.9718  2.6637
 4551TIP3    H213618   7.012   3.198   5.856 -1.2749 -1.0460 -2.2895
 4552TIP3   OH213619   6.840   1.850   2.229 -0.0815 -0.6671 -0.2404
 4552TIP3    H113620   6.913   1.901   2.264  0.5070 -1.2712 -0.5501
 4552TIP3    H213621   6.763   1.902   2.248  0.4041 -0.1406  0.3426
 4553TIP3   OH213622   2.793   6.090   2.420 -0.5424  0.0385  0.4526
 4553TIP3    H113623   2.741   6.139   2.357  0.3058  1.0119  0.4935
 4553TIP3    H213624   2.758   6.001   2.415 -0.9577  0.2560 -0.8597
 4554TIP3   OH213625   6.674   3.345   5.295 -0.2603 -0.8415  0.1723
 4554TIP3    H113626   6.662   3.377   5.206 -0.4085  2.5818  1.2698
 4554TIP3    H213627   6.763   3.310   5.297  0.1859  0.1530 -1.0767
 4555TIP3   OH213628   2.270   4.795   5.298 -0.3411 -0.0155 -0.1170
 4555TIP3    H113629   2.236   4.873   5.254 -0.5801  1.3813  2.3975
 4555TIP3    H213630   2.365   4.803   5.292 -0.3590 -0.4820 -1.3678
 4556TIP3   OH213631   2.931   3.713   5.652  0.1410 -0.6196  0.0745
 4556TIP3    H113632   2.999   3.772   5.619  0.2115 -0.5935  0.2674
 4556TIP3    H213633   2.912   3.745   5.740 -0.8156 -0.0220 -0.3270
 4557TIP3   OH213634   5.574   0.756   0.959  0.3751 -0.1003  0.3650
 4557TIP3    H113635   5.650   0.703   0.985 -0.4453 -1.1807  0.5996
 4557TIP3    H213636   5.575   0.830   1.019  1.5896  0.2201 -0.0209
 4558TIP3   OH213637   4.207   2.145   0.813 -0.2647  0.1520  0.1346
 4558TIP3    H113638   4.185   2.095   0.735  0.1408 -0.4291  0.3826
 4558TIP3    H213639   4.302   2.133   0.823 -0.4605 -0.5733  1.2453
 4559TIP3   OH213640   3.395   4.993   2.864 -0.1949  0.1818  0.3284
 4559TIP3    H113641   3.313   5.035   2.840  1.0296  1.8216 -1.2899
 4559TIP3    H213642   3.427   4.954   2.783 -0.2590 -2.2080  1.3483
 4560TIP3   OH213643   3.791   3.110   2.623 -0.0437 -0.1165 -0.0153
 4560TIP3    H113644   3.746   3.026   2.632 -0.5495  0.1522  0.0057
 4560TIP3    H213645   3.746   3.155   2.552  2.0628 -1.0163 -2.0302
 4561TIP3   OH213646   6.195   4.520   0.524  0.2563 -0.1677  0.2149
 4561TIP3    H113647   6.158   4.608   0.518  0.2254 -0.2426 -1.0003
 4561TIP3    H213648   6.239   4.507   0.440 -0.6811 -1.7192 -0.0759
 4562TIP3   OH213649   4.910   5.486   3.652 -0.3985 -0.0858  0.0539
 4562TIP3    H113650   4.949   5.558   3.701  0.0577 -0.1417 -0.2249
 4562TIP3    H213651   4.820   5.516   3.634 -0.1000  0.5758 -0.3873
 4563TIP3   OH213652   4.247   3.790   5.757  0.1006  0.3207 -0.2420
 4563TIP3    H113653   4.233   3.758   5.669 -1.6183  1.6276 -0.4953
 4563TIP3    H213654   4.178   3.750   5.809  0.1962  0.7203  0.1992
 4564TIP3   OH213655   1.216   0.311   4.804 -0.2778 -0.7151  0.2522
 4564TIP3    H113656   1.189   0.327   4.894  2.7684  1.1921  0.9603
 4564TIP3    H213657   1.291   0.252   4.811 -0.8030 -1.6085 -1.1703
 4565TIP3   OH213658   6.403   5.309   1.436  0.6433  0.1671 -0.1277
 4565TIP3    H113659   6.377   5.294   1.345  0.9208 -0.6383 -0.0866
 4565TIP3    H213660   6.464   5.382   1.432 -1.1088  1.6961 -0.2925
 4566TIP3   OH213661   0.356   5.546   4.926  0.0524  0.1582  0.2950
 4566TIP3    H113662   0.438   5.536   4.974  0.8803  1.7381 -0.7179
 4566TIP3    H213663   0.380   5.592   4.846 -2.0220  2.0578  0.6575
 4567TIP3   OH213664   3.846   6.210   2.667 -0.1439 -0.5551  0.2680
 4567TIP3    H113665   3.903   6.234   2.741  2.0710  0.0113 -1.5104
 4567TIP3    H213666   3.893   6.140   2.623 -0.4039  0.4380 -1.6820
 4568TIP3   OH213667   6.973   0.772   3.106  0.3306  0.5363  0.0225
 4568TIP3    H113668   7.002   0.862   3.122  0.9325  0.6361 -1.4479
 4568TIP3    H213669   6.900   0.781   3.045  0.0937  0.0493  0.2328
 4569TIP3   OH213670   0.150   2.330   3.459 -0.6494  0.1604  0.2522
 4569TIP3    H113671   0.141   2.265   3.390  1.7261  0.3807 -0.3446
 4569TIP3    H213672   0.105   2.291   3.534  3.0857 -3.7496  0.9005
 4570TIP3   OH213673   2.743   3.493   4.689  0.9418  0.1742  0.0229
 4570TIP3    H113674   2.683   3.531   4.752  1.3590  0.4601  0.2548
 4570TIP3    H213675   2.789   3.568   4.651 -0.5778  0.1879 -1.9787
 4571TIP3   OH213676   1.671   1.993   5.366 -0.6587 -0.4494  0.1303
 4571TIP3    H113677   1.593   2.047   5.378 -0.9949 -1.1230  1.1050
 4571TIP3    H213678   1.639   1.915   5.321 -0.3464 -0.2831 -0.3955
 4572TIP3   OH213679   1.525   0.243   4.528 -0.2349 -0.1557 -0.3262
 4572TIP3    H113680   1.578   0.211   4.601 -1.8044  0.0919  0.9775
 4572TIP3    H213681   1.457   0.176   4.517 -1.1948  0.7651 -0.1928
 4573TIP3   OH213682   2.349   2.528   2.812 -0.2991 -0.4204 -0.3247
 4573TIP3    H113683   2.402   2.567   2.881 -0.4388 -0.5535 -0.1408
 4573TIP3    H213684   2.276   2.487   2.858  0.6066 -2.1627 -0.3757
 4574TIP3   OH213685   1.210   1.934   1.390 -0.0613  0.1816 -0.1606
 4574TIP3    H113686   1.275   1.910   1.323 -0.8737  0.0540 -0.9182
 4574TIP3    H213687   1.186   1.851   1.431  0.0101  0.1915 -0.0973
 4575TIP3   OH213688   3.266   0.651   5.528 -0.0382  0.2564  0.0321
 4575TIP3    H113689   3.197   0.664   5.464  0.1851  0.0262 -0.2583
 4575TIP3    H213690   3.338   0.613   5.478  1.5022  3.3880 -0.3593
 4576TIP3   OH213691   6.137   0.029   0.527  0.3317 -0.1684  0.2926
 4576TIP3    H113692   6.204  -0.038   0.511 -0.8718 -2.0671  2.5707
 4576TIP3    H213693   6.158   0.063   0.614  0.0465  1.4172 -0.2273
 4577TIP3   OH213694   2.559   4.384   1.532 -0.0227  0.9227  0.2661
 4577TIP3    H113695   2.466   4.405   1.541 -0.3872 -1.2014  2.2085
 4577TIP3    H213696   2.560   4.292   1.508  1.5853  0.9577  0.1478
 4578TIP3   OH213697   5.381   3.868   3.601 -0.5339 -0.1131 -0.2595
 4578TIP3    H113698   5.291   3.841   3.618 -0.5349 -0.8360 -1.3700
 4578TIP3    H213699   5.418   3.799   3.546  0.7331  0.1296  0.2307
 4579TIP3   OH213700   0.512   2.613   2.083  0.1675 -0.0040  0.1613
 4579TIP3    H113701   0.548   2.659   2.007 -2.8754  0.6663 -1.0335
 4579TIP3    H213702   0.545   2.661   2.159  1.6526  0.5680 -0.8019
 4580TIP3   OH213703   5.951   6.484   5.525  0.3341  0.0094  0.1508
 4580TIP3    H113704   5.976   6.547   5.458  0.9521 -2.8174 -2.4783
 4580TIP3    H213705   5.899   6.418   5.479  2.8524 -3.4098  1.7989
 4581TIP3   OH213706   2.213   0.272   4.558 -0.3953  0.0980 -0.1728
 4581TIP3    H113707   2.264   0.269   4.477 -1.6985 -2.5552 -1.0131
 4581TIP3    H213708   2.255   0.208   4.615 -0.1093  1.2069  0.8925
 4582TIP3   OH213709   0.526   1.204   3.917  0.7353 -0.0274  0.0520
 4582TIP3    H113710   0.520   1.254   3.999  0.8722 -0.8124  0.5494
 4582TIP3    H213711   0.443   1.222   3.872  1.2248  1.5267 -0.3098
 4583TIP3   OH213712   5.985   5.662   0.519 -0.1777  0.0475 -0.2100
 4583TIP3    H113713   5.996   5.662   0.614  0.0451 -0.8468 -0.2223
 4583TIP3    H213714   5.943   5.578   0.501  0.5021 -0.1348 -0.9780
 4584TIP3   OH213715   3.306   5.424   3.349 -0.3232  1.2462 -0.0731
 4584TIP3    H113716   3.241   5.488   3.319  1.3005  2.2506 -1.6824
 4584TIP3    H213717   3.386   5.448   3.302  1.2207  0.0388  1.7869
 4585TIP3   OH213718   6.245   0.800   4.983  0.1409 -0.6484  0.2782
 4585TIP3    H113719   6.261   0.872   4.921  0.0255 -0.5189  0.3987
 4585TIP3    H213720   6.217   0.843   5.063 -2.9718 -0.9170 -0.5404
 4586TIP3   OH213721   0.277   1.648   2.842 -0.0892  0.3278 -0.7567
 4586TIP3    H113722   0.320   1.707   2.903 -0.9559  0.1073  0.0985
 4586TIP3    H213723   0.216   1.703   2.793  1.1243  0.6432 -1.9788
 4587TIP3   OH213724   2.129   6.430   2.118  0.0935  0.2973 -0.2318
 4587TIP3    H113725   2.044   6.473   2.126  0.5070  1.1924 -0.4971
 4587TIP3    H213726   2.164   6.462   2.035  1.1479  0.7865  0.3825
 4588TIP3   OH213727   4.586   3.873   3.017  0.0174 -0.0439  0.1143
 4588TIP3    H113728   4.520   3.885   3.085 -2.8626 -0.4810 -2.4131
 4588TIP3    H213729   4.616   3.783   3.028 -0.1600 -0.0080  0.9596
 4589TIP3   OH213730   1.086   1.567   4.487 -0.8665 -0.1873 -0.1939
 4589TIP3    H113731   1.135   1.631   4.434 -2.2750  0.7663 -0.3993
 4589TIP3    H213732   1.093   1.485   4.438  0.6043 -0.1149 -0.1548
 4590TIP3   OH213733   3.250   4.517   3.957  0.1105 -0.1878 -0.3629
 4590TIP3    H113734   3.284   4.604   3.979 -1.5111  0.8736 -1.7075
 4590TIP3    H213735   3.310   4.456   3.999  0.7585  1.5757  1.4553
 4591TIP3   OH213736   5.013   4.919   4.750  0.3639  0.0203 -0.1799
 4591TIP3    H113737   4.981   4.891   4.836  2.5000 -0.7522  0.4416
 4591TIP3    H213738   5.022   5.014   4.757  1.3969 -0.1276  0.8243
 4592TIP3   OH213739   0.630   1.891   5.565 -0.8625  0.4581  0.3369
 4592TIP3    H113740   0.594   1.892   5.654 -0.1648  0.3369  0.6283
 4592TIP3    H213741   0.620   1.800   5.536  0.9899 -0.0800  1.1876
 4593TIP3   OH213742   4.276   6.057   0.908  0.2485 -0.0812  0.4109
 4593TIP3    H113743   4.281   5.962   0.917  1.4468  0.0886  1.9864
 4593TIP3    H213744   4.195   6.073   0.859  1.1421 -1.9882 -1.8401
 4594TIP3   OH213745   1.128   2.624   3.472  0.0178 -0.2016  0.0279
 4594TIP3    H113746   1.044   2.612   3.428 -0.4200 -1.0449  1.0436
 4594TIP3    H213747   1.107   2.680   3.547  0.7090  1.0272 -0.6594
 4595TIP3   OH213748   0.510   5.675   4.233  0.0482 -0.2776 -0.0666
 4595TIP3    H113749   0.459   5.684   4.314  0.2946 -0.6582  0.1312
 4595TIP3    H213750   0.517   5.581   4.219  0.0749 -0.2143 -0.4916
 4596TIP3   OH213751   6.625   2.546   4.304 -0.4175  0.7975 -0.1246
 4596TIP3    H113752   6.683   2.483   4.262  0.0345  1.0410  0.1303
 4596TIP3    H213753   6.681   2.621   4.324 -0.8553  1.1056 -0.0322
 4597TIP3   OH213754   0.445   6.251   5.247  0.0655  0.4600 -0.0405
 4597TIP3    H113755   0.525   6.204   5.272 -0.6694 -0.0640  1.5129
 4597TIP3    H213756   0.386   6.182   5.217  1.2727  1.1542 -4.6906
 4598TIP3   OH213757   5.789   2.025   5.424  0.5490 -0.3581  0.1060
 4598TIP3    H113758   5.868   2.080   5.427 -0.6375  1.3895  1.0298
 4598TIP3    H213759   5.733   2.067   5.358  0.1845 -1.3045 -0.1999
 4599TIP3   OH213760   3.916   0.130   5.043 -0.3535 -0.2547 -0.1169
 4599TIP3    H113761   3.990   0.189   5.032  0.5736 -1.2046  0.7936
 4599TIP3    H213762   3.866   0.167   5.116 -0.7066  0.2831 -0.6130
 4600TIP3   OH213763   3.153   4.224   4.091 -0.0460  0.3486  0.4947
 4600TIP3    H113764   3.062   4.240   4.068  0.7277  0.1504 -3.3986
 4600TIP3    H213765   3.176   4.296   4.150 -2.0960  1.7811 -0.3414
 4601TIP3   OH213766   2.195   2.820   3.264  0.2552  0.6514  0.4232
 4601TIP3    H113767   2.212   2.904   3.222 -1.9180  1.0603  0.2050
 4601TIP3    H213768   2.166   2.843   3.352 -3.8204  0.5822 -0.6507
 4602TIP3   OH213769   6.987   2.856   0.750 -0.1048 -0.1089  0.1782
 4602TIP3    H113770   6.958   2.767   0.769 -0.2826 -0.0520  0.1723
 4602TIP3    H213771   7.000   2.896   0.836 -1.4404  0.3236  0.2025
 4603TIP3   OH213772   5.743   6.710   1.815 -0.4197  0.0750  0.2460
 4603TIP3    H113773   5.703   6.623   1.823 -0.8162  0.0078 -1.8659
 4603TIP3    H213774   5.810   6.712   1.884 -0.9213 -1.6051  0.8354
 4604TIP3   OH213775   6.472   5.736   2.416  0.4758  0.1962  0.3793
 4604TIP3    H113776   6.560   5.699   2.416  0.1868 -0.5115  0.5316
 4604TIP3    H213777   6.419   5.671   2.461 -0.0509  0.8036  0.6534
 4605TIP3   OH213778   1.632   6.437   4.866 -0.1190 -0.1543  0.1049
 4605TIP3    H113779   1.696   6.435   4.937  0.5534 -0.6587 -0.5111
 4605TIP3    H213780   1.684   6.455   4.787 -0.6380 -1.1870 -0.4926
 4606TIP3   OH213781   2.604   0.237   4.679  0.1074 -0.5976  0.1099
 4606TIP3    H113782   2.646   0.228   4.764 -1.1894 -0.1070  0.8091
 4606TIP3    H213783   2.517   0.200   4.690 -0.3935  0.2794 -0.7496
 4607TIP3   OH213784   2.352   6.279   3.623 -0.2470  0.0368 -0.8421
 4607TIP3    H113785   2.438   6.321   3.621  0.1099 -0.6860 -1.0288
 4607TIP3    H213786   2.301   6.326   3.556 -0.7331  1.9540  0.7601
 4608TIP3   OH213787   7.118   4.712   2.772  0.0880 -0.5001 -0.1873
 4608TIP3    H113788   7.149   4.803   2.773 -1.3846  0.0428 -0.8602
 4608TIP3    H213789   7.164   4.672   2.699  0.4046 -0.1725 -0.1718
 4609TIP3   OH213790   2.148   2.180   2.733  0.1470  0.5176 -0.8130
 4609TIP3    H113791   2.196   2.262   2.719  0.6755  0.5057  0.6883
 4609TIP3    H213792   2.067   2.190   2.684 -0.1496  2.2871 -0.0383
 4610TIP3   OH213793   0.634   3.860   4.262  0.3086  0.2135 -0.3459
 4610TIP3    H113794   0.700   3.816   4.208  1.9165 -0.5120  2.0645
 4610TIP3    H213795   0.551   3.822   4.233  1.3063 -1.6636 -0.9193
 4611TIP3   OH213796   1.878   5.077   0.023 -0.3859  0.3801 -0.1106
 4611TIP3    H113797   1.784   5.062   0.036 -0.1572 -0.0729  1.2468
 4611TIP3    H213798   1.918   4.991   0.039  0.3490  0.8350  0.5800
 4612TIP3   OH213799   5.910   4.110   0.797  0.8553  0.1995 -0.0681
 4612TIP3    H113800   5.899   4.192   0.844 -0.2009  0.7763 -1.2726
 4612TIP3    H213801   5.847   4.114   0.725  1.9971 -0.9086 -1.1894
 4613TIP3   OH213802   5.475   5.040   1.995  0.3560 -0.4817  0.5360
 4613TIP3    H113803   5.472   4.964   2.054 -1.6142  0.0778  1.2348
 4613TIP3    H213804   5.392   5.036   1.947  1.6500 -0.5776 -1.8266
 4614TIP3   OH213805   4.561   3.463   3.569  0.0970 -0.0317  0.3274
 4614TIP3    H113806   4.465   3.457   3.574  0.0275  0.5425 -0.1940
 4614TIP3    H213807   4.579   3.556   3.578  0.5300 -0.0070 -0.7005
 4615TIP3   OH213808   0.947   2.420   2.796  0.1603 -0.0726 -0.0601
 4615TIP3    H113809   0.957   2.502   2.844  0.2112  0.6862 -1.3085
 4615TIP3    H213810   1.020   2.366   2.825 -0.0160  0.2270  0.9595
 4616TIP3   OH213811   3.249   4.734   4.282 -0.4710  0.2292 -0.4630
 4616TIP3    H113812   3.230   4.824   4.311 -2.6577 -0.1987 -0.4415
 4616TIP3    H213813   3.319   4.745   4.217 -0.1057  1.8587  0.1484
 4617TIP3   OH213814   2.108   3.447   5.268 -0.0646  0.3226  0.4974
 4617TIP3    H113815   2.051   3.466   5.194  0.5376 -0.8776 -0.2962
 4617TIP3    H213816   2.110   3.352   5.274 -0.3546  0.3850  2.2717
 4618TIP3   OH213817   4.797   2.765   1.513 -0.1054  0.1873  0.3809
 4618TIP3    H113818   4.711   2.746   1.549  0.7220  0.5612  2.7405
 4618TIP3    H213819   4.823   2.685   1.467 -3.2406  1.3112 -3.9766
 4619TIP3   OH213820   3.776   1.133   3.097 -0.0957 -0.7229 -0.8145
 4619TIP3    H113821   3.758   1.080   3.019 -1.5695  0.9745 -1.7040
 4619TIP3    H213822   3.868   1.159   3.088 -0.3744 -0.1510 -2.2720
 4620TIP3   OH213823   6.000   5.539   5.767  0.0804  0.3051 -0.1873
 4620TIP3    H113824   5.939   5.560   5.837  0.1649  1.8551 -0.5327
 4620TIP3    H213825   6.067   5.608   5.772  0.6696 -0.1821 -1.1030
 4621TIP3   OH213826   3.705   2.058   3.845  0.6897 -0.2076 -0.0039
 4621TIP3    H113827   3.772   2.045   3.912  0.0062  1.0313  0.9630
 4621TIP3    H213828   3.753   2.095   3.771  1.4039 -1.3113 -0.1150
 4622TIP3   OH213829   2.031   3.618   3.938  0.0105  0.2622  0.3524
 4622TIP3    H113830   1.980   3.631   4.018 -0.7424  0.4953 -0.1482
 4622TIP3    H213831   2.060   3.706   3.914  0.6052  0.1374  0.6015
 4623TIP3   OH213832   4.836   0.730   4.548 -0.1992  0.4894  0.3345
 4623TIP3    H113833   4.826   0.816   4.587 -0.8796  0.4753  0.2072
 4623TIP3    H213834   4.793   0.670   4.610  0.9661  0.1234  0.8248
 4624TIP3   OH213835   6.531   0.836   0.713 -0.1199  0.0248  0.2159
 4624TIP3    H113836   6.542   0.828   0.618  1.1229  1.6667  0.1784
 4624TIP3    H213837   6.580   0.762   0.749 -1.4153 -1.1904 -0.4120
 4625TIP3   OH213838   5.994   5.503   1.271  0.1886 -0.2460 -0.6546
 4625TIP3    H113839   6.066   5.448   1.301 -1.4363 -1.9602  0.3280
 4625TIP3    H213840   5.922   5.483   1.332 -0.9616  1.7851 -1.2660
 4626TIP3   OH213841   1.586   4.558   4.812  0.2753  0.1594  0.0328
 4626TIP3    H113842   1.500   4.521   4.831  0.8970 -1.1598  0.4163
 4626TIP3    H213843   1.592   4.558   4.716 -0.6229  1.4710 -0.0589
 4627TIP3   OH213844   4.525   4.098   2.032 -0.0393  0.1656 -0.0110
 4627TIP3    H113845   4.551   4.125   2.121  3.4742  1.9722 -1.3709
 4627TIP3    H213846   4.535   4.003   2.032  0.1075  0.1558  1.4836
 4628TIP3   OH213847   3.074   3.584   0.109  0.1366 -0.0101  0.0856
 4628TIP3    H113848   3.093   3.640   0.184 -0.3414  0.5490 -0.2042
 4628TIP3    H213849   3.081   3.642   0.034  1.9599 -0.8383 -0.4661
 4629TIP3   OH213850   4.193   6.315   2.471 -0.7058 -0.1356  0.2296
 4629TIP3    H113851   4.124   6.318   2.537 -1.6247 -0.3709 -0.6967
 4629TIP3    H213852   4.155   6.265   2.398  1.1414 -2.0146  0.4815
 4630TIP3   OH213853   3.902   4.196   4.659 -0.7751 -0.5425  0.0978
 4630TIP3    H113854   3.880   4.259   4.591 -0.8588  0.0050  0.6297
 4630TIP3    H213855   3.980   4.151   4.626 -1.8058 -1.4910 -1.1480
 4631TIP3   OH213856   1.607   5.953   4.303  0.3642 -0.0990 -0.0411
 4631TIP3    H113857   1.664   5.880   4.279  2.3613  0.9199  1.3742
 4631TIP3    H213858   1.587   5.996   4.219  2.1695 -0.1564 -0.5352
 4632TIP3   OH213859   6.395   0.741   1.490 -0.3669 -0.3369 -0.0576
 4632TIP3    H113860   6.478   0.743   1.441 -1.2074 -1.7851 -1.6204
 4632TIP3    H213861   6.403   0.664   1.546 -0.0278  0.4558  1.0157
 4633TIP3   OH213862   6.932   3.602   1.862  0.3309  0.4954 -0.4001
 4633TIP3    H113863   6.859   3.547   1.835  0.2492 -0.2792  1.2508
 4633TIP3    H213864   6.893   3.669   1.917  0.9160 -0.5663  1.4072
 4634TIP3   OH213865   4.295   1.906   2.947 -0.5461  0.1253  0.6383
 4634TIP3    H113866   4.214   1.875   2.906 -1.0310  0.9898  0.9111
 4634TIP3    H213867   4.353   1.929   2.874 -0.7533  0.0267  0.4421
 4635TIP3   OH213868   4.861   0.307   3.817 -0.7003 -0.2388 -0.4731
 4635TIP3    H113869   4.907   0.246   3.874  0.5920  0.9518 -0.1965
 4635TIP3    H213870   4.831   0.253   3.744 -1.6101 -1.6308  0.8535
 4636TIP3   OH213871   1.059   3.181   3.595  0.4404 -0.1096 -0.8567
 4636TIP3    H113872   1.135   3.237   3.581  1.0003 -0.7461 -0.3989
 4636TIP3    H213873   1.051   3.129   3.516  1.6183 -1.3627 -0.1879
 4637TIP3   OH213874   1.846   2.203   5.378 -0.3304  0.1445 -0.3335
 4637TIP3    H113875   1.794   2.125   5.360  1.0323 -1.0769  0.7135
 4637TIP3    H213876   1.903   2.177   5.450  2.1551  1.1770 -1.7935
 4638TIP3   OH213877   4.157   2.358   4.779  0.3037 -0.1200 -0.3935
 4638TIP3    H113878   4.204   2.320   4.854  0.4219  0.8007  0.0114
 4638TIP3    H213879   4.226   2.383   4.717  0.4408  1.8001  0.4655
 4639TIP3   OH213880   6.964   6.158   5.845 -0.2653  0.1924 -0.0352
 4639TIP3    H113881   6.904   6.124   5.910 -0.7471 -0.6441 -0.8894
 4639TIP3    H213882   7.004   6.081   5.805  0.1756  0.6841 -0.5776
 4640TIP3   OH213883   0.793   5.107   0.483 -0.0299  0.2878 -0.2607
 4640TIP3    H113884   0.816   5.028   0.532 -0.7794 -0.7563 -1.5355
 4640TIP3    H213885   0.864   5.116   0.419  0.2316  0.8683  0.0990
 4641TIP3   OH213886   5.268   3.796   4.277 -0.1401 -0.1033  0.3777
 4641TIP3    H113887   5.279   3.868   4.340  0.5677  1.4449 -1.4053
 4641TIP3    H213888   5.349   3.746   4.283  1.6070  2.1612 -1.7023
 4642TIP3   OH213889   4.782   0.222   2.440  0.1986 -0.5882  0.1474
 4642TIP3    H113890   4.705   0.204   2.494 -0.3825 -1.8677 -1.0329
 4642TIP3    H213891   4.855   0.226   2.503 -0.6624 -0.5155  1.1667
 4643TIP3   OH213892   5.600   4.039   1.112 -0.1104  0.5135  0.1550
 4643TIP3    H113893   5.584   3.945   1.105  1.2793  0.2056  0.7202
 4643TIP3    H213894   5.561   4.076   1.033  1.5978 -0.8621 -1.4304
 4644TIP3   OH213895   3.589   1.767   1.482 -0.8230 -0.2282  0.4280
 4644TIP3    H113896   3.614   1.740   1.570  0.1516  1.1902  0.6191
 4644TIP3    H213897   3.662   1.821   1.451 -1.1704 -0.6455 -1.2334
 4645TIP3   OH213898   1.179   0.175   2.763 -0.2747  0.1074  0.3978
 4645TIP3    H113899   1.178   0.271   2.761 -0.3207  0.0949 -0.6833
 4645TIP3    H213900   1.226   0.154   2.843 -1.1983  1.0221  1.2061
 4646TIP3   OH213901   1.609   0.829   2.210  0.0459 -0.0141 -0.0747
 4646TIP3    H113902   1.516   0.818   2.193 -0.0018  2.3315 -1.8364
 4646TIP3    H213903   1.652   0.793   2.132  0.4331  1.3623 -0.5183
 4647TIP3   OH213904   4.259   0.618   0.404 -0.4132 -0.2059 -0.3440
 4647TIP3    H113905   4.314   0.696   0.410 -1.0352  0.2000  0.0754
 4647TIP3    H213906   4.195   0.627   0.474 -0.0024 -1.4888  0.2353
 4648TIP3   OH213907   0.021   5.660   1.495  0.0425 -0.2926 -0.0223
 4648TIP3    H113908   0.065   5.629   1.574 -4.2593 -0.3282  2.7027
 4648TIP3    H213909   0.010   5.581   1.441  1.6449 -0.5690 -0.0020
 4649TIP3   OH213910   4.046   2.334   2.150  0.2216 -0.3223 -0.0009
 4649TIP3    H113911   4.030   2.239   2.146  0.9708 -0.5126  1.2294
 4649TIP3    H213912   4.052   2.360   2.058 -0.7850 -1.3157 -0.3833
 4650TIP3   OH213913   7.029   5.587   0.126 -0.1525  0.0309  0.0372
 4650TIP3    H113914   7.028   5.644   0.202  0.8214 -1.4131  1.2017
 4650TIP3    H213915   6.938   5.560   0.114 -0.9955  3.1832 -1.7080
 4651TIP3   OH213916   3.127   2.633   0.160 -0.0926 -0.5980 -0.3150
 4651TIP3    H113917   3.220   2.654   0.174 -0.7944  0.8689  3.6102
 4651TIP3    H213918   3.115   2.549   0.203 -0.7597 -0.1870  0.3352
 4652TIP3   OH213919   0.527   4.233   5.471  0.1515  0.0704 -0.0876
 4652TIP3    H113920   0.458   4.185   5.426 -0.1702  0.1930  0.2711
 4652TIP3    H213921   0.589   4.257   5.401 -0.9034  1.2180 -0.6596
 4653TIP3   OH213922   3.165   3.048   4.657 -0.2761  0.0657  0.0528
 4653TIP3    H113923   3.183   3.142   4.659  0.0465  0.0032  0.2119
 4653TIP3    H213924   3.241   3.011   4.612 -0.2176 -0.1613  0.3418
 4654TIP3   OH213925   1.704   0.137   4.692 -0.1889  0.1244 -0.4329
 4654TIP3    H113926   1.734   0.155   4.780  0.2889 -0.6010 -0.4382
 4654TIP3    H213927   1.784   0.120   4.642 -0.4631  0.3750 -0.9693
 4655TIP3   OH213928   5.649   2.885   1.627  0.0722  0.2494  1.0970
 4655TIP3    H113929   5.695   2.815   1.579  1.1913  2.4482 -1.2928
 4655TIP3    H213930   5.594   2.927   1.560 -2.9352 -0.1106  3.1242
 4656TIP3   OH213931   3.306   2.523   4.261 -0.6118  0.4526 -0.0989
 4656TIP3    H113932   3.242   2.563   4.319 -0.8478 -0.8175  0.5591
 4656TIP3    H213933   3.297   2.429   4.276  1.6049  0.2310  0.2554
 4657TIP3   OH213934   5.404   3.101   5.003  0.0856  0.1506  0.0918
 4657TIP3    H113935   5.337   3.045   4.962 -0.1555  0.4268  0.1032
 4657TIP3    H213936   5.479   3.043   5.014 -0.5040 -0.4558  1.0623
 4658TIP3   OH213937   3.002   3.836   0.269  0.3156  0.0573 -0.8890
 4658TIP3    H113938   2.968   3.834   0.358 -2.1180 -1.0653 -1.7470
 4658TIP3    H213939   3.097   3.834   0.279  0.1433  0.9521  1.6674
 4659TIP3   OH213940   3.862   4.531   4.746  0.3375  0.0086  0.0208
 4659TIP3    H113941   3.864   4.524   4.651 -0.9302  2.2172 -0.2330
 4659TIP3    H213942   3.947   4.497   4.774  1.3896  0.7882 -2.0341
 4660TIP3   OH213943   1.811   2.620   0.691 -0.1437 -0.1110 -0.1958
 4660TIP3    H113944   1.784   2.654   0.605 -0.5342  0.6351  0.2159
 4660TIP3    H213945   1.729   2.614   0.741  0.3686  2.1218  1.0505
 4661TIP3   OH213946   2.480   2.059   1.251  0.2334 -0.2745  0.3191
 4661TIP3    H113947   2.563   2.066   1.298 -1.0723 -1.7382  3.1130
 4661TIP3    H213948   2.416   2.096   1.311 -1.3564 -0.6563 -1.0802
 4662TIP3   OH213949   1.000   0.245   3.090 -0.0660 -0.2866 -0.0066
 4662TIP3    H113950   0.971   0.196   3.166 -3.4736  0.0524 -0.9276
 4662TIP3    H213951   1.069   0.302   3.124 -0.9813 -0.6170  2.6841
 4663TIP3   OH213952   1.771   4.056   1.269 -0.1930  0.0519 -0.4318
 4663TIP3    H113953   1.855   4.092   1.300 -0.2975 -1.5796  2.0042
 4663TIP3    H213954   1.796   3.989   1.206  0.3081  0.1382 -0.3342
 4664TIP3   OH213955   5.635   2.201   5.029  0.3133 -0.1425  0.0421
 4664TIP3    H113956   5.658   2.279   5.079 -0.0618  0.2215 -0.3417
 4664TIP3    H213957   5.703   2.137   5.050  0.9020  0.4571 -0.0379
 4665TIP3   OH213958   1.622   2.877   0.883 -0.1407 -0.3695  0.0088
 4665TIP3    H113959   1.579   2.795   0.858  1.0294 -1.2279  0.7364
 4665TIP3    H213960   1.576   2.905   0.962 -0.3291 -0.4901 -0.0576
 4666TIP3   OH213961   0.741   0.879   0.147 -0.1806  0.1467 -0.0379
 4666TIP3    H113962   0.823   0.897   0.102  0.5024 -3.4885 -0.5770
 4666TIP3    H213963   0.767   0.835   0.228 -1.4779 -2.6126 -0.9885
 4667TIP3   OH213964   0.042   3.579   1.242  0.3540 -0.3478  0.4123
 4667TIP3    H113965   0.043   3.604   1.334 -1.1279 -0.4838  0.4912
 4667TIP3    H213966   0.092   3.647   1.198  1.9501 -0.8161  1.4219
 4668TIP3   OH213967   4.584   1.406   5.279 -0.6111 -0.0054  0.4355
 4668TIP3    H113968   4.520   1.370   5.217  0.6619  0.2193 -1.0756
 4668TIP3    H213969   4.534   1.420   5.360 -2.4528  0.1541 -0.6734
 4669TIP3   OH213970   6.622   5.221   0.984 -0.2914  0.0415  0.1284
 4669TIP3    H113971   6.708   5.187   0.958 -0.4502  0.5034 -1.0756
 4669TIP3    H213972   6.628   5.315   0.968 -1.3582 -0.0631 -0.9975
 4670TIP3   OH213973   5.671   6.455   0.782 -0.2223 -0.6446  0.2576
 4670TIP3    H113974   5.702   6.537   0.742 -0.5540 -1.2022 -1.1784
 4670TIP3    H213975   5.623   6.484   0.860 -0.6099  0.5620 -0.4006
 4671TIP3   OH213976   2.998   3.725   1.884 -0.2864 -0.6977 -0.3555
 4671TIP3    H113977   3.087   3.709   1.915  0.3864  0.4827 -1.5561
 4671TIP3    H213978   2.942   3.686   1.951  1.1158 -0.8657  0.7760
 4672TIP3   OH213979   4.180   3.973   1.860  0.1268 -0.1263 -0.3918
 4672TIP3    H113980   4.224   3.896   1.895  1.2255  0.3108 -0.7745
 4672TIP3    H213981   4.184   4.037   1.932  0.9876  0.2364 -0.7470
 4673TIP3   OH213982   1.972   5.927   2.643  0.6964  0.3677  0.0387
 4673TIP3    H113983   1.959   5.862   2.711  0.5249 -1.2080 -1.4298
 4673TIP3    H213984   2.058   5.908   2.606 -0.4903 -0.9631 -2.2887
 4674TIP3   OH213985   2.087   1.437   1.849 -0.7445  0.4476  0.5899
 4674TIP3    H113986   2.145   1.513   1.858 -0.8469  0.5763  0.1621
 4674TIP3    H213987   2.018   1.467   1.790 -0.1015 -0.3889 -0.6113
 4675TIP3   OH213988   0.142   2.638   0.300  0.1483  0.3611 -0.6722
 4675TIP3    H113989   0.126   2.547   0.326 -1.9270  0.7641 -0.4110
 4675TIP3    H213990   0.085   2.651   0.224  0.0544  1.5833 -0.4030
 4676TIP3   OH213991   2.926   0.436   5.231  0.4082  0.1800 -0.4625
 4676TIP3    H113992   2.902   0.383   5.156 -0.7798 -1.1123  0.7714
 4676TIP3    H213993   2.858   0.504   5.236 -0.0140 -0.2651 -0.0631
 4677TIP3   OH213994   3.835   0.368   4.566 -0.2049  0.4715 -0.3435
 4677TIP3    H113995   3.863   0.380   4.657  0.0603 -1.9611 -0.0488
 4677TIP3    H213996   3.863   0.449   4.522  0.0639  1.5116  1.6154
 4678TIP3   OH213997   0.411   3.300   3.970  0.2071 -0.5327 -0.2688
 4678TIP3    H113998   0.337   3.357   3.990  0.6317  0.3256 -1.0808
 4678TIP3    H213999   0.379   3.243   3.900  0.6754  0.7031 -1.5485
 4679TIP3   OH214000   4.540   2.346   5.196 -0.7764  0.6165  0.1666
 4679TIP3    H114001   4.459   2.297   5.211  0.1714 -0.5063  2.0955
 4679TIP3    H214002   4.579   2.353   5.283  1.0469  1.3958 -0.6705
 4680TIP3   OH214003   0.965   4.546   5.456  0.1685  0.5825  0.0557
 4680TIP3    H114004   0.966   4.454   5.483 -0.1849  0.1057 -1.4430
 4680TIP3    H214005   0.875   4.562   5.429 -0.0525  1.7256  1.3609
 4681TIP3   OH214006   4.488   3.102   2.861  0.4221 -0.0125  0.0255
 4681TIP3    H114007   4.406   3.053   2.870 -0.5557  1.3094 -1.2143
 4681TIP3    H214008   4.515   3.121   2.951 -0.4252 -0.7850  0.4623
 4682TIP3   OH214009   4.940   4.122   2.027  0.3017  0.1755  0.6547
 4682TIP3    H114010   4.917   4.123   1.934 -0.1421 -2.3592  0.6576
 4682TIP3    H214011   4.956   4.213   2.049  0.2766  0.8639 -1.8710
 4683TIP3   OH214012   1.700   1.160   1.057 -0.1236  0.4938  0.4004
 4683TIP3    H114013   1.773   1.210   1.021  0.0861  0.6324  1.0143
 4683TIP3    H214014   1.719   1.069   1.034  1.2445  0.2805  2.1996
 4684TIP3   OH214015   0.777   0.458   3.225 -0.1534 -0.0333 -0.0423
 4684TIP3    H114016   0.762   0.387   3.162  0.3318 -1.6562  1.5906
 4684TIP3    H214017   0.694   0.506   3.227 -1.0746 -1.5776  0.0418
 4685TIP3   OH214018   0.874   2.165   3.251 -0.0743 -0.2251  0.0033
 4685TIP3    H114019   0.778   2.176   3.251 -0.1491 -0.7495 -0.9682
 4685TIP3    H214020   0.901   2.195   3.164  0.2952 -2.5955 -0.7818
 4686TIP3   OH214021   1.727   2.668   3.358 -0.6635  0.1331 -0.0712
 4686TIP3    H114022   1.771   2.673   3.443 -0.2143  2.2669 -0.3554
 4686TIP3    H214023   1.638   2.640   3.379 -0.6942  1.0717  1.1937
 4687TIP3   OH214024   2.291   4.739   4.461 -0.2317  0.0713  0.6371
 4687TIP3    H114025   2.254   4.798   4.526  0.5538  0.7894  0.4413
 4687TIP3    H214026   2.365   4.787   4.424 -1.1417  0.0367 -1.3692
 4688TIP3   OH214027   6.304   3.467   1.793  0.4932 -0.3090 -0.6334
 4688TIP3    H114028   6.211   3.457   1.815 -0.3836 -0.3334 -3.8235
 4688TIP3    H214029   6.337   3.378   1.788  0.0231 -0.4333 -1.8121
 4689TIP3   OH214030   4.572   5.375   5.527  0.2746  0.2698  0.4556
 4689TIP3    H114031   4.491   5.333   5.555  0.0091 -0.3606 -1.1526
 4689TIP3    H214032   4.579   5.453   5.581 -1.9526  0.8833 -0.0506
 4690TIP3   OH214033   3.498   6.003   3.088  0.5594 -0.3156 -0.4855
 4690TIP3    H114034   3.454   5.919   3.099  1.2560 -0.4857  1.2867
 4690TIP3    H214035   3.502   6.016   2.993  0.6312 -2.3790 -0.8044
 4691TIP3   OH214036   1.059   5.436   3.071 -0.5123  0.4889 -0.1404
 4691TIP3    H114037   1.075   5.402   2.983  0.8976 -0.6000  0.5010
 4691TIP3    H214038   1.117   5.512   3.078  1.3612 -0.9511  0.7050
 4692TIP3   OH214039   0.052   5.177   3.405 -0.1452  0.0561 -0.1830
 4692TIP3    H114040   0.118   5.240   3.377  0.0541 -0.7414 -1.6223
 4692TIP3    H214041   0.101   5.105   3.444 -0.3216  0.3966  0.6956
 4693TIP3   OH214042   3.925   1.478   1.300  0.1021  0.2410 -0.1731
 4693TIP3    H114043   3.963   1.390   1.304 -0.4001 -0.1239 -2.3147
 4693TIP3    H214044   3.998   1.536   1.322  1.0659 -0.6113 -0.9889
 4694TIP3   OH214045   2.097   3.237   0.279  0.4209 -0.1288 -0.3056
 4694TIP3    H114046   2.138   3.205   0.359 -2.1833  0.3545  1.3294
 4694TIP3    H214047   2.003   3.235   0.297 -0.3812 -1.1126 -3.7968
 4695TIP3   OH214048   1.807   3.572   5.118  0.1014  0.3056  0.1940
 4695TIP3    H114049   1.763   3.566   5.033  1.7434 -0.6998 -0.6514
 4695TIP3    H214050   1.832   3.664   5.126  1.7773  0.0626 -1.4792
 4696TIP3   OH214051   3.269   1.291   2.195 -0.4060 -0.2357 -0.4873
 4696TIP3    H114052   3.184   1.279   2.154 -1.3634  0.4844  1.1694
 4696TIP3    H214053   3.322   1.336   2.129 -1.5396 -0.0458 -1.2958
 4697TIP3   OH214054   5.012   5.853   5.826  0.3479  0.0938 -0.4977
 4697TIP3    H114055   5.104   5.833   5.807  0.0707 -1.0579 -0.7082
 4697TIP3    H214056   4.964   5.824   5.749 -0.5068 -2.2319  0.7857
 4698TIP3   OH214057   3.337   2.530   5.753  0.5792 -0.4599 -0.2972
 4698TIP3    H114058   3.261   2.510   5.808  1.2296 -2.8294 -0.1491
 4698TIP3    H214059   3.300   2.554   5.668 -0.4175  2.5005  0.8388
 4699TIP3   OH214060   3.810   3.881   2.242 -0.7434 -0.2941 -0.2376
 4699TIP3    H114061   3.899   3.873   2.276 -0.8074 -0.9741 -0.2031
 4699TIP3    H214062   3.796   3.975   2.233  0.3351 -0.2106 -1.2022
 4700TIP3   OH214063   0.370   1.811   4.694  0.6365  0.4209 -0.0412
 4700TIP3    H114064   0.299   1.748   4.685  0.3953  0.4025  1.6906
 4700TIP3    H214065   0.414   1.810   4.608 -1.2834  0.2814 -1.0828
 4701TIP3   OH214066   7.095   4.175   3.448  0.3306 -0.7641  0.0542
 4701TIP3    H114067   7.117   4.108   3.384  0.8354 -0.2814 -0.2833
 4701TIP3    H214068   7.001   4.190   3.436  0.6322  0.1413 -1.3829
 4702TIP3   OH214069   0.726   1.549   5.814 -0.1554  0.7967 -0.8561
 4702TIP3    H114070   0.658   1.563   5.749 -0.4691 -1.8321 -1.2120
 4702TIP3    H214071   0.808   1.549   5.765  0.2546  4.0285 -0.4194
 4703TIP3   OH214072   4.666   0.695   2.489  0.3916 -0.0895  0.4033
 4703TIP3    H114073   4.719   0.616   2.483  0.1364 -0.3321  1.3011
 4703TIP3    H214074   4.629   0.694   2.577  2.6656  2.4694  1.5651
 4704TIP3   OH214075   5.668   4.294   5.230 -0.5740  0.2234  0.5486
 4704TIP3    H114076   5.590   4.295   5.285 -0.7117  0.3399  0.3528
 4704TIP3    H214077   5.636   4.270   5.143 -0.1787 -1.2412  0.7795
 4705TIP3   OH214078   0.764   1.582   3.860 -0.2062 -0.5695  0.1604
 4705TIP3    H114079   0.837   1.643   3.867 -0.9416  0.3363  0.0567
 4705TIP3    H214080   0.734   1.571   3.951 -2.0539  1.7162 -0.0784
 4706TIP3   OH214081   0.624   5.237   1.691 -0.1874 -0.0321  0.3502
 4706TIP3    H114082   0.653   5.187   1.614 -0.0280  1.3001 -0.4742
 4706TIP3    H214083   0.684   5.311   1.695 -0.7222  0.3553  1.2802
 4707TIP3   OH214084   3.660   5.017   0.578 -0.3939  0.4096  0.3926
 4707TIP3    H114085   3.653   5.080   0.649  0.3594  1.6496 -0.5955
 4707TIP3    H214086   3.679   4.934   0.622 -1.7327  0.7596  1.7359
 4708TIP3   OH214087   0.057   1.838   3.983  0.6515  0.6249 -0.4167
 4708TIP3    H114088   0.077   1.745   3.971  0.1113  0.5289 -0.5821
 4708TIP3    H214089   0.090   1.858   4.070  0.0636  0.0779 -0.0580
 4709TIP3   OH214090   6.958   0.510   2.841 -0.1498  0.2742 -0.2181
 4709TIP3    H114091   6.935   0.470   2.924  2.2256  1.0493  0.8861
 4709TIP3    H214092   6.986   0.599   2.864  1.0337  0.3390 -1.7540
 4710TIP3   OH214093   2.472   5.468   1.133  0.0331  0.1788  0.0231
 4710TIP3    H114094   2.480   5.400   1.066 -1.9938  0.4490 -0.5488
 4710TIP3    H214095   2.495   5.424   1.215  2.9276 -0.0599 -0.8119
 4711TIP3   OH214096   6.152   5.843   1.108  1.0541 -0.0058 -0.5616
 4711TIP3    H114097   6.066   5.821   1.072  0.8716 -0.9756  0.3959
 4711TIP3    H214098   6.156   5.938   1.105 -0.6443  0.1515  0.6146
 4712TIP3   OH214099   1.761   3.859   3.472 -0.0648  0.4367 -0.0704
 4712TIP3    H114100   1.718   3.773   3.468  1.2010 -0.2517  0.3738
 4712TIP3    H214101   1.836   3.850   3.412  0.1272  1.2010  0.0552
 4713TIP3   OH214102   1.588   3.795   2.223 -0.1700  0.1552 -0.2099
 4713TIP3    H114103   1.499   3.762   2.211  0.0585 -0.7258  0.3851
 4713TIP3    H214104   1.638   3.719   2.252  0.5443  0.8654  0.4932
 4714TIP3   OH214105   0.051   6.610   1.514 -0.4540  0.1013  0.5837
 4714TIP3    H114106   0.009   6.647   1.436  0.1355 -1.0252 -0.3046
 4714TIP3    H214107   0.145   6.621   1.498 -0.2581 -1.6406  0.3105
 4715TIP3   OH214108   1.353   5.989   1.303  0.0241  0.3950  0.5820
 4715TIP3    H114109   1.340   6.084   1.312  1.4612  0.3937  3.9918
 4715TIP3    H214110   1.300   5.951   1.373  0.4804 -1.2484  0.0757
 4716TIP3   OH214111   3.699   3.147   2.881 -0.3313 -0.5513 -0.3045
 4716TIP3    H114112   3.607   3.120   2.879 -0.9826  1.4219  0.0167
 4716TIP3    H214113   3.721   3.165   2.790 -0.2419 -1.0724 -0.3875
 4717TIP3   OH214114   2.338   1.111   3.831  0.0266 -0.1455  0.3165
 4717TIP3    H114115   2.280   1.168   3.780  0.3371 -0.1441 -0.0381
 4717TIP3    H214116   2.279   1.061   3.887 -0.2209  0.8881  1.0040
 4718TIP3   OH214117   5.197   5.653   3.673  0.1228  0.2662 -0.0162
 4718TIP3    H114118   5.119   5.670   3.726 -1.1019 -0.7091 -1.4054
 4718TIP3    H214119   5.188   5.561   3.646  1.5709  0.2433 -0.5140
 4719TIP3   OH214120   2.659   2.902   4.385 -0.4972 -0.4355  0.2124
 4719TIP3    H114121   2.642   2.982   4.434 -1.9303 -1.9244  2.3078
 4719TIP3    H214122   2.586   2.897   4.322 -1.2184 -0.7844  1.0555
 4720TIP3   OH214123   1.350   4.300   2.324 -0.4900 -0.4403 -0.2765
 4720TIP3    H114124   1.282   4.251   2.370 -0.5762  0.3078  0.4140
 4720TIP3    H214125   1.314   4.316   2.237 -0.7976 -0.8813 -0.2325
 4721TIP3   OH214126   5.428   6.738   3.688  0.5159 -0.2096  0.1904
 4721TIP3    H114127   5.347   6.743   3.638 -0.7037 -1.6614  1.9191
 4721TIP3    H214128   5.412   6.793   3.766  1.3241 -0.2343  0.3832
 4722TIP3   OH214129   3.678   1.971   5.475 -0.2563 -0.0863 -0.1980
 4722TIP3    H114130   3.700   2.059   5.507  0.4475 -0.4565  0.3561
 4722TIP3    H214131   3.611   1.939   5.536  0.6347 -0.5470  0.5613
 4723TIP3   OH214132   1.299   6.502   4.037 -0.2383 -0.6297 -0.2892
 4723TIP3    H114133   1.381   6.493   3.989 -0.9525  1.0837 -1.9238
 4723TIP3    H214134   1.319   6.469   4.125  1.7417 -1.6894 -1.0781
 4724TIP3   OH214135   0.018   6.178   2.551  0.3573  0.1726  0.2467
 4724TIP3    H114136   0.087   6.127   2.593 -0.7079 -2.2703 -0.7591
 4724TIP3    H214137  -0.057   6.171   2.611 -0.3693 -1.1445 -0.7494
 4725TIP3   OH214138   5.078   2.977   4.043 -0.3431  0.4839  0.3343
 4725TIP3    H114139   5.006   2.996   4.103 -0.3163  0.4407  0.3805
 4725TIP3    H214140   5.152   2.955   4.101 -0.7009 -0.9710  0.2799
 4726TIP3   OH214141   7.166   2.686   2.743 -0.0883  0.3775 -0.0666
 4726TIP3    H114142   7.112   2.748   2.793 -0.7588 -0.0221 -0.2860
 4726TIP3    H214143   7.223   2.647   2.809 -0.0121  0.8525  0.1603
 4727TIP3   OH214144   6.988   5.415   5.726 -0.1536  0.7782  0.4679
 4727TIP3    H114145   7.052   5.436   5.794  1.4788 -1.4826 -0.2562
 4727TIP3    H214146   7.001   5.322   5.709 -1.4918  0.9621 -1.9301
 4728TIP3   OH214147   3.228   6.563   1.015  0.3608  0.0276  0.2546
 4728TIP3    H114148   3.238   6.539   1.107 -0.1935  0.5398  0.4604
 4728TIP3    H214149   3.176   6.492   0.977  0.0819  0.1118  0.4783
 4729TIP3   OH214150   5.290   4.775   4.899  0.0063  0.5775  0.0643
 4729TIP3    H114151   5.255   4.855   4.938  0.6409  0.7998  0.1790
 4729TIP3    H214152   5.384   4.777   4.918 -0.2600 -1.2865  2.0462
 4730TIP3   OH214153   3.269   4.097   0.478  0.4450  0.4956  0.1398
 4730TIP3    H114154   3.357   4.123   0.451  0.5456 -0.5666 -0.6108
 4730TIP3    H214155   3.220   4.087   0.396 -0.9144  2.7450  0.5740
 4731TIP3   OH214156   2.170   2.428   4.768 -0.0631  0.1561  0.4444
 4731TIP3    H114157   2.202   2.405   4.855  0.9303  1.9423  0.5966
 4731TIP3    H214158   2.140   2.519   4.776 -1.0623 -0.0297 -0.8012
 4732TIP3   OH214159   2.789   1.926   1.506  0.2925  0.0443 -0.5816
 4732TIP3    H114160   2.838   1.869   1.447 -0.5539 -0.1683 -1.1045
 4732TIP3    H214161   2.823   1.905   1.593  1.4768  0.2801 -0.9698
 4733TIP3   OH214162   2.084   4.703   0.711  0.3388 -0.3516 -0.0490
 4733TIP3    H114163   2.007   4.743   0.751 -0.7840 -0.1526 -2.2740
 4733TIP3    H214164   2.067   4.609   0.714  0.8898 -0.4357  1.0877
 4734TIP3   OH214165   1.794   3.854   2.976 -0.5860  0.3467 -0.0290
 4734TIP3    H114166   1.700   3.861   2.995 -0.9861  1.5483 -2.1778
 4734TIP3    H214167   1.805   3.767   2.939 -0.3541 -0.7505  2.4032
 4735TIP3   OH214168   6.273   1.669   2.856  0.5065  0.1802  0.7363
 4735TIP3    H114169   6.201   1.729   2.874  0.4114 -0.0675  1.2030
 4735TIP3    H214170   6.271   1.657   2.761 -0.8985 -0.8350  0.8652
 4736TIP3   OH214171   1.017   2.846   3.966  0.5813  0.2211  0.2716
 4736TIP3    H114172   0.972   2.931   3.960  1.8127  0.9894  1.1764
 4736TIP3    H214173   0.983   2.807   4.047  1.9847  1.1404  1.3699
 4737TIP3   OH214174   3.271   4.233   0.733  0.2601 -0.1046 -0.0113
 4737TIP3    H114175   3.360   4.208   0.754  0.4464 -1.0565 -1.7298
 4737TIP3    H214176   3.233   4.155   0.691 -1.0572  0.5928 -0.1847
 4738TIP3   OH214177   3.927   4.479   5.323 -0.1131 -0.4676  0.1684
 4738TIP3    H114178   3.973   4.468   5.406  1.3130 -0.4947 -0.5908
 4738TIP3    H214179   3.851   4.533   5.344 -0.2413 -1.1876  1.6308
 4739TIP3   OH214180   5.871   3.920   3.647  0.0847 -0.0858  0.2683
 4739TIP3    H114181   5.880   3.974   3.725 -1.2306 -0.9114  1.0410
 4739TIP3    H214182   5.961   3.905   3.618  0.7202 -0.7986  2.3874
 4740TIP3   OH214183   1.150   4.180   5.383  0.9827  0.3414 -0.3206
 4740TIP3    H114184   1.154   4.208   5.474  0.2910 -0.1721 -0.1288
 4740TIP3    H214185   1.122   4.088   5.387 -1.5010  0.9961 -1.1449
 4741TIP3   OH214186   5.961   4.710   4.988 -0.0473  0.0971 -0.1433
 4741TIP3    H114187   6.004   4.713   5.074  2.1045 -0.4314 -1.1461
 4741TIP3    H214188   5.936   4.801   4.971 -0.3550  0.2373  0.9395
 4742TIP3   OH214189   3.454   4.585   2.336 -0.3185  0.2947 -0.2303
 4742TIP3    H114190   3.474   4.591   2.430 -1.6390  0.9833  0.0335
 4742TIP3    H214191   3.436   4.675   2.310  0.0751  0.1082 -1.1707
 4743TIP3   OH214192   1.846   5.294   5.563 -0.0511 -0.5697  0.1717
 4743TIP3    H114193   1.827   5.242   5.485 -0.0181  0.9405 -0.8872
 4743TIP3    H214194   1.927   5.340   5.542 -1.5073  2.0878 -0.1490
 4744TIP3   OH214195   2.089   2.460   2.550 -1.0674 -0.1253 -0.2858
 4744TIP3    H114196   2.176   2.491   2.525 -0.2812 -1.8066  0.2114
 4744TIP3    H214197   2.063   2.401   2.479 -0.1713 -2.4792  1.2055
 4745TIP3   OH214198   0.176   2.727   3.033 -0.0067  0.0174  0.4625
 4745TIP3    H114199   0.156   2.802   3.089 -2.4388 -0.0736 -0.1828
 4745TIP3    H214200   0.119   2.657   3.066  0.3841 -0.7997 -0.5294
 4746TIP3   OH214201   6.666   3.632   2.626  0.5072 -0.4721 -0.0452
 4746TIP3    H114202   6.667   3.707   2.566  1.2223 -1.3050 -1.1059
 4746TIP3    H214203   6.716   3.662   2.702  0.6833  0.1650 -0.4014
 4747TIP3   OH214204   6.670   5.995   4.670 -0.3131 -0.1658  0.6516
 4747TIP3    H114205   6.762   5.992   4.699  0.1275  0.7841 -0.5222
 4747TIP3    H214206   6.636   6.076   4.708 -0.8775 -0.8193  1.5896
 4748TIP3   OH214207   0.911   4.507   2.093  0.3136 -0.0034 -0.0420
 4748TIP3    H114208   0.922   4.460   2.011 -2.2418 -1.7732  0.5218
 4748TIP3    H214209   0.961   4.457   2.157 -1.3753 -1.3007  0.3103
 4749TIP3   OH214210   1.768   1.097   3.370 -0.4418 -0.0717 -0.3343
 4749TIP3    H114211   1.733   1.141   3.447 -0.5202 -1.3026  0.3559
 4749TIP3    H214212   1.862   1.091   3.386 -0.7433 -2.7607  1.0286
 4750TIP3   OH214213   4.922   1.421   5.845  0.0892 -0.0156 -0.1295
 4750TIP3    H114214   4.967   1.456   5.768  0.7892  2.4609  1.2819
 4750TIP3    H214215   4.847   1.479   5.856 -0.3875 -0.7663  0.6619
 4751TIP3   OH214216   3.588   4.407   0.096  0.0882 -0.1033 -0.1224
 4751TIP3    H114217   3.548   4.361   0.022 -0.6351 -1.1556  0.8785
 4751TIP3    H214218   3.617   4.337   0.154  0.7299  0.7064  0.5488
 4752TIP3   OH214219   4.556   5.811   4.987  0.5147  0.2505  0.0308
 4752TIP3    H114220   4.535   5.901   5.014  1.1246  0.3273  0.2666
 4752TIP3    H214221   4.477   5.761   5.008 -0.6976  1.1095 -2.1079
 4753TIP3   OH214222   2.649   4.292   2.254 -0.3736  0.2433  0.1311
 4753TIP3    H114223   2.599   4.211   2.254 -0.0603  0.0470  0.0144
 4753TIP3    H214224   2.594   4.355   2.301 -0.2682 -0.2579  0.9478
 4754TIP3   OH214225   6.550   5.854   5.542 -0.5204 -0.5523 -0.2160
 4754TIP3    H114226   6.562   5.774   5.592  2.2305 -0.0174  0.1329
 4754TIP3    H214227   6.513   5.825   5.458  0.3767 -2.1926 -0.0711
 4755TIP3   OH214228   2.001   2.376   0.012  0.2567 -0.2414  0.3129
 4755TIP3    H114229   2.003   2.361   0.107  0.5820  1.6316  0.6532
 4755TIP3    H214230   2.093   2.389  -0.012  0.2702 -1.5882 -0.4518
 4756TIP3   OH214231   1.079   6.312   4.172 -0.2238 -0.0773 -0.2699
 4756TIP3    H114232   1.093   6.287   4.081 -1.3996 -0.2397 -0.4231
 4756TIP3    H214233   1.075   6.407   4.170  2.0642  0.0770 -0.0140
 4757TIP3   OH214234   6.346   3.162   0.178 -0.1090 -0.1667 -0.3015
 4757TIP3    H114235   6.320   3.227   0.243 -0.6097 -0.9082  0.2602
 4757TIP3    H214236   6.428   3.126   0.212  0.3980  0.4558 -0.8319
 4758TIP3   OH214237   3.344   3.732   2.475 -0.4704  0.1615  0.0744
 4758TIP3    H114238   3.409   3.666   2.452 -0.5995 -0.6926  1.9828
 4758TIP3    H214239   3.385   3.815   2.451 -0.7885 -0.5673 -3.5031
 4759TIP3   OH214240   7.073   6.462   3.132 -0.2753  0.2749  0.0460
 4759TIP3    H114241   7.113   6.518   3.066  0.0296  0.7210  0.6021
 4759TIP3    H214242   7.146   6.435   3.188 -0.4499 -0.5205 -0.1008
 4760TIP3   OH214243   3.567   5.987   1.558 -0.2951 -0.2676 -0.1018
 4760TIP3    H114244   3.499   5.962   1.620  1.0928 -0.1748  1.5262
 4760TIP3    H214245   3.553   5.931   1.482  0.6668 -3.6968  2.0567
 4761TIP3   OH214246   3.238   6.521   3.248 -0.7571  0.3456  0.1706
 4761TIP3    H114247   3.262   6.569   3.328  1.8091  2.6978 -1.8433
 4761TIP3    H214248   3.142   6.526   3.246 -0.7508  3.0439  1.5111
 4762TIP3   OH214249   2.129   4.142   2.431  0.2444 -0.3506  0.4558
 4762TIP3    H114250   2.069   4.073   2.458 -0.9955  0.3497 -0.3966
 4762TIP3    H214251   2.137   4.132   2.336  2.7892 -1.4139  0.6925
 4763TIP3   OH214252   5.330   2.949   3.534 -0.1629  0.3697  0.2100
 4763TIP3    H114253   5.267   2.885   3.503  0.1168  0.3945 -0.4158
 4763TIP3    H214254   5.295   2.978   3.619 -0.5392 -0.2479  0.2722
 4764TIP3   OH214255   6.059   3.773   3.283 -0.2329  0.6475  0.1543
 4764TIP3    H114256   6.086   3.718   3.357 -0.5674  1.2804  0.7581
 4764TIP3    H214257   6.118   3.849   3.288  0.6836  0.0391 -1.0825
 4765TIP3   OH214258   3.517   4.521   1.676 -0.1440 -0.8802 -0.6762
 4765TIP3    H114259   3.558   4.460   1.737  1.0313  1.8113  1.4173
 4765TIP3    H214260   3.457   4.573   1.730 -0.9059  0.0060 -2.3060
 4766TIP3   OH214261   1.025   3.373   0.191 -0.2837 -0.1729  0.2167
 4766TIP3    H114262   0.949   3.419   0.226 -1.4767  0.0855 -2.4462
 4766TIP3    H214263   1.085   3.443   0.166 -0.2453 -0.2485  0.0953
 4767TIP3   OH214264   5.734   4.634   5.299 -0.4779  0.4585 -0.3220
 4767TIP3    H114265   5.809   4.600   5.250 -1.0540 -0.0216 -0.8802
 4767TIP3    H214266   5.772   4.700   5.357  0.7018 -1.2232  0.9279
 4768TIP3   OH214267   6.720   0.505   5.751  0.0343 -0.0094 -0.1274
 4768TIP3    H114268   6.749   0.553   5.828  0.3651  0.4659 -0.5375
 4768TIP3    H214269   6.691   0.421   5.784  0.4693  0.0732  0.4775
 4769TIP3   OH214270   5.581   3.922   0.493  0.0332 -0.2791  0.2060
 4769TIP3    H114271   5.539   3.858   0.436 -0.9105  1.0764 -0.7041
 4769TIP3    H214272   5.668   3.934   0.455  0.3027 -1.1593  0.5195
 4770TIP3   OH214273   3.215   0.472   1.961  0.2347 -0.1529  0.3588
 4770TIP3    H114274   3.278   0.422   1.910 -0.8883 -0.3883 -0.8548
 4770TIP3    H214275   3.247   0.466   2.051  2.3090  0.3246 -0.2866
 4771TIP3   OH214276   1.850   2.659   3.111  0.0603 -0.2141 -0.6598
 4771TIP3    H114277   1.791   2.647   3.185  1.2485 -2.4292 -0.0085
 4771TIP3    H214278   1.817   2.600   3.043  1.0972 -0.9542 -0.5386
 4772TIP3   OH214279   4.550   6.006   4.764  0.2469 -0.0441  0.2779
 4772TIP3    H114280   4.581   6.060   4.692 -1.4646  1.3837  0.5497
 4772TIP3    H214281   4.556   5.916   4.731  0.0872  0.5323 -1.4059
 4773TIP3   OH214282   3.978   1.782   4.280  0.5529 -0.3627  0.2581
 4773TIP3    H114283   3.938   1.866   4.300  1.1443 -0.3476  1.4930
 4773TIP3    H214284   3.970   1.732   4.362 -0.7597 -1.9173 -0.7535
 4774TIP3   OH214285   0.611   6.585   3.860 -0.3007  0.4214  0.0906
 4774TIP3    H114286   0.609   6.493   3.885  2.2337  0.4597  0.7282
 4774TIP3    H214287   0.539   6.625   3.909  1.2208 -0.4884  3.3935
 4775TIP3   OH214288   6.903   6.132   0.257  0.2648 -0.6640 -0.1772
 4775TIP3    H114289   6.862   6.046   0.260 -0.1075 -0.5349 -1.2990
 4775TIP3    H214290   6.831   6.194   0.271  0.6095 -0.5285  1.1604
 4776TIP3   OH214291   4.582   0.086   1.237 -0.4318  0.2319 -0.5477
 4776TIP3    H114292   4.635   0.162   1.260  0.3765 -0.0762 -1.3588
 4776TIP3    H214293   4.640   0.011   1.250 -1.3657 -0.3173  0.7123
 4777TIP3   OH214294   5.946   0.912   3.507 -0.6097  0.0964  0.0472
 4777TIP3    H114295   6.011   0.973   3.542 -2.2311  1.8613  0.1433
 4777TIP3    H214296   5.961   0.831   3.555  1.1751  0.6109  0.4138
 4778TIP3   OH214297   6.928   4.885   3.750 -0.3379  0.0313  0.3806
 4778TIP3    H114298   6.895   4.904   3.662  0.9727 -1.8289 -0.5630
 4778TIP3    H214299   7.020   4.910   3.747 -0.5850  1.2359  1.6903
 4779TIP3   OH214300   3.007   3.724   2.275 -0.7312 -0.1548  0.0975
 4779TIP3    H114301   3.068   3.711   2.347 -0.1515 -0.9190 -0.5102
 4779TIP3    H214302   3.053   3.783   2.215 -1.0998  0.2622  0.2206
 4780TIP3   OH214303   1.745   2.977   0.658  0.0137  0.0725 -0.7292
 4780TIP3    H114304   1.704   2.930   0.731 -0.4273 -0.4613 -1.3052
 4780TIP3    H214305   1.837   2.986   0.683 -0.0644 -0.3991 -0.2615
 4781TIP3   OH214306   3.073   1.144   3.256  0.3171  0.3810  0.0072
 4781TIP3    H114307   3.133   1.210   3.223 -0.5291  0.3949 -1.5961
 4781TIP3    H214308   3.088   1.067   3.201 -2.5083  1.0372 -1.9348
 4782TIP3   OH214309   6.035   2.129   1.601 -0.1821 -0.3107  0.0926
 4782TIP3    H114310   6.065   2.147   1.511  0.2343 -1.2131  0.0371
 4782TIP3    H214311   6.107   2.079   1.640 -0.2422  0.3261  1.0279
 4783TIP3   OH214312   5.780   2.563   4.628  0.8265  0.1201  0.3977
 4783TIP3    H114313   5.717   2.531   4.564  0.0668  1.7525  0.2731
 4783TIP3    H214314   5.852   2.600   4.576  0.6930  0.5108  0.4823
 4784TIP3   OH214315   4.756   1.971   2.860  0.3048 -0.0781 -0.4913
 4784TIP3    H114316   4.759   1.907   2.789  2.7499 -0.1856 -0.3634
 4784TIP3    H214317   4.767   1.919   2.940 -2.2077  0.0657  0.0540
 4785TIP3   OH214318   0.144   4.283   5.836 -0.2420 -0.3880 -0.0631
 4785TIP3    H114319   0.158   4.188   5.833  1.1161 -0.2571  1.1971
 4785TIP3    H214320   0.135   4.303   5.929 -1.1598  0.6519 -0.3561
 4786TIP3   OH214321   4.864   0.634   3.047 -0.1770  0.8097 -0.1260
 4786TIP3    H114322   4.943   0.637   3.101  0.0283  1.8436 -0.4679
 4786TIP3    H214323   4.803   0.580   3.097  0.9198 -0.4652 -0.1152
 4787TIP3   OH214324   3.658   4.962   1.477  0.0553  0.3536 -0.0662
 4787TIP3    H114325   3.683   4.925   1.562  3.4983  0.5651 -0.8365
 4787TIP3    H214326   3.604   5.038   1.499 -0.2048 -0.3296  1.8408
 4788TIP3   OH214327   7.016   4.103   1.471  0.4972  0.3743 -0.1520
 4788TIP3    H114328   6.943   4.153   1.434 -0.4953 -0.8656  0.0753
 4788TIP3    H214329   6.996   4.012   1.450  1.7987 -0.0283  0.2544
 4789TIP3   OH214330   1.710   0.127   2.756 -0.1662 -0.1038  0.2057
 4789TIP3    H114331   1.768   0.109   2.831 -2.8630  0.1367  2.5150
 4789TIP3    H214332   1.652   0.051   2.753 -1.4390  0.8567 -0.2805
 4790TIP3   OH214333   3.126   0.283   4.152  0.6578  0.2589  0.4981
 4790TIP3    H114334   3.154   0.374   4.151 -0.4907  0.6368 -1.0017
 4790TIP3    H214335   3.064   0.276   4.079 -0.1061 -1.4607  1.2592
 4791TIP3   OH214336   2.279   1.146   5.286  0.0958 -0.4286  0.3162
 4791TIP3    H114337   2.224   1.223   5.301  0.8450  0.0202  0.8940
 4791TIP3    H214338   2.218   1.072   5.285 -0.5766  0.1154  0.3271
 4792TIP3   OH214339  -0.015   1.154   4.821 -0.1440 -0.6422  0.5664
 4792TIP3    H114340  -0.030   1.202   4.903 -2.7934  0.3680 -0.3871
 4792TIP3    H214341   0.080   1.156   4.809  0.0390  4.8491  0.4416
 4793TIP3   OH214342   6.184   6.374   2.004  0.4025 -0.0269 -0.0950
 4793TIP3    H114343   6.237   6.403   1.930  1.0575 -1.8570 -0.4065
 4793TIP3    H214344   6.144   6.454   2.039  1.8692  1.1568 -1.0240
 4794TIP3   OH214345   3.879   5.857   1.921  0.1241 -0.2627  0.3984
 4794TIP3    H114346   3.815   5.885   1.856 -0.4958  2.3849  1.9768
 4794TIP3    H214347   3.948   5.923   1.916  1.4690 -1.6245  0.5066
 4795TIP3   OH214348   0.701   5.880   0.963 -0.2104  0.5913 -0.0040
 4795TIP3    H114349   0.616   5.913   0.991 -0.8656 -1.3833  0.4872
 4795TIP3    H214350   0.689   5.862   0.869 -1.2961 -2.2816  0.6000
 4796TIP3   OH214351   0.981   0.251   4.103  0.3030  0.1065  0.2964
 4796TIP3    H114352   0.960   0.290   4.188  0.2404  0.5596  0.0804
 4796TIP3    H214353   1.066   0.288   4.081  0.2665  0.0810  0.1129
 4797TIP3   OH214354   1.768   1.127   0.718  0.4602  0.2323 -0.1912
 4797TIP3    H114355   1.783   1.222   0.723 -1.3872  0.6136 -0.9810
 4797TIP3    H214356   1.674   1.117   0.738  0.0341 -1.1639 -2.5741
 4798TIP3   OH214357   3.082   4.369   1.852  0.5870  0.4030  0.0248
 4798TIP3    H114358   3.061   4.462   1.843  0.2238  0.3324  0.1609
 4798TIP3    H214359   3.036   4.327   1.780  1.0036  0.3661 -0.2227
 4799TIP3   OH214360   4.927   3.841   5.698 -0.0138 -0.4114 -0.3725
 4799TIP3    H114361   4.845   3.870   5.739  0.7334  0.7245  0.3749
 4799TIP3    H214362   4.967   3.782   5.762 -0.0696 -0.6870 -0.5874
 4800TIP3   OH214363   5.557   3.012   2.537 -0.1272 -0.0721 -0.0318
 4800TIP3    H114364   5.650   2.990   2.530 -0.0550 -0.3392  1.5926
 4800TIP3    H214365   5.512   2.928   2.543 -0.0276 -0.0120  3.9597
 4801TIP3   OH214366   3.957   2.293   0.855 -0.0887 -0.3708  0.9786
 4801TIP3    H114367   4.050   2.282   0.836 -0.2861 -1.3022  0.4887
 4801TIP3    H214368   3.918   2.319   0.772  0.0057  2.0027  1.6177
 4802TIP3   OH214369   0.108   2.362   5.731 -0.3085  0.6430 -0.0652
 4802TIP3    H114370   0.065   2.376   5.647 -1.1488 -1.6250 -0.0920
 4802TIP3    H214371   0.086   2.271   5.754  0.6022  0.9336  2.1964
 4803TIP3   OH214372   0.910   3.233   4.987  0.6086  0.1339 -0.4087
 4803TIP3    H114373   0.892   3.153   5.038  0.8772  0.6302  0.4950
 4803TIP3    H214374   0.997   3.218   4.949  0.9697  0.2752  0.3422
 4804TIP3   OH214375   1.528   2.926   5.586 -0.3165 -0.3015 -0.0324
 4804TIP3    H114376   1.582   2.891   5.658  0.9917  0.4815 -0.5967
 4804TIP3    H214377   1.438   2.914   5.616  0.1745 -0.9306  1.2953
 4805TIP3   OH214378   1.861   0.202   1.648  0.2608  0.3790 -0.6224
 4805TIP3    H114379   1.864   0.189   1.743 -4.1624  2.2686 -0.0067
 4805TIP3    H214380   1.886   0.117   1.612  1.7541 -0.5014  2.1815
 4806TIP3   OH214381   5.405   2.651   2.166  0.8577 -0.4853 -0.0301
 4806TIP3    H114382   5.319   2.681   2.196  1.8758  1.1124  1.5342
 4806TIP3    H214383   5.407   2.673   2.073 -0.8477 -1.6461 -0.3691
 4807TIP3   OH214384   4.021   1.873   2.848  0.7992 -0.0087 -0.0797
 4807TIP3    H114385   3.947   1.927   2.876  2.2360  1.7512  0.5296
 4807TIP3    H214386   4.027   1.804   2.914 -0.3130 -0.2164 -0.1797
 4808TIP3   OH214387   5.081   2.198   5.813 -0.4463  0.1679  0.1505
 4808TIP3    H114388   4.991   2.230   5.817 -1.2321 -1.9541  0.9065
 4808TIP3    H214389   5.109   2.191   5.904 -0.3538 -1.3118  0.0328
 4809TIP3   OH214390   4.839   2.599   3.837  0.1897 -0.0762  0.3183
 4809TIP3    H114391   4.889   2.680   3.848  0.4215  0.0076 -1.1302
 4809TIP3    H214392   4.761   2.612   3.890  0.3911  0.9571  0.3824
 4810TIP3   OH214393   2.610   1.032   2.028 -0.0952 -0.4845  0.3764
 4810TIP3    H114394   2.652   0.966   2.083 -0.3860 -0.6271  0.4305
 4810TIP3    H214395   2.516   1.019   2.042 -0.1503  0.1151  0.5862
 4811TIP3   OH214396   0.608   2.140   4.730 -0.0077  0.0628  0.0486
 4811TIP3    H114397   0.666   2.179   4.795  1.7855  0.1350 -1.5140
 4811TIP3    H214398   0.531   2.112   4.780  0.8742  0.9858  2.0126
 4812TIP3   OH214399   4.647   4.511   2.191 -0.0285 -0.8634  0.1425
 4812TIP3    H114400   4.742   4.516   2.182 -0.1939 -0.2025 -1.8354
 4812TIP3    H214401   4.629   4.534   2.282  1.7212 -1.4229  0.6528
 4813TIP3   OH214402   2.999   5.227   3.897 -0.4765 -0.1112  0.2122
 4813TIP3    H114403   2.963   5.271   3.820  0.9529 -1.6320 -1.4139
 4813TIP3    H214404   3.073   5.282   3.923 -0.9527  0.3980  0.5247
 4814TIP3   OH214405   7.119   0.684   4.908 -0.1868 -0.5703 -0.5553
 4814TIP3    H114406   7.063   0.759   4.886  0.3554  0.2026  0.5897
 4814TIP3    H214407   7.063   0.608   4.894 -0.8412  0.0512 -1.4875
 4815TIP3   OH214408   6.505   4.717   4.484  0.4690 -0.3748  0.9652
 4815TIP3    H114409   6.555   4.636   4.472  0.5448 -0.1460 -0.4937
 4815TIP3    H214410   6.542   4.757   4.563  1.7915 -0.8000  0.5882
 4816TIP3   OH214411   1.285   4.668   4.791  0.2256  0.0470  0.0014
 4816TIP3    H114412   1.284   4.636   4.701  0.1889 -0.4095  0.1600
 4816TIP3    H214413   1.251   4.595   4.842  1.9130 -0.3596  0.5930
 4817TIP3   OH214414   5.977   0.776   1.837  0.0708  0.1200  0.3419
 4817TIP3    H114415   5.983   0.684   1.809  1.0615 -0.0915  1.1826
 4817TIP3    H214416   5.907   0.813   1.783 -0.5303 -1.1965  0.1807
 4818TIP3   OH214417   0.292   1.523   5.452 -0.2306  0.0534 -0.2331
 4818TIP3    H114418   0.253   1.611   5.458 -2.3713 -0.6530 -2.1747
 4818TIP3    H214419   0.238   1.470   5.510  0.7607 -0.0870  0.5690
 4819TIP3   OH214420   5.952   0.466   3.532 -0.4453  0.0961 -0.2383
 4819TIP3    H114421   5.980   0.390   3.583  0.2002  0.1558 -0.4946
 4819TIP3    H214422   5.945   0.537   3.596  0.4336  0.1885 -0.2330
 4820TIP3   OH214423   5.083   1.594   4.334 -0.0998 -0.0139 -0.6689
 4820TIP3    H114424   5.050   1.554   4.254 -2.3015 -1.2678  0.7775
 4820TIP3    H214425   5.024   1.564   4.403  0.2957  2.8709  1.1111
 4821TIP3   OH214426   3.945   6.258   0.979 -0.5933  0.3100  0.0121
 4821TIP3    H114427   3.944   6.234   0.886  0.5758  1.7110 -0.4057
 4821TIP3    H214428   4.035   6.287   0.995 -0.2129 -1.7318  2.1156
 4822TIP3   OH214429   3.035   0.286   2.427  0.9104 -0.9376 -0.1610
 4822TIP3    H114430   3.044   0.208   2.481 -0.3006 -0.6211  0.5240
 4822TIP3    H214431   3.046   0.359   2.488  2.4607 -0.5341 -0.8653
 4823TIP3   OH214432   0.057   3.251   0.669  0.0471 -0.6400  0.6198
 4823TIP3    H114433   0.071   3.221   0.759 -2.1636 -1.3986  0.7669
 4823TIP3    H214434  -0.037   3.239   0.654 -0.3556  2.9053 -0.5713
 4824TIP3   OH214435   0.049   4.243   2.256 -0.0242 -0.5628 -0.1913
 4824TIP3    H114436  -0.008   4.189   2.310  0.9255  0.4397  1.9541
 4824TIP3    H214437   0.136   4.233   2.295  0.1805  2.5396  0.4771
 4825TIP3   OH214438   3.086   6.445   4.558 -0.2228 -0.5495  0.2682
 4825TIP3    H114439   3.179   6.433   4.542  0.6457  1.7723  2.8076
 4825TIP3    H214440   3.047   6.448   4.471  2.4929  1.2112 -1.0201
 4826TIP3   OH214441   3.154   2.199   3.380 -0.5101 -0.2485 -0.0601
 4826TIP3    H114442   3.133   2.238   3.465 -0.3393  0.6575 -0.4201
 4826TIP3    H214443   3.071   2.201   3.331 -0.3943  0.1248 -0.2486
 4827TIP3   OH214444   1.805   0.963   4.927  0.3543  0.7180 -0.4910
 4827TIP3    H114445   1.712   0.940   4.926  0.7824 -1.2363  0.2202
 4827TIP3    H214446   1.814   1.028   4.996 -0.5336  1.1760 -0.8012
 4828TIP3   OH214447   0.050   0.841   0.448 -0.0153  0.0198 -0.2944
 4828TIP3    H114448   0.002   0.806   0.523  0.6225 -0.6922 -0.2141
 4828TIP3    H214449   0.134   0.868   0.485 -0.2415  1.0312 -0.4818
 4829TIP3   OH214450   1.954   0.281   4.117 -0.2058  0.8872  0.0079
 4829TIP3    H114451   1.889   0.219   4.082 -0.3818  0.5538  0.9105
 4829TIP3    H214452   1.906   0.363   4.124 -1.0935  0.2375  2.3425
 4830TIP3   OH214453   1.194   0.995   0.347  0.2215 -0.8927  0.1683
 4830TIP3    H114454   1.228   1.081   0.370 -1.9180  0.2749 -0.7745
 4830TIP3    H214455   1.147   0.965   0.424 -1.5050  0.1419 -0.4349
 4831TIP3   OH214456   5.481   3.837   1.469 -0.0799 -0.0058  0.2275
 4831TIP3    H114457   5.519   3.924   1.485 -1.4933  0.6598  0.1572
 4831TIP3    H214458   5.543   3.776   1.510  1.6276  0.9118 -0.8801
 4832TIP3   OH214459   4.603   2.320   2.284 -0.5362  0.3974  0.0856
 4832TIP3    H114460   4.674   2.285   2.229 -1.6248 -0.1396 -1.0174
 4832TIP3    H214461   4.602   2.413   2.265 -0.2459  0.3777 -0.0424
 4833TIP3   OH214462   0.828   4.122   2.381 -0.1758  0.1471 -0.4904
 4833TIP3    H114463   0.878   4.042   2.401 -0.8604 -0.6374 -1.7960
 4833TIP3    H214464   0.885   4.172   2.322  1.1189  1.6479  1.8982
 4834TIP3   OH214465   1.562   4.362   5.489 -0.1660 -0.0085  0.5526
 4834TIP3    H114466   1.526   4.320   5.412  0.5156  1.2797 -0.5170
 4834TIP3    H214467   1.591   4.290   5.545 -0.7304 -0.9703 -0.3596
 4835TIP3   OH214468   6.461   2.095   5.517  0.0902  1.0397  0.5879
 4835TIP3    H114469   6.395   2.104   5.448 -0.0316 -2.1401  0.1286
 4835TIP3    H214470   6.544   2.090   5.469  0.1812  0.5464  0.7924
 4836TIP3   OH214471   5.588   3.557   1.557  0.4578 -0.2991 -0.6171
 4836TIP3    H114472   5.615   3.606   1.635 -2.1331 -0.4681  0.4832
 4836TIP3    H214473   5.499   3.527   1.577 -0.9900  1.0133 -4.2912
 4837TIP3   OH214474   5.403   4.876   2.830  0.1100 -0.0372 -0.0824
 4837TIP3    H114475   5.414   4.945   2.764 -1.2589  0.5412  0.2408
 4837TIP3    H214476   5.314   4.843   2.814 -0.2602  0.1411  1.4773
 4838TIP3   OH214477   7.101   1.419   0.823 -0.3994  0.0593 -0.1496
 4838TIP3    H114478   7.043   1.391   0.894  1.1064 -0.1023  1.0745
 4838TIP3    H214479   7.167   1.351   0.818 -0.7024 -0.1472 -2.0521
 4839TIP3   OH214480   4.765   3.306   0.156 -0.2905 -0.0086 -1.4367
 4839TIP3    H114481   4.779   3.395   0.122  0.2985 -0.3575 -2.1305
 4839TIP3    H214482   4.854   3.273   0.171 -0.4689  0.7063  2.0348
 4840TIP3   OH214483   4.881   0.837   1.097 -0.6703  0.1895 -0.4734
 4840TIP3    H114484   4.860   0.795   1.180  1.4279 -0.3720 -0.1826
 4840TIP3    H214485   4.813   0.805   1.037 -2.2369  0.6362  0.9858
 4841TIP3   OH214486   4.044   6.289   4.159  0.1419  0.0359 -0.5413
 4841TIP3    H114487   4.057   6.375   4.200  1.5570  0.4216 -1.7177
 4841TIP3    H214488   3.956   6.293   4.123 -0.9057 -0.0863  1.8547
 4842TIP3   OH214489   3.209   2.007   5.789  0.8314  0.3644  0.3220
 4842TIP3    H114490   3.137   2.069   5.794 -0.6950 -1.3152  0.1134
 4842TIP3    H214491   3.198   1.950   5.865  2.2589  0.3606  0.5668
 4843TIP3   OH214492   5.339   5.678   0.152 -0.9120  0.7140 -0.5876
 4843TIP3    H114493   5.354   5.719   0.237  0.9983 -0.2616 -0.3979
 4843TIP3    H214494   5.390   5.731   0.090 -0.5836  0.2122 -0.7603
 4844TIP3   OH214495   3.484   1.541   1.376  0.7938  0.3134  0.5541
 4844TIP3    H114496   3.527   1.619   1.413  1.8506 -0.1904  0.4105
 4844TIP3    H214497   3.548   1.471   1.386 -0.1875 -0.5702  0.7620
 4845TIP3   OH214498   6.916   2.781   2.008 -0.1962 -0.2531  0.1949
 4845TIP3    H114499   6.887   2.849   2.069  1.5107 -0.5848  1.4488
 4845TIP3    H214500   6.927   2.703   2.063 -0.1126 -0.9882 -0.8325
 4846TIP3   OH214501   3.567   5.552   0.729 -0.2404  0.1663  0.1084
 4846TIP3    H114502   3.512   5.630   0.726  1.1003  1.1273 -1.0894
 4846TIP3    H214503   3.655   5.585   0.750  0.5317 -0.8979 -1.2698
 4847TIP3   OH214504   1.336   0.758   3.769 -0.9516 -0.2003 -0.1676
 4847TIP3    H114505   1.304   0.802   3.691 -2.7761  0.1821  0.7452
 4847TIP3    H214506   1.384   0.826   3.816 -1.6592  0.1692  0.0427
 4848TIP3   OH214507   3.407   0.227   2.445 -0.1770 -0.5727 -0.2424
 4848TIP3    H114508   3.414   0.152   2.387 -0.9194 -1.5324  0.8604
 4848TIP3    H214509   3.409   0.190   2.533 -2.8460  0.4223  0.3477
 4849TIP3   OH214510   2.977   0.072   4.846 -0.6013  0.2800  0.0871
 4849TIP3    H114511   3.010   0.077   4.756 -1.4563  0.2368 -0.2376
 4849TIP3    H214512   3.046   0.026   4.894 -0.1729  0.2292 -0.5624
 4850TIP3   OH214513   3.688   2.124   2.258 -0.0281  0.4093 -0.1871
 4850TIP3    H114514   3.619   2.168   2.208 -1.6298 -0.0565  1.4807
 4850TIP3    H214515   3.680   2.160   2.346  0.9263 -0.6955  0.3779
 4851TIP3   OH214516   3.286   1.193   4.012  0.1540  0.1927  0.0987
 4851TIP3    H114517   3.231   1.123   4.047 -0.3313  0.6822  0.3529
 4851TIP3    H214518   3.318   1.160   3.928 -1.1778  0.1906 -0.4326
 4852TIP3   OH214519   0.282   6.010   4.138  0.5590 -0.0836 -0.4982
 4852TIP3    H114520   0.267   5.916   4.128 -3.3891  0.4462 -1.2321
 4852TIP3    H214521   0.257   6.029   4.228 -1.3079  0.5614 -1.1048
 4853TIP3   OH214522   1.486   6.711   4.348 -0.4595 -0.0991  0.7464
 4853TIP3    H114523   1.458   6.794   4.388 -0.2098  0.4446 -0.1934
 4853TIP3    H214524   1.579   6.705   4.369 -0.0593  0.7397 -0.6516
 4854TIP3   OH214525   5.538   1.545   4.172 -0.2241  0.3642  0.4103
 4854TIP3    H114526   5.547   1.554   4.267  1.3880  2.7457  0.1089
 4854TIP3    H214527   5.446   1.565   4.155 -0.9266 -1.6194  1.5618
 4855TIP3   OH214528   5.254   3.925   2.613 -0.1733  0.4144 -0.7120
 4855TIP3    H114529   5.180   3.985   2.604 -2.4404 -2.2734 -1.2652
 4855TIP3    H214530   5.244   3.887   2.700  1.1789  0.7017 -0.4047
 4856TIP3   OH214531   6.226   4.421   5.318  0.2857 -0.0830 -0.0006
 4856TIP3    H114532   6.271   4.393   5.239  0.0754 -0.3450 -0.0272
 4856TIP3    H214533   6.135   4.432   5.291  0.3149  0.3618  0.0729
 4857TIP3   OH214534   2.402   5.286   1.529  0.0604 -0.3775 -0.3073
 4857TIP3    H114535   2.445   5.248   1.606  1.2267 -0.3850 -0.9368
 4857TIP3    H214536   2.310   5.261   1.538  0.2550 -0.7285  0.8681
 4858TIP3   OH214537   1.619   4.960   0.078 -0.6331  0.3241  0.1015
 4858TIP3    H114538   1.656   4.931   0.162 -2.8347  2.3268  1.9230
 4858TIP3    H214539   1.560   4.890   0.052 -1.0354  0.3042  1.0340
 4859TIP3   OH214540   3.262   0.329   3.404  0.1763  0.0375  0.0912
 4859TIP3    H114541   3.210   0.350   3.326  0.4006  0.3759  0.0318
 4859TIP3    H214542   3.202   0.342   3.477  0.2894  0.8227  0.0509
 4860TIP3   OH214543   1.072   6.536   4.844 -0.0196 -0.0992  0.2964
 4860TIP3    H114544   1.120   6.595   4.902  0.2102  0.2925 -0.2852
 4860TIP3    H214545   1.099   6.448   4.872 -0.5821  0.0517  1.3543
 4861TIP3   OH214546   0.057   1.207   0.794  0.4806 -0.0505  0.1871
 4861TIP3    H114547   0.088   1.129   0.747 -1.8729 -0.8540 -0.1889
 4861TIP3    H214548   0.099   1.202   0.880  0.9521 -1.3233 -0.0981
 4862TIP3   OH214549   5.760   5.201   3.396  0.1941  0.6398  0.4216
 4862TIP3    H114550   5.782   5.211   3.489  1.8966  1.0227  0.0188
 4862TIP3    H214551   5.698   5.128   3.394  1.0133 -0.1489  1.7647
 4863TIP3   OH214552   1.902   1.311   3.532  0.1459 -0.6339 -0.2355
 4863TIP3    H114553   1.979   1.262   3.562  0.8680 -0.9750 -2.4907
 4863TIP3    H214554   1.931   1.403   3.535 -0.2056 -0.5486  1.1823
 4864TIP3   OH214555   2.811   3.437   2.847 -0.3005  0.5708 -0.2728
 4864TIP3    H114556   2.790   3.525   2.815 -2.6908  0.0860 -0.1681
 4864TIP3    H214557   2.841   3.389   2.770 -0.4635  1.0425 -0.6299
 4865TIP3   OH214558   2.927   5.039   2.147 -0.3755 -0.1428 -0.3314
 4865TIP3    H114559   2.875   5.072   2.075  0.9597  1.4595 -0.6299
 4865TIP3    H214560   3.012   5.016   2.108 -0.1063 -0.6246  0.4849
 4866TIP3   OH214561   6.934   4.446   0.504  0.3872 -0.4674 -0.4212
 4866TIP3    H114562   6.973   4.386   0.568  0.9714 -0.8843 -1.1476
 4866TIP3    H214563   7.009   4.482   0.456 -0.0743 -1.6361 -2.1515
 4867TIP3   OH214564   7.140   3.178   5.739  0.3066  0.3032  0.8411
 4867TIP3    H114565   7.170   3.146   5.653  0.8281 -0.1749  1.1963
 4867TIP3    H214566   7.202   3.141   5.801  0.9794  2.0256  1.2787
 4868TIP3   OH214567   6.859   1.169   4.244  0.4369 -0.0406 -0.9910
 4868TIP3    H114568   6.834   1.206   4.159 -0.7181  0.6446 -0.3618
 4868TIP3    H214569   6.796   1.205   4.306  0.5968 -1.3800 -0.0034
 4869TIP3   OH214570   1.610   6.511   5.773 -0.0755 -0.4355  0.0970
 4869TIP3    H114571   1.596   6.533   5.865  0.4107 -1.4463  0.4283
 4869TIP3    H214572   1.703   6.525   5.759  0.0019 -1.0535 -0.0209
 4870TIP3   OH214573   0.532   6.261   4.457 -0.2480 -0.2807 -0.5211
 4870TIP3    H114574   0.597   6.328   4.435  1.4952 -0.4600  3.3545
 4870TIP3    H214575   0.581   6.193   4.503 -2.6943 -2.1084 -0.3865
 4871TIP3   OH214576   5.534   0.427   0.455  0.6229  0.5541  0.2901
 4871TIP3    H114577   5.474   0.447   0.527 -1.3557  1.6140 -1.5323
 4871TIP3    H214578   5.614   0.396   0.498 -1.1089 -0.7004  2.8648
 4872TIP3   OH214579   2.670   1.690   1.782 -0.2795  0.3811 -0.2867
 4872TIP3    H114580   2.627   1.773   1.804 -0.6733 -0.1972  1.3270
 4872TIP3    H214581   2.763   1.707   1.794 -0.4195  0.3617  1.0351
 4873TIP3   OH214582   4.900   2.297   0.437 -0.3815  0.5704 -0.1669
 4873TIP3    H114583   4.963   2.243   0.485 -0.3428  1.0500  0.3312
 4873TIP3    H214584   4.888   2.375   0.492  0.1539  1.4355 -1.2390
 4874TIP3   OH214585   5.543   5.565   1.321  0.2725 -0.4668 -0.0881
 4874TIP3    H114586   5.583   5.554   1.235 -0.8508  1.3705 -0.9139
 4874TIP3    H214587   5.453   5.534   1.310  0.0560 -0.0130  0.3454
 4875TIP3   OH214588   3.270   6.318   4.979  0.0753 -0.3584 -0.0456
 4875TIP3    H114589   3.200   6.285   5.036  2.0781 -2.1207  1.5446
 4875TIP3    H214590   3.230   6.320   4.892 -2.1581 -0.5786  0.9018
 4876TIP3   OH214591   0.731   1.105   5.278 -0.2132 -0.0080  0.3003
 4876TIP3    H114592   0.664   1.111   5.210 -0.2684 -0.9959  0.2594
 4876TIP3    H214593   0.728   1.191   5.321 -1.7652 -0.1478  0.5460
 4877TIP3   OH214594   5.307   0.320   4.906 -0.4779 -0.0310 -0.0047
 4877TIP3    H114595   5.276   0.252   4.846  0.6169 -1.0213  0.4924
 4877TIP3    H214596   5.400   0.301   4.917 -0.5688  0.3459  1.7052
 4878TIP3   OH214597   2.360   4.242   4.004  0.1840 -0.2914 -0.3670
 4878TIP3    H114598   2.280   4.260   4.054  0.6389 -1.2755  0.7623
 4878TIP3    H214599   2.425   4.220   4.071  0.5297 -2.7416 -1.4301
 4879TIP3   OH214600   1.726   5.154   2.667  0.2934  0.0525 -0.0750
 4879TIP3    H114601   1.779   5.079   2.695  1.3928 -0.2452 -2.6530
 4879TIP3    H214602   1.750   5.225   2.727 -0.2404 -1.4087  1.9771
 4880TIP3   OH214603   5.180   1.251   3.121  0.7577  0.3034  0.3443
 4880TIP3    H114604   5.253   1.254   3.059 -1.0558 -0.7531 -1.9864
 4880TIP3    H214605   5.120   1.187   3.084 -1.6140  1.5275  1.8596
 4881TIP3   OH214606   6.630   2.343   2.186  0.1711  0.7369  0.0745
 4881TIP3    H114607   6.551   2.396   2.195  0.5952  1.5162 -0.6338
 4881TIP3    H214608   6.673   2.376   2.107  1.0214  0.0833  0.2389
 4882TIP3   OH214609   1.543  -0.026   4.290 -0.4435  0.6906  0.1925
 4882TIP3    H114610   1.617   0.022   4.329  1.2613 -1.1163 -0.6431
 4882TIP3    H214611   1.534   0.011   4.203  0.1307  0.2607 -0.0527
 4883TIP3   OH214612   4.435   6.210   2.160 -0.2006  0.2833 -0.8818
 4883TIP3    H114613   4.455   6.132   2.212 -1.5865 -0.7540 -1.8465
 4883TIP3    H214614   4.519   6.255   2.153  0.6634 -1.1710 -0.3832
 4884TIP3   OH214615   6.307   1.072   4.927 -0.0105 -0.0533 -0.1960
 4884TIP3    H114616   6.290   1.148   4.871  0.1057  0.3838  0.3495
 4884TIP3    H214617   6.400   1.081   4.950 -0.2153  0.1151  0.5686
 4885TIP3   OH214618   2.172   1.709   2.274 -0.4368  0.1507  0.1278
 4885TIP3    H114619   2.125   1.792   2.269  0.2583  0.6295  1.0794
 4885TIP3    H214620   2.105   1.644   2.292 -1.3357  0.0885 -2.9781
 4886TIP3   OH214621   3.839   3.742   4.695 -0.2809  0.3991 -0.1886
 4886TIP3    H114622   3.926   3.770   4.665  0.4889 -0.9538  0.6641
 4886TIP3    H214623   3.802   3.696   4.620 -1.6266  3.5938 -1.6636
 4887TIP3   OH214624   0.354   2.516   3.382  0.4310 -0.3304  0.0126
 4887TIP3    H114625   0.310   2.453   3.439 -0.3273  0.1073 -0.0739
 4887TIP3    H214626   0.366   2.469   3.299  0.1644 -0.4735  0.0524
 4888TIP3   OH214627   2.829   0.873   4.415  0.4164 -0.2735  0.0907
 4888TIP3    H114628   2.907   0.866   4.471 -1.4287 -1.7086  2.7245
 4888TIP3    H214629   2.783   0.790   4.428 -1.9916  0.8688 -0.6088
 4889TIP3   OH214630   2.917   2.431   2.534 -0.7882  0.1892 -0.3090
 4889TIP3    H114631   2.955   2.513   2.502 -2.1405  0.1707 -2.1288
 4889TIP3    H214632   2.864   2.457   2.609  1.6048  0.4018  1.4134
 4890TIP3   OH214633   5.140   0.104   2.473  0.2848 -0.1576  0.4443
 4890TIP3    H114634   5.081   0.164   2.517 -3.3904 -1.9650 -1.5412
 4890TIP3    H214635   5.145   0.028   2.531 -0.4751 -0.5273  0.0409
 4891TIP3   OH214636   5.349   5.065   1.541  0.0898  0.1022  0.0376
 4891TIP3    H114637   5.253   5.065   1.544  0.0742  0.6335 -0.2454
 4891TIP3    H214638   5.370   5.022   1.458  0.0847  0.3085 -0.0717
 4892TIP3   OH214639   3.814   5.600   5.615 -0.0248  0.2506  0.2250
 4892TIP3    H114640   3.799   5.658   5.540  2.3060  2.7960  1.5287
 4892TIP3    H214641   3.761   5.638   5.685  0.8817  0.3510  0.8761
 4893TIP3   OH214642   5.645   2.903   0.087 -0.0117 -0.1815 -0.0905
 4893TIP3    H114643   5.600   2.948   0.159 -0.1409 -1.4928  0.6966
 4893TIP3    H214644   5.703   2.840   0.131 -0.6370 -1.5382 -1.1094
 4894TIP3   OH214645   7.017   1.129   2.781 -0.4103 -0.2052 -0.0874
 4894TIP3    H114646   7.045   1.220   2.768  1.3061 -0.5348  0.9677
 4894TIP3    H214647   6.936   1.136   2.832 -0.7037  0.7432 -0.6648
 4895TIP3   OH214648   4.077   1.657   3.048  0.1515 -0.3375 -0.1521
 4895TIP3    H114649   4.158   1.681   3.093 -0.2192  0.2013  0.2385
 4895TIP3    H214650   4.017   1.633   3.119 -0.5081  0.7267 -0.3365
 4896TIP3   OH214651   7.023   1.124   5.735 -0.0604 -0.1179 -0.6769
 4896TIP3    H114652   6.978   1.060   5.789 -0.6191  0.9638  0.1900
 4896TIP3    H214653   6.954   1.186   5.709  0.7012  0.8960 -0.3292
 4897TIP3   OH214654   3.485   2.378   2.940  0.0827 -0.1377 -0.0755
 4897TIP3    H114655   3.421   2.446   2.961 -0.5456 -0.8311  0.2923
 4897TIP3    H214656   3.466   2.307   3.001  1.2940 -0.3070  0.1329
 4898TIP3   OH214657   7.108   6.114   1.629 -0.3173 -0.0184 -0.2897
 4898TIP3    H114658   7.160   6.194   1.623  0.2288 -0.2927  0.6637
 4898TIP3    H214659   7.167   6.049   1.667 -1.1382 -0.5212  0.1596
 4899TIP3   OH214660   6.622   3.113   0.733 -0.3625  1.0472 -0.0887
 4899TIP3    H114661   6.579   3.197   0.750 -1.4041  0.6152 -0.5218
 4899TIP3    H214662   6.568   3.072   0.665  0.2538  0.1170 -0.0272
 4900TIP3   OH214663   3.639   5.911   0.847  0.3785 -0.3495 -0.1487
 4900TIP3    H114664   3.628   5.854   0.923  2.8596 -0.3007  0.3330
 4900TIP3    H214665   3.573   5.880   0.785 -0.8983 -1.1986  1.5233
 4901TIP3   OH214666   2.883   6.411   5.382  0.2127 -0.1950 -0.0511
 4901TIP3    H114667   2.837   6.330   5.407  0.7917 -0.4254  0.3041
 4901TIP3    H214668   2.825   6.481   5.411 -0.7410 -0.4797 -1.2255
 4902TIP3   OH214669   1.154   0.387   4.550 -0.0826 -0.1450  0.5164
 4902TIP3    H114670   1.174   0.351   4.636 -0.3092 -0.3880  0.4673
 4902TIP3    H214671   1.176   0.317   4.488  0.9066  0.3362  0.3095
 4903TIP3   OH214672   5.889   3.985   2.981 -0.3297 -0.5012  0.6434
 4903TIP3    H114673   5.835   4.064   2.991  1.2145  1.0207 -1.9858
 4903TIP3    H214674   5.827   3.918   2.952 -1.2654  0.4456  0.3648
 4904TIP3   OH214675   3.422   1.782   3.063 -0.3799  0.1603 -0.1823
 4904TIP3    H114676   3.422   1.707   3.123 -1.2183  0.6071  0.4154
 4904TIP3    H214677   3.338   1.776   3.018  1.0342 -1.2835 -2.8297
 4905TIP3   OH214678   4.543   4.843   5.223  0.7674  0.3326  0.4348
 4905TIP3    H114679   4.568   4.756   5.256  0.7565  0.2859  0.3186
 4905TIP3    H214680   4.508   4.888   5.300 -0.2367 -0.1455  0.2733
 4906TIP3   OH214681   5.164   2.283   3.297  0.5975  0.0722  0.4496
 4906TIP3    H114682   5.142   2.376   3.300  0.5061  0.0764 -0.1501
 4906TIP3    H214683   5.204   2.270   3.210  0.9272 -0.3780  0.6611
 4907TIP3   OH214684   1.936   1.252   5.591 -0.2983 -0.2680  0.3510
 4907TIP3    H114685   1.938   1.210   5.677  0.3034 -4.5437 -1.4892
 4907TIP3    H214686   1.868   1.205   5.543  0.6071  0.7251 -2.0518
 4908TIP3   OH214687   6.245   0.006   5.680 -0.8032 -0.4785  0.1961
 4908TIP3    H114688   6.181   0.028   5.748 -1.8133  0.1008 -0.9041
 4908TIP3    H214689   6.192  -0.029   5.608 -0.1043  1.5796 -1.4185
 4909TIP3   OH214690   3.470   6.670   3.888 -0.4506  0.4210  0.4749
 4909TIP3    H114691   3.467   6.720   3.807 -2.1795 -1.4063 -0.6855
 4909TIP3    H214692   3.563   6.665   3.910  0.4009 -1.2379 -2.8745
 4910TIP3   OH214693   6.414   6.604   0.569  0.0742  0.1389 -0.2471
 4910TIP3    H114694   6.439   6.605   0.477 -1.2378  1.3777 -0.6235
 4910TIP3    H214695   6.319   6.594   0.568  0.0613 -0.0724  0.9887
 4911TIP3   OH214696   3.999   4.274   1.249  0.1055 -0.5930 -0.2580
 4911TIP3    H114697   3.934   4.271   1.179 -0.0223  0.2006 -0.1796
 4911TIP3    H214698   4.024   4.366   1.255  2.3933 -1.0831 -1.3442
 4912TIP3   OH214699   3.532   5.043   4.081 -0.0399 -0.3230 -0.3047
 4912TIP3    H114700   3.474   5.099   4.031 -0.2415 -2.0000 -2.1064
 4912TIP3    H214701   3.620   5.071   4.056 -0.1295 -1.7506 -2.4842
 4913TIP3   OH214702   0.116   4.274   3.623  0.5408 -0.2958  0.4069
 4913TIP3    H114703   0.145   4.251   3.711 -1.6582 -2.1797  0.7304
 4913TIP3    H214704   0.030   4.232   3.614  0.0240  1.0785 -2.1100
 4914TIP3   OH214705   3.711   2.812   2.911  0.0421  0.1456  0.3358
 4914TIP3    H114706   3.740   2.747   2.975  0.0261  1.5787  1.8603
 4914TIP3    H214707   3.643   2.862   2.956 -2.5187 -0.9574 -1.9955
 4915TIP3   OH214708   3.862   3.398   2.985  0.4642  0.4770 -0.4615
 4915TIP3    H114709   3.822   3.428   2.903  1.0426 -1.1457 -1.3932
 4915TIP3    H214710   3.946   3.361   2.958  0.1556 -1.1630  0.7030
 4916TIP3   OH214711   5.453   1.828   4.542 -0.3352 -0.1824  0.0865
 4916TIP3    H114712   5.498   1.882   4.477  0.3537 -1.6307 -0.6927
 4916TIP3    H214713   5.468   1.872   4.625  0.0002  0.9327 -0.5480
 4917TIP3   OH214714   2.268   3.316   2.785 -0.3235 -0.0155 -0.0700
 4917TIP3    H114715   2.327   3.266   2.842  1.1144  1.0756 -0.5557
 4917TIP3    H214716   2.287   3.284   2.697 -1.1487 -0.3099 -0.1545
 4918TIP3   OH214717   6.737   2.633   2.382  0.1989  0.1666  0.9782
 4918TIP3    H114718   6.795   2.604   2.312 -0.0953 -0.7596  1.1007
 4918TIP3    H214719   6.686   2.704   2.343 -0.8874 -1.1911 -0.2013
 4919TIP3   OH214720   0.517   3.301   4.375  0.0643 -0.5096  0.0369
 4919TIP3    H114721   0.516   3.209   4.347  1.7904 -1.0714  1.5852
 4919TIP3    H214722   0.606   3.315   4.406 -0.6051  1.2245  1.3347
 4920TIP3   OH214723   4.662   6.635   5.562  0.2523  0.1627  0.2860
 4920TIP3    H114724   4.719   6.562   5.587  0.7933  0.2591 -0.6478
 4920TIP3    H214725   4.590   6.632   5.626 -1.7913 -3.5111 -1.8421
 4921TIP3   OH214726   2.012   0.587   2.631 -0.1306 -0.6680 -0.5646
 4921TIP3    H114727   1.940   0.540   2.589  0.6585 -1.7058 -0.7721
 4921TIP3    H214728   2.050   0.524   2.692  0.1558  0.1047  0.0743
 4922TIP3   OH214729   5.856   1.541   1.560 -0.1692  0.6728  0.7677
 4922TIP3    H114730   5.862   1.633   1.585  0.3257  0.5692  1.0317
 4922TIP3    H214731   5.945   1.507   1.569 -0.7363 -0.4321  3.0462
 4923TIP3   OH214732   3.658   4.306   2.338 -0.3541 -0.7901  0.1165
 4923TIP3    H114733   3.620   4.345   2.259 -0.2331  0.2761  0.5676
 4923TIP3    H214734   3.730   4.253   2.305 -0.3174 -0.3783 -0.4982
 4924TIP3   OH214735   1.984   6.531   0.418 -0.1156 -0.3529 -0.0622
 4924TIP3    H114736   1.917   6.567   0.359 -1.4869 -0.8542  1.1274
 4924TIP3    H214737   1.959   6.562   0.505  0.5557 -1.4677  0.5537
 4925TIP3   OH214738   4.120   3.221   1.853 -0.1764  0.3324  0.4340
 4925TIP3    H114739   4.192   3.245   1.794 -0.2702  0.4194  0.3534
 4925TIP3    H214740   4.062   3.168   1.798  0.2087 -0.3870  0.7081
 4926TIP3   OH214741   4.876   2.410   2.880 -0.3145  0.2958 -0.0895
 4926TIP3    H114742   4.851   2.444   2.966 -0.4257  0.7207 -0.2919
 4926TIP3    H214743   4.966   2.377   2.893 -0.3114  0.4052  0.1734
 4927TIP3   OH214744   3.984   2.878   2.902 -0.1216  0.7192 -0.1822
 4927TIP3    H114745   3.896   2.874   2.939  0.7599  0.1110  2.0162
 4927TIP3    H214746   4.000   2.790   2.868  0.0881  0.4529  0.5883
 4928TIP3   OH214747   4.209   4.097   5.178  0.0424  0.9459  0.4624
 4928TIP3    H114748   4.151   4.109   5.103  1.6563  3.2011 -0.5314
 4928TIP3    H214749   4.295   4.084   5.141  0.6005  0.0656  1.9476
 4929TIP3   OH214750   0.429   1.680   5.084  0.0571  0.4640  0.3637
 4929TIP3    H114751   0.508   1.631   5.104  0.8325  1.5747  0.1137
 4929TIP3    H214752   0.416   1.737   5.159  1.3168  2.5370 -0.9024
 4930TIP3   OH214753   1.969   1.576   1.022 -0.2868  0.1376 -0.1789
 4930TIP3    H114754   1.993   1.656   0.975  1.0791  0.0693  0.3409
 4930TIP3    H214755   1.913   1.607   1.094 -1.5742  0.3481 -1.2391
 4931TIP3   OH214756   6.083   6.279   0.556 -0.1477 -0.2089  0.0763
 4931TIP3    H114757   6.047   6.208   0.504 -0.5827 -0.0763  0.1872
 4931TIP3    H214758   6.025   6.353   0.538 -0.6809 -0.3242  1.2098
 4932TIP3   OH214759   2.343   5.167   4.517 -0.3950  0.3490 -0.3860
 4932TIP3    H114760   2.430   5.143   4.486 -1.1704 -1.8345 -1.0811
 4932TIP3    H214761   2.358   5.238   4.580  1.6361  1.8119 -2.3564
 4933TIP3   OH214762   6.208   5.827   0.595  0.5128 -0.5465  0.3653
 4933TIP3    H114763   6.143   5.870   0.651  1.6483  0.4991  0.9377
 4933TIP3    H214764   6.157   5.772   0.536 -0.8707  0.1125  0.9081
 4934TIP3   OH214765   2.666   2.779   1.626 -0.2410 -0.1888  0.5488
 4934TIP3    H114766   2.577   2.814   1.633  0.3166  1.0434  2.1794
 4934TIP3    H214767   2.682   2.738   1.711  1.1188  0.5734  0.6908
 4935TIP3   OH214768   2.518   0.555   0.537 -0.3686  0.4178 -0.3516
 4935TIP3    H114769   2.556   0.564   0.449 -0.4897 -0.2786 -0.4791
 4935TIP3    H214770   2.537   0.638   0.579  1.1258  0.1730 -0.4814
 4936TIP3   OH214771   6.831   4.240   0.712  0.1753  0.1220 -0.6172
 4936TIP3    H114772   6.855   4.148   0.698 -0.1060 -0.3629  1.6292
 4936TIP3    H214773   6.914   4.288   0.703  0.6343 -0.5797 -0.2656
 4937TIP3   OH214774   2.090   3.666   5.006 -0.1002  0.4931 -0.6966
 4937TIP3    H114775   2.037   3.695   4.932 -0.8850  0.9157  0.0190
 4937TIP3    H214776   2.128   3.583   4.977 -0.0114  0.8775 -1.7434
 4938TIP3   OH214777   5.254   5.164   4.222 -0.3773 -0.6315  0.5539
 4938TIP3    H114778   5.324   5.117   4.268 -1.6701 -1.8335  1.3598
 4938TIP3    H214779   5.300   5.234   4.175  1.3864 -1.5092  0.8722
 4939TIP3   OH214780   5.775   0.962   1.008  0.0534 -0.0201 -0.0563
 4939TIP3    H114781   5.836   0.888   1.007  1.9653  1.4849 -0.2158
 4939TIP3    H214782   5.809   1.021   1.074  1.0189  2.5923 -2.6735
 4940TIP3   OH214783   2.793   2.576   3.276  0.2621 -0.2367 -0.3955
 4940TIP3    H114784   2.804   2.621   3.360 -0.5358 -0.3542 -0.2225
 4940TIP3    H214785   2.699   2.565   3.267  0.2876  0.4062 -1.6511
 4941TIP3   OH214786   0.578   5.778   0.387 -0.0759 -0.2728 -0.0410
 4941TIP3    H114787   0.511   5.845   0.380  0.8610  0.5510 -1.4991
 4941TIP3    H214788   0.533   5.696   0.365 -1.0689 -0.0712  1.1198
 4942TIP3   OH214789   3.374   1.987   4.641 -0.2065  0.0348 -0.3564
 4942TIP3    H114790   3.390   2.012   4.732 -0.3852  0.6560 -0.4917
 4942TIP3    H214791   3.372   1.892   4.642 -0.2036  0.0396  0.2902
 4943TIP3   OH214792   2.936   5.669   0.566  0.2453 -0.0382 -0.0536
 4943TIP3    H114793   2.858   5.678   0.511  1.2557 -0.2650 -1.5495
 4943TIP3    H214794   2.900   5.662   0.655 -1.4828 -0.8541 -0.7597
 4944TIP3   OH214795   3.511   5.772   1.905  0.5455  0.3539 -0.8781
 4944TIP3    H114796   3.573   5.830   1.950  1.1112 -0.3221 -0.7674
 4944TIP3    H214797   3.425   5.801   1.936  0.9490 -0.8884  1.6954
 4945TIP3   OH214798   4.062   5.210   3.693 -0.0871 -0.2980 -0.1325
 4945TIP3    H114799   3.995   5.205   3.625 -1.1681 -1.5760  0.9912
 4945TIP3    H214800   4.116   5.132   3.679  2.4102  1.6020 -2.1715
 4946TIP3   OH214801   4.898   2.841   1.989 -0.1292 -0.1869  0.2868
 4946TIP3    H114802   4.915   2.807   1.901 -0.8521 -0.3566  0.2051
 4946TIP3    H214803   4.810   2.809   2.010  1.5757 -3.9949  2.8760
 4947TIP3   OH214804   1.025   2.314   0.596  0.0733  0.1713 -0.1590
 4947TIP3    H114805   0.951   2.269   0.637 -0.3378 -0.0270 -1.1033
 4947TIP3    H214806   0.990   2.352   0.516  1.0605 -0.1556 -0.7675
 4948TIP3   OH214807   4.027   3.887   1.454  0.1788  0.1533 -0.2214
 4948TIP3    H114808   3.940   3.899   1.490  0.5905  0.9522  0.5270
 4948TIP3    H214809   4.044   3.793   1.462 -0.4239  0.0682  0.0483
 4949TIP3   OH214810   5.978   2.862   2.208 -0.2333  0.0363  0.0386
 4949TIP3    H114811   5.971   2.768   2.224 -1.1031  0.2420  0.9925
 4949TIP3    H214812   6.030   2.895   2.281 -0.1872  0.3313 -0.1285
 4950TIP3   OH214813   3.026   4.464   1.164  0.0080  0.7909  0.0169
 4950TIP3    H114814   3.030   4.395   1.230  0.1043  0.4100 -0.3839
 4950TIP3    H214815   3.103   4.451   1.110 -0.4150  0.6904 -0.5735
 4951TIP3   OH214816   4.775   4.890   4.273  0.1454 -0.2643 -0.9872
 4951TIP3    H114817   4.732   4.920   4.193 -1.7639 -0.7620 -0.2062
 4951TIP3    H214818   4.726   4.811   4.299  0.4053  0.1377  0.8944
 4952TIP3   OH214819   5.182   6.013   0.066 -0.5805  0.5700 -0.0490
 4952TIP3    H114820   5.156   5.957   0.139 -0.8572  1.0034  0.1955
 4952TIP3    H214821   5.207   6.096   0.108  0.4272  0.4323 -0.3493
 4953TIP3   OH214822   6.179   1.754   2.314 -0.2207 -0.2047 -0.2017
 4953TIP3    H114823   6.139   1.687   2.259 -1.9656  0.7467 -0.1398
 4953TIP3    H214824   6.146   1.837   2.280 -0.5626  0.4595  1.6419
 4954TIP3   OH214825   3.267   4.842   3.553 -0.0821  0.6806 -0.1587
 4954TIP3    H114826   3.244   4.787   3.628 -0.2839  2.4765  1.1491
 4954TIP3    H214827   3.345   4.800   3.516 -0.5334 -0.7706  0.4440
 4955TIP3   OH214828   3.856   0.471   5.510 -0.3785 -0.3019  0.7271
 4955TIP3    H114829   3.867   0.397   5.450 -1.6568 -1.2110  1.5557
 4955TIP3    H214830   3.776   0.515   5.479  0.5875  1.0111 -0.0029
 4956TIP3   OH214831   5.657   6.762   4.384  0.3033  0.2286 -0.4505
 4956TIP3    H114832   5.600   6.696   4.423 -0.3493  1.4894  0.8603
 4956TIP3    H214833   5.683   6.817   4.458  1.5077  0.9419 -1.3682
 4957TIP3   OH214834   3.310   5.918   1.671 -0.3491 -0.2813  0.2999
 4957TIP3    H114835   3.257   5.854   1.624  0.0675 -0.5110  0.1334
 4957TIP3    H214836   3.295   5.897   1.764 -1.5575  0.4960  0.2916
 4958TIP3   OH214837   0.837   5.355   2.405 -0.3662 -0.2641  0.3646
 4958TIP3    H114838   0.873   5.392   2.325 -0.0965  0.0599  0.6346
 4958TIP3    H214839   0.747   5.332   2.382 -0.3983  0.1506  0.0711
 4959TIP3   OH214840   6.749   4.819   1.795 -0.6998 -0.3222 -0.3834
 4959TIP3    H114841   6.695   4.822   1.874  1.5875  0.6674  1.2847
 4959TIP3    H214842   6.745   4.908   1.760 -0.3958 -0.3142 -0.4026
 4960TIP3   OH214843   3.285   2.990   4.279  0.6452 -0.3437 -0.1744
 4960TIP3    H114844   3.226   3.063   4.294 -0.4442 -0.8017 -1.9326
 4960TIP3    H214845   3.315   2.964   4.366 -0.2699  1.1007  0.5956
 4961TIP3   OH214846   2.741   1.959   2.053 -0.6436 -0.3558  0.3221
 4961TIP3    H114847   2.804   2.031   2.054 -1.3091  0.2696 -0.5790
 4961TIP3    H214848   2.795   1.880   2.056  0.0707  0.1422  2.3471
 4962TIP3   OH214849   5.984   4.734   3.130  0.1441 -0.4019  0.2341
 4962TIP3    H114850   5.966   4.739   3.036  1.0865  0.0870  0.0600
 4962TIP3    H214851   6.060   4.676   3.137  0.0942 -0.4162  0.6977
 4963TIP3   OH214852   7.053   6.493   0.871  0.0831  0.1712  0.3973
 4963TIP3    H114853   7.038   6.438   0.948  1.5194 -1.6849 -0.5544
 4963TIP3    H214854   7.013   6.444   0.799  1.8540  0.0440 -0.5639
 4964TIP3   OH214855   1.329   4.757   1.489  0.1840  0.2891  0.4179
 4964TIP3    H114856   1.321   4.734   1.396  0.7184 -0.5610  0.5751
 4964TIP3    H214857   1.252   4.811   1.507 -0.5875 -0.5675 -0.2135
 4965TIP3   OH214858   5.346   1.259   0.095 -0.6191  0.0261 -0.0474
 4965TIP3    H114859   5.415   1.277   0.031  0.5289  1.6854  1.5348
 4965TIP3    H214860   5.300   1.342   0.104 -1.2640 -0.4011  0.6868
 4966TIP3   OH214861   4.803   4.373   5.500  0.0464 -0.0878 -0.5643
 4966TIP3    H114862   4.793   4.402   5.591 -0.3171 -0.6286 -0.4246
 4966TIP3    H214863   4.875   4.310   5.502  0.1985  0.0838 -0.6902
 4967TIP3   OH214864   2.977   6.219   0.143  0.1705 -0.2725  0.2116
 4967TIP3    H114865   2.893   6.249   0.177 -0.1204  1.1088 -1.5738
 4967TIP3    H214866   3.035   6.295   0.151  0.3736 -0.2284 -1.2701
 4968TIP3   OH214867   4.448   4.592   4.997 -0.1552 -0.4458 -0.4643
 4968TIP3    H114868   4.502   4.520   4.965  0.1427 -0.4819  0.0948
 4968TIP3    H214869   4.375   4.549   5.042  0.0686 -0.4090 -0.0541
 4969TIP3   OH214870   0.884   3.053   1.174  0.4045  0.6315  0.2492
 4969TIP3    H114871   0.826   3.025   1.103 -0.2606  2.5711 -0.0353
 4969TIP3    H214872   0.856   3.001   1.249 -0.6947  0.4457 -0.2565
 4970TIP3   OH214873   1.442   4.870   4.799  0.1424 -0.7044 -0.3772
 4970TIP3    H114874   1.388   4.796   4.826 -1.9845  1.3620  1.4371
 4970TIP3    H214875   1.484   4.900   4.880  0.6206  0.3566 -1.0007
 4971TIP3   OH214876   1.203   3.060   1.710  0.2544  0.3211  0.2608
 4971TIP3    H114877   1.125   3.006   1.709  0.8511 -0.5627 -0.8239
 4971TIP3    H214878   1.208   3.097   1.621  0.6773  0.9405  0.5350
 4972TIP3   OH214879   1.004   0.014   3.918 -0.2729  0.1114 -0.3392
 4972TIP3    H114880   0.942   0.017   3.845 -1.3440  0.6957  0.5518
 4972TIP3    H214881   0.981   0.090   3.972  0.4256 -0.3459  0.6425
 4973TIP3   OH214882   1.451   2.421   1.423  0.0947  0.2311 -0.2043
 4973TIP3    H114883   1.418   2.501   1.463  0.1159 -0.2151  0.7349
 4973TIP3    H214884   1.407   2.350   1.471 -0.2951 -0.3204 -1.3373
 4974TIP3   OH214885   4.202   6.091   4.064  0.6183  0.0957 -0.5046
 4974TIP3    H114886   4.134   6.141   4.110 -1.6813 -1.4066 -2.0467
 4974TIP3    H214887   4.207   6.008   4.112 -0.2737 -0.6473 -1.6435
 4975TIP3   OH214888   4.944   1.989   5.261 -0.0815 -0.0434 -0.2354
 4975TIP3    H114889   5.005   2.045   5.309 -0.0562 -0.6088  0.4152
 4975TIP3    H214890   4.867   2.043   5.246 -0.0584  0.1639  0.3864
 4976TIP3   OH214891   5.401   0.818   0.764  0.3349  1.4231 -0.8880
 4976TIP3    H114892   5.430   0.907   0.746 -0.7080  1.8274 -0.6581
 4976TIP3    H214893   5.464   0.784   0.828  1.2459  1.6754 -1.6372
 4977TIP3   OH214894   5.278   0.365   2.461 -0.5147  0.0166  0.6700
 4977TIP3    H114895   5.267   0.309   2.538  1.7381  0.5339  1.4302
 4977TIP3    H214896   5.286   0.304   2.387  0.4846 -0.6284  1.2934
 4978TIP3   OH214897   0.884   2.041   5.540 -0.1373 -0.3879 -0.1650
 4978TIP3    H114898   0.877   2.127   5.582 -1.1894 -1.3717  1.8376
 4978TIP3    H214899   0.802   1.997   5.564  0.0699 -1.7090 -1.7515
 4979TIP3   OH214900   2.362   5.953   1.472 -0.4048  0.0687  0.4579
 4979TIP3    H114901   2.448   5.935   1.434  0.2294  2.5551  0.5954
 4979TIP3    H214902   2.321   5.866   1.479  1.9664 -1.1514  0.1739
 4980TIP3   OH214903   1.074   6.292   2.834 -0.0630 -0.6327 -0.4622
 4980TIP3    H114904   0.987   6.258   2.813 -0.3170 -1.2455  1.3810
 4980TIP3    H214905   1.059   6.384   2.857 -0.2418 -0.7602 -0.0620
 4981TIP3   OH214906   6.662   0.145   2.311  0.5679  0.4759 -0.4524
 4981TIP3    H114907   6.587   0.204   2.307  0.0313 -0.1688 -0.1137
 4981TIP3    H214908   6.685   0.142   2.403  3.5159  3.7019 -0.8558
 4982TIP3   OH214909   1.203   1.005   3.270  0.1732 -0.6670 -0.4438
 4982TIP3    H114910   1.169   1.050   3.193  1.5927 -0.8745 -1.2302
 4982TIP3    H214911   1.126   0.990   3.325 -0.8157 -0.1810 -1.6435
 4983TIP3   OH214912   5.841   4.265   5.637  0.3077 -0.1001  0.3905
 4983TIP3    H114913   5.892   4.336   5.674  0.4536  0.0288 -0.0465
 4983TIP3    H214914   5.763   4.307   5.599  0.5822 -0.1220 -0.2090
 4984TIP3   OH214915   4.445   1.537   3.475  0.4138  0.1647 -0.3283
 4984TIP3    H114916   4.468   1.622   3.512  1.2065 -0.6579  1.1482
 4984TIP3    H214917   4.511   1.477   3.509  0.0124 -1.0073 -1.5349
 4985TIP3   OH214918   5.468   6.211   2.987 -0.3606  0.3224 -0.4369
 4985TIP3    H114919   5.410   6.136   2.978 -0.6734  0.4845  0.1631
 4985TIP3    H214920   5.528   6.204   2.913 -0.2870 -0.6013 -0.3040
 4986TIP3   OH214921   6.171   5.539   2.635 -0.7932 -0.2218  0.0607
 4986TIP3    H114922   6.218   5.520   2.716 -1.3926  1.7098  0.9139
 4986TIP3    H214923   6.098   5.478   2.635  0.8962 -2.3893 -0.6486
 4987TIP3   OH214924   3.125   6.059   4.954 -0.2741 -0.7630 -0.4044
 4987TIP3    H114925   3.194   6.117   4.922  0.0738  0.1066  1.7760
 4987TIP3    H214926   3.170   6.001   5.016 -1.3261 -0.7400  0.4109
 4988TIP3   OH214927   3.316   1.927   3.330  0.4086 -0.3852 -1.0197
 4988TIP3    H114928   3.274   2.010   3.355 -1.3888 -1.2740 -0.8758
 4988TIP3    H214929   3.265   1.897   3.255  3.1295  0.1983 -3.2559
 4989TIP3   OH214930   0.669   3.566   3.681  0.3007 -0.5283  0.0399
 4989TIP3    H114931   0.662   3.625   3.606 -0.9512 -0.2375  0.3611
 4989TIP3    H214932   0.626   3.613   3.752  3.0081 -0.0294  1.4531
 4990TIP3   OH214933   4.593   5.796   4.330  0.4867  0.1823  0.3281
 4990TIP3    H114934   4.607   5.877   4.281  1.3060  0.9773  1.8034
 4990TIP3    H214935   4.504   5.804   4.364  0.7910  0.7931  1.0131
 4991TIP3   OH214936   4.447   2.695   0.480 -0.1402  0.5685 -0.3743
 4991TIP3    H114937   4.380   2.762   0.466 -0.0076  0.7422 -0.1887
 4991TIP3    H214938   4.423   2.655   0.564 -0.2021  0.4043 -0.4707
 4992TIP3   OH214939   6.880   1.364   2.568 -0.3794  0.4446  0.6662
 4992TIP3    H114940   6.947   1.343   2.634 -0.5959  0.4756  0.8960
 4992TIP3    H214941   6.892   1.457   2.550  0.9643  0.0551 -0.7772
 4993TIP3   OH214942   0.760   2.017   4.526 -0.3455  0.0267 -0.0136
 4993TIP3    H114943   0.696   2.059   4.583 -0.3581  1.2139 -0.8703
 4993TIP3    H214944   0.836   2.075   4.529  0.9613 -1.6096  1.4009
 4994TIP3   OH214945   5.506   1.033   3.988 -1.0495  0.0865  0.0912
 4994TIP3    H114946   5.430   1.057   4.042  0.1005  0.6096  1.5159
 4994TIP3    H214947   5.564   1.109   3.993 -1.2239  0.5035 -2.5677
 4995TIP3   OH214948   5.507   2.464   0.151 -0.1111  0.5271 -0.3411
 4995TIP3    H114949   5.412   2.474   0.152 -0.0529  1.1352 -0.6697
 4995TIP3    H214950   5.521   2.371   0.132 -0.6265  0.7950 -2.1761
 4996TIP3   OH214951   1.272   3.718   4.224  0.7215  0.6656 -0.1143
 4996TIP3    H114952   1.213   3.774   4.275  1.7991  0.1577  1.8110
 4996TIP3    H214953   1.302   3.774   4.153 -0.2394  1.6896  0.2594
 4997TIP3   OH214954   4.673   4.088   1.120 -0.3378  0.0891  0.4761
 4997TIP3    H114955   4.634   4.170   1.093 -0.4330  0.3559  1.3853
 4997TIP3    H214956   4.624   4.021   1.073 -0.0522  0.5605 -0.5130
 4998TIP3   OH214957   5.856   2.366   2.390 -0.3094  0.0983  0.7077
 4998TIP3    H114958   5.774   2.359   2.341  0.0010 -1.5396  0.3709
 4998TIP3    H214959   5.836   2.325   2.474  0.4531 -1.3188  0.2213
 4999TIP3   OH214960   6.365   0.055   2.330 -0.6575 -0.0268 -0.3363
 4999TIP3    H114961   6.334  -0.024   2.285 -0.6264 -0.2298 -0.0056
 4999TIP3    H214962   6.401   0.023   2.412 -1.9302  0.4774  0.4488
 5000TIP3   OH214963   0.443   1.389   5.125  0.4570  0.4624  0.2137
 5000TIP3    H114964   0.504   1.434   5.183 -0.2760  1.8579 -0.0507
 5000TIP3    H214965   0.392   1.459   5.085 -0.5046 -0.5996 -0.4870
 5001TIP3   OH214966   7.105   2.559   1.052  0.0234  0.6475  0.3130
 5001TIP3    H114967   7.027   2.567   0.998 -0.8361  0.6935  1.5348
 5001TIP3    H214968   7.139   2.648   1.058  1.1162  0.4102 -1.5275
 5002TIP3   OH214969   6.839   2.675   3.062  0.1636 -0.0175  0.5273
 5002TIP3    H114970   6.885   2.729   2.998  0.1418 -1.5016 -0.8065
 5002TIP3    H214971   6.757   2.720   3.079  0.8076  1.1411  0.6588
 5003TIP3   OH214972   4.966   5.664   4.711  0.6950  1.1797 -0.2442
 5003TIP3    H114973   4.991   5.698   4.798  0.4868  0.1361  0.2341
 5003TIP3    H214974   5.049   5.656   4.664  1.4863 -2.4606  1.4092
 5004TIP3   OH214975   4.982   1.895   1.076 -0.2699  0.4145  0.2264
 5004TIP3    H114976   4.939   1.908   1.160  0.2085 -2.2506  0.9909
 5004TIP3    H214977   4.995   1.800   1.071  2.6323  0.8003 -1.3899
 5005TIP3   OH214978   7.074   5.994   5.262 -0.0424  0.1906 -0.3331
 5005TIP3    H114979   7.008   6.061   5.281 -0.6855 -0.6285  0.4404
 5005TIP3    H214980   7.023   5.915   5.246  0.7670 -0.7171  1.3396
 5006TIP3   OH214981   6.405   2.951   4.791  0.3002  0.2555  0.3121
 5006TIP3    H114982   6.442   3.031   4.753 -0.5379  2.3543  3.4441
 5006TIP3    H214983   6.311   2.959   4.775  0.2050 -0.0321  0.7269
 5007TIP3   OH214984   6.458   6.087   0.948  0.5154  0.1073 -0.4012
 5007TIP3    H114985   6.548   6.070   0.977 -0.4126 -2.6883  1.2868
 5007TIP3    H214986   6.429   6.004   0.910 -1.5701  0.7090 -0.2636
 5008TIP3   OH214987   5.230   0.925   2.892 -0.2284 -0.2076 -0.4005
 5008TIP3    H114988   5.213   0.990   2.825 -0.7462  0.4425  0.3460
 5008TIP3    H214989   5.205   0.967   2.974  1.7181 -0.4543  0.3783
 5009TIP3   OH214990   0.726   5.763   4.925 -0.6957  0.3965 -0.5371
 5009TIP3    H114991   0.772   5.788   5.005 -0.3890 -0.3191 -0.4838
 5009TIP3    H214992   0.749   5.832   4.862 -1.9452  1.6445  0.3296
 5010TIP3   OH214993   6.992   0.233   0.764  0.1627 -0.0191  0.1271
 5010TIP3    H114994   7.063   0.274   0.715  1.0822  1.4315  2.4962
 5010TIP3    H214995   6.965   0.299   0.828 -2.2482 -1.1192  0.3742
 5011TIP3   OH214996   2.969   6.505   3.228  0.0113 -0.0149  0.5860
 5011TIP3    H114997   2.948   6.572   3.293  0.6552 -0.3182  1.1122
 5011TIP3    H214998   2.901   6.438   3.239 -0.2274  0.2201  0.5352
 5012TIP3   OH214999   1.497   5.183   1.042  0.0842 -0.1807  0.0232
 5012TIP3    H115000   1.484   5.092   1.016 -2.7585  0.6651 -2.0342
 5012TIP3    H215001   1.581   5.207   1.003  1.7788 -2.2816  2.0778
 5013TIP3   OH215002   1.041   2.166   4.209 -0.1357 -0.2149  0.3983
 5013TIP3    H115003   1.118   2.157   4.153  1.4384  0.4319  2.2972
 5013TIP3    H215004   0.969   2.127   4.160  0.8956  1.2334 -2.4393
 5014TIP3   OH215005   4.188   1.451   0.103 -1.0171 -0.1093 -0.6716
 5014TIP3    H115006   4.159   1.378   0.158  3.3534 -2.0217 -0.4872
 5014TIP3    H215007   4.175   1.419   0.013 -0.2779 -0.6604 -0.5976
 5015TIP3   OH215008   3.195   4.771   1.761  0.3209 -0.7547 -0.2210
 5015TIP3    H115009   3.152   4.857   1.763  0.4223 -0.7048 -0.1695
 5015TIP3    H215010   3.130   4.711   1.796  0.3914 -0.6333  0.1232
 5016TIP3   OH215011   6.756   3.584   4.596 -0.4502 -0.0125  0.1474
 5016TIP3    H115012   6.763   3.677   4.576 -0.2566 -0.2244 -0.8188
 5016TIP3    H215013   6.799   3.575   4.681 -0.8521  0.8442  0.4477
 5017TIP3   OH215014   5.910   2.412   1.569 -0.5823  0.3688 -0.4561
 5017TIP3    H115015   5.948   2.329   1.598  0.2018  0.8901  0.0583
 5017TIP3    H215016   5.839   2.387   1.510 -1.2734 -0.7006  0.7682
 5018TIP3   OH215017   3.909   0.922   0.164 -0.1462  0.6575  0.2196
 5018TIP3    H115018   3.851   0.854   0.129 -0.0398  0.3559  0.6282
 5018TIP3    H215019   3.911   0.989   0.095  2.2575 -1.1291 -1.6268
 5019TIP3   OH215020   6.188   0.930   5.213 -0.1990 -0.1951  0.0666
 5019TIP3    H115021   6.227   0.959   5.296  1.8560 -0.3302 -0.7828
 5019TIP3    H215022   6.139   1.006   5.182  0.6948  0.5662  0.4572
 5020TIP3   OH215023   2.685   3.749   0.974 -0.4361 -0.0826 -0.5393
 5020TIP3    H115024   2.709   3.789   0.890  1.5031  2.0454  0.9217
 5020TIP3    H215025   2.664   3.823   1.031 -0.7408 -1.4043  1.1544
 5021TIP3   OH215026   5.461   5.043   5.531  0.1106 -0.5247  0.0340
 5021TIP3    H115027   5.537   5.071   5.583  0.8803 -1.8435 -0.3455
 5021TIP3    H215028   5.480   5.075   5.443 -1.5645  2.4101  0.6181
 5022TIP3   OH215029   2.091   6.672   1.838  0.4663  0.0509 -0.2488
 5022TIP3    H115030   2.132   6.694   1.921  0.7415 -0.5155 -0.2321
 5022TIP3    H215031   2.160   6.630   1.787  0.1647 -0.0503 -0.5805
 5023TIP3   OH215032   1.380   4.860   3.536 -0.2963 -0.1608 -0.3358
 5023TIP3    H115033   1.352   4.857   3.628 -4.0611  2.1806 -1.1859
 5023TIP3    H215034   1.333   4.787   3.495 -0.5885  0.3088 -0.8317
 5024TIP3   OH215035   4.977   2.600   4.198  0.2621  0.0660 -0.8218
 5024TIP3    H115036   4.893   2.566   4.166  0.3549 -0.6292 -0.3431
 5024TIP3    H215037   4.993   2.552   4.279  1.0515  0.3098 -0.8279
 5025TIP3   OH215038   0.538   0.704   1.660  1.0143  0.4915  0.5305
 5025TIP3    H115039   0.460   0.682   1.712  1.0567 -3.0951 -0.6602
 5025TIP3    H215040   0.512   0.780   1.609 -2.3856 -1.4450 -0.9487
 5026TIP3   OH215041   3.635   1.198   1.599  0.6264 -0.1206 -0.0724
 5026TIP3    H115042   3.659   1.108   1.622  1.1341  0.4176  1.6196
 5026TIP3    H215043   3.702   1.252   1.640  1.5129  0.9794 -2.7670
 5027TIP3   OH215044   1.640   6.721   2.215  0.1417  0.0028 -0.2497
 5027TIP3    H115045   1.591   6.685   2.289  1.7026  2.2325  2.0366
 5027TIP3    H215046   1.576   6.776   2.169 -0.2250  0.7289  1.0738
 5028TIP3   OH215047   2.187   3.792   2.948 -0.7098 -0.0294  0.2036
 5028TIP3    H115048   2.275   3.755   2.956 -0.4394  0.5123 -0.2099
 5028TIP3    H215049   2.187   3.837   2.864 -1.2907  0.2224  0.3327
 5029TIP3   OH215050   5.206   6.353   3.453 -0.2766  0.4920 -0.3257
 5029TIP3    H115051   5.114   6.346   3.480  0.0623 -2.6787  0.3076
 5029TIP3    H215052   5.252   6.380   3.532 -0.4509  0.4268 -0.2003
 5030TIP3   OH215053   6.093   1.781   0.991 -0.1103  0.4339  0.5795
 5030TIP3    H115054   6.048   1.827   0.920 -0.1396 -2.3175 -1.3483
 5030TIP3    H215055   6.022   1.744   1.045 -0.2422 -1.5557 -0.8549
 5031TIP3   OH215056   0.418   3.219   1.946 -0.5130  0.2875  0.3438
 5031TIP3    H115057   0.411   3.314   1.941 -1.7699  0.2421  0.9594
 5031TIP3    H215058   0.452   3.202   2.034  1.0516  0.2052 -0.2487
 5032TIP3   OH215059   5.397   1.865   5.526  0.1525  0.1157  0.2278
 5032TIP3    H115060   5.311   1.888   5.491  0.0698  0.9272  0.9264
 5032TIP3    H215061   5.455   1.865   5.450 -0.3478  0.1580 -0.1597
 5033TIP3   OH215062   4.453   3.885   1.442 -0.5903 -0.2325 -0.3506
 5033TIP3    H115063   4.391   3.932   1.387  0.5182 -0.0325 -1.4917
 5033TIP3    H215064   4.468   3.802   1.395  0.1699 -0.1776 -0.2177
 5034TIP3   OH215065   5.464   3.674   0.678  0.2766 -0.5038 -0.1897
 5034TIP3    H115066   5.415   3.741   0.632  0.5219 -0.1345  0.0822
 5034TIP3    H215067   5.512   3.721   0.746  0.4212 -0.9568  0.0284
 5035TIP3   OH215068   1.919   2.875   4.671 -0.2016  0.3977  0.3936
 5035TIP3    H115069   2.006   2.915   4.673 -0.7042  1.6280 -0.7538
 5035TIP3    H215070   1.925   2.809   4.602  0.5305 -1.3541  2.0595
 5036TIP3   OH215071   4.975   5.976   2.084  0.0699 -0.1217  0.2577
 5036TIP3    H115072   4.970   5.922   2.005 -2.0676  1.6827 -0.9721
 5036TIP3    H215073   5.016   5.919   2.149  0.6474 -2.1661 -1.7501
 5037TIP3   OH215074   0.178   5.787   3.703  0.7418  0.1014  0.3806
 5037TIP3    H115075   0.179   5.712   3.763  1.4272 -1.8642 -1.9401
 5037TIP3    H215076   0.267   5.821   3.707  0.7628  0.0328  0.5183
 5038TIP3   OH215077   6.360   2.208   2.315  0.4553 -0.5330 -0.1506
 5038TIP3    H115078   6.384   2.211   2.222  2.2683  1.3624  0.3032
 5038TIP3    H215079   6.279   2.259   2.320 -0.2470 -1.5393 -0.8013
 5039TIP3   OH215080   4.613   4.467   2.943 -0.6960 -0.4930 -0.3002
 5039TIP3    H115081   4.667   4.541   2.917 -2.3307  0.8816  0.0630
 5039TIP3    H215082   4.672   4.391   2.937  1.2448  0.9085  0.0558
 5040TIP3   OH215083   0.255   3.087   4.400 -0.5457 -0.3554 -0.1263
 5040TIP3    H115084   0.260   3.040   4.483 -0.5874 -1.8401 -0.9313
 5040TIP3    H215085   0.222   3.174   4.423  1.9046  0.1827  1.7175
 5041TIP3   OH215086   5.350   3.227   3.428  0.2750 -0.2123  0.2315
 5041TIP3    H115087   5.440   3.200   3.442  0.6434  1.7863  2.4537
 5041TIP3    H215088   5.320   3.256   3.514 -1.5536  1.7745 -0.9684
 5042TIP3   OH215089   1.594   1.969   5.834  0.4462 -0.4573  0.5586
 5042TIP3    H115090   1.553   2.004   5.913 -0.3690 -0.1170 -0.0085
 5042TIP3    H215091   1.664   1.912   5.867  0.1102 -0.3321  1.5206
 5043TIP3   OH215092   1.298   2.272   3.116 -0.6234  0.5945  0.9809
 5043TIP3    H115093   1.204   2.268   3.133 -0.2706 -0.9791  2.9262
 5043TIP3    H215094   1.311   2.216   3.040 -1.0998 -0.6125  1.7562
 5044TIP3   OH215095   1.073   4.551   0.478  0.3447 -0.3270 -0.5701
 5044TIP3    H115096   1.144   4.489   0.497  0.0986 -0.7864 -1.1075
 5044TIP3    H215097   1.002   4.524   0.535 -0.3123 -1.5582 -1.8932
 5045TIP3   OH215098   2.480   0.459   3.614  0.0986  0.2812  0.5494
 5045TIP3    H115099   2.441   0.542   3.642 -3.4266 -0.7689 -0.6422
 5045TIP3    H215100   2.493   0.409   3.695 -1.2083  0.6910  1.0319
 5046TIP3   OH215101   3.289   0.396   0.049 -0.0639  0.0364 -0.3326
 5046TIP3    H115102   3.282   0.463  -0.019 -1.1217 -0.2635 -0.5414
 5046TIP3    H215103   3.264   0.314   0.006  2.9252 -0.8694 -0.5503
 5047TIP3   OH215104   2.276   0.414   1.429 -0.5845 -0.0895 -0.6522
 5047TIP3    H115105   2.269   0.338   1.486  0.2300 -1.2717 -2.0380
 5047TIP3    H215106   2.369   0.437   1.431 -0.5753 -0.0382 -1.3180
 5048TIP3   OH215107   6.166   5.170   2.043 -0.0089 -0.1487  0.2434
 5048TIP3    H115108   6.260   5.181   2.029  0.3373  0.3077  2.5289
 5048TIP3    H215109   6.126   5.243   1.996  0.7024 -0.6585 -1.2048
 5049TIP3   OH215110   1.080   5.229   0.138 -0.3725 -0.0065  0.1960
 5049TIP3    H115111   1.055   5.210   0.048 -0.3541 -1.0963  0.4059
 5049TIP3    H215112   1.059   5.322   0.150  1.7907  0.7948 -1.6245
 5050TIP3   OH215113   6.307   3.145   3.842 -0.2528 -0.2883  0.2818
 5050TIP3    H115114   6.260   3.101   3.771 -0.1149 -0.5415  0.3469
 5050TIP3    H215115   6.330   3.075   3.903 -0.1508 -0.1071  0.4515
 5051TIP3   OH215116   2.286   2.148   4.937  0.5036 -0.0321  0.4185
 5051TIP3    H115117   2.301   2.180   5.026 -0.7262  4.4443 -0.7233
 5051TIP3    H215118   2.193   2.126   4.935  0.0677  1.7591 -0.1865
 5052TIP3   OH215119   6.952   2.003   1.446  0.1348 -0.1680 -0.1356
 5052TIP3    H115120   6.880   1.960   1.492 -0.0400 -2.5860 -2.4286
 5052TIP3    H215121   6.935   2.097   1.456 -2.4380 -0.6564  0.7168
 5053TIP3   OH215122   5.056   3.775   3.273 -0.0385  0.2894 -0.0645
 5053TIP3    H115123   5.052   3.709   3.203  0.7641  0.3552 -0.1724
 5053TIP3    H215124   4.973   3.823   3.264  0.3751  0.7824 -1.4537
 5054TIP3   OH215125   4.827   2.304   1.383 -0.2097  0.0431 -0.2605
 5054TIP3    H115126   4.789   2.256   1.310 -0.8400  0.5427 -0.2722
 5054TIP3    H215127   4.855   2.388   1.345  2.9016 -1.0539 -0.7424
 5055TIP3   OH215128   6.796   0.693   4.369  0.0308  0.6291 -0.0611
 5055TIP3    H115129   6.830   0.774   4.332 -0.8664  0.0894 -2.1891
 5055TIP3    H215130   6.701   0.701   4.360 -0.0337 -1.5557 -2.4958
 5056TIP3   OH215131   6.708   2.253   2.946  0.1376  0.2370 -0.2929
 5056TIP3    H115132   6.788   2.303   2.936 -0.0646  0.5224 -0.4842
 5056TIP3    H215133   6.731   2.183   3.008  0.1609  1.1472  0.7676
 5057TIP3   OH215134   6.015   5.974   0.730  0.1985  0.4052 -0.1911
 5057TIP3    H115135   5.965   5.903   0.770 -0.4365  0.9973  0.0863
 5057TIP3    H215136   5.952   6.020   0.675  0.8021  0.2641 -1.0166
 5058TIP3   OH215137   0.568   4.309   0.332 -0.3422  0.6910 -0.0979
 5058TIP3    H115138   0.627   4.362   0.279  1.4076  0.4291  1.4633
 5058TIP3    H215139   0.626   4.264   0.394 -2.0934 -0.5052  0.7535
 5059TIP3   OH215140   6.881   4.386   3.713  0.3860 -0.4041 -0.3552
 5059TIP3    H115141   6.839   4.406   3.629 -1.7281 -0.1907  0.6857
 5059TIP3    H215142   6.892   4.471   3.755 -0.0300 -0.6289  0.2230
 5060TIP3   OH215143   1.896   0.988   3.641 -0.5246 -0.3788  0.2507
 5060TIP3    H115144   1.926   0.907   3.683  0.3261  0.1307  0.6506
 5060TIP3    H215145   1.859   1.040   3.712  0.1845  0.1484  0.2484
 5061TIP3   OH215146   2.696   3.023   1.137 -0.2838  0.0071 -0.6168
 5061TIP3    H115147   2.645   3.069   1.204 -0.6199  1.0278 -1.5489
 5061TIP3    H215148   2.682   3.073   1.057  1.1003 -0.4716 -1.1949
 5062TIP3   OH215149   5.121   3.835   2.060  0.1701  0.1690  0.4560
 5062TIP3    H115150   5.049   3.773   2.056  1.3181 -1.1299 -0.9502
 5062TIP3    H215151   5.089   3.912   2.013 -0.0757 -0.6679 -0.7857
 5063TIP3   OH215152   6.281   6.692   1.049 -0.4040  0.0807  0.2706
 5063TIP3    H115153   6.287   6.653   1.137  1.7247 -0.4047 -0.0309
 5063TIP3    H215154   6.316   6.780   1.060 -1.0208  0.3494  0.0813
 5064TIP3   OH215155   0.638   3.743   3.146 -0.1442 -0.4670 -0.1174
 5064TIP3    H115156   0.608   3.657   3.177 -2.9285  1.1241  2.1269
 5064TIP3    H215157   0.670   3.787   3.225  0.1194  1.0016 -0.9970
 5065TIP3   OH215158   1.543   0.692   0.730 -0.2170  0.1712  0.5608
 5065TIP3    H115159   1.472   0.753   0.747  0.2928  0.6787  0.9006
 5065TIP3    H215160   1.539   0.676   0.635 -0.0841  1.0732  0.3992
 5066TIP3   OH215161   1.980   3.066   4.274 -0.4743 -0.2281  0.6712
 5066TIP3    H115162   2.007   2.995   4.216  0.7353 -0.4373  1.4552
 5066TIP3    H215163   1.885   3.056   4.282 -0.8062  0.2906 -1.8696
 5067TIP3   OH215164   4.095   1.357   5.256 -0.0713 -0.0435  0.5998
 5067TIP3    H115165   4.045   1.396   5.183 -1.2421 -0.1366  1.3256
 5067TIP3    H215166   4.067   1.407   5.333 -0.0058 -0.9511  1.2195
 5068TIP3   OH215167   2.821   4.950   4.723 -0.1058 -0.2828  0.0422
 5068TIP3    H115168   2.861   4.948   4.810 -0.1107  0.2420  0.0580
 5068TIP3    H215169   2.795   5.041   4.710 -0.0712 -0.3481 -0.5260
 5069TIP3   OH215170   4.043   4.158   4.965  0.2203 -0.4681  0.2599
 5069TIP3    H115171   3.960   4.116   4.943  0.3347 -0.5631  0.0013
 5069TIP3    H215172   4.110   4.100   4.928  0.3571  0.3943 -0.9160
 5070TIP3   OH215173   1.397   4.426   3.680 -0.5837  0.1769  0.4443
 5070TIP3    H115174   1.449   4.346   3.677 -1.7332 -0.6219  1.0251
 5070TIP3    H215175   1.425   4.469   3.761 -0.5124 -0.0317  0.5327
 5071TIP3   OH215176   4.612   5.585   1.891 -0.1582  0.0668  0.4278
 5071TIP3    H115177   4.614   5.502   1.938  3.2579  0.1859  0.7456
 5071TIP3    H215178   4.552   5.570   1.817  0.2348 -2.6175  0.5652
 5072TIP3   OH215179   4.990   0.189   0.868  0.3551 -0.2494 -0.0987
 5072TIP3    H115180   4.992   0.205   0.774  0.4789  1.5485  0.1604
 5072TIP3    H215181   5.074   0.148   0.887  0.8176  0.4213 -0.6333
 5073TIP3   OH215182   1.988   0.681   5.772  0.6471 -0.4599 -0.1826
 5073TIP3    H115183   1.967   0.589   5.791 -0.0206 -0.6157 -1.4862
 5073TIP3    H215184   2.062   0.676   5.712  1.5001 -0.0782  0.8213
 5074TIP3   OH215185   0.654   4.983   0.860  0.0502  0.1806 -0.0923
 5074TIP3    H115186   0.559   4.986   0.854  0.0037  0.0664  0.4785
 5074TIP3    H215187   0.679   5.072   0.887 -0.0347 -0.2057  1.3339
 5075TIP3   OH215188   2.872   0.098   5.903  0.1793  0.6829  0.4995
 5075TIP3    H115189   2.926   0.086   5.825 -0.1526  2.5532 -0.0744
 5075TIP3    H215190   2.802   0.033   5.894  1.0618 -0.2406  0.1107
 5076TIP3   OH215191   5.317   6.080   5.561  0.4711  0.3216 -0.4661
 5076TIP3    H115192   5.336   6.012   5.497 -0.6015 -0.4060 -0.0368
 5076TIP3    H215193   5.378   6.064   5.633 -1.1225 -1.5106  0.5606
 5077TIP3   OH215194   4.665   2.740   4.938 -0.4621  0.2207  0.6788
 5077TIP3    H115195   4.721   2.752   4.861 -0.6106  0.3724  0.5939
 5077TIP3    H215196   4.625   2.826   4.952 -2.9124 -0.5364 -0.9864
 5078TIP3   OH215197   2.646   2.916   0.344  0.1851  0.1619  0.1537
 5078TIP3    H115198   2.683   2.993   0.301 -1.9925  1.0700 -0.2420
 5078TIP3    H215199   2.676   2.842   0.292  2.7606  0.6236  0.8372
 5079TIP3   OH215200   0.624   2.588   4.777  0.1089 -0.7374 -0.0094
 5079TIP3    H115201   0.689   2.590   4.706 -0.3582 -0.0322 -0.4344
 5079TIP3    H215202   0.548   2.544   4.740  0.3654 -1.6471  0.5186
 5080TIP3   OH215203   6.896   0.053   0.169 -1.1239 -0.0777 -0.1858
 5080TIP3    H115204   6.985   0.086   0.173 -1.2652  0.3813 -0.6768
 5080TIP3    H215205   6.868   0.069   0.079 -2.5736  2.1580  0.5586
 5081TIP3   OH215206   6.921   6.313   5.619 -0.3185  0.9282 -0.0644
 5081TIP3    H115207   6.935   6.405   5.641 -0.7459  1.0844 -0.4244
 5081TIP3    H215208   6.954   6.264   5.695  1.5805  1.2879 -0.6200
 5082TIP3   OH215209   5.410   0.257   4.520  0.4279 -0.1379  0.3500
 5082TIP3    H115210   5.482   0.206   4.485  1.5783  1.5544  0.1092
 5082TIP3    H215211   5.434   0.348   4.501 -1.1516  0.5483  1.4198
 5083TIP3   OH215212   6.841   1.240   1.559  0.0841 -0.0601  0.2417
 5083TIP3    H115213   6.813   1.304   1.494 -2.2990 -0.8852  0.3467
 5083TIP3    H215214   6.907   1.286   1.611 -0.7000  1.9125 -0.4118
 5084TIP3   OH215215   5.854   5.515   2.001  0.0512  0.4414  0.6240
 5084TIP3    H115216   5.899   5.536   2.083  1.7000 -0.6090  0.0293
 5084TIP3    H215217   5.785   5.455   2.026 -0.7082  1.6294  1.4819
 5085TIP3   OH215218   3.232   1.080   4.803  0.5012  0.3416  0.0853
 5085TIP3    H115219   3.311   1.064   4.854  1.6923  1.2952 -1.3662
 5085TIP3    H215220   3.250   1.042   4.717 -0.7918  0.2156 -0.1583
 5086TIP3   OH215221   6.390   5.251   0.230  0.0352  0.5228  0.0525
 5086TIP3    H115222   6.414   5.241   0.322  0.5477  2.6596  0.1952
 5086TIP3    H215223   6.430   5.334   0.203 -0.4032  0.1273 -2.0032
 5087TIP3   OH215224   1.941   5.792   1.402 -0.2770  0.2478  0.0963
 5087TIP3    H115225   1.980   5.706   1.395 -0.6531  0.0854 -0.0661
 5087TIP3    H215226   1.954   5.831   1.315  0.0191  0.4109  0.2127
 5088TIP3   OH215227   2.676   2.805   3.066  0.1031 -0.5074 -0.0275
 5088TIP3    H115228   2.623   2.824   3.143  2.1187  0.7062  1.1286
 5088TIP3    H215229   2.701   2.714   3.076 -0.5743 -0.6841  0.1397
 5089TIP3   OH215230   3.570   3.814   3.333 -0.0655 -0.2482 -1.1095
 5089TIP3    H115231   3.571   3.890   3.391  0.3958 -0.5933 -0.6554
 5089TIP3    H215232   3.490   3.824   3.282 -0.5729 -0.0287 -0.2847
 5090TIP3   OH215233   4.881   5.817   3.661 -0.4692  0.0322  0.1498
 5090TIP3    H115234   4.931   5.792   3.739 -0.7520 -1.8294 -0.2237
 5090TIP3    H215235   4.790   5.797   3.684 -0.4255 -1.8316 -1.0715
 5091TIP3   OH215236   6.342   2.243   2.584  0.1638 -0.6620 -0.0221
 5091TIP3    H115237   6.363   2.233   2.491 -1.7217  0.1360 -0.5713
 5091TIP3    H215238   6.312   2.157   2.611  2.0333 -1.2741  0.2551
 5092TIP3   OH215239   5.506   3.278   2.811 -0.3499  0.4123  0.1020
 5092TIP3    H115240   5.508   3.219   2.886 -0.2531  0.4970  0.1662
 5092TIP3    H215241   5.449   3.234   2.747 -0.4366  0.3442  0.2271
 5093TIP3   OH215242   6.950   4.002   0.321  0.3984 -0.3689 -0.3697
 5093TIP3    H115243   6.863   3.993   0.282  0.1993  0.8720 -0.2484
 5093TIP3    H215244   6.978   4.090   0.297  0.9024 -0.1282  0.9989
 5094TIP3   OH215245   6.364   2.465   5.500  0.6441  0.1789 -0.4193
 5094TIP3    H115246   6.324   2.551   5.514  2.8403  1.2408 -0.1586
 5094TIP3    H215247   6.363   2.424   5.587 -2.0350 -0.8826 -0.8792
 5095TIP3   OH215248   4.747   0.550   3.984  0.7932  0.2732  0.6699
 5095TIP3    H115249   4.777   0.462   3.960  0.4264  0.3388 -0.0532
 5095TIP3    H215250   4.725   0.592   3.901 -1.0966  0.2880  1.1268
 5096TIP3   OH215251   1.842   6.045   2.311 -0.3176  0.9693  0.2648
 5096TIP3    H115252   1.885   6.101   2.246 -2.0318  2.1871  0.1213
 5096TIP3    H215253   1.864   6.085   2.396  0.6911  0.2433  0.3642
 5097TIP3   OH215254   0.781   3.699   1.216  0.3509  0.5763 -0.1750
 5097TIP3    H115255   0.845   3.645   1.261  0.7428 -0.8752 -2.3389
 5097TIP3    H215256   0.829   3.779   1.193  1.2498 -0.2638 -1.2886
 5098TIP3   OH215257   0.110   0.939   4.190  0.4079  0.2964  0.6992
 5098TIP3    H115258   0.057   1.016   4.211  0.2160  1.4848 -3.3446
 5098TIP3    H215259   0.055   0.865   4.212 -1.1011  1.4225  0.8586
 5099TIP3   OH215260   0.622   1.572   1.994 -0.1090  0.1273 -0.2448
 5099TIP3    H115261   0.665   1.512   1.934  0.7150  1.3301 -0.8869
 5099TIP3    H215262   0.556   1.617   1.941  2.1748  2.8878 -0.9612
 5100TIP3   OH215263   0.175   1.427   2.077 -0.1267  0.7844  0.1706
 5100TIP3    H115264   0.168   1.362   2.006  0.3351 -0.4372  1.2126
 5100TIP3    H215265   0.267   1.423   2.104  0.8754  4.3851 -2.0057
 5101TIP3   OH215266   0.413   4.430   5.035 -0.4257 -0.0654  0.2912
 5101TIP3    H115267   0.485   4.459   4.979  0.0255 -0.0394  0.8739
 5101TIP3    H215268   0.341   4.415   4.975 -0.5145  1.7226 -0.1176
 5102TIP3   OH215269   1.364   3.038   2.780  0.3389 -0.0372 -0.0343
 5102TIP3    H115270   1.421   3.110   2.755 -0.9734  1.3324  0.7945
 5102TIP3    H215271   1.413   2.959   2.754  2.0027  1.1047 -0.5373
 5103TIP3   OH215272   5.958   0.238   1.828 -0.8336  0.2437  0.3944
 5103TIP3    H115273   5.935   0.162   1.775  1.7152 -0.5701  0.3014
 5103TIP3    H215274   5.888   0.245   1.893 -2.5089 -0.5115 -1.2444
 5104TIP3   OH215275   6.723   6.005   2.220 -0.0589  0.4350  0.6302
 5104TIP3    H115276   6.775   5.927   2.238 -0.0879  0.2431 -0.0735
 5104TIP3    H215277   6.712   6.047   2.305  2.3947  1.2111  0.6424
 5105TIP3   OH215278   7.199   3.261   3.574  0.2855  0.0090  0.1592
 5105TIP3    H115279   7.148   3.306   3.507  0.6306  0.4847  0.2138
 5105TIP3    H215280   7.239   3.331   3.626  0.0432 -0.3493  0.8520
 5106TIP3   OH215281   2.334   3.646   4.662  0.3896  0.2861 -0.0589
 5106TIP3    H115282   2.407   3.622   4.719  0.7661  4.0702  1.3932
 5106TIP3    H215283   2.258   3.646   4.720  0.3371  1.8272 -0.0810
 5107TIP3   OH215284   0.597   2.812   5.264  0.0359 -0.0364 -0.6350
 5107TIP3    H115285   0.587   2.764   5.346  1.3244 -0.2733 -0.6099
 5107TIP3    H215286   0.542   2.764   5.202  0.6661 -1.0789 -0.4106
 5108TIP3   OH215287   4.504   0.092   5.443  0.9006  0.3363 -0.0610
 5108TIP3    H115288   4.436   0.048   5.495  1.0633 -0.0835 -0.1999
 5108TIP3    H215289   4.556   0.140   5.507  1.1359 -0.2288  0.1700
 5109TIP3   OH215290   4.129   6.489   1.392  0.1925 -0.1248  0.0710
 5109TIP3    H115291   4.090   6.475   1.478 -0.4355  0.5146 -0.1027
 5109TIP3    H215292   4.071   6.442   1.332  0.1125  0.1970 -0.1051
 5110TIP3   OH215293   6.681   2.122   1.686  0.2933  0.1765 -0.0710
 5110TIP3    H115294   6.698   2.107   1.779  1.9630  3.1891  0.2438
 5110TIP3    H215295   6.705   2.040   1.643  0.3474 -0.9766  2.0412
 5111TIP3   OH215296   2.659   1.118   2.352 -0.8379  0.5353  0.4924
 5111TIP3    H115297   2.728   1.163   2.303 -1.2280  1.3103  0.6280
 5111TIP3    H215298   2.653   1.166   2.435  1.3356 -2.0697  2.3526
 5112TIP3   OH215299   4.428   1.283   0.399 -0.3026 -0.0234  0.1936
 5112TIP3    H115300   4.367   1.210   0.413 -1.0088  0.7840  1.7038
 5112TIP3    H215301   4.432   1.326   0.485  1.6817  0.5150 -0.1354
 5113TIP3   OH215302   0.034   6.665   0.963 -0.4207  0.2442 -0.1541
 5113TIP3    H115303  -0.042   6.615   0.933 -0.3463 -0.6059  1.0100
 5113TIP3    H215304   0.099   6.599   0.986  0.6228  0.9500 -0.9220
 5114TIP3   OH215305   4.762   4.455   4.100 -0.1118  0.0112  0.0333
 5114TIP3    H115306   4.738   4.505   4.178 -0.5629  0.3724 -0.3288
 5114TIP3    H215307   4.722   4.369   4.112 -0.5334  0.2047  0.0048
 5115TIP3   OH215308   3.627   4.004   3.521 -0.0546 -0.1545  0.0678
 5115TIP3    H115309   3.634   4.026   3.614  1.9980 -1.4106  0.2648
 5115TIP3    H215310   3.704   4.044   3.480  0.2302 -1.3885 -0.6840
 5116TIP3   OH215311   6.966   6.510   1.547 -0.3188  0.0672 -0.0147
 5116TIP3    H115312   7.057   6.517   1.520 -0.4169 -2.4568 -1.2860
 5116TIP3    H215313   6.969   6.463   1.631 -0.4444 -0.3941 -0.2636
 5117TIP3   OH215314   1.323   2.847   5.758  0.5007  0.6908 -0.3455
 5117TIP3    H115315   1.334   2.802   5.842  0.8783  2.1728  0.4339
 5117TIP3    H215316   1.239   2.893   5.766 -0.9386 -1.4732 -1.9365
 5118TIP3   OH215317   4.703   3.684   3.828  0.1691 -0.1090  0.0689
 5118TIP3    H115318   4.713   3.664   3.735  0.1865 -0.9214  0.2345
 5118TIP3    H215319   4.643   3.758   3.831 -0.1040 -0.3017 -0.5752
 5119TIP3   OH215320   4.307   4.412   5.206 -0.3023  0.1316 -0.3976
 5119TIP3    H115321   4.329   4.343   5.144 -5.3312 -1.7621 -0.4893
 5119TIP3    H215322   4.296   4.367   5.289 -0.1381  1.5283  0.4197
 5120TIP3   OH215323   6.208   1.111   1.555  0.0420  0.5530 -0.2641
 5120TIP3    H115324   6.263   1.101   1.632 -1.8934 -0.3218  1.0730
 5120TIP3    H215325   6.237   1.193   1.515  2.3788  0.0473  0.2606
 5121TIP3   OH215326   4.059   6.493   0.295  0.1222 -0.0521  0.1186
 5121TIP3    H115327   4.131   6.523   0.239  0.7452 -1.1695  0.2774
 5121TIP3    H215328   4.042   6.404   0.265  0.8826 -0.8987  2.0616
 5122TIP3   OH215329   4.256   2.241   2.846  0.1027  0.3937 -0.0415
 5122TIP3    H115330   4.313   2.170   2.875 -2.1782 -1.5485 -0.0279
 5122TIP3    H215331   4.247   2.297   2.924  0.8561 -0.0138  0.3519
 5123TIP3   OH215332   0.506   4.796   0.337 -0.0274 -0.3045  0.3220
 5123TIP3    H115333   0.573   4.793   0.269 -1.2418 -0.0546 -0.9219
 5123TIP3    H215334   0.440   4.733   0.310 -0.2967 -0.5853  1.5504
 5124TIP3   OH215335   6.956   6.290   5.052  0.0600 -0.0173 -0.0296
 5124TIP3    H115336   6.886   6.255   5.107 -0.0880 -0.1638 -0.3110
 5124TIP3    H215337   6.959   6.383   5.073  0.0553 -0.0849  0.2831
 5125TIP3   OH215338   5.527   1.507   3.757 -0.0253 -0.2670 -0.0333
 5125TIP3    H115339   5.608   1.463   3.732  1.3403  2.7183 -1.3484
 5125TIP3    H215340   5.553   1.570   3.823 -0.9306  1.7064 -1.4487
 5126TIP3   OH215341   7.080   5.034   0.739  0.4610 -0.0121  0.4219
 5126TIP3    H115342   7.074   4.942   0.716  0.3784 -0.7561  3.1219
 5126TIP3    H215343   7.160   5.041   0.792  1.2872  1.7970 -0.9157
 5127TIP3   OH215344   3.918   0.720   0.377 -0.3499  0.3628  0.0022
 5127TIP3    H115345   3.936   0.798   0.326 -0.3544  1.4662  1.6192
 5127TIP3    H215346   3.878   0.659   0.315 -0.1468  1.5535 -1.3374
 5128TIP3   OH215347   3.403   3.871   1.956  0.2961  0.0531 -0.2842
 5128TIP3    H115348   3.409   3.951   1.903  0.7330 -0.5120 -1.0989
 5128TIP3    H215349   3.367   3.901   2.039  0.6425  1.1373 -0.5076
 5129TIP3   OH215350   4.209   1.765   5.816  0.4607  0.8710 -0.0729
 5129TIP3    H115351   4.207   1.672   5.836  2.7819  0.7080 -0.3527
 5129TIP3    H215352   4.225   1.808   5.899  0.9990  0.8927 -0.1863
 5130TIP3   OH215353   3.413   2.004   4.243  0.0638  0.0628  0.2729
 5130TIP3    H115354   3.386   2.034   4.156  0.3856 -0.5118 -0.0289
 5130TIP3    H215355   3.475   2.071   4.272  0.6349 -0.1957 -0.3219
 5131TIP3   OH215356   0.972   6.005   5.663 -0.1609 -0.1759 -0.2960
 5131TIP3    H115357   1.002   6.095   5.678  1.2482 -0.8646  1.4463
 5131TIP3    H215358   1.028   5.952   5.720 -0.7635 -2.1986 -1.4969
 5132TIP3   OH215359   3.932   1.501   5.450 -0.2767 -0.0366  0.2178
 5132TIP3    H115360   3.912   1.578   5.503 -0.3996 -0.0168  0.1452
 5132TIP3    H215361   3.879   1.431   5.489 -0.0050 -0.1325  0.4116
 5133TIP3   OH215362   5.617   0.949   1.840 -0.4400  0.3681 -0.1367
 5133TIP3    H115363   5.658   0.903   1.767  0.9763  1.6766 -0.2235
 5133TIP3    H215364   5.536   0.984   1.803 -0.0386  0.5029 -0.9255
 5134TIP3   OH215365   4.927   1.553   4.991 -0.3016 -0.1576 -0.1844
 5134TIP3    H115366   4.901   1.539   5.082 -1.1232  0.4486 -0.3170
 5134TIP3    H215367   4.910   1.646   4.975  2.7813  0.5300 -0.0339
 5135TIP3   OH215368   3.845   6.490   4.592 -0.0233 -0.6254  0.1172
 5135TIP3    H115369   3.906   6.547   4.545  0.8449 -0.6682  1.1351
 5135TIP3    H215370   3.761   6.535   4.587  0.6007  0.6541  0.7059
 5136TIP3   OH215371   5.516   2.689   0.454 -0.3709  0.4200 -0.0598
 5136TIP3    H115372   5.452   2.729   0.395  1.1117  2.2680 -0.5111
 5136TIP3    H215373   5.580   2.758   0.471  0.3310 -0.6738  2.1546
 5137TIP3   OH215374   2.393   2.150   1.885 -0.4356  0.3393 -0.2339
 5137TIP3    H115375   2.328   2.192   1.941 -0.5422  0.6560 -0.5968
 5137TIP3    H215376   2.394   2.202   1.805  0.8803  0.8725  0.0890
 5138TIP3   OH215377   6.129   4.843   2.632  0.6420  0.1255 -0.2540
 5138TIP3    H115378   6.132   4.807   2.543 -0.6171 -0.5159 -0.0505
 5138TIP3    H215379   6.084   4.777   2.684  1.1685  0.5920  0.8335
 5139TIP3   OH215380   2.537   0.249   5.295 -0.3421  0.0161  0.1098
 5139TIP3    H115381   2.572   0.321   5.243  0.5981  0.0785  0.8000
 5139TIP3    H215382   2.504   0.187   5.230  0.9829 -0.0031 -0.5950
 5140TIP3   OH215383   2.122   1.133   4.947 -0.0381 -0.4481 -0.1083
 5140TIP3    H115384   2.207   1.175   4.932  0.3715 -0.6006  1.5498
 5140TIP3    H215385   2.058   1.200   4.924  0.5533 -0.0401 -0.6012
 5141TIP3   OH215386   3.792   3.509   1.330 -0.5208 -0.6304 -0.0775
 5141TIP3    H115387   3.800   3.599   1.361  0.6412 -0.2656 -1.3540
 5141TIP3    H215388   3.832   3.456   1.399  0.6465  0.0277 -0.2307
 5142TIP3   OH215389   5.707   4.915   2.710 -0.3545 -0.3479 -0.3008
 5142TIP3    H115390   5.614   4.927   2.730 -0.2213 -0.6561  0.5586
 5142TIP3    H215391   5.741   4.865   2.784  0.4231 -0.5496 -0.7809
 5143TIP3   OH215392   2.373   6.158   2.373  0.5160 -0.5114 -0.0052
 5143TIP3    H115393   2.376   6.247   2.340 -2.2090 -0.2413  0.2687
 5143TIP3    H215394   2.349   6.105   2.297 -0.6157 -0.5917  0.3867
 5144TIP3   OH215395   0.860   1.822   5.324  0.4153  0.3673  0.4530
 5144TIP3    H115396   0.881   1.862   5.409 -1.0753  2.0175  0.1076
 5144TIP3    H215397   0.795   1.881   5.286 -0.9352 -1.7641 -0.6929
 5145TIP3   OH215398   6.276   1.853   1.314  0.4958 -0.1707  0.5306
 5145TIP3    H115399   6.304   1.855   1.223  0.2041 -0.1556  0.4384
 5145TIP3    H215400   6.269   1.945   1.340 -0.1878 -0.1564  0.3222
 5146TIP3   OH215401   1.204   2.344   4.896 -0.2721 -0.1363 -0.5161
 5146TIP3    H115402   1.155   2.263   4.888  1.2174 -1.0982 -0.2342
 5146TIP3    H215403   1.170   2.385   4.976 -1.2119 -0.3364 -0.8011
 5147TIP3   OH215404   6.957   4.839   3.347 -0.2147  0.0403  0.4956
 5147TIP3    H115405   6.945   4.753   3.306 -0.6201  0.8631 -1.1643
 5147TIP3    H215406   7.045   4.834   3.385 -0.5982 -1.4284  1.2909
 5148TIP3   OH215407   1.187   0.118   1.199 -0.0765 -0.2200  0.1516
 5148TIP3    H115408   1.276   0.129   1.164 -0.3317  1.1880 -0.1257
 5148TIP3    H215409   1.195   0.136   1.292  0.0117 -0.5702  0.2119
 5149TIP3   OH215410   0.024   0.508   5.664 -1.1474 -0.2848 -0.4430
 5149TIP3    H115411   0.090   0.445   5.692 -2.4796 -0.2369  3.3082
 5149TIP3    H215412  -0.059   0.469   5.690 -2.1106  2.3820  0.8344
 5150TIP3   OH215413   6.683   4.668   4.070  0.5211 -0.4225 -0.8070
 5150TIP3    H115414   6.736   4.652   3.992 -0.5610 -4.6701 -0.8960
 5150TIP3    H215415   6.735   4.635   4.143 -1.2632 -3.4597 -0.7540
 5151TIP3   OH215416   4.378   2.748   5.795 -0.0191  0.1873 -0.1721
 5151TIP3    H115417   4.464   2.788   5.801 -1.2569  3.0373  0.4242
 5151TIP3    H215418   4.383   2.689   5.719  2.3480  0.3964 -0.2381
 5152TIP3   OH215419   6.023   5.017   0.579 -0.9727 -0.4713 -0.2294
 5152TIP3    H115420   5.976   5.044   0.658  0.0959 -0.1057  0.3041
 5152TIP3    H215421   6.080   5.091   0.559 -0.1701 -1.1457 -0.4854
 5153TIP3   OH215422   4.142   3.575   2.478 -0.3703  0.1473  0.2086
 5153TIP3    H115423   4.122   3.567   2.572  1.2145  0.9243  0.6393
 5153TIP3    H215424   4.118   3.665   2.456  0.7457  0.4638  0.2592
 5154TIP3   OH215425   3.238   6.661   0.549 -0.2843 -0.0154 -0.2669
 5154TIP3    H115426   3.237   6.691   0.640  1.0403  0.0801 -0.2598
 5154TIP3    H215427   3.331   6.649   0.529 -0.5550 -0.0364 -1.6083
 5155TIP3   OH215428   1.900   1.513   2.046 -0.6238 -0.3638 -1.0008
 5155TIP3    H115429   1.920   1.514   2.140  0.1114  1.7934 -1.1382
 5155TIP3    H215430   1.985   1.511   2.003 -0.8228  1.8361 -1.5882
 5156TIP3   OH215431   0.199   3.392   0.481  0.4222  0.8449 -0.3134
 5156TIP3    H115432   0.283   3.347   0.493  0.2373  0.3907 -0.6775
 5156TIP3    H215433   0.137   3.341   0.532  0.2368  0.7645 -0.6129
 5157TIP3   OH215434   6.955   3.533   2.427 -0.6334  0.0923  0.0660
 5157TIP3    H115435   6.906   3.580   2.360  0.7295 -0.8996 -1.7067
 5157TIP3    H215436   6.999   3.601   2.478 -0.3442  0.8160 -1.1299
 5158TIP3   OH215437   2.393   1.769   5.451 -0.2419  0.6503 -0.1082
 5158TIP3    H115438   2.386   1.676   5.430  0.0079  0.6514 -0.1974
 5158TIP3    H215439   2.463   1.802   5.394  1.5280  0.3441  1.7729
 5159TIP3   OH215440   0.590   0.984   0.536 -0.0921 -0.2907  0.2873
 5159TIP3    H115441   0.652   1.002   0.606  0.7144 -0.9543 -0.2316
 5159TIP3    H215442   0.630   1.020   0.458 -0.6854 -0.1253  0.0490
 5160TIP3   OH215443   0.545   5.880   2.152 -0.4690 -0.3815 -0.2786
 5160TIP3    H115444   0.640   5.891   2.141 -0.0192 -1.5496  1.8336
 5160TIP3    H215445   0.530   5.786   2.139 -1.3284 -0.2174 -0.5460
 5161TIP3   OH215446   4.357   2.189   4.329 -0.1611 -0.3146 -0.0047
 5161TIP3    H115447   4.408   2.223   4.403 -0.2411 -1.3279  0.5388
 5161TIP3    H215448   4.289   2.135   4.370  0.6630 -2.0587 -0.8452
 5162TIP3   OH215449   4.064   3.794   4.557  0.4803 -0.1350  1.2115
 5162TIP3    H115450   4.036   3.810   4.467 -0.3168  0.9207  1.6235
 5162TIP3    H215451   4.083   3.701   4.560  0.7540 -0.1414 -0.1072
 5163TIP3   OH215452   1.452   2.620   3.539  0.5305  0.5373 -0.6381
 5163TIP3    H115453   1.502   2.600   3.618  1.1026 -0.9056 -1.3244
 5163TIP3    H215454   1.384   2.680   3.569 -0.6494 -1.6278  1.4566
 5164TIP3   OH215455   1.189   5.410   4.782  0.8733 -0.4807  0.1486
 5164TIP3    H115456   1.265   5.385   4.835  1.2426 -1.4602 -0.8202
 5164TIP3    H215457   1.185   5.345   4.712  0.0841  0.4902 -0.7428
 5165TIP3   OH215458   2.018   1.429   0.158 -0.6813  0.3931  0.3625
 5165TIP3    H115459   1.970   1.428   0.075 -0.7226 -2.9437  0.3186
 5165TIP3    H215460   1.951   1.414   0.225 -0.3317  0.7983  0.8129
 5166TIP3   OH215461   6.676   0.699   4.720 -0.2134  0.5301 -0.2028
 5166TIP3    H115462   6.651   0.755   4.646 -0.4165  0.7124  0.0025
 5166TIP3    H215463   6.761   0.733   4.748  1.0117 -1.0060 -1.8325
 5167TIP3   OH215464   2.145   4.872   3.556 -0.2130 -0.3572  0.1615
 5167TIP3    H115465   2.183   4.798   3.509 -0.3736 -0.3906  0.0822
 5167TIP3    H215466   2.092   4.832   3.625 -1.0446 -0.3474 -0.4499
 5168TIP3   OH215467   5.085   1.677   0.637 -0.1966  0.3815 -0.2456
 5168TIP3    H115468   5.006   1.647   0.681  0.3746 -3.0233 -1.1853
 5168TIP3    H215469   5.141   1.710   0.707 -1.9137  1.6870  0.5698
 5169TIP3   OH215470   2.662   1.644   2.456  0.2005 -0.4433 -0.0953
 5169TIP3    H115471   2.681   1.732   2.486 -0.0011 -0.6589  0.6920
 5169TIP3    H215472   2.621   1.601   2.531  2.2951 -1.9088  0.2970
 5170TIP3   OH215473   6.060   2.658   1.280 -0.2625  0.1688  0.0666
 5170TIP3    H115474   6.106   2.576   1.301 -0.5341 -0.1168 -0.4433
 5170TIP3    H215475   6.022   2.642   1.194  0.5314  1.1934 -0.4970
 5171TIP3   OH215476   4.669   3.324   2.128  0.0060 -0.2174  0.2939
 5171TIP3    H115477   4.634   3.375   2.201 -0.2309  1.2538 -0.8048
 5171TIP3    H215478   4.674   3.235   2.161  2.1248  0.7355  2.9110
 5172TIP3   OH215479   2.005   1.959   4.357  0.7281 -0.4455  0.1679
 5172TIP3    H115480   1.922   1.913   4.368  1.3554 -1.7157 -0.1233
 5172TIP3    H215481   2.056   1.901   4.300  1.7087  0.4309  0.1350
 5173TIP3   OH215482   5.348   4.038   0.143 -0.4870  0.4121  0.0923
 5173TIP3    H115483   5.316   4.038   0.053 -0.8609  2.6724  0.1668
 5173TIP3    H215484   5.430   4.086   0.139  1.7915 -3.0844  0.3390
 5174TIP3   OH215485   1.557   2.596   0.794 -0.0534 -0.6675  0.4247
 5174TIP3    H115486   1.513   2.645   0.725 -1.1904 -0.0453  1.5545
 5174TIP3    H215487   1.494   2.595   0.867  0.3998 -2.7959  0.8550
 5175TIP3   OH215488   2.697   5.578   3.317 -0.3392 -0.1347 -0.3352
 5175TIP3    H115489   2.700   5.660   3.266 -0.3842 -1.3900 -2.4679
 5175TIP3    H215490   2.608   5.545   3.304  0.0293 -1.1040 -0.4573
 5176TIP3   OH215491   4.981   1.367   3.690 -0.0657  0.2739  0.4768
 5176TIP3    H115492   5.004   1.332   3.604 -0.9266  1.1103 -0.1258
 5176TIP3    H215493   5.016   1.304   3.753  1.9256  0.4200 -0.4234
 5177TIP3   OH215494   1.878   5.774   0.822  0.3657 -0.5033  0.6606
 5177TIP3    H115495   1.931   5.699   0.847 -1.0806 -1.2116  1.8006
 5177TIP3    H215496   1.796   5.736   0.791  0.5021  0.5511 -1.1135
 5178TIP3   OH215497   0.137   2.814   3.808  1.2455 -0.4104  0.1919
 5178TIP3    H115498   0.161   2.845   3.896 -1.8390  0.8060  0.7086
 5178TIP3    H215499   0.141   2.719   3.815  3.9235 -0.3397  0.7036
 5179TIP3   OH215500   5.706   2.244   4.572 -0.1060 -0.1657  0.7428
 5179TIP3    H115501   5.798   2.262   4.555  0.1077 -1.4705  0.4022
 5179TIP3    H215502   5.669   2.221   4.487 -1.0232  1.3782  0.6838
 5180TIP3   OH215503   0.124   4.562   3.698 -0.2723  0.2621 -0.4157
 5180TIP3    H115504   0.118   4.511   3.618 -0.0250 -0.1031 -0.2018
 5180TIP3    H215505   0.218   4.577   3.710 -0.3733  1.2376 -0.7742
 5181TIP3   OH215506   6.971   5.611   2.082 -0.8738  0.4554  0.1542
 5181TIP3    H115507   6.946   5.544   2.018 -1.9670 -0.5652  1.5882
 5181TIP3    H215508   7.067   5.604   2.088 -1.0634 -2.0579  1.3434
 5182TIP3   OH215509   0.004   6.021   4.927  0.0067 -0.5355 -0.0591
 5182TIP3    H115510   0.067   6.047   4.860 -0.0750 -0.0202  0.0587
 5182TIP3    H215511   0.015   6.087   4.996  0.1218 -1.0837  0.4552
 5183TIP3   OH215512   3.967   3.619   4.236  0.2706 -0.7466 -0.3961
 5183TIP3    H115513   4.046   3.657   4.197 -0.0385  0.5411  0.1841
 5183TIP3    H215514   3.920   3.694   4.272 -0.9134 -1.5748 -0.1830
 5184TIP3   OH215515   3.112   1.778   1.608  0.4296 -0.3285  0.3171
 5184TIP3    H115516   3.200   1.741   1.603  0.0124 -1.3137 -0.0063
 5184TIP3    H215517   3.113   1.851   1.546  1.1592 -0.0263  0.6819
 5185TIP3   OH215518   3.875   5.098   3.505  0.6243 -0.0429 -0.0266
 5185TIP3    H115519   3.847   5.155   3.433  1.5907 -0.5317 -0.8218
 5185TIP3    H215520   3.910   5.021   3.461  2.4927  0.2223  0.9155
 5186TIP3   OH215521   4.275   3.108   3.318  0.2946  0.0148 -0.0556
 5186TIP3    H115522   4.246   3.171   3.253 -0.1273 -0.2647 -0.1404
 5186TIP3    H215523   4.344   3.154   3.367  1.1405 -0.0164 -1.1629
 5187TIP3   OH215524   4.057   4.968   0.301 -0.3909  0.2095 -0.0404
 5187TIP3    H115525   4.041   4.967   0.396 -1.3106 -0.5592 -0.1964
 5187TIP3    H215526   4.001   5.037   0.268  0.9450  1.4277  0.1194
 5188TIP3   OH215527   0.190   0.079   0.486 -0.6080  0.2466  0.1796
 5188TIP3    H115528   0.110   0.124   0.510 -1.5449 -1.3158  0.1216
 5188TIP3    H215529   0.193   0.002   0.544 -0.6570 -1.2577 -1.7185
 5189TIP3   OH215530   3.187   0.828   2.699 -0.2031  0.1914 -0.3253
 5189TIP3    H115531   3.115   0.882   2.733 -0.5795  0.4156 -1.4093
 5189TIP3    H215532   3.259   0.889   2.686 -0.0876  0.1222 -0.0109
 5190TIP3   OH215533   7.050   2.843   3.421 -0.1301 -0.2521  0.3057
 5190TIP3    H115534   7.008   2.929   3.410  0.3045 -0.1996 -1.1653
 5190TIP3    H215535   7.034   2.798   3.339  0.7344 -1.1087  0.5911
 5191TIP3   OH215536   0.793   0.459   0.615  0.0789 -0.4059 -0.2061
 5191TIP3    H115537   0.787   0.553   0.627 -2.5551 -0.1352 -2.6997
 5191TIP3    H215538   0.806   0.425   0.704 -1.3341  2.1712  1.1106
 5192TIP3   OH215539   1.867   2.580   4.213  0.4208  0.2832 -0.4553
 5192TIP3    H115540   1.932   2.549   4.277 -0.4553 -0.8703 -0.0914
 5192TIP3    H215541   1.783   2.567   4.257 -0.0592  1.9498 -0.8406
 5193TIP3   OH215542   3.009   6.071   2.152 -0.3001 -0.1792  0.5429
 5193TIP3    H115543   2.967   6.060   2.067  0.3437  0.7734  0.0892
 5193TIP3    H215544   2.974   6.000   2.205 -0.1503 -1.2629 -0.7408
 5194TIP3   OH215545   4.195   5.226   0.425 -0.0144 -0.0838 -0.2355
 5194TIP3    H115546   4.104   5.197   0.427  0.3903 -1.4162 -0.3801
 5194TIP3    H215547   4.246   5.146   0.429  1.1786  0.6903  0.6938
 5195TIP3   OH215548   1.494   5.780   2.344  0.1917  0.4917  0.1912
 5195TIP3    H115549   1.555   5.853   2.352 -0.2782  0.7469  1.8283
 5195TIP3    H215550   1.423   5.801   2.405 -1.2687 -0.0659 -1.2324
 5196TIP3   OH215551   5.830   1.774   5.485 -0.1086  0.3471 -0.6336
 5196TIP3    H115552   5.801   1.860   5.455 -0.8561  0.3953  0.2041
 5196TIP3    H215553   5.925   1.775   5.475 -0.0222  1.5951  0.2054
 5197TIP3   OH215554   1.795   4.977   1.235 -0.4088 -0.6023 -0.3009
 5197TIP3    H115555   1.788   5.022   1.320 -0.6892  2.3660 -1.7824
 5197TIP3    H215556   1.708   4.940   1.221 -0.4749 -0.7844  0.4953
 5198TIP3   OH215557   2.067   5.768   3.519  0.4763  0.3067  1.0472
 5198TIP3    H115558   2.158   5.792   3.536  0.4658  0.6593  0.6211
 5198TIP3    H215559   2.047   5.701   3.584  1.0828  0.1365  1.0615
 5199TIP3   OH215560   2.184   2.938   5.399  0.2019  0.0136 -0.0132
 5199TIP3    H115561   2.260   2.895   5.359 -0.2904 -0.3271 -0.5867
 5199TIP3    H215562   2.168   2.886   5.478  1.8688  1.3586  1.2861
 5200TIP3   OH215563   3.525   5.840   0.605  0.5874 -0.2418  0.3714
 5200TIP3    H115564   3.509   5.782   0.530  0.2021 -0.1607  0.3899
 5200TIP3    H215565   3.562   5.919   0.567  0.2851 -0.1564  0.2534
 5201TIP3   OH215566   0.813   4.301   0.234  0.5461  0.1073 -0.6141
 5201TIP3    H115567   0.907   4.287   0.249  0.8277  0.6276 -1.7505
 5201TIP3    H215568   0.805   4.395   0.219 -0.5110  0.4395  1.6552
 5202TIP3   OH215569   4.905   2.363   3.391  0.3005 -0.3880  0.5431
 5202TIP3    H115570   4.955   2.283   3.377  2.5386  0.9061  0.5679
 5202TIP3    H215571   4.943   2.401   3.471 -0.4200  0.8810  0.3040
 5203TIP3   OH215572   2.728   4.506   4.819  0.3735 -0.1129  0.1403
 5203TIP3    H115573   2.672   4.430   4.831 -1.0819  0.4466 -2.3199
 5203TIP3    H215574   2.805   4.489   4.873  0.1846 -3.3967 -0.4423
 5204TIP3   OH215575   3.003   4.741   5.272  1.0428 -0.1496 -0.4013
 5204TIP3    H115576   3.050   4.686   5.209  0.7396  0.0380 -0.8016
 5204TIP3    H215577   2.949   4.680   5.321  0.6648 -0.2115 -0.8831
 5205TIP3   OH215578   5.977   3.926   0.998  0.1910 -0.2793  0.0568
 5205TIP3    H115579   5.896   3.876   0.988 -1.5550  2.5134 -1.2705
 5205TIP3    H215580   5.983   3.978   0.917  1.3930  2.1336  1.5680
 5206TIP3   OH215581   1.505   6.139   1.676 -0.0871  0.1614  0.0908
 5206TIP3    H115582   1.425   6.150   1.728 -0.4802 -1.6388 -0.0414
 5206TIP3    H215583   1.558   6.078   1.728  0.6935  0.4264 -0.3796
 5207TIP3   OH215584   5.022   3.133   1.188  0.1248 -0.1246 -1.1179
 5207TIP3    H115585   4.992   3.193   1.256 -0.0080 -1.8324  0.3865
 5207TIP3    H215586   5.117   3.148   1.183  0.4369 -1.2095  0.7533
 5208TIP3   OH215587   5.320   5.088   3.119 -0.2569 -0.1960 -0.0733
 5208TIP3    H115588   5.392   5.091   3.056  1.5972 -0.1125  1.9344
 5208TIP3    H215589   5.279   5.003   3.104  0.5534 -0.4495 -0.9449
 5209TIP3   OH215590   5.218   2.385   1.902 -0.3609 -0.4034  0.4929
 5209TIP3    H115591   5.230   2.334   1.822 -0.8287  0.8871 -0.4335
 5209TIP3    H215592   5.150   2.339   1.951 -0.3332 -1.0016 -0.0305
 5210TIP3   OH215593   1.579   0.408   5.760 -0.0582  0.1538 -0.0223
 5210TIP3    H115594   1.619   0.332   5.718 -0.5441  0.4575 -1.0814
 5210TIP3    H215595   1.490   0.411   5.724 -0.2240  0.8988  0.4317
 5211TIP3   OH215596   6.546   3.367   4.668 -0.2648  0.5263  0.2943
 5211TIP3    H115597   6.630   3.355   4.624 -1.0086 -0.7610 -0.8434
 5211TIP3    H215598   6.539   3.461   4.682  1.5333  0.6191  0.7642
 5212TIP3   OH215599   2.101   5.907   4.518  0.2129  0.5018  0.1662
 5212TIP3    H115600   2.022   5.860   4.544  0.3705 -0.0310 -0.3096
 5212TIP3    H215601   2.075   5.999   4.518 -0.8276  0.2383 -1.3758
 5213TIP3   OH215602   5.553   5.904   5.286 -0.1467  0.2677 -0.0010
 5213TIP3    H115603   5.510   5.989   5.291 -1.5940 -0.4607  0.3575
 5213TIP3    H215604   5.580   5.896   5.195  0.9302  1.5305  0.1849
 5214TIP3   OH215605   6.188   5.142   0.987 -0.3166  0.8641 -0.0860
 5214TIP3    H115606   6.236   5.169   0.908  1.1136  0.4090  0.5925
 5214TIP3    H215607   6.158   5.054   0.968  0.4074  0.5842  0.0210
 5215TIP3   OH215608   5.391   1.828   1.107  0.3256  1.0415 -0.0496
 5215TIP3    H115609   5.396   1.796   1.197 -2.5135 -1.1889 -0.5389
 5215TIP3    H215610   5.483   1.841   1.081  1.3221 -0.3018  2.4442
 5216TIP3   OH215611   1.483   2.643   4.975 -0.2131 -0.0439 -0.6269
 5216TIP3    H115612   1.551   2.600   5.026 -0.0326 -0.2713 -1.0546
 5216TIP3    H215613   1.503   2.621   4.884  1.7175  3.4126 -1.2217
 5217TIP3   OH215614   3.585   4.813   0.779  0.2489  0.1601 -0.2018
 5217TIP3    H115615   3.570   4.731   0.824  0.6757  0.1119 -0.1420
 5217TIP3    H215616   3.548   4.880   0.836  0.8916  0.1108  0.2801
 5218TIP3   OH215617   4.697   5.593   2.440 -1.0338  0.1798  0.3443
 5218TIP3    H115618   4.701   5.672   2.386 -0.3327 -1.1227 -1.6187
 5218TIP3    H215619   4.782   5.591   2.485 -1.4405  1.0283  1.1867
 5219TIP3   OH215620   1.371   3.525   2.537  0.2512  0.5001  0.3895
 5219TIP3    H115621   1.369   3.445   2.484 -0.2357  0.4989  0.4008
 5219TIP3    H215622   1.457   3.524   2.580 -0.2443 -0.6934  1.4077
 5220TIP3   OH215623   2.062   2.042   1.412 -0.1952  0.1121 -0.1744
 5220TIP3    H115624   2.047   1.964   1.464  0.9446  0.3684  0.5780
 5220TIP3    H215625   2.001   2.034   1.339 -1.2220 -0.6793  0.7311
 5221TIP3   OH215626   4.960   3.797   1.734 -0.4057 -0.0380 -0.1107
 5221TIP3    H115627   4.981   3.733   1.667  0.3783  0.8720 -0.7540
 5221TIP3    H215628   4.955   3.746   1.815 -1.3854 -1.1477 -0.8400
 5222TIP3   OH215629   3.737   0.917   1.644  0.1405 -0.3261 -0.1266
 5222TIP3    H115630   3.708   0.849   1.704 -0.9768  2.9909  3.5006
 5222TIP3    H215631   3.829   0.898   1.628 -0.1180 -2.6105  0.7831
 5223TIP3   OH215632   1.663   0.414   0.342  0.1393 -0.1217  0.5662
 5223TIP3    H115633   1.643   0.398   0.250 -0.4388  0.6577  0.5340
 5223TIP3    H215634   1.756   0.438   0.343 -0.1869  1.3324 -0.0496
 5224TIP3   OH215635   0.965   2.019   0.415 -0.1573 -0.3601 -0.3736
 5224TIP3    H115636   0.974   2.103   0.369 -0.0698  0.5567  1.2283
 5224TIP3    H215637   0.968   2.043   0.508 -0.7646 -2.0858  0.1184
 5225TIP3   OH215638   0.326   4.347   1.887 -0.3541 -0.5731 -0.4479
 5225TIP3    H115639   0.252   4.298   1.923 -1.0029  1.6097  1.4667
 5225TIP3    H215640   0.403   4.294   1.909 -1.2127 -2.2949 -1.4067
 5226TIP3   OH215641   4.803   3.400   5.258  0.2593  0.1321 -0.1717
 5226TIP3    H115642   4.822   3.493   5.242 -1.4308  0.6052  0.3545
 5226TIP3    H215643   4.823   3.357   5.175 -0.8660  1.2961 -1.0808
 5227TIP3   OH215644   0.180   5.230   1.555 -0.8190 -0.5890  0.4762
 5227TIP3    H115645   0.236   5.302   1.526  0.1377 -1.2801  0.5462
 5227TIP3    H215646   0.166   5.177   1.476 -3.6358  0.9576 -0.2073
 5228TIP3   OH215647   4.199   2.504   5.142 -0.3387  0.2104  0.0981
 5228TIP3    H115648   4.232   2.418   5.165  1.1963  0.7367 -0.0053
 5228TIP3    H215649   4.264   2.538   5.080 -0.4790  1.7451  0.7489
 5229TIP3   OH215650   7.150   5.068   2.294 -0.4643  0.3887 -0.1617
 5229TIP3    H115651   7.216   5.136   2.305 -1.5582  1.4577  0.0142
 5229TIP3    H215652   7.139   5.060   2.200  1.2752 -1.1797 -0.2733
 5230TIP3   OH215653   0.047   2.047   0.353  0.3423  0.0127  0.1372
 5230TIP3    H115654  -0.037   2.024   0.315 -0.5395  1.6383  1.0052
 5230TIP3    H215655   0.103   2.067   0.278 -0.5153  0.4175 -0.4025
 5231TIP3   OH215656   4.411   2.691   0.197  0.6315  0.4432 -0.1245
 5231TIP3    H115657   4.345   2.728   0.255  0.0682 -0.1394 -0.3866
 5231TIP3    H215658   4.490   2.687   0.251  0.8856  2.6018 -0.2842
 5232TIP3   OH215659   1.901   4.076   2.897  0.2837 -0.4428  0.0711
 5232TIP3    H115660   1.862   4.004   2.948  0.2965  1.7591  3.5449
 5232TIP3    H215661   1.844   4.151   2.916  0.8050  0.7517 -2.6550
 5233TIP3   OH215662   0.498   4.926   4.092  0.1351  0.4705  0.3682
 5233TIP3    H115663   0.559   4.863   4.055 -0.4463 -0.1932  0.5151
 5233TIP3    H215664   0.511   5.006   4.041 -1.3090 -0.6684 -1.9307
 5234TIP3   OH215665   0.883   1.849   3.610 -0.0281 -0.0524 -0.6721
 5234TIP3    H115666   0.888   1.944   3.617  0.2957 -0.1072 -0.0480
 5234TIP3    H215667   0.893   1.818   3.700  0.8794 -0.7169 -0.9846
 5235TIP3   OH215668   4.760   3.544   4.523  0.9582  0.6954  0.3418
 5235TIP3    H115669   4.707   3.465   4.534  0.6371  0.7240 -0.8097
 5235TIP3    H215670   4.760   3.585   4.609 -1.0497  0.7850  0.3571
 5236TIP3   OH215671   5.643   2.682   2.315  0.1693  0.2812 -0.1354
 5236TIP3    H115672   5.571   2.658   2.257  0.8194  0.7941 -1.1804
 5236TIP3    H215673   5.634   2.776   2.327 -0.7591 -0.0080  1.7327
 5237TIP3   OH215674   0.973   2.386   3.740  0.0528  0.1415  0.2491
 5237TIP3    H115675   0.910   2.457   3.731 -0.5568 -0.1653  1.7497
 5237TIP3    H215676   1.032   2.415   3.810  0.7777 -0.1541 -0.2234
 5238TIP3   OH215677   6.394   4.161   0.978 -0.0888 -0.2968  0.3012
 5238TIP3    H115678   6.336   4.114   0.917  0.3731  0.2260 -0.5622
 5238TIP3    H215679   6.343   4.169   1.058 -0.5946 -1.2847  0.0900
 5239TIP3   OH215680   1.472   2.329   3.889  0.5785  0.2343 -0.4408
 5239TIP3    H115681   1.534   2.279   3.836 -1.3299  1.2016 -3.8978
 5239TIP3    H215682   1.388   2.287   3.873 -0.5380  2.4503 -0.7561
 5240TIP3   OH215683   0.286   6.467   0.463  0.5520 -0.2912 -0.2802
 5240TIP3    H115684   0.354   6.442   0.526  1.5566  1.7831 -0.4745
 5240TIP3    H215685   0.279   6.562   0.471 -1.8231 -0.3455 -0.8220
 5241TIP3   OH215686   5.582   2.266   0.635 -0.3980 -0.0241  0.1888
 5241TIP3    H115687   5.534   2.345   0.658 -0.9436  0.3275 -1.9397
 5241TIP3    H215688   5.610   2.280   0.544  1.1908 -1.4647  0.3997
 5242TIP3   OH215689   6.919   4.749   0.236 -0.1546  0.3169  0.0717
 5242TIP3    H115690   6.916   4.653   0.239  0.0970  0.3405  1.7213
 5242TIP3    H215691   7.010   4.770   0.218 -0.4413  0.2735 -1.6959
 5243TIP3   OH215692   4.851   4.103   4.211 -0.1266  0.2458  0.6923
 5243TIP3    H115693   4.836   4.101   4.305  2.2859  1.0474  1.1763
 5243TIP3    H215694   4.916   4.173   4.199 -0.1061 -0.0825 -1.5208
 5244TIP3   OH215695   0.403   2.415   2.843  0.3593  0.0234  0.0881
 5244TIP3    H115696   0.407   2.322   2.823  2.8677 -0.0581  0.7183
 5244TIP3    H215697   0.494   2.443   2.852 -0.2174  1.4157  4.8648
 5245TIP3   OH215698   2.275   1.278   2.513 -0.1592  0.7888  0.1599
 5245TIP3    H115699   2.252   1.186   2.524 -0.6735  0.8024 -0.6958
 5245TIP3    H215700   2.195   1.326   2.532 -0.1653  0.9949 -0.3511
 5246TIP3   OH215701   4.235   4.651   2.630  0.9998 -0.6016 -0.1353
 5246TIP3    H115702   4.266   4.610   2.711  0.9723 -3.1929 -1.3538
 5246TIP3    H215703   4.153   4.606   2.611  1.8910 -1.3507 -2.5185
 5247TIP3   OH215704   5.550   1.582   3.385 -0.4147  0.1716  0.9576
 5247TIP3    H115705   5.640   1.603   3.408  0.1154 -0.2659 -0.5941
 5247TIP3    H215706   5.548   1.487   3.377 -1.4876 -0.0044  2.7293
 5248TIP3   OH215707   0.374   5.973   0.377 -0.4127 -0.4231 -0.3665
 5248TIP3    H115708   0.353   5.958   0.469  1.0904 -1.4435 -0.1523
 5248TIP3    H215709   0.427   6.053   0.377 -2.1804  0.8054 -0.6348
 5249TIP3   OH215710   1.852   4.881   4.126  0.4491 -0.3428 -0.1954
 5249TIP3    H115711   1.893   4.948   4.182  0.0815  1.3421 -1.8508
 5249TIP3    H215712   1.768   4.863   4.169  1.3280 -1.1762  1.2744
 5250TIP3   OH215713   3.695   4.836   1.731 -0.1248  0.4339 -0.2852
 5250TIP3    H115714   3.766   4.773   1.714 -1.0869 -0.6604 -0.3173
 5250TIP3    H215715   3.683   4.833   1.825 -0.6054  0.1032 -0.3593
 5251TIP3   OH215716   6.278   1.627   2.577 -0.2976 -0.4898 -0.2044
 5251TIP3    H115717   6.372   1.622   2.588 -0.2788  0.1214 -0.0126
 5251TIP3    H215718   6.266   1.671   2.492 -0.3952  0.1744  0.1427
 5252TIP3   OH215719   1.041   1.725   2.578  0.5400  0.0304  0.4470
 5252TIP3    H115720   1.054   1.632   2.560 -2.7415 -0.7047  1.1026
 5252TIP3    H215721   1.038   1.767   2.492  0.6249 -0.7335  0.0668
 5253TIP3   OH215722   0.644   0.231   1.385 -0.0364  0.5366 -0.4362
 5253TIP3    H115723   0.552   0.208   1.374 -0.2941  1.5031 -0.4447
 5253TIP3    H215724   0.642   0.313   1.435  0.8576  0.0343  0.4679
 5254TIP3   OH215725   1.029   1.719   1.415 -0.3103  0.1040 -0.0280
 5254TIP3    H115726   0.952   1.711   1.359  0.0104  0.7294 -0.5614
 5254TIP3    H215727   1.045   1.630   1.447 -1.3912  0.0122  0.2816
 5255TIP3   OH215728   4.839   1.788   3.070  0.1253 -0.2581 -0.1621
 5255TIP3    H115729   4.858   1.795   3.163 -1.9239 -1.5345  0.4141
 5255TIP3    H215730   4.748   1.758   3.066  0.7814 -2.3080 -2.5142
 5256TIP3   OH215731   1.567   4.373   5.088 -0.5173  0.1154 -0.1188
 5256TIP3    H115732   1.521   4.455   5.106 -0.7192 -0.6645  3.8307
 5256TIP3    H215733   1.657   4.389   5.115 -0.2773 -0.6243 -0.4542
 5257TIP3   OH215734   3.655   3.891   0.513  0.5138 -0.6283 -0.1004
 5257TIP3    H115735   3.722   3.949   0.549 -0.4024  0.6000 -0.2887
 5257TIP3    H215736   3.624   3.840   0.588  1.7586 -1.3368 -0.0487
 5258TIP3   OH215737   4.742   2.457   4.192 -0.6254 -0.1944  0.0417
 5258TIP3    H115738   4.701   2.417   4.115 -2.2849 -0.1624  0.8543
 5258TIP3    H215739   4.682   2.526   4.218 -0.2876 -0.4316  1.5570
 5259TIP3   OH215740   1.539   2.718   1.276  0.0635  0.0539 -0.5276
 5259TIP3    H115741   1.631   2.734   1.298  0.0287 -0.5390  0.1109
 5259TIP3    H215742   1.490   2.755   1.349 -0.1340 -0.7300 -0.2500
 5260TIP3   OH215743   0.515   5.571   5.310  0.2560 -0.0937  0.0161
 5260TIP3    H115744   0.605   5.603   5.304  0.4535 -0.8231 -1.4386
 5260TIP3    H215745   0.461   5.650   5.303  0.7616  0.2783  0.2309
 5261TIP3   OH215746   3.855   5.215   2.612 -0.1078 -0.1365 -0.2649
 5261TIP3    H115747   3.884   5.141   2.665 -0.1607 -0.5218 -0.7655
 5261TIP3    H215748   3.936   5.253   2.577 -0.0609  0.2224  0.2194
 5262TIP3   OH215749   0.045   3.719   3.364  0.3520 -0.1406  0.5503
 5262TIP3    H115750   0.018   3.732   3.455 -0.1813 -1.1437  0.5451
 5262TIP3    H215751   0.101   3.794   3.345 -1.2025  1.2112  1.0550
 5263TIP3   OH215752   1.955   3.361   4.847 -0.7014 -0.0595 -0.0717
 5263TIP3    H115753   1.867   3.340   4.877 -0.2531 -1.4304  0.3605
 5263TIP3    H215754   1.983   3.283   4.799  0.1624  0.4806 -0.4666
 5264TIP3   OH215755   6.287   4.479   4.102 -0.6241 -0.3356 -0.3805
 5264TIP3    H115756   6.237   4.548   4.059  0.4699  1.4085  0.9682
 5264TIP3    H215757   6.297   4.510   4.192  2.0380 -1.0414 -0.3454
 5265TIP3   OH215758   0.294   3.897   0.366 -0.0344  0.1172 -0.2512
 5265TIP3    H115759   0.247   3.814   0.375  0.6973 -0.3140 -0.4061
 5265TIP3    H215760   0.225   3.963   0.371 -0.6375 -0.4985 -0.2480
 5266TIP3   OH215761   5.262   4.199   1.872  0.0105  0.8855 -0.2297
 5266TIP3    H115762   5.231   4.115   1.836  1.4225 -0.6115  1.7973
 5266TIP3    H215763   5.249   4.190   1.966 -0.3686  3.2501 -0.0077
 5267TIP3   OH215764   2.565   4.619   1.829  0.4181  0.1041 -0.1304
 5267TIP3    H115765   2.580   4.531   1.861 -0.8981 -0.5702 -1.2575
 5267TIP3    H215766   2.632   4.633   1.762  0.6437 -0.0289  0.0696
 5268TIP3   OH215767   4.702   3.995   4.756 -0.4915  0.2482  0.5079
 5268TIP3    H115768   4.689   4.031   4.844 -0.6259 -0.9181  0.9888
 5268TIP3    H215769   4.614   3.987   4.721 -0.5762 -0.8183  0.9221
 5269TIP3   OH215770   4.554   2.232   1.926  0.0671 -0.5096  0.0682
 5269TIP3    H115771   4.553   2.328   1.936  0.1292 -0.4057 -0.8444
 5269TIP3    H215772   4.621   2.216   1.859  0.0862 -1.2009  0.2484
 5270TIP3   OH215773   4.074   0.630   1.662  0.0433  0.3828 -0.2382
 5270TIP3    H115774   4.119   0.638   1.746 -0.1329 -0.9470  0.0059
 5270TIP3    H215775   4.049   0.720   1.639 -0.4623  0.7112  1.4460
 5271TIP3   OH215776   3.105   2.211   0.033 -0.0846  0.0122 -0.0902
 5271TIP3    H115777   3.077   2.273   0.099 -1.2308 -1.3163  0.7308
 5271TIP3    H215778   3.072   2.126   0.063 -0.1079 -0.7429 -2.0375
 5272TIP3   OH215779   3.366   3.777   5.461  0.4313 -0.1123 -0.1956
 5272TIP3    H115780   3.330   3.796   5.548  0.6595 -1.0784  0.1174
 5272TIP3    H215781   3.405   3.691   5.470 -0.4578 -0.6802 -1.5348
 5273TIP3   OH215782   2.625   3.831   5.048  0.2965 -0.0945 -0.3842
 5273TIP3    H115783   2.535   3.834   5.079 -0.9265  0.8322 -3.5869
 5273TIP3    H215784   2.662   3.753   5.088 -2.1674 -0.9323  0.4195
 5274TIP3   OH215785   3.884   4.908   2.170  0.5819 -0.0606  0.5236
 5274TIP3    H115786   3.907   4.859   2.249  2.6384 -0.0435 -0.0054
 5274TIP3    H215787   3.948   4.879   2.105 -1.2184 -0.2553 -1.2420
 5275TIP3   OH215788   1.005   1.200   0.508 -0.5848 -0.3106  0.6708
 5275TIP3    H115789   1.091   1.238   0.489 -0.6075 -0.0447  1.0771
 5275TIP3    H215790   0.943   1.263   0.470 -0.6136 -0.1506  0.9816
 5276TIP3   OH215791   2.101   5.407   0.514 -0.1044 -0.4672  0.1308
 5276TIP3    H115792   2.058   5.385   0.431 -0.5250 -0.6973  0.4023
 5276TIP3    H215793   2.084   5.331   0.570 -2.1081  0.7636  1.3040
 5277TIP3   OH215794   3.582   5.255   3.176 -0.0974  0.2452  0.4168
 5277TIP3    H115795   3.524   5.328   3.152  1.0209  0.7710 -0.8719
 5277TIP3    H215796   3.523   5.184   3.199 -1.3316  0.4602 -1.7557
 5278TIP3   OH215797   0.414   1.777   4.321 -0.2666  0.0435 -0.4168
 5278TIP3    H115798   0.471   1.798   4.395 -0.7413 -3.8930  1.3118
 5278TIP3    H215799   0.464   1.804   4.244  1.7253  1.2388  1.1877
 5279TIP3   OH215800   6.367   1.119   0.661  0.4991  0.9526 -0.2187
 5279TIP3    H115801   6.376   1.073   0.578 -1.1005  0.8063 -0.3346
 5279TIP3    H215802   6.281   1.162   0.656  1.1908  2.5216  0.5873
 5280TIP3   OH215803   3.601   6.276   1.904  0.3321 -0.2903  0.5458
 5280TIP3    H115804   3.566   6.286   1.815  0.1994 -2.8950  0.2242
 5280TIP3    H215805   3.566   6.352   1.952 -0.6963  0.4689 -1.2794
 5281TIP3   OH215806   1.060   5.746   4.296  0.0833  0.4970 -0.2858
 5281TIP3    H115807   0.968   5.765   4.310  0.1304 -0.0555  0.9000
 5281TIP3    H215808   1.084   5.799   4.219 -0.5907  2.5466  0.8456
 5282TIP3   OH215809   5.795   0.294   0.577  0.5813 -0.1371  0.1997
 5282TIP3    H115810   5.815   0.373   0.627  0.9310  0.2832 -0.5825
 5282TIP3    H215811   5.880   0.264   0.545  0.3912 -0.5373  0.0639
 5283TIP3   OH215812   5.637   4.726   4.032  0.2923 -0.0096  0.0850
 5283TIP3    H115813   5.548   4.717   3.999 -0.2690 -0.1697  1.5613
 5283TIP3    H215814   5.693   4.704   3.958 -0.8858  0.4412 -0.9657
 5284TIP3   OH215815   5.894   5.759   4.366  0.1813  0.2390  0.2881
 5284TIP3    H115816   5.838   5.690   4.402  0.8100  0.4249  1.6813
 5284TIP3    H215817   5.850   5.785   4.284 -1.3356 -0.1511  0.9373
 5285TIP3   OH215818   3.237   1.728   0.150  0.2017 -0.0008 -0.7031
 5285TIP3    H115819   3.285   1.685   0.079  0.7538  1.4353 -1.2567
 5285TIP3    H215820   3.297   1.725   0.224  0.1464 -0.3828 -0.6746
 5286TIP3   OH215821   0.107   1.210   1.061  0.1014  0.1037 -0.4524
 5286TIP3    H115822   0.030   1.159   1.087  1.1395 -1.5223 -0.4052
 5286TIP3    H215823   0.105   1.287   1.118 -0.4918 -0.8392  0.8511
 5287TIP3   OH215824   5.674   1.373   1.676 -0.2867 -0.2760  0.1530
 5287TIP3    H115825   5.703   1.321   1.751 -0.7872 -1.3398 -0.3718
 5287TIP3    H215826   5.747   1.432   1.657  0.4582 -1.0729  0.5070
 5288TIP3   OH215827   5.350   2.833   2.939  0.6591 -0.3035  0.2780
 5288TIP3    H115828   5.344   2.825   3.034  0.9338  0.7085  0.3980
 5288TIP3    H215829   5.334   2.745   2.906  1.7362 -0.9200  1.3123
 5289TIP3   OH215830   3.830   3.246   1.511  0.4287  0.3074 -0.5014
 5289TIP3    H115831   3.748   3.293   1.524  0.4703  0.3726 -0.4739
 5289TIP3    H215832   3.808   3.175   1.450  0.0040 -0.5860  0.6479
 5290TIP3   OH215833   6.944   1.461   5.345  0.2637  0.5056 -0.1382
 5290TIP3    H115834   7.007   1.479   5.414 -0.3041  0.9462  0.2778
 5290TIP3    H215835   6.947   1.539   5.289 -0.8539  1.1302  0.6264
 5291TIP3   OH215836   1.292   6.746   0.715 -0.3665 -0.1423 -0.2836
 5291TIP3    H115837   1.387   6.752   0.703 -0.4635  1.9293 -0.4690
 5291TIP3    H215838   1.281   6.706   0.801  0.6451 -1.2750 -0.6599
 5292TIP3   OH215839   1.971   1.568   3.611 -0.7351 -0.2026  0.0030
 5292TIP3    H115840   2.015   1.622   3.546 -0.1314 -0.4309  0.2117
 5292TIP3    H215841   1.962   1.625   3.688 -0.4270 -0.2817  0.0994
 5293TIP3   OH215842   2.357   4.268   4.911  0.3926 -0.2886  0.9693
 5293TIP3    H115843   2.340   4.178   4.886 -1.0499 -0.8177  3.5320
 5293TIP3    H215844   2.280   4.317   4.881  0.4486 -0.2064  0.9572
 5294TIP3   OH215845   4.939   2.894   0.097  0.2984  0.7371 -0.0111
 5294TIP3    H115846   4.947   2.875   0.190 -2.7739  0.1610  0.2240
 5294TIP3    H215847   4.849   2.871   0.075  0.8500  1.0910 -3.0936
 5295TIP3   OH215848   5.703   5.900   1.351 -0.2043 -0.1072 -0.1180
 5295TIP3    H115849   5.753   5.978   1.378  1.6717 -1.4683  0.5890
 5295TIP3    H215850   5.621   5.906   1.401 -0.6920  2.0402 -1.0519
 5296TIP3   OH215851   2.092   5.357   2.205 -0.0670  0.1352  0.0559
 5296TIP3    H115852   2.104   5.401   2.289 -0.0060  0.1589  0.0346
 5296TIP3    H215853   2.166   5.296   2.199 -0.4917 -0.4230  0.3742
 5297TIP3   OH215854   3.573   2.672   0.848  0.2413  0.0355  0.0370
 5297TIP3    H115855   3.569   2.616   0.925 -0.3930 -0.6877 -0.5021
 5297TIP3    H215856   3.663   2.662   0.816  0.3371 -0.1162  0.3491
 5298TIP3   OH215857   3.667   0.553   4.168 -0.0312  0.7098  0.2458
 5298TIP3    H115858   3.687   0.625   4.108 -1.8543 -0.2810 -1.6866
 5298TIP3    H215859   3.572   0.549   4.169  0.0186 -1.4235  0.5860
 5299TIP3   OH215860   5.390   5.414   0.293  0.2197 -0.1042 -0.6277
 5299TIP3    H115861   5.342   5.450   0.368  0.1482 -0.8134 -0.3271
 5299TIP3    H215862   5.433   5.490   0.253 -0.0522  0.3345 -0.0969
 5300TIP3   OH215863   0.944   3.479   1.307  0.4153 -0.2052  0.2529
 5300TIP3    H115864   0.954   3.385   1.323 -0.1519 -0.2013  0.6165
 5300TIP3    H215865   1.022   3.502   1.255  1.2743 -0.6003  1.3198
 5301TIP3   OH215866   3.384   0.116   1.094  0.5180  0.3889 -0.0075
 5301TIP3    H115867   3.461   0.157   1.053  1.1741  1.5778  2.2471
 5301TIP3    H215868   3.416   0.031   1.125  0.9374  0.8612  0.8838
 5302TIP3   OH215869   3.060   6.582   4.099 -0.0129  0.1305  0.3968
 5302TIP3    H115870   3.154   6.585   4.081 -0.3342 -1.7013 -2.2147
 5302TIP3    H215871   3.034   6.674   4.107  1.8845  0.6912  0.5874
 5303TIP3   OH215872   5.272   2.229   1.641  0.5525  0.2469 -0.0766
 5303TIP3    H115873   5.325   2.203   1.566 -1.4744  1.0946 -1.9293
 5303TIP3    H215874   5.244   2.318   1.621  0.2587  0.6398  1.8946
 5304TIP3   OH215875   4.135   2.716   3.769  0.4191  0.0330  0.1975
 5304TIP3    H115876   4.180   2.800   3.764 -0.2943  0.4210  0.0674
 5304TIP3    H215877   4.150   2.685   3.859 -0.0036  0.7033  0.5070
 5305TIP3   OH215878   0.292   1.517   4.889  0.5349 -0.2579  0.5586
 5305TIP3    H115879   0.302   1.569   4.968  2.0604 -0.4614  0.5299
 5305TIP3    H215880   0.293   1.581   4.818 -4.9070  0.4399  0.6949
 5306TIP3   OH215881   1.050   2.822   3.651 -0.7830 -0.0880  0.1962
 5306TIP3    H115882   1.099   2.894   3.612 -0.3957 -0.9498 -0.9532
 5306TIP3    H215883   1.067   2.829   3.745  0.7011  0.2525 -0.0760
 5307TIP3   OH215884   0.730   1.172   5.726 -0.1556  0.0424 -0.2980
 5307TIP3    H115885   0.695   1.133   5.806  0.2324  0.8762  0.2969
 5307TIP3    H215886   0.817   1.204   5.751 -1.4483  3.8306  0.1253
 5308TIP3   OH215887   5.296   2.327   5.421 -0.0610 -0.6420  0.0696
 5308TIP3    H115888   5.314   2.405   5.368 -2.5097 -0.0858 -0.0794
 5308TIP3    H215889   5.223   2.353   5.477  1.0058 -1.9253  2.1919
 5309TIP3   OH215890   1.038   2.904   0.781 -0.1627  0.3344  0.2957
 5309TIP3    H115891   1.023   2.821   0.735  0.2521  0.5112 -0.1774
 5309TIP3    H215892   0.954   2.925   0.822 -1.5172  1.6211 -2.7711
 5310TIP3   OH215893   1.305   1.912   3.862 -0.3280 -0.2698 -0.2805
 5310TIP3    H115894   1.283   1.838   3.806 -0.6771 -0.9233  0.6862
 5310TIP3    H215895   1.323   1.984   3.801  0.9410 -1.3705 -1.2787
 5311TIP3   OH215896   2.759   1.065   4.835 -0.2906  0.2142 -0.2243
 5311TIP3    H115897   2.685   1.063   4.775 -0.5470  2.2336 -0.0338
 5311TIP3    H215898   2.727   1.022   4.915 -0.3436 -1.3441 -1.0456
 5312TIP3   OH215899   4.659   3.556   2.802 -0.4978  0.3681  0.1404
 5312TIP3    H115900   4.735   3.599   2.843 -0.3965  0.1688  0.1667
 5312TIP3    H215901   4.630   3.493   2.868  0.6944 -1.1490 -0.7133
 5313TIP3   OH215902   4.574   0.193   5.710 -0.1838  0.1569 -0.0719
 5313TIP3    H115903   4.636   0.182   5.782 -1.7342  0.4847  1.3547
 5313TIP3    H215904   4.497   0.143   5.736 -0.7224  0.1409 -1.5937
 5314TIP3   OH215905   3.778   2.795   4.010 -0.1786  0.3776  0.3586
 5314TIP3    H115906   3.852   2.737   3.991 -0.6722 -0.6495  1.4145
 5314TIP3    H215907   3.729   2.799   3.928  1.2360  1.3940 -0.4733
 5315TIP3   OH215908   2.875   5.581   0.212  0.0469  0.5102  0.1187
 5315TIP3    H115909   2.866   5.676   0.223 -0.1447  0.9658 -3.0716
 5315TIP3    H215910   2.790   5.546   0.236 -0.7606  1.4836 -1.1930
 5316TIP3   OH215911   2.964   2.182   5.298  0.4209  0.4198 -0.0555
 5316TIP3    H115912   2.968   2.173   5.393  0.7422 -0.9521 -0.1719
 5316TIP3    H215913   3.024   2.254   5.278  0.9587  0.1994  0.7230
 5317TIP3   OH215914   0.354   3.331   0.032  0.1478  0.5902  0.0837
 5317TIP3    H115915   0.337   3.379  -0.048 -0.0621  0.9581  0.3468
 5317TIP3    H215916   0.440   3.291   0.018 -0.2528 -0.0386 -0.6504
 5318TIP3   OH215917   6.190   4.063   0.807 -0.1068  0.1766 -0.8093
 5318TIP3    H115918   6.099   4.085   0.789 -0.1727  1.1210  0.5568
 5318TIP3    H215919   6.240   4.110   0.740 -0.4090  2.7168  0.6457
 5319TIP3   OH215920   2.046   0.689   0.684  0.1675  0.0636 -0.0547
 5319TIP3    H115921   1.979   0.719   0.622  1.5164  3.4751 -0.0403
 5319TIP3    H215922   2.052   0.594   0.668 -2.0296  0.2373 -2.6122
 5320TIP3   OH215923   6.212   3.812   4.843 -0.0340  0.1357 -0.0258
 5320TIP3    H115924   6.181   3.862   4.768  0.2059 -1.1976 -1.0545
 5320TIP3    H215925   6.158   3.733   4.843  0.4994 -0.2367  0.7393
 5321TIP3   OH215926   3.097   3.444   3.345 -0.4686 -0.2906  0.1103
 5321TIP3    H115927   3.073   3.378   3.279  0.0523 -0.8066  0.4301
 5321TIP3    H215928   3.018   3.496   3.357 -1.0808 -1.2485  0.3033
 5322TIP3   OH215929   2.779   5.063   0.923  0.0201  0.2208 -0.1661
 5322TIP3    H115930   2.785   4.971   0.947 -1.0289  0.3368  0.5998
 5322TIP3    H215931   2.870   5.094   0.922  0.2217 -0.1310  2.4103
 5323TIP3   OH215932   1.391   1.420   2.914  0.2808 -0.0775  0.4651
 5323TIP3    H115933   1.297   1.431   2.928  0.2439  2.0055 -0.8595
 5323TIP3    H215934   1.399   1.338   2.866 -1.3341  1.3084 -2.4682
 5324TIP3   OH215935   2.653   6.647   1.404  0.1124  0.2238 -0.5377
 5324TIP3    H115936   2.718   6.578   1.389 -0.5720 -0.5736  0.1212
 5324TIP3    H215937   2.687   6.722   1.354  1.5373 -0.1681 -0.2098
 5325TIP3   OH215938   2.623   1.941   3.160 -0.1754 -0.1603 -0.0180
 5325TIP3    H115939   2.611   1.868   3.100 -1.9434  1.3047 -1.5778
 5325TIP3    H215940   2.666   2.009   3.107  1.7061 -0.1061  1.4715
 5326TIP3   OH215941   1.655   0.683   5.008 -0.0242  0.1066  0.3671
 5326TIP3    H115942   1.739   0.728   5.021 -0.0342  0.2187  0.0413
 5326TIP3    H215943   1.591   0.753   5.005 -0.2201 -0.0164  1.2950
 5327TIP3   OH215944   1.673   2.128   1.010 -0.2565 -0.2342  0.8839
 5327TIP3    H115945   1.586   2.098   1.034 -0.5014  0.0654  0.3771
 5327TIP3    H215946   1.659   2.208   0.959  0.2730 -0.5063  0.2852
 5328TIP3   OH215947   5.674   5.610   0.668 -0.0298  0.4727 -0.1170
 5328TIP3    H115948   5.685   5.517   0.647  0.3889  0.1831  1.3009
 5328TIP3    H215949   5.588   5.616   0.708 -0.1770  0.7568 -0.4677
 5329TIP3   OH215950   4.466   5.849   1.887  0.6918 -0.0659  0.2162
 5329TIP3    H115951   4.513   5.793   1.948 -0.1108 -0.5315  0.4306
 5329TIP3    H215952   4.374   5.822   1.896  0.5554 -0.0986 -1.1499
 5330TIP3   OH215953   3.140   5.322   2.727 -0.3347  0.2359  0.1624
 5330TIP3    H115954   3.151   5.239   2.773  0.5558 -0.4168 -1.1517
 5330TIP3    H215955   3.051   5.320   2.692 -0.0996 -0.4768 -0.4149
 5331TIP3   OH215956   5.576   4.752   2.504 -0.4031  0.5978  0.0225
 5331TIP3    H115957   5.648   4.738   2.441  0.4170  2.6200  0.4344
 5331TIP3    H215958   5.604   4.828   2.555 -0.6436 -1.4093  3.4452
 5332TIP3   OH215959   2.496   3.836   2.517 -0.5952 -0.9989  0.2549
 5332TIP3    H115960   2.578   3.817   2.471  0.0537 -0.7546  1.2883
 5332TIP3    H215961   2.435   3.770   2.484 -0.1846 -0.7814 -1.0155
 5333TIP3   OH215962   4.619   0.463   5.342 -0.2662  0.0494 -0.1881
 5333TIP3    H115963   4.707   0.498   5.353 -0.7045  1.0829  0.1680
 5333TIP3    H215964   4.564   0.518   5.397 -1.5248  1.1152 -2.3551
 5334TIP3   OH215965   3.531   0.385   1.219 -0.2630  0.1086 -0.2243
 5334TIP3    H115966   3.535   0.333   1.139  0.8960 -0.8442  0.4230
 5334TIP3    H215967   3.481   0.331   1.281 -4.0982  2.1860 -1.1796
 5335TIP3   OH215968   4.191   5.281   4.732  0.1862 -0.7757 -0.2497
 5335TIP3    H115969   4.283   5.289   4.709  0.2690 -1.3087 -0.0959
 5335TIP3    H215970   4.183   5.196   4.775 -0.1802 -0.2966  0.6703
 5336TIP3   OH215971   2.249   0.325   3.498  0.6526 -0.4211  0.3421
 5336TIP3    H115972   2.299   0.404   3.518  2.0716 -1.3445  0.5188
 5336TIP3    H215973   2.270   0.305   3.407 -1.1848  0.4331 -0.3231
 5337TIP3   OH215974   1.853   4.776   4.422 -0.3063 -0.1456 -0.0667
 5337TIP3    H115975   1.783   4.721   4.457 -0.6837  0.3940  0.0321
 5337TIP3    H215976   1.900   4.808   4.499 -0.8021  0.5992 -0.0599
 5338TIP3   OH215977   1.071   1.929   2.764  0.2176  0.0233  0.1556
 5338TIP3    H115978   1.044   1.880   2.842  1.2332 -1.2936 -0.2886
 5338TIP3    H215979   1.069   1.864   2.694  0.6833  0.8567 -0.6400
 5339TIP3   OH215980   6.827   0.729   5.876  0.4726 -0.0290 -0.2989
 5339TIP3    H115981   6.809   0.764   5.789 -0.2153  2.2786  0.6891
 5339TIP3    H215982   6.920   0.745   5.890  0.2556  1.1356 -0.0298
 5340TIP3   OH215983   3.983   4.637   3.122  0.1550 -0.4040  0.0014
 5340TIP3    H115984   4.020   4.661   3.037  0.7626  3.1250  1.0764
 5340TIP3    H215985   3.931   4.714   3.148  0.9127 -0.8572  3.3035
 5341TIP3   OH215986   5.771   0.606   2.059 -0.3753 -0.3206  0.6365
 5341TIP3    H115987   5.677   0.619   2.076 -0.2341  1.6192  0.1844
 5341TIP3    H215988   5.776   0.587   1.966 -0.4231 -2.2773  0.9825
 5342TIP3   OH215989   0.667   0.892   5.001 -0.1129  0.0839  0.0070
 5342TIP3    H115990   0.605   0.858   5.066  0.5334 -0.6100  0.2746
 5342TIP3    H215991   0.627   0.973   4.970 -1.8957 -1.0667 -0.9078
 5343TIP3   OH215992   0.985   4.314   0.968 -0.2333  0.3848 -0.2372
 5343TIP3    H115993   0.890   4.313   0.953  0.0758 -1.5191 -2.8912
 5343TIP3    H215994   0.996   4.285   1.058 -2.1707  0.4583  0.0624
 5344TIP3   OH215995   4.728   5.225   0.677  0.2312 -0.4513  0.5448
 5344TIP3    H115996   4.794   5.183   0.731  0.6466 -1.3849 -0.6534
 5344TIP3    H215997   4.645   5.204   0.720  0.5601 -1.0800  0.8749
 5345TIP3   OH215998   5.588   5.934   0.705  0.2102 -0.1077  0.4289
 5345TIP3    H115999   5.657   5.892   0.652  0.6439 -1.0658  1.7016
 5345TIP3    H216000   5.564   6.012   0.655  0.7223 -0.8739 -1.0904
 5346TIP3   OH216001   1.836   1.361   0.875  0.1313  0.1637  0.0936
 5346TIP3    H116002   1.880   1.435   0.833  0.2017 -0.0563 -0.2210
 5346TIP3    H216003   1.781   1.401   0.942 -1.1095  0.6518 -1.1669
 5347TIP3   OH216004   2.161   5.125   0.885 -0.4146  0.0109  0.3940
 5347TIP3    H116005   2.193   5.214   0.900  0.4440 -0.1664 -0.3158
 5347TIP3    H216006   2.124   5.098   0.970 -0.5725  0.9856  0.6466
 5348TIP3   OH216007   6.339   3.304   1.339  0.3647  0.4510  0.4876
 5348TIP3    H116008   6.388   3.226   1.363  2.7482  2.1674  1.5134
 5348TIP3    H216009   6.361   3.369   1.406 -2.7376  1.6263  0.5645
 5349TIP3   OH216010   5.924   6.757   4.315 -0.3187  0.5859  0.3154
 5349TIP3    H116011   5.835   6.741   4.346 -0.8819  2.6331 -0.0979
 5349TIP3    H216012   5.915   6.771   4.221  0.7218 -0.9570 -0.0454
 5350TIP3   OH216013   2.108   1.185   2.287 -0.4850 -0.0939  0.1386
 5350TIP3    H116014   2.071   1.228   2.211 -0.0236 -1.0549 -0.6488
 5350TIP3    H216015   2.103   1.091   2.268  1.6752 -0.3066  0.2596
 5351TIP3   OH216016   3.699   2.504   4.968 -0.0384  0.1767  0.1836
 5351TIP3    H116017   3.671   2.484   4.878  0.1656  1.1345 -0.1095
 5351TIP3    H216018   3.794   2.495   4.966  0.1307  1.7909 -0.1442
 5352TIP3   OH216019   5.224   5.609   4.611 -0.4309 -0.5588  0.2612
 5352TIP3    H116020   5.193   5.560   4.535 -0.6689 -1.6094  1.0147
 5352TIP3    H216021   5.306   5.647   4.582 -0.7702 -0.5113 -0.6902
 5353TIP3   OH216022   1.321   4.215   0.757 -0.1983  0.6449  0.1853
 5353TIP3    H116023   1.344   4.209   0.850 -0.4485  1.5233  0.3151
 5353TIP3    H216024   1.398   4.181   0.711  0.4326  1.3562  0.6844
 5354TIP3   OH216025   3.832   1.223   0.467  0.0287 -0.1449  0.3873
 5354TIP3    H116026   3.740   1.200   0.454 -0.0845  0.9510 -0.9501
 5354TIP3    H216027   3.833   1.280   0.544 -0.2006 -1.2992  1.2720
 5355TIP3   OH216028   4.586   4.570   2.458 -0.0506  0.2760  0.1944
 5355TIP3    H116029   4.653   4.524   2.507 -0.6156 -1.7408 -0.7846
 5355TIP3    H216030   4.503   4.533   2.491 -0.4796 -0.1542 -1.2788
 5356TIP3   OH216031   1.208   0.439   4.190 -0.0467 -0.5630 -0.4292
 5356TIP3    H116032   1.198   0.529   4.159 -1.3984 -0.1385  1.0990
 5356TIP3    H216033   1.129   0.422   4.241  2.1299 -0.9908  3.1539
 5357TIP3   OH216034   3.752   4.749   4.986  0.0908  0.0233 -0.1543
 5357TIP3    H116035   3.713   4.672   5.027 -0.6683  0.2140 -0.4988
 5357TIP3    H216036   3.707   4.824   5.026  2.6798  0.5050  2.2164
 5358TIP3   OH216037   4.332   4.738   3.835 -0.2908 -0.5568 -0.3926
 5358TIP3    H116038   4.383   4.699   3.906  1.3637 -1.4533 -1.9819
 5358TIP3    H216039   4.287   4.812   3.876  2.7042  0.6263  1.0734
 5359TIP3   OH216040   1.206   2.964   2.006  0.5232  0.5105  0.3719
 5359TIP3    H116041   1.206   2.916   1.923  0.5003 -1.4458  1.4493
 5359TIP3    H216042   1.296   2.960   2.036  0.5324  1.2148  0.4552
 5360TIP3   OH216043   2.645   4.732   0.084 -0.2379  0.0736  0.0729
 5360TIP3    H116044   2.728   4.727   0.037 -0.7479 -2.8772 -0.6612
 5360TIP3    H216045   2.591   4.662   0.047 -2.2964  0.5264  1.9862
 5361TIP3   OH216046   1.082   6.267   4.948 -0.3195 -0.1119 -0.1761
 5361TIP3    H116047   1.090   6.254   4.853  0.8184 -1.0196  0.0238
 5361TIP3    H216048   1.003   6.219   4.972 -1.7683  1.7860 -0.9369
 5362TIP3   OH216049   4.988   2.288   4.933 -0.2384  0.2312 -0.5658
 5362TIP3    H116050   4.982   2.316   5.024  2.1673 -1.3291  0.1675
 5362TIP3    H216051   4.915   2.228   4.921  0.1505 -0.5375  0.7404
 5363TIP3   OH216052   3.322   6.726   5.097 -0.5828 -0.1768  0.1437
 5363TIP3    H116053   3.228   6.707   5.099 -0.4301 -0.9544  0.4612
 5363TIP3    H216054   3.358   6.657   5.041  0.1369 -1.5897  2.1869
 5364TIP3   OH216055   5.890   0.761   0.093 -0.0989  0.2560 -0.1684
 5364TIP3    H116056   5.880   0.711   0.173 -0.6888  0.7842  0.0964
 5364TIP3    H216057   5.861   0.701   0.024 -0.5194  0.1322  0.1123
 5365TIP3   OH216058   5.891   3.732   2.081 -0.6441  0.1215  0.1124
 5365TIP3    H116059   5.979   3.719   2.118 -0.0327  1.0200 -0.9442
 5365TIP3    H216060   5.850   3.646   2.086 -0.0707 -0.1052  1.5217
 5366TIP3   OH216061   3.104   5.913   4.696 -0.5817 -0.4322  0.2971
 5366TIP3    H116062   3.083   5.965   4.618  2.9765 -1.2934 -1.4392
 5366TIP3    H216063   3.129   5.977   4.762  0.5309  0.2400 -0.7312
 5367TIP3   OH216064   1.655   3.574   4.592  0.0912  0.1409  0.5438
 5367TIP3    H116065   1.653   3.668   4.609  0.4223  0.3492 -0.4821
 5367TIP3    H216066   1.739   3.560   4.547 -1.1611 -0.1520 -1.8884
 5368TIP3   OH216067   1.279   6.332   5.456  0.0666 -0.0528  0.3096
 5368TIP3    H116068   1.366   6.365   5.479  0.5981 -2.1113  1.5050
 5368TIP3    H216069   1.274   6.343   5.361  0.4264  2.7509  0.5381
 5369TIP3   OH216070   6.551   1.221   4.705 -0.3625  0.0587  0.1155
 5369TIP3    H116071   6.531   1.306   4.744 -0.3010  0.0054  0.2628
 5369TIP3    H216072   6.562   1.240   4.612  3.4032  0.9259  0.5530
 5370TIP3   OH216073   4.817   0.485   5.791 -0.0454 -0.6995 -0.3182
 5370TIP3    H116074   4.853   0.412   5.842  3.3918  0.6682 -0.5023
 5370TIP3    H216075   4.835   0.462   5.700 -2.1887 -1.1515 -0.6704
 5371TIP3   OH216076   2.815   5.075   0.025 -0.0529 -0.5762  0.3727
 5371TIP3    H116077   2.729   5.033   0.025 -0.2412 -0.1915  0.2469
 5371TIP3    H216078   2.864   5.029   0.094  0.0391 -1.6037 -0.3493
 5372TIP3   OH216079   2.470   0.988   0.673  0.4862 -0.0178  0.4024
 5372TIP3    H116080   2.413   0.952   0.740 -1.1877 -0.4265 -1.1492
 5372TIP3    H216081   2.503   1.069   0.711 -0.7597 -0.0137  1.5589
 5373TIP3   OH216082   0.760   4.967   5.043  0.1906 -0.0745 -0.3306
 5373TIP3    H116083   0.757   5.046   5.097  0.4257  0.1573 -0.6496
 5373TIP3    H216084   0.733   4.896   5.102  0.0700  0.2299 -0.0168
 5374TIP3   OH216085   4.401   4.786   3.206 -0.7096 -0.3425  0.4516
 5374TIP3    H116086   4.473   4.846   3.225 -0.4521  0.1199 -1.7117
 5374TIP3    H216087   4.326   4.824   3.252 -0.5791  1.7656 -0.9104
 5375TIP3   OH216088   4.659   0.325   4.415  0.3215 -0.2385 -0.0707
 5375TIP3    H116089   4.654   0.299   4.323 -0.3007  0.1405 -0.1444
 5375TIP3    H216090   4.675   0.419   4.413 -1.9947  0.2063  0.2017
 5376TIP3   OH216091   6.869   5.213   5.090  1.1397 -0.5168 -0.5235
 5376TIP3    H116092   6.865   5.294   5.039  1.3201  0.3941  0.8407
 5376TIP3    H216093   6.783   5.206   5.131  1.9090  0.3781  1.3487
 5377TIP3   OH216094   5.689   0.801   1.625 -0.5836 -0.1468  0.3939
 5377TIP3    H116095   5.735   0.729   1.581  0.3224  1.2320 -1.0407
 5377TIP3    H216096   5.676   0.866   1.556 -1.6046  0.9648  1.5838
 5378TIP3   OH216097   4.517   5.065   2.785 -0.0149 -0.1477 -0.2022
 5378TIP3    H116098   4.465   5.107   2.854  1.3824  1.9068 -0.2865
 5378TIP3    H216099   4.533   4.977   2.818 -1.1709  0.0843  1.1012
 5379TIP3   OH216100   3.813   4.269   5.202  0.6676  0.9907 -0.3475
 5379TIP3    H116101   3.818   4.284   5.108  1.4214 -0.5532 -0.5828
 5379TIP3    H216102   3.872   4.334   5.240  1.9330  0.3217 -1.1130
 5380TIP3   OH216103   0.510   4.481   2.836 -0.2191 -0.0436  0.7192
 5380TIP3    H116104   0.559   4.557   2.864  0.5127  0.0897 -0.8174
 5380TIP3    H216105   0.531   4.472   2.743 -1.1710 -1.4530  0.6104
 5381TIP3   OH216106   2.548   5.089   0.677 -0.1216  0.4677  0.3034
 5381TIP3    H116107   2.495   5.055   0.749 -0.5361  0.3805 -0.0403
 5381TIP3    H216108   2.633   5.106   0.717 -0.2127 -0.0006  0.7179
 5382TIP3   OH216109   1.994   3.292   4.427 -0.1190 -0.3526  0.4871
 5382TIP3    H116110   1.918   3.348   4.415  0.0282 -0.2591 -0.0707
 5382TIP3    H216111   1.981   3.220   4.364  1.6451  1.1653 -1.8080
 5383TIP3   OH216112   4.129   6.796   5.670 -0.3863 -0.2109 -0.4512
 5383TIP3    H116113   4.163   6.735   5.605  0.7253 -1.0788  0.8971
 5383TIP3    H216114   4.036   6.775   5.675 -0.2383 -1.0116 -0.8366
 5384TIP3   OH216115   4.756   1.272   0.324 -0.0009  0.1894 -0.6479
 5384TIP3    H116116   4.719   1.361   0.332  0.5545  0.3435  0.2352
 5384TIP3    H216117   4.786   1.268   0.233 -1.1745  0.4463 -1.0770
 5385TIP3   OH216118   3.131   0.448   0.705 -0.3661  0.1919 -0.5388
 5385TIP3    H116119   3.213   0.425   0.661 -0.7244  0.6687 -1.4828
 5385TIP3    H216120   3.118   0.378   0.769  0.7495  0.0866 -0.4059
 5386TIP3   OH216121   1.998   3.551   0.108  0.0945 -0.4975 -0.6289
 5386TIP3    H116122   1.968   3.460   0.117 -0.7081 -0.4139 -2.1501
 5386TIP3    H216123   2.069   3.546   0.044 -1.2010  0.1529 -2.1797
 5387TIP3   OH216124   3.538   3.075   5.889  0.0463 -0.4278  0.6129
 5387TIP3    H116125   3.456   3.038   5.855  0.7013 -0.4350 -1.0623
 5387TIP3    H216126   3.554   3.151   5.834  1.6151 -0.9305  0.3442
 5388TIP3   OH216127   0.913   6.655   5.732 -0.2310 -0.3924  0.1988
 5388TIP3    H116128   0.872   6.569   5.739  1.8093 -1.4619 -0.1751
 5388TIP3    H216129   1.004   6.641   5.759  0.1607  1.6564  0.1480
 5389TIP3   OH216130   6.466   0.388   1.215 -0.1692 -0.9527 -0.0044
 5389TIP3    H116131   6.447   0.344   1.297 -0.5220 -0.3063  0.2687
 5389TIP3    H216132   6.389   0.372   1.160 -1.0776  0.7145  0.6998
 5390TIP3   OH216133   5.590   5.296   5.755 -0.2182 -0.0428 -0.1545
 5390TIP3    H116134   5.652   5.333   5.818  1.0052 -0.0476 -1.3241
 5390TIP3    H216135   5.521   5.361   5.748 -0.1053  0.1951  0.7939
 5391TIP3   OH216136   6.812   0.897   4.199 -0.4670  0.2345  0.3895
 5391TIP3    H116137   6.781   0.985   4.220 -0.6013  0.7702 -1.8169
 5391TIP3    H216138   6.900   0.910   4.162 -0.9404 -0.3781 -1.0540
 5392TIP3   OH216139   1.257   5.815   4.468  0.4526 -0.3465 -0.8524
 5392TIP3    H116140   1.277   5.743   4.528 -2.6150 -0.1895  0.5712
 5392TIP3    H216141   1.178   5.785   4.421 -2.4798  2.8719  1.5619
 5393TIP3   OH216142   4.174   2.153   1.565 -0.2031 -0.1853 -0.0331
 5393TIP3    H116143   4.090   2.199   1.564 -1.1895 -1.6145  3.3837
 5393TIP3    H216144   4.229   2.206   1.622  0.0344 -1.0370  0.5377
 5394TIP3   OH216145   0.825   1.390   0.757 -0.2127  0.4271  0.6090
 5394TIP3    H116146   0.888   1.449   0.800 -0.6800  1.2506  0.1903
 5394TIP3    H216147   0.741   1.435   0.766 -0.2631  0.8343 -1.4995
 5395TIP3   OH216148   6.425   2.042   0.537  0.0225 -0.1893 -0.0436
 5395TIP3    H116149   6.408   2.135   0.551 -0.9243 -0.4938  0.9592
 5395TIP3    H216150   6.403   2.000   0.620 -0.1825 -1.3834 -0.6680
 5396TIP3   OH216151   2.852   2.334   2.300  0.5846 -0.4477 -0.1617
 5396TIP3    H116152   2.873   2.335   2.393  2.2501 -0.7935 -0.4909
 5396TIP3    H216153   2.771   2.383   2.293  0.3116 -0.5999  1.4944
 5397TIP3   OH216154   1.363   5.562   5.019 -0.0138 -0.3622  0.3910
 5397TIP3    H116155   1.275   5.587   4.990  0.4837  0.3924 -0.5332
 5397TIP3    H216156   1.395   5.503   4.950  0.2428 -0.5524  0.6707
 5398TIP3   OH216157   6.016   4.361   1.098  0.0167  0.3691 -0.2358
 5398TIP3    H116158   5.954   4.367   1.171 -0.7906  0.2138 -0.9000
 5398TIP3    H216159   5.962   4.341   1.022  0.4702  3.1313 -1.4016
 5399TIP3   OH216160   7.132   4.774   3.035  0.2529  0.0725 -0.0400
 5399TIP3    H116161   7.088   4.749   2.954 -0.6652 -0.8306  0.7056
 5399TIP3    H216162   7.103   4.864   3.051 -0.4787 -0.1394 -0.1331
 5400TIP3   OH216163   6.231   3.420   3.182  0.1133 -0.1318  0.1145
 5400TIP3    H116164   6.180   3.478   3.126  0.1967  0.3055  0.4824
 5400TIP3    H216165   6.194   3.333   3.167  1.2918 -0.3239 -1.9600
 5401TIP3   OH216166   0.164   4.604   5.442  0.3715  0.1984 -0.7752
 5401TIP3    H116167   0.208   4.536   5.392 -2.1710 -0.1483 -2.7648
 5401TIP3    H216168   0.071   4.588   5.428 -0.3953  2.1682  1.3720
 5402TIP3   OH216169   6.930   6.327   3.569  0.6010 -0.1169  0.3095
 5402TIP3    H116170   6.916   6.263   3.499  0.5281 -0.3730  0.5561
 5402TIP3    H216171   7.010   6.298   3.612  0.7628  0.1630  0.1980
 5403TIP3   OH216172   2.862   3.003   3.122 -0.0619  0.3698 -0.1340
 5403TIP3    H116173   2.942   2.951   3.121 -0.3879 -0.2713  2.0588
 5403TIP3    H216174   2.791   2.939   3.126 -0.6062  0.9461 -0.3123
 5404TIP3   OH216175   2.625   3.773   3.411  0.0969  0.0043  0.0292
 5404TIP3    H116176   2.539   3.730   3.408 -0.0167  0.1827  0.5409
 5404TIP3    H216177   2.611   3.857   3.367  0.3850 -0.5673 -1.2087
 5405TIP3   OH216178   4.295   6.637   0.222 -0.0709 -0.3737 -0.2565
 5405TIP3    H116179   4.317   6.588   0.143  0.2559  2.4785 -2.0887
 5405TIP3    H216180   4.343   6.719   0.213 -0.8245  0.4772  2.4579
 5406TIP3   OH216181   6.914   2.257   1.561  0.0445 -0.3859  0.2314
 5406TIP3    H116182   6.836   2.254   1.617 -0.5053  0.2735 -0.4835
 5406TIP3    H216183   6.987   2.243   1.621 -0.6548 -1.7883  0.8117
 5407TIP3   OH216184   5.584   6.414   1.047 -0.3681 -0.3937  0.3560
 5407TIP3    H116185   5.567   6.321   1.033 -2.3876 -0.4278  2.4609
 5407TIP3    H216186   5.498   6.455   1.046  0.4732  1.4704 -0.4435
 5408TIP3   OH216187   0.627   2.404   0.065  0.4388  0.4520 -0.2173
 5408TIP3    H116188   0.540   2.429   0.099  0.4526  0.0255  0.1395
 5408TIP3    H216189   0.612   2.320   0.023  1.0218 -0.5006  1.4032
 5409TIP3   OH216190   5.854   3.844   4.220  0.1019  0.7010  0.4198
 5409TIP3    H116191   5.855   3.933   4.257  0.8090  0.9023 -0.0656
 5409TIP3    H216192   5.784   3.846   4.155  1.8702  1.7506 -1.5625
 5410TIP3   OH216193   6.115   6.653   0.639 -0.7297 -0.7871  0.1869
 5410TIP3    H116194   6.033   6.620   0.602 -1.3910  1.8492 -0.9405
 5410TIP3    H216195   6.086   6.715   0.707  0.2799  0.3959 -0.4234
 5411TIP3   OH216196   1.902   5.311   3.689 -0.3158 -0.0721  0.3191
 5411TIP3    H116197   1.967   5.286   3.754 -1.1735  0.5563  1.4477
 5411TIP3    H216198   1.819   5.310   3.736 -1.0893 -0.4997 -1.0000
 5412TIP3   OH216199   3.760   4.237   1.124 -0.1026  0.1931 -0.0385
 5412TIP3    H116200   3.753   4.153   1.080  1.1460  1.0145 -1.9715
 5412TIP3    H216201   3.689   4.290   1.087 -0.9617 -0.0209  1.2596
 5413TIP3   OH216202   1.080   4.043   1.901  0.7117 -0.2506 -0.5344
 5413TIP3    H116203   1.043   3.956   1.884 -0.5689  0.3846 -1.1022
 5413TIP3    H216204   1.167   4.040   1.860  0.7037 -1.2619 -0.5224
 5414TIP3   OH216205   7.172   0.648   4.543  0.1819 -0.4876 -0.1988
 5414TIP3    H116206   7.152   0.737   4.572  0.8641 -0.7473  1.1935
 5414TIP3    H216207   7.259   0.654   4.505 -0.0393 -0.4451 -0.7002
 5415TIP3   OH216208   0.566   1.522   0.786  0.0580 -0.2468  0.3734
 5415TIP3    H116209   0.483   1.475   0.784  0.1641 -0.4068 -0.6244
 5415TIP3    H216210   0.541   1.614   0.777  0.0083 -0.3283 -0.3655
 5416TIP3   OH216211   0.067   0.216   4.132 -0.1536  0.4245 -0.0587
 5416TIP3    H116212   0.080   0.280   4.062 -0.0724  1.4365  0.8554
 5416TIP3    H216213   0.023   0.265   4.201  0.8502 -0.2421  1.0842
 5417TIP3   OH216214   4.696   1.583   5.891 -0.1737 -0.2398 -0.2135
 5417TIP3    H116215   4.651   1.667   5.893 -1.2232 -0.7929  0.9627
 5417TIP3    H216216   4.642   1.528   5.833 -0.0415 -0.3886 -0.1963
 5418TIP3   OH216217   6.144   1.349   3.306  0.3930  0.0239  0.1637
 5418TIP3    H116218   6.196   1.326   3.382  0.0176  0.0985  0.4469
 5418TIP3    H216219   6.058   1.310   3.323  1.2935 -3.2677 -1.9366
 5419TIP3   OH216220   5.445   2.088   1.472  0.2113 -0.0362  0.2163
 5419TIP3    H116221   5.373   2.047   1.424  1.5570 -1.8938 -0.3108
 5419TIP3    H216222   5.523   2.068   1.420  1.1039  2.3184  0.5168
 5420TIP3   OH216223   1.700   6.179   5.288 -0.1706 -0.0887 -1.3482
 5420TIP3    H116224   1.774   6.193   5.347 -0.6436 -1.3242 -0.4335
 5420TIP3    H216225   1.649   6.260   5.294  0.3085  0.1791 -0.8323
 5421TIP3   OH216226   4.531   0.283   0.930 -0.2440  0.0064 -0.2180
 5421TIP3    H116227   4.478   0.215   0.971 -0.5443  0.1643 -0.3395
 5421TIP3    H216228   4.604   0.236   0.891  0.1948 -0.1128  0.7287
 5422TIP3   OH216229   3.427   2.131   3.996 -0.4285  0.0912  0.3100
 5422TIP3    H116230   3.350   2.098   3.949 -0.2423  1.3453 -0.9585
 5422TIP3    H216231   3.502   2.099   3.945 -0.1335 -0.3543  1.0129
 5423TIP3   OH216232   0.637   0.330   0.208 -0.3550 -0.0082  0.1076
 5423TIP3    H116233   0.603   0.288   0.287 -3.4578 -0.3151 -1.2400
 5423TIP3    H216234   0.629   0.424   0.226  0.0868 -0.0590  0.5858
 5424TIP3   OH216235   2.455   2.299   4.768  0.1824  0.0431 -0.2691
 5424TIP3    H116236   2.400   2.263   4.838 -1.0765  0.9530 -0.7491
 5424TIP3    H216237   2.516   2.228   4.747  0.9294 -0.1076  2.0551
 5425TIP3   OH216238   4.881   4.207   1.755 -0.3262  0.4918 -0.2785
 5425TIP3    H116239   4.880   4.287   1.703  0.3765  0.8976  0.3188
 5425TIP3    H216240   4.965   4.167   1.735  0.4683  1.2515  1.4166
 5426TIP3   OH216241   1.952   2.184   0.624  0.0451  0.0273  0.0173
 5426TIP3    H116242   1.967   2.148   0.537 -2.4329 -1.0989 -0.0250
 5426TIP3    H216243   1.872   2.235   0.616  0.0240  0.2755  1.5287
 5427TIP3   OH216244   2.232   6.145   1.620  0.4183 -0.2179  0.1983
 5427TIP3    H116245   2.310   6.097   1.591  1.1064  0.9590  0.0189
 5427TIP3    H216246   2.160   6.082   1.610  1.4783 -1.7345  1.4775
 5428TIP3   OH216247   3.295   2.660   3.253 -0.0744  0.0107 -0.3567
 5428TIP3    H116248   3.339   2.682   3.335 -0.2368  1.8618 -0.7113
 5428TIP3    H216249   3.233   2.591   3.276  1.5653 -1.2103  0.5574
 5429TIP3   OH216250   1.189   5.606   2.376  0.3656  0.3544  0.2967
 5429TIP3    H116251   1.140   5.538   2.422  0.3147  1.0526  1.3259
 5429TIP3    H216252   1.122   5.663   2.339  0.3991  0.6532  0.6924
 5430TIP3   OH216253   3.276   0.928   5.655  0.4538 -0.3376 -0.2984
 5430TIP3    H116254   3.217   0.988   5.610  0.2325  0.1066  0.5645
 5430TIP3    H216255   3.279   0.850   5.598  1.3149  0.7384 -1.8127
 5431TIP3   OH216256   2.987   0.706   3.399 -0.1970 -0.1117  0.1135
 5431TIP3    H116257   2.935   0.716   3.319 -1.4496 -0.6951  0.8175
 5431TIP3    H216258   2.984   0.793   3.440  0.1122  0.0837 -0.2718
 5432TIP3   OH216259   3.493   1.796   5.344  0.3692 -0.2151 -0.0829
 5432TIP3    H116260   3.543   1.718   5.367 -0.2920 -0.6360 -0.0157
 5432TIP3    H216261   3.543   1.869   5.379  0.1629 -0.7304  1.3649
 5433TIP3   OH216262   3.995   6.267   0.153 -0.3126  0.0191 -0.0428
 5433TIP3    H116263   3.980   6.178   0.119  0.0075 -0.5028  1.1241
 5433TIP3    H216264   3.950   6.324   0.091  1.9422 -0.6856 -2.5377
 5434TIP3   OH216265   1.505   6.197   4.966  0.0076 -0.0672 -0.2346
 5434TIP3    H116266   1.519   6.283   4.928  0.9039 -0.2307 -0.2799
 5434TIP3    H216267   1.592   6.166   4.992 -0.0619 -1.6107 -1.6371
 5435TIP3   OH216268   5.330   5.906   2.063 -0.0363 -0.1280 -0.0253
 5435TIP3    H116269   5.420   5.908   2.096 -0.5212 -0.6859  1.4110
 5435TIP3    H216270   5.309   5.997   2.043  0.8668 -0.0054 -0.4189
 5436TIP3   OH216271   7.216   2.767   4.715 -0.1192 -0.0360  0.4625
 5436TIP3    H116272   7.124   2.796   4.720  0.0836  0.8247 -0.4010
 5436TIP3    H216273   7.211   2.678   4.680 -0.6576 -0.2178  0.9928
 5437TIP3   OH216274   3.704   0.811   4.297  0.0853  0.0213 -0.6892
 5437TIP3    H116275   3.630   0.807   4.236 -0.9728 -0.6932  0.5949
 5437TIP3    H216276   3.734   0.902   4.293 -1.7768  0.6915 -0.1911
 5438TIP3   OH216277   7.035   5.956   0.863 -0.1152  0.5773 -0.1771
 5438TIP3    H116278   7.030   5.919   0.951  0.4833  2.3109  0.6140
 5438TIP3    H216279   6.948   5.939   0.825  0.1916 -1.7661  0.0503
 5439TIP3   OH216280   0.546   1.376   3.152  0.0502 -0.0383  0.3070
 5439TIP3    H116281   0.612   1.308   3.139  0.6210  0.3632  1.0170
 5439TIP3    H216282   0.597   1.455   3.170 -0.5858  0.6483 -0.7572
 5440TIP3   OH216283   0.112   4.396   2.532  0.0750  0.0248  0.0170
 5440TIP3    H116284   0.200   4.361   2.543 -0.7417 -2.1441  0.0150
 5440TIP3    H216285   0.125   4.491   2.525  2.3488 -0.2016  0.4267
 5441TIP3   OH216286   3.228   0.819   3.724  0.3356 -0.2616  0.1721
 5441TIP3    H116287   3.246   0.728   3.701  0.3007 -0.2470  0.0843
 5441TIP3    H216288   3.152   0.842   3.670  0.9909  0.1423 -0.5889
 5442TIP3   OH216289   6.440   5.486   5.532 -0.1383 -0.3463  0.2893
 5442TIP3    H116290   6.510   5.495   5.468 -0.3506 -0.0507  0.0905
 5442TIP3    H216291   6.360   5.478   5.479 -0.5505  1.8326  0.4844
 5443TIP3   OH216292   2.399   3.913   0.857  0.4866 -0.3505  0.7717
 5443TIP3    H116293   2.305   3.901   0.848  0.5490 -1.5458  1.5294
 5443TIP3    H216294   2.408   3.969   0.934  0.4119 -0.4694  0.8667
 5444TIP3   OH216295   0.468   3.920   2.318 -0.0477 -0.6195  0.1222
 5444TIP3    H116296   0.554   3.888   2.291 -0.1195  0.0673 -0.9734
 5444TIP3    H216297   0.486   3.989   2.381  0.1719 -1.0681  0.5574
 5445TIP3   OH216298   2.628   4.606   3.950 -0.0933  0.0957  0.1431
 5445TIP3    H116299   2.654   4.692   3.915 -0.6614 -0.1404 -0.9289
 5445TIP3    H216300   2.693   4.586   4.017 -0.7456  2.0077  1.4436
 5446TIP3   OH216301   0.426   6.570   1.349 -0.5289  0.2846  0.2319
 5446TIP3    H116302   0.474   6.609   1.276 -0.3047  2.0953  1.2743
 5446TIP3    H216303   0.398   6.645   1.402 -1.7041 -0.9063  1.3889
 5447TIP3   OH216304   6.334   5.257   4.345 -0.3114 -0.4750  0.3392
 5447TIP3    H116305   6.302   5.257   4.255 -0.1537  0.3248  0.2842
 5447TIP3    H216306   6.411   5.200   4.343 -1.0108 -1.4436  0.2271
 5448TIP3   OH216307   0.033   4.666   4.976 -0.6010 -0.0826 -0.0684
 5448TIP3    H116308   0.011   4.573   4.971 -1.3134  0.1469 -2.3759
 5448TIP3    H216309   0.117   4.673   4.931 -0.1475  0.2865  0.8237
 5449TIP3   OH216310   0.274   3.722   2.396 -0.0214  0.6228 -0.5695
 5449TIP3    H116311   0.337   3.767   2.340 -2.2169  2.3842 -1.7966
 5449TIP3    H216312   0.195   3.715   2.342 -0.9600 -1.3957  0.9154
 5450TIP3   OH216313   2.948   5.263   2.301  0.1944 -0.2679  0.0777
 5450TIP3    H116314   3.043   5.265   2.310  0.2312 -0.3345 -0.2881
 5450TIP3    H216315   2.930   5.180   2.255  0.1280  0.6934 -1.7176
 5451TIP3   OH216316   1.849   5.977   4.076  0.2203  0.0077  0.2194
 5451TIP3    H116317   1.879   5.927   4.000 -0.3626  1.4864 -1.0309
 5451TIP3    H216318   1.779   6.032   4.042 -1.1955 -0.4652  2.2102
 5452TIP3   OH216319   0.387   1.345   0.306  0.0206 -0.6376 -0.7752
 5452TIP3    H116320   0.413   1.299   0.386 -0.2550  0.6267  0.0780
 5452TIP3    H216321   0.468   1.356   0.257  0.7054  0.9333  0.6139
 5453TIP3   OH216322   2.814   0.535   3.201  0.1809  0.0808  0.1365
 5453TIP3    H116323   2.783   0.603   3.141 -2.4875 -1.4591 -0.3934
 5453TIP3    H216324   2.759   0.543   3.278  0.3183 -0.9895  0.3747
 5454TIP3   OH216325   4.524   6.236   3.215  0.5215  0.7992 -0.1316
 5454TIP3    H116326   4.486   6.256   3.130 -1.2536 -0.9543  0.1858
 5454TIP3    H216327   4.473   6.287   3.277  1.2674  1.4256 -0.0187
 5455TIP3   OH216328   6.413   1.861   2.431 -0.2017  0.1092  0.1043
 5455TIP3    H116329   6.336   1.842   2.377  0.8924 -0.5710 -1.3116
 5455TIP3    H216330   6.456   1.934   2.387  0.0548  0.3675  0.7753
 5456TIP3   OH216331   3.894   5.271   0.544  0.5361 -0.2363 -0.0884
 5456TIP3    H116332   3.925   5.362   0.545 -1.3496  0.4583  1.2887
 5456TIP3    H216333   3.799   5.278   0.531  0.2792 -1.9828  0.5726
 5457TIP3   OH216334   6.254   1.344   5.904 -0.1662 -0.0848 -0.0925
 5457TIP3    H116335   6.193   1.350   5.831  0.3282  1.7983 -0.4230
 5457TIP3    H216336   6.272   1.251   5.914 -1.2569 -0.4750 -1.5167
 5458TIP3   OH216337   4.345   5.527   5.809 -0.2170 -0.2389  0.1451
 5458TIP3    H116338   4.386   5.613   5.818  2.1731 -1.2627 -0.2566
 5458TIP3    H216339   4.318   5.522   5.718  1.2531 -0.5371 -0.2996
 5459TIP3   OH216340   1.257   1.932   4.566  0.4483 -0.0056 -0.5705
 5459TIP3    H116341   1.198   1.868   4.606  1.5162 -0.2954  0.6303
 5459TIP3    H216342   1.298   1.976   4.641 -0.7442  2.6246 -1.3303
 5460TIP3   OH216343   4.917   5.213   2.696  0.3115  0.4112 -0.1371
 5460TIP3    H116344   5.006   5.198   2.666  0.2234 -2.1962  0.6605
 5460TIP3    H216345   4.862   5.186   2.623  0.1373 -4.5593  1.4698
 5461TIP3   OH216346   4.881   5.900   2.666  0.2408 -0.0763 -0.2810
 5461TIP3    H116347   4.877   5.804   2.667 -0.3656 -0.0538 -0.2142
 5461TIP3    H216348   4.872   5.923   2.574  0.4641 -0.0826 -0.3057
 5462TIP3   OH216349   5.748   5.264   2.177  0.5823  0.0351  0.2771
 5462TIP3    H116350   5.696   5.344   2.181  0.0197 -0.3659  2.6217
 5462TIP3    H216351   5.759   5.247   2.084 -0.4399  2.0881 -0.2739
 5463TIP3   OH216352   3.092   3.192   0.687 -0.4441  0.1244 -0.0990
 5463TIP3    H116353   3.179   3.215   0.654 -0.0034 -1.4425 -0.1206
 5463TIP3    H216354   3.096   3.215   0.780 -0.3110  0.8338 -0.2693
 5464TIP3   OH216355   6.623   2.080   4.782  0.0468  0.5674 -0.3569
 5464TIP3    H116356   6.694   2.125   4.829 -2.0325  1.6179  1.9789
 5464TIP3    H216357   6.592   2.144   4.718  1.5585 -0.1445 -1.8900
 5465TIP3   OH216358   1.601   5.274   3.060  0.2149 -0.2624 -0.2146
 5465TIP3    H116359   1.533   5.208   3.044 -0.6609  0.9807 -1.9557
 5465TIP3    H216360   1.555   5.346   3.104  0.6314  0.1434 -0.4376
 5466TIP3   OH216361   4.888   1.306   1.342  0.0071  0.0763  0.4146
 5466TIP3    H116362   4.905   1.250   1.418 -1.6168 -0.8861  0.1353
 5466TIP3    H216363   4.901   1.248   1.267  0.2931  0.6438  0.0200
 5467TIP3   OH216364   7.120   3.094   1.557 -0.0643 -0.4508 -0.0831
 5467TIP3    H116365   7.196   3.043   1.527  0.7167  0.7572 -0.2049
 5467TIP3    H216366   7.083   3.041   1.628  1.6200 -0.5103  0.7944
 5468TIP3   OH216367   5.206   1.434   0.579  0.3227  0.3985  0.0374
 5468TIP3    H116368   5.159   1.514   0.554  0.8245  0.4743 -0.6861
 5468TIP3    H216369   5.192   1.428   0.674 -1.1657  0.3925 -0.1599
 5469TIP3   OH216370   1.458   0.169   1.106 -0.0697  0.0818  0.0736
 5469TIP3    H116371   1.475   0.179   1.199  1.5995 -1.0063 -0.0779
 5469TIP3    H216372   1.539   0.198   1.064 -0.7816  0.5142 -1.0604
 5470TIP3   OH216373   0.535   2.450   1.139 -0.1210  0.3115 -0.3179
 5470TIP3    H116374   0.476   2.512   1.097 -0.1744  0.1846 -0.4307
 5470TIP3    H216375   0.550   2.382   1.073 -2.3281 -1.3187  0.7414
 5471TIP3   OH216376   6.097   1.623   4.513 -0.2723 -0.0756  0.6245
 5471TIP3    H116377   6.090   1.528   4.510  0.5044 -0.1537 -2.6933
 5471TIP3    H216378   6.007   1.654   4.521 -0.8645 -1.1427 -1.3065
 5472TIP3   OH216379   3.287   1.521   2.706 -0.4952 -0.2636  0.0100
 5472TIP3    H116380   3.367   1.556   2.667  0.6425 -1.7011  0.9472
 5472TIP3    H216381   3.232   1.497   2.631  0.7258 -0.9442 -0.6973
 5473TIP3   OH216382   5.296   3.446   1.070  0.3834  0.0168 -0.3200
 5473TIP3    H116383   5.330   3.482   1.152  0.0075 -1.2309  0.4146
 5473TIP3    H216384   5.350   3.487   1.002  0.2657  1.5757  0.4849
 5474TIP3   OH216385   1.530   6.657   5.130 -0.1765 -0.1018 -0.3134
 5474TIP3    H116386   1.584   6.623   5.058  0.9355 -1.6974  1.1851
 5474TIP3    H216387   1.529   6.751   5.117 -0.1360 -0.3585 -2.4847
 5475TIP3   OH216388   0.003   6.371   0.041  0.3238  0.3052  0.2133
 5475TIP3    H116389   0.080   6.425   0.026 -0.4113  1.7759  1.3704
 5475TIP3    H216390  -0.008   6.372   0.136  0.2852 -1.9701  0.2993
 5476TIP3   OH216391   5.929   0.079   3.403  0.2659 -0.4665 -0.5203
 5476TIP3    H116392   6.004   0.075   3.345 -0.0151  0.2461 -0.9364
 5476TIP3    H216393   5.854   0.091   3.345 -0.2586 -1.8028 -0.1639
 5477TIP3   OH216394   3.398   6.488   5.532  0.3379 -0.0256  0.1469
 5477TIP3    H116395   3.312   6.506   5.495  0.5731  1.0812  0.1062
 5477TIP3    H216396   3.419   6.400   5.501  0.1337  0.5028 -1.5975
 5478TIP3   OH216397   1.802   1.098   3.874 -0.2882 -0.3600  0.2325
 5478TIP3    H116398   1.734   1.163   3.891 -0.0376 -0.1998  0.6748
 5478TIP3    H216399   1.862   1.107   3.949  0.0418 -0.7194  0.0166
 5479TIP3   OH216400   3.141   1.985   0.930 -0.4421  0.3931  1.2509
 5479TIP3    H116401   3.219   1.932   0.919  0.2000  1.2435  1.5645
 5479TIP3    H216402   3.070   1.922   0.941  0.1163 -0.3897  0.4748
 5480TIP3   OH216403   0.558   6.337   4.001 -0.8557  0.0259 -0.0981
 5480TIP3    H116404   0.471   6.322   4.037 -0.7063 -0.8081 -0.0669
 5480TIP3    H216405   0.617   6.333   4.076 -0.5531 -1.6475 -0.3814
 5481TIP3   OH216406   2.100   0.955   5.331 -0.4819  0.6941  0.6370
 5481TIP3    H116407   2.141   0.878   5.370  0.3420  1.7240  1.9176
 5481TIP3    H216408   2.008   0.932   5.323  0.0149 -1.0225 -0.6177
 5482TIP3   OH216409   4.180   5.112   2.829 -0.4014 -0.6776 -0.1487
 5482TIP3    H116410   4.230   5.090   2.908  0.6442 -0.0993 -0.6434
 5482TIP3    H216411   4.091   5.080   2.849 -0.1385 -0.6494  1.2131
 5483TIP3   OH216412   1.613   0.434   5.193  0.2164 -0.2333  0.5612
 5483TIP3    H116413   1.551   0.361   5.193  0.0167 -0.0648  0.4781
 5483TIP3    H216414   1.583   0.491   5.123 -0.5664  0.7241  1.6361
 5484TIP3   OH216415   2.984   3.091   1.193  0.6705 -0.0319  0.1156
 5484TIP3    H116416   2.893   3.063   1.200  0.6609 -0.3133 -1.0140
 5484TIP3    H216417   3.026   3.055   1.270 -0.1345 -0.0524  0.5573
 5485TIP3   OH216418   2.587   4.980   2.308 -0.2441  0.2978 -0.4167
 5485TIP3    H116419   2.498   4.953   2.333  0.4561 -2.6362 -0.7097
 5485TIP3    H216420   2.591   4.962   2.214  0.6235  0.5225 -0.4231
 5486TIP3   OH216421   3.384   6.012   4.516  0.0946  0.1655 -0.6131
 5486TIP3    H116422   3.394   5.917   4.522  1.9911  0.1699 -2.4618
 5486TIP3    H216423   3.473   6.046   4.523 -0.5490  1.8323 -0.0106
 5487TIP3   OH216424   3.806   5.796   4.459  0.0771 -0.4178 -0.2113
 5487TIP3    H116425   3.801   5.701   4.447  0.2961 -0.3120 -1.2948
 5487TIP3    H216426   3.867   5.825   4.391  0.7687  0.4016  0.7290
 5488TIP3   OH216427   6.451   1.848   3.190 -0.0268 -0.1805 -0.1784
 5488TIP3    H116428   6.486   1.826   3.104  0.9766 -0.1322  0.2013
 5488TIP3    H216429   6.526   1.839   3.249 -1.0038 -1.6348  0.9247
 5489TIP3   OH216430   3.868   2.845   1.024  0.6578  0.3496  0.0489
 5489TIP3    H116431   3.824   2.895   0.955 -0.1882 -0.4962 -0.0337
 5489TIP3    H216432   3.897   2.765   0.981 -3.7309 -2.3301  1.4731
 5490TIP3   OH216433   3.872   5.433   0.182 -0.1623 -0.3250 -0.0363
 5490TIP3    H116434   3.816   5.502   0.147  0.6230 -0.2062 -1.1126
 5490TIP3    H216435   3.886   5.457   0.274  1.1085  1.6422 -0.6828
 5491TIP3   OH216436   1.753   5.691   4.256  0.3100 -0.0999 -0.1084
 5491TIP3    H116437   1.782   5.662   4.169 -1.9922 -0.1188 -0.9409
 5491TIP3    H216438   1.691   5.624   4.284  1.3777 -0.3384  1.8187
 5492TIP3   OH216439   3.141   6.761   4.664 -0.6079 -0.4720  0.1403
 5492TIP3    H116440   3.082   6.747   4.590 -0.1777 -0.5242 -0.1955
 5492TIP3    H216441   3.101   6.711   4.735 -0.0721 -1.9621 -0.5557
 5493TIP3   OH216442   6.157   5.568   0.169  0.0025  0.1817 -0.8469
 5493TIP3    H116443   6.079   5.533   0.126 -0.1349  0.0306 -0.4789
 5493TIP3    H216444   6.221   5.579   0.098 -0.6046  1.0364 -1.2738
 5494TIP3   OH216445   3.999   1.009   0.564 -0.0892  0.2659  0.0649
 5494TIP3    H116446   3.940   1.084   0.571 -0.4302  0.5599 -3.8081
 5494TIP3    H216447   4.069   1.038   0.506  0.6803 -1.8995 -0.1975
 5495TIP3   OH216448   6.791   2.866   4.233 -0.1000  0.3805  0.0633
 5495TIP3    H116449   6.825   2.777   4.249 -0.2509  0.5071  1.2201
 5495TIP3    H216450   6.763   2.865   4.142  0.9618 -0.4118 -0.2776
 5496TIP3   OH216451   5.237   5.633   3.282  0.0044  0.2154  0.5568
 5496TIP3    H116452   5.324   5.668   3.259  0.7381 -1.9541 -0.1839
 5496TIP3    H216453   5.187   5.637   3.201 -0.0821  0.0623  0.6026
 5497TIP3   OH216454   1.092   5.128   0.542 -0.2589  0.1919  0.0733
 5497TIP3    H116455   1.114   5.046   0.586  0.2720  0.3681  0.1501
 5497TIP3    H216456   1.034   5.103   0.471 -1.3616 -0.0724  1.0401
 5498TIP3   OH216457   0.174   1.592   3.936 -0.0087 -0.4492 -0.3941
 5498TIP3    H116458   0.177   1.533   4.011  2.2546 -0.6822 -0.6058
 5498TIP3    H216459   0.187   1.535   3.860 -1.4564 -0.1051 -0.9377
 5499TIP3   OH216460   5.054   0.678   2.757  0.3833 -0.0918  0.0521
 5499TIP3    H116461   5.073   0.585   2.768 -0.7045 -0.1997  1.3539
 5499TIP3    H216462   5.070   0.716   2.844 -3.1505  0.1428  0.7671
 5500TIP3   OH216463   0.083   5.680   1.060 -0.0696 -0.1514  0.0911
 5500TIP3    H116464   0.012   5.740   1.083 -0.8410 -1.2398  0.6362
 5500TIP3    H216465   0.142   5.733   1.006 -0.6476  1.1276  0.6690
 5501TIP3   OH216466   1.208   5.762   0.226 -0.0446  0.4105  0.1799
 5501TIP3    H116467   1.204   5.779   0.321 -0.8908  1.8408 -0.0824
 5501TIP3    H216468   1.276   5.696   0.217 -0.9247 -0.8448  1.9291
 5502TIP3   OH216469   0.669   5.593   1.873  0.0829 -0.0291  0.2390
 5502TIP3    H116470   0.667   5.688   1.884 -0.0632  0.0246 -0.2650
 5502TIP3    H216471   0.661   5.559   1.963  0.9702  0.4379  0.5023
 5503TIP3   OH216472   0.393   3.385   1.008  0.1743 -0.6467  0.5467
 5503TIP3    H116473   0.319   3.421   0.960  1.0593 -0.4486 -0.7145
 5503TIP3    H216474   0.375   3.291   1.014  0.0226 -0.6632 -0.1270
 5504TIP3   OH216475   1.815   6.417   2.395  0.4880 -0.1434 -0.1275
 5504TIP3    H116476   1.821   6.323   2.413 -1.3043 -0.0862  1.1353
 5504TIP3    H216477   1.841   6.459   2.477  1.6326  0.4836 -0.8020
 5505TIP3   OH216478   3.763   1.296   5.537 -0.9188 -0.5932  0.7045
 5505TIP3    H116479   3.736   1.284   5.446 -0.4029  0.1248  0.4509
 5505TIP3    H216480   3.741   1.213   5.579 -1.7659 -0.6974  0.0813
 5506TIP3   OH216481   7.037   0.108   5.839  0.5329  0.3132 -0.3119
 5506TIP3    H116482   7.051   0.173   5.770  1.4311  0.0682 -0.3755
 5506TIP3    H216483   7.115   0.052   5.836 -0.0648 -0.5594 -0.0305
 5507TIP3   OH216484   4.706   2.473   3.647 -0.1854 -0.5029 -0.2018
 5507TIP3    H116485   4.623   2.512   3.671 -0.0758  1.7576 -3.0352
 5507TIP3    H216486   4.766   2.500   3.717 -1.3245 -0.3462  0.7533
 5508TIP3   OH216487   3.684   4.077   5.581  0.0305 -0.0776  0.1026
 5508TIP3    H116488   3.590   4.092   5.568 -0.0562 -0.0164  0.8068
 5508TIP3    H216489   3.719   4.162   5.608  0.0910 -0.3675  0.9526
 5509TIP3   OH216490   6.486   3.875   5.528 -0.2604 -0.3700  0.2593
 5509TIP3    H116491   6.450   3.831   5.606  0.6251 -3.0568 -0.7378
 5509TIP3    H216492   6.417   3.868   5.463 -0.3701  0.4229  0.2711
 5510TIP3   OH216493   0.089   6.402   3.544  0.0106  0.8632  0.7437
 5510TIP3    H116494   0.055   6.441   3.464 -0.1964  0.8268  0.8112
 5510TIP3    H216495   0.177   6.372   3.522 -0.4194 -0.0659  0.2370
 5511TIP3   OH216496   3.876   1.029   2.088  0.0406  0.6338 -0.1762
 5511TIP3    H116497   3.940   0.999   2.152  0.5317  0.2810 -0.8214
 5511TIP3    H216498   3.871   0.958   2.024 -2.3995 -0.2039  0.8241
 5512TIP3   OH216499   1.102   6.269   1.705 -0.1275 -0.0543 -0.0175
 5512TIP3    H116500   1.101   6.279   1.609 -1.0466  2.0738  0.1502
 5512TIP3    H216501   1.011   6.248   1.728  0.0582 -0.3951  0.4188
 5513TIP3   OH216502   0.688   5.007   5.394  0.7008  0.7036 -0.0539
 5513TIP3    H116503   0.648   4.925   5.422  3.1157 -0.2802  0.8357
 5513TIP3    H216504   0.656   5.072   5.457 -1.7872  0.6937 -1.1840
 5514TIP3   OH216505   6.217   0.843   2.295 -0.0601  0.1837 -0.3338
 5514TIP3    H116506   6.132   0.866   2.258 -0.1786 -0.2164 -0.3102
 5514TIP3    H216507   6.216   0.747   2.301 -0.2254  0.2530  1.1255
 5515TIP3   OH216508   1.185   1.151   3.689  0.0417  0.2672 -0.4348
 5515TIP3    H116509   1.131   1.227   3.666 -0.1765  0.2644  0.0596
 5515TIP3    H216510   1.123   1.079   3.694 -0.3639  0.6863  2.4974
 5516TIP3   OH216511   4.025   5.077   4.425  0.5891 -0.4452 -0.3044
 5516TIP3    H116512   3.957   5.079   4.492 -2.0303 -1.4879 -2.7168
 5516TIP3    H216513   4.062   4.989   4.433  1.0400 -0.2036  0.4027
 5517TIP3   OH216514   1.119   4.241   3.247 -0.1877 -0.2571 -0.4542
 5517TIP3    H116515   1.112   4.162   3.194 -1.1373  0.3969 -1.3295
 5517TIP3    H216516   1.190   4.222   3.308 -0.0137 -1.5614 -1.0275
 5518TIP3   OH216517   4.762   6.523   3.089 -0.2443 -0.3388  0.5019
 5518TIP3    H116518   4.813   6.448   3.120  1.4542  1.0887  1.2899
 5518TIP3    H216519   4.730   6.564   3.169  0.3513  0.7900  0.1724
 5519TIP3   OH216520   5.698   1.214   5.271 -0.1306  0.0079 -0.1077
 5519TIP3    H116521   5.679   1.271   5.346 -0.3653  0.6280 -0.6350
 5519TIP3    H216522   5.613   1.175   5.249 -0.1520  0.2111 -0.3736
 5520TIP3   OH216523   4.983   6.490   5.608  0.5270 -0.0763  0.0503
 5520TIP3    H116524   5.058   6.503   5.551 -0.1758  1.0068 -0.6653
 5520TIP3    H216525   5.013   6.520   5.694  0.7946  0.7305 -0.3162
 5521TIP3   OH216526   5.170   0.809   4.405 -0.1991  0.7397  0.6080
 5521TIP3    H116527   5.152   0.864   4.482 -1.9856  0.4481  0.4301
 5521TIP3    H216528   5.111   0.735   4.414 -0.1294  0.4791 -0.8381
 5522TIP3   OH216529   0.263   3.893   4.574  0.2752 -0.9522 -0.3238
 5522TIP3    H116530   0.341   3.889   4.629  0.6477  0.5483 -0.6994
 5522TIP3    H216531   0.190   3.887   4.636  0.6826  1.3764  0.4712
 5523TIP3   OH216532   6.452   1.893   5.707  0.5326 -0.0153 -0.7093
 5523TIP3    H116533   6.428   1.954   5.638 -0.5624 -0.6880 -0.9434
 5523TIP3    H216534   6.434   1.807   5.670  0.2961 -0.4024  0.2698
 5524TIP3   OH216535   4.221   5.137   0.741 -0.4891  0.9272  0.3648
 5524TIP3    H116536   4.149   5.106   0.686  0.0408  0.9445 -0.3571
 5524TIP3    H216537   4.181   5.199   0.801 -1.0497  1.0549 -0.1386
 5525TIP3   OH216538   4.574   6.031   0.820  0.0651  0.1102  0.3219
 5525TIP3    H116539   4.572   5.953   0.764 -0.8922  0.0891  0.3665
 5525TIP3    H216540   4.482   6.059   0.825  0.4907  1.7384 -0.3626
 5526TIP3   OH216541   3.559   3.752   3.859 -0.0334  0.4502  0.5253
 5526TIP3    H116542   3.604   3.702   3.927 -1.6883 -1.1273  0.5058
 5526TIP3    H216543   3.621   3.754   3.786  0.9179  0.3508  1.3063
 5527TIP3   OH216544   6.978   2.562   5.812 -0.2271 -0.4261 -0.7234
 5527TIP3    H116545   6.904   2.623   5.801 -0.3724 -0.6630 -1.0813
 5527TIP3    H216546   6.999   2.534   5.723 -1.3196 -2.2723 -0.4456
 5528TIP3   OH216547   5.005   6.520   0.379 -0.2399 -0.0622  0.7953
 5528TIP3    H116548   5.027   6.529   0.472 -1.1892 -0.8336  1.1087
 5528TIP3    H216549   5.056   6.444   0.350  0.5032  0.5238  0.5219
 5529TIP3   OH216550   1.964   3.203   1.441  0.0208  0.5189  0.1463
 5529TIP3    H116551   1.918   3.172   1.519  2.2553  3.2195  2.7722
 5529TIP3    H216552   1.933   3.293   1.429  1.0030  0.7289 -1.0150
 5530TIP3   OH216553   1.415   1.795   4.083 -0.4766  0.2609  0.1387
 5530TIP3    H116554   1.464   1.873   4.110  0.1286  0.6047 -1.8082
 5530TIP3    H216555   1.399   1.808   3.990 -1.3073 -1.4608  0.0102
 5531TIP3   OH216556   3.603   5.693   1.066 -0.1902 -0.5538  0.2889
 5531TIP3    H116557   3.550   5.613   1.070 -0.3215 -0.4103  1.8486
 5531TIP3    H216558   3.689   5.665   1.096  0.3805 -0.5531 -1.2453
 5532TIP3   OH216559   1.840   6.641   1.080  0.4879  0.4743  0.5668
 5532TIP3    H116560   1.807   6.615   0.994  1.7877 -1.1986  0.5260
 5532TIP3    H216561   1.769   6.621   1.141  0.6579 -1.2368  0.2415
 5533TIP3   OH216562   0.061   1.818   5.697  0.4486 -0.0229  0.0711
 5533TIP3    H116563   0.086   1.729   5.719 -0.6174 -1.2427 -3.1080
 5533TIP3    H216564  -0.015   1.836   5.753  1.7615 -0.3215  2.0583
 5534TIP3   OH216565   2.778   0.751   3.034  0.1126  0.0626  0.0523
 5534TIP3    H116566   2.697   0.750   2.983  0.2447 -1.3139 -0.1688
 5534TIP3    H216567   2.847   0.734   2.969  0.2641 -1.9925  0.6700
 5535TIP3   OH216568   1.825   6.458   5.385  0.1505  0.2696 -0.1176
 5535TIP3    H116569   1.801   6.543   5.420 -3.3212 -0.7434  0.3937
 5535TIP3    H216570   1.790   6.395   5.449 -1.1075 -1.5530 -2.4351
 5536TIP3   OH216571   2.843   5.917   5.239  0.9322 -0.1205 -0.1606
 5536TIP3    H116572   2.874   5.999   5.199 -0.5474  0.9974  0.8690
 5536TIP3    H216573   2.885   5.916   5.325  1.2526 -0.6663 -0.3190
 5537TIP3   OH216574   2.715   5.221   5.472  0.1179  0.3488  0.0778
 5537TIP3    H116575   2.721   5.195   5.564 -0.6106  1.2808  0.4031
 5537TIP3    H216576   2.634   5.273   5.467  0.3192  0.5703 -1.0150
 5538TIP3   OH216577   4.441   2.827   3.611  0.5204  0.2780  0.1535
 5538TIP3    H116578   4.349   2.817   3.587  0.5341  1.4784 -0.4570
 5538TIP3    H216579   4.458   2.754   3.671 -0.9862  0.3771  0.7493
 5539TIP3   OH216580   4.099   3.931   2.990 -0.0380  0.5340  0.0191
 5539TIP3    H116581   4.148   4.008   2.961 -0.6872  1.7550  2.0328
 5539TIP3    H216582   4.055   3.958   3.070  1.3967 -2.5543  2.0266
 5540TIP3   OH216583   6.491   1.527   2.974 -0.2220  0.0844  0.5730
 5540TIP3    H116584   6.549   1.602   2.967  0.3924 -0.3951  0.3989
 5540TIP3    H216585   6.404   1.561   2.954  0.1236  0.6431 -0.0053
 5541TIP3   OH216586   6.799   5.347   1.602 -0.3478  0.3318  0.1531
 5541TIP3    H116587   6.742   5.404   1.551  0.8053  1.0178 -0.3853
 5541TIP3    H216588   6.865   5.317   1.540  0.1968 -0.0284  0.8930
 5542TIP3   OH216589   0.156   3.453   0.176  0.4475 -0.1140 -0.1129
 5542TIP3    H116590   0.158   3.454   0.272 -0.1861  0.8708 -0.0992
 5542TIP3    H216591   0.228   3.395   0.152 -0.5099 -1.8427  0.9699
 5543TIP3   OH216592   4.935   1.169   2.733 -0.3049  0.0927 -0.1407
 5543TIP3    H116593   5.021   1.140   2.702 -0.6018 -0.6421 -0.3070
 5543TIP3    H216594   4.872   1.119   2.680 -0.9077  2.4498 -1.8383
 5544TIP3   OH216595   5.271   6.634   3.099  0.1859  0.0187 -0.5564
 5544TIP3    H116596   5.292   6.712   3.048 -0.4470  0.0347 -0.8025
 5544TIP3    H216597   5.226   6.577   3.037  1.4968 -0.9720 -0.6554
 5545TIP3   OH216598   0.176   0.322   5.828  0.3011 -0.0085 -0.3854
 5545TIP3    H116599   0.238   0.313   5.901  0.6902  1.1305 -0.5536
 5545TIP3    H216600   0.184   0.240   5.780  2.9980  0.7360 -1.4052
 5546TIP3   OH216601   2.088   2.452   4.331 -0.1440 -0.0948 -0.1046
 5546TIP3    H116602   2.052   2.429   4.416  1.3017 -0.5114  0.4280
 5546TIP3    H216603   2.065   2.378   4.274 -1.8205  0.5604 -0.3162
 5547TIP3   OH216604   5.557   3.613   4.834  0.8031 -0.2666  0.7480
 5547TIP3    H116605   5.574   3.672   4.908 -1.1230 -1.2301  2.0583
 5547TIP3    H216606   5.488   3.658   4.784  1.0731 -0.2904  0.3522
 5548TIP3   OH216607   6.101   6.457   1.390 -0.5913 -0.2449 -1.1462
 5548TIP3    H116608   6.033   6.430   1.328  0.3931 -0.6449 -2.0819
 5548TIP3    H216609   6.099   6.389   1.457  1.6847 -2.7074 -3.3524
 5549TIP3   OH216610   6.106   0.098   0.792  0.7689  0.0610  0.1873
 5549TIP3    H116611   6.097   0.006   0.769 -1.1460  0.4781 -0.9850
 5549TIP3    H216612   6.041   0.112   0.861  0.6993  0.6308  0.0126
 5550TIP3   OH216613   3.345   5.971   4.162  0.3471 -0.4020  0.0969
 5550TIP3    H116614   3.415   6.009   4.108  0.2250 -1.2916 -0.7040
 5550TIP3    H216615   3.325   6.039   4.226  0.7177  0.5553 -0.7819
 5551TIP3   OH216616   2.929   5.851   3.262 -0.1753  0.3075 -0.6981
 5551TIP3    H116617   2.838   5.873   3.282  0.3760  0.1430  2.5126
 5551TIP3    H216618   2.972   5.936   3.250 -0.4244  0.4671 -0.4806
 5552TIP3   OH216619   2.425   6.072   0.111  0.1344 -0.4704 -0.2319
 5552TIP3    H116620   2.367   5.996   0.105 -1.6407  0.7796  0.0917
 5552TIP3    H216621   2.470   6.075   0.027 -0.2013 -1.5320 -0.4623
 5553TIP3   OH216622   2.227   2.425   3.449 -0.0219 -0.3093  0.0750
 5553TIP3    H116623   2.185   2.494   3.396 -1.4368  0.4681  2.0580
 5553TIP3    H216624   2.320   2.434   3.430 -0.4252 -0.0102 -2.1437
 5554TIP3   OH216625   4.804   3.016   4.861  0.3890  0.1554  0.1047
 5554TIP3    H116626   4.737   3.066   4.813  0.5954 -0.5824 -0.9919
 5554TIP3    H216627   4.770   3.010   4.950 -0.1672  1.2914 -0.0114
 5555TIP3   OH216628   1.632   6.095   1.951  0.2003 -0.1643 -0.0536
 5555TIP3    H116629   1.675   6.178   1.973 -1.7369  1.4918 -1.9981
 5555TIP3    H216630   1.570   6.081   2.022  1.6285 -0.8760  1.1138
 5556TIP3   OH216631   3.010   0.976   1.993  0.2386 -0.7622 -0.5878
 5556TIP3    H116632   3.069   0.902   1.999 -0.7138 -1.5420 -0.5662
 5556TIP3    H216633   2.968   0.982   2.079  0.0328 -0.4357 -0.7062
 5557TIP3   OH216634   5.321   0.528   3.677 -0.2846  0.1581  0.7942
 5557TIP3    H116635   5.259   0.485   3.618 -0.3914  1.5303 -0.1460
 5557TIP3    H216636   5.266   0.583   3.733  0.0024  0.6744  0.5771
 5558TIP3   OH216637   0.305   4.290   0.910  0.0958  0.3836  0.6019
 5558TIP3    H116638   0.251   4.369   0.902 -1.6157 -0.7551  0.2236
 5558TIP3    H216639   0.363   4.294   0.834 -3.0677 -0.8633 -2.1828
 5559TIP3   OH216640   2.751   2.838   0.835 -0.2175 -0.2942  0.5492
 5559TIP3    H116641   2.681   2.834   0.900  0.1176 -0.7921  0.8829
 5559TIP3    H216642   2.817   2.897   0.874 -0.9314  1.0835 -0.2488
 5560TIP3   OH216643   0.210   2.180   0.156  0.1740  0.3165 -0.2057
 5560TIP3    H116644   0.165   2.162   0.073 -0.4427 -0.7452  0.3319
 5560TIP3    H216645   0.267   2.254   0.137 -0.6182  0.6634 -1.3431
 5561TIP3   OH216646   4.847   2.560   5.670  0.4505  0.0818  0.4051
 5561TIP3    H116647   4.882   2.643   5.702  0.4226  0.2493  0.0063
 5561TIP3    H216648   4.813   2.580   5.583  2.5089 -0.8182 -0.6838
 5562TIP3   OH216649   6.333   3.867   2.356 -0.6003 -0.6043 -0.4687
 5562TIP3    H116650   6.408   3.820   2.320 -0.4702 -1.1643  0.4894
 5562TIP3    H216651   6.256   3.822   2.320 -0.4865  0.0241 -1.5181
 5563TIP3   OH216652   4.145   4.581   0.507  0.2591 -0.0986  0.6769
 5563TIP3    H116653   4.110   4.622   0.586 -1.0532 -0.2153  0.1840
 5563TIP3    H216654   4.072   4.583   0.445  0.9185 -1.0192 -0.1528
 5564TIP3   OH216655   7.029   0.281   4.554 -0.0138  0.0647  0.1381
 5564TIP3    H116656   7.018   0.302   4.647 -1.1606  0.5615 -0.0952
 5564TIP3    H216657   6.962   0.333   4.509  0.3520 -0.3653 -0.9467
 5565TIP3   OH216658   1.568   6.496   1.117 -0.6134 -0.1531  0.6289
 5565TIP3    H116659   1.637   6.436   1.144  1.5757  0.9527 -1.9625
 5565TIP3    H216660   1.493   6.440   1.098 -0.5733 -1.4011  3.6289
 5566TIP3   OH216661   4.378   1.513   1.255  0.0648  0.5504  0.5770
 5566TIP3    H116662   4.430   1.434   1.243 -0.3807  0.3127  0.1424
 5566TIP3    H216663   4.379   1.530   1.349 -0.7245 -0.6013  0.8163
 5567TIP3   OH216664   0.872   2.105   0.667  0.5717 -0.0233  0.3661
 5567TIP3    H116665   0.856   2.077   0.757 -0.0113 -1.1343 -0.0661
 5567TIP3    H216666   0.786   2.104   0.625  0.9269 -0.2363 -0.3887
 5568TIP3   OH216667   4.025   1.963   2.448  0.0571 -0.8632  0.2322
 5568TIP3    H116668   4.059   2.001   2.529 -1.0160 -0.1432  0.3717
 5568TIP3    H216669   3.946   1.916   2.475 -1.6673  1.3368 -0.6577
 5569TIP3   OH216670   0.011   5.363   0.749  0.0420 -0.1763  0.5805
 5569TIP3    H116671   0.077   5.433   0.752 -0.1239 -0.0353  1.1771
 5569TIP3    H216672   0.057   5.287   0.714  0.2858  0.1695  0.1441
 5570TIP3   OH216673   4.857   1.585   3.565 -0.2120  0.2586  0.2212
 5570TIP3    H116674   4.788   1.609   3.627 -1.1220 -0.9762 -0.2680
 5570TIP3    H216675   4.873   1.492   3.582  0.6053  0.2834 -0.3723
 5571TIP3   OH216676   2.613   3.222   1.591  0.5503  0.1249  0.2999
 5571TIP3    H116677   2.540   3.283   1.606  1.6642  1.4701  0.5051
 5571TIP3    H216678   2.658   3.257   1.514  0.5210 -1.1579 -0.3130
 5572TIP3   OH216679   0.335   1.988   1.728 -0.3765 -0.1793 -0.3843
 5572TIP3    H116680   0.335   2.073   1.772 -0.9498 -0.6222  0.5171
 5572TIP3    H216681   0.277   2.000   1.653 -1.1686  0.0037  0.2294
 5573TIP3   OH216682   2.281   0.852   0.522 -0.2599 -0.2104  0.4213
 5573TIP3    H116683   2.218   0.922   0.539  0.4520 -0.0258  2.6611
 5573TIP3    H216684   2.363   0.884   0.559  0.8450 -0.9962 -1.2493
 5574TIP3   OH216685   1.300   0.994   4.100  0.0073  0.3671  0.0185
 5574TIP3    H116686   1.296   1.081   4.061 -0.8554  0.4784  0.3359
 5574TIP3    H216687   1.393   0.980   4.118  0.1926  1.0735 -0.3573
 5575TIP3   OH216688   0.102   4.706   2.230 -0.4362  0.0893  0.2766
 5575TIP3    H116689   0.075   4.781   2.282 -0.6228 -1.0886  1.9732
 5575TIP3    H216690   0.195   4.718   2.215 -0.9094  1.8483 -1.5908
 5576TIP3   OH216691   3.162   4.715   0.446  0.3107  0.1995 -0.0184
 5576TIP3    H116692   3.195   4.625   0.446 -0.1311 -0.1604  4.3661
 5576TIP3    H216693   3.235   4.768   0.477 -0.5578  0.7016  1.2626
 5577TIP3   OH216694   4.573   6.033   5.384 -0.4085  0.6373 -0.3693
 5577TIP3    H116695   4.495   6.085   5.363 -0.6140  0.4086 -0.1836
 5577TIP3    H216696   4.590   6.052   5.476  0.5921  1.7717 -0.7665
 5578TIP3   OH216697   2.364   2.637   3.120  0.1898 -0.2432 -0.9245
 5578TIP3    H116698   2.291   2.670   3.172  1.4071 -1.0726  1.4699
 5578TIP3    H216699   2.435   2.700   3.135  0.6306 -0.5994 -1.4586
 5579TIP3   OH216700   3.605   1.630   3.561  0.0324 -0.0727 -0.0805
 5579TIP3    H116701   3.611   1.545   3.605 -0.6672 -0.3889 -0.5879
 5579TIP3    H216702   3.696   1.658   3.551  0.4215 -1.7199 -1.7540
 5580TIP3   OH216703   5.222   3.783   1.493 -0.0109  0.0542 -0.0378
 5580TIP3    H116704   5.174   3.853   1.448  0.9060  0.9749  0.3625
 5580TIP3    H216705   5.312   3.817   1.501  0.3450 -0.9859  0.5608
 5581TIP3   OH216706   1.523   2.594   4.169 -0.5093 -0.4089 -0.0700
 5581TIP3    H116707   1.569   2.585   4.252  0.0183  0.4059 -0.2670
 5581TIP3    H216708   1.485   2.507   4.153  0.5636 -0.9622  0.3166
 5582TIP3   OH216709   4.707   2.823   5.218  0.3541  0.0534 -0.0145
 5582TIP3    H116710   4.685   2.772   5.140  0.7280 -0.8347  0.4346
 5582TIP3    H216711   4.626   2.869   5.241  0.8924  2.3499 -2.3509
 5583TIP3   OH216712   6.680   4.785   4.714  0.0423  0.2269 -0.0272
 5583TIP3    H116713   6.740   4.719   4.678 -0.0849  0.6951 -1.1474
 5583TIP3    H216714   6.736   4.840   4.769 -0.0250 -1.3425  1.6935
 5584TIP3   OH216715   4.635   3.623   0.884  0.3390  0.2135 -0.6365
 5584TIP3    H116716   4.571   3.562   0.919 -0.9166  0.8042 -1.8030
 5584TIP3    H216717   4.694   3.641   0.957 -0.2002 -1.1456  0.1651
 5585TIP3   OH216718   1.995   4.687   4.071 -0.3795  0.1654  0.4851
 5585TIP3    H116719   1.944   4.766   4.090  1.0563  1.8581 -1.9407
 5585TIP3    H216720   2.028   4.658   4.156  1.6283  4.1329  1.2991
 5586TIP3   OH216721   0.032   6.494   0.348  0.3193 -0.2874 -0.0564
 5586TIP3    H116722  -0.018   6.476   0.428  0.7396 -1.7785 -0.0982
 5586TIP3    H216723   0.124   6.487   0.376  0.4711 -1.5378 -0.7970
 5587TIP3   OH216724   2.654   2.958   2.113  0.6061 -0.4215  0.0967
 5587TIP3    H116725   2.727   2.957   2.051  0.0676  2.0701 -0.7342
 5587TIP3    H216726   2.576   2.945   2.058  0.2431  0.0758  0.4791
 5588TIP3   OH216727   7.157   0.112   5.583  0.1619  0.1685 -0.0366
 5588TIP3    H116728   7.091   0.182   5.581 -0.3483 -0.2586  1.2960
 5588TIP3    H216729   7.111   0.035   5.548  0.4520  0.2562 -0.6308
 5589TIP3   OH216730   1.931   4.685   3.601  0.7111 -0.0053 -0.4536
 5589TIP3    H116731   1.854   4.740   3.616  0.2457 -0.4837 -1.0283
 5589TIP3    H216732   1.950   4.647   3.686 -0.4633 -0.8709 -0.5506
 5590TIP3   OH216733   5.420   1.830   3.671 -0.0124  0.8029  0.4078
 5590TIP3    H116734   5.449   1.827   3.579  1.4916  1.2598  0.8382
 5590TIP3    H216735   5.350   1.765   3.675  0.4679  0.1405 -0.8816
 5591TIP3   OH216736   5.027   4.765   4.298 -0.1549 -0.9539  0.1639
 5591TIP3    H116737   4.944   4.813   4.290 -0.6956 -1.4085  2.3093
 5591TIP3    H216738   5.085   4.826   4.345  0.4346 -0.9795 -0.5204
 5592TIP3   OH216739   4.288   5.467   4.946  0.2351  0.4872  0.3254
 5592TIP3    H116740   4.257   5.415   4.872  2.7751  2.2077 -2.0970
 5592TIP3    H216741   4.345   5.408   4.995 -0.2974 -0.2216  0.1087
 5593TIP3   OH216742   4.063   6.102   1.905  1.1329  0.4691  0.3424
 5593TIP3    H116743   4.086   6.076   1.994  0.9962  2.0345  0.8693
 5593TIP3    H216744   4.139   6.080   1.852  0.9563 -1.1116  0.6897
 5594TIP3   OH216745   6.068   0.723   5.664  0.4892  0.1768 -0.2191
 5594TIP3    H116746   6.136   0.776   5.622  0.3789  0.2323 -0.3269
 5594TIP3    H216747   6.098   0.713   5.754  1.1364 -0.6237 -0.5042
 5595TIP3   OH216748   2.518   5.493   2.116 -0.1217  0.6002 -0.0949
 5595TIP3    H116749   2.446   5.553   2.133 -0.4041  0.1479  0.3232
 5595TIP3    H216750   2.535   5.501   2.022  0.7604  2.3490  0.1740
 5596TIP3   OH216751   0.801   1.823   4.338  0.0233 -0.4665  0.1582
 5596TIP3    H116752   0.777   1.746   4.389  1.9766  0.2142  2.2442
 5596TIP3    H216753   0.800   1.895   4.401  1.9952  0.5088 -0.8287
 5597TIP3   OH216754   0.152   3.663   0.427 -0.1530 -0.2061  0.1221
 5597TIP3    H116755   0.076   3.608   0.447  1.7129 -3.2525 -0.5282
 5597TIP3    H216756   0.198   3.672   0.510  0.4120 -1.1267 -0.0754
 5598TIP3   OH216757   3.524   5.827   1.308 -0.3343  0.1422 -0.4683
 5598TIP3    H116758   3.525   5.746   1.359 -2.7044  0.2035 -0.2205
 5598TIP3    H216759   3.517   5.798   1.217  1.5256  0.0746 -0.6277
 5599TIP3   OH216760   6.777   3.375   2.730 -0.6029 -0.4109 -0.1455
 5599TIP3    H116761   6.801   3.434   2.802  1.0734  0.7416 -1.5440
 5599TIP3    H216762   6.743   3.433   2.661  1.8906 -0.8401 -1.8903
 5600TIP3   OH216763   0.965   6.490   3.496  0.1703 -0.4846  0.0788
 5600TIP3    H116764   0.891   6.453   3.544  1.1696 -0.9468  1.3283
 5600TIP3    H216765   0.963   6.446   3.411 -0.6169 -0.9437  0.3204
 5601TIP3   OH216766   1.576   4.354   4.241  0.2929 -0.0054 -0.0503
 5601TIP3    H116767   1.611   4.266   4.255 -0.7164 -0.4754 -0.3968
 5601TIP3    H216768   1.650   4.404   4.207  1.6572  0.0367  2.6812
 5602TIP3   OH216769   6.180   6.345   2.339 -0.3431  0.6802 -0.4253
 5602TIP3    H116770   6.147   6.429   2.307 -1.9822  0.8713  1.5653
 5602TIP3    H216771   6.233   6.368   2.415  0.1805 -0.0347 -0.5664
 5603TIP3   OH216772   2.744   5.046   2.544  0.1136  0.0971 -0.2954
 5603TIP3    H116773   2.804   4.973   2.527  5.5854  4.4125 -2.5209
 5603TIP3    H216774   2.690   5.050   2.465  1.1865 -0.3646 -1.0848
 5604TIP3   OH216775   5.280   1.233   4.698  0.6554 -0.1240  0.0439
 5604TIP3    H116776   5.313   1.193   4.778  0.6110 -0.1630  0.0425
 5604TIP3    H216777   5.194   1.268   4.722  0.1906 -1.0235 -0.2442
 5605TIP3   OH216778   5.099   2.596   0.411 -0.2966  0.0069 -0.0374
 5605TIP3    H116779   5.105   2.599   0.506  0.0997 -1.0591 -0.0100
 5605TIP3    H216780   5.050   2.674   0.387 -1.2210 -0.2044  1.1067
 5606TIP3   OH216781   4.985   3.093   4.584  0.7012  0.0920  0.1721
 5606TIP3    H116782   5.032   3.014   4.558  0.4632  0.6609 -2.1857
 5606TIP3    H216783   5.029   3.121   4.665  2.8152 -0.7251 -0.6211
 5607TIP3   OH216784   2.529   4.301   4.660 -0.5015 -0.1857 -0.0919
 5607TIP3    H116785   2.487   4.323   4.577  0.1928 -3.4022 -1.4371
 5607TIP3    H216786   2.622   4.311   4.643 -0.2252 -2.7458 -0.4350
 5608TIP3   OH216787   0.134   1.560   5.766  0.2946  0.0680 -0.0948
 5608TIP3    H116788   0.078   1.510   5.826  0.1434 -0.5670 -0.7462
 5608TIP3    H216789   0.188   1.494   5.723  0.5626  0.5333 -0.4863
 5609TIP3   OH216790   5.563   4.762   2.095  0.2885 -0.7135  0.1381
 5609TIP3    H116791   5.657   4.780   2.097  0.5438 -1.8189  2.6712
 5609TIP3    H216792   5.549   4.717   2.012  1.8502  0.1078 -0.6106
 5610TIP3   OH216793   5.380   3.068   5.466 -0.8380  0.1550 -0.0832
 5610TIP3    H116794   5.320   3.099   5.397 -0.2950  0.5589 -0.3795
 5610TIP3    H216795   5.462   3.114   5.449 -0.9177  0.8570  1.2874
 5611TIP3   OH216796   5.653   1.829   3.824  0.2664 -0.2914 -0.2100
 5611TIP3    H116797   5.583   1.832   3.758 -1.3506 -0.4681  1.3966
 5611TIP3    H216798   5.656   1.917   3.860  0.3842 -0.4624  0.2071
 5612TIP3   OH216799   3.038   3.483   4.788  0.4124  0.6584 -0.6547
 5612TIP3    H116800   3.057   3.522   4.873 -0.3693  2.4860 -1.2653
 5612TIP3    H216801   2.944   3.464   4.791  0.4136  0.5809 -1.0424
 5613TIP3   OH216802   6.344   1.675   1.907 -0.3456  0.0905 -0.2574
 5613TIP3    H116803   6.265   1.686   1.960 -0.5683 -0.3098 -0.5067
 5613TIP3    H216804   6.416   1.696   1.967 -0.4851 -1.9751  0.7293
 5614TIP3   OH216805   4.189   3.606   2.749  0.3107 -0.6484 -0.1996
 5614TIP3    H116806   4.280   3.620   2.724  0.8897 -2.0235  0.9888
 5614TIP3    H216807   4.181   3.645   2.836 -0.1640 -0.7166 -0.2092
 5615TIP3   OH216808   4.261   3.092   2.070  0.2496  0.0561 -0.2355
 5615TIP3    H116809   4.224   3.141   1.997  2.8413  1.6886 -0.5940
 5615TIP3    H216810   4.274   3.158   2.139  0.6781 -0.8236  0.5497
 5616TIP3   OH216811   5.437   0.813   5.689 -0.1959  0.5328 -0.4499
 5616TIP3    H116812   5.384   0.874   5.740 -0.2514  2.0373 -2.2092
 5616TIP3    H216813   5.527   0.842   5.702 -0.0827  0.0711 -0.1551
 5617TIP3   OH216814   1.013   0.938   4.437 -0.3685  0.0663  0.3679
 5617TIP3    H116815   1.059   0.951   4.520  1.5711 -1.4386 -0.3903
 5617TIP3    H216816   0.953   0.865   4.455  0.8129 -0.9803  0.2220
 5618TIP3   OH216817   0.006   4.736   3.496 -0.1875 -0.4653 -0.0415
 5618TIP3    H116818   0.021   4.646   3.467 -0.8057 -0.6538  0.2061
 5618TIP3    H216819  -0.014   4.728   3.589  0.3702 -0.0090  0.1194
 5619TIP3   OH216820   2.932   5.928   0.808 -0.1700 -0.3410 -0.0035
 5619TIP3    H116821   3.019   5.893   0.789 -0.8559 -1.5077 -1.1817
 5619TIP3    H216822   2.888   5.858   0.856  0.0597  0.9045  2.1816
 5620TIP3   OH216823   0.374   6.152   3.724 -0.2040  0.0441  0.7143
 5620TIP3    H116824   0.281   6.152   3.747 -0.6272 -2.1427 -0.6822
 5620TIP3    H216825   0.396   6.245   3.715 -2.6080  0.6039 -0.2268
 5621TIP3   OH216826   4.351   3.727   4.806 -0.2399  0.1077 -0.8954
 5621TIP3    H116827   4.412   3.783   4.758 -0.9149 -0.3662 -2.3633
 5621TIP3    H216828   4.328   3.657   4.745 -0.4028 -1.0781  0.4549
 5622TIP3   OH216829   7.026   4.228   0.199  0.3669 -0.2606  0.0078
 5622TIP3    H116830   6.964   4.300   0.209  1.4065  0.5492  0.7948
 5622TIP3    H216831   7.096   4.263   0.144 -0.4047 -1.5430 -1.8886
 5623TIP3   OH216832   2.964   1.601   3.145  0.5360 -0.0322 -0.3553
 5623TIP3    H116833   2.892   1.544   3.169 -0.4019  2.2253  2.9535
 5623TIP3    H216834   2.926   1.665   3.085  0.1581  0.1635  0.0821
 5624TIP3   OH216835   2.809   5.728   5.707 -0.1737 -0.0500  0.3668
 5624TIP3    H116836   2.803   5.635   5.686  0.1701 -0.2022  0.9376
 5624TIP3    H216837   2.872   5.763   5.643 -0.1466 -0.2447  0.2865
 5625TIP3   OH216838   2.454   1.104   5.083  0.4259 -0.2147 -0.3261
 5625TIP3    H116839   2.444   1.173   5.018  0.5826 -0.3676 -0.5139
 5625TIP3    H216840   2.398   1.131   5.156 -1.4312 -1.0623 -1.3574
 5626TIP3   OH216841   6.433   5.922   0.488 -0.5962  0.8426  0.1329
 5626TIP3    H116842   6.351   5.882   0.519 -0.4249 -1.4601 -2.0791
 5626TIP3    H216843   6.407   5.972   0.411 -0.0168  0.5628 -0.2483
 5627TIP3   OH216844   6.739   5.344   3.217 -0.8622 -0.4082  0.2637
 5627TIP3    H116845   6.814   5.284   3.211 -1.9203 -1.6204 -3.3803
 5627TIP3    H216846   6.673   5.293   3.265 -0.8010 -1.0956 -0.3557
 5628TIP3   OH216847   5.078   1.487   1.880 -0.4902 -0.7304 -0.2785
 5628TIP3    H116848   5.113   1.562   1.832  0.8631 -1.6958 -0.8416
 5628TIP3    H216849   5.127   1.485   1.962 -0.0162 -1.4159 -0.5735
 5629TIP3   OH216850   2.481   0.510   4.737 -0.6076  0.0839  0.5754
 5629TIP3    H116851   2.551   0.460   4.695 -0.7342  0.2556  0.1519
 5629TIP3    H216852   2.525   0.589   4.770 -0.9958  1.3731 -1.8199
 5630TIP3   OH216853   0.130   5.120   1.787 -0.4313  0.4102  0.2082
 5630TIP3    H116854   0.038   5.143   1.800 -0.5830 -0.1838  0.2162
 5630TIP3    H216855   0.149   5.148   1.698 -1.1708 -1.1780 -0.4940
 5631TIP3   OH216856   2.752   0.074   2.248 -0.4774  0.3664  0.3369
 5631TIP3    H116857   2.811   0.149   2.238 -1.9882  1.6374  0.4082
 5631TIP3    H216858   2.808   0.001   2.273  1.1689  1.2586 -0.6134
 5632TIP3   OH216859   6.410   0.989   4.432 -0.1428 -0.2552  0.1010
 5632TIP3    H116860   6.348   1.025   4.496 -0.9933 -0.1231 -0.7804
 5632TIP3    H216861   6.415   1.056   4.364 -0.3871 -1.0407 -0.6971
 5633TIP3   OH216862   4.418   2.180   4.074  0.1247  0.1276 -0.2809
 5633TIP3    H116863   4.363   2.102   4.072  0.4204 -0.0713 -0.9144
 5633TIP3    H216864   4.412   2.212   4.164  1.4619 -1.6564  0.4939
 5634TIP3   OH216865   4.306   2.616   4.336  0.2113  0.5054  0.1665
 5634TIP3    H116866   4.316   2.680   4.406  0.4009  0.6214  0.0320
 5634TIP3    H216867   4.213   2.623   4.311  0.5520  1.7656 -0.8395
 5635TIP3   OH216868   2.573   0.580   0.113  0.2310 -0.4676  0.8667
 5635TIP3    H116869   2.497   0.607   0.165 -0.7261 -1.7062  0.1623
 5635TIP3    H216870   2.535   0.536   0.037  1.6288  0.2532 -0.2922
 5636TIP3   OH216871   6.732   1.126   2.088 -0.1540  0.8709  1.0076
 5636TIP3    H116872   6.826   1.141   2.080  0.1745 -0.0231  2.8080
 5636TIP3    H216873   6.701   1.195   2.147 -0.5974  0.9991  0.6374
 5637TIP3   OH216874   6.013   6.725   3.256  0.0138  0.6612  0.1192
 5637TIP3    H116875   6.086   6.685   3.208 -0.3080 -0.5335  0.5927
 5637TIP3    H216876   5.934   6.693   3.212 -0.3182 -1.1935  1.9270
 5638TIP3   OH216877   1.370   4.795   2.149 -0.4616  0.3834  0.0132
 5638TIP3    H116878   1.433   4.864   2.127 -1.6124  2.2569  2.2321
 5638TIP3    H216879   1.408   4.716   2.111  1.4711  2.0017 -1.7053
 5639TIP3   OH216880   0.389   4.722   2.600  0.0355  0.5489  0.1879
 5639TIP3    H116881   0.418   4.632   2.614 -2.1664 -0.0244  1.6420
 5639TIP3    H216882   0.458   4.776   2.639  0.8544 -0.5501  0.3042
 5640TIP3   OH216883   4.716   2.065   0.518  0.2796  0.3910  0.0567
 5640TIP3    H116884   4.756   1.979   0.535 -0.2876  0.2026  0.4804
 5640TIP3    H216885   4.788   2.119   0.485  1.2132  0.4494  2.0400
 5641TIP3   OH216886   0.835   0.847   1.504  0.0253 -0.7393 -0.2977
 5641TIP3    H116887   0.855   0.755   1.488 -1.1514 -1.0104 -0.3414
 5641TIP3    H216888   0.795   0.847   1.591 -0.4836 -0.3564 -0.5270
 5642TIP3   OH216889   2.784   5.940   3.798  0.0896  0.1225 -0.4558
 5642TIP3    H116890   2.699   5.965   3.762  0.0511 -1.0955 -1.2796
 5642TIP3    H216891   2.819   6.020   3.836 -1.1608  0.7803 -0.6486
 5643TIP3   OH216892   1.437   2.387   2.526 -0.2652 -0.5321 -0.8576
 5643TIP3    H116893   1.368   2.451   2.544 -1.3430 -1.9165  0.1984
 5643TIP3    H216894   1.496   2.432   2.466 -0.7440  1.5817  0.1445
 5644TIP3   OH216895   2.512   1.439   1.338  0.4698 -0.0970  0.0868
 5644TIP3    H116896   2.474   1.523   1.364  1.0548  0.6613 -1.3813
 5644TIP3    H216897   2.441   1.393   1.293  0.7896  0.6541 -1.2462
 5645TIP3   OH216898   2.231   3.140   0.513  0.9583  0.4449  0.7667
 5645TIP3    H116899   2.165   3.077   0.541  1.1990  0.5006  1.4744
 5645TIP3    H216900   2.272   3.099   0.437  0.7021  0.0255  0.8497
 5646TIP3   OH216901   6.281   2.335   0.824  0.2510 -0.6876 -0.3388
 5646TIP3    H116902   6.200   2.374   0.792 -0.4226 -1.0686  0.8066
 5646TIP3    H216903   6.335   2.322   0.746 -1.1598 -1.2808 -1.2633
 5647TIP3   OH216904   4.624   1.832   2.146  0.6765 -0.0409  0.2120
 5647TIP3    H116905   4.588   1.803   2.063  0.9673 -1.2104  0.4802
 5647TIP3    H216906   4.548   1.858   2.198  0.5533  1.8165 -0.7850
 5648TIP3   OH216907   3.028   0.965   3.491  0.0329  0.6878 -0.0624
 5648TIP3    H116908   3.070   1.032   3.437 -1.6572  0.2269 -2.0926
 5648TIP3    H216909   2.947   1.007   3.522  1.4250  1.3123  3.1478
 5649TIP3   OH216910   2.396   3.696   1.848 -0.2139  0.2646 -0.2631
 5649TIP3    H116911   2.357   3.718   1.763  1.0235 -0.5674 -1.0869
 5649TIP3    H216912   2.485   3.732   1.844 -0.0841  0.0664  0.6137
 5650TIP3   OH216913   2.581   3.299   0.992  0.5867 -0.1884 -0.2919
 5650TIP3    H116914   2.629   3.315   0.911  0.8877  0.9827  0.1012
 5650TIP3    H216915   2.491   3.324   0.972  0.7136  0.3549 -0.1924
 5651TIP3   OH216916   0.070   3.044   1.186  0.5966  0.1064 -0.3368
 5651TIP3    H116917  -0.020   3.074   1.199  0.7831  0.6738 -0.3303
 5651TIP3    H216918   0.097   3.013   1.273  0.0481 -1.0901 -0.5732
 5652TIP3   OH216919   3.254   5.726   0.995  0.3348 -0.1464  0.4162
 5652TIP3    H116920   3.185   5.789   1.017 -1.2620 -1.6974  0.0678
 5652TIP3    H216921   3.304   5.715   1.075 -0.0087  0.7813  0.7667
 5653TIP3   OH216922   4.860   4.248   3.684  1.1170 -0.3238  0.0867
 5653TIP3    H116923   4.857   4.154   3.703 -0.2370 -0.1432  0.8318
 5653TIP3    H216924   4.790   4.261   3.620  0.3027  0.4074  1.1021
 5654TIP3   OH216925   1.858   3.512   5.443 -0.6484 -0.3480  0.1232
 5654TIP3    H116926   1.903   3.433   5.472 -1.8199 -0.5877  1.4438
 5654TIP3    H216927   1.860   3.507   5.347  0.5186 -1.2463  0.1698
 5655TIP3   OH216928   4.794   4.419   2.573  0.2153 -0.6726 -0.4209
 5655TIP3    H116929   4.820   4.328   2.561 -0.6153 -1.2984  1.9647
 5655TIP3    H216930   4.856   4.453   2.638  0.3430  0.4000 -1.0790
 5656TIP3   OH216931   0.078   6.348   1.546  0.3003  0.6929 -0.4537
 5656TIP3    H116932   0.077   6.443   1.533  1.6593  0.7311 -0.3553
 5656TIP3    H216933   0.161   6.319   1.509 -1.1006 -0.7964 -2.6463
 5657TIP3   OH216934   2.073   4.491   0.092  0.9310  0.2983  0.1291
 5657TIP3    H116935   2.108   4.498   0.181 -0.4830 -0.9728  0.8382
 5657TIP3    H216936   1.978   4.489   0.103  0.7417 -0.8757 -1.2995
 5658TIP3   OH216937   3.062   1.277   1.990 -0.8582  0.1494  0.4498
 5658TIP3    H116938   3.032   1.185   1.993 -0.7404  0.1491  2.0823
 5658TIP3    H216939   3.043   1.304   1.900  1.1208 -2.1305 -0.7906
 5659TIP3   OH216940   3.210   5.669   4.699  0.1507  0.4042 -0.6005
 5659TIP3    H116941   3.269   5.705   4.765  0.1194  1.1560 -0.9646
 5659TIP3    H216942   3.142   5.737   4.689 -3.2964 -2.0732  2.8776
 5660TIP3   OH216943   2.714   0.704   4.817  0.1997 -0.4856 -0.2768
 5660TIP3    H116944   2.631   0.752   4.824 -0.4685 -1.3353 -1.8115
 5660TIP3    H216945   2.751   0.733   4.733  1.0624 -0.7220  0.0105
 5661TIP3   OH216946   7.078   1.881   0.590 -0.0032  0.4268  0.0815
 5661TIP3    H116947   7.138   1.818   0.551 -0.3424 -1.6109  2.6490
 5661TIP3    H216948   6.999   1.874   0.537  1.2185  1.6699 -2.0717
 5662TIP3   OH216949   3.723   4.673   3.332  0.2280  0.1820  0.2104
 5662TIP3    H116950   3.732   4.627   3.248 -2.1199 -0.4690  0.2590
 5662TIP3    H216951   3.754   4.610   3.397  0.0174 -0.1334  0.0100
 5663TIP3   OH216952   4.807   4.384   1.343 -0.2764 -0.3833  0.8475
 5663TIP3    H116953   4.712   4.390   1.328 -0.5085 -0.1576  2.3085
 5663TIP3    H216954   4.826   4.291   1.337 -0.6391 -0.4604  0.8444
 5664TIP3   OH216955   1.259   1.555   0.922 -0.4041  0.4332 -0.0428
 5664TIP3    H116956   1.250   1.574   1.015 -1.2875 -0.2385  0.0278
 5664TIP3    H216957   1.202   1.479   0.907 -1.4932  1.4484 -1.4154
 5665TIP3   OH216958   2.501   5.840   0.305 -0.0542 -0.1451 -0.1979
 5665TIP3    H116959   2.546   5.894   0.240  1.4200 -1.4458 -0.3398
 5665TIP3    H216960   2.447   5.901   0.355  0.9387  1.3169 -0.8436
 5666TIP3   OH216961   7.162   3.690   3.638 -0.3929  0.6541 -0.2269
 5666TIP3    H116962   7.076   3.717   3.605 -0.4028  1.7635  0.6412
 5666TIP3    H216963   7.184   3.756   3.703  0.7310 -0.1127  0.1974
 5667TIP3   OH216964   3.602   3.411   3.381 -0.1108 -0.3473  0.2154
 5667TIP3    H116965   3.512   3.399   3.411  0.3818  0.6071  2.2684
 5667TIP3    H216966   3.607   3.360   3.300 -2.7376  0.3613 -0.4955
 5668TIP3   OH216967   5.702   4.487   3.245 -0.0740  0.4101 -0.1090
 5668TIP3    H116968   5.748   4.552   3.299 -1.8954  1.2907  0.4813
 5668TIP3    H216969   5.683   4.415   3.304 -0.5460  0.6106 -0.0095
 5669TIP3   OH216970   0.303   3.062   1.582 -0.3636 -0.8088  0.4260
 5669TIP3    H116971   0.304   3.154   1.608 -0.9015 -0.8007  0.4242
 5669TIP3    H216972   0.290   3.014   1.664 -1.2387 -0.8221  0.2917
 5670TIP3   OH216973   1.842   5.235   2.153  0.0259  0.0056 -0.2891
 5670TIP3    H116974   1.929   5.274   2.147  0.1564  0.0371  1.3156
 5670TIP3    H216975   1.858   5.142   2.172 -0.2138  0.3711  2.0618
 5671TIP3   OH216976   4.756   6.140   2.036  0.4898 -0.2051 -0.5943
 5671TIP3    H116977   4.707   6.069   1.997  0.6860 -0.0723 -1.0894
 5671TIP3    H216978   4.844   6.104   2.050  0.3636 -0.3200 -0.0721
 5672TIP3   OH216979   1.894   0.121   0.783 -0.3895  0.1046 -0.0017
 5672TIP3    H116980   1.946   0.108   0.863 -1.8935 -1.7737  0.7794
 5672TIP3    H216981   1.954   0.162   0.721  0.9786  1.1887  1.9355
 5673TIP3   OH216982   1.911   0.421   5.813 -0.0715  0.5645  0.0542
 5673TIP3    H116983   1.866   0.411   5.729 -1.5926  1.8574  0.6587
 5673TIP3    H216984   1.855   0.375   5.876 -1.2364  3.0921  1.0001
 5674TIP3   OH216985   4.131   6.758   3.746  0.1539 -0.6994  0.2938
 5674TIP3    H116986   4.090   6.671   3.741 -0.1842 -0.5460  0.3417
 5674TIP3    H216987   4.203   6.754   3.684 -1.3498 -0.2267 -1.5721
 5675TIP3   OH216988   1.819   6.099   3.246 -0.0662 -0.4081  0.2338
 5675TIP3    H116989   1.824   6.127   3.154  0.6399  0.2331  0.4566
 5675TIP3    H216990   1.798   6.178   3.295  0.6966 -0.5036  0.7391
 5676TIP3   OH216991   5.794   0.998   4.089  0.2036  0.2352  0.1481
 5676TIP3    H116992   5.791   1.029   3.999  0.4470 -1.3525 -0.4438
 5676TIP3    H216993   5.873   1.037   4.126  1.5074 -1.0756 -1.1359
 5677TIP3   OH216994   6.655   0.343   3.383  0.0753 -0.0110  0.5453
 5677TIP3    H116995   6.649   0.273   3.318 -1.8642  0.2707  0.3596
 5677TIP3    H216996   6.579   0.399   3.364  1.3562  1.9288  0.9256
 5678TIP3   OH216997   2.295   6.569   5.441 -0.2408  0.1432 -0.1817
 5678TIP3    H116998   2.316   6.602   5.354 -0.2335  0.4050 -0.0825
 5678TIP3    H216999   2.363   6.504   5.460 -0.3672 -0.0702 -0.4593
 5679TIP3   OH217000   0.412   3.724   4.125 -0.3871  0.7455  0.0848
 5679TIP3    H117001   0.403   3.655   4.190  1.9062  0.8379  0.5750
 5679TIP3    H217002   0.352   3.793   4.155 -1.2965 -0.2437  0.6204
 5680TIP3   OH217003   1.177   5.332   1.816 -0.0031  0.2953  0.3288
 5680TIP3    H117004   1.082   5.334   1.809 -0.0354 -0.7809  0.2789
 5680TIP3    H217005   1.194   5.319   1.910 -0.0159 -2.2681  0.0698
 5681TIP3   OH217006   4.675   6.388   3.376  0.2221  0.4140 -0.6838
 5681TIP3    H117007   4.628   6.396   3.294 -1.7769 -1.2067  0.2139
 5681TIP3    H217008   4.629   6.447   3.436 -0.3958 -0.8081  0.0763
 5682TIP3   OH217009   7.097   3.333   1.930 -0.1984  0.3673  0.4985
 5682TIP3    H117010   7.040   3.405   1.905 -1.0939 -0.6059 -0.3449
 5682TIP3    H217011   7.129   3.297   1.847 -2.1783 -2.0883  0.6681
 5683TIP3   OH217012   0.761   1.991   2.242 -0.7677 -0.1534  0.1827
 5683TIP3    H117013   0.788   2.066   2.295 -0.1672 -0.6453  0.5880
 5683TIP3    H217014   0.665   1.994   2.244 -0.7901  1.4355 -1.0200
 5684TIP3   OH217015   5.950   1.844   1.820 -0.3384 -0.7367  0.3633
 5684TIP3    H117016   5.909   1.920   1.860 -1.3723 -0.4071 -1.2264
 5684TIP3    H217017   5.885   1.774   1.828 -0.6851 -0.5870 -0.9381
 5685TIP3   OH217018   5.722   5.150   5.564  0.1223  0.1436 -0.1462
 5685TIP3    H117019   5.810   5.181   5.543  0.5765 -0.1366  1.2781
 5685TIP3    H217020   5.696   5.202   5.640 -0.6611 -0.2730 -0.1188
 5686TIP3   OH217021   2.055   2.666   0.055  0.2082  0.1826 -0.2336
 5686TIP3    H117022   2.017   2.581   0.033  1.2577 -0.0408 -1.2297
 5686TIP3    H217023   1.994   2.730   0.018  0.2590 -0.1608 -0.9259
 5687TIP3   OH217024   4.786   0.530   1.102  0.3634  0.1833  0.3514
 5687TIP3    H117025   4.789   0.582   1.021  1.2114  0.4813  0.5648
 5687TIP3    H217026   4.706   0.559   1.146 -0.0397  0.1065 -0.3259
 5688TIP3   OH217027   3.275   3.439   1.734  0.4832  0.1336  0.1248
 5688TIP3    H117028   3.293   3.494   1.811  1.5358  1.2885 -0.8948
 5688TIP3    H217029   3.305   3.492   1.660 -1.5875 -0.4643 -1.2126
 5689TIP3   OH217030   4.863   1.575   0.773  0.1398 -0.0506  0.2354
 5689TIP3    H117031   4.897   1.554   0.860 -1.0058 -0.6236  0.5717
 5689TIP3    H217032   4.771   1.547   0.777 -0.9402  3.0573  0.0098
 5690TIP3   OH217033   1.877   0.872   1.710  0.1916 -0.1562  0.0925
 5690TIP3    H117034   1.950   0.825   1.670  1.0714  1.2610 -0.0557
 5690TIP3    H217035   1.902   0.882   1.802 -1.4627 -2.7080  0.9078
 5691TIP3   OH217036   3.604   1.906   2.038 -0.2699  0.1453  0.0110
 5691TIP3    H117037   3.644   1.993   2.048 -0.0135 -0.0740  0.9644
 5691TIP3    H217038   3.667   1.846   2.078 -1.6354 -0.1890  1.7875
 5692TIP3   OH217039   3.766   2.790   5.773  1.0437 -0.1662  0.0224
 5692TIP3    H117040   3.674   2.765   5.780  0.8197  0.1979 -1.3572
 5692TIP3    H217041   3.805   2.725   5.715  1.4448  0.2078 -0.1342
 5693TIP3   OH217042   3.558   2.402   4.063 -0.0473 -0.4265 -0.1884
 5693TIP3    H117043   3.500   2.334   4.029 -0.7279 -0.2629  0.5973
 5693TIP3    H217044   3.503   2.481   4.066  0.9396  0.3620 -1.7970
 5694TIP3   OH217045   4.902   4.079   5.484  0.5810 -0.5697  0.0357
 5694TIP3    H117046   4.990   4.111   5.503  0.3232 -0.0051  0.2889
 5694TIP3    H217047   4.885   4.013   5.552  0.5338 -0.1720  0.4115
 5695TIP3   OH217048   0.820   3.699   1.861 -0.5361  0.6034 -0.4092
 5695TIP3    H117049   0.803   3.629   1.924 -1.4719  1.1932  0.0239
 5695TIP3    H217050   0.915   3.706   1.857 -0.3242 -1.8844 -1.8208
 5696TIP3   OH217051   1.749   3.710   5.610  0.1122  0.8788  0.7891
 5696TIP3    H117052   1.741   3.773   5.538  1.7083  2.0356  1.5411
 5696TIP3    H217053   1.786   3.632   5.570 -0.7841  0.8075  0.0503
 5697TIP3   OH217054   1.293   3.879   0.928 -0.2036 -0.0194  0.0379
 5697TIP3    H117055   1.263   3.965   0.897 -1.9555 -0.3861  0.6024
 5697TIP3    H217056   1.287   3.823   0.851  1.6130  0.4861 -0.5104
 5698TIP3   OH217057   6.708   6.810   5.600  0.4640 -0.4699  0.2088
 5698TIP3    H117058   6.699   6.798   5.505  0.7139  0.9770 -0.0169
 5698TIP3    H217059   6.702   6.721   5.635  0.9296 -1.0974 -1.2041
 5699TIP3   OH217060   2.818   6.712   4.575  0.0458  0.1973  0.5980
 5699TIP3    H117061   2.785   6.802   4.575 -0.0387  0.2045 -1.1449
 5699TIP3    H217062   2.898   6.716   4.523 -0.4963 -0.8924 -0.3622
 5700TIP3   OH217063   4.937   3.479   2.909  0.1268 -0.0546 -0.1409
 5700TIP3    H117064   4.953   3.512   2.820  1.0470  1.4589  0.5584
 5700TIP3    H217065   5.011   3.420   2.926  0.3272  0.2025 -0.1185
 5701TIP3   OH217066   1.919   2.365   1.715 -0.2634 -0.5253  0.2830
 5701TIP3    H117067   1.911   2.320   1.799  0.9843 -0.0881  0.6480
 5701TIP3    H217068   2.004   2.338   1.681 -0.9734 -1.1283 -1.1143
 5702TIP3   OH217069   6.854   2.736   4.973  0.3200 -1.0227 -0.3449
 5702TIP3    H117070   6.865   2.745   5.068  0.5097  1.3918 -0.5294
 5702TIP3    H217071   6.774   2.683   4.964 -2.2252  2.1016  1.3095
 5703TIP3   OH217072   0.760   2.943   1.398 -0.5734  0.4712 -0.0081
 5703TIP3    H117073   0.781   2.958   1.490  0.2396  0.6611 -0.2245
 5703TIP3    H217074   0.679   2.993   1.384 -0.0516  1.4237  0.2994
 5704TIP3   OH217075   3.039   1.140   5.815  0.3635 -0.2425 -0.1316
 5704TIP3    H117076   3.056   1.060   5.864 -1.8360 -0.6335  0.1017
 5704TIP3    H217077   3.106   1.202   5.844  2.1530 -1.9799 -0.3704
 5705TIP3   OH217078   3.883   4.393   0.104  0.2492 -0.2220 -0.5934
 5705TIP3    H117079   3.881   4.469   0.047 -0.9949  1.5960  1.6844
 5705TIP3    H217080   3.792   4.366   0.112  0.2594  0.1438  1.1628
 5706TIP3   OH217081   4.679   0.492   3.228 -0.3193 -0.5789 -0.1480
 5706TIP3    H117082   4.670   0.412   3.175 -0.8893 -0.5211 -0.1454
 5706TIP3    H217083   4.704   0.461   3.315  0.7226 -0.6708 -0.4621
 5707TIP3   OH217084   5.763   2.305   2.625  0.1185  0.2694  0.1614
 5707TIP3    H117085   5.821   2.335   2.694 -0.8125  1.0536  0.6294
 5707TIP3    H217086   5.764   2.210   2.632 -1.8330  0.3401  2.8944
 5708TIP3   OH217087   7.149   5.216   4.642 -0.2486  0.3147 -0.0280
 5708TIP3    H117088   7.159   5.196   4.736 -0.4761 -1.0086 -0.2611
 5708TIP3    H217089   7.213   5.158   4.599 -1.2687 -0.2829 -0.7901
 5709TIP3   OH217090   0.197   6.724   3.319  0.2977  0.1239  0.7428
 5709TIP3    H117091   0.118   6.768   3.349 -0.6498  0.0296 -1.3657
 5709TIP3    H217092   0.179   6.631   3.333  0.8339  0.1900  1.9633
 5710TIP3   OH217093   4.456   1.466   5.535  0.0220  0.3815  0.5275
 5710TIP3    H117094   4.508   1.459   5.615 -0.1692 -0.4844  0.5858
 5710TIP3    H217095   4.366   1.449   5.563 -0.0954  0.4260  0.1837
 5711TIP3   OH217096   6.223   1.732   4.273  0.0149  0.3061  0.1445
 5711TIP3    H117097   6.294   1.787   4.309 -1.2695  1.9404  0.3041
 5711TIP3    H217098   6.196   1.677   4.347 -1.1931  2.1616  1.1679
 5712TIP3   OH217099   2.990   2.042   4.752 -0.5152  0.3704  0.0305
 5712TIP3    H117100   3.020   1.985   4.681  0.1475  0.1987  0.4394
 5712TIP3    H217101   3.053   2.028   4.823 -0.6349  1.2282  0.3249
 5713TIP3   OH217102   3.878   5.060   0.981 -0.3223 -0.2658  0.0169
 5713TIP3    H117103   3.958   5.037   1.027  1.3660  0.7721 -2.1938
 5713TIP3    H217104   3.814   5.079   1.050  1.0157 -2.0270  1.8458
 5714TIP3   OH217105   3.586   0.262   0.963  0.4783 -0.5888  0.2286
 5714TIP3    H117106   3.664   0.217   0.997  1.5572 -0.3793 -1.8015
 5714TIP3    H217107   3.615   0.299   0.879 -0.8277  2.4542  0.9916
 5715TIP3   OH217108   5.981   2.317   4.034 -0.0031  0.1779  0.1071
 5715TIP3    H117109   6.002   2.273   3.951 -0.6470 -1.0032  0.5535
 5715TIP3    H217110   5.929   2.253   4.083 -0.6607  1.3104  0.9333
 5716TIP3   OH217111   6.227   6.065   4.842  0.1997  0.0552 -0.6647
 5716TIP3    H117112   6.238   6.095   4.752  1.3576 -0.4344 -0.7031
 5716TIP3    H217113   6.217   6.146   4.893  2.9957  0.5826 -0.8030
 5717TIP3   OH217114   5.150   4.475   3.554  0.2128  0.1847  0.1300
 5717TIP3    H117115   5.135   4.455   3.647 -1.9705 -0.3150 -0.2621
 5717TIP3    H217116   5.244   4.462   3.542  0.8409  1.6959  2.5866
 5718TIP3   OH217117   1.172   1.393   0.115  0.1059 -0.2826  0.1840
 5718TIP3    H117118   1.094   1.338   0.112 -0.5089  0.6081 -1.1981
 5718TIP3    H217119   1.197   1.406   0.023 -0.0404  2.0370  0.3927
 5719TIP3   OH217120   5.744   0.150   1.623  0.1477 -0.2271 -0.0393
 5719TIP3    H117121   5.705   0.236   1.611  2.3835  0.6692 -1.5241
 5719TIP3    H217122   5.670   0.089   1.621 -1.3217  1.5058 -0.7734
 5720TIP3   OH217123   0.414   0.371   0.910 -0.2670  0.1633  0.0581
 5720TIP3    H117124   0.326   0.402   0.931 -0.2241 -0.2244  0.8403
 5720TIP3    H217125   0.409   0.276   0.916 -0.3152 -0.0150 -2.0366
 5721TIP3   OH217126   1.832   4.070   1.889  0.2118 -0.2607  0.1600
 5721TIP3    H117127   1.754   4.020   1.915 -1.1394  1.6367 -0.0589
 5721TIP3    H217128   1.875   4.091   1.972 -0.3991  0.0604  0.4020
 5722TIP3   OH217129   4.914   0.946   0.232  0.1189 -0.2576 -0.4725
 5722TIP3    H117130   4.899   0.861   0.273  0.5645 -0.3797 -0.5588
 5722TIP3    H217131   4.992   0.981   0.277 -0.1172  0.1477 -0.3692
 5723TIP3   OH217132   4.309   1.939   4.026 -0.5254 -0.0099 -0.1909
 5723TIP3    H117133   4.230   1.886   4.036  0.4544 -1.2784  1.4264
 5723TIP3    H217134   4.380   1.882   4.056  0.5927  2.2056  1.7356
 5724TIP3   OH217135   0.008   0.105   3.168  0.6461 -0.1159 -0.1762
 5724TIP3    H117136   0.036   0.103   3.260  0.6747  0.3557 -0.1715
 5724TIP3    H217137   0.056   0.179   3.131 -0.4379  0.5927 -0.2204
 5725TIP3   OH217138   5.449   6.670   5.107 -0.6386  0.8818  0.3633
 5725TIP3    H117139   5.447   6.640   5.198 -0.2502  0.1584  0.1477
 5725TIP3    H217140   5.499   6.602   5.061  1.4171  2.4827  0.0720
 5726TIP3   OH217141   4.170   2.420   3.022 -0.4858  0.0840 -0.2552
 5726TIP3    H117142   4.252   2.467   3.036  0.1632 -1.7228  3.2919
 5726TIP3    H217143   4.108   2.461   3.083 -1.1259 -0.8513 -0.2478
 5727TIP3   OH217144   1.027   3.153   4.095 -0.0860 -0.5596 -0.5529
 5727TIP3    H117145   1.043   3.117   4.183 -2.8799 -1.4137 -0.3028
 5727TIP3    H217146   0.983   3.237   4.112  0.0363 -0.3751 -1.1429
 5728TIP3   OH217147   0.423   5.857   1.269  0.1470  0.4422 -0.7049
 5728TIP3    H117148   0.381   5.773   1.284 -0.5759  0.4467 -2.4626
 5728TIP3    H217149   0.364   5.903   1.209  0.2414  2.4439  0.6525
 5729TIP3   OH217150   5.436   1.537   1.201  0.2627  0.1614 -0.2391
 5729TIP3    H117151   5.418   1.598   1.273 -0.5756  0.6783 -0.8774
 5729TIP3    H217152   5.465   1.592   1.129 -0.5884 -0.1750 -0.8537
 5730TIP3   OH217153   2.589   5.401   2.503  0.0499 -0.3535 -0.1213
 5730TIP3    H117154   2.681   5.380   2.520 -0.4933 -2.9638 -0.0429
 5730TIP3    H217155   2.540   5.345   2.562 -1.6383  0.7585 -0.3884
 5731TIP3   OH217156   2.078   2.399   3.692 -0.4845 -0.0293 -0.0768
 5731TIP3    H117157   2.110   2.418   3.604 -2.0344  0.6024 -0.5457
 5731TIP3    H217158   1.983   2.413   3.686 -0.6878 -0.5120  1.5573
 5732TIP3   OH217159   6.397   5.183   0.801  0.6098  0.1687  0.2555
 5732TIP3    H117160   6.394   5.099   0.756  0.5288 -0.4135  1.3221
 5732TIP3    H217161   6.489   5.208   0.799  0.5459  0.3741 -0.6107
 5733TIP3   OH217162   5.895   5.194   2.900  0.0146  0.3465  0.4966
 5733TIP3    H117163   5.928   5.225   2.984  0.7313 -2.5667  1.4308
 5733TIP3    H217164   5.946   5.115   2.882 -3.8607 -2.3677  0.1787
 5734TIP3   OH217165   1.317   4.421   4.547 -0.3491  0.0594 -0.3568
 5734TIP3    H117166   1.291   4.421   4.455  0.9191  0.0884 -0.7382
 5734TIP3    H217167   1.393   4.363   4.551  0.0180  0.5694  0.5467
 5735TIP3   OH217168   0.307   2.903   2.455 -0.2344 -0.0642 -0.3061
 5735TIP3    H117169   0.224   2.863   2.429 -0.0979  0.5699 -1.8576
 5735TIP3    H217170   0.291   2.936   2.543 -1.3610 -0.6923 -0.2502
 5736TIP3   OH217171   5.775   5.839   0.505  0.3089  0.0915  0.1859
 5736TIP3    H117172   5.838   5.769   0.490 -1.5096 -1.4207 -0.8442
 5736TIP3    H217173   5.714   5.833   0.431  0.4818  3.2700 -0.3591
 5737TIP3   OH217174   6.413   1.773   1.645  0.1721 -0.2419  0.2958
 5737TIP3    H117175   6.504   1.801   1.643  0.1017  0.0374  0.8241
 5737TIP3    H217176   6.400   1.738   1.733 -0.7717  1.6153  0.9580
 5738TIP3   OH217177   0.796   2.561   0.235  0.4499  0.0716  0.0606
 5738TIP3    H117178   0.752   2.502   0.174 -0.4955 -0.0537  0.8317
 5738TIP3    H217179   0.751   2.645   0.222  0.7891  0.2456  0.0136
 5739TIP3   OH217180   4.047   1.177   5.688 -0.1408 -0.1421 -0.6602
 5739TIP3    H117181   3.975   1.178   5.625 -0.4601  2.2732 -0.3697
 5739TIP3    H217182   4.059   1.085   5.709 -3.3024 -0.6608 -0.5688
 5740TIP3   OH217183   3.336   6.374   5.780  0.1637  0.4148  0.1804
 5740TIP3    H117184   3.347   6.396   5.687  1.6032 -2.2207 -0.4036
 5740TIP3    H217185   3.298   6.286   5.779 -0.3910  0.5803  2.1325
 5741TIP3   OH217186   5.030   5.359   1.170 -0.4430  0.0108  1.1033
 5741TIP3    H117187   4.946   5.369   1.215 -0.8511 -0.6152  0.5011
 5741TIP3    H217188   5.073   5.286   1.214 -0.0178  0.5943  1.6827
 5742TIP3   OH217189   4.312   2.263   4.978  0.3373  0.4385  0.0992
 5742TIP3    H117190   4.291   2.216   5.058  0.6043  0.6969  0.3223
 5742TIP3    H217191   4.384   2.213   4.939 -1.9039 -1.6073 -1.6855
 5743TIP3   OH217192   1.366   5.773   3.914 -0.8963 -0.0707 -0.9047
 5743TIP3    H117193   1.363   5.677   3.909  1.0867 -0.1057 -2.4590
 5743TIP3    H217194   1.456   5.793   3.940 -0.9095  1.3861 -1.8590
 5744TIP3   OH217195   3.569   2.240   2.481 -0.6239  0.1239 -0.1947
 5744TIP3    H117196   3.485   2.232   2.435 -0.8035 -0.0743  0.1657
 5744TIP3    H217197   3.565   2.325   2.524  0.2915  1.1597 -2.0256
 5745TIP3   OH217198   5.248   5.626   2.762  0.4150  0.1677 -0.2382
 5745TIP3    H117199   5.321   5.592   2.814 -0.2492  0.4796  0.9153
 5745TIP3    H217200   5.244   5.568   2.686  1.6095 -0.0935 -0.1202
 5746TIP3   OH217201   6.488   6.661   1.638 -0.0638 -0.1511  0.4584
 5746TIP3    H117202   6.501   6.700   1.552 -0.4065  0.5884  0.7365
 5746TIP3    H217203   6.395   6.674   1.657 -0.5733 -2.4341 -0.0794
 5747TIP3   OH217204   7.103   3.733   2.547 -0.6177  0.4635 -0.4035
 5747TIP3    H117205   7.047   3.796   2.503 -2.1598 -0.7146 -0.2368
 5747TIP3    H217206   7.192   3.766   2.535 -1.3299  2.3147 -0.8205
 5748TIP3   OH217207   5.429   4.291   3.681 -0.0307 -0.0999 -0.7553
 5748TIP3    H117208   5.523   4.295   3.701 -0.2626  0.4451  0.3290
 5748TIP3    H217209   5.425   4.296   3.586  0.9712  2.0065 -0.7556
 5749TIP3   OH217210   0.579   1.786   3.390 -0.1402 -0.1478  0.0738
 5749TIP3    H117211   0.587   1.730   3.313  1.2403 -1.0196  0.7981
 5749TIP3    H217212   0.602   1.729   3.464 -1.8321  0.5540  1.1990
 5750TIP3   OH217213   2.120   5.169   3.387  0.5470  0.0015  0.2928
 5750TIP3    H117214   2.139   5.096   3.446  1.7477 -0.1299 -0.2180
 5750TIP3    H217215   2.152   5.246   3.434  0.8508 -0.0156  0.1147
 5751TIP3   OH217216   2.635   1.730   1.163  0.0194  0.0146 -0.9164
 5751TIP3    H117217   2.660   1.823   1.161  1.4831 -0.3240 -0.1762
 5751TIP3    H217218   2.545   1.730   1.193  0.3612  1.1635  0.2054
 5752TIP3   OH217219   7.143   2.661   4.402 -0.4346  0.3971  0.1721
 5752TIP3    H117220   7.178   2.595   4.461 -0.1836  0.6906  0.3565
 5752TIP3    H217221   7.163   2.628   4.314 -0.9369 -0.1092  0.2429
 5753TIP3   OH217222   1.860   4.230   4.349 -0.0437 -0.4372 -0.4947
 5753TIP3    H117223   1.883   4.138   4.339  1.1886 -0.0763 -1.1967
 5753TIP3    H217224   1.868   4.266   4.260  0.1857  0.4892 -0.1082
 5754TIP3   OH217225   4.603   4.291   5.849 -0.3387 -0.3807 -0.5439
 5754TIP3    H117226   4.658   4.362   5.814 -0.5770 -0.0434 -0.2376
 5754TIP3    H217227   4.519   4.333   5.869 -0.2699 -0.6101  0.2491
 5755TIP3   OH217228   0.556   0.305   2.536  0.3165  0.0998 -0.0949
 5755TIP3    H117229   0.606   0.353   2.603 -1.4407  1.5315  0.2727
 5755TIP3    H217230   0.487   0.260   2.586 -1.4088  1.6900 -0.9098
 5756TIP3   OH217231   3.641   6.238   0.688  0.1015 -0.4414 -0.0649
 5756TIP3    H117232   3.710   6.171   0.691  0.4475 -0.1424 -0.9822
 5756TIP3    H217233   3.609   6.243   0.778  3.5095  1.7306  1.2098
 5757TIP3   OH217234   4.147   2.196   3.162 -0.3683  0.3633  0.1900
 5757TIP3    H117235   4.069   2.154   3.127  0.7671 -0.8732 -0.9323
 5757TIP3    H217236   4.172   2.259   3.095  0.7719 -0.7131 -0.4061
 5758TIP3   OH217237   5.685   0.354   3.493 -0.0243  0.4046  0.0209
 5758TIP3    H117238   5.622   0.410   3.539 -0.7520 -0.5404  0.1941
 5758TIP3    H217239   5.758   0.413   3.473 -0.0871  1.0601  1.5675
 5759TIP3   OH217240   1.034   5.617   5.622 -0.1347 -0.2237  0.4705
 5759TIP3    H117241   1.076   5.652   5.544 -0.9244 -0.8123 -0.2415
 5759TIP3    H217242   1.035   5.522   5.608  0.2840 -0.3746  1.4747
 5760TIP3   OH217243   3.858   1.065   2.407  0.0958 -0.5128  0.1324
 5760TIP3    H117244   3.849   1.143   2.353 -0.7866 -0.9960 -0.4370
 5760TIP3    H217245   3.936   1.021   2.373 -0.2564 -0.6373 -0.5284
 5761TIP3   OH217246   0.493   5.412   0.636  0.4669  0.0546  0.4390
 5761TIP3    H117247   0.532   5.473   0.699  0.0501 -0.7882  1.5321
 5761TIP3    H217248   0.409   5.386   0.675  0.1614 -0.4398 -0.4943
 5762TIP3   OH217249   1.355   0.630   4.014  0.0027  0.5239  0.1201
 5762TIP3    H117250   1.335   0.652   3.923 -0.3343 -0.1743  0.0178
 5762TIP3    H217251   1.420   0.559   4.007  0.8558  1.2524  0.4369
 5763TIP3   OH217252   0.998   0.933   3.622  0.1213  0.5340  0.1602
 5763TIP3    H117253   0.994   0.884   3.540 -0.6003 -1.1039  1.1003
 5763TIP3    H217254   0.907   0.954   3.642  0.3950  1.9385 -0.0204
 5764TIP3   OH217255   6.752   2.561   1.472  0.8506  0.0765  0.5516
 5764TIP3    H117256   6.802   2.580   1.551  1.5143  0.5902  0.0177
 5764TIP3    H217257   6.759   2.641   1.420 -0.7222  0.2611  0.5586
 5765TIP3   OH217258   0.834   3.265   0.026  0.1414  0.2668  0.2469
 5765TIP3    H117259   0.875   3.181   0.007 -0.8958 -0.3498  0.6552
 5765TIP3    H217260   0.892   3.306   0.091 -0.0707 -0.7670  1.1240
 5766TIP3   OH217261   4.607   3.637   0.465  0.7406 -1.3665 -0.5985
 5766TIP3    H117262   4.682   3.594   0.424  0.1812 -1.1602 -1.8792
 5766TIP3    H217263   4.643   3.720   0.497  1.0391 -1.1917 -1.3515
 5767TIP3   OH217264   2.411   1.962   0.181  0.2529  0.4420  0.4312
 5767TIP3    H117265   2.434   1.869   0.181  1.9965  0.8225  2.1767
 5767TIP3    H217266   2.316   1.963   0.168  0.4656 -1.4414 -1.8887
 5768TIP3   OH217267   4.764   2.241   0.184 -0.3021 -0.3625 -0.1613
 5768TIP3    H117268   4.801   2.287   0.260  0.1805  1.3108 -1.3629
 5768TIP3    H217269   4.670   2.256   0.191 -0.3232 -0.7223  0.4086
 5769TIP3   OH217270   0.454   5.188   2.837 -0.2298  0.0185  0.3298
 5769TIP3    H117271   0.408   5.115   2.878 -1.3851  0.1127 -0.7478
 5769TIP3    H217272   0.385   5.248   2.809  0.5811  0.5330 -0.6495
 5770TIP3   OH217273   3.467   6.441   2.120 -0.3546 -0.0236 -0.8226
 5770TIP3    H117274   3.392   6.488   2.157 -0.9438 -0.3640 -1.5481
 5770TIP3    H217275   3.542   6.497   2.139 -0.8442  0.5239 -0.4434
 5771TIP3   OH217276   0.068   4.067   0.332  0.2513  0.2773 -0.1940
 5771TIP3    H117277   0.078   4.140   0.271  1.4748  0.4720  0.2142
 5771TIP3    H217278  -0.000   4.096   0.392  0.6544  1.0532 -0.0942
 5772TIP3   OH217279   7.173   5.801   4.644  0.1617  0.7408  0.5171
 5772TIP3    H117280   7.101   5.738   4.639  0.4199  0.5228 -1.7684
 5772TIP3    H217281   7.142   5.876   4.595  0.4101  1.8706  2.0266
 5773TIP3   OH217282   4.079   3.534   4.467 -0.1193 -0.1367 -0.2857
 5773TIP3    H117283   4.078   3.523   4.372 -2.4267  0.4468 -0.3906
 5773TIP3    H217284   4.037   3.455   4.501 -1.4581  0.6855  0.0528
 5774TIP3   OH217285   2.395   4.692   0.786  0.2401 -0.1147  0.9056
 5774TIP3    H117286   2.306   4.707   0.819  0.4202  2.4954  0.4530
 5774TIP3    H217287   2.413   4.768   0.731  2.4284 -1.0467  0.2283
 5775TIP3   OH217288   5.106   3.383   1.349  0.1202 -0.1119 -0.4560
 5775TIP3    H117289   5.099   3.450   1.281  0.5711  0.2051 -0.1974
 5775TIP3    H217290   5.194   3.394   1.385  0.4347 -1.2652 -0.8350
 5776TIP3   OH217291   3.453   4.355   4.041  0.1855 -0.4107  0.0892
 5776TIP3    H117292   3.463   4.292   3.970 -0.5517 -0.5892  0.1388
 5776TIP3    H217293   3.539   4.396   4.049 -0.0278  0.5109 -1.7358
 5777TIP3   OH217294  -0.007   4.220   4.432 -0.4135  0.0644 -0.4396
 5777TIP3    H117295   0.088   4.222   4.443 -0.6724  1.2273  2.3213
 5777TIP3    H217296  -0.029   4.127   4.432  0.5476 -0.1869  0.8903
 5778TIP3   OH217297   6.418   0.760   5.224 -0.6253 -0.3827  0.5208
 5778TIP3    H117298   6.353   0.823   5.191 -0.9841 -0.3272  1.3105
 5778TIP3    H217299   6.378   0.674   5.207 -0.3655 -0.3910 -0.0830
 5779TIP3   OH217300   2.249   1.003   2.026  0.5044  0.0284 -0.1382
 5779TIP3    H117301   2.267   1.078   2.082 -0.1489  0.1206 -0.0398
 5779TIP3    H217302   2.251   0.928   2.085  1.5015 -0.0793 -0.2973
 5780TIP3   OH217303   2.802   3.572   2.019 -0.5414 -0.0241 -0.0234
 5780TIP3    H117304   2.819   3.542   2.108  1.0502 -0.3304 -0.3931
 5780TIP3    H217305   2.794   3.492   1.968  0.0567  0.1501 -0.3989
 5781TIP3   OH217306   5.674   5.222   5.030  0.0881 -0.5546 -0.4143
 5781TIP3    H117307   5.715   5.240   4.946  0.1331  2.1948  0.1114
 5781TIP3    H217308   5.603   5.286   5.037 -0.4574 -1.2781  1.2793
 5782TIP3   OH217309   5.853   4.326   1.791  0.2638  0.0889 -0.4800
 5782TIP3    H117310   5.760   4.302   1.785 -0.1217  1.3734  0.0803
 5782TIP3    H217311   5.892   4.289   1.712 -0.7127 -0.5191 -0.6953
 5783TIP3   OH217312   3.732   5.033   2.439  0.3677  0.3191 -0.1585
 5783TIP3    H117313   3.747   5.077   2.523  2.6108  0.9542 -0.8520
 5783TIP3    H217314   3.784   4.952   2.445  0.0083  0.0426 -0.6875
 5784TIP3   OH217315   5.805   0.724   1.283 -0.0575  0.6932  0.2803
 5784TIP3    H117316   5.832   0.686   1.367 -1.0529  0.4193  0.4879
 5784TIP3    H217317   5.754   0.801   1.307 -1.7019 -0.2791 -0.0139
 5785TIP3   OH217318   6.722   6.507   5.559 -0.4593 -0.1538  0.1133
 5785TIP3    H117319   6.766   6.471   5.482 -1.6947 -0.6549 -0.3852
 5785TIP3    H217320   6.636   6.465   5.559 -1.0040  0.9217  0.9519
 5786TIP3   OH217321   0.966   5.612   3.880  0.0443  0.1044 -0.8018
 5786TIP3    H117322   0.905   5.620   3.954 -0.2901  1.2363 -1.1779
 5786TIP3    H217323   0.961   5.519   3.855 -1.8101  0.2249 -1.0442
 5787TIP3   OH217324   2.232   3.581   5.474  0.0234 -0.3556  0.1447
 5787TIP3    H117325   2.278   3.508   5.517 -1.2232 -1.2265  0.0688
 5787TIP3    H217326   2.183   3.540   5.403  0.8403  0.8619 -1.1631
 5788TIP3   OH217327   2.335   6.318   0.522 -0.0983 -0.1815 -0.0211
 5788TIP3    H117328   2.386   6.302   0.443 -0.4361  0.9226 -0.4811
 5788TIP3    H217329   2.244   6.307   0.494 -0.2117  0.1051  0.2284
 5789TIP3   OH217330   0.275   2.606   4.243 -0.3913 -0.1202 -0.4240
 5789TIP3    H117331   0.203   2.664   4.219 -0.3549  0.4885  0.8637
 5789TIP3    H217332   0.348   2.665   4.265 -0.0600 -0.6752  0.0064
 5790TIP3   OH217333   6.602   6.540   5.267 -0.0830  0.4726 -0.2011
 5790TIP3    H117334   6.619   6.515   5.176 -0.7224 -0.6024 -0.0438
 5790TIP3    H217335   6.623   6.633   5.270  0.4618  0.4124 -1.3183
 5791TIP3   OH217336   5.859   1.144   1.998  0.5986 -0.3115 -0.6005
 5791TIP3    H117337   5.810   1.071   2.036  0.9000 -0.5778 -0.7160
 5791TIP3    H217338   5.796   1.215   1.993  0.7099 -0.0569  1.0319
 5792TIP3   OH217339   3.146   1.261   1.412  0.2966 -0.2520  0.3971
 5792TIP3    H117340   3.239   1.241   1.409  0.5401  0.9574 -0.6476
 5792TIP3    H217341   3.135   1.312   1.492  0.7387  0.5314 -0.0323
 5793TIP3   OH217342   3.820   6.299   5.525  0.5093 -0.4528 -0.1838
 5793TIP3    H117343   3.765   6.243   5.470  0.6887 -0.3734 -0.4467
 5793TIP3    H217344   3.773   6.382   5.531  0.5784 -0.3997 -0.3719
 5794TIP3   OH217345   4.024   0.457   0.102 -0.2381  0.4589  0.1810
 5794TIP3    H117346   4.026   0.420   0.014 -0.8720  1.1530 -0.1343
 5794TIP3    H217347   4.111   0.495   0.114 -0.7451  2.0859 -0.9257
 5795TIP3   OH217348   5.004   4.960   3.291 -0.1202 -0.1254  0.1127
 5795TIP3    H117349   5.034   4.956   3.382  1.3335  0.6892 -0.2915
 5795TIP3    H217350   4.999   4.868   3.264 -0.2427 -0.3628  0.9122
 5796TIP3   OH217351   2.094   6.179   2.248  0.1214  0.4198  0.2812
 5796TIP3    H117352   2.148   6.193   2.326  1.2059  0.0176 -0.3768
 5796TIP3    H217353   2.097   6.263   2.202 -0.5615  0.6740  0.6723
 5797TIP3   OH217354   2.378   5.685   2.767 -0.1494  0.1752  0.2649
 5797TIP3    H117355   2.315   5.663   2.836 -0.4515  0.2931  0.0345
 5797TIP3    H217356   2.433   5.754   2.804  1.2216 -1.3925  1.2241
 5798TIP3   OH217357   2.618   6.552   3.138 -0.0728  0.7321 -0.1565
 5798TIP3    H117358   2.533   6.537   3.097  0.3299 -1.1610 -0.3933
 5798TIP3    H217359   2.681   6.530   3.070  0.5950 -1.1779  0.9903
 5799TIP3   OH217360   5.395   5.273   2.144 -0.2275  1.1740  0.3731
 5799TIP3    H117361   5.466   5.281   2.207  0.6205 -1.5854 -0.1313
 5799TIP3    H217362   5.428   5.214   2.077 -2.3496  1.2821 -0.8670
 5800TIP3   OH217363   5.346   1.615   2.472 -0.4232  0.7958 -0.4158
 5800TIP3    H117364   5.341   1.710   2.473 -1.4303  0.7881  2.2599
 5800TIP3    H217365   5.265   1.587   2.429 -0.9148  1.1646  0.2520
 5801TIP3   OH217366   1.318   4.453   4.254  0.0677 -0.0693 -0.3400
 5801TIP3    H117367   1.239   4.399   4.248  0.4033 -0.3520 -3.2437
 5801TIP3    H217368   1.389   4.396   4.225  1.2808  0.4204  1.5089
 5802TIP3   OH217369   3.972   5.989   2.510  0.0822  0.1126  0.2848
 5802TIP3    H117370   3.909   6.017   2.444  0.1687 -1.1048 -0.3550
 5802TIP3    H217371   4.044   5.952   2.459 -0.0423 -1.2686  1.0508
 5803TIP3   OH217372   2.787   1.070   1.336  0.4855 -0.2630  0.5388
 5803TIP3    H117373   2.762   1.116   1.417 -0.0684  1.3256 -0.4752
 5803TIP3    H217374   2.709   1.018   1.314  0.2963  0.0067  0.5573
 5804TIP3   OH217375   1.715   0.293   3.420 -0.0182 -0.3100 -0.1029
 5804TIP3    H117376   1.666   0.360   3.467  0.4566 -0.4500  0.6125
 5804TIP3    H217377   1.798   0.286   3.467 -0.2178 -1.6932  0.1067
 5805TIP3   OH217378   2.646   6.441   2.358 -0.6043  0.2538 -0.8564
 5805TIP3    H117379   2.553   6.440   2.335 -0.4764  0.9637 -1.4355
 5805TIP3    H217380   2.683   6.513   2.307  0.0782  0.5901  0.0785
 5806TIP3   OH217381   2.144   1.637   1.286 -0.2628 -0.3670  0.2115
 5806TIP3    H117382   2.061   1.665   1.248 -0.1333  0.6891  0.6650
 5806TIP3    H217383   2.206   1.706   1.261  0.4274 -1.0197  0.0845
 5807TIP3   OH217384   1.885   6.067   0.758 -0.3034 -0.3610  0.3736
 5807TIP3    H117385   1.965   6.118   0.770 -1.4494  1.3334  1.3233
 5807TIP3    H217386   1.912   5.976   0.770  1.4692  0.1727  0.7153
 5808TIP3   OH217387   4.426   5.189   3.596  0.3779 -0.0778  0.3497
 5808TIP3    H117388   4.466   5.265   3.639  0.1892 -0.1268  0.6161
 5808TIP3    H217389   4.388   5.224   3.516  3.2237 -0.4656 -1.3017
 5809TIP3   OH217390   2.547   0.926   1.359  0.3842  0.0482 -0.0472
 5809TIP3    H117391   2.455   0.929   1.331  0.3661  0.7037  0.0586
 5809TIP3    H217392   2.546   0.876   1.440  0.1394 -0.0753 -0.1243
 5810TIP3   OH217393   2.920   3.981   5.367 -0.6522 -0.1144 -0.9108
 5810TIP3    H117394   3.003   3.973   5.414 -0.2738 -1.0560 -1.7029
 5810TIP3    H217395   2.873   4.051   5.412  0.2969 -0.0219 -0.0424
 5811TIP3   OH217396   1.988   4.660   4.750  0.1070 -0.2934  0.1236
 5811TIP3    H117397   1.951   4.719   4.816 -1.5714 -2.1092  0.8925
 5811TIP3    H217398   2.080   4.686   4.744 -0.1950  1.3138  1.6169
 5812TIP3   OH217399   6.125   5.512   4.802 -0.0168 -0.2019  0.4245
 5812TIP3    H117400   6.176   5.592   4.793 -0.3691 -0.0381 -0.1977
 5812TIP3    H217401   6.070   5.510   4.724 -0.9190 -0.4043  1.0439
 5813TIP3   OH217402   5.200   0.655   0.106 -0.2546  0.2598 -0.5753
 5813TIP3    H117403   5.242   0.707   0.037  0.3720 -0.8451 -1.0527
 5813TIP3    H217404   5.272   0.632   0.165 -0.5714  0.1276 -0.2390
 5814TIP3   OH217405   3.793   5.652   3.687  0.2712 -0.3502 -0.4518
 5814TIP3    H117406   3.887   5.640   3.701  0.2641  1.3596  1.3879
 5814TIP3    H217407   3.788   5.724   3.623  0.1671 -1.8172 -2.1953
 5815TIP3   OH217408   0.567   3.556   5.259  0.1721  0.4641  0.2146
 5815TIP3    H117409   0.593   3.646   5.274  1.6452  0.3727 -1.3965
 5815TIP3    H217410   0.616   3.505   5.324 -1.5141  0.8674  1.8664
 5816TIP3   OH217411   2.921   4.094   2.462  0.1755 -0.1631 -0.5422
 5816TIP3    H117412   2.942   4.024   2.524  1.8444  0.1734 -0.6773
 5816TIP3    H217413   2.840   4.132   2.496 -0.9317 -2.2990 -0.6215
 5817TIP3   OH217414   2.695   5.546   5.326  0.2767 -0.5202 -0.1536
 5817TIP3    H117415   2.740   5.461   5.320  1.6620  0.2083 -0.4227
 5817TIP3    H217416   2.635   5.536   5.400 -2.9519 -3.2108 -2.7598
 5818TIP3   OH217417   5.889   5.282   3.179 -0.0425 -0.0389  0.2977
 5818TIP3    H117418   5.960   5.330   3.222 -0.1089 -0.0478  0.4175
 5818TIP3    H217419   5.836   5.248   3.251  0.4973 -1.0488  0.2315
 5819TIP3   OH217420   6.351   2.670   4.239  0.2221  0.3730  0.3406
 5819TIP3    H117421   6.435   2.624   4.236  0.5116  0.9574 -0.9192
 5819TIP3    H217422   6.287   2.603   4.215  0.2966 -0.0891  1.3603
 5820TIP3   OH217423   3.481   6.150   2.849 -0.1866 -0.0573  0.1212
 5820TIP3    H117424   3.421   6.084   2.814  0.3386 -0.5345  0.0981
 5820TIP3    H217425   3.482   6.220   2.784 -0.4181 -0.2237 -0.0598
 5821TIP3   OH217426   4.081   3.679   0.137 -0.3488  0.4131 -0.0068
 5821TIP3    H117427   4.046   3.657   0.223 -1.2491  4.1661  0.7661
 5821TIP3    H217428   4.004   3.686   0.081  0.0368  0.1099 -0.5843
 5822TIP3   OH217429   6.405   0.060   3.130  0.1407  0.5257  0.2435
 5822TIP3    H117430   6.377  -0.025   3.099 -2.1227  0.8281  1.2717
 5822TIP3    H217431   6.499   0.050   3.147  0.2509 -1.2543 -1.1417
 5823TIP3   OH217432   3.803   6.463   4.878 -0.5748  0.6420 -0.3197
 5823TIP3    H117433   3.788   6.490   4.787 -0.1213 -0.3717 -0.7017
 5823TIP3    H217434   3.885   6.414   4.875 -1.0398 -0.1911  0.4836
 5824TIP3   OH217435   2.802   0.784   1.380  0.4962 -1.1009  0.1328
 5824TIP3    H117436   2.851   0.719   1.329  0.1054  0.1638 -1.9654
 5824TIP3    H217437   2.727   0.806   1.325  0.0600  0.3490  1.2489
 5825TIP3   OH217438   6.573   3.062   4.337  0.5955 -0.0773 -0.5818
 5825TIP3    H117439   6.631   3.067   4.261 -0.9100  2.0420 -1.6807
 5825TIP3    H217440   6.619   3.108   4.407  1.2985 -0.6461 -0.6614
 5826TIP3   OH217441   6.506   4.720   3.143  0.1950 -0.6786 -0.7543
 5826TIP3    H117442   6.580   4.667   3.114  0.5630 -0.1911 -0.7222
 5826TIP3    H217443   6.449   4.724   3.067 -0.6055 -2.4084 -0.2869
 5827TIP3   OH217444   4.073   4.290   1.534 -0.2506  0.0437 -0.2180
 5827TIP3    H117445   4.046   4.271   1.444 -1.7182 -1.3653  0.4556
 5827TIP3    H217446   4.114   4.208   1.564 -0.7804  0.1199  0.7348
 5828TIP3   OH217447   4.701   1.315   4.374  0.3540 -0.5041 -0.1531
 5828TIP3    H117448   4.643   1.241   4.394  1.6265 -1.8239 -1.0710
 5828TIP3    H217449   4.785   1.274   4.354  1.7611  1.3736  1.5688
 5829TIP3   OH217450   3.153   0.275   5.631 -0.2333  0.3005 -0.2091
 5829TIP3    H117451   3.129   0.185   5.653 -0.8640  0.8107  1.2799
 5829TIP3    H217452   3.248   0.278   5.640 -0.4210  0.4176  2.4141
 5830TIP3   OH217453   4.365   6.061   3.482  0.2515 -0.2681 -0.4937
 5830TIP3    H117454   4.345   5.971   3.456  0.4360 -0.9015  1.4131
 5830TIP3    H217455   4.460   6.064   3.484  0.2490 -0.5360  0.9791
 5831TIP3   OH217456   6.038   2.820   1.827  0.5449  0.3916 -0.2851
 5831TIP3    H117457   5.979   2.885   1.864  0.2892  0.8133 -1.3793
 5831TIP3    H217458   5.987   2.740   1.823  0.5029  0.3994  0.0445
 5832TIP3   OH217459   3.585   5.877   5.575  0.5344 -0.1406 -0.3262
 5832TIP3    H117460   3.593   5.819   5.651 -2.6661  0.4566  0.6202
 5832TIP3    H217461   3.630   5.957   5.601  2.0043 -0.9323 -0.2965
 5833TIP3   OH217462   1.808   3.717   0.029 -0.0802  0.1917 -0.3301
 5833TIP3    H117463   1.726   3.672   0.048 -0.1696  0.6135  0.3387
 5833TIP3    H217464   1.876   3.654   0.054 -0.2040  0.0432 -0.3679
 5834TIP3   OH217465   5.979   6.245   2.132 -1.0479 -0.3201  0.0975
 5834TIP3    H117466   5.982   6.149   2.131 -2.0861 -0.3786 -1.3224
 5834TIP3    H217467   6.059   6.273   2.088  0.4294 -0.4171  2.5412
 5835TIP3   OH217468   4.848   5.895   4.594 -0.0870 -0.3760 -0.3612
 5835TIP3    H117469   4.756   5.871   4.592 -0.1395 -0.1708 -1.8862
 5835TIP3    H217470   4.889   5.832   4.653 -1.1759 -0.5002  0.2885
 5836TIP3   OH217471   1.848   2.049   1.207  0.2537 -0.0046  0.1806
 5836TIP3    H117472   1.789   2.068   1.134  2.1213 -0.4348 -1.5265
 5836TIP3    H217473   1.823   2.112   1.274 -0.6204  1.4050 -1.3701
 5837TIP3   OH217474   5.952   6.133   2.488  0.0355  0.1386 -0.1498
 5837TIP3    H117475   6.000   6.209   2.456  0.7667 -0.7782 -1.3127
 5837TIP3    H217476   6.006   6.099   2.560  1.6326 -1.3514 -1.9581
 5838TIP3   OH217477   6.138   4.657   0.014  0.0867  0.1852  0.0996
 5838TIP3    H117478   6.085   4.602  -0.044 -1.5425  2.0957 -0.3671
 5838TIP3    H217479   6.179   4.596   0.075  0.0261 -1.6901 -1.6406
 5839TIP3   OH217480   2.677   2.073   2.409 -0.0525 -0.4367 -0.6546
 5839TIP3    H117481   2.623   2.028   2.343 -0.4135  0.6336 -1.1017
 5839TIP3    H217482   2.624   2.148   2.436  0.8829  0.1891 -0.5225
 5840TIP3   OH217483   2.393   0.416   1.158  0.5999 -0.4873 -0.2966
 5840TIP3    H117484   2.484   0.392   1.143  0.8226 -0.6149  1.1600
 5840TIP3    H217485   2.383   0.418   1.253 -0.9338 -0.5246 -0.4206
 5841TIP3   OH217486   4.148   0.219   1.020 -0.4551 -0.5545 -0.3801
 5841TIP3    H117487   4.238   0.191   1.041  1.2028  2.6613 -2.3710
 5841TIP3    H217488   4.122   0.272   1.096 -0.2368 -0.6258 -0.2537
 5842TIP3   OH217489   7.141   0.495   4.034  0.2872 -0.1734  0.2231
 5842TIP3    H117490   7.110   0.429   3.973 -1.0036  1.3374 -0.8529
 5842TIP3    H217491   7.085   0.486   4.111  0.3700 -0.5614  0.2382
 5843TIP3   OH217492   6.156   3.353   4.192 -0.1015 -0.5285  0.1301
 5843TIP3    H117493   6.245   3.355   4.226  0.4209 -0.0999 -1.1762
 5843TIP3    H217494   6.142   3.260   4.170  0.2847 -0.4963 -0.2798
 5844TIP3   OH217495   0.318   3.865   0.045 -0.1306 -0.3299  0.4655
 5844TIP3    H117496   0.233   3.852   0.002  1.1442 -3.4754 -1.4113
 5844TIP3    H217497   0.309   3.822   0.130 -0.5089 -0.3781  0.4021
 5845TIP3   OH217498   1.959   0.241   3.585  0.0449  0.3225  0.9014
 5845TIP3    H117499   2.048   0.276   3.592  0.2038  0.3424 -0.8103
 5845TIP3    H217500   1.914   0.275   3.662  1.4961  0.3491  1.7804
 5846TIP3   OH217501   0.443   0.889   3.120  0.1646  0.2461  0.4907
 5846TIP3    H117502   0.437   0.983   3.136 -3.0768 -0.0903  2.0083
 5846TIP3    H217503   0.367   0.868   3.066  0.3786 -1.6313  0.8347
 5847TIP3   OH217504   2.592   5.338   1.343 -0.2139 -0.2364 -0.1196
 5847TIP3    H117505   2.568   5.320   1.434 -1.8778  0.6336 -0.3430
 5847TIP3    H217506   2.632   5.257   1.313  0.2964 -0.5690  1.3575
 5848TIP3   OH217507   2.117   5.087   5.696  0.3914  0.1470  0.0973
 5848TIP3    H117508   2.166   5.012   5.729 -1.0654 -1.4201 -1.1692
 5848TIP3    H217509   2.043   5.050   5.650 -1.6669  2.4122  1.3219
 5849TIP3   OH217510   4.274   5.989   5.535 -0.0989 -0.0996 -0.1236
 5849TIP3    H117511   4.325   6.018   5.611  0.1344 -0.0382 -0.3029
 5849TIP3    H217512   4.187   6.028   5.548  0.0586  0.2457 -0.0956
 5850TIP3   OH217513   2.443   5.812   4.981 -0.3609 -0.4130 -0.3277
 5850TIP3    H117514   2.463   5.899   5.017 -0.6815 -0.4350 -0.0883
 5850TIP3    H217515   2.447   5.824   4.886  2.9220 -0.9017 -0.3616
 5851TIP3   OH217516   5.062   3.161   5.310 -0.1000  0.4166  0.0394
 5851TIP3    H117517   4.989   3.207   5.269  2.3282  3.5095 -1.1906
 5851TIP3    H217518   5.081   3.211   5.390  1.8107  0.9219 -0.6683
 5852TIP3   OH217519   1.377   5.002   4.187 -0.2560 -0.4107 -0.2883
 5852TIP3    H117520   1.375   5.004   4.091  0.5593  0.7070 -0.3117
 5852TIP3    H217521   1.468   4.983   4.208  0.2250  2.1028  0.2213
 5853TIP3   OH217522   7.047   1.228   2.379 -0.0320  0.4213  0.5835
 5853TIP3    H117523   7.013   1.284   2.449  1.2259  2.1437 -0.1044
 5853TIP3    H217524   7.074   1.289   2.310  0.5158 -1.1066 -0.6246
 5854TIP3   OH217525   2.654   0.907   3.826  0.2695  0.4238 -0.5917
 5854TIP3    H117526   2.678   0.874   3.913 -0.6391  0.4494 -0.3256
 5854TIP3    H217527   2.615   0.832   3.782  1.1839  0.2715 -1.1765
 5855TIP3   OH217528   6.675   4.281   1.858 -0.1400 -0.4008  0.1014
 5855TIP3    H117529   6.740   4.336   1.902  0.6546 -0.7271 -0.6364
 5855TIP3    H217530   6.656   4.327   1.776 -0.2505 -0.7087 -0.0462
 5856TIP3   OH217531   0.954   0.454   1.259 -0.0790 -0.3804 -0.0152
 5856TIP3    H117532   1.027   0.482   1.204 -0.9987 -0.2981 -1.2550
 5856TIP3    H217533   0.928   0.369   1.223  0.7452 -1.4492  1.7763
 5857TIP3   OH217534   2.968   2.692   4.716  0.1969  0.0600 -0.0391
 5857TIP3    H117535   2.937   2.613   4.760 -0.4259  1.1693  1.6143
 5857TIP3    H217536   2.996   2.750   4.788 -2.0545  2.4528 -0.9600
 5858TIP3   OH217537   4.602   6.582   2.557  0.0686  0.1396  0.0635
 5858TIP3    H117538   4.572   6.648   2.619 -0.1763 -2.2389  2.6661
 5858TIP3    H217539   4.539   6.586   2.485 -0.8340  1.6372  0.8849
 5859TIP3   OH217540   3.557   3.911   2.339 -0.0811 -0.4148 -0.0710
 5859TIP3    H117541   3.524   3.994   2.304 -3.0761 -1.7854 -0.7665
 5859TIP3    H217542   3.627   3.886   2.278  1.3404  1.8191  0.5207
 5860TIP3   OH217543   6.697   3.472   0.071 -0.3178  0.6642 -0.1185
 5860TIP3    H117544   6.673   3.418   0.146  2.3134 -0.3777  0.0550
 5860TIP3    H217545   6.627   3.455   0.007 -0.4709 -1.6452  0.5609
 5861TIP3   OH217546   6.395   6.427   2.925 -0.5048 -0.0465 -0.2313
 5861TIP3    H117547   6.459   6.358   2.943 -0.7646 -0.4078 -0.6819
 5861TIP3    H217548   6.431   6.473   2.849 -0.6435 -0.0832 -0.3203
 5862TIP3   OH217549   0.206   1.352   4.603 -0.3626 -1.0587 -0.4185
 5862TIP3    H117550   0.251   1.423   4.556 -0.7634  0.2386  1.0803
 5862TIP3    H217551   0.133   1.395   4.647 -0.3195 -2.2992  0.9415
 5863TIP3   OH217552   3.124   6.769   1.592  0.2295  0.2548 -0.1716
 5863TIP3    H117553   3.168   6.686   1.576  0.1666  0.2680 -0.4227
 5863TIP3    H217554   3.049   6.747   1.647 -0.3003  0.0069 -0.9737
 5864TIP3   OH217555   6.739   3.462   3.123  0.1374 -0.5160 -0.2139
 5864TIP3    H117556   6.736   3.370   3.148 -0.5896 -0.1250  1.2042
 5864TIP3    H217557   6.649   3.483   3.098  0.3355 -0.2296 -0.6972
 5865TIP3   OH217558   1.621   2.288   4.123  0.2380  0.0566 -0.2768
 5865TIP3    H117559   1.700   2.241   4.098  0.5674 -0.2685  1.2470
 5865TIP3    H217560   1.573   2.302   4.041  0.9218 -1.4751 -0.9629
 5866TIP3   OH217561   3.887   5.141   0.177  0.4779  0.1576 -0.0608
 5866TIP3    H117562   3.933   5.146   0.093  3.6633  2.1642  1.5967
 5866TIP3    H217563   3.864   5.231   0.198 -1.5401 -0.4581  0.6549
 5867TIP3   OH217564   0.026   2.837   2.508 -0.3399 -0.6937  0.0992
 5867TIP3    H117565   0.012   2.913   2.565  0.5792 -0.0058 -0.5443
 5867TIP3    H217566   0.022   2.762   2.566  0.3849 -0.0244  1.0418
 5868TIP3   OH217567   1.951   4.729   0.342 -0.2650 -0.1916 -0.6138
 5868TIP3    H117568   1.911   4.772   0.418 -2.5967 -1.9201 -0.7938
 5868TIP3    H217569   1.920   4.639   0.345  1.2102 -0.8359 -2.5268
 5869TIP3   OH217570   4.671   4.867   3.358 -0.0807  0.7116 -0.1863
 5869TIP3    H117571   4.738   4.818   3.310 -0.1395 -0.8036  1.1762
 5869TIP3    H217572   4.687   4.959   3.335  2.0805  0.3445 -0.3677
 5870TIP3   OH217573   7.066   0.183   2.363 -0.0925  0.3669  0.0203
 5870TIP3    H117574   7.022   0.213   2.442 -0.3823 -1.5035  0.6306
 5870TIP3    H217575   7.118   0.258   2.334 -1.3528  1.6678  0.9640
 5871TIP3   OH217576   7.109   0.612   0.909  0.0687 -0.0668 -0.4850
 5871TIP3    H117577   7.053   0.543   0.945  0.4334 -1.1408 -1.8410
 5871TIP3    H217578   7.062   0.693   0.926 -0.9404 -0.7599  0.1428
 5872TIP3   OH217579   2.348   3.613   2.477 -0.0102 -0.1052 -0.2849
 5872TIP3    H117580   2.374   3.543   2.417 -0.1706 -1.2545  0.9382
 5872TIP3    H217581   2.252   3.613   2.474 -0.0516 -0.7249  0.5461
 5873TIP3   OH217582   2.355   6.467   3.068 -0.0447 -0.1419 -0.3067
 5873TIP3    H117583   2.346   6.553   3.027  1.1075 -0.2944 -0.9283
 5873TIP3    H217584   2.323   6.406   3.002 -0.2101 -0.2343 -0.1387
 5874TIP3   OH217585   3.186   2.022   5.211  0.5532  0.3715  0.4130
 5874TIP3    H117586   3.099   2.060   5.226  0.6381  1.3545 -1.2904
 5874TIP3    H217587   3.235   2.044   5.290 -0.2322  1.3926  0.6436
 5875TIP3   OH217588   6.972   0.507   0.616 -0.1590 -0.1495  0.2307
 5875TIP3    H117589   7.029   0.581   0.596  0.4246 -1.1514 -2.2628
 5875TIP3    H217590   7.018   0.431   0.580 -2.1820 -1.2679 -0.1793
 5876TIP3   OH217591   3.275   5.952   2.752 -0.5624  0.4255 -0.0309
 5876TIP3    H117592   3.235   5.869   2.776 -0.9203 -0.2762 -2.7287
 5876TIP3    H217593   3.294   5.944   2.659  2.3333  2.2045  0.2486
 5877TIP3   OH217594   3.040   6.214   1.303 -0.2106  0.3506 -0.5628
 5877TIP3    H117595   3.087   6.153   1.246  0.8370 -0.3677  1.0108
 5877TIP3    H217596   2.959   6.170   1.325  0.4467 -0.4202  0.3923
 5878TIP3   OH217597   6.948   0.227   4.145 -0.2197 -0.1522 -0.6586
 5878TIP3    H117598   6.895   0.167   4.093 -0.3571  0.1585 -0.8786
 5878TIP3    H217599   6.984   0.172   4.215 -0.5234 -0.4443 -0.7266
 5879TIP3   OH217600   0.144   0.681   0.103  0.1414  0.1517 -0.6587
 5879TIP3    H117601   0.112   0.638   0.183 -0.4005  2.7112  0.6000
 5879TIP3    H217602   0.239   0.683   0.114  0.0022  1.9059  0.8086
 5880TIP3   OH217603   5.323   1.248   4.223  0.0268 -0.4203  1.1340
 5880TIP3    H117604   5.415   1.273   4.230  0.0948  0.2352 -1.2182
 5880TIP3    H217605   5.286   1.269   4.308  1.9827 -0.4231  2.0298
 5881TIP3   OH217606   1.913   5.553   1.977  0.6632  0.2768 -0.2165
 5881TIP3    H117607   1.970   5.533   2.052  1.5641  0.4272 -0.8427
 5881TIP3    H217608   1.885   5.643   1.991  0.5174  0.1789  0.1346
 5882TIP3   OH217609   4.209   5.773   1.926  0.6706  0.1070 -0.2859
 5882TIP3    H117610   4.195   5.683   1.955  1.4850  0.3223  0.8639
 5882TIP3    H217611   4.170   5.827   1.994 -1.0744  0.6575 -1.6576
 5883TIP3   OH217612   1.570   3.375   2.920 -0.0205  0.2172  0.1576
 5883TIP3    H117613   1.480   3.401   2.899 -0.5954 -1.6868  0.0844
 5883TIP3    H217614   1.595   3.434   2.991 -1.8627 -0.1109  1.1568
 5884TIP3   OH217615   1.997   5.316   1.277 -0.8890  0.0464 -0.5296
 5884TIP3    H117616   1.946   5.256   1.332 -0.2449  2.4381  3.0495
 5884TIP3    H217617   1.931   5.363   1.225 -1.6932 -1.2209 -0.6945
 5885TIP3   OH217618   6.203   6.446   0.997 -0.0460  0.9286  0.5660
 5885TIP3    H117619   6.224   6.540   0.991 -0.7934  1.0184 -1.4020
 5885TIP3    H217620   6.119   6.438   0.951 -0.8591 -0.4663  2.2096
 5886TIP3   OH217621   5.738   0.502   2.550 -0.6635  0.4857 -0.2996
 5886TIP3    H117622   5.802   0.555   2.503  1.6827 -1.6314  0.2534
 5886TIP3    H217623   5.656   0.516   2.503  0.2837  2.8922 -1.4133
 5887TIP3   OH217624   5.969   3.265   0.602  0.2027  0.1153 -0.3755
 5887TIP3    H117625   5.964   3.260   0.698  1.3088  0.7182 -0.2674
 5887TIP3    H217626   5.878   3.259   0.573 -0.5161  3.3026  0.8711
 5888TIP3   OH217627   6.842   4.549   1.828 -0.4867 -0.4567 -0.1787
 5888TIP3    H117628   6.801   4.629   1.796  0.4846 -0.3783 -1.2887
 5888TIP3    H217629   6.796   4.530   1.910 -0.8127  1.1759  0.0640
 5889TIP3   OH217630   6.469   0.205   1.709 -0.2087 -0.3574 -0.0228
 5889TIP3    H117631   6.479   0.110   1.713 -1.9414 -0.5485  0.7973
 5889TIP3    H217632   6.451   0.232   1.799  2.2165  1.0655  0.1444
 5890TIP3   OH217633   2.156   4.031   5.231  0.5142 -0.1488 -0.0289
 5890TIP3    H117634   2.208   3.972   5.285 -0.5081 -1.1867 -0.1352
 5890TIP3    H217635   2.218   4.095   5.198  1.3594 -0.1939  1.4206
 5891TIP3   OH217636   7.061   3.662   1.596 -0.7263 -0.2281 -0.4546
 5891TIP3    H117637   7.060   3.570   1.568  0.7772 -0.8270  1.2650
 5891TIP3    H217638   7.058   3.658   1.691  0.0737  1.4859 -0.3230
 5892TIP3   OH217639   3.430   3.314   4.721  0.8654  0.6337  0.2505
 5892TIP3    H117640   3.353   3.312   4.663  0.2410 -1.1486  1.0682
 5892TIP3    H217641   3.395   3.344   4.805  0.8335 -1.0766  0.8810
 5893TIP3   OH217642   1.521   1.365   0.574 -0.2555  0.2904 -0.2180
 5893TIP3    H117643   1.536   1.414   0.654 -0.9931 -0.2363  0.2491
 5893TIP3    H217644   1.531   1.273   0.599 -0.2615  0.1288 -0.7833
 5894TIP3   OH217645   4.369   6.035   2.950  0.6148  0.6584 -0.1477
 5894TIP3    H117646   4.286   5.993   2.974 -0.3184  1.4571 -1.8502
 5894TIP3    H217647   4.429   5.961   2.936 -0.2945 -0.0074 -0.6423
 5895TIP3   OH217648   0.883   3.664   5.495 -0.4843 -1.0143 -0.2316
 5895TIP3    H117649   0.974   3.634   5.495 -0.3351 -0.5685  0.0231
 5895TIP3    H217650   0.832   3.584   5.481 -0.0823 -1.3648  0.2528
 5896TIP3   OH217651   1.636   3.548   2.629  0.3622  0.5033 -0.4122
 5896TIP3    H117652   1.707   3.485   2.633 -0.6774 -0.6776  0.3291
 5896TIP3    H217653   1.675   3.626   2.591  2.3646  0.3288  1.0932
 5897TIP3   OH217654   1.959   1.837   2.638  0.2595  0.8087 -0.2889
 5897TIP3    H117655   1.875   1.857   2.679  0.2323  2.9888 -1.2671
 5897TIP3    H217656   2.004   1.780   2.701 -1.9877 -0.5711  0.1650
 5898TIP3   OH217657   2.136   5.748   4.266  0.7532  0.2492 -0.6108
 5898TIP3    H117658   2.195   5.679   4.296 -0.5584 -0.8938 -0.5606
 5898TIP3    H217659   2.157   5.823   4.322  0.6971 -0.7985  0.8873
 5899TIP3   OH217660   2.533   1.322   3.579  0.2592  0.2737  0.3536
 5899TIP3    H117661   2.600   1.269   3.622 -0.2541 -1.1411 -0.5163
 5899TIP3    H217662   2.541   1.301   3.486  0.7425  2.5765 -0.1978
 5900TIP3   OH217663   2.251   2.069   2.992  0.3693  0.2935 -0.2047
 5900TIP3    H117664   2.205   2.042   3.072  0.8875 -0.9259 -0.2935
 5900TIP3    H217665   2.182   2.103   2.935 -0.4588 -1.4801 -0.3192
 5901TIP3   OH217666   3.886   3.524   1.069 -0.3755 -0.2907  0.3602
 5901TIP3    H117667   3.834   3.588   1.021 -2.1955 -1.5356  0.5534
 5901TIP3    H217668   3.847   3.523   1.157  0.8770 -0.3046  0.9414
 5902TIP3   OH217669   4.632   5.975   4.141  0.0560  0.0126  0.3612
 5902TIP3    H117670   4.621   6.065   4.174  0.8994  0.5984 -0.8502
 5902TIP3    H217671   4.553   5.959   4.089  0.4727  0.5700 -0.4795
 5903TIP3   OH217672   6.417   3.050   1.466  0.0682 -0.1372  0.2808
 5903TIP3    H117673   6.365   2.994   1.524 -0.2117 -0.3165 -0.1346
 5903TIP3    H217674   6.498   3.066   1.515 -0.0044 -0.5974  0.5639
 5904TIP3   OH217675   1.226   6.777   2.605 -0.1335 -0.2333 -0.4925
 5904TIP3    H117676   1.205   6.748   2.694  0.4972 -1.0832 -0.6129
 5904TIP3    H217677   1.279   6.856   2.618 -1.2379  0.4816 -0.1532
 5905TIP3   OH217678   1.455   5.430   5.226  0.3351 -0.2547 -0.2722
 5905TIP3    H117679   1.543   5.395   5.211  0.3451 -0.6319  0.5982
 5905TIP3    H217680   1.439   5.486   5.151  2.0177  1.1881  0.3603
 5906TIP3   OH217681   2.916   5.302   1.006 -0.0817  0.0287 -0.0603
 5906TIP3    H117682   2.979   5.372   0.990  0.3744 -0.0032  1.4057
 5906TIP3    H217683   2.967   5.222   0.997 -0.0493 -0.0207  0.5452
 5907TIP3   OH217684   6.296   0.417   4.818  0.0185  0.0057 -0.2224
 5907TIP3    H117685   6.342   0.355   4.761  0.1109 -1.9682  1.8616
 5907TIP3    H217686   6.366   0.457   4.870 -0.3214 -0.7446  0.8356
 5908TIP3   OH217687   2.745   0.989   0.022  0.0889  0.1098  0.2491
 5908TIP3    H117688   2.715   1.063   0.076 -0.3961 -0.4298  0.7311
 5908TIP3    H217689   2.801   1.030  -0.044 -0.5541  0.9744  0.2109
 5909TIP3   OH217690   5.138   3.482   3.458 -0.2101 -0.0714 -0.1589
 5909TIP3    H117691   5.078   3.410   3.480 -1.4320  1.0901  0.4365
 5909TIP3    H217692   5.095   3.529   3.387  0.3827  0.3271 -0.2659
 5910TIP3   OH217693   5.727   4.741   1.459  0.1711  0.4409  0.2845
 5910TIP3    H117694   5.735   4.762   1.366 -0.2684  1.1889  0.4126
 5910TIP3    H217695   5.637   4.709   1.469  0.4608 -0.3892  0.3144
 5911TIP3   OH217696   6.759   0.676   2.512  0.1216  0.2230  0.0066
 5911TIP3    H117697   6.727   0.701   2.426  1.9384 -1.5747 -1.3030
 5911TIP3    H217698   6.805   0.753   2.544  0.8277  0.4172 -1.3999
 5912TIP3   OH217699   6.434   4.794   2.891 -0.4382 -0.1781  0.1827
 5912TIP3    H117700   6.392   4.782   2.806 -0.0245 -0.4042  0.0058
 5912TIP3    H217701   6.528   4.798   2.871 -0.1962 -1.9462  0.7898
 5913TIP3   OH217702   1.295   0.987   5.658  0.5083 -0.3302  0.4375
 5913TIP3    H117703   1.205   1.007   5.684  0.2816  0.2754 -0.7475
 5913TIP3    H217704   1.349   1.037   5.720 -0.0386  2.1838 -0.9746
 5914TIP3   OH217705   0.766   3.417   4.429 -0.4408 -0.2877  0.0273
 5914TIP3    H117706   0.828   3.411   4.501  0.2011  2.2290 -0.2122
 5914TIP3    H217707   0.703   3.484   4.456 -1.1890 -0.5127 -1.0544
 5915TIP3   OH217708   5.997   5.793   5.580  0.2026 -0.1749 -0.1324
 5915TIP3    H117709   5.905   5.766   5.573  0.1871  0.1262 -1.3452
 5915TIP3    H217710   6.011   5.805   5.673 -1.8948  2.7748 -0.0714
 5916TIP3   OH217711   6.707   1.432   0.151  0.0220 -0.4366 -1.0332
 5916TIP3    H117712   6.721   1.526   0.140 -0.0984  0.1988  3.0087
 5916TIP3    H217713   6.615   1.419   0.127 -0.3858  0.7843 -0.2040
 5917TIP3   OH217714   2.204   2.986   4.400 -0.0885 -0.0590  0.5378
 5917TIP3    H117715   2.213   2.891   4.392 -0.5510 -0.0115 -0.6026
 5917TIP3    H217716   2.119   3.006   4.362 -1.8598  0.3941  4.2860
 5918TIP3   OH217717   3.564   0.290   5.055 -0.0454  0.4121  0.9692
 5918TIP3    H117718   3.541   0.274   5.147 -1.4044 -0.9618  0.4318
 5918TIP3    H217719   3.558   0.204   5.014 -0.4806  1.1702 -0.6133
 5919TIP3   OH217720   0.521   5.255   0.209 -0.3410  0.2896 -0.2577
 5919TIP3    H117721   0.571   5.284   0.285  0.0401 -0.4685 -0.2158
 5919TIP3    H217722   0.430   5.272   0.232 -0.3370 -1.0516  0.8717
 5920TIP3   OH217723   1.794   4.536   2.313  0.4930 -0.0255  0.2138
 5920TIP3    H117724   1.873   4.573   2.273 -0.0274  1.0758  0.1768
 5920TIP3    H217725   1.770   4.463   2.256  1.3766 -0.2587  0.1269
 5921TIP3   OH217726   4.496  -0.017   4.757 -0.1422 -0.7444 -0.2538
 5921TIP3    H117727   4.464   0.073   4.762  1.2296 -0.2610  0.6799
 5921TIP3    H217728   4.588  -0.009   4.733 -0.2334 -1.9623 -1.1037
 5922TIP3   OH217729   5.168   0.175   5.093 -0.2619 -0.2619 -0.7312
 5922TIP3    H117730   5.089   0.223   5.119  1.0559  1.1612  0.8518
 5922TIP3    H217731   5.219   0.238   5.043  0.6302 -0.6183 -0.2822
 5923TIP3   OH217732   2.231   0.762   3.947  0.0480 -0.0267 -0.1063
 5923TIP3    H117733   2.151   0.815   3.958 -0.4188 -0.7911  0.2465
 5923TIP3    H217734   2.281   0.779   4.027  0.3297  0.5911 -0.4060
 5924TIP3   OH217735   1.168   6.014   3.711  0.1197 -1.0394 -0.0805
 5924TIP3    H117736   1.102   5.947   3.726  0.4973 -1.7256 -1.3439
 5924TIP3    H217737   1.210   5.989   3.629 -0.1170  1.0513 -0.9189
 5925TIP3   OH217738   3.097   6.264   5.214  0.6097 -0.3395 -0.0635
 5925TIP3    H117739   3.022   6.280   5.272 -0.7729 -0.7055 -1.6586
 5925TIP3    H217740   3.141   6.188   5.250  0.4219  0.0893  1.0968
 5926TIP3   OH217741   1.126   1.413   2.004  0.1829  0.1723 -0.2768
 5926TIP3    H117742   1.089   1.386   1.920 -2.0228  0.2082  0.6297
 5926TIP3    H217743   1.213   1.372   2.006  0.2619  0.1143 -2.5095
 5927TIP3   OH217744   2.923   2.874   1.960 -0.6447  0.0268  0.4648
 5927TIP3    H117745   2.975   2.865   1.880 -1.7104 -0.1879 -0.2190
 5927TIP3    H217746   2.927   2.968   1.981  0.1633 -0.0133  0.5416
 5928TIP3   OH217747   0.255   0.302   2.055 -0.4645 -0.2789  0.3569
 5928TIP3    H117748   0.346   0.311   2.027 -0.5022  0.8050  0.5330
 5928TIP3    H217749   0.259   0.247   2.133 -0.0302 -0.7417  0.0081
 5929TIP3   OH217750   3.303   4.443   4.257 -0.0576  0.4218 -0.2205
 5929TIP3    H117751   3.337   4.531   4.270 -0.2174  0.7773 -1.9158
 5929TIP3    H217752   3.364   4.402   4.196 -2.0092  0.7354 -2.5419
 5930TIP3   OH217753   0.095   2.080   5.842  1.0776  0.5012 -0.4033
 5930TIP3    H117754  -0.001   2.081   5.841  1.0373  0.2877  1.2928
 5930TIP3    H217755   0.119   2.006   5.787  0.2756  0.6429 -0.9578
 5931TIP3   OH217756   6.875   5.986   1.594 -0.1814 -0.2848  0.1352
 5931TIP3    H117757   6.955   6.037   1.603 -1.0697  1.0627  0.6337
 5931TIP3    H217758   6.886   5.912   1.653  0.6671 -0.0912  0.2219
 5932TIP3   OH217759   0.552   3.685   1.721  0.5078  0.0429 -0.3191
 5932TIP3    H117760   0.542   3.609   1.777  0.6178 -0.8493 -1.4774
 5932TIP3    H217761   0.463   3.719   1.710  0.6251  0.9770  1.3742
 5933TIP3   OH217762   0.151   4.098   5.473 -0.2023 -0.1481 -0.1032
 5933TIP3    H117763   0.229   4.089   5.417  1.6224 -1.2353  2.4328
 5933TIP3    H217764   0.146   4.192   5.491  0.5232 -0.0655 -0.2839
 5934TIP3   OH217765   1.440   1.033   1.416 -0.1805  0.6427  0.3717
 5934TIP3    H117766   1.529   1.036   1.451 -0.7918  0.6051  2.0269
 5934TIP3    H217767   1.444   0.970   1.344  1.2146  0.9947  0.1116
 5935TIP3   OH217768   3.385   5.265   5.432 -0.4120  0.3626  0.0833
 5935TIP3    H117769   3.416   5.352   5.407  1.5708 -0.5941 -1.1102
 5935TIP3    H217770   3.360   5.223   5.349  0.9056 -0.9622  0.3082
 5936TIP3   OH217771   2.034   2.065   4.942 -0.3930 -0.4102 -0.9468
 5936TIP3    H117772   1.944   2.098   4.943 -0.6331 -1.0124  0.9691
 5936TIP3    H217773   2.035   1.994   5.006  1.8237  0.6880  0.4065
 5937TIP3   OH217774   1.943   3.609   0.367  0.1332  0.0585  0.3356
 5937TIP3    H117775   2.031   3.577   0.390 -0.1542 -1.5202 -0.6037
 5937TIP3    H217776   1.944   3.614   0.272 -0.6948  0.3704  0.3381
 5938TIP3   OH217777   5.397   4.411   4.145 -0.2859  0.3230  0.0217
 5938TIP3    H117778   5.332   4.473   4.113  0.3293  0.9930  0.0333
 5938TIP3    H217779   5.407   4.432   4.238 -0.5836 -0.2607  0.1879
 5939TIP3   OH217780   6.908   3.218   2.305  0.7806 -0.2922  0.5545
 5939TIP3    H117781   6.833   3.278   2.301 -1.0459 -2.4708  0.4863
 5939TIP3    H217782   6.927   3.211   2.399 -0.1670 -0.9114  0.7239
 5940TIP3   OH217783   5.467   6.806   3.011  0.1423  0.4025 -0.1760
 5940TIP3    H117784   5.540   6.808   2.948  1.1862  0.0772  0.9693
 5940TIP3    H217785   5.483   6.727   3.063 -0.1663  1.1416  1.0773
 5941TIP3   OH217786   5.361   4.001   5.068  0.3851 -0.3425  0.5477
 5941TIP3    H117787   5.350   4.055   5.146  0.5089 -0.2253  0.4848
 5941TIP3    H217788   5.379   4.064   4.998 -1.0385 -0.3409  0.1520
 5942TIP3   OH217789   6.101   6.289   5.036 -0.1241  0.2320  0.3909
 5942TIP3    H117790   6.034   6.337   4.988  0.6672 -0.7323 -1.8599
 5942TIP3    H217791   6.054   6.218   5.080 -0.7585  0.4868  0.1307
 5943TIP3   OH217792   2.518   6.476   3.993  0.5348 -0.2317  0.0718
 5943TIP3    H117793   2.583   6.494   3.925  1.2350 -0.0076  0.7793
 5943TIP3    H217794   2.524   6.551   4.052  0.4238 -0.7362  0.7363
 5944TIP3   OH217795   1.188   5.152   4.378  0.3333  0.0402  0.9623
 5944TIP3    H117796   1.236   5.225   4.417  0.0422  1.7792 -1.6897
 5944TIP3    H217797   1.255   5.100   4.334  0.1091  1.4539 -1.1891
 5945TIP3   OH217798   2.309   4.106   5.624  0.1383  0.7178 -0.3842
 5945TIP3    H117799   2.379   4.083   5.564  1.3233 -0.9128  1.5294
 5945TIP3    H217800   2.275   4.023   5.656 -0.7647  1.5294  0.8856
 5946TIP3   OH217801   6.541   5.916   5.173  0.3691  0.0489 -0.0879
 5946TIP3    H117802   6.510   5.860   5.101  0.2737  0.2127 -0.1761
 5946TIP3    H217803   6.565   5.855   5.242  1.3522 -0.1572 -0.5971
 5947TIP3   OH217804   1.784   5.425   5.847 -0.5496  0.1299 -0.8310
 5947TIP3    H117805   1.813   5.429   5.938 -2.1122  1.5583 -0.3323
 5947TIP3    H217806   1.860   5.395   5.798  0.8564  0.9870  0.7344
 5948TIP3   OH217807   2.212   1.998   5.411 -0.5930 -0.3951 -0.0328
 5948TIP3    H117808   2.277   1.938   5.447 -1.2304 -1.8881 -1.2930
 5948TIP3    H217809   2.131   1.977   5.457 -0.7843 -0.3781 -0.3593
 5949TIP3   OH217810   3.064   0.728   0.087  0.7080  0.7725 -0.0570
 5949TIP3    H117811   2.974   0.748   0.059 -1.1747 -3.2465  2.1490
 5949TIP3    H217812   3.097   0.669   0.019  1.0856  0.9938 -0.0662
 5950TIP3   OH217813   2.897   3.113   2.447 -0.4205  0.7362 -0.0562
 5950TIP3    H117814   2.953   3.171   2.395 -0.3366  0.4094 -0.3332
 5950TIP3    H217815   2.840   3.173   2.495  1.0470  1.1207  1.2660
 5951TIP3   OH217816   3.897   5.988   5.351 -0.6015 -0.2562  0.2188
 5951TIP3    H117817   3.824   6.049   5.341 -1.8492 -1.9178 -1.2670
 5951TIP3    H217818   3.962   6.019   5.287 -0.7897  0.0911  0.1907
 5952TIP3   OH217819   5.281   2.200   3.063 -0.3822  0.3592 -0.1299
 5952TIP3    H117820   5.226   2.251   3.004 -2.1729  0.8865  1.8678
 5952TIP3    H217821   5.263   2.109   3.039  0.3722  0.5558 -1.5804
 5953TIP3   OH217822   3.652   1.616   4.807  0.1914 -0.4122  0.1139
 5953TIP3    H117823   3.586   1.556   4.843  0.9085 -0.7897  0.8375
 5953TIP3    H217824   3.721   1.616   4.873  1.5089 -1.0357 -1.2235
 5954TIP3   OH217825   3.104   1.810   5.611  0.6579 -0.0721  0.3729
 5954TIP3    H117826   3.188   1.765   5.605  0.9636  0.4057  0.9341
 5954TIP3    H217827   3.117   1.876   5.680  0.4094  1.2531 -0.8029
 5955TIP3   OH217828   3.725   3.482   1.717  0.3753 -0.0441 -0.0358
 5955TIP3    H117829   3.724   3.401   1.768  2.3443 -1.3180 -1.8406
 5955TIP3    H217830   3.662   3.466   1.646  0.8207 -0.0573 -0.4345
 5956TIP3   OH217831   0.987   2.230   4.473 -0.0029 -0.5056 -0.1371
 5956TIP3    H117832   0.983   2.213   4.379  0.2933  0.0104 -0.2445
 5956TIP3    H217833   1.079   2.250   4.490 -0.0418 -0.6697  0.2752
 5957TIP3   OH217834   4.558   3.211   4.705 -0.1087  0.2979 -0.7328
 5957TIP3    H117835   4.624   3.240   4.642  0.1084  1.0094 -0.1804
 5957TIP3    H217836   4.485   3.272   4.692 -0.8287 -0.7124 -1.6052
 5958TIP3   OH217837   2.181   6.191   1.874 -0.2169  0.2331  0.4911
 5958TIP3    H117838   2.243   6.252   1.913  0.7690  0.3582 -1.1568
 5958TIP3    H217839   2.218   6.171   1.788 -1.6324 -0.9926  0.1171
 5959TIP3   OH217840   4.728   4.364   0.721 -0.1565  0.3133  0.2501
 5959TIP3    H117841   4.687   4.281   0.695  0.1155  0.1912  0.2150
 5959TIP3    H217842   4.684   4.429   0.666  0.7030  0.0102 -0.8342
 5960TIP3   OH217843   1.860   5.055   5.077  0.3216 -0.1344  0.5009
 5960TIP3    H117844   1.902   5.094   5.001  1.3739 -1.3418  0.4339
 5960TIP3    H217845   1.870   4.960   5.065 -0.7211 -0.3969  1.4523
 5961TIP3   OH217846   4.205   2.616   4.002 -0.9095 -0.0632 -0.1338
 5961TIP3    H117847   4.159   2.622   4.086 -0.4252 -0.8164  0.1966
 5961TIP3    H217848   4.274   2.551   4.017  1.0643  1.8921 -0.2374
 5962TIP3   OH217849   4.982   1.863   4.298 -0.1551  0.1957  0.0779
 5962TIP3    H117850   5.053   1.916   4.261  0.1935 -0.4173 -0.1345
 5962TIP3    H217851   5.024   1.784   4.330 -0.7602 -0.2524 -0.2049
 5963TIP3   OH217852   3.400   3.177   0.922 -0.3593  0.1331  0.5548
 5963TIP3    H117853   3.322   3.204   0.971 -0.1810  0.5944  0.5899
 5963TIP3    H217854   3.404   3.082   0.933 -0.1341  0.2675  1.7153
 5964TIP3   OH217855   0.494   0.211   3.081  0.2899  0.0280 -0.7861
 5964TIP3    H117856   0.552   0.159   3.026 -0.0936 -2.2248  0.8213
 5964TIP3    H217857   0.406   0.184   3.056  0.0808 -0.1299  0.0929
 5965TIP3   OH217858   5.465   0.337   0.027 -0.2684 -0.0582  0.0509
 5965TIP3    H117859   5.446   0.410   0.086 -0.9410  0.0950 -0.3433
 5965TIP3    H217860   5.503   0.379  -0.051  0.1621 -0.2153  0.1717
 5966TIP3   OH217861   5.452   0.073   4.157  0.5868 -0.2177 -0.4899
 5966TIP3    H117862   5.374   0.125   4.137  0.5549 -0.3716 -0.7755
 5966TIP3    H217863   5.525   0.130   4.136  0.5812  0.4997  1.2278
 5967TIP3   OH217864   3.765   5.231   5.222 -0.1110 -0.3438 -0.0667
 5967TIP3    H117865   3.725   5.262   5.303 -2.0687 -0.4924 -0.9243
 5967TIP3    H217866   3.754   5.302   5.160  1.5089 -0.1733 -0.2112
 5968TIP3   OH217867   5.829   1.698   0.223  0.0366 -0.4470 -0.2957
 5968TIP3    H117868   5.806   1.791   0.227  0.5560 -0.2514 -1.3873
 5968TIP3    H217869   5.771   1.663   0.155  2.6295  0.0044 -2.9292
 5969TIP3   OH217870   3.001   2.229   4.501  0.2042 -0.0762 -0.6772
 5969TIP3    H117871   2.908   2.253   4.499  0.4278  0.8279 -0.7216
 5969TIP3    H217872   3.015   2.193   4.588  0.0202  0.6754 -0.3351
 5970TIP3   OH217873   1.067   3.627   0.375 -0.0714  0.0118  0.3195
 5970TIP3    H117874   1.041   3.561   0.439 -0.5114 -0.9011 -0.7558
 5970TIP3    H217875   0.991   3.685   0.369 -0.3818 -0.4204 -0.0108
 5971TIP3   OH217876   0.216   5.647   3.937 -0.5784 -0.7997  0.4255
 5971TIP3    H117877   0.274   5.580   3.902  0.0528  0.2863 -0.6662
 5971TIP3    H217878   0.239   5.653   4.030 -0.6095 -2.0366  0.5243
 5972TIP3   OH217879   1.831   2.786   1.631 -0.7159  0.3667 -0.3298
 5972TIP3    H117880   1.756   2.825   1.677 -1.4193 -1.3478  0.0485
 5972TIP3    H217881   1.808   2.694   1.621  1.3582 -0.2246 -0.1785
 5973TIP3   OH217882   0.969   0.784   3.880 -0.2185 -0.0744  0.2212
 5973TIP3    H117883   0.927   0.699   3.866  1.1154 -0.9609  1.2943
 5973TIP3    H217884   1.008   0.806   3.795 -0.2174 -0.7514  0.0360
 5974TIP3   OH217885   5.615   1.828   2.017 -0.0539 -0.2348  0.8280
 5974TIP3    H117886   5.578   1.831   1.929  1.4569 -1.3033  0.1135
 5974TIP3    H217887   5.575   1.902   2.063 -0.6441  0.5173 -0.8456
 5975TIP3   OH217888   2.966   4.211   2.040  0.1032 -0.1466 -0.2338
 5975TIP3    H117889   3.009   4.291   2.010  3.0886 -1.3727  0.4169
 5975TIP3    H217890   2.975   4.149   1.967  0.6427 -0.8297  0.3936
 5976TIP3   OH217891   0.431   1.584   1.174  0.3416  0.4055 -0.6242
 5976TIP3    H117892   0.496   1.554   1.111  0.3789  0.2429 -0.5076
 5976TIP3    H217893   0.384   1.654   1.128  1.3893  1.3523 -0.2773
 5977TIP3   OH217894   0.082   0.839   2.004 -0.1039  0.6657  0.3305
 5977TIP3    H117895   0.088   0.745   2.022  0.9726  0.4021 -1.1903
 5977TIP3    H217896   0.044   0.844   1.917  0.9969  1.5801 -0.1165
 5978TIP3   OH217897   0.702   2.675   3.138  0.2085  0.1473 -0.0112
 5978TIP3    H117898   0.613   2.700   3.163  0.7206 -0.3712  2.5870
 5978TIP3    H217899   0.755   2.751   3.162  0.8511 -0.7397  1.4924
 5979TIP3   OH217900   6.045   5.322   4.983  0.1744  0.0570  0.1661
 5979TIP3    H117901   5.957   5.309   4.948  0.5697  1.6830 -1.6198
 5979TIP3    H217902   6.080   5.394   4.932  0.9781  2.4924  3.7676
 5980TIP3   OH217903   0.325   0.974   1.937  0.0656 -0.5283 -0.4872
 5980TIP3    H117904   0.297   1.032   1.866 -0.3476 -3.2596 -2.7413
 5980TIP3    H217905   0.255   0.909   1.944  0.0977 -0.3776  2.5038
 5981TIP3   OH217906   3.428   6.398   1.391 -0.3377 -0.4954 -0.5512
 5981TIP3    H117907   3.463   6.478   1.430 -0.3460 -0.5847 -0.3565
 5981TIP3    H217908   3.497   6.333   1.403  0.0653 -0.2689 -1.5954
 5982TIP3   OH217909   5.345   0.870   5.398 -0.6332  0.0453 -0.3757
 5982TIP3    H117910   5.369   0.921   5.476  0.0013  3.2166 -2.4511
 5982TIP3    H217911   5.249   0.872   5.398 -0.6230  1.0415 -0.2717
 5983TIP3   OH217912   4.839   3.786   2.761  0.5033 -0.7074 -0.2173
 5983TIP3    H117913   4.902   3.729   2.718 -0.6150 -2.1031 -0.0802
 5983TIP3    H217914   4.776   3.807   2.692 -0.1418 -1.2355  0.1973
 5984TIP3   OH217915   3.149   5.744   1.546  0.4069 -0.3776  0.4378
 5984TIP3    H117916   3.064   5.739   1.589  0.0827  0.1214 -0.1384
 5984TIP3    H217917   3.129   5.737   1.452  1.0758 -1.1142  0.3409
 5985TIP3   OH217918   5.818   4.303   4.506 -0.3290 -0.0115 -0.1630
 5985TIP3    H117919   5.870   4.348   4.573 -1.1995 -1.2972  1.4810
 5985TIP3    H217920   5.782   4.373   4.452  0.4071  1.0913  0.7243
 5986TIP3   OH217921   1.833   4.450   4.831 -0.1383 -0.0525 -0.0017
 5986TIP3    H117922   1.741   4.475   4.843 -0.4270 -1.2580  0.4414
 5986TIP3    H217923   1.873   4.527   4.790 -1.5872  0.0939 -1.2341
 5987TIP3   OH217924   7.172   0.557   1.786  0.6910  0.0978 -0.0985
 5987TIP3    H117925   7.109   0.629   1.783  1.2097  0.5516 -0.2488
 5987TIP3    H217926   7.196   0.549   1.878  1.2391  0.6564 -0.1873
 5988TIP3   OH217927   2.265   1.862   5.759  0.4390  0.8056 -0.0440
 5988TIP3    H117928   2.285   1.772   5.784  0.6193  0.8977  0.1490
 5988TIP3    H217929   2.170   1.868   5.766  0.5089  0.9308  0.9897
 5989TIP3   OH217930   2.671   5.402   0.730 -0.1320  0.1306  0.3915
 5989TIP3    H117931   2.620   5.423   0.652 -0.1487  0.6929  0.5525
 5989TIP3    H217932   2.757   5.379   0.698 -0.6290 -1.3857  0.0653
 5990TIP3   OH217933   0.825   6.720   4.883 -0.1864  0.4075  0.2126
 5990TIP3    H117934   0.896   6.656   4.874 -0.1622 -0.0849  3.0492
 5990TIP3    H217935   0.866   6.804   4.864  0.8893 -0.0015  0.6443
 5991TIP3   OH217936   0.535   5.459   3.762 -0.1779 -0.3796  0.4163
 5991TIP3    H117937   0.580   5.376   3.775  3.3284  1.2876  0.1401
 5991TIP3    H217938   0.534   5.500   3.848 -1.1941 -0.3643  0.4087
 5992TIP3   OH217939   0.571   3.447   3.235  0.5527 -0.3542  0.3553
 5992TIP3    H117940   0.564   3.390   3.159 -0.5984 -0.7433  0.7243
 5992TIP3    H217941   0.531   3.397   3.307 -0.4514  0.8719  0.7022
 5993TIP3   OH217942   2.763   4.103   3.490  0.7484  0.3066 -0.1044
 5993TIP3    H117943   2.694   4.093   3.424 -0.0990 -0.3144  0.8573
 5993TIP3    H217944   2.755   4.194   3.518  0.7552  0.4225 -0.4752
 5994TIP3   OH217945   5.119   5.664   3.019  0.0948 -0.0186  0.0090
 5994TIP3    H117946   5.136   5.683   2.927 -1.2175  0.5589 -0.1336
 5994TIP3    H217947   5.115   5.749   3.061  0.7537 -0.2825  0.6311
 5995TIP3   OH217948   2.290   6.299   4.073 -0.2850  0.0159  0.0161
 5995TIP3    H117949   2.350   6.363   4.034 -0.8762 -0.3391 -1.5323
 5995TIP3    H217950   2.211   6.306   4.021 -0.4113 -1.8941 -0.1009
 5996TIP3   OH217951   7.012   1.468   3.600 -0.0300  0.3241 -0.0260
 5996TIP3    H117952   7.065   1.544   3.575 -0.1138 -0.2311 -2.0669
 5996TIP3    H217953   6.923   1.489   3.571 -0.9806  1.0916  3.0502
 5997TIP3   OH217954   6.128   2.010   4.404 -0.2976  0.0628 -0.4932
 5997TIP3    H117955   6.180   2.083   4.372  0.1180 -0.0570 -0.0961
 5997TIP3    H217956   6.129   1.946   4.333  3.2116 -1.5634  0.7921
 5998TIP3   OH217957   4.624   6.319   0.151  0.1165 -0.0214  0.8246
 5998TIP3    H117958   4.719   6.312   0.150  0.1953  0.9770  0.6209
 5998TIP3    H217959   4.602   6.340   0.242  0.1300  0.2706  0.7597
 5999TIP3   OH217960   5.493   4.528   4.785 -1.0016  0.7184 -0.1475
 5999TIP3    H117961   5.401   4.547   4.767 -1.5368  0.4051  1.9401
 5999TIP3    H217962   5.529   4.611   4.814 -0.9429  0.5900  0.1540
 6000TIP3   OH217963   2.651   0.777   0.647 -0.2333 -0.3082  0.9448
 6000TIP3    H117964   2.600   0.849   0.611  1.8127  0.2238 -1.1274
 6000TIP3    H217965   2.729   0.819   0.683  0.1514 -1.3365  1.3400
 6001TIP3   OH217966   6.692   3.031   3.830 -0.1170  0.2639  0.3978
 6001TIP3    H117967   6.689   2.961   3.764 -1.6985 -0.8956  1.6295
 6001TIP3    H217968   6.786   3.046   3.844  0.2668 -1.3281 -0.2000
 6002TIP3   OH217969   0.482   4.536   3.232 -0.4260 -0.1172 -0.4540
 6002TIP3    H117970   0.475   4.483   3.311  0.0433 -1.3464 -1.2153
 6002TIP3    H217971   0.430   4.490   3.167  0.3278  0.1296 -1.2499
 6003TIP3   OH217972   2.425   0.542   4.456 -0.2518  0.0735  0.1422
 6003TIP3    H117973   2.350   0.600   4.466  1.0822  2.1112 -0.9978
 6003TIP3    H217974   2.436   0.502   4.542 -2.2157  0.2281  0.5094
 6004TIP3   OH217975   4.195   1.489   1.683 -0.0431  0.0228  0.6445
 6004TIP3    H117976   4.251   1.423   1.724  1.0071  1.8888  2.3729
 6004TIP3    H217977   4.242   1.515   1.604  0.0307 -0.5800  0.4870
 6005TIP3   OH217978   5.940   3.597   5.607 -0.0461 -0.1113 -0.2033
 6005TIP3    H117979   5.993   3.555   5.675  0.7843 -0.9953 -1.3551
 6005TIP3    H217980   5.984   3.680   5.589 -0.1186  0.0037  0.1347
 6006TIP3   OH217981   3.554   3.086   4.190  0.1536  0.0403 -0.4379
 6006TIP3    H117982   3.500   3.024   4.239  0.7342 -0.1344 -0.0166
 6006TIP3    H217983   3.641   3.048   4.190  0.5371  0.8902 -0.1113
 6007TIP3   OH217984   5.165   4.091   2.374  0.2391 -0.4799 -0.6067
 6007TIP3    H117985   5.213   4.030   2.318  0.9225 -0.1709 -0.3700
 6007TIP3    H217986   5.227   4.113   2.444  0.0694  0.6189 -0.7839
 6008TIP3   OH217987   6.551   5.088   2.818  0.5523  0.4281  0.0801
 6008TIP3    H117988   6.488   5.059   2.753 -0.0623  0.2011  0.7665
 6008TIP3    H217989   6.624   5.027   2.810 -0.3179 -0.7628  0.8654
 6009TIP3   OH217990   5.403   1.744   1.391 -0.2433  0.4174  0.5292
 6009TIP3    H117991   5.452   1.759   1.471  0.1190  1.8109  0.0880
 6009TIP3    H217992   5.314   1.773   1.412 -0.2286  0.4612  0.5300
 6010TIP3   OH217993   2.163   2.649   1.245 -0.3135 -0.1405 -0.0010
 6010TIP3    H117994   2.165   2.603   1.329  0.7694 -1.4474 -0.7080
 6010TIP3    H217995   2.070   2.647   1.220 -0.2514 -2.6487 -0.3256
 6011TIP3   OH217996   0.143   0.764   3.936 -0.2116 -0.1613 -0.3082
 6011TIP3    H117997   0.158   0.836   3.875  1.0108 -2.0847 -2.4269
 6011TIP3    H217998   0.225   0.754   3.983 -0.2020 -0.4531 -0.3816
 6012TIP3   OH217999   2.100   1.724   2.879 -0.4828 -0.2595  0.5276
 6012TIP3    H118000   2.131   1.743   2.968 -0.3737 -0.0980  0.4567
 6012TIP3    H218001   2.178   1.731   2.825  0.0399 -3.0709  0.7671
 6013TIP3   OH218002   6.178   2.852   4.946  0.2806  0.0763 -0.5391
 6013TIP3    H118003   6.135   2.898   5.018  1.1154  0.8247 -0.4916
 6013TIP3    H218004   6.271   2.876   4.955  0.7825 -1.7546 -0.4226
 6014TIP3   OH218005   5.858   2.559   1.824 -0.2123 -0.3924 -0.2494
 6014TIP3    H118006   5.852   2.547   1.729  1.5904  1.0137 -0.5985
 6014TIP3    H218007   5.881   2.473   1.858 -1.3416 -1.0288 -0.9997
 6015TIP3   OH218008   2.733   3.980   4.367 -0.4051  0.6379  0.7957
 6015TIP3    H118009   2.699   4.067   4.386  0.0291  1.0218 -0.1099
 6015TIP3    H218010   2.655   3.926   4.352 -0.6572  1.2028  0.0044
 6016TIP3   OH218011   3.448   2.756   4.799 -0.7150 -0.4305 -0.0071
 6016TIP3    H118012   3.400   2.687   4.845  0.4041 -0.8998  0.5070
 6016TIP3    H218013   3.501   2.798   4.867 -1.0902  0.6915 -0.3899
 6017TIP3   OH218014   4.139   4.125   0.881  0.1126  0.3684 -0.2198
 6017TIP3    H118015   4.116   4.080   0.962 -0.1983  1.5029  0.3482
 6017TIP3    H218016   4.206   4.069   0.840  0.7888  0.1225  1.1613
 6018TIP3   OH218017   4.169   0.507   2.650  0.4679 -0.3567 -0.2010
 6018TIP3    H118018   4.213   0.526   2.568  0.9777 -1.4604 -0.1884
 6018TIP3    H218019   4.229   0.450   2.698 -0.0635 -0.1788  0.7082
 6019TIP3   OH218020   4.924   4.703   5.215  0.1767 -0.0210 -0.1096
 6019TIP3    H118021   4.975   4.703   5.134  0.2487 -0.1082 -0.0642
 6019TIP3    H218022   4.872   4.623   5.210  0.4741 -0.2314  0.1146
 6020TIP3   OH218023   1.542   3.351   2.191  0.2640  0.4271 -0.3352
 6020TIP3    H118024   1.448   3.351   2.170 -0.3456 -1.5531  1.9978
 6020TIP3    H218025   1.581   3.298   2.122 -0.6685 -0.5377 -0.1442
 6021TIP3   OH218026   5.582   1.328   0.951 -0.5439  0.0406 -0.0269
 6021TIP3    H118027   5.493   1.307   0.924 -0.8174  1.4400 -0.2610
 6021TIP3    H218028   5.588   1.295   1.041 -1.2756 -0.1037 -0.0251
 6022TIP3   OH218029   5.994   1.031   2.342 -0.3828  0.2030  0.0128
 6022TIP3    H118030   5.911   1.063   2.378 -1.3207 -1.1798 -0.8542
 6022TIP3    H218031   5.970   0.960   2.283  1.3307  0.6138 -1.2762
 6023TIP3   OH218032   6.080   3.087   2.687 -0.6830  0.3367 -0.3126
 6023TIP3    H118033   6.082   3.036   2.606 -3.5504 -0.7515  0.1808
 6023TIP3    H218034   6.122   3.032   2.752  1.4714  1.1417 -0.9225
 6024TIP3   OH218035   5.220   2.473   1.524 -0.6395 -0.6875 -0.5482
 6024TIP3    H118036   5.212   2.477   1.429  0.5288 -0.7992 -0.6546
 6024TIP3    H218037   5.138   2.513   1.556 -1.3535 -1.2844 -1.5796
 6025TIP3   OH218038   6.914   5.519   1.286  0.3290 -0.2421  0.4521
 6025TIP3    H118039   6.830   5.530   1.331 -0.0356 -2.1402  0.3153
 6025TIP3    H218040   6.893   5.465   1.209  1.0201  2.4908 -1.8380
 6026TIP3   OH218041   6.182   5.498   1.623 -0.2950  0.0285 -0.0674
 6026TIP3    H118042   6.128   5.576   1.635  1.3401  0.9268  2.2423
 6026TIP3    H218043   6.231   5.514   1.543 -1.2461  0.5306 -0.5731
 6027TIP3   OH218044   2.230   1.770   4.683  0.0220  0.5468 -0.4264
 6027TIP3    H118045   2.198   1.698   4.737  1.1931  1.0941  1.0710
 6027TIP3    H218046   2.325   1.765   4.690  0.2201  0.7542 -2.3364
 6028TIP3   OH218047   7.011   6.586   4.497  0.0071 -0.1436 -0.2382
 6028TIP3    H118048   7.079   6.653   4.487 -0.5223  0.5164  0.4314
 6028TIP3    H218049   7.044   6.530   4.568  0.2387 -0.3254 -0.4881
 6029TIP3   OH218050   3.532   2.696   4.213 -0.0199 -0.5610 -0.0308
 6029TIP3    H118051   3.548   2.705   4.119 -1.4867  0.8417 -0.1932
 6029TIP3    H218052   3.469   2.624   4.220 -1.3125  0.4902 -0.3383
 6030TIP3   OH218053   5.688   2.324   5.576  0.5810 -0.5992 -0.2408
 6030TIP3    H118054   5.637   2.401   5.600  2.0544  0.5506 -0.6818
 6030TIP3    H218055   5.637   2.282   5.507  0.4358  0.7731 -0.9970
 6031TIP3   OH218056   4.210   1.191   0.588 -0.2487  0.0548 -0.8402
 6031TIP3    H118057   4.230   1.216   0.678 -0.4623  0.4013 -0.8858
 6031TIP3    H218058   4.159   1.265   0.554  1.1360  0.6650 -1.7295
 6032TIP3   OH218059   1.168   3.707   5.575 -0.5412 -0.4018  0.7508
 6032TIP3    H118060   1.182   3.624   5.529 -0.3246 -0.1168  0.2900
 6032TIP3    H218061   1.120   3.683   5.654 -0.3021 -0.9905  0.7227
 6033TIP3   OH218062   0.934   3.020   1.986 -0.1114  0.7800 -0.4941
 6033TIP3    H118063   1.023   3.051   2.001  0.1111 -0.1297  0.1245
 6033TIP3    H218064   0.933   2.930   2.020 -0.5004 -0.2229 -2.9501
 6034TIP3   OH218065   0.933   0.940   5.082  0.1488  0.2115 -0.1604
 6034TIP3    H118066   0.856   0.898   5.042  0.6556 -1.9079  0.9341
 6034TIP3    H218067   0.905   0.960   5.172  0.9035 -0.7541  0.3056
 6035TIP3   OH218068   5.874   2.100   4.802  0.3480  0.4415  0.2310
 6035TIP3    H118069   5.913   2.044   4.734  0.7624  0.6540  0.2917
 6035TIP3    H218070   5.836   2.174   4.754 -1.5254 -0.5934 -0.0071
 6036TIP3   OH218071   5.321   0.331   3.055  0.4463  0.5705 -0.3496
 6036TIP3    H118072   5.308   0.257   3.114  2.4091 -0.5194 -1.1793
 6036TIP3    H218073   5.412   0.358   3.071  0.8273  0.6424 -2.3898
 6037TIP3   OH218074   6.527   6.476   1.447 -0.1264 -0.2200 -0.7161
 6037TIP3    H118075   6.609   6.484   1.398  0.1753 -0.6489 -0.2922
 6037TIP3    H218076   6.543   6.525   1.527  0.0955 -1.1523 -0.1703
 6038TIP3   OH218077   2.183   4.723   1.740 -0.8649 -0.5863 -0.6301
 6038TIP3    H118078   2.247   4.734   1.670 -1.8090  0.0168 -1.4191
 6038TIP3    H218079   2.105   4.690   1.697 -1.2753 -0.7894  0.2363
 6039TIP3   OH218080   3.882   3.701   1.806  0.1475  0.0978 -0.0970
 6039TIP3    H118081   3.854   3.614   1.776  0.4110  0.5617 -1.7859
 6039TIP3    H218082   3.802   3.741   1.839 -0.1546 -0.4764 -0.1090
 6040TIP3   OH218083   3.495   2.028   3.680  0.6543  0.2440 -0.2721
 6040TIP3    H118084   3.524   1.982   3.601  0.8158 -0.2929  0.0886
 6040TIP3    H218085   3.572   2.029   3.737 -0.0591 -1.4678  0.8222
 6041TIP3   OH218086   5.583   2.987   3.721  0.0937 -0.2089 -0.6716
 6041TIP3    H118087   5.676   3.011   3.723  0.4133 -1.3177  1.5742
 6041TIP3    H218088   5.538   3.065   3.751  0.6717 -0.6206  1.5031
 6042TIP3   OH218089   1.910   5.241   1.755  0.1442 -0.2866  0.4002
 6042TIP3    H118090   1.920   5.335   1.741  0.9299 -0.2080  1.3046
 6042TIP3    H218091   1.820   5.231   1.788 -0.4126 -0.0391 -1.0059
 6043TIP3   OH218092   2.674   0.945   5.074 -0.1371  0.1560 -0.0179
 6043TIP3    H118093   2.691   0.954   5.168 -0.9766 -0.3579  0.1948
 6043TIP3    H218094   2.598   1.000   5.058  0.0986  0.3635 -0.4316
 6044TIP3   OH218095   1.319   0.161   2.517  0.2264 -0.3623  0.4496
 6044TIP3    H118096   1.245   0.135   2.571 -0.1100 -0.8775 -0.2497
 6044TIP3    H218097   1.372   0.218   2.574 -0.6382 -0.0850  0.9836
 6045TIP3   OH218098   3.008   2.666   2.139  0.1296  0.0235 -0.1692
 6045TIP3    H118099   2.921   2.632   2.157  0.3520 -0.7297 -0.4608
 6045TIP3    H218100   2.993   2.751   2.098 -0.4896 -0.3533 -0.7487
 6046TIP3   OH218101   3.366   1.704   1.999 -0.0802  0.0765  0.4769
 6046TIP3    H118102   3.439   1.765   1.984  0.0941 -0.1903  0.2393
 6046TIP3    H218103   3.299   1.757   2.044  0.8616 -0.0671  2.1289
 6047TIP3   OH218104   5.191   0.626   2.392  0.5058 -0.0868  0.3416
 6047TIP3    H118105   5.213   0.679   2.468 -1.9963  0.4889  0.7471
 6047TIP3    H218106   5.200   0.536   2.421  1.2276  0.1237  0.7797
 6048TIP3   OH218107   5.126   1.394   5.128  0.0033  0.5347  0.4287
 6048TIP3    H118108   5.055   1.418   5.068  1.2597  1.8590 -0.6041
 6048TIP3    H218109   5.205   1.400   5.075  1.2826  2.7162  2.3712
 6049TIP3   OH218110   6.202   6.701   1.702 -0.1884  0.4869 -0.0375
 6049TIP3    H118111   6.197   6.605   1.698 -1.0156  0.5340 -0.2641
 6049TIP3    H218112   6.130   6.731   1.646  1.4291  1.2488 -1.8425
 6050TIP3   OH218113   1.669   2.242   0.565 -0.3990 -0.0480  0.7911
 6050TIP3    H118114   1.666   2.278   0.477 -0.7449  1.4623  1.3838
 6050TIP3    H218115   1.638   2.152   0.556 -0.4491  0.0922 -0.6149
 6051TIP3   OH218116   1.911   1.117   5.824 -0.1420 -0.2346 -0.0032
 6051TIP3    H118117   1.881   1.118   5.915  2.3251 -1.6389  0.9031
 6051TIP3    H218118   1.867   1.042   5.785 -2.4583  1.2783 -0.5369
 6052TIP3   OH218119   3.137   5.475   2.177 -0.3852  0.2516 -0.8077
 6052TIP3    H118120   3.208   5.489   2.115  0.8198  0.2038  0.5152
 6052TIP3    H218121   3.177   5.426   2.249 -1.6473  0.6053  0.1744
 6053TIP3   OH218122   0.780   2.093   1.260 -0.1388 -0.2734 -0.0246
 6053TIP3    H118123   0.870   2.075   1.235  0.0762  0.2030  0.3989
 6053TIP3    H218124   0.782   2.182   1.295 -1.1360  0.5551 -1.9178
 6054TIP3   OH218125   6.085   0.339   0.615 -0.7269 -0.0700  0.1443
 6054TIP3    H118126   6.082   0.262   0.671  1.5766 -0.7618 -0.5293
 6054TIP3    H218127   6.175   0.372   0.626 -1.0272  1.2720 -1.1697
 6055TIP3   OH218128   0.341   5.831   5.385 -0.1119 -0.0226 -0.4367
 6055TIP3    H118129   0.311   5.884   5.459  1.4090  0.1515  0.1049
 6055TIP3    H218130   0.281   5.851   5.314 -0.7493  0.9074  0.3418
 6056TIP3   OH218131   5.235   3.476   2.644 -0.5011 -0.2755  0.5439
 6056TIP3    H118132   5.281   3.530   2.580 -1.1856  1.3743  1.4006
 6056TIP3    H218133   5.293   3.474   2.720 -1.1292  0.5053  1.0544
 6057TIP3   OH218134   6.750   4.466   3.458  0.0998  0.2486 -0.2246
 6057TIP3    H118135   6.710   4.388   3.419 -0.9069 -0.0061  1.2273
 6057TIP3    H218136   6.686   4.536   3.441  1.0400  0.8165 -1.5994
 6058TIP3   OH218137   6.681   6.353   0.550 -0.5961 -0.3251 -0.0137
 6058TIP3    H118138   6.639   6.284   0.602 -1.1246  0.2311  0.3233
 6058TIP3    H218139   6.630   6.432   0.570  0.2553  0.2544 -0.0533
 6059TIP3   OH218140   3.997   1.288   0.218 -0.4313  0.2750  0.5663
 6059TIP3    H118141   3.933   1.356   0.197  0.6708  0.6944 -1.7190
 6059TIP3    H218142   3.969   1.254   0.304 -1.9687  2.4320  0.9924
 6060TIP3   OH218143   6.641   5.633   1.727  0.4214 -0.0708 -0.3215
 6060TIP3    H118144   6.608   5.567   1.667  0.3955  0.4659 -0.9053
 6060TIP3    H218145   6.736   5.633   1.715  1.0437 -3.1508  2.9078
 6061TIP3   OH218146   4.936   5.530   0.417 -0.0885 -0.1775  0.0796
 6061TIP3    H118147   4.902   5.442   0.433 -1.2325 -0.0859 -1.6246
 6061TIP3    H218148   4.965   5.528   0.326 -1.2461  1.5504 -0.3542
 6062TIP3   OH218149   2.717   2.265   5.048 -0.2783  0.2797 -0.2427
 6062TIP3    H118150   2.658   2.219   5.108  0.2819  0.9450  0.8703
 6062TIP3    H218151   2.758   2.195   4.997 -0.5930 -0.3344  0.3226
 6063TIP3   OH218152   1.232   4.386   2.075  1.1135  0.0686  0.0270
 6063TIP3    H118153   1.204   4.463   2.125 -0.3773 -1.1813  1.1994
 6063TIP3    H218154   1.210   4.407   1.984  0.2786  0.8350  0.3955
 6064TIP3   OH218155   5.995   2.823   3.383  0.2325  0.0857  0.2974
 6064TIP3    H118156   6.080   2.793   3.353 -0.0053 -0.9730  0.6361
 6064TIP3    H218157   5.938   2.814   3.306 -0.0363 -1.2163  0.6186
 6065TIP3   OH218158   4.071   3.951   5.354  0.3004 -0.9175 -0.0755
 6065TIP3    H118159   4.134   3.979   5.287 -0.1233 -0.7277 -0.3980
 6065TIP3    H218160   3.991   3.932   5.306  0.6847 -3.1525  0.0774
 6066TIP3   OH218161   5.235   1.681   1.752 -0.1043 -0.4488 -0.2741
 6066TIP3    H118162   5.277   1.714   1.831 -0.6935  1.5136 -0.7340
 6066TIP3    H218163   5.308   1.648   1.699  0.5656  0.4923  0.0365
 6067TIP3   OH218164   4.613   4.220   4.103 -0.3214 -0.3475  0.2390
 6067TIP3    H118165   4.581   4.169   4.028 -1.4248 -0.5133  0.8077
 6067TIP3    H218166   4.665   4.158   4.154  1.8659  0.1725 -1.2126
 6068TIP3   OH218167   3.001   6.504   5.131 -0.2278  0.0886  0.1479
 6068TIP3    H118168   3.002   6.564   5.206 -1.1153  1.4392 -0.8794
 6068TIP3    H218169   3.046   6.426   5.163  0.1734  0.9486  1.8175
 6069TIP3   OH218170   1.717   5.906   2.544 -0.0256 -0.0221  0.2232
 6069TIP3    H118171   1.812   5.919   2.538 -0.0481 -0.1089 -0.3223
 6069TIP3    H218172   1.701   5.894   2.638  0.3231  1.3602  0.4773
 6070TIP3   OH218173   4.759   1.599   1.911 -0.2490  0.5294  0.1742
 6070TIP3    H118174   4.666   1.584   1.892 -0.2310  0.8197 -0.1519
 6070TIP3    H218175   4.782   1.530   1.973 -0.5675  0.1712 -0.0953
 6071TIP3   OH218176   2.223   4.411   3.754  0.3906  0.2113 -0.5059
 6071TIP3    H118177   2.269   4.481   3.801 -1.0046  0.4949  0.4929
 6071TIP3    H218178   2.238   4.431   3.662  4.9156 -1.5155 -0.3729
 6072TIP3   OH218179   5.116   2.126   3.933  0.2044  0.2897 -0.1994
 6072TIP3    H118180   5.120   2.035   3.904 -0.5138  0.1996 -0.0469
 6072TIP3    H218181   5.070   2.171   3.861 -1.1338  0.1628  0.5353
 6073TIP3   OH218182   5.957   1.533   0.833  0.1383  0.0192  0.6323
 6073TIP3    H118183   5.889   1.474   0.803  0.5924 -0.2528  0.1161
 6073TIP3    H218184   5.940   1.545   0.927  1.0927 -2.3740  1.1808
 6074TIP3   OH218185   3.819   3.985   0.201  0.1732 -0.2155 -0.0533
 6074TIP3    H118186   3.796   3.893   0.218 -0.0396 -0.3743 -1.1498
 6074TIP3    H218187   3.909   3.981   0.169  0.9402  0.1796  1.9272
 6075TIP3   OH218188   4.680   6.209   4.283  0.2889 -0.4403 -0.1478
 6075TIP3    H118189   4.670   6.281   4.346 -1.5708  2.4906 -3.4744
 6075TIP3    H218190   4.755   6.234   4.230  0.8640 -2.0670 -0.1472
 6076TIP3   OH218191   5.088   6.599   0.941 -0.2644 -1.0855 -0.2567
 6076TIP3    H118192   5.102   6.556   0.856 -0.0981 -1.0722 -0.2351
 6076TIP3    H218193   5.071   6.527   1.001  0.7490 -1.1797 -0.0679
 6077TIP3   OH218194   3.031   0.764   5.755  0.2809 -0.6245  0.2934
 6077TIP3    H118195   3.080   0.682   5.769  1.4122  0.1225  0.9095
 6077TIP3    H218196   3.094   0.833   5.776 -0.4497  0.4332 -0.8324
 6078TIP3   OH218197   6.089   1.422   1.604 -0.1957 -0.0601 -0.3308
 6078TIP3    H118198   6.079   1.362   1.678 -2.7291 -0.6737 -1.0782
 6078TIP3    H218199   6.183   1.438   1.599  0.2857 -1.8471  1.5484
 6079TIP3   OH218200   3.652   1.569   5.249  0.0745  0.4299 -0.2923
 6079TIP3    H118201   3.738   1.610   5.251 -0.8989  2.7580 -1.8739
 6079TIP3    H218202   3.655   1.510   5.174 -0.1240  1.6007 -1.2425
 6080TIP3   OH218203   3.301   6.296   3.451 -0.1042 -0.0939  0.2618
 6080TIP3    H118204   3.264   6.359   3.389 -1.1201  1.2923  2.1575
 6080TIP3    H218205   3.286   6.211   3.411  1.6880  0.8033 -2.5933
 6081TIP3   OH218206   3.600   5.341   1.423  0.1258 -0.2787  0.2569
 6081TIP3    H118207   3.547   5.289   1.483 -0.2080 -1.1197 -0.7392
 6081TIP3    H218208   3.686   5.299   1.424  0.3972  0.2682  0.8341
 6082TIP3   OH218209   6.282   5.778   2.887  0.0666  0.2451 -0.5171
 6082TIP3    H118210   6.280   5.694   2.841  0.9276  1.0711 -2.1473
 6082TIP3    H218211   6.347   5.766   2.956  0.2331 -0.4216 -0.7860
 6083TIP3   OH218212   5.149   4.111   3.540  0.2677 -0.3723  0.0408
 6083TIP3    H118213   5.072   4.054   3.536  0.0885 -0.1174 -0.2254
 6083TIP3    H218214   5.163   4.125   3.633 -0.6777  0.4582  0.0803
 6084TIP3   OH218215   5.511   3.790   1.169 -0.1587  0.1321 -0.6064
 6084TIP3    H118216   5.530   3.801   1.262  1.7118  0.1033 -0.9375
 6084TIP3    H218217   5.554   3.707   1.146 -0.1270  0.4154 -1.6095
 6085TIP3   OH218218   6.063   3.501   2.413 -0.1047  0.1166  0.3506
 6085TIP3    H118219   6.044   3.539   2.498 -0.9055 -1.3159  0.8575
 6085TIP3    H218220   6.152   3.467   2.420 -0.5650 -1.0252  1.0570
 6086TIP3   OH218221   2.501   6.471   0.084  0.2118 -0.2559 -0.2982
 6086TIP3    H118222   2.545   6.387   0.073  0.2699 -0.0936 -1.4395
 6086TIP3    H218223   2.571   6.531   0.113  0.0165 -0.7445  1.2660
 6087TIP3   OH218224   6.231   5.936   4.479 -0.4549 -0.0924 -0.3878
 6087TIP3    H118225   6.216   5.847   4.448 -0.0162 -0.0210 -0.8194
 6087TIP3    H218226   6.317   5.932   4.523  0.2577  0.4199 -1.6713
 6088TIP3   OH218227   5.420   5.166   0.752 -0.0809 -0.1668  0.2087
 6088TIP3    H118228   5.419   5.085   0.701  1.0304 -0.6494  0.9108
 6088TIP3    H218229   5.346   5.216   0.718  0.3301 -0.6655 -1.5380
 6089TIP3   OH218230   4.222   0.629   3.565 -0.6783 -0.2900 -0.0047
 6089TIP3    H118231   4.186   0.569   3.630  1.3719 -0.7721  0.7601
 6089TIP3    H218232   4.284   0.575   3.516  0.3443  0.9170 -0.0701
 6090TIP3   OH218233   5.815   1.182   4.628  0.3590 -0.2250  0.4668
 6090TIP3    H118234   5.755   1.121   4.672  0.9553 -2.2568 -1.3476
 6090TIP3    H218235   5.758   1.252   4.596 -0.8006 -1.2054  0.2954
 6091TIP3   OH218236   3.750   2.429   1.392 -0.1107  0.3130  0.4727
 6091TIP3    H118237   3.703   2.412   1.311 -0.7558  1.7805  0.5061
 6091TIP3    H218238   3.684   2.463   1.452  0.7876  1.5278  0.8194
 6092TIP3   OH218239   5.034   3.792   4.641  0.1211  0.1938  0.1559
 6092TIP3    H118240   4.940   3.774   4.644  0.0306  0.6634  2.8416
 6092TIP3    H218241   5.054   3.827   4.728  3.1742 -1.8360  0.4135
 6093TIP3   OH218242   1.168   3.068   4.951 -0.1228  0.0592 -0.1385
 6093TIP3    H118243   1.166   3.071   4.855  0.5541 -1.0892 -0.2107
 6093TIP3    H218244   1.114   2.992   4.974  1.0351 -0.6619  0.2860
 6094TIP3   OH218245   2.944   3.423   4.422  0.3435 -0.5266 -0.6816
 6094TIP3    H118246   2.921   3.505   4.465  0.7898 -1.3652  1.2559
 6094TIP3    H218247   2.879   3.360   4.453  0.3454 -1.0431 -1.6922
 6095TIP3   OH218248   3.164   0.428   1.115  0.3838 -0.1415  0.4533
 6095TIP3    H118249   3.224   0.480   1.060  2.1121 -3.3045 -0.9667
 6095TIP3    H218250   3.101   0.392   1.053 -1.9610  1.6175  1.6826
 6096TIP3   OH218251   5.914   2.789   4.258  0.0619  0.2708  0.3424
 6096TIP3    H118252   5.905   2.861   4.321 -0.9549 -0.3433  0.9252
 6096TIP3    H218253   5.960   2.828   4.184  0.4970  1.2393  1.0982
 6097TIP3   OH218254   3.201   1.453   1.610 -0.7877 -0.0308 -0.1959
 6097TIP3    H118255   3.256   1.377   1.631 -0.7840  0.3462  1.2456
 6097TIP3    H218256   3.251   1.528   1.640 -2.0062  0.3316  1.0351
 6098TIP3   OH218257   5.257   6.252   4.188 -0.5958  0.0667 -0.3767
 6098TIP3    H118258   5.232   6.339   4.157 -0.2534  0.8377  1.3945
 6098TIP3    H218259   5.344   6.264   4.226 -0.8766 -0.8492  0.6072
 6099TIP3   OH218260   4.012   3.491   2.207 -0.5686  0.2083  0.0127
 6099TIP3    H118261   3.926   3.533   2.210 -0.3977  0.7312 -1.4338
 6099TIP3    H218262   4.067   3.552   2.157  0.2186 -0.8293 -0.4288
 6100TIP3   OH218263   4.876   2.256   1.124  0.2029  0.3264  0.4355
 6100TIP3    H118264   4.900   2.164   1.112 -0.7751  0.2013 -0.7397
 6100TIP3    H218265   4.953   2.304   1.091 -0.5465 -0.0848 -2.2068
 6101TIP3   OH218266   1.379   5.852   5.239 -0.7975 -0.4944  0.4753
 6101TIP3    H118267   1.347   5.937   5.210 -1.1737 -1.4530 -2.1069
 6101TIP3    H218268   1.473   5.854   5.219 -0.9407 -0.9469 -0.2322
 6102TIP3   OH218269   1.871   4.976   0.559  0.1750 -0.2219 -0.1046
 6102TIP3    H118270   1.934   5.042   0.586  0.3480 -0.5648  0.3566
 6102TIP3    H218271   1.812   4.966   0.633 -0.5658  0.2533 -0.6159
 6103TIP3   OH218272   5.353   6.550   1.024  0.0797  0.0691  0.5856
 6103TIP3    H118273   5.267   6.553   0.981  0.1886  0.6634  0.3955
 6103TIP3    H218274   5.360   6.634   1.069  0.7740  0.2277  0.1893
 6104TIP3   OH218275   1.658   2.177   3.757  0.1469  0.4046  0.2120
 6104TIP3    H118276   1.601   2.121   3.706 -1.4823  0.6305  1.7059
 6104TIP3    H218277   1.716   2.117   3.803 -1.8602 -0.1748  2.1350
 6105TIP3   OH218278   0.640   5.477   1.427  0.3180  0.4272  0.3904
 6105TIP3    H118279   0.658   5.515   1.341 -1.6273  1.3227  0.3394
 6105TIP3    H218280   0.646   5.382   1.412 -0.0535  0.5682 -0.7517
 6106TIP3   OH218281   4.591   0.622   2.066 -0.3420 -0.0170  0.0185
 6106TIP3    H118282   4.601   0.534   2.102  2.2364 -0.2405 -1.0435
 6106TIP3    H218283   4.675   0.641   2.024 -1.0532  2.6893 -0.4000
 6107TIP3   OH218284   0.252   5.633   2.769  0.4459 -0.2196 -0.5158
 6107TIP3    H118285   0.165   5.627   2.729 -0.6225  0.1967  1.6104
 6107TIP3    H218286   0.238   5.679   2.851  2.3093 -2.0588  0.9626
 6108TIP3   OH218287   2.316   2.793   3.601  0.7711 -0.1095  0.6804
 6108TIP3    H118288   2.387   2.828   3.655  2.5696  0.4315 -1.8498
 6108TIP3    H218289   2.301   2.705   3.634  1.8833  0.1539  1.9474
 6109TIP3   OH218290   2.983   2.921   0.654  0.1690  0.1707  0.0248
 6109TIP3    H118291   2.939   2.951   0.733 -0.8114 -0.3765 -0.2890
 6109TIP3    H218292   3.045   2.990   0.632  0.9624  0.0164  1.6604
 6110TIP3   OH218293   0.362   0.086   5.423  0.0980 -0.1163 -0.4438
 6110TIP3    H118294   0.401   0.079   5.336  0.9819 -0.7159 -0.0184
 6110TIP3    H218295   0.366   0.180   5.443  1.7594 -0.1793 -0.2571
 6111TIP3   OH218296   6.010   6.073   4.220  0.1541 -0.4644 -0.2984
 6111TIP3    H118297   5.997   6.097   4.312  1.1990  0.5760 -0.3999
 6111TIP3    H218298   6.047   5.985   4.223  2.1102  0.3236  0.4085
 6112TIP3   OH218299   4.104   5.951   2.151  0.1812 -0.2278 -0.0871
 6112TIP3    H118300   4.174   5.947   2.215  1.4665  2.5550 -1.1257
 6112TIP3    H218301   4.030   5.906   2.192  1.5076 -0.2035  2.5085
 6113TIP3   OH218302   3.377   0.481   4.196 -0.0930 -0.3865  0.0882
 6113TIP3    H118303   3.300   0.529   4.167 -0.2072 -0.1975  0.6855
 6113TIP3    H218304   3.355   0.452   4.285  0.3855 -0.6339  0.1275
 6114TIP3   OH218305   4.406   2.632   4.980 -0.4405  0.4704 -0.3867
 6114TIP3    H118306   4.489   2.661   4.944 -0.8266  0.6087 -1.1956
 6114TIP3    H218307   4.347   2.630   4.904 -0.4609 -2.3384 -0.4107
 6115TIP3   OH218308   4.175   4.806   0.096 -0.1542  0.7609 -0.1620
 6115TIP3    H118309   4.232   4.740   0.137 -0.3175 -0.1662 -1.3782
 6115TIP3    H218310   4.130   4.848   0.170  0.9748  0.4622  0.7180
 6116TIP3   OH218311   2.665   1.454   2.893 -0.3606 -0.2527 -0.0019
 6116TIP3    H118312   2.652   1.549   2.894 -1.4926 -0.3781  2.1275
 6116TIP3    H218313   2.701   1.433   2.979 -3.3774 -2.0915  0.9844
 6117TIP3   OH218314   0.443  -0.003   5.838 -0.2522 -0.4695 -0.2827
 6117TIP3    H118315   0.534   0.029   5.842  0.3364 -2.1204  0.4760
 6117TIP3    H218316   0.403   0.047   5.766  1.7816 -0.9928 -1.8765
 6118TIP3   OH218317   6.767   5.306   2.763  0.4158  0.5137 -0.0753
 6118TIP3    H118318   6.778   5.248   2.688  1.4750  2.4041 -1.4519
 6118TIP3    H218319   6.707   5.259   2.821  1.4348 -2.0698 -0.9556
 6119TIP3   OH218320   3.997   2.795   4.893 -0.4516  0.4369 -0.1206
 6119TIP3    H118321   3.996   2.715   4.944 -1.3193 -0.6947 -1.8123
 6119TIP3    H218322   3.922   2.787   4.833 -0.4826  2.4436 -0.4440
 6120TIP3   OH218323   2.424   2.293   3.027  0.1078  0.3013 -0.1672
 6120TIP3    H118324   2.360   2.362   3.008  1.3326  1.1270 -1.4601
 6120TIP3    H218325   2.377   2.211   3.008 -1.5355  0.6555  1.8933
 6121TIP3   OH218326   1.093   0.790   4.131  0.1723 -0.0014 -0.3172
 6121TIP3    H118327   1.165   0.852   4.119 -2.5445  3.5811  0.1347
 6121TIP3    H218328   1.060   0.776   4.043 -0.4197  0.8639 -0.2465
 6122TIP3   OH218329   5.339   0.315   3.351 -0.5215  0.1121  0.7082
 6122TIP3    H118330   5.370   0.287   3.438  0.0018 -2.4713 -0.2214
 6122TIP3    H218331   5.266   0.256   3.332  1.0148 -1.1758 -1.6398
 6123TIP3   OH218332   2.688   0.167   4.433  0.2499  0.7411 -0.0599
 6123TIP3    H118333   2.670   0.194   4.523  0.8087  0.5611  0.1108
 6123TIP3    H218334   2.783   0.169   4.426  0.3350 -1.3722  0.0279
 6124TIP3   OH218335   5.219   6.511   4.101  0.2673 -0.5569 -0.3790
 6124TIP3    H118336   5.201   6.594   4.146  1.6454 -0.2654 -0.3364
 6124TIP3    H218337   5.183   6.523   4.013 -0.1912 -0.1957 -0.1459
 6125TIP3   OH218338   1.157   0.438   2.694  0.5298  0.5880 -0.2545
 6125TIP3    H118339   1.223   0.508   2.698 -2.3031  3.4881 -0.2620
 6125TIP3    H218340   1.153   0.415   2.601 -0.3276  2.4276 -0.7253
 6126TIP3   OH218341   4.394   1.237   1.387 -0.2212  0.4085 -0.1404
 6126TIP3    H118342   4.402   1.190   1.470  0.9752  1.0368  0.1352
 6126TIP3    H218343   4.430   1.178   1.322 -0.0215  0.3781 -0.0066
 6127TIP3   OH218344   3.404   2.688   1.400  0.2993 -0.1003  0.0412
 6127TIP3    H118345   3.318   2.648   1.385  1.4669 -2.3403 -1.0545
 6127TIP3    H218346   3.452   2.624   1.451  1.5066  0.9062  0.2117
 6128TIP3   OH218347   0.428   5.359   1.919  0.3499  0.4045 -0.1419
 6128TIP3    H118348   0.413   5.267   1.943 -0.4372  0.5002 -0.2502
 6128TIP3    H218349   0.512   5.358   1.874  1.1381 -0.0201  1.2636
 6129TIP3   OH218350   2.542   1.724   2.987  0.5409 -0.7565  0.1071
 6129TIP3    H118351   2.510   1.666   3.056  1.6502  1.1906  2.4082
 6129TIP3    H218352   2.462   1.753   2.941 -0.4032 -0.8510  1.6289
 6130TIP3   OH218353   1.205   5.111   0.919  0.1257  0.1730 -0.4974
 6130TIP3    H118354   1.229   5.057   0.843  1.7121 -1.5514  1.1225
 6130TIP3    H218355   1.272   5.178   0.923 -0.3707  0.7073 -1.0170
 6131TIP3   OH218356   3.934   2.619   0.848  0.1197 -0.3391 -0.2676
 6131TIP3    H118357   3.883   2.610   0.768  1.2879 -0.1205 -1.0523
 6131TIP3    H218358   4.022   2.589   0.825  0.6151  0.2330  0.7806
 6132TIP3   OH218359   3.598   2.664   3.816 -0.4020  0.2594 -0.0765
 6132TIP3    H118360   3.556   2.635   3.897  0.5737 -0.1448  0.2922
 6132TIP3    H218361   3.572   2.599   3.750 -0.6834  0.2431  0.0486
 6133TIP3   OH218362   3.025   2.399   0.258  0.0007 -0.1777  0.5175
 6133TIP3    H118363   3.056   2.332   0.320  0.6648 -1.8160 -1.4822
 6133TIP3    H218364   2.930   2.390   0.260 -0.0450  0.3081  1.8088
 6134TIP3   OH218365   1.187   0.397   2.131 -0.0494 -0.1273 -0.5165
 6134TIP3    H118366   1.189   0.441   2.046  1.7292 -0.1160 -0.5176
 6134TIP3    H218367   1.242   0.320   2.119  0.4665  0.0293  0.6858
 6135TIP3   OH218368   4.413   5.905   0.491  0.0133 -0.0515 -0.8850
 6135TIP3    H118369   4.322   5.920   0.516  0.3133 -0.8554  0.8456
 6135TIP3    H218370   4.408   5.858   0.407 -1.1788 -0.4188 -0.6247
 6136TIP3   OH218371   2.462   3.861   1.405  0.5215  0.4880 -0.4021
 6136TIP3    H118372   2.419   3.844   1.321 -0.3167 -0.2194  0.1475
 6136TIP3    H218373   2.399   3.828   1.470  1.2236  0.8937  0.4873
 6137TIP3   OH218374   4.778   3.122   3.732 -0.0311  0.0144  0.2042
 6137TIP3    H118375   4.828   3.099   3.653 -0.2727 -0.3975  0.1654
 6137TIP3    H218376   4.793   3.216   3.744 -1.3626  0.4866 -1.3450
 6138TIP3   OH218377   4.590   5.798   0.690 -0.3799 -0.3306  0.0224
 6138TIP3    H118378   4.507   5.821   0.648 -1.7279 -1.7304  1.7385
 6138TIP3    H218379   4.592   5.702   0.686  1.6008 -0.3043 -0.7054
 6139TIP3   OH218380   6.041   5.030   5.256  0.2116  0.2691  0.4701
 6139TIP3    H118381   5.972   5.024   5.190 -0.1770  0.0877  0.8859
 6139TIP3    H218382   6.102   5.094   5.221 -0.8838  1.5030  0.7414
 6140TIP3   OH218383   4.679   1.094   1.295  0.0964  0.2855  0.0557
 6140TIP3    H118384   4.770   1.092   1.263  0.7392  0.7094  1.7389
 6140TIP3    H218385   4.667   1.009   1.338 -0.4882  0.0326 -0.5904
 6141TIP3   OH218386   6.816   6.582   2.373 -0.3475 -0.1085 -0.3140
 6141TIP3    H118387   6.790   6.526   2.300  0.8178 -1.6395  0.3818
 6141TIP3    H218388   6.901   6.547   2.401 -0.7676  0.4071  1.7685
 6142TIP3   OH218389   7.038   2.140   5.443 -0.6764 -0.1583 -0.0674
 6142TIP3    H118390   7.133   2.136   5.429 -0.5546  1.4335  0.1635
 6142TIP3    H218391   7.028   2.133   5.538 -0.8583 -1.1264 -0.1489
 6143TIP3   OH218392   0.314   5.035   5.328 -0.0152 -0.2153  0.2903
 6143TIP3    H118393   0.352   4.966   5.382 -2.0418 -0.1532  1.9005
 6143TIP3    H218394   0.263   4.988   5.261 -0.2108 -0.2893  0.4907
 6144TIP3   OH218395   1.785   3.325   5.224  0.3842 -0.2325  0.2822
 6144TIP3    H118396   1.697   3.321   5.260 -1.1575 -0.2828 -3.0859
 6144TIP3    H218397   1.785   3.403   5.169  2.5021 -0.1572  0.3014
 6145TIP3   OH218398   4.458   5.823   1.619  0.2801  0.4634 -0.7509
 6145TIP3    H118399   4.484   5.821   1.711  0.2905 -0.4663 -0.7663
 6145TIP3    H218400   4.393   5.893   1.614  1.2186  1.3990 -0.3025
 6146TIP3   OH218401   6.570   1.056   3.179 -0.4474  0.0557  0.0421
 6146TIP3    H118402   6.489   1.099   3.150 -0.9207 -1.6817 -1.4112
 6146TIP3    H218403   6.554   0.963   3.163  2.4352 -0.2194 -1.8169
 6147TIP3   OH218404   1.107   6.231   3.869  0.0629 -0.2245 -0.5109
 6147TIP3    H118405   1.108   6.171   3.795  0.6799  1.3674 -1.8605
 6147TIP3    H218406   1.018   6.266   3.871  0.2260  0.2380 -0.9645
 6148TIP3   OH218407   2.250   2.827   1.036  0.3231  0.7944  0.5511
 6148TIP3    H118408   2.238   2.745   0.987 -1.4300  0.3613  1.6251
 6148TIP3    H218409   2.224   2.806   1.125  1.1713  2.1908  1.1561
 6149TIP3   OH218410   4.921   4.106   5.126 -0.1908  0.7979 -0.2791
 6149TIP3    H118411   5.010   4.116   5.160 -0.5642  0.8128  0.7228
 6149TIP3    H218412   4.870   4.072   5.199 -0.4963 -1.7070 -1.5669
 6150TIP3   OH218413   1.482   6.246   0.292 -0.4184 -0.7626 -0.7441
 6150TIP3    H118414   1.430   6.174   0.259 -0.8161 -1.1104  0.5845
 6150TIP3    H218415   1.556   6.204   0.336 -0.0496 -0.3298 -0.9469
 6151TIP3   OH218416   3.131   6.274   2.298 -0.0147  0.2924  0.4555
 6151TIP3    H118417   3.075   6.270   2.375  1.1575 -1.4876  1.2930
 6151TIP3    H218418   3.096   6.205   2.241  1.2929 -0.8697  1.0098
 6152TIP3   OH218419   5.169   4.841   0.254 -0.0986 -0.6313  0.1741
 6152TIP3    H118420   5.214   4.829   0.171  2.2083 -0.0567  1.2603
 6152TIP3    H218421   5.085   4.797   0.243 -0.7398  1.0983 -3.1083
 6153TIP3   OH218422   3.322   3.952   3.545  0.2458 -0.2012  0.0613
 6153TIP3    H118423   3.284   4.039   3.532 -1.0359 -0.3060  2.4999
 6153TIP3    H218424   3.417   3.967   3.547  0.0856  0.9957 -0.3601
 6154TIP3   OH218425   4.605   1.323   1.203  0.0669 -0.6152 -0.0312
 6154TIP3    H118426   4.558   1.279   1.132  2.8039 -1.2200 -1.6444
 6154TIP3    H218427   4.634   1.253   1.260  0.3217 -0.4196  0.0804
 6155TIP3   OH218428   0.834   3.231   5.865  0.0177 -0.6261  0.3170
 6155TIP3    H118429   0.896   3.246   5.793 -1.2164 -1.0988 -0.8908
 6155TIP3    H218430   0.857   3.297   5.931  0.8811  0.1256 -0.7010
 6156TIP3   OH218431   3.010   1.312   1.718  0.2867  0.0404 -0.2114
 6156TIP3    H118432   3.062   1.386   1.687 -0.6922  1.4662  1.3602
 6156TIP3    H218433   2.923   1.350   1.735 -0.4340 -1.6306 -0.0169
 6157TIP3   OH218434   5.658   2.551   4.009 -0.3851  0.3514  0.4628
 6157TIP3    H118435   5.571   2.512   3.999 -1.3192  1.9331  1.8838
 6157TIP3    H218436   5.647   2.642   3.983  0.8078  0.6165  0.8035
 6158TIP3   OH218437   0.713   0.923   3.142 -0.3166  0.1013 -0.4574
 6158TIP3    H118438   0.766   0.848   3.113 -0.0307 -0.6437  1.7995
 6158TIP3    H218439   0.623   0.897   3.124 -0.0704  0.5744 -2.5696
 6159TIP3   OH218440   5.041   6.090   5.632  0.3682 -0.1051  0.0011
 6159TIP3    H118441   5.132   6.061   5.636 -0.2519 -1.9883  2.0031
 6159TIP3    H218442   5.016   6.077   5.540  1.4564 -1.8027 -0.1020
 6160TIP3   OH218443   6.996   1.905   1.868 -0.2400  0.6894 -0.0852
 6160TIP3    H118444   7.007   1.823   1.915  0.0325 -0.4759 -2.0775
 6160TIP3    H218445   6.989   1.972   1.937  2.0590 -0.6473  1.5552
 6161TIP3   OH218446   6.741   5.099   1.691  0.1965 -0.0384  0.3216
 6161TIP3    H118447   6.717   5.183   1.653 -0.3049 -0.1945  0.2803
 6161TIP3    H218448   6.660   5.068   1.733  0.0913 -0.9660 -0.5299
 6162TIP3   OH218449   6.950   0.083   3.113  0.5139  0.6361 -0.2918
 6162TIP3    H118450   7.044   0.068   3.114  0.3100 -0.7448 -0.3831
 6162TIP3    H218451   6.934   0.135   3.193  1.3906  1.3030 -0.5265
 6163TIP3   OH218452   5.766   3.966   2.103 -0.3052  0.6272  0.0748
 6163TIP3    H118453   5.833   4.028   2.076  0.6695 -0.5263 -0.2564
 6163TIP3    H218454   5.810   3.881   2.102 -2.3429 -0.5435 -2.4854
 6164TIP3   OH218455   0.500   3.103   1.343 -0.3231 -0.0786 -0.1719
 6164TIP3    H118456   0.520   3.193   1.317 -3.8621  0.7783 -0.4636
 6164TIP3    H218457   0.442   3.112   1.418 -2.2786 -2.0054 -1.3356
 6165TIP3   OH218458   0.262   3.597   3.235 -0.0329 -0.4365  0.0562
 6165TIP3    H118459   0.322   3.641   3.295 -1.8486  1.7831  0.3686
 6165TIP3    H218460   0.175   3.607   3.276 -0.8464 -2.1399 -1.1393
 6166TIP3   OH218461   3.653   4.313   1.800  0.5057 -0.1474  0.2929
 6166TIP3    H118462   3.639   4.229   1.757  0.4413  0.6511 -1.3238
 6166TIP3    H218463   3.741   4.339   1.773 -0.5076  1.5746 -1.5647
 6167TIP3   OH218464   0.409   6.043   3.476 -0.4514  0.2848 -0.4427
 6167TIP3    H118465   0.424   6.047   3.570 -0.8713 -1.1300 -0.2851
 6167TIP3    H218466   0.491   6.007   3.440 -1.2053 -1.7365 -0.2715
 6168TIP3   OH218467   4.039   5.725   0.612  0.1914  0.0593  0.4874
 6168TIP3    H118468   4.106   5.697   0.674  0.4156 -1.5765 -0.4447
 6168TIP3    H218469   4.087   5.771   0.543  0.4138 -1.2482 -0.2598
 6169TIP3   OH218470   1.016   6.505   2.024 -0.5270 -0.2874  0.0103
 6169TIP3    H118471   0.942   6.474   2.077 -1.1833  0.4962 -0.4349
 6169TIP3    H218472   0.984   6.504   1.934 -0.2646  0.8060 -0.1070
 6170TIP3   OH218473   3.226   5.132   2.058 -0.5694 -0.1319  0.0279
 6170TIP3    H118474   3.297   5.095   2.006 -1.2952 -0.0754 -1.0382
 6170TIP3    H218475   3.171   5.178   1.994 -1.6022 -0.2327  0.8139
 6171TIP3   OH218476   2.761   5.142   1.227 -0.0382  0.1719  0.1321
 6171TIP3    H118477   2.674   5.118   1.197  0.6053 -0.2265 -1.5171
 6171TIP3    H218478   2.804   5.179   1.150  1.0704  0.8843  1.0552
 6172TIP3   OH218479   0.538   3.002   3.976  0.3507 -0.6443  0.3244
 6172TIP3    H118480   0.490   2.953   4.042  0.4723 -0.3139  0.6574
 6172TIP3    H218481   0.503   3.091   3.981  0.7327 -0.4900  0.3118
 6173TIP3   OH218482   1.329   4.299   3.977 -0.1278  0.2422 -0.4028
 6173TIP3    H118483   1.298   4.282   3.888 -2.4737  1.0447  0.1771
 6173TIP3    H218484   1.394   4.369   3.966 -1.0321  0.9597 -1.4246
 6174TIP3   OH218485   5.558   4.055   2.552  0.2473  0.4522  0.1797
 6174TIP3    H118486   5.571   4.145   2.522 -1.7218  0.8598  0.3721
 6174TIP3    H218487   5.490   4.062   2.619 -0.5466 -1.2686 -0.3939
 6175TIP3   OH218488   4.268   6.656   4.221  0.1043  0.1392  0.2457
 6175TIP3    H118489   4.186   6.606   4.219  0.7620 -0.9785 -0.3210
 6175TIP3    H218490   4.273   6.692   4.310 -0.6740 -0.3478  0.4919
 6176TIP3   OH218491   1.044   6.590   5.239 -0.5676 -0.2260  0.4913
 6176TIP3    H118492   1.032   6.564   5.330 -2.0206  0.0553  0.4076
 6176TIP3    H218493   0.975   6.544   5.192  0.1112 -0.2969 -0.4635
 6177TIP3   OH218494   2.600   5.848   3.603  0.3461 -0.0899 -0.9732
 6177TIP3    H118495   2.622   5.768   3.651  0.2185 -0.4104 -1.4496
 6177TIP3    H218496   2.504   5.849   3.600  0.3378  0.2563 -0.6779
 6178TIP3   OH218497   1.142   6.015   0.881 -0.4792 -0.7730 -0.3279
 6178TIP3    H118498   1.073   6.069   0.843  0.7782 -1.0961 -3.3187
 6178TIP3    H218499   1.095   5.946   0.929 -2.1560  0.2800 -0.3701
 6179TIP3   OH218500   4.212   4.060   1.564 -0.3124  0.9903  0.4793
 6179TIP3    H118501   4.234   4.058   1.471 -1.7738 -0.0654  0.1193
 6179TIP3    H218502   4.154   3.985   1.577  0.3220  0.7657  2.3758
 6180TIP3   OH218503   2.041   4.568   3.392 -0.4930 -0.3697  0.3673
 6180TIP3    H118504   1.968   4.529   3.344 -0.0917  1.5190 -1.9824
 6180TIP3    H218505   1.999   4.624   3.458 -1.3944  1.9887 -2.0063
 6181TIP3   OH218506   1.838   4.219   4.621 -0.1689 -0.2905  0.2622
 6181TIP3    H118507   1.872   4.293   4.671 -1.7107  1.4484 -1.0998
 6181TIP3    H218508   1.851   4.244   4.529  0.6217 -2.3993 -0.2527
 6182TIP3   OH218509   5.021   2.389   4.418 -0.1179 -0.4317  0.4341
 6182TIP3    H118510   5.013   2.330   4.343  1.3288  2.1118 -1.9352
 6182TIP3    H218511   4.959   2.355   4.482 -1.0649 -3.0803 -1.6992
 6183TIP3   OH218512   4.025   1.953   3.404  0.4683  0.5160  0.3049
 6183TIP3    H118513   4.112   1.987   3.382  0.6534 -1.3211 -2.3251
 6183TIP3    H218514   3.969   1.984   3.334 -0.0576 -1.6460 -0.3030
 6184TIP3   OH218515   1.212   3.465   4.463  0.4551  0.1213 -0.2751
 6184TIP3    H118516   1.143   3.483   4.527 -0.4356  1.2782 -1.5037
 6184TIP3    H218517   1.285   3.432   4.515 -0.7122 -0.2726  1.1638
 6185TIP3   OH218518   5.984   4.135   0.298  0.3071  0.2610 -0.0860
 6185TIP3    H118519   5.997   4.220   0.338 -0.4437 -0.2965  1.4476
 6185TIP3    H218520   6.052   4.128   0.231  0.9080  1.6976  0.3494
 6186TIP3   OH218521   0.793   5.219   4.081 -0.1215  0.2704  0.3983
 6186TIP3    H118522   0.732   5.186   4.147 -0.8181  0.6953 -0.0115
 6186TIP3    H218523   0.843   5.286   4.126 -0.6379  0.6032  0.4935
 6187TIP3   OH218524   4.672   5.396   1.563  0.0622 -0.3402 -0.1244
 6187TIP3    H118525   4.592   5.449   1.567  1.5159  1.9638  0.9622
 6187TIP3    H218526   4.642   5.306   1.575 -2.3855  0.3927 -0.1699
 6188TIP3   OH218527   4.767   1.888   0.027 -0.2341 -0.0861  0.2684
 6188TIP3    H118528   4.806   1.822   0.084 -0.2116  0.9307  1.4558
 6188TIP3    H218529   4.685   1.912   0.070 -0.3147  0.5705 -0.2224
 6189TIP3   OH218530   6.612   4.551   1.293  0.3618 -0.3961  0.3695
 6189TIP3    H118531   6.598   4.616   1.361 -1.3630  0.8370 -1.0509
 6189TIP3    H218532   6.641   4.601   1.217 -0.1365 -1.3673 -0.4914
 6190TIP3   OH218533   4.535   2.416   1.585 -0.2228 -0.1025  0.7085
 6190TIP3    H118534   4.458   2.369   1.614 -0.9733 -0.2443 -1.3408
 6190TIP3    H218535   4.609   2.362   1.614 -0.9054 -0.4358  1.8764
 6191TIP3   OH218536   4.545   5.223   5.280 -0.6378  0.1664 -0.4417
 6191TIP3    H118537   4.584   5.275   5.350  2.1745  0.1095 -1.8413
 6191TIP3    H218538   4.547   5.133   5.313 -1.1932  0.3568  0.1458
 6192TIP3   OH218539   1.038   5.616   1.754 -0.1202 -0.1023 -0.0264
 6192TIP3    H118540   0.971   5.679   1.726 -0.2015 -0.6101 -0.9969
 6192TIP3    H218541   1.118   5.668   1.760 -0.4829  0.4084  0.6752
 6193TIP3   OH218542   4.144   0.062   0.291  0.2626  0.4799 -0.1330
 6193TIP3    H118543   4.063   0.103   0.261  1.6776  1.9649 -2.2272
 6193TIP3    H218544   4.170   0.115   0.367 -0.9410 -0.3480  0.9034
 6194TIP3   OH218545   6.570   5.900   2.662  0.3208  0.4801  0.1388
 6194TIP3    H118546   6.558   5.859   2.576 -0.8200  1.7146 -0.3457
 6194TIP3    H218547   6.515   5.978   2.658  0.9717  1.0530  1.6779
 6195TIP3   OH218548   7.089   6.163   0.501  0.1165 -0.0646  0.8015
 6195TIP3    H118549   7.013   6.133   0.451  0.2107 -0.7229  1.0366
 6195TIP3    H218550   7.143   6.209   0.438 -0.5738  0.5978  0.6735
 6196TIP3   OH218551   2.107   4.557   2.359 -0.1437 -0.8177 -0.0622
 6196TIP3    H118552   2.145   4.629   2.308 -0.8191 -0.5579 -0.2239
 6196TIP3    H218553   2.130   4.478   2.310  1.3377 -0.8113  0.5701
 6197TIP3   OH218554   1.203   4.901   0.702 -0.5366  0.6910 -0.0696
 6197TIP3    H118555   1.115   4.867   0.681 -1.3364  2.6960 -0.2292
 6197TIP3    H218556   1.249   4.827   0.741 -2.2784 -0.4434 -0.0582
 6198TIP3   OH218557   3.489   2.222   1.605 -0.3913  0.4684 -0.4613
 6198TIP3    H118558   3.429   2.287   1.571 -3.8752 -1.3695  1.5632
 6198TIP3    H218559   3.512   2.168   1.530 -1.8623  0.8519 -1.2237
 6199TIP3   OH218560   5.465   2.881   4.519 -0.8756  0.1094  0.8487
 6199TIP3    H118561   5.508   2.894   4.435 -3.0128  1.5059 -0.1107
 6199TIP3    H218562   5.536   2.889   4.583  0.8296 -1.1208 -0.7624
 6200TIP3   OH218563   0.728   4.520   3.568  0.7108  0.3011 -0.5514
 6200TIP3    H118564   0.644   4.507   3.525  0.0671 -1.6643  1.1548
 6200TIP3    H218565   0.726   4.461   3.644  3.6901  0.0636 -0.5514
 6201TIP3   OH218566   6.087   3.387   4.648  0.5394 -0.5345 -0.3412
 6201TIP3    H118567   6.040   3.388   4.565  0.5373  1.2049 -0.3483
 6201TIP3    H218568   6.161   3.328   4.633 -0.8517 -2.2673 -0.7361
 6202TIP3   OH218569   4.435   6.185   0.009 -0.4478 -0.3768  0.0520
 6202TIP3    H118570   4.462   6.094  -0.003  0.3503 -0.0538 -0.7713
 6202TIP3    H218571   4.503   6.222   0.066  0.5722  0.2762 -1.5054
 6203TIP3   OH218572   7.064   5.280   3.565  0.1468 -0.0926 -0.0886
 6203TIP3    H118573   7.130   5.216   3.540 -0.3278 -0.4850 -0.3439
 6203TIP3    H218574   7.114   5.361   3.578  0.8194 -0.6221  0.7354
 6204TIP3   OH218575   5.718   5.826   4.181  0.3849  0.5210  0.1181
 6204TIP3    H118576   5.683   5.909   4.213 -0.2324  0.6689 -0.9087
 6204TIP3    H218577   5.641   5.773   4.164  0.7919 -0.5859  1.5536
 6205TIP3   OH218578   5.086   5.902   3.166  0.1577  0.0880 -0.1202
 6205TIP3    H118579   5.113   5.956   3.240 -1.4626  0.0706  0.5220
 6205TIP3    H218580   5.049   5.964   3.103 -1.5670 -0.2001  0.5547
 6206TIP3   OH218581   3.014   2.512   5.864 -0.2339 -0.1438  0.2884
 6206TIP3    H118582   3.021   2.478   5.775 -0.1199 -2.7852  1.2218
 6206TIP3    H218583   2.930   2.559   5.865 -0.3247 -0.2249 -1.1518
 6207TIP3   OH218584   3.125   4.650   5.502 -0.0286 -0.2557  0.0052
 6207TIP3    H118585   3.096   4.695   5.581  0.0909 -0.6750  0.2872
 6207TIP3    H218586   3.105   4.711   5.431  0.6291  0.4621  0.4339
 6208TIP3   OH218587   5.758   3.950   5.150 -0.2365  0.4855  0.2366
 6208TIP3    H118588   5.675   3.906   5.128  0.2257 -0.5328  0.5178
 6208TIP3    H218589   5.795   3.972   5.064  0.4175 -1.3603  0.0024
 6209TIP3   OH218590   6.072   0.013   5.408 -0.2666 -0.4785  0.4103
 6209TIP3    H118591   6.093   0.101   5.438  1.0168 -0.1614 -1.2467
 6209TIP3    H218592   5.977   0.013   5.398 -0.3866  0.3537  1.4328
 6210TIP3   OH218593   3.285   1.055   1.781 -0.0610 -0.0912  0.0350
 6210TIP3    H118594   3.308   1.059   1.874  1.9855  0.7471 -0.4437
 6210TIP3    H218595   3.291   0.962   1.759  2.5685 -0.0142  0.0997
 6211TIP3   OH218596   0.708   3.775   2.283  0.1538  0.2526 -0.0258
 6211TIP3    H118597   0.790   3.749   2.240 -1.5588  0.0765 -3.5824
 6211TIP3    H218598   0.679   3.695   2.328 -0.1817 -1.1603 -2.5427
 6212TIP3   OH218599   2.669   3.596   3.066 -0.2190 -0.4303  0.4903
 6212TIP3    H118600   2.714   3.543   3.132  0.9465 -1.8909 -1.3687
 6212TIP3    H218601   2.711   3.682   3.072  0.4197 -0.7718  1.1159
 6213TIP3   OH218602   3.935   0.683   3.617  0.1721 -0.3802  0.3650
 6213TIP3    H118603   3.857   0.729   3.647 -0.1190 -0.8600  0.3642
 6213TIP3    H218604   4.002   0.706   3.681  0.6753  1.8588 -0.8590
 6214TIP3   OH218605   4.497   3.597   1.289  0.2772  0.1409  0.3872
 6214TIP3    H118606   4.437   3.523   1.296  0.9996 -0.3722  1.3199
 6214TIP3    H218607   4.492   3.623   1.196 -0.3410 -0.7626  0.1565
 6215TIP3   OH218608   0.718   2.022   2.621 -0.1179  0.0645 -0.2835
 6215TIP3    H118609   0.722   2.042   2.714 -1.9120 -0.8394  0.0513
 6215TIP3    H218610   0.770   2.090   2.578 -0.6321  1.4813  1.2461
 6216TIP3   OH218611   2.449   0.749   3.272 -0.0554 -0.2282 -0.2796
 6216TIP3    H118612   2.509   0.811   3.314 -0.0768  0.9273 -1.8855
 6216TIP3    H218613   2.463   0.761   3.178 -2.1879 -0.5404 -0.6916
 6217TIP3   OH218614   2.114   3.958   1.644  0.1721  0.2070 -0.1608
 6217TIP3    H118615   2.063   4.026   1.689  1.6353  1.1774  0.1334
 6217TIP3    H218616   2.113   3.984   1.552 -0.2909 -0.0640 -0.2324
 6218TIP3   OH218617   6.240   4.601   0.893  0.1234  0.0381  0.6429
 6218TIP3    H118618   6.240   4.551   0.811 -1.4070  0.1003  0.5881
 6218TIP3    H218619   6.271   4.538   0.959  3.0244  0.4367 -0.1792
 6219TIP3   OH218620   7.028   1.227   0.281  0.1075  0.3641 -0.0030
 6219TIP3    H118621   7.073   1.150   0.246 -0.1392 -0.2624  1.0166
 6219TIP3    H218622   7.096   1.294   0.286  0.3617  0.1785 -0.7592
 6220TIP3   OH218623   3.624   1.520   3.171 -0.1462  0.5481  0.0111
 6220TIP3    H118624   3.570   1.550   3.244 -0.1138  0.4687  0.0681
 6220TIP3    H218625   3.685   1.457   3.211  0.4400  1.1417  0.0734
 6221TIP3   OH218626   0.519   3.981   3.478  0.0961 -0.4907 -0.2788
 6221TIP3    H118627   0.599   3.936   3.452  1.2225  0.6765  1.0469
 6221TIP3    H218628   0.483   3.927   3.549  1.0991  0.2740  0.8604
 6222TIP3   OH218629   3.233   1.873   2.759 -0.0823  0.6825  0.0456
 6222TIP3    H118630   3.159   1.854   2.702 -1.0128  1.0537  1.1051
 6222TIP3    H218631   3.261   1.787   2.792 -1.0564  0.6844  0.8848
 6223TIP3   OH218632   3.420   0.608   3.145  0.0522 -0.0554  0.3724
 6223TIP3    H118633   3.447   0.668   3.075  1.3939  0.5114  1.3159
 6223TIP3    H218634   3.435   0.521   3.109 -0.8408  0.1778 -0.6158
 6224TIP3   OH218635   5.048   4.656   2.485  0.3734 -0.1865  0.2194
 6224TIP3    H118636   4.974   4.683   2.539 -0.1552 -1.5519  0.2233
 6224TIP3    H218637   5.110   4.729   2.490 -0.8527  0.8669  0.4293
 6225TIP3   OH218638   5.455   2.776   2.588 -0.4156  0.0511  0.3095
 6225TIP3    H118639   5.478   2.691   2.626 -0.4167  0.4773  1.2979
 6225TIP3    H218640   5.362   2.770   2.569 -0.3672 -0.2453  0.1688
 6226TIP3   OH218641   5.322   2.906   3.803 -0.1254  0.0457  0.1527
 6226TIP3    H118642   5.407   2.912   3.759 -0.3141  0.2239 -0.1916
 6226TIP3    H218643   5.336   2.950   3.887  0.2248 -0.2543  0.2535
 6227TIP3   OH218644   6.215   2.457   4.615  0.2617 -0.0818  0.8839
 6227TIP3    H118645   6.273   2.500   4.552 -0.9977  0.2813 -0.0724
 6227TIP3    H218646   6.249   2.368   4.623 -0.0334 -0.3912 -0.9588
 6228TIP3   OH218647   0.042   4.394   4.837  0.3011 -0.3488 -0.1639
 6228TIP3    H118648  -0.025   4.367   4.774  0.2159 -0.1813 -0.1466
 6228TIP3    H218649   0.061   4.315   4.887  0.3780 -0.4859 -0.4068
 6229TIP3   OH218650   3.484   0.457   2.095  0.4875 -0.2572 -0.0533
 6229TIP3    H118651   3.456   0.426   2.009  1.7450  1.2953 -1.0770
 6229TIP3    H218652   3.491   0.377   2.148 -1.4327 -1.1205 -1.0166
 6230TIP3   OH218653   3.558   3.539   2.065 -0.4618 -0.1575  0.3895
 6230TIP3    H118654   3.507   3.468   2.105 -1.3220  1.5573  2.5703
 6230TIP3    H218655   3.646   3.527   2.100 -0.6660 -0.0480  0.9654
 6231TIP3   OH218656   2.628   3.965   2.021  0.3991 -0.6146 -0.0379
 6231TIP3    H118657   2.558   4.029   2.030 -0.8208 -1.9535  0.3711
 6231TIP3    H218658   2.687   3.982   2.095 -0.9507 -1.1884  1.2125
 6232TIP3   OH218659   5.114   1.588   2.299 -0.5497  0.8688  0.3662
 6232TIP3    H118660   5.130   1.671   2.254 -0.6312 -0.0045 -1.3430
 6232TIP3    H218661   5.019   1.585   2.310 -0.9848 -0.4366 -2.6541
 6233TIP3   OH218662   6.943   5.929   4.962  0.0014  0.1499 -0.1259
 6233TIP3    H118663   7.028   5.970   4.978  0.2885 -1.1559  2.1360
 6233TIP3    H218664   6.884   6.001   4.944  1.1172  1.2733  0.5734
 6234TIP3   OH218665   3.423   1.207   1.399 -0.3616  0.8404 -0.4506
 6234TIP3    H118666   3.474   1.266   1.343 -1.1710  0.9588 -1.0857
 6234TIP3    H218667   3.480   1.190   1.474  1.3927 -0.5056 -1.9651
 6235TIP3   OH218668   5.644   5.049   1.370  0.2664 -0.2978  0.1326
 6235TIP3    H118669   5.699   4.988   1.322  0.1764  0.9876 -1.7369
 6235TIP3    H218670   5.567   4.998   1.394 -0.1070 -0.8236 -1.9575
 6236TIP3   OH218671   3.318   5.438   1.530 -0.2639 -0.8915  0.1260
 6236TIP3    H118672   3.291   5.530   1.535 -0.9519 -0.9662 -1.5647
 6236TIP3    H218673   3.371   5.424   1.609  1.3552  1.4418 -0.4496
 6237TIP3   OH218674   7.217   1.065   3.564 -0.0373 -0.3098 -0.1330
 6237TIP3    H118675   7.187   0.975   3.578  1.1258 -0.7077 -0.1141
 6237TIP3    H218676   7.146   1.119   3.600 -1.1695 -1.1805 -0.9802
 6238TIP3   OH218677   2.734   5.591   4.221  0.6610  0.6793 -0.0653
 6238TIP3    H118678   2.721   5.685   4.216  1.5535  0.7617 -1.4908
 6238TIP3    H218679   2.760   5.566   4.132  4.6148 -0.2408  1.1835
 6239TIP3   OH218680   4.613   3.241   5.379  0.1085  0.3238  0.1325
 6239TIP3    H118681   4.545   3.307   5.393  0.8829  0.9514  1.1357
 6239TIP3    H218682   4.693   3.292   5.363  0.6512 -0.3663  0.5930
 6240TIP3   OH218683   6.714   6.487   1.222  0.8075  0.3321 -0.0767
 6240TIP3    H118684   6.805   6.515   1.221  1.4123 -1.5052  0.0482
 6240TIP3    H218685   6.700   6.448   1.136  0.4389 -0.3010  0.2658
 6241TIP3   OH218686   5.743   2.732   3.547  0.0702 -0.5193  0.3915
 6241TIP3    H118687   5.768   2.763   3.634 -1.1122  0.2788  0.4689
 6241TIP3    H218688   5.823   2.740   3.495  1.2269 -2.4493  1.7426
 6242TIP3   OH218689   0.362   0.796   0.250 -0.7177 -0.1637 -0.2077
 6242TIP3    H118690   0.380   0.734   0.320  1.5711 -0.9362 -1.3831
 6242TIP3    H218691   0.351   0.880   0.295  2.6215 -0.2533  1.0617
 6243TIP3   OH218692   4.952   1.951   4.656 -0.2387  0.3311  0.2420
 6243TIP3    H118693   5.019   1.891   4.689 -0.6416  0.3802  1.1805
 6243TIP3    H218694   4.906   1.901   4.588  0.9195  0.3987 -0.6101
 6244TIP3   OH218695   0.536   0.793   1.956 -0.3453  0.2023 -0.3168
 6244TIP3    H118696   0.598   0.800   1.884 -1.7187  0.3719 -1.5230
 6244TIP3    H218697   0.464   0.851   1.932  0.2681  2.2782  2.4318
 6245TIP3   OH218698   0.677   0.678   2.823 -0.1146  0.4446  0.2414
 6245TIP3    H118699   0.694   0.713   2.910 -1.1803  1.0489  0.2241
 6245TIP3    H218700   0.610   0.612   2.836  0.5947 -0.3384  0.0267
 6246TIP3   OH218701   0.919   3.957   5.847  0.1860  0.6648 -0.4832
 6246TIP3    H118702   0.885   3.906   5.774 -1.2678  1.4551 -0.4032
 6246TIP3    H218703   0.991   3.905   5.882  0.8959  0.2378 -2.4271
 6247TIP3   OH218704   6.339   4.299   1.490  0.5975  0.4781  0.2717
 6247TIP3    H118705   6.416   4.310   1.433  0.8903 -0.3538  0.4874
 6247TIP3    H218706   6.269   4.273   1.430  0.7159  0.3470  0.1895
 6248TIP3   OH218707   4.317   0.386   1.268 -0.3399  0.1740 -0.1019
 6248TIP3    H118708   4.224   0.375   1.247  0.1163 -0.6554 -1.8300
 6248TIP3    H218709   4.351   0.438   1.196  0.7639 -0.4685 -0.0572
 6249TIP3   OH218710   3.902   1.746   0.038 -1.1228 -0.2684  0.1659
 6249TIP3    H118711   3.907   1.749  -0.058  0.1306  2.0819  0.2336
 6249TIP3    H218712   3.838   1.812   0.061  0.4340  1.0308  0.9881
 6250TIP3   OH218713   5.471   3.240   0.153  0.2861 -0.0765  0.2707
 6250TIP3    H118714   5.447   3.185   0.079  0.1413  0.6347 -0.2200
 6250TIP3    H218715   5.475   3.329   0.117  2.8860 -0.0316  0.4874
 6251TIP3   OH218716   0.723   0.988   3.735  0.3274  0.2250  0.1039
 6251TIP3    H118717   0.647   0.938   3.704  0.5854 -0.8711  1.1502
 6251TIP3    H218718   0.694   1.026   3.818  1.8023 -2.9249  2.3161
 6252TIP3   OH218719   0.122   1.699   4.686 -0.6566  0.3262  0.0289
 6252TIP3    H118720   0.095   1.784   4.721 -2.2448 -0.7451  1.5960
 6252TIP3    H218721   0.042   1.645   4.689  1.2139 -2.7650  3.9489
 6253TIP3   OH218722   6.704   0.044   4.436  0.0796 -0.6445 -0.7006
 6253TIP3    H118723   6.793   0.030   4.468  0.4307 -2.0466 -2.1471
 6253TIP3    H218724   6.653   0.061   4.514  1.8657  1.8019  0.0435
 6254TIP3   OH218725   6.158   1.284   0.596  0.8895  0.1376  0.1977
 6254TIP3    H118726   6.068   1.266   0.623  1.1715  0.4903  1.4095
 6254TIP3    H218727   6.152   1.365   0.545  0.3174 -0.6775 -1.0849
 6255TIP3   OH218728   4.867   1.016   4.546 -0.0502  0.3292  0.2055
 6255TIP3    H118729   4.933   0.974   4.601 -0.0780  0.9289  0.7056
 6255TIP3    H218730   4.814   1.068   4.606 -0.3150  0.7000 -0.3334
 6256TIP3   OH218731   2.211   5.029   3.852 -0.4621 -0.1231 -0.5371
 6256TIP3    H118732   2.146   5.098   3.866 -2.2234 -1.6952 -0.5496
 6256TIP3    H218733   2.159   4.950   3.833  1.3971 -1.7137  0.5734
 6257TIP3   OH218734   3.723   4.500   3.103 -0.2258 -0.1739  0.5160
 6257TIP3    H118735   3.809   4.538   3.087  0.0320 -0.7472  0.5528
 6257TIP3    H218736   3.710   4.438   3.031  0.4512 -1.9248  1.8686
 6258TIP3   OH218737   7.090   0.830   3.575  0.2867 -0.1526 -0.3977
 6258TIP3    H118738   7.035   0.800   3.504 -0.3666  1.2998 -0.5435
 6258TIP3    H218739   7.135   0.751   3.606 -1.6009 -1.3275 -0.4876
 6259TIP3   OH218740   0.900   6.373   0.323 -0.1922  0.1532  0.3052
 6259TIP3    H118741   0.854   6.378   0.238  0.1102  1.8091  0.1996
 6259TIP3    H218742   0.933   6.283   0.327 -0.6424 -0.1078 -1.1095
 6260TIP3   OH218743   3.450   3.060   3.288 -0.2167  0.3015  0.0329
 6260TIP3    H118744   3.516   3.103   3.342 -0.3398  1.8985 -1.0211
 6260TIP3    H218745   3.369   3.069   3.338  0.2570 -1.4316  1.2092
 6261TIP3   OH218746   5.633   6.209   0.404  0.2252 -0.4675  0.5592
 6261TIP3    H118747   5.635   6.192   0.310  0.0734 -0.6313  0.5849
 6261TIP3    H218748   5.548   6.175   0.433  1.5177 -3.4061  1.3071
 6262TIP3   OH218749   0.682   3.598   2.845 -0.3372  0.4149 -0.3757
 6262TIP3    H118750   0.761   3.556   2.811 -0.4084 -0.9238  0.9890
 6262TIP3    H218751   0.711   3.681   2.881  0.0109  1.0706 -2.0448
 6263TIP3   OH218752   1.958   0.054   2.222  0.1644 -0.2979  0.1477
 6263TIP3    H118753   1.974  -0.026   2.272 -0.3904 -0.4319  0.1100
 6263TIP3    H218754   1.959   0.124   2.287 -1.3639 -0.5555  0.4760
 6264TIP3   OH218755   6.084   1.910   5.352  0.7149  0.1955 -0.1102
 6264TIP3    H118756   6.127   1.921   5.437  1.8159  0.7425 -0.7265
 6264TIP3    H218757   6.028   1.987   5.343  0.5948  0.1361  0.1027
 6265TIP3   OH218758   4.185   2.645   3.267 -0.2659  0.1125 -0.4739
 6265TIP3    H118759   4.193   2.628   3.361  1.8262 -0.4077 -0.6986
 6265TIP3    H218760   4.158   2.737   3.261 -1.1774 -0.0690  0.6329
 6266TIP3   OH218761   1.122   4.930   1.487 -0.7113  0.0062 -0.3204
 6266TIP3    H118762   1.114   5.025   1.494 -0.4374  0.1192 -1.3274
 6266TIP3    H218763   1.044   4.903   1.438 -0.8057 -0.2956 -0.0076
 6267TIP3   OH218764   4.773   6.447   3.908 -0.5273 -0.3365 -0.2984
 6267TIP3    H118765   4.685   6.436   3.943 -1.3831 -0.2116 -2.2483
 6267TIP3    H218766   4.767   6.526   3.853  0.8680 -0.1866 -0.2652
 6268TIP3   OH218767   6.731   1.836   5.232  0.8438 -0.0405 -0.1139
 6268TIP3    H118768   6.737   1.912   5.175  0.0422  0.7012  0.7630
 6268TIP3    H218769   6.651   1.792   5.204  1.2082 -0.4822 -0.4953
 6269TIP3   OH218770   6.232   2.447   1.317  0.0205  0.4982  0.4777
 6269TIP3    H118771   6.314   2.426   1.361  0.8362  0.8768 -0.8066
 6269TIP3    H218772   6.258   2.470   1.228 -1.6364 -0.9760 -0.4439
 6270TIP3   OH218773   0.631   6.012   3.808  0.2629  0.3665  0.3013
 6270TIP3    H118774   0.706   6.050   3.762  0.4630  1.3170  1.3723
 6270TIP3    H218775   0.564   6.081   3.804  0.3671  0.5616  1.6198
 6271TIP3   OH218776   0.698   0.777   5.705 -0.0717  0.2922  0.0769
 6271TIP3    H118777   0.655   0.832   5.770  0.7961  0.5534  0.4444
 6271TIP3    H218778   0.742   0.838   5.646  1.4201  0.0102  0.8487
 6272TIP3   OH218779   0.649   6.567   5.162  0.5995  0.0573  0.4218
 6272TIP3    H118780   0.704   6.490   5.176  0.8422  0.0194 -0.6511
 6272TIP3    H218781   0.566   6.532   5.132  0.0831  0.1351  1.6957
 6273TIP3   OH218782   0.048   1.931   4.453 -0.4353  0.0509  0.0548
 6273TIP3    H118783   0.019   1.899   4.539 -1.4208  1.2461  0.1888
 6273TIP3    H218784   0.119   1.991   4.473 -0.5336  0.1795  0.0150
 6274TIP3   OH218785   5.956   0.099   1.251 -0.0722  0.4707  0.1080
 6274TIP3    H118786   5.949   0.006   1.228 -1.0275  0.5525  0.0476
 6274TIP3    H218787   5.988   0.141   1.171 -0.2226  0.2786 -0.0547
 6275TIP3   OH218788   2.064   0.662   1.055  0.0050  0.2101 -0.0860
 6275TIP3    H118789   2.096   0.633   1.140 -0.6054  1.3203  0.5406
 6275TIP3    H218790   2.127   0.627   0.992  0.3129 -0.8560  0.7894
 6276TIP3   OH218791   0.539   2.765   2.344 -0.2511 -0.0530 -0.4686
 6276TIP3    H118792   0.459   2.795   2.387  0.7993  0.3476  1.2814
 6276TIP3    H218793   0.596   2.736   2.415  1.4314  0.3044 -1.6088
 6277TIP3   OH218794   1.027   1.270   3.267 -0.1078  0.2837  0.5732
 6277TIP3    H118795   1.075   1.240   3.190  0.9524  0.0327  1.3158
 6277TIP3    H218796   0.996   1.190   3.309 -1.0347  0.4346  0.2064
 6278TIP3   OH218797   1.896   6.432   3.089  0.3476  0.4345 -0.1782
 6278TIP3    H118798   1.815   6.475   3.115 -0.1255 -0.5589  0.0277
 6278TIP3    H218799   1.913   6.463   3.000  0.4167  1.6055  0.2355
 6279TIP3   OH218800   1.236   6.280   0.526  0.3312 -0.2170 -0.1668
 6279TIP3    H118801   1.306   6.271   0.461 -0.2615  2.2834 -1.3013
 6279TIP3    H218802   1.214   6.374   0.524 -1.3301 -0.4876  1.9726
 6280TIP3   OH218803   1.376   4.880   5.087 -0.1274  0.0678 -0.2047
 6280TIP3    H118804   1.438   4.939   5.129  1.8939 -1.0274 -1.5196
 6280TIP3    H218805   1.293   4.928   5.088  1.0075  2.1260  0.4626
 6281TIP3   OH218806   6.778   4.789   2.116  0.1777  0.1512 -0.1951
 6281TIP3    H118807   6.708   4.730   2.140 -0.5063  1.0447  0.0454
 6281TIP3    H218808   6.812   4.822   2.199  0.3021  0.3832 -0.3360
 6282TIP3   OH218809   2.580   2.708   2.488 -0.1138 -0.7366  0.3194
 6282TIP3    H118810   2.636   2.771   2.442 -2.2673  0.4198 -0.8525
 6282TIP3    H218811   2.587   2.733   2.580 -2.0740  2.3184 -0.2362
 6283TIP3   OH218812   3.371   2.900   4.565 -0.0463  0.2210  0.1586
 6283TIP3    H118813   3.351   2.812   4.530 -3.9779  0.7011  0.7151
 6283TIP3    H218814   3.365   2.889   4.660 -2.5729  1.3216  0.2135
 6284TIP3   OH218815   2.439   5.396   4.980  0.2121 -0.1801 -0.2942
 6284TIP3    H118816   2.451   5.469   5.041 -0.6063 -0.7124  0.5153
 6284TIP3    H218817   2.516   5.401   4.922  0.2822  1.1788 -0.1158
 6285TIP3   OH218818   5.388   2.636   3.788  0.2123  1.1207  0.3432
 6285TIP3    H118819   5.353   2.586   3.863 -0.3580  1.3271  0.2157
 6285TIP3    H218820   5.349   2.722   3.796  0.5598  1.3032  0.0949
 6286TIP3   OH218821   3.713   3.970   4.566 -0.3990 -0.1270 -0.5246
 6286TIP3    H118822   3.736   4.047   4.619 -0.6277  0.5891 -1.4360
 6286TIP3    H218823   3.759   3.897   4.609 -0.3970  0.4613  0.5173
 6287TIP3   OH218824   6.521   3.205   3.689 -0.2397  0.2687  0.1803
 6287TIP3    H118825   6.577   3.153   3.746 -0.0378 -0.6464 -0.8244
 6287TIP3    H218826   6.435   3.202   3.731 -0.3586 -1.3377 -0.1266
 6288TIP3   OH218827   0.693   0.662   5.184  0.3179  0.3883 -0.0861
 6288TIP3    H118828   0.786   0.667   5.206  0.5934 -1.6649 -0.5662
 6288TIP3    H218829   0.691   0.613   5.101 -1.3078 -2.3543  1.4294
 6289TIP3   OH218830   0.873   3.943   3.048 -0.6072 -0.6469  0.5277
 6289TIP3    H118831   0.894   3.871   2.988  0.9231  0.4613 -0.3232
 6289TIP3    H218832   0.955   3.990   3.059 -1.0501 -0.3001  2.8460
 6290TIP3   OH218833   5.237   5.031   4.957 -0.1723  0.1945  0.1314
 6290TIP3    H118834   5.231   5.105   5.018  1.8952  2.2471 -1.8975
 6290TIP3    H218835   5.182   5.057   4.883 -0.3612 -0.8829 -0.1209
 6291TIP3   OH218836   6.414   3.093   0.535 -0.9666 -0.2146 -0.4217
 6291TIP3    H118837   6.394   3.185   0.513 -1.5275  0.1776  1.4941
 6291TIP3    H218838   6.328   3.054   0.550 -0.7166 -1.0346 -1.0898
 6292TIP3   OH218839   0.958   1.692   0.516 -0.1806 -0.1405 -0.4262
 6292TIP3    H118840   0.868   1.680   0.483 -0.2696  2.0739 -1.1862
 6292TIP3    H218841   0.976   1.785   0.503  1.4679 -0.0714  1.7469
 6293TIP3   OH218842   3.077   4.236   5.008  0.2658 -0.0767 -0.6125
 6293TIP3    H118843   3.144   4.220   5.074 -0.7652  1.9686  1.0878
 6293TIP3    H218844   3.045   4.150   4.984  0.2231 -0.9014  2.1168
 6294TIP3   OH218845   1.485   3.443   3.789  0.2004  0.1303  0.0704
 6294TIP3    H118846   1.442   3.380   3.731 -1.4311  1.1407  0.1451
 6294TIP3    H218847   1.554   3.482   3.735  0.7384 -1.1417 -0.2084
 6295TIP3   OH218848   2.942   3.862   2.645  0.1737 -0.1821  0.2027
 6295TIP3    H118849   2.986   3.777   2.646  0.6848  0.0711 -0.0466
 6295TIP3    H218850   2.894   3.866   2.728  1.3576 -0.0897  0.9037
 6296TIP3   OH218851   6.720   2.055   5.095 -0.3535 -0.8201  0.4650
 6296TIP3    H118852   6.633   2.036   5.060 -0.4739  0.7413 -0.1734
 6296TIP3    H218853   6.752   2.128   5.042  0.8931 -0.6530  1.3960
 6297TIP3   OH218854   5.909   0.273   1.442  0.2575  0.2785 -0.6756
 6297TIP3    H118855   5.857   0.225   1.506  0.5863  1.8392  0.8668
 6297TIP3    H218856   5.939   0.207   1.380 -0.6772 -1.1954  0.3777
 6298TIP3   OH218857   0.316   5.061   2.005  0.2274 -0.6962 -0.3981
 6298TIP3    H118858   0.231   5.036   1.968  0.9241 -1.8666 -1.2827
 6298TIP3    H218859   0.377   5.050   1.933  1.3977 -1.5578  0.6933
 6299TIP3   OH218860   2.331   2.314   1.357  0.0091  0.4037 -0.3173
 6299TIP3    H118861   2.335   2.291   1.264 -0.7098  0.2923 -0.3285
 6299TIP3    H218862   2.245   2.355   1.368  0.7077  1.8695 -0.0135
 6300TIP3   OH218863   5.008   6.606   3.561  0.3783 -0.2229 -0.0505
 6300TIP3    H118864   5.023   6.622   3.468  1.7188 -0.4073  0.1151
 6300TIP3    H218865   5.067   6.667   3.605  0.4498 -0.7891  0.6577
 6301TIP3   OH218866   2.975   5.670   5.036 -0.6282  0.3012  0.0851
 6301TIP3    H118867   2.918   5.720   5.094 -0.4267 -0.5493  1.0510
 6301TIP3    H218868   3.033   5.622   5.095 -2.0227 -2.5626 -0.6570
 6302TIP3   OH218869   0.937   4.157   4.906  0.6963  0.0469 -0.0237
 6302TIP3    H118870   0.892   4.223   4.854  0.8290 -0.1436 -0.3786
 6302TIP3    H218871   0.975   4.097   4.842  0.9409 -0.1336  0.2888
 6303TIP3   OH218872   3.133   2.616   1.347  0.0039  0.4277  0.4213
 6303TIP3    H118873   3.115   2.644   1.257  3.0725  0.6832 -0.2487
 6303TIP3    H218874   3.051   2.630   1.394 -1.1623  2.0836 -1.9073
 6304TIP3   OH218875   0.156   4.939   5.085 -0.1674  0.3301 -0.0079
 6304TIP3    H118876   0.104   4.863   5.109 -2.3303  1.3614 -1.1005
 6304TIP3    H218877   0.188   4.920   4.997  4.8635 -1.9725  1.9163
 6305TIP3   OH218878   6.874   5.794   1.888  0.1243 -0.0565 -0.2493
 6305TIP3    H118879   6.869   5.730   1.818  0.3917  0.6102 -0.8966
 6305TIP3    H218880   6.878   5.743   1.969 -1.7055 -0.8358 -0.6031
 6306TIP3   OH218881   6.829   4.913   5.845  0.1228  0.2823 -0.1075
 6306TIP3    H118882   6.751   4.926   5.900 -0.5451 -0.8355 -0.7453
 6306TIP3    H218883   6.871   4.835   5.880 -0.0640 -0.1839 -0.8868
 6307TIP3   OH218884   1.250   0.744   1.025 -0.1231 -0.1228  0.2801
 6307TIP3    H118885   1.174   0.797   1.047  0.4640  0.0291  2.0757
 6307TIP3    H218886   1.231   0.658   1.063 -0.0991 -0.5898 -0.7094
 6308TIP3   OH218887   4.940   0.080   5.427  0.2278 -0.2611 -0.1834
 6308TIP3    H118888   4.878   0.126   5.370 -1.5376  0.5534  2.2320
 6308TIP3    H218889   4.900  -0.007   5.438  1.2429 -0.8793 -1.1559
 6309TIP3   OH218890   3.119   1.841   3.182  0.4687  0.1234  0.6437
 6309TIP3    H118891   3.044   1.866   3.236  0.1826  1.8370 -0.4689
 6309TIP3    H218892   3.086   1.771   3.126  0.3964 -0.7609  1.7602
 6310TIP3   OH218893   1.706   3.042   4.231  0.5248 -0.0919  0.0867
 6310TIP3    H118894   1.649   2.966   4.244  0.4789 -0.4174 -1.7000
 6310TIP3    H218895   1.646   3.117   4.232  0.2150 -0.3180 -0.4748
 6311TIP3   OH218896   3.489   0.239   3.586 -0.4278  0.1770  0.4093
 6311TIP3    H118897   3.421   0.243   3.519 -1.0436 -0.1329  0.9980
 6311TIP3    H218898   3.452   0.285   3.661  0.8677  1.9082  0.0470
 6312TIP3   OH218899   3.357   5.088   5.900 -0.0925  0.1110  0.5002
 6312TIP3    H118900   3.408   5.155   5.946 -0.8583  2.3217 -1.6255
 6312TIP3    H218901   3.389   5.091   5.810 -1.2540 -1.2921 -0.0125
 6313TIP3   OH218902   4.942   0.669   2.231 -0.5226  0.9470  0.6843
 6313TIP3    H118903   5.003   0.737   2.202  0.4794 -0.1191  0.2095
 6313TIP3    H218904   4.968   0.651   2.322 -1.1040  1.5180  0.9736
 6314TIP3   OH218905   1.856   1.757   1.242 -0.4552  0.3559 -0.3491
 6314TIP3    H118906   1.766   1.724   1.238 -0.6199  0.3653  2.0956
 6314TIP3    H218907   1.847   1.852   1.239 -0.3083  0.3633 -2.3424
 6315TIP3   OH218908   2.417   4.100   4.256  0.4299 -0.1331  0.0255
 6315TIP3    H118909   2.508   4.124   4.244  0.5908  0.1037  1.4747
 6315TIP3    H218910   2.406   4.095   4.351 -1.0285 -0.2932 -0.1225
 6316TIP3   OH218911   0.989   2.824   0.135  0.1423 -0.0152 -0.0635
 6316TIP3    H118912   1.001   2.860   0.223  3.2818 -0.1732 -0.3186
 6316TIP3    H218913   0.982   2.901   0.079  1.3633  0.1718  0.0089
 6317TIP3   OH218914   2.288   4.836   0.586 -0.0167  0.0379 -0.0591
 6317TIP3    H118915   2.259   4.918   0.546  0.7482 -0.1521 -1.0471
 6317TIP3    H218916   2.207   4.797   0.621 -0.8183  0.0494 -1.7599
 6318TIP3   OH218917   0.921   2.950   0.397 -0.3194 -0.7300  0.2158
 6318TIP3    H118918   0.829   2.952   0.425 -0.0203 -1.9379  1.4134
 6318TIP3    H218919   0.962   3.019   0.449 -0.7259  0.5934 -1.1528
 6319TIP3   OH218920   3.357   5.733   5.858 -0.3554 -0.5469  0.5816
 6319TIP3    H118921   3.377   5.827   5.850 -2.0210 -0.2265 -0.6272
 6319TIP3    H218922   3.270   5.725   5.817 -0.1900 -2.6437  0.5720
 6320TIP3   OH218923   4.701   1.818   4.579 -0.0144  0.3236 -0.1582
 6320TIP3    H118924   4.675   1.816   4.671  3.0688  0.9471  0.8642
 6320TIP3    H218925   4.700   1.727   4.551 -0.4791  0.0726  0.6580
 6321TIP3   OH218926   3.017   2.561   3.862 -0.3399 -0.4176 -0.0832
 6321TIP3    H118927   3.029   2.582   3.955 -3.4369  0.3026  0.2804
 6321TIP3    H218928   3.019   2.645   3.818 -1.4405 -0.4702 -0.2657
 6322TIP3   OH218929   3.966   0.706   2.803  0.1653 -0.0757  0.2927
 6322TIP3    H118930   4.025   0.778   2.823  1.5940 -1.0526 -0.2058
 6322TIP3    H218931   4.024   0.634   2.777 -1.2783 -0.8158 -1.0855
 6323TIP3   OH218932   4.644   2.301   2.776 -0.2251 -0.1859  0.0449
 6323TIP3    H118933   4.727   2.327   2.816  0.1174 -1.2577  0.0751
 6323TIP3    H218934   4.584   2.290   2.850 -0.1969 -0.0771  0.0831
 6324TIP3   OH218935   6.740   1.756   3.717  0.6119 -0.7295 -0.4619
 6324TIP3    H118936   6.805   1.691   3.691 -1.5062 -2.7439 -1.0413
 6324TIP3    H218937   6.684   1.710   3.779  0.0643  1.1227  0.4751
 6325TIP3   OH218938   5.237   4.423   0.202  0.2739 -0.1751  0.3918
 6325TIP3    H118939   5.281   4.493   0.250 -0.4068  0.3394  0.2880
 6325TIP3    H218940   5.300   4.351   0.201  0.7585  0.2282  1.0080
 6326TIP3   OH218941   5.880   6.534   0.529  0.1614 -0.1795 -0.0262
 6326TIP3    H118942   5.826   6.462   0.496 -0.0531 -0.3342  0.6351
 6326TIP3    H218943   5.820   6.583   0.586  0.8915 -0.7395  1.2583
 6327TIP3   OH218944   0.353   5.098   3.726 -0.1018 -0.4337 -0.4764
 6327TIP3    H118945   0.382   5.070   3.639  0.1005 -2.8442  0.2920
 6327TIP3    H218946   0.264   5.130   3.713  0.3565  0.3865 -1.7399
 6328TIP3   OH218947   7.157   3.592   4.784  0.5241 -0.2254 -0.3016
 6328TIP3    H118948   7.077   3.541   4.772 -0.0331  0.4787  0.3580
 6328TIP3    H218949   7.198   3.553   4.861 -1.1322  1.7937  1.7333
 6329TIP3   OH218950   4.081   3.061   3.505  0.0122 -0.0542 -0.0637
 6329TIP3    H118951   4.147   3.064   3.436  1.1160  1.3113  0.9896
 6329TIP3    H218952   4.021   3.132   3.485 -0.0690 -0.1057 -0.0057
 6330TIP3   OH218953   5.239   2.672   5.472  0.2877  1.7113  0.2876
 6330TIP3    H118954   5.197   2.590   5.498 -1.4510  2.1237 -1.0581
 6330TIP3    H218955   5.168   2.726   5.438  1.8210  2.7219 -1.4730
 6331TIP3   OH218956   4.491   4.918   3.572  0.3305 -0.0554  0.4932
 6331TIP3    H118957   4.545   4.898   3.496  2.1698  1.5840  1.2755
 6331TIP3    H218958   4.474   5.012   3.566 -0.8180 -0.1797  1.3174
 6332TIP3   OH218959   0.912   2.969   1.699  0.8158 -0.0040 -0.1050
 6332TIP3    H118960   0.908   2.961   1.794  1.2789  1.4726  0.0488
 6332TIP3    H218961   0.827   3.006   1.674 -0.2244 -2.4529 -0.5448
 6333TIP3   OH218962   6.104   6.101   5.557  0.1246 -0.0362 -0.2552
 6333TIP3    H118963   6.051   6.054   5.493  0.3305  0.5132 -0.8415
 6333TIP3    H218964   6.176   6.040   5.577  0.0838 -0.1949 -0.5792
 6334TIP3   OH218965   6.919   0.575   5.250 -0.2195 -0.6283 -0.2061
 6334TIP3    H118966   6.951   0.512   5.185  2.5882  2.8932 -2.5971
 6334TIP3    H218967   6.834   0.604   5.217 -0.5341 -1.5476 -0.2285
 6335TIP3   OH218968   0.419   0.132   0.353 -0.1651  0.0237  0.0261
 6335TIP3    H118969   0.459   0.189   0.419  0.2914  0.1390 -0.3486
 6335TIP3    H218970   0.334   0.108   0.391  0.0292  0.2104  0.5887
 6336TIP3   OH218971   6.743   5.959   2.857  0.3559 -0.2417 -0.4581
 6336TIP3    H118972   6.820   5.970   2.801  0.1542 -1.8203 -1.0900
 6336TIP3    H218973   6.672   5.938   2.796 -0.4935  0.7587  0.1595
 6337TIP3   OH218974   4.760   4.748   0.978  0.9530 -0.6046 -0.0652
 6337TIP3    H118975   4.793   4.714   0.895  1.2766 -1.6241  0.4786
 6337TIP3    H218976   4.673   4.710   0.987  0.5802  0.1520 -0.3119
 6338TIP3   OH218977   4.504   5.233   5.021 -0.3701 -0.2368 -0.2710
 6338TIP3    H118978   4.597   5.256   5.012 -0.7503  1.5444 -0.1716
 6338TIP3    H218979   4.499   5.189   5.106  0.3592 -0.1273 -0.1582
 6339TIP3   OH218980   1.638   4.308   2.211 -0.0668  0.4190  0.2028
 6339TIP3    H118981   1.580   4.295   2.286  1.1936 -0.2714  1.1035
 6339TIP3    H218982   1.601   4.253   2.142 -0.2249 -0.3906  0.9123
 6340TIP3   OH218983   0.569   2.278   0.645  0.2138  0.2897  0.9753
 6340TIP3    H118984   0.485   2.321   0.665  0.0059  0.0325  0.6645
 6340TIP3    H218985   0.561   2.253   0.553  0.4218 -0.2144  1.0941
 6341TIP3   OH218986   4.618   2.134   5.512 -0.2216 -0.1406  0.5004
 6341TIP3    H118987   4.588   2.216   5.473 -1.6780 -2.4243 -3.8724
 6341TIP3    H218988   4.547   2.109   5.572 -1.2125  0.3960 -0.4087
 6342TIP3   OH218989   2.782   4.514   0.991 -0.3764  0.1572  0.2326
 6342TIP3    H118990   2.838   4.477   1.060  1.0727  1.2896 -0.2764
 6342TIP3    H218991   2.725   4.575   1.037 -2.2990 -2.0408  0.9733
 6343TIP3   OH218992   4.136   3.694   0.725  0.2975  0.0319  0.7587
 6343TIP3    H118993   4.175   3.609   0.747  0.4981  0.5375  2.5086
 6343TIP3    H218994   4.183   3.722   0.646  2.1788 -0.2404  1.7360
 6344TIP3   OH218995   0.223   3.241   2.880 -0.2490 -0.2934  0.5660
 6344TIP3    H118996   0.228   3.292   2.799 -2.0073 -0.7904  0.0834
 6344TIP3    H218997   0.149   3.280   2.928  0.3747 -0.4113  1.6493
 6345TIP3   OH218998   1.545   6.429   5.301  0.1201  0.0205 -0.0565
 6345TIP3    H118999   1.607   6.493   5.267 -0.5794  0.4313 -0.5880
 6345TIP3    H219000   1.475   6.426   5.237 -1.2177  0.7821  1.3060
 6346TIP3   OH219001   6.883   4.747   1.496  0.1387  0.4508  0.1820
 6346TIP3    H119002   6.799   4.738   1.541 -0.3605  0.0004 -0.8107
 6346TIP3    H219003   6.878   4.832   1.453 -0.5856 -0.3649 -1.4053
 6347TIP3   OH219004   6.043   0.261   5.538  0.2746  0.4618 -0.8151
 6347TIP3    H119005   5.970   0.219   5.584 -0.5059  1.6573 -0.9044
 6347TIP3    H219006   6.075   0.328   5.599  0.9936  0.2522 -0.9619
 6348TIP3   OH219007   2.782   1.632   0.056 -0.2989 -0.3055 -0.1926
 6348TIP3    H119008   2.728   1.588  -0.010  0.4795 -1.0311 -0.3560
 6348TIP3    H219009   2.830   1.699   0.007 -1.2002  0.5076 -0.0066
 6349TIP3   OH219010   4.464   2.950   3.159 -0.3733  0.5683  0.1663
 6349TIP3    H119011   4.483   2.885   3.226 -0.6615  0.1365 -0.1698
 6349TIP3    H219012   4.396   3.005   3.199  0.1712  0.9294  0.6111
 6350TIP3   OH219013   4.715   0.772   1.686  0.3158 -0.1514 -0.2984
 6350TIP3    H119014   4.776   0.736   1.751  0.0106 -1.0639 -0.5000
 6350TIP3    H219015   4.720   0.867   1.699  0.3739 -0.3015  0.9613
 6351TIP3   OH219016   0.474   2.223   0.384  0.4759 -0.9709 -0.0780
 6351TIP3    H119017   0.516   2.157   0.330 -0.4246 -1.1387 -0.5967
 6351TIP3    H219018   0.386   2.188   0.400 -0.1065  0.2177 -0.5867
 6352TIP3   OH219019   5.095   0.451   4.566 -0.3652  0.2369  0.6342
 6352TIP3    H119020   5.188   0.474   4.566  0.8437 -3.7136 -1.2919
 6352TIP3    H219021   5.061   0.488   4.485 -0.0725  0.4698  0.6152
 6353TIP3   OH219022   1.322   3.914   3.747  0.2489  0.2240 -0.3378
 6353TIP3    H119023   1.286   3.963   3.673 -0.1438  2.3374  1.1496
 6353TIP3    H219024   1.415   3.933   3.746  0.3792 -0.4080 -0.7369
 6354TIP3   OH219025   6.415   2.843   2.442  0.0185  0.1268  0.0578
 6354TIP3    H119026   6.432   2.925   2.488 -0.4651  0.9256 -1.1428
 6354TIP3    H219027   6.493   2.827   2.389 -0.5381  0.7262 -0.9905
 6355TIP3   OH219028   0.155   4.173   2.990  0.2667 -0.1952 -0.0906
 6355TIP3    H119029   0.249   4.158   2.992  0.1464 -0.9814 -0.1568
 6355TIP3    H219030   0.125   4.134   2.908  0.0848  1.3511 -0.7867
 6356TIP3   OH219031   2.004   0.939   1.093 -0.4514 -0.6693  0.2977
 6356TIP3    H119032   1.979   0.853   1.061 -0.6579 -1.2518  1.9031
 6356TIP3    H219033   1.991   0.998   1.019  0.1100 -2.0754 -0.9595
 6357TIP3   OH219034   1.043   0.989   5.720  0.0080 -0.3990 -0.1220
 6357TIP3    H119035   0.960   1.013   5.679  0.2889 -0.8444 -0.9700
 6357TIP3    H219036   1.048   0.894   5.709  1.4868 -0.1707 -1.7340
 6358TIP3   OH219037   4.449   2.965   3.856  0.1549  0.1750 -0.0058
 6358TIP3    H119038   4.504   2.958   3.778 -0.0019  0.4999 -0.1467
 6358TIP3    H219039   4.360   2.979   3.821  0.2453  1.4434  0.2367
 6359TIP3   OH219040   2.335   2.599   0.907  0.2054  0.5914  0.1052
 6359TIP3    H119041   2.314   2.506   0.907 -1.9563  0.9963 -1.0829
 6359TIP3    H219042   2.395   2.610   0.833 -0.7712  0.3485 -0.7402
 6360TIP3   OH219043   4.111   3.707   1.167  0.1053  0.1511  0.0112
 6360TIP3    H119044   4.039   3.649   1.145 -0.8243  1.0504  0.5476
 6360TIP3    H219045   4.114   3.706   1.263  1.2975 -0.4361 -0.0159
 6361TIP3   OH219046   2.707   1.002   4.147 -0.3679  0.2914 -0.0694
 6361TIP3    H119047   2.677   1.092   4.159 -0.4847  0.2689 -0.1985
 6361TIP3    H219048   2.737   0.976   4.234 -1.3320  0.0862  0.2073
 6362TIP3   OH219049   1.632   5.703   1.116 -0.1587  0.1721  0.3143
 6362TIP3    H119050   1.620   5.749   1.200 -0.8731  0.6735 -0.0517
 6362TIP3    H219051   1.691   5.760   1.066 -0.3952  0.2889  0.1668
 6363TIP3   OH219052   1.451   1.169   3.070 -0.5118  0.6086  0.4680
 6363TIP3    H119053   1.408   1.163   2.985 -1.1211  1.8316  0.6673
 6363TIP3    H219054   1.394   1.119   3.129 -1.9791  2.5877  0.8200
 6364TIP3   OH219055   5.810   4.047   3.405  0.3973  0.0949 -0.3891
 6364TIP3    H119056   5.806   3.958   3.370  0.0700  0.6157 -1.7718
 6364TIP3    H219057   5.819   4.036   3.499  1.6663 -1.4108 -0.6461
 6365TIP3   OH219058   5.400   0.411   5.328 -0.5143  0.2162 -0.3596
 6365TIP3    H119059   5.467   0.378   5.268 -1.5750 -2.0432 -0.3939
 6365TIP3    H219060   5.427   0.380   5.414 -1.4998 -0.7919 -0.3863
 6366TIP3   OH219061   3.465   0.545   5.101  0.6086  0.3011 -0.0733
 6366TIP3    H119062   3.531   0.481   5.074  1.2586 -0.1109  2.3100
 6366TIP3    H219063   3.506   0.594   5.172 -1.6830 -0.1204  1.6673
 6367TIP3   OH219064   2.052   6.262   0.469 -0.2551 -0.3470 -0.0059
 6367TIP3    H119065   2.009   6.250   0.553  1.2975  2.2661  1.3038
 6367TIP3    H219066   2.006   6.337   0.430 -0.0399 -0.6371 -0.8285
 6368TIP3   OH219067   1.370   5.529   2.156 -0.0181  0.0727  0.0049
 6368TIP3    H119068   1.421   5.509   2.235 -1.1965  2.1303  1.3889
 6368TIP3    H219069   1.295   5.579   2.189 -1.4458 -0.4396 -2.2694
 6369TIP3   OH219070   6.876   1.815   0.437  0.4443 -0.2750  0.4077
 6369TIP3    H119071   6.797   1.815   0.383  1.6901  0.0669 -1.4847
 6369TIP3    H219072   6.867   1.736   0.492 -0.0038 -1.7285 -1.6399
 6370TIP3   OH219073   4.345   1.038   2.571 -0.1253  0.4431  0.3910
 6370TIP3    H119074   4.414   1.069   2.630  0.3766 -0.6562  0.4087
 6370TIP3    H219075   4.305   0.964   2.617 -1.4583  1.1725  0.4611
 6371TIP3   OH219076   6.921   3.502   2.927  0.5482  0.4098 -0.6559
 6371TIP3    H119077   6.881   3.517   3.013  1.9225  0.4607  0.0074
 6371TIP3    H219078   6.984   3.432   2.942  2.1378  1.6655 -1.1661
 6372TIP3   OH219079   1.080   1.132   1.262  0.0672  0.2281 -0.4842
 6372TIP3    H119080   1.082   1.147   1.357 -1.3301  0.9686 -0.5340
 6372TIP3    H219081   1.030   1.207   1.228  1.1657  0.3503 -1.8921
 6373TIP3   OH219082   0.087   5.626   5.421  0.5915  0.1864 -0.5572
 6373TIP3    H119083   0.141   5.548   5.425 -1.2767 -1.1706 -0.2185
 6373TIP3    H219084   0.002   5.598   5.455  0.3873  2.8889  1.4699
 6374TIP3   OH219085   1.315   2.310   0.908 -0.1827 -0.2750  0.1300
 6374TIP3    H119086   1.364   2.366   0.968  0.4809  0.4061 -0.9940
 6374TIP3    H219087   1.278   2.241   0.963 -0.9858  1.2334  1.5389
 6375TIP3   OH219088   1.737   0.450   0.761 -0.0716  0.2222 -0.7274
 6375TIP3    H119089   1.760   0.494   0.843 -0.0858 -0.3491 -0.4135
 6375TIP3    H219090   1.683   0.513   0.715  0.5855  0.8610 -0.6506
 6376TIP3   OH219091   1.464   1.980   4.757  0.1601  0.0271 -0.1721
 6376TIP3    H119092   1.544   2.027   4.736  0.8277  0.4162  2.7603
 6376TIP3    H219093   1.488   1.887   4.752  0.0715  0.0642 -1.6485
 6377TIP3   OH219094   6.057   4.964   2.912  0.1013 -0.4912 -0.5299
 6377TIP3    H119095   6.145   4.983   2.944 -0.2041 -1.5092  1.0469
 6377TIP3    H219096   6.063   4.876   2.875 -0.4128 -0.8681  0.2697
 6378TIP3   OH219097   0.456   0.822   3.720  0.5853 -0.2536 -0.8372
 6378TIP3    H119098   0.452   0.731   3.688  2.0342 -0.1461 -1.4253
 6378TIP3    H219099   0.443   0.875   3.642  1.8351  0.0185 -0.8888
 6379TIP3   OH219100   0.978   6.222   5.372  0.0893  0.3286 -0.1028
 6379TIP3    H119101   1.058   6.175   5.395  0.7115  1.4919  0.2102
 6379TIP3    H219102   0.994   6.312   5.403 -1.7892  0.3161  0.9917
 6380TIP3   OH219103   2.835   5.551   3.554 -0.2608  0.3307  0.5885
 6380TIP3    H119104   2.893   5.628   3.550  1.3317 -0.8661 -0.4831
 6380TIP3    H219105   2.788   5.552   3.471  0.9334 -0.6882 -0.1285
 6381TIP3   OH219106   2.372   3.669   0.517  0.2288  0.2625  0.2855
 6381TIP3    H119107   2.333   3.621   0.444  1.5050 -1.8212  0.8558
 6381TIP3    H219108   2.431   3.605   0.558  0.8601  1.8979  2.0838
 6382TIP3   OH219109   1.469   2.393   1.773 -0.2590  0.0709  0.5763
 6382TIP3    H119110   1.538   2.327   1.784 -0.2842  0.0991  0.9067
 6382TIP3    H219111   1.415   2.359   1.702  1.2674  1.0389 -1.1398
 6383TIP3   OH219112   2.954   3.365   3.053 -0.3150  0.2291  0.0814
 6383TIP3    H119113   3.012   3.297   3.020 -0.6193  0.3159 -0.6511
 6383TIP3    H219114   2.931   3.417   2.975  3.4701  4.0110  1.0879
 6384TIP3   OH219115   6.760   1.631   2.358 -0.0176  0.3384 -0.2100
 6384TIP3    H119116   6.792   1.698   2.296  0.3333  0.6393  0.2881
 6384TIP3    H219117   6.821   1.637   2.432  0.0654 -0.5966 -0.2006
 6385TIP3   OH219118   6.366   4.339   4.501  0.1411 -0.5743  0.8535
 6385TIP3    H119119   6.310   4.403   4.457 -0.0218 -0.1774  1.6267
 6385TIP3    H219120   6.363   4.262   4.444  2.1318  0.8098 -1.2959
 6386TIP3   OH219121   2.182   0.089   5.371  0.4684  0.5430 -0.0446
 6386TIP3    H119122   2.142   0.002   5.366  0.0978  0.7206 -0.2241
 6386TIP3    H219123   2.271   0.073   5.404  0.3578  0.1119  0.0506
 6387TIP3   OH219124   2.372   6.013   0.488  0.1296 -0.4049 -0.5035
 6387TIP3    H119125   2.335   6.034   0.574 -0.2287 -0.9966 -0.5091
 6387TIP3    H219126   2.434   6.084   0.471  0.3634 -0.3889  0.3449
 6388TIP3   OH219127   6.490   2.440   1.382  0.4493 -0.6049  0.0216
 6388TIP3    H119128   6.568   2.494   1.394 -0.5836  0.7154  1.2737
 6388TIP3    H219129   6.522   2.350   1.377  2.1185 -0.0032 -0.6745
 6389TIP3   OH219130   5.056   0.419   1.980 -0.4079  0.0869  0.1189
 6389TIP3    H119131   5.044   0.325   1.973  1.5707 -0.1405 -0.7829
 6389TIP3    H219132   5.099   0.432   2.064  0.4595  0.0421 -0.3102
 6390TIP3   OH219133   1.468   1.875   4.371 -0.5459 -0.4379 -0.2987
 6390TIP3    H119134   1.470   1.780   4.382 -0.8395 -0.3153  0.9519
 6390TIP3    H219135   1.383   1.901   4.407 -0.9226  0.1922 -1.6159
 6391TIP3   OH219136   0.946   3.872   0.861 -0.2771 -0.0682  0.4095
 6391TIP3    H119137   0.998   3.949   0.839  0.2833 -0.9872 -1.7664
 6391TIP3    H219138   0.995   3.829   0.930  0.3567  0.5701  0.3723
 6392TIP3   OH219139   4.652   3.211   5.815 -0.1096 -0.4125 -0.6442
 6392TIP3    H119140   4.568   3.168   5.798  1.0270 -2.6137 -1.0808
 6392TIP3    H219141   4.686   3.166   5.893  1.0045 -0.0785 -0.9219
 6393TIP3   OH219142   5.750   3.592   3.030  0.5928 -0.4736 -0.1195
 6393TIP3    H119143   5.844   3.609   3.031  1.0080 -2.4610  1.5424
 6393TIP3    H219144   5.740   3.509   2.985 -0.4830  0.0696 -0.9426
 6394TIP3   OH219145   1.270   1.998   0.062 -0.1515 -0.0061 -0.0979
 6394TIP3    H119146   1.296   1.997   0.154  1.5114 -1.0645 -0.5377
 6394TIP3    H219147   1.176   1.978   0.063  0.1947 -1.7901  1.2832
 6395TIP3   OH219148   0.367   1.993   1.178  0.3186  0.0266  0.0677
 6395TIP3    H119149   0.460   1.973   1.176  0.2543 -0.6686 -3.7128
 6395TIP3    H219150   0.357   2.066   1.117 -1.4072  1.8410  2.3106
 6396TIP3   OH219151   6.837   5.733   2.291 -0.5128  0.2187  0.4172
 6396TIP3    H119152   6.860   5.674   2.220 -1.2031  0.1509  0.2414
 6396TIP3    H219153   6.812   5.675   2.363  0.3322  0.2847  0.7757
 6397TIP3   OH219154   3.188   1.263   0.823  0.1513  0.5115 -0.1523
 6397TIP3    H119155   3.160   1.172   0.834 -0.0253  0.3365 -1.8182
 6397TIP3    H219156   3.118   1.314   0.863 -0.5525 -0.0563 -0.6259
 6398TIP3   OH219157   3.055   5.659   1.300 -0.0266 -0.3046  0.1313
 6398TIP3    H119158   2.976   5.606   1.305 -0.2005  0.0380  1.4818
 6398TIP3    H219159   3.027   5.740   1.257 -0.8120  0.4397  1.9330
 6399TIP3   OH219160   4.130   0.813   3.770  0.6235  0.1416 -0.2073
 6399TIP3    H119161   4.126   0.777   3.859  1.3704  1.5800  0.4305
 6399TIP3    H219162   4.189   0.753   3.724 -0.5777 -1.2111 -0.0468
 6400TIP3   OH219163   5.862   4.320   2.349 -0.4092 -0.4439  0.1314
 6400TIP3    H119164   5.911   4.255   2.399 -1.0479  0.7511  2.4551
 6400TIP3    H219165   5.903   4.320   2.262  1.6332 -1.6910  1.0289
 6401TIP3   OH219166   2.454   0.293   0.766  0.1562 -0.2842 -0.0429
 6401TIP3    H119167   2.517   0.228   0.737 -1.8169 -2.2871 -0.1384
 6401TIP3    H219168   2.425   0.337   0.686  3.0610  2.3924  0.2111
 6402TIP3   OH219169   6.326   3.931   3.355 -0.2868 -0.0913  0.2385
 6402TIP3    H119170   6.407   3.973   3.386  0.7469 -1.2438 -0.7880
 6402TIP3    H219171   6.354   3.878   3.280 -1.9128 -0.9535  0.2032
 6403TIP3   OH219172   6.487   4.302   1.280  0.6312 -0.3687  0.3492
 6403TIP3    H119173   6.415   4.319   1.220  0.6685 -0.8769  0.1544
 6403TIP3    H219174   6.544   4.379   1.273  0.7770 -0.5452 -0.4732
 6404TIP3   OH219175   5.314   3.911   2.232  0.3494 -0.2324  0.1739
 6404TIP3    H119176   5.260   3.871   2.163  1.9546  0.8355 -1.8259
 6404TIP3    H219177   5.399   3.867   2.223  0.7058  0.2067  1.2482
 6405TIP3   OH219178   0.067   5.873   0.357 -0.1810 -0.1854 -0.0192
 6405TIP3    H119179   0.156   5.897   0.384  0.6284 -1.5588 -1.3006
 6405TIP3    H219180   0.050   5.926   0.279 -0.8069  0.6300  0.6570
 6406TIP3   OH219181   5.995   1.795   4.158  0.4925  0.0277  0.1170
 6406TIP3    H119182   5.993   1.774   4.064 -0.5556 -0.4914  0.2451
 6406TIP3    H219183   6.076   1.754   4.189 -0.5997 -2.3970 -0.0034
 6407TIP3   OH219184   3.149   1.331   4.311 -0.5134 -0.5159  0.5983
 6407TIP3    H119185   3.061   1.370   4.314 -0.9727 -1.2822 -1.2943
 6407TIP3    H219186   3.187   1.364   4.229  0.5265 -1.0770  0.8382
 6408TIP3   OH219187   2.096   1.376   5.314  0.9438  0.1022 -0.2783
 6408TIP3    H119188   2.011   1.346   5.347  1.3784 -1.4465 -0.4906
 6408TIP3    H219189   2.074   1.432   5.239  0.0827  0.9467  0.5697
 6409TIP3   OH219190   2.361   5.793   5.820  0.5269  1.0354  0.5302
 6409TIP3    H119191   2.435   5.822   5.768  0.7510  2.2703  1.4838
 6409TIP3    H219192   2.380   5.701   5.841  0.0391  0.2493 -2.1631
 6410TIP3   OH219193   6.966   4.793   5.584 -0.3044  0.4200 -0.2083
 6410TIP3    H119194   6.926   4.816   5.668  1.7089 -1.1649  1.3161
 6410TIP3    H219195   6.964   4.697   5.583 -0.0310  0.4103 -1.8487
 6411TIP3   OH219196   5.224   2.064   1.075 -0.2980 -0.3032  0.2824
 6411TIP3    H119197   5.168   1.992   1.045 -1.2333  0.4359  0.2011
 6411TIP3    H219198   5.313   2.035   1.055 -0.8213  0.2787 -3.5988
 6412TIP3   OH219199   4.254   2.258   1.189 -0.6138 -0.3488  0.3416
 6412TIP3    H119200   4.277   2.232   1.100 -0.3691  0.2236  0.2307
 6412TIP3    H219201   4.254   2.354   1.186 -2.0803 -0.3252  0.5891
 6413TIP3   OH219202   5.272   5.942   5.124 -0.3252 -0.2379  0.3249
 6413TIP3    H119203   5.322   5.957   5.043 -1.3654 -1.4884 -0.6093
 6413TIP3    H219204   5.183   5.973   5.103 -0.2121  1.0306  1.6078
 6414TIP3   OH219205   0.841   0.389   5.119 -0.1617 -0.1829 -0.1022
 6414TIP3    H119206   0.795   0.373   5.201 -0.4345 -0.2574 -0.2669
 6414TIP3    H219207   0.783   0.352   5.052 -1.0965  1.9761 -0.5523
 6415TIP3   OH219208   5.503   0.260   3.950 -0.3207  0.0418 -0.2438
 6415TIP3    H119209   5.523   0.350   3.926 -0.3294  0.2611  0.5473
 6415TIP3    H219210   5.587   0.222   3.974 -0.5437  0.4011  1.2254
 6416TIP3   OH219211   3.907   5.031   2.799 -0.3175 -0.6816  0.0823
 6416TIP3    H119212   3.834   5.021   2.859 -1.7830 -0.7407 -1.6485
 6416TIP3    H219213   3.935   4.942   2.780  0.9297 -0.6406  1.5279
 6417TIP3   OH219214   3.283   6.637   3.488  0.0772  0.0624 -0.3744
 6417TIP3    H119215   3.240   6.722   3.487  0.4942  0.2742 -1.4843
 6417TIP3    H219216   3.369   6.655   3.526  1.0309  0.6161 -2.6137
 6418TIP3   OH219217   3.874   5.482   1.388  0.3270  0.2393 -0.0339
 6418TIP3    H119218   3.918   5.505   1.469 -1.3945 -0.7010  1.2409
 6418TIP3    H219219   3.851   5.390   1.399 -0.1022  0.1403 -1.5319
 6419TIP3   OH219220   2.915   1.456   2.665  0.3191 -0.0212  0.0785
 6419TIP3    H119221   2.824   1.442   2.692 -0.5096  1.3077 -1.7628
 6419TIP3    H219222   2.929   1.550   2.677  0.6034  0.2409 -1.9376
 6420TIP3   OH219223   2.158   6.760   5.206  0.0906 -0.1672 -0.0359
 6420TIP3    H119224   2.160   6.775   5.301 -0.2508 -1.9376  0.2806
 6420TIP3    H219225   2.077   6.803   5.177  0.5589  1.0115  0.3276
 6421TIP3   OH219226   4.218   1.927   1.183 -0.6615 -0.3934  0.6519
 6421TIP3    H119227   4.257   1.984   1.250  0.1214 -0.6580  0.4228
 6421TIP3    H219228   4.138   1.973   1.157 -0.5034  0.1612  1.1173
 6422TIP3   OH219229   5.931   3.963   4.903 -0.8518 -0.4243  0.0648
 6422TIP3    H119230   5.964   3.935   4.818 -1.0208  1.0333 -0.5230
 6422TIP3    H219231   5.911   4.056   4.891  0.4552  0.1866  2.1070
 6423TIP3   OH219232   3.299   6.129   0.794 -0.0711 -0.1441 -1.0261
 6423TIP3    H119233   3.270   6.039   0.810  0.9955 -0.6877 -1.9813
 6423TIP3    H219234   3.383   6.135   0.839 -0.7119  0.8006  0.1097
 6424TIP3   OH219235   4.500   0.086   4.480  0.3597 -0.3982  0.0537
 6424TIP3    H119236   4.508   0.175   4.513  1.1131 -0.5047  0.1770
 6424TIP3    H219237   4.519   0.030   4.556  1.6286 -0.6452 -0.4155
 6425TIP3   OH219238   3.840   5.857   3.534 -0.1050  0.0370  0.2849
 6425TIP3    H119239   3.912   5.921   3.535 -0.3974  0.4576 -1.9171
 6425TIP3    H219240   3.770   5.900   3.486  0.4256 -2.6014 -3.2654
 6426TIP3   OH219241   6.830   2.533   0.244  0.1012 -0.4886  0.5651
 6426TIP3    H119242   6.861   2.444   0.260 -0.6351 -0.8670 -0.0788
 6426TIP3    H219243   6.810   2.535   0.151 -0.4107  0.1848  0.6833
 6427TIP3   OH219244   7.172   0.704   2.809  0.3622  0.4062 -0.1085
 6427TIP3    H119245   7.201   0.691   2.899 -0.6516  2.8606  0.6476
 6427TIP3    H219246   7.244   0.670   2.756  1.4145 -0.1956  1.6191
 6428TIP3   OH219247   1.086   6.050   2.112  0.1920 -0.4444  0.3945
 6428TIP3    H119248   1.097   6.142   2.132 -0.1156 -0.6062  1.3619
 6428TIP3    H219249   1.174   6.013   2.117  0.8015  0.2744 -2.7803
 6429TIP3   OH219250   6.913   4.805   2.514  0.3870  0.2818 -0.0002
 6429TIP3    H119251   6.881   4.821   2.602 -1.4925 -1.0916 -0.3953
 6429TIP3    H219252   6.909   4.710   2.502 -1.2022  0.5389 -2.1756
 6430TIP3   OH219253   4.725   5.342   0.159 -0.5044 -0.2191 -0.3506
 6430TIP3    H119254   4.676   5.286   0.099  0.1202 -0.0120 -1.0763
 6430TIP3    H219255   4.732   5.291   0.240 -0.7396 -0.7972 -0.6916
 6431TIP3   OH219256   2.008   1.677   0.426 -0.0171  0.3464  0.2302
 6431TIP3    H119257   2.044   1.631   0.351  0.1464 -1.6969  1.4947
 6431TIP3    H219258   1.941   1.735   0.389  0.6239  0.0073 -1.5488
 6432TIP3   OH219259   5.529   5.699   1.938 -0.1105  0.2565  0.2949
 6432TIP3    H119260   5.461   5.677   1.874 -0.0093 -0.8463  0.5416
 6432TIP3    H219261   5.515   5.637   2.010  1.7844 -0.6870 -0.0902
 6433TIP3   OH219262   5.149   4.731   2.752 -0.0928  0.0352 -0.4650
 6433TIP3    H119263   5.173   4.782   2.674 -1.3827 -0.5964 -1.3182
 6433TIP3    H219264   5.084   4.786   2.797 -0.6210 -0.3380 -0.7644
 6434TIP3   OH219265   1.296   6.713   4.661  0.6636  0.1619  0.5674
 6434TIP3    H119266   1.309   6.787   4.601  0.1653 -0.0549  0.1889
 6434TIP3    H219267   1.250   6.647   4.609 -0.8752  0.4391  1.5290
 6435TIP3   OH219268   3.441   5.533   5.401  0.2681 -0.1678 -0.0683
 6435TIP3    H119269   3.523   5.580   5.383 -0.5571  1.7265  0.8473
 6435TIP3    H219270   3.433   5.535   5.496 -2.0968  1.9919 -0.2333
 6436TIP3   OH219271   0.140   5.906   1.478  0.3391  0.3250  0.1683
 6436TIP3    H119272   0.086   5.832   1.507 -0.4201  1.0691  0.7084
 6436TIP3    H219273   0.214   5.865   1.434 -0.9160 -0.7241 -1.0882
 6437TIP3   OH219274   1.922   6.194   2.523  0.2773 -0.4456 -0.0014
 6437TIP3    H119275   1.930   6.114   2.575 -0.9870  0.0375  0.9795
 6437TIP3    H219276   1.922   6.265   2.587  0.2408  0.2689 -0.7743
 6438TIP3   OH219277   4.175   5.862   1.455  0.1707 -0.5331 -0.7168
 6438TIP3    H119278   4.164   5.816   1.372  0.3208 -4.6176  1.2754
 6438TIP3    H219279   4.166   5.794   1.522  0.3051  2.4523  2.6637
 6439TIP3   OH219280   6.058   0.829   0.999 -0.4542  0.1388 -0.2780
 6439TIP3    H119281   6.078   0.881   1.076 -1.3905 -0.9732  0.7518
 6439TIP3    H219282   6.091   0.881   0.926 -1.1657  2.0588  0.7120
 6440TIP3   OH219283   0.693   3.796   0.965 -0.6223  0.2484 -0.0307
 6440TIP3    H119284   0.727   3.723   1.015 -1.1756  0.5759  0.8526
 6440TIP3    H219285   0.771   3.843   0.934 -0.2782 -0.0417  0.3976
 6441TIP3   OH219286   6.191   0.965   3.333  0.5713  0.8897 -0.2053
 6441TIP3    H119287   6.103   0.939   3.361  1.3699 -0.0415  1.5521
 6441TIP3    H219288   6.176   1.009   3.249 -1.5790  0.8602  0.0885
 6442TIP3   OH219289   7.104   5.561   3.321 -0.0120 -0.1860  0.5450
 6442TIP3    H119290   7.142   5.514   3.396  2.3977  1.3700  0.4280
 6442TIP3    H219291   7.063   5.638   3.360  1.2573  0.6330  0.3208
 6443TIP3   OH219292   6.075   5.862   3.835  0.7799 -0.6884  0.3279
 6443TIP3    H119293   6.055   5.769   3.828  2.2141 -1.1379  1.5287
 6443TIP3    H219294   6.005   5.899   3.889 -1.2627 -0.4724 -2.2921
 6444TIP3   OH219295   1.710   6.331   2.114  0.6149 -0.1209 -0.4475
 6444TIP3    H119296   1.756   6.375   2.185  1.3930 -0.5686 -0.6663
 6444TIP3    H219297   1.665   6.402   2.067 -0.2634  0.1314  0.7292
 6445TIP3   OH219298   5.602   2.487   3.654 -0.1519  0.1793  0.1179
 6445TIP3    H119299   5.528   2.545   3.670  0.3039  0.6046  0.7272
 6445TIP3    H219300   5.564   2.399   3.657 -0.7574  0.4151 -0.3199
 6446TIP3   OH219301   3.085   1.797   2.553 -0.2906 -0.0071  0.2531
 6446TIP3    H119302   3.038   1.868   2.510 -0.0415  1.4148  2.1607
 6446TIP3    H219303   3.135   1.754   2.484 -3.2522 -0.6985 -1.6101
 6447TIP3   OH219304   3.316   4.323   0.157  0.4415 -0.4555  0.4255
 6447TIP3    H119305   3.264   4.244   0.170  1.2098 -0.8127  1.5126
 6447TIP3    H219306   3.251   4.393   0.148 -0.2489 -0.9168  1.5501
 6448TIP3   OH219307   6.991   1.923   4.708 -0.4566 -0.1515  0.3079
 6448TIP3    H119308   7.084   1.920   4.728 -0.2463  0.1423 -0.5751
 6448TIP3    H219309   6.972   2.016   4.695 -0.6297 -0.3074 -0.5851
 6449TIP3   OH219310   0.285   4.234   4.398  0.0510  0.1764 -0.0523
 6449TIP3    H119311   0.320   4.313   4.357 -0.7966 -0.0748 -1.3001
 6449TIP3    H219312   0.358   4.171   4.395  0.1555  0.3212 -0.7292
 6450TIP3   OH219313   5.104   3.954   1.307 -0.0190  0.0734 -0.2873
 6450TIP3    H119314   5.019   3.915   1.290  0.3456 -0.8824  0.0158
 6450TIP3    H219315   5.164   3.908   1.248  0.5099 -0.2260  0.4609
 6451TIP3   OH219316   3.829   2.069   3.607 -0.4623  0.7638 -0.5022
 6451TIP3    H119317   3.768   2.120   3.554 -0.1242  0.4547 -1.1943
 6451TIP3    H219318   3.910   2.067   3.556 -1.2442 -2.7515 -1.8255
 6452TIP3   OH219319   2.918   6.147   3.927 -0.2167  0.5360 -0.2484
 6452TIP3    H119320   2.833   6.191   3.926  0.0028  1.3320  3.3236
 6452TIP3    H219321   2.981   6.218   3.941  0.9184 -0.2167 -1.3419
 6453TIP3   OH219322   0.965   5.519   5.217 -0.5227  0.3700  0.2483
 6453TIP3    H119323   1.053   5.524   5.255 -0.8447  0.1111  1.0481
 6453TIP3    H219324   0.971   5.448   5.153  0.0136  0.7742 -0.1615
 6454TIP3   OH219325   2.535   0.377   5.846  0.3845  0.0766  0.4252
 6454TIP3    H119326   2.500   0.361   5.759 -1.1686  0.9104  0.8587
 6454TIP3    H219327   2.502   0.304   5.899 -0.0658  0.4471  0.6629
 6455TIP3   OH219328   0.635   4.709   4.317 -0.1344 -0.7006 -0.0071
 6455TIP3    H119329   0.627   4.783   4.377  0.0721  1.0574 -2.0276
 6455TIP3    H219330   0.585   4.639   4.359 -0.0776  0.4648  2.1335
 6456TIP3   OH219331   5.421   2.055   5.152 -0.3973 -0.4620 -0.0751
 6456TIP3    H119332   5.434   1.961   5.139  1.7373 -0.3618  0.9827
 6456TIP3    H219333   5.480   2.097   5.089  0.2045  0.1312  0.8636
 6457TIP3   OH219334   0.627   0.757   5.433 -0.7334 -0.1187  0.6929
 6457TIP3    H119335   0.635   0.743   5.339  0.4225 -1.5809  0.9870
 6457TIP3    H219336   0.669   0.841   5.449  1.0455 -0.8798  0.1779
 6458TIP3   OH219337   6.118   5.915   3.395  0.0661 -0.5618 -0.1181
 6458TIP3    H119338   6.038   5.967   3.397 -0.7992 -1.5565 -3.1774
 6458TIP3    H219339   6.188   5.979   3.388 -0.8543  0.3254 -2.1945
 6459TIP3   OH219340   4.852   5.024   0.140 -0.8232 -0.1654  0.4813
 6459TIP3    H119341   4.798   4.999   0.064 -2.2099 -0.8583  1.6415
 6459TIP3    H219342   4.940   5.035   0.104 -1.4444 -0.4463 -1.2331
 6460TIP3   OH219343   1.575   1.817   1.298  0.1539 -0.0700 -0.0202
 6460TIP3    H119344   1.549   1.844   1.386 -3.2868  3.0441 -1.7246
 6460TIP3    H219345   1.523   1.739   1.280 -0.4264  0.2726  0.1385
 6461TIP3   OH219346   3.007   4.961   0.370 -0.4565  0.0284  0.1143
 6461TIP3    H119347   3.009   4.888   0.432  0.2584  0.0243  0.1007
 6461TIP3    H219348   2.925   4.950   0.322  0.2176 -1.4815 -0.7520
 6462TIP3   OH219349   1.894   4.449   2.924  0.4280  0.4147 -0.6099
 6462TIP3    H119350   1.983   4.427   2.897 -0.5190 -1.7645 -2.2857
 6462TIP3    H219351   1.847   4.465   2.842 -1.7624 -3.0973 -0.2422
 6463TIP3   OH219352   1.537   5.191   5.651  0.3696  0.6578  0.3027
 6463TIP3    H119353   1.611   5.240   5.615  0.2337  0.1740 -0.6624
 6463TIP3    H219354   1.521   5.231   5.737  0.2256  2.3434 -0.4785
 6464TIP3   OH219355   4.288   0.125   2.577  0.1199  0.5054 -0.9368
 6464TIP3    H119356   4.205   0.116   2.625  1.3894 -1.3989  1.0993
 6464TIP3    H219357   4.263   0.115   2.485 -1.8245 -1.1302 -0.3140
 6465TIP3   OH219358   5.252   1.553   3.400  0.0773 -0.1101 -0.3376
 6465TIP3    H119359   5.320   1.560   3.333 -0.7272 -0.2481 -1.1833
 6465TIP3    H219360   5.292   1.498   3.468  1.3516  1.0419 -0.0987
 6466TIP3   OH219361   4.723   3.406   2.596  0.4969 -0.0548  0.2351
 6466TIP3    H119362   4.717   3.495   2.629 -0.3139  0.4000 -1.0750
 6466TIP3    H219363   4.813   3.379   2.614  1.0484  1.3852 -0.2467
 6467TIP3   OH219364   6.232   6.310   5.396 -0.1929 -0.7572  0.6326
 6467TIP3    H119365   6.157   6.274   5.443 -0.8374 -1.7784 -1.0643
 6467TIP3    H219366   6.283   6.234   5.370 -0.3385 -0.3333 -1.0261
 6468TIP3   OH219367   1.313   0.502   0.818  0.5611 -0.0334  0.6755
 6468TIP3    H119368   1.384   0.440   0.803  2.3555  2.1438 -0.4021
 6468TIP3    H219369   1.339   0.549   0.897 -0.2643  0.0688  0.8983
 6469TIP3   OH219370   2.816   1.399   0.338 -0.1420 -0.2030  0.0813
 6469TIP3    H119371   2.759   1.448   0.397  0.2931 -2.6002  2.6833
 6469TIP3    H219372   2.905   1.420   0.367  0.1551 -0.0842 -0.8794
 6470TIP3   OH219373   3.665   0.150   0.443  0.1368 -0.2351  0.2084
 6470TIP3    H119374   3.648   0.057   0.429  1.3813 -0.3572 -0.6436
 6470TIP3    H219375   3.747   0.152   0.492  0.8111  0.4288 -0.9152
 6471TIP3   OH219376   5.498   5.302   3.392 -0.1706  0.5159 -0.0674
 6471TIP3    H119377   5.555   5.259   3.329  1.1670 -2.4803  2.8480
 6471TIP3    H219378   5.555   5.363   3.439  0.0072 -0.4081  0.9734
 6472TIP3   OH219379   2.518   4.884   4.367  0.2927  0.2375  0.1268
 6472TIP3    H119380   2.563   4.819   4.313 -0.3666 -0.5968  0.5489
 6472TIP3    H219381   2.514   4.962   4.312  0.0941 -0.4323 -0.8467
 6473TIP3   OH219382   6.292   5.527   2.082 -0.0041 -0.3997  0.6910
 6473TIP3    H119383   6.225   5.485   2.029  0.8773 -0.6774 -0.2223
 6473TIP3    H219384   6.256   5.614   2.100 -0.6721 -0.5914  0.3415
 6474TIP3   OH219385   0.159   3.793   4.286  0.4867  0.1390  0.0042
 6474TIP3    H119386   0.185   3.841   4.364 -0.4993 -0.8305  0.9798
 6474TIP3    H219387   0.084   3.740   4.315 -0.1512  0.0498 -1.7000
 6475TIP3   OH219388   0.454   4.390   3.466  0.1059  0.3008 -0.4731
 6475TIP3    H119389   0.396   4.315   3.451  0.9323 -0.6068  0.6899
 6475TIP3    H219390   0.397   4.456   3.506 -0.5439  0.1650 -1.1445
 6476TIP3   OH219391   1.173   5.662   2.975 -0.3344 -0.5752 -0.1151
 6476TIP3    H119392   1.184   5.639   2.883  0.5099 -0.7569  0.0173
 6476TIP3    H219393   1.089   5.708   2.979  0.3624  0.8887 -1.2655
 6477TIP3   OH219394   2.568   2.564   4.698 -0.1603 -0.1096  0.6433
 6477TIP3    H119395   2.495   2.575   4.638 -0.5967  0.9513  1.3446
 6477TIP3    H219396   2.564   2.471   4.724 -1.6568  0.0763  1.1498
 6478TIP3   OH219397   3.482   3.600   0.938  0.0272 -0.0202 -0.1318
 6478TIP3    H119398   3.514   3.514   0.913 -0.7704 -0.2627 -0.3460
 6478TIP3    H219399   3.390   3.586   0.962 -0.6344  1.0361 -1.8078
 6479TIP3   OH219400   2.292   4.343   3.491  0.0907 -0.3262  0.4635
 6479TIP3    H119401   2.377   4.367   3.454 -0.5484  0.7320 -0.3761
 6479TIP3    H219402   2.263   4.268   3.438 -1.1447  1.6208 -1.8075
 6480TIP3   OH219403   5.535   3.718   0.281  0.5310  0.2943  0.1146
 6480TIP3    H119404   5.491   3.644   0.240  1.8195 -1.9132  2.3711
 6480TIP3    H219405   5.567   3.771   0.208 -1.0360 -0.9703 -1.5854
 6481TIP3   OH219406   4.123   5.760   4.828  0.1886  0.2939 -0.2017
 6481TIP3    H119407   4.166   5.705   4.894 -0.9057  0.0729  0.3458
 6481TIP3    H219408   4.133   5.849   4.860 -0.4091  0.1811  0.3258
 6482TIP3   OH219409   7.175   4.859   2.453  0.1915 -0.1423 -0.0768
 6482TIP3    H119410   7.160   4.947   2.418  0.3892  0.1565  0.5725
 6482TIP3    H219411   7.088   4.822   2.464  0.1510 -0.7349 -2.0776
 6483TIP3   OH219412   3.081   0.207   3.044  0.0863  0.3559  0.2149
 6483TIP3    H119413   3.135   0.171   2.974 -0.7690  1.4779 -1.0738
 6483TIP3    H219414   3.096   0.148   3.118  1.3850 -0.5956 -0.7501
 6484TIP3   OH219415   1.015   0.730   3.317 -0.6242 -0.0928 -0.2159
 6484TIP3    H119416   1.069   0.685   3.381 -1.0759 -2.4525 -1.3705
 6484TIP3    H219417   0.929   0.738   3.360 -0.4170  0.0842  0.1692
 6485TIP3   OH219418   6.709   5.933   3.838  0.5778  0.2837 -0.2440
 6485TIP3    H119419   6.652   5.951   3.913  0.8696 -0.9660  0.3046
 6485TIP3    H219420   6.786   5.987   3.854  1.2026 -0.9134  1.0786
 6486TIP3   OH219421   2.331   2.596   2.506 -0.4024 -0.0945  0.0086
 6486TIP3    H119422   2.406   2.640   2.467  0.1527 -1.3357 -0.3940
 6486TIP3    H219423   2.356   2.585   2.598 -0.7677  0.8868  0.2265
 6487TIP3   OH219424   6.619   4.027   2.997 -0.0868 -0.1560 -0.4243
 6487TIP3    H119425   6.690   4.080   3.034  1.3715 -0.6650 -2.3171
 6487TIP3    H219426   6.648   4.008   2.908 -1.1758 -2.9978 -0.2602
 6488TIP3   OH219427   1.900   5.212   4.690 -0.0642  0.3602 -0.4613
 6488TIP3    H119428   1.955   5.242   4.618 -0.7908  1.3683 -0.6145
 6488TIP3    H219429   1.937   5.254   4.767 -0.4857  0.8531 -0.5306
 6489TIP3   OH219430   2.163   5.600   2.941 -0.1137 -0.0881 -0.3547
 6489TIP3    H119431   2.078   5.633   2.912  0.8484  1.1697 -1.9534
 6489TIP3    H219432   2.178   5.643   3.025 -0.4300  0.8163 -0.7468
 6490TIP3   OH219433   1.515   2.858   4.283  0.3585 -0.3246  0.3843
 6490TIP3    H119434   1.445   2.894   4.228 -1.3011 -0.0949  2.5417
 6490TIP3    H219435   1.525   2.768   4.252 -0.4521 -0.1748 -0.3715
 6491TIP3   OH219436   2.762   5.221   1.580  0.4710 -0.5090 -0.0222
 6491TIP3    H119437   2.851   5.244   1.550  0.1038  0.0936 -0.6792
 6491TIP3    H219438   2.754   5.265   1.665  1.0378 -1.1203  0.3575
 6492TIP3   OH219439   2.203   0.436   0.887  0.2530 -0.0221 -0.1764
 6492TIP3    H119440   2.268   0.500   0.858 -1.0136  1.4474  0.0815
 6492TIP3    H219441   2.234   0.408   0.973  1.0802 -0.1417 -0.5064
 6493TIP3   OH219442   4.861   1.531   0.498  0.0192  0.1582  0.1023
 6493TIP3    H119443   4.842   1.547   0.591 -3.2039  0.3360 -0.4766
 6493TIP3    H219444   4.914   1.607   0.472  1.5603 -0.2175  1.8797
 6494TIP3   OH219445   3.960   2.790   2.561 -1.1932  0.1223 -0.2780
 6494TIP3    H119446   3.955   2.699   2.590 -0.8545  0.8385  2.2481
 6494TIP3    H219447   3.901   2.837   2.620  0.3726  1.8713 -0.0354
 6495TIP3   OH219448   1.248   0.643   4.507 -0.0073 -0.2321  0.6891
 6495TIP3    H119449   1.193   0.566   4.523  0.6666 -1.0482 -0.6755
 6495TIP3    H219450   1.337   0.613   4.528  0.0330  0.8709  2.2485
 6496TIP3   OH219451   1.180   1.656   4.877 -0.5644  0.4103  0.3271
 6496TIP3    H119452   1.124   1.588   4.915  1.5226 -1.4474  0.2554
 6496TIP3    H219453   1.125   1.735   4.878 -3.7556 -1.5568 -1.1698
 6497TIP3   OH219454   4.480   6.206   1.160  0.2147 -0.6766 -0.5625
 6497TIP3    H119455   4.528   6.273   1.112 -0.2735  0.7074  0.8103
 6497TIP3    H219456   4.395   6.200   1.116 -0.0677  0.2713 -0.1697
 6498TIP3   OH219457   1.546   3.662   5.251 -0.0393  0.3704  0.0330
 6498TIP3    H119458   1.557   3.730   5.184 -1.6181  0.4203 -0.2238
 6498TIP3    H219459   1.630   3.661   5.298  0.3800  1.7848 -0.6096
 6499TIP3   OH219460   5.166   2.457   1.243  0.0808 -0.4308  0.2590
 6499TIP3    H119461   5.251   2.414   1.234 -1.0114 -2.5354 -0.9753
 6499TIP3    H219462   5.147   2.493   1.156 -0.6895 -0.8555  0.2356
 6500TIP3   OH219463   2.884   3.779   3.150 -0.0849 -0.6673 -0.0514
 6500TIP3    H119464   2.871   3.748   3.240 -0.4947  0.0885  0.1579
 6500TIP3    H219465   2.878   3.874   3.157 -1.4739 -0.6524 -1.0794
 6501TIP3   OH219466   2.749   2.622   1.814 -0.1525  0.3571  0.4654
 6501TIP3    H119467   2.759   2.539   1.862 -0.3616  0.6767  1.0785
 6501TIP3    H219468   2.821   2.677   1.845  0.8429 -0.0599 -0.9888
 6502TIP3   OH219469   2.089   5.254   4.492 -0.0995 -0.0088  0.4650
 6502TIP3    H119470   2.183   5.244   4.507  0.0335  0.2800 -0.1814
 6502TIP3    H219471   2.082   5.294   4.406 -0.7645  1.5629  1.2160
 6503TIP3   OH219472   0.433   3.628   3.477  0.7502  0.3018 -0.2030
 6503TIP3    H119473   0.523   3.615   3.448  0.7378  0.8052 -0.4782
 6503TIP3    H219474   0.409   3.545   3.520  0.6918 -0.5726 -1.8270
 6504TIP3   OH219475   4.341   1.753   0.331  0.2110 -0.3640  0.4900
 6504TIP3    H119476   4.298   1.792   0.255  0.8868 -1.0487 -0.2741
 6504TIP3    H219477   4.412   1.701   0.293  2.6208  1.8088  1.7220
 6505TIP3   OH219478   2.256   1.325   0.693 -0.1244 -0.1564  0.1269
 6505TIP3    H119479   2.184   1.265   0.678 -0.9826  0.6425  0.9275
 6505TIP3    H219480   2.247   1.391   0.624  0.1219 -0.3012 -0.0469
 6506TIP3   OH219481   3.737   6.577   2.225  0.1298 -0.1076 -0.1684
 6506TIP3    H119482   3.783   6.557   2.144  0.5706  1.0752 -0.2325
 6506TIP3    H219483   3.741   6.496   2.276 -0.0351 -0.8260 -1.2556
 6507TIP3   OH219484   1.459   6.471   2.862  0.2061  0.7631  0.1068
 6507TIP3    H119485   1.460   6.519   2.779 -0.1833  0.2947 -0.1747
 6507TIP3    H219486   1.429   6.383   2.839  2.0610 -0.0118  0.4113
 6508TIP3   OH219487   1.342   2.137   3.441  0.1169  0.1375 -0.1661
 6508TIP3    H119488   1.354   2.140   3.346  2.0532  2.6341  0.0323
 6508TIP3    H219489   1.308   2.224   3.464  0.6877 -0.0318  1.5057
 6509TIP3   OH219490   2.548   2.079   2.784  0.1033  0.2966  0.0569
 6509TIP3    H119491   2.604   2.091   2.861 -0.5283 -1.0786  0.7731
 6509TIP3    H219492   2.543   2.166   2.744 -1.2504  1.5669  2.7405
 6510TIP3   OH219493   6.734   6.047   1.046  0.0220 -0.2540  0.0867
 6510TIP3    H119494   6.752   6.102   0.970 -0.7461  1.0185  0.7942
 6510TIP3    H219495   6.777   5.964   1.026  0.4108  0.2801 -1.4262
 6511TIP3   OH219496   5.995   1.915   4.644  0.5671 -0.2162 -0.1267
 6511TIP3    H119497   5.968   1.823   4.640 -0.1800  0.0008 -0.2363
 6511TIP3    H219498   6.034   1.932   4.558 -1.5639  0.2286 -1.0977
 6512TIP3   OH219499   3.050   4.065   3.511  0.6323 -0.0769 -0.6501
 6512TIP3    H119500   2.959   4.050   3.487  1.0815 -2.2938 -1.2749
 6512TIP3    H219501   3.089   3.977   3.512  2.5968  0.7362  0.2894
 6513TIP3   OH219502   4.137   3.058   1.230 -0.3066  0.4550  0.1556
 6513TIP3    H119503   4.229   3.076   1.213 -0.2459  1.6908  1.6073
 6513TIP3    H219504   4.100   3.039   1.143  1.0952  0.9355 -0.5787
 6514TIP3   OH219505   4.525   5.580   0.933  0.4132 -0.8753 -0.3599
 6514TIP3    H119506   4.462   5.509   0.940  0.1529 -0.5996  0.1420
 6514TIP3    H219507   4.585   5.552   0.863  0.3132 -1.5778 -0.1729
 6515TIP3   OH219508   1.489   0.348   4.158  0.5761  0.1231  0.4015
 6515TIP3    H119509   1.417   0.404   4.187  0.4810 -0.2661  0.9197
 6515TIP3    H219510   1.448   0.264   4.138  0.9275 -0.2014  1.0188
 6516TIP3   OH219511   7.101   2.044   3.949  0.6321  0.0517  0.0175
 6516TIP3    H119512   7.021   1.995   3.929  0.9267 -0.1644 -0.6518
 6516TIP3    H219513   7.169   1.977   3.957  0.7713  0.2440  0.4703
 6517TIP3   OH219514   6.653   1.568   0.501 -0.1636 -0.3466  0.1252
 6517TIP3    H119515   6.704   1.488   0.487 -0.3560 -1.1111  3.0820
 6517TIP3    H219516   6.563   1.538   0.512 -0.2509  0.2399  1.1748
 6518TIP3   OH219517   5.835   6.265   3.775 -0.1308  0.0245 -0.6049
 6518TIP3    H119518   5.839   6.359   3.757  1.2569  0.5414  1.9458
 6518TIP3    H219519   5.902   6.227   3.719  0.3663  0.7952 -0.5467
 6519TIP3   OH219520   6.518   3.778   1.323  0.2128 -0.1985  0.1988
 6519TIP3    H119521   6.426   3.758   1.336  0.3917 -0.0085  1.9631
 6519TIP3    H219522   6.528   3.868   1.353  1.3809 -0.9651  2.2835
 6520TIP3   OH219523   7.028   0.274   2.632 -0.4811 -0.2152 -0.4738
 6520TIP3    H119524   6.962   0.249   2.697 -1.4834  0.6533 -1.1440
 6520TIP3    H219525   7.003   0.362   2.604  1.0214  0.1818 -0.6766
 6521TIP3   OH219526   3.639   3.609   5.358 -0.2025  0.2329 -0.1318
 6521TIP3    H119527   3.609   3.674   5.294  0.2693  1.8768  1.2391
 6521TIP3    H219528   3.731   3.595   5.336  0.2486  1.5757  0.7327
 6522TIP3   OH219529   4.118   5.488   5.607 -0.0281 -0.3097 -0.0629
 6522TIP3    H119530   4.161   5.572   5.592  0.1239  0.4108  3.4698
 6522TIP3    H219531   4.027   5.510   5.625  0.6343 -0.2353  4.3516
 6523TIP3   OH219532   7.189   2.211   3.642 -0.1859  0.2827  0.8615
 6523TIP3    H119533   7.185   2.195   3.736  0.1585 -0.0158  0.8270
 6523TIP3    H219534   7.142   2.137   3.603 -0.0941  0.2619  0.7892
 6524TIP3   OH219535   6.661   4.868   5.357  0.3082 -0.4800 -0.1917
 6524TIP3    H119536   6.653   4.780   5.320  0.3453 -0.5039 -0.1422
 6524TIP3    H219537   6.574   4.907   5.345 -0.0911 -0.9768  0.9547
 6525TIP3   OH219538   2.305   0.103   0.895 -0.4288  0.1843 -0.0902
 6525TIP3    H119539   2.345   0.157   0.827  0.2099 -0.4668 -0.2362
 6525TIP3    H219540   2.345   0.017   0.885 -2.6751 -0.8362 -0.9900
 6526TIP3   OH219541   5.481   4.255   3.088  0.1141  0.3551 -0.4966
 6526TIP3    H119542   5.466   4.303   3.007  0.6271  2.6532  0.6907
 6526TIP3    H219543   5.415   4.287   3.148  0.0126 -0.9978  0.1604
 6527TIP3   OH219544   4.411   6.631   1.636 -0.7519  0.4799 -0.2039
 6527TIP3    H119545   4.418   6.575   1.559 -2.6634 -0.2461  0.0943
 6527TIP3    H219546   4.456   6.582   1.705 -2.0762 -0.5547 -0.0389
 6528TIP3   OH219547   5.379   1.282   5.305 -0.4030  0.3527  0.2884
 6528TIP3    H119548   5.440   1.349   5.277 -0.2540  0.8147  1.6403
 6528TIP3    H219549   5.349   1.311   5.392 -0.9493 -0.9113  0.5497
 6529TIP3   OH219550   2.042   6.605   1.297  0.1555  0.3426  0.0429
 6529TIP3    H119551   2.039   6.700   1.284  2.6489  0.5632  0.6675
 6529TIP3    H219552   1.951   6.581   1.318 -0.6764  2.4349 -0.8929
 6530TIP3   OH219553   5.279   4.470   2.535  0.0811 -0.0040 -0.0546
 6530TIP3    H119554   5.305   4.532   2.603 -2.3487  2.3095 -1.0748
 6530TIP3    H219555   5.187   4.489   2.519 -0.5966 -3.4131 -1.0101
 6531TIP3   OH219556   3.443   6.184   5.545  0.1848  0.1083 -0.0345
 6531TIP3    H119557   3.489   6.165   5.627  0.6653  0.8916 -0.1067
 6531TIP3    H219558   3.400   6.102   5.522  1.0423 -0.4697  0.3672
 6532TIP3   OH219559   4.214   4.533   3.689 -0.2899 -1.0394  0.2510
 6532TIP3    H119560   4.281   4.534   3.621  1.1878 -1.3213  1.6519
 6532TIP3    H219561   4.234   4.609   3.744 -1.4401 -0.8290  0.4215
 6533TIP3   OH219562   5.962   1.578   3.472  0.3153 -0.0204  0.3068
 6533TIP3    H119563   5.890   1.632   3.503  0.5729 -0.0577  0.9763
 6533TIP3    H219564   5.919   1.509   3.421 -0.2357 -0.7378  1.6942
 6534TIP3   OH219565   3.798   2.008   3.249 -0.1813 -0.4103 -0.7472
 6534TIP3    H119566   3.777   1.937   3.188 -0.3010  0.2011 -1.4281
 6534TIP3    H219567   3.789   2.088   3.198 -0.6994  0.1556  0.1816
 6535TIP3   OH219568   2.328   2.790   5.214  0.4839  0.1231 -0.2279
 6535TIP3    H119569   2.411   2.828   5.187  0.6431  0.3637  0.5875
 6535TIP3    H219570   2.265   2.823   5.151  0.8454  0.7062 -0.2840
 6536TIP3   OH219571   4.907   4.937   5.033 -0.4710  0.3554  0.6326
 6536TIP3    H119572   4.832   4.996   5.034  0.0759  1.1576 -1.1198
 6536TIP3    H219573   4.870   4.851   5.011 -0.9693  0.5744  0.6130
 6537TIP3   OH219574   4.878   2.199   5.525  0.2292 -0.3223 -0.1127
 6537TIP3    H119575   4.791   2.168   5.501  0.0286 -0.2330  0.4891
 6537TIP3    H219576   4.872   2.219   5.618  0.8375 -0.1210 -0.1105
 6538TIP3   OH219577   6.008   2.263   0.155 -0.1167 -0.4648 -0.2391
 6538TIP3    H119578   5.968   2.338   0.111  1.5681 -0.6077 -2.1858
 6538TIP3    H219579   6.097   2.291   0.174  0.5499 -1.9119 -0.9909
 6539TIP3   OH219580   0.040   2.123   5.067  0.3772 -0.5273  0.1039
 6539TIP3    H119581  -0.053   2.145   5.076  0.0226 -1.8927  0.0128
 6539TIP3    H219582   0.086   2.204   5.090 -0.8529  0.8080 -1.8428
 6540TIP3   OH219583   2.546   3.933   3.006 -0.3690  0.0385  0.0907
 6540TIP3    H119584   2.504   3.847   3.011 -1.2545  0.4765  0.4930
 6540TIP3    H219585   2.627   3.917   2.958 -1.0421 -0.8255 -0.8104
 6541TIP3   OH219586   6.858   4.993   2.337  0.3537 -0.0580 -0.5855
 6541TIP3    H119587   6.862   4.917   2.396 -1.0847  1.1278  1.1255
 6541TIP3    H219588   6.946   5.032   2.342  0.9592 -1.2834 -1.1131
 6542TIP3   OH219589   2.004   1.823   5.102 -0.3228 -0.2372  0.3915
 6542TIP3    H119590   2.006   1.819   5.198  0.7330 -1.2443  0.3489
 6542TIP3    H219591   2.037   1.738   5.074 -1.0667 -0.1242 -0.8817
 6543TIP3   OH219592   5.240   1.935   4.279 -0.8556  0.3406  0.2864
 6543TIP3    H119593   5.267   1.996   4.348 -0.3845 -1.5998  1.9103
 6543TIP3    H219594   5.321   1.911   4.234 -1.2228  2.0085 -1.3834
 6544TIP3   OH219595   5.099   2.216   4.209  0.3923  0.4695  0.0165
 6544TIP3    H119596   5.086   2.182   4.120 -1.2165  1.1975 -0.0724
 6544TIP3    H219597   5.137   2.143   4.257 -1.2381 -0.8704 -0.6240
 6545TIP3   OH219598   6.662   5.727   2.975 -0.1358 -0.1751 -0.1880
 6545TIP3    H119599   6.690   5.816   2.957  0.2891 -0.2907 -0.1059
 6545TIP3    H219600   6.583   5.737   3.028  0.6396  0.1539  0.9392
 6546TIP3   OH219601   1.351   5.826   1.641  0.4683 -0.0544  0.3877
 6546TIP3    H119602   1.282   5.824   1.574 -0.2248  0.7979  1.0558
 6546TIP3    H219603   1.329   5.901   1.695  1.0032 -0.7427  1.5883
 6547TIP3   OH219604   3.707   1.456   1.841  0.1878 -0.5357  0.3897
 6547TIP3    H119605   3.652   1.459   1.763  0.8879 -0.1731 -0.0879
 6547TIP3    H219606   3.687   1.371   1.881  1.2672 -1.5745 -1.2189
 6548TIP3   OH219607   0.023   5.572   5.794  0.0459 -1.0573  0.7236
 6548TIP3    H119608  -0.001   5.618   5.874 -0.0988  0.7998 -0.3348
 6548TIP3    H219609   0.066   5.492   5.824  0.5288 -0.1277  2.6417
 6549TIP3   OH219610   5.940   2.567   3.953  0.5753 -0.0645  0.0967
 6549TIP3    H119611   5.978   2.485   3.987  1.3105  0.8937  1.7107
 6549TIP3    H219612   5.847   2.547   3.942  1.1774 -2.0481 -2.6102
 6550TIP3   OH219613   4.975   1.435   3.058  0.2393 -0.0605  0.1273
 6550TIP3    H119614   4.993   1.511   3.113  1.3214  0.4498 -0.8839
 6550TIP3    H219615   5.033   1.367   3.093  1.5579  0.5096 -0.8489
 6551TIP3   OH219616   2.235   5.596   1.612 -0.4294  0.3787  0.1499
 6551TIP3    H119617   2.311   5.555   1.571  0.1953  0.9668  0.7022
 6551TIP3    H219618   2.169   5.598   1.542 -0.2615 -0.9445 -0.0751
 6552TIP3   OH219619   5.232   1.098   3.622 -0.0359 -0.1929 -0.1844
 6552TIP3    H119620   5.169   1.147   3.570 -1.4406 -1.4054  0.3002
 6552TIP3    H219621   5.221   1.132   3.711  0.0866 -0.3117 -0.1239
 6553TIP3   OH219622   7.004   6.546   0.228 -0.1834 -0.1469  0.1648
 6553TIP3    H119623   7.096   6.543   0.254  0.3530  1.8326 -1.2503
 6553TIP3    H219624   6.958   6.582   0.304 -0.2016 -3.0022  1.6344
 6554TIP3   OH219625   4.522   4.037   3.917 -0.2544 -0.3954 -0.6558
 6554TIP3    H119626   4.568   3.953   3.918 -0.4441 -0.6116 -3.2062
 6554TIP3    H219627   4.444   4.021   3.864 -1.2293  0.9667  0.2965
 6555TIP3   OH219628   2.697   5.668   0.444 -0.0557 -0.2205 -0.8612
 6555TIP3    H119629   2.640   5.717   0.385 -0.9653  1.4665  1.2967
 6555TIP3    H219630   2.646   5.658   0.524  1.8762 -0.6118  0.3870
 6556TIP3   OH219631   7.149   3.043   5.117 -0.9936 -0.2423 -0.3182
 6556TIP3    H119632   7.189   2.997   5.042 -2.3158 -0.8204 -0.7018
 6556TIP3    H219633   7.144   3.134   5.089 -1.1400 -0.3923 -0.8049
 6557TIP3   OH219634   2.884   5.302   3.652  0.3020  0.2489 -0.4916
 6557TIP3    H119635   2.868   5.393   3.624  0.7634  0.4197 -0.2140
 6557TIP3    H219636   2.960   5.274   3.602 -0.0999 -0.1374 -0.8937
 6558TIP3   OH219637   4.324   5.960   4.330 -0.1832 -0.2415 -0.1570
 6558TIP3    H119638   4.256   5.921   4.385  0.2273  0.4462  0.8584
 6558TIP3    H219639   4.300   6.052   4.323  0.8245  0.0890  0.5201
 6559TIP3   OH219640   5.500   0.821   2.886  0.0774 -0.4609 -0.2803
 6559TIP3    H119641   5.516   0.859   2.972  0.3062 -3.5476  1.1923
 6559TIP3    H219642   5.411   0.850   2.864  0.8677  2.2933 -0.1940
 6560TIP3   OH219643   2.528   4.179   0.495 -0.2176 -0.8631 -0.1657
 6560TIP3    H119644   2.499   4.093   0.465  0.2993 -1.4641  0.9828
 6560TIP3    H219645   2.623   4.174   0.497 -0.2065 -0.5350  0.6332
 6561TIP3   OH219646   6.736   1.095   2.957  0.2837  0.4447  0.6727
 6561TIP3    H119647   6.789   1.019   2.932  0.9552  1.3920 -0.9107
 6561TIP3    H219648   6.672   1.060   3.018 -0.8932 -1.8821 -1.7070
 6562TIP3   OH219649   0.366   3.402   3.613  0.3010  0.0347  0.0651
 6562TIP3    H119650   0.279   3.424   3.646  0.9054  0.5928  1.3399
 6562TIP3    H219651   0.386   3.317   3.652 -0.4308 -1.0496 -1.7716
 6563TIP3   OH219652   0.350   0.107   0.935  0.0701 -0.0509 -0.3238
 6563TIP3    H119653   0.422   0.098   0.873 -0.5266  0.5881 -1.1418
 6563TIP3    H219654   0.316   0.019   0.946  0.4630 -0.2352 -0.5626
 6564TIP3   OH219655   7.159   3.869   4.718 -0.5169  0.0789 -0.5939
 6564TIP3    H119656   7.170   3.782   4.758  1.3525  0.9217  0.8543
 6564TIP3    H219657   7.165   3.930   4.791 -1.5268  1.4821 -1.6311
 6565TIP3   OH219658   6.831   4.494   4.219 -0.3300 -0.7565  0.0768
 6565TIP3    H119659   6.814   4.415   4.167 -1.4218 -0.6619  0.2863
 6565TIP3    H219660   6.884   4.463   4.293 -0.0030 -1.1347 -0.3075
 6566TIP3   OH219661   5.749   1.634   1.800 -0.1347 -0.1205 -0.0683
 6566TIP3    H119662   5.659   1.602   1.802 -0.4405  0.6035 -1.2742
 6566TIP3    H219663   5.803   1.556   1.812 -0.9133 -0.5272  0.9290
 6567TIP3   OH219664  -0.009   4.457   3.440 -0.0390  0.1860  0.1422
 6567TIP3    H119665  -0.008   4.382   3.500 -0.7452 -0.6088 -0.7912
 6567TIP3    H219666   0.043   4.427   3.365 -1.6949 -0.0537 -0.9767
 6568TIP3   OH219667   2.196   1.631   0.200 -0.0626 -0.0299  0.0332
 6568TIP3    H119668   2.262   1.622   0.131  0.4631  0.7867  0.4046
 6568TIP3    H219669   2.140   1.555   0.191  0.3996 -0.2679 -0.8756
 6569TIP3   OH219670   5.900   3.200   0.888 -0.0028 -0.2444  0.0196
 6569TIP3    H119671   5.889   3.240   0.974 -0.4725  2.1490 -1.0755
 6569TIP3    H219672   5.810   3.182   0.859  0.0948 -0.1083 -0.3735
 6570TIP3   OH219673   2.662   3.013   5.113  0.0714  0.3252 -0.1381
 6570TIP3    H119674   2.626   3.073   5.178  0.6859 -0.3158  0.8241
 6570TIP3    H219675   2.650   2.926   5.151  1.4215  0.0045 -0.3755
 6571TIP3   OH219676   3.723   2.637   3.128  0.2154 -0.0233  0.3965
 6571TIP3    H119677   3.807   2.596   3.147 -0.5199 -1.5685  0.4973
 6571TIP3    H219678   3.670   2.566   3.091 -0.5542  1.2914 -1.1301
 6572TIP3   OH219679   0.895   2.944   4.407 -0.1276  0.2717  0.1140
 6572TIP3    H119680   0.873   2.859   4.369  1.6543  0.1067 -0.6555
 6572TIP3    H219681   0.941   2.922   4.488  0.0262  0.5092  0.0911
 6573TIP3   OH219682   1.779   1.685   2.844  0.4887  0.1919 -0.1732
 6573TIP3    H119683   1.748   1.768   2.807 -0.6640  0.5098  1.3713
 6573TIP3    H219684   1.827   1.711   2.923  0.4100 -0.5907  0.1378
 6574TIP3   OH219685   6.187   2.450   2.680 -0.4284  0.3441 -0.1893
 6574TIP3    H119686   6.112   2.470   2.624 -0.0075  2.2678 -0.1423
 6574TIP3    H219687   6.219   2.365   2.649 -1.1460  0.6449 -1.8151
 6575TIP3   OH219688   6.757   1.961   4.283 -0.0159 -0.1593  0.1946
 6575TIP3    H119689   6.849   1.983   4.266  0.1665 -0.1848  1.0843
 6575TIP3    H219690   6.760   1.877   4.328 -0.4694 -0.1260  0.2962
 6576TIP3   OH219691   5.201   2.928   4.522 -0.4746 -0.0807  0.0015
 6576TIP3    H119692   5.174   2.895   4.437 -2.4269  2.7744 -0.6261
 6576TIP3    H219693   5.297   2.927   4.520 -0.4274  1.2176 -2.8599
 6577TIP3   OH219694   3.833   0.648   0.125 -0.1809 -0.3747  0.0053
 6577TIP3    H119695   3.833   0.677   0.033  0.1277  1.1136  0.4402
 6577TIP3    H219696   3.897   0.578   0.128 -1.4397 -1.6536 -1.2464
 6578TIP3   OH219697   4.123   0.153   2.909  0.5611  0.0661 -0.0613
 6578TIP3    H119698   4.180   0.085   2.945  0.1757  0.3306  1.0958
 6578TIP3    H219699   4.182   0.224   2.886  0.7386  0.2508  0.9230
 6579TIP3   OH219700   4.156   0.982   0.242  0.1800  0.9179 -0.4058
 6579TIP3    H119701   4.196   0.896   0.228 -0.0020  0.7084  0.3270
 6579TIP3    H219702   4.062   0.968   0.229  0.3283  1.4456 -2.2892
 6580TIP3   OH219703   1.064   2.860   2.204 -0.1632 -0.2207  0.0057
 6580TIP3    H119704   1.132   2.906   2.155 -0.5104  1.8316  1.2996
 6580TIP3    H219705   1.112   2.807   2.267  0.3193  1.5043  1.1687
 6581TIP3   OH219706   1.502   3.930   5.625  0.4800  0.5287  0.0360
 6581TIP3    H119707   1.551   4.008   5.602  1.3910  0.6360  2.1600
 6581TIP3    H219708   1.566   3.871   5.664 -0.5048 -0.6129  0.0037
 6582TIP3   OH219709   2.278   0.211   1.611 -0.2885  0.1277 -0.4032
 6582TIP3    H119710   2.357   0.182   1.657 -0.4634  0.6333  0.2403
 6582TIP3    H219711   2.207   0.185   1.669 -0.6175 -0.5192 -1.0841
 6583TIP3   OH219712   0.024   5.169   5.276  0.4010 -1.0579 -0.4375
 6583TIP3    H119713   0.092   5.182   5.342 -0.5848  0.1245  0.3892
 6583TIP3    H219714   0.068   5.121   5.206  1.9178 -0.8731  0.3379
 6584TIP3   OH219715   4.834   6.143   5.787 -0.3460  0.0075 -0.5945
 6584TIP3    H119716   4.905   6.100   5.739  0.2042 -0.7305  0.8129
 6584TIP3    H219717   4.856   6.129   5.880 -1.8940  0.4895 -0.1237
 6585TIP3   OH219718   0.737   5.570   1.187 -0.1759  0.0437  0.8572
 6585TIP3    H119719   0.768   5.653   1.224 -0.8058  1.3867 -1.3783
 6585TIP3    H219720   0.803   5.547   1.121 -1.7265  0.7677 -1.0679
 6586TIP3   OH219721   5.695   6.000   5.667  0.0983  0.4247  0.2083
 6586TIP3    H119722   5.746   6.012   5.587  1.3138  1.1282  1.0594
 6586TIP3    H219723   5.703   5.906   5.687  1.6886  0.6354  0.7041
 6587TIP3   OH219724   1.811   5.002   0.295 -0.1472  0.0176 -0.3225
 6587TIP3    H119725   1.753   4.925   0.297  1.6284 -1.4140 -1.1040
 6587TIP3    H219726   1.841   5.010   0.385  0.8120 -1.1791 -0.5048
 6588TIP3   OH219727   2.295   5.881   3.610  0.4467 -0.5668 -0.0963
 6588TIP3    H119728   2.311   5.932   3.689 -0.5950 -0.5095  0.0935
 6588TIP3    H219729   2.251   5.943   3.551  2.3430 -0.2283 -1.2218
 6589TIP3   OH219730   7.214   6.088   1.293 -0.3538  0.0833  0.1140
 6589TIP3    H119731   7.270   6.071   1.368 -1.2250  0.3415  0.8467
 6589TIP3    H219732   7.138   6.134   1.330 -0.9583 -0.0948 -0.8702
 6590TIP3   OH219733   2.387   1.172   2.219 -0.3256  0.0758 -0.1322
 6590TIP3    H119734   2.461   1.191   2.276 -0.5971  1.4474 -0.2009
 6590TIP3    H219735   2.310   1.187   2.274 -0.5781 -1.6034  0.0216
 6591TIP3   OH219736   0.418   2.117   2.725 -0.2812  0.0436  0.7002
 6591TIP3    H119737   0.463   2.109   2.641 -0.7210  0.9884  0.3641
 6591TIP3    H219738   0.482   2.086   2.790  0.2995 -0.0555  0.0862
 6592TIP3   OH219739   3.366   3.567   3.146 -0.1263 -0.3431 -0.2095
 6592TIP3    H119740   3.335   3.644   3.194  0.0640 -0.3509 -0.0728
 6592TIP3    H219741   3.432   3.602   3.086 -0.4483 -0.3147 -0.5550
 6593TIP3   OH219742   6.101   4.106   4.440  0.0395  0.5611 -0.4417
 6593TIP3    H119743   6.117   4.198   4.416  1.9653  0.6950  1.0759
 6593TIP3    H219744   6.131   4.056   4.364 -2.1856  1.1498 -1.8063
 6594TIP3   OH219745   5.366   5.478   5.716 -0.3194  0.5114 -0.6369
 6594TIP3    H119746   5.364   5.521   5.630  0.8151 -0.3873 -1.1533
 6594TIP3    H219747   5.393   5.546   5.777  1.4049  0.5951 -1.4278
 6595TIP3   OH219748   3.675   4.094   1.641  0.4007 -0.5980  0.0400
 6595TIP3    H119749   3.760   4.054   1.658  0.3918 -0.5272  0.2443
 6595TIP3    H219750   3.616   4.019   1.625 -0.1247 -0.8181  2.5891
 6596TIP3   OH219751   4.406   1.593   5.131  0.1154  0.3479  0.5395
 6596TIP3    H119752   4.495   1.601   5.165  0.4117  1.1513 -0.4120
 6596TIP3    H219753   4.350   1.619   5.205  0.6663 -0.0026  1.0862
 6597TIP3   OH219754   4.441   3.663   2.657 -0.0101 -0.2599  0.2971
 6597TIP3    H119755   4.479   3.677   2.570 -0.4080  1.1389  0.3173
 6597TIP3    H219756   4.511   3.622   2.707  0.4676 -0.4157 -0.4799
 6598TIP3   OH219757   0.578   0.331   0.499  0.3123  0.3823 -0.2516
 6598TIP3    H119758   0.664   0.366   0.521 -0.1673  0.4355  1.7362
 6598TIP3    H219759   0.516   0.396   0.532 -0.5146 -0.1905 -0.6377
 6599TIP3   OH219760   3.241   1.520   3.749  0.1796  0.1910  0.5184
 6599TIP3    H119761   3.209   1.553   3.833  0.7788  0.4873  0.6355
 6599TIP3    H219762   3.162   1.497   3.700 -0.1884  0.4430  0.9906
 6600TIP3   OH219763   4.470   3.089   1.524  0.2800  0.7373  0.7174
 6600TIP3    H119764   4.494   3.054   1.610  0.9594  1.4544  0.8440
 6600TIP3    H219765   4.538   3.057   1.466 -0.6670 -0.4729  0.2555
 6601TIP3   OH219766   4.571   4.104   5.647 -0.2978 -0.0050  0.2361
 6601TIP3    H119767   4.588   4.178   5.704 -0.6255  0.8692 -0.7763
 6601TIP3    H219768   4.477   4.087   5.656 -0.2225 -0.3150  0.4721
 6602TIP3   OH219769   3.904   3.232   4.067  0.2893 -0.2190 -0.6688
 6602TIP3    H119770   3.979   3.178   4.045  0.8289 -0.7993  2.1588
 6602TIP3    H219771   3.829   3.173   4.064  0.6588 -0.8298  0.8841
 6603TIP3   OH219772   1.170   4.572   3.414 -0.0973 -0.2836  0.3547
 6603TIP3    H119773   1.106   4.568   3.343  1.1316 -1.2414 -0.7402
 6603TIP3    H219774   1.175   4.483   3.448 -1.9040  0.4559  2.8524
 6604TIP3   OH219775   5.226   6.221   0.254  0.4703 -0.1395 -0.2136
 6604TIP3    H119776   5.255   6.312   0.245  0.2289 -0.1057 -0.6611
 6604TIP3    H219777   5.197   6.214   0.345  1.8631 -0.1677  0.2575
 6605TIP3   OH219778   4.313   3.539   4.609 -0.5651  0.0940 -0.3584
 6605TIP3    H119779   4.246   3.534   4.541 -0.0450  0.3369 -0.8949
 6605TIP3    H219780   4.383   3.482   4.578 -1.3509 -1.8475  1.1700
 6606TIP3   OH219781   6.567   5.599   5.029  0.6670 -0.1887  0.6975
 6606TIP3    H119782   6.619   5.629   4.955 -1.1578 -2.4770 -1.6787
 6606TIP3    H219783   6.489   5.654   5.028  0.4274 -0.5245  0.6172
 6607TIP3   OH219784   0.987   4.769   0.307  0.3826 -0.2899  0.9264
 6607TIP3    H119785   1.007   4.714   0.383  1.4724  0.1572  0.9877
 6607TIP3    H219786   1.032   4.725   0.234  0.8329  0.2291  0.8831
 6608TIP3   OH219787   3.395   6.684   1.848  0.1764 -0.0549  0.2151
 6608TIP3    H119788   3.341   6.609   1.873 -0.7811  1.2197  2.1884
 6608TIP3    H219789   3.438   6.656   1.767 -1.6529 -1.9786 -0.1865
 6609TIP3   OH219790   0.226   5.263   1.184 -0.1358  0.1716 -0.6004
 6609TIP3    H119791   0.305   5.286   1.234  0.2348  0.2889 -1.2238
 6609TIP3    H219792   0.196   5.181   1.223  0.0195  0.3707 -0.0457
 6610TIP3   OH219793   6.844   5.711   3.456 -0.0453 -0.4861  0.2840
 6610TIP3    H119794   6.814   5.683   3.370 -0.2277 -1.3668  0.6267
 6610TIP3    H219795   6.855   5.630   3.506  1.8581 -0.1282  0.5308
 6611TIP3   OH219796   5.478   4.413   0.746  0.5065 -0.5537  0.0786
 6611TIP3    H119797   5.533   4.484   0.714 -0.7511  1.1477  1.5254
 6611TIP3    H219798   5.440   4.374   0.667  0.4298  1.0431 -0.6996
 6612TIP3   OH219799   5.920   6.371   0.279 -0.3707  0.1168 -0.1691
 6612TIP3    H119800   5.970   6.390   0.200  0.3571 -0.6942  0.0826
 6612TIP3    H219801   5.904   6.276   0.274 -0.7511  0.1463  0.4093
 6613TIP3   OH219802   4.971   6.395   5.147 -0.1140 -0.4149 -0.3990
 6613TIP3    H119803   4.946   6.403   5.239 -0.2577  1.0209 -0.5459
 6613TIP3    H219804   5.046   6.335   5.148  1.0939  1.0109  0.9019
 6614TIP3   OH219805   6.157   4.805   0.474  0.2128 -0.0804 -0.0652
 6614TIP3    H119806   6.095   4.872   0.505 -0.6901 -1.3953  1.0997
 6614TIP3    H219807   6.161   4.818   0.380 -0.1445  1.4319  0.0953
 6615TIP3   OH219808   5.602   0.952   2.118  0.2987  0.3081 -0.3803
 6615TIP3    H119809   5.616   0.937   2.025 -0.9676 -1.6874 -0.2962
 6615TIP3    H219810   5.656   0.885   2.161  0.1814  0.6433  0.2970
 6616TIP3   OH219811   4.731   3.200   0.795  0.6148  0.3301  0.3615
 6616TIP3    H119812   4.777   3.182   0.877  1.2788  1.0648  0.1625
 6616TIP3    H219813   4.762   3.286   0.768  1.3089 -0.3953 -1.2832
 6617TIP3   OH219814   1.811   2.079   4.115  0.6339 -0.4030  0.1193
 6617TIP3    H119815   1.844   2.034   4.037  0.9051  0.4243 -0.2474
 6617TIP3    H219816   1.889   2.105   4.164  0.5290  0.7743 -0.3057
 6618TIP3   OH219817   3.116   0.069   2.605  0.4652 -0.2621  0.3419
 6618TIP3    H119818   3.136   0.005   2.537 -0.5048 -1.7400  1.3792
 6618TIP3    H219819   3.025   0.052   2.628  0.4161  1.0085  1.1771
 6619TIP3   OH219820   5.160   6.170   1.193 -0.0067  0.0052 -0.0418
 6619TIP3    H119821   5.255   6.158   1.199 -0.0263  0.4266  1.7343
 6619TIP3    H219822   5.124   6.085   1.217 -0.0686  0.5857  2.0613
 6620TIP3   OH219823   3.855   3.181   5.700  0.7998 -0.0007  0.2338
 6620TIP3    H119824   3.800   3.112   5.663  0.2555  1.4946 -1.8662
 6620TIP3    H219825   3.844   3.171   5.795 -2.0867 -0.5535 -0.0672
 6621TIP3   OH219826   5.935   6.431   2.535 -0.2075 -0.6878  0.2796
 6621TIP3    H119827   6.024   6.396   2.538  1.1014  2.0501 -1.7593
 6621TIP3    H219828   5.903   6.408   2.448  0.0733  1.4808 -0.4816
 6622TIP3   OH219829   3.854   2.402   1.079  0.5333  0.2261  0.9995
 6622TIP3    H119830   3.900   2.348   1.015 -0.4259 -0.9078  1.2342
 6622TIP3    H219831   3.863   2.491   1.045  0.5826 -0.2799 -0.3864
 6623TIP3   OH219832   6.990   5.149   1.775 -0.0057 -0.5825 -0.4421
 6623TIP3    H119833   7.005   5.242   1.759  0.6959 -0.6830 -0.3687
 6623TIP3    H219834   6.897   5.137   1.756 -0.0717  0.1049 -0.5871
 6624TIP3   OH219835   3.109   6.315   0.899 -0.3099 -0.0761 -0.2680
 6624TIP3    H119836   3.058   6.270   0.967  1.9703 -1.3243  0.7230
 6624TIP3    H219837   3.163   6.247   0.860  0.2226  1.0909 -1.6648
 6625TIP3   OH219838   6.074   2.059   0.295 -0.3954  0.6114 -0.0810
 6625TIP3    H119839   6.167   2.081   0.297 -0.3622  0.5561  2.7751
 6625TIP3    H219840   6.033   2.130   0.245  0.8328  2.2205  1.1225
 6626TIP3   OH219841   1.180   5.054   1.785  0.0874 -0.2342  0.4551
 6626TIP3    H119842   1.172   5.147   1.806  1.2195  0.0232 -0.1518
 6626TIP3    H219843   1.126   5.042   1.707 -0.7738 -0.2914  1.0489
 6627TIP3   OH219844   3.956   1.411   5.835 -0.3585  0.1271  0.5794
 6627TIP3    H119845   3.864   1.395   5.856 -0.0370 -1.8261  0.6940
 6627TIP3    H219846   3.988   1.327   5.802  0.7962  1.3786 -1.7471
 6628TIP3   OH219847   2.103   0.626   1.372 -0.1989 -0.1549  0.1812
 6628TIP3    H119848   2.141   0.539   1.386 -1.7839 -0.6251  2.1431
 6628TIP3    H219849   2.168   0.687   1.408 -0.6510 -0.8535  2.3940
 6629TIP3   OH219850   7.107   4.590   5.340 -0.6111  0.0045 -0.0056
 6629TIP3    H119851   7.029   4.579   5.394 -1.2148 -0.2773 -0.9006
 6629TIP3    H219852   7.084   4.659   5.278  0.4083  0.9791  0.6742
 6630TIP3   OH219853   2.986   1.783   0.348  0.1266  0.4114  0.0540
 6630TIP3    H119854   2.963   1.718   0.413 -1.4471  1.2954  0.4484
 6630TIP3    H219855   3.025   1.733   0.276 -1.1743 -0.9935  0.2711
 6631TIP3   OH219856   5.737   2.303   1.400  0.2141 -0.2126  0.6529
 6631TIP3    H119857   5.778   2.310   1.313  0.8625 -0.1176  0.9588
 6631TIP3    H219858   5.707   2.213   1.404  1.4937 -0.6503  0.8868
 6632TIP3   OH219859   0.909   1.514   3.376  0.7667 -0.0131  0.1430
 6632TIP3    H119860   0.960   1.594   3.370  1.8521 -0.5654  1.2945
 6632TIP3    H219861   0.965   1.447   3.336 -0.0634 -0.2331 -0.6775
 6633TIP3   OH219862   4.828   1.500   5.249  0.2969  0.1324 -0.0057
 6633TIP3    H119863   4.737   1.483   5.273  0.1671  0.1463 -0.4770
 6633TIP3    H219864   4.855   1.572   5.306 -0.2559  0.7133 -0.4644
 6634TIP3   OH219865   5.322   5.371   4.024  0.1835  0.2317  0.4535
 6634TIP3    H119866   5.268   5.441   3.988  2.3839  1.4175 -0.7763
 6634TIP3    H219867   5.286   5.291   3.987  0.1931  1.1207 -1.6229
 6635TIP3   OH219868   4.796   0.949   2.600 -0.1236 -0.4704 -0.5276
 6635TIP3    H119869   4.831   0.883   2.660 -1.2760 -0.9413 -0.3524
 6635TIP3    H219870   4.749   0.899   2.533  0.9436  0.0614 -1.7254
 6636TIP3   OH219871   0.650   2.822   3.789  0.1128  0.3438 -0.4644
 6636TIP3    H119872   0.603   2.740   3.806  0.4753  0.1881 -0.1947
 6636TIP3    H219873   0.604   2.887   3.843 -1.2257  0.6897 -1.9338
 6637TIP3   OH219874   5.480   3.218   4.153  0.2769  0.2479  0.6097
 6637TIP3    H119875   5.483   3.200   4.247 -0.9391 -0.9741  0.4545
 6637TIP3    H219876   5.409   3.282   4.143  2.6686  3.1653  0.8314
 6638TIP3   OH219877   6.656   4.034   0.298  0.1940 -0.3373  0.2867
 6638TIP3    H119878   6.569   4.048   0.335  0.1325  0.7433 -0.2575
 6638TIP3    H219879   6.704   4.114   0.319  0.8412 -0.6364 -0.0394
 6639TIP3   OH219880   6.210   6.701   2.024 -0.1057  0.0061 -0.6905
 6639TIP3    H119881   6.136   6.761   2.028 -1.0106 -1.1261  0.5504
 6639TIP3    H219882   6.233   6.698   1.931 -1.8679  0.1054 -1.1688
 6640TIP3   OH219883   2.903   0.254   0.055  0.5711  0.2618  0.2770
 6640TIP3    H119884   2.809   0.235   0.056  0.8560 -1.2763  0.3947
 6640TIP3    H219885   2.936   0.213   0.135  1.4107  0.3485 -0.0186
 6641TIP3   OH219886   4.203   3.771   5.491  0.4241 -0.0919 -0.1703
 6641TIP3    H119887   4.202   3.690   5.440  1.4652  0.2675 -0.7923
 6641TIP3    H219888   4.160   3.835   5.434  1.0880  0.1735 -0.3906
 6642TIP3   OH219889   0.660   2.812   1.096  0.0528  0.3290 -0.2910
 6642TIP3    H119890   0.655   2.789   1.189 -0.5020  0.1565 -0.3600
 6642TIP3    H219891   0.661   2.728   1.051 -0.1525  0.4179 -0.4619
 6643TIP3   OH219892   4.241   3.407   0.171 -0.4995  0.2460 -0.2442
 6643TIP3    H119893   4.296   3.330   0.157  0.7708  0.8302  1.3007
 6643TIP3    H219894   4.261   3.465   0.097 -0.1146 -0.1567 -0.4568
 6644TIP3   OH219895   5.352   0.032   0.680  0.0251  0.3732  0.0555
 6644TIP3    H119896   5.442   0.060   0.666 -0.2049  1.0358 -0.1556
 6644TIP3    H219897   5.339  -0.040   0.618  0.5103  0.0457  0.3309
 6645TIP3   OH219898   3.618   1.857   4.435  0.4018  0.7966 -0.1160
 6645TIP3    H119899   3.544   1.911   4.407  0.9772  1.3999 -0.5176
 6645TIP3    H219900   3.641   1.805   4.358 -0.2966 -0.2147  0.3377
 6646TIP3   OH219901   1.341   4.120   4.181  0.3389  0.2916 -0.4224
 6646TIP3    H119902   1.355   4.172   4.102 -0.4089  0.0682 -0.7090
 6646TIP3    H219903   1.425   4.124   4.228  1.6368 -1.5586 -2.3926
 6647TIP3   OH219904   0.173   4.343   5.580 -0.6743  0.1840  0.0694
 6647TIP3    H119905   0.160   4.320   5.672  1.0904 -3.8104 -0.4863
 6647TIP3    H219906   0.227   4.422   5.582  0.5046 -0.5984  2.5305
 6648TIP3   OH219907   4.301   2.978   0.198 -0.3445 -0.0084  0.4206
 6648TIP3    H119908   4.233   2.976   0.130  0.7095 -2.2303 -0.6678
 6648TIP3    H219909   4.382   2.998   0.151  0.3329 -1.1600  1.0561
 6649TIP3   OH219910   7.086   5.920   5.745  0.1459 -0.3413  0.5517
 6649TIP3    H119911   7.164   5.893   5.793  2.1242 -0.2278 -2.3662
 6649TIP3    H219912   7.029   5.843   5.747  0.7238 -0.7628  1.8786
 6650TIP3   OH219913   6.908   2.599   0.868 -0.5505 -0.2973 -0.4707
 6650TIP3    H119914   6.813   2.596   0.866 -0.6523  0.8428 -3.6786
 6650TIP3    H219915   6.936   2.519   0.823 -0.0157 -0.3146 -0.1146
 6651TIP3   OH219916   2.477   0.599   0.835  0.2063 -0.5404 -0.1592
 6651TIP3    H119917   2.523   0.681   0.853  0.6247 -0.4377 -1.5630
 6651TIP3    H219918   2.545   0.539   0.805 -0.4766 -0.4511 -2.0535
 6652TIP3   OH219919   0.911   0.314   2.690 -0.2170 -0.2073  0.0388
 6652TIP3    H119920   0.864   0.383   2.642  0.1663 -1.0434 -1.6331
 6652TIP3    H219921   1.000   0.348   2.699  0.3907 -1.0236 -2.1529
 6653TIP3   OH219922   6.146   5.844   4.162  0.1083  0.3274  0.6156
 6653TIP3    H119923   6.142   5.776   4.229 -2.8602  0.1943  0.4383
 6653TIP3    H219924   6.220   5.899   4.188  0.1100 -0.6941  3.0264
 6654TIP3   OH219925   0.359   5.203   2.235 -0.4330 -0.4774  0.2824
 6654TIP3    H119926   0.392   5.122   2.276 -0.4074 -1.5640 -1.7743
 6654TIP3    H219927   0.337   5.177   2.146  1.0400  2.1319 -0.9523
 6655TIP3   OH219928   5.139   3.693   2.352  0.6948 -0.6896  0.4115
 6655TIP3    H119929   5.155   3.784   2.327 -1.5619 -0.4870 -0.5524
 6655TIP3    H219930   5.194   3.679   2.429  1.9775  1.1021 -0.1179
 6656TIP3   OH219931   6.128   1.675   5.796 -0.3289 -0.3548 -0.0689
 6656TIP3    H119932   6.134   1.655   5.890 -0.2362 -1.2498 -0.2547
 6656TIP3    H219933   6.038   1.704   5.783 -0.3908 -0.3973  0.2652
 6657TIP3   OH219934   7.143   1.330   4.144 -0.4023 -0.3372 -0.2393
 6657TIP3    H119935   7.145   1.265   4.215 -1.0780 -0.5010 -0.3646
 6657TIP3    H219936   7.157   1.279   4.064 -0.8877 -0.3278 -0.3337
 6658TIP3   OH219937   5.823   0.629   3.350 -0.7988 -0.2061  0.3045
 6658TIP3    H119938   5.734   0.649   3.379 -1.0095 -1.2950  0.4515
 6658TIP3    H219939   5.857   0.571   3.418  0.7761  1.7962  1.3392
 6659TIP3   OH219940   0.565   3.573   3.939  0.6519 -0.1100  0.5244
 6659TIP3    H119941   0.512   3.647   3.969  2.4057  1.4485 -0.0564
 6659TIP3    H219942   0.515   3.496   3.966 -1.5969  1.2494  0.5220
 6660TIP3   OH219943   4.284   6.220   5.758  0.6604  0.0893  0.0556
 6660TIP3    H119944   4.250   6.221   5.668  0.8943  2.1761 -0.0561
 6660TIP3    H219945   4.215   6.262   5.810  0.6153 -0.9138  0.8421
 6661TIP3   OH219946   3.446   3.516   5.537  0.7475 -0.5470  0.2257
 6661TIP3    H119947   3.409   3.449   5.478 -1.5321  1.3564 -0.6391
 6661TIP3    H219948   3.530   3.539   5.496 -0.2189 -0.1574 -1.6284
 6662TIP3   OH219949   1.242   3.404   4.212 -0.4325  0.3065  0.0129
 6662TIP3    H119950   1.289   3.485   4.194 -1.2856  0.8044 -0.0225
 6662TIP3    H219951   1.197   3.421   4.295 -2.5593  0.7756 -1.1675
 6663TIP3   OH219952   1.717   0.151   3.155 -0.2636  0.1888 -0.0838
 6663TIP3    H119953   1.627   0.137   3.186  0.3055 -1.4839  0.9762
 6663TIP3    H219954   1.769   0.153   3.235  0.5425  2.4930 -0.5914
 6664TIP3   OH219955   2.451   4.407   0.879  0.4151 -0.6418  0.8750
 6664TIP3    H119956   2.408   4.398   0.794  0.1902 -1.6214  1.0826
 6664TIP3    H219957   2.455   4.502   0.894 -3.8310 -0.4554  1.9375
 6665TIP3   OH219958   4.139   5.796   1.185  0.4385 -0.1133 -0.2357
 6665TIP3    H119959   4.143   5.891   1.187  1.7694 -0.1232 -1.0471
 6665TIP3    H219960   4.206   5.770   1.121  0.7286 -1.6124  0.6125
 6666TIP3   OH219961   4.072   5.678   3.421 -0.6367 -0.3714  0.0933
 6666TIP3    H119962   4.026   5.605   3.379 -1.4649 -0.4465  1.0780
 6666TIP3    H219963   4.002   5.730   3.460  0.0752 -0.1451  1.0953
 6667TIP3   OH219964   5.353   0.240   2.216  0.0747 -0.2990  0.6936
 6667TIP3    H119965   5.258   0.229   2.207  0.0146 -0.0453  0.9947
 6667TIP3    H219966   5.389   0.208   2.134 -0.4037  1.3167 -0.1756
 6668TIP3   OH219967   2.968   2.095   2.186  0.1812  0.6010  0.3244
 6668TIP3    H119968   2.974   2.027   2.253  0.1307 -0.0778 -0.3618
 6668TIP3    H219969   2.910   2.161   2.225  0.9333  0.6931  1.3545
 6669TIP3   OH219970   0.348   4.728   0.115  0.2287  0.1756 -0.2340
 6669TIP3    H119971   0.286   4.655   0.107 -1.5872  1.2845  2.2638
 6669TIP3    H219972   0.292   4.806   0.126  2.0893  1.5638 -0.0936
 6670TIP3   OH219973   6.607   4.986   0.741  0.4039  0.8974  0.6229
 6670TIP3    H119974   6.672   5.031   0.795  0.2156  1.5757  0.2853
 6670TIP3    H219975   6.586   4.907   0.791  4.3089 -1.4550 -0.9350
 6671TIP3   OH219976   6.281   2.599   3.359  0.2782  0.0062 -0.2707
 6671TIP3    H119977   6.273   2.635   3.271 -0.1956 -0.9115 -0.6037
 6671TIP3    H219978   6.234   2.516   3.356 -0.4117  0.3267  1.0591
 6672TIP3   OH219979   4.245   4.950   3.981 -0.2643  0.1024 -0.0060
 6672TIP3    H119980   4.192   4.987   4.051 -1.1950  0.1922 -0.7389
 6672TIP3    H219981   4.317   5.012   3.969 -0.0006 -0.0090  0.9825
 6673TIP3   OH219982   6.165   3.995   4.179  0.5794  0.4632  0.3588
 6673TIP3    H119983   6.124   4.059   4.122  0.3369 -0.4672 -0.5452
 6673TIP3    H219984   6.251   3.979   4.140  0.5739  0.1219  0.4796
 6674TIP3   OH219985   1.901   6.780   5.619  0.1278 -0.3535  0.2294
 6674TIP3    H119986   1.862   6.722   5.684 -0.2915 -1.3727 -0.8994
 6674TIP3    H219987   1.859   6.756   5.537  0.3621  1.1726 -0.3705
 6675TIP3   OH219988   5.801   2.774   5.301  0.3447 -0.1384 -0.3352
 6675TIP3    H119989   5.763   2.862   5.311  1.2081  0.1557  0.4553
 6675TIP3    H219990   5.775   2.727   5.380  0.1686 -0.4946 -0.6015
 6676TIP3   OH219991   6.558   1.910   2.709 -0.2313  0.2628  0.0728
 6676TIP3    H119992   6.596   1.973   2.648 -0.3770  0.3484  0.0692
 6676TIP3    H219993   6.463   1.926   2.705 -0.4784 -1.2318 -1.3917
 6677TIP3   OH219994   7.000   5.783   1.380  0.7115  0.2342  0.4470
 6677TIP3    H119995   6.984   5.693   1.352 -1.6206  0.8041 -0.2175
 6677TIP3    H219996   7.076   5.777   1.438  1.8693 -1.8537 -1.1596
 6678TIP3   OH219997   6.597   4.546   2.659  0.1565  0.0896  0.4096
 6678TIP3    H119998   6.568   4.593   2.581 -0.5475 -1.5222 -0.3470
 6678TIP3    H219999   6.626   4.615   2.719  2.9539  1.3549 -2.1126
 6679TIP3   OH220000   0.215   6.601   5.556  0.3176 -0.3893 -0.4926
 6679TIP3    H120001   0.190   6.511   5.580 -0.2381  0.0832  0.8043
 6679TIP3    H220002   0.226   6.598   5.462 -1.2573 -1.4802 -0.6905
 6680TIP3   OH220003   5.700   2.606   4.262 -0.2336 -0.0503 -0.3531
 6680TIP3    H120004   5.782   2.655   4.262  0.6243 -1.3815  1.0126
 6680TIP3    H220005   5.701   2.560   4.178  0.3728  0.0537 -0.4136
 6681TIP3   OH220006   5.078   5.934   0.331 -0.2882 -0.2198 -0.3943
 6681TIP3    H120007   5.133   6.010   0.348  0.1266  0.1045 -2.8359
 6681TIP3    H220008   5.005   5.968   0.279 -1.1056 -1.1975  0.0601
 6682TIP3   OH220009   3.844   1.943   4.757 -0.2417 -0.4819  0.3682
 6682TIP3    H120010   3.795   2.005   4.811 -0.5155 -0.9550  0.6672
 6682TIP3    H220011   3.912   1.909   4.815 -1.6415 -2.3397  1.0000
 6683TIP3   OH220012   5.989   5.597   3.854 -0.1643  0.6780 -0.5207
 6683TIP3    H120013   6.021   5.507   3.856 -0.9981  0.3467 -1.1492
 6683TIP3    H220014   5.918   5.599   3.917  0.5376  1.1907  0.2718
 6684TIP3   OH220015   5.327   1.734   2.005  0.1599 -0.4028 -0.0421
 6684TIP3    H120016   5.267   1.750   2.078  1.8539 -1.1516  1.6147
 6684TIP3    H220017   5.398   1.797   2.019  1.0124 -1.2598 -0.4282
 6685TIP3   OH220018   3.551   0.504   4.524  0.1635  0.2531  0.3828
 6685TIP3    H120019   3.537   0.435   4.588 -0.6061  0.6163  0.6203
 6685TIP3    H220020   3.466   0.547   4.515  0.2625  0.2380 -0.8597
 6686TIP3   OH220021   5.029   2.375   2.228  0.3219 -0.0554 -0.3322
 6686TIP3    H120022   5.114   2.416   2.242  0.6688 -0.6677 -0.6183
 6686TIP3    H220023   4.969   2.448   2.215  0.8636  0.3752 -0.4463
 6687TIP3   OH220024   1.807   3.450   3.551 -0.4985 -0.5199  0.1139
 6687TIP3    H120025   1.714   3.427   3.545 -0.8772  1.1095 -1.1869
 6687TIP3    H220026   1.809   3.529   3.606 -0.0953  0.3570 -1.1172
 6688TIP3   OH220027   4.119   1.761   4.067 -0.2294  0.2171  1.0370
 6688TIP3    H120028   4.076   1.728   4.145 -0.3621  1.1362  1.3660
 6688TIP3    H220029   4.050   1.809   4.020  0.0517  0.3702  0.7744
 6689TIP3   OH220030   1.024   1.768   5.751 -0.2823  0.1441 -0.1844
 6689TIP3    H120031   1.061   1.759   5.838 -0.4566 -1.3169 -0.2434
 6689TIP3    H220032   1.002   1.679   5.724 -2.5696  0.7979 -0.7171
 6690TIP3   OH220033   0.944   4.337   1.885  0.3338  0.8390  0.0350
 6690TIP3    H120034   1.016   4.389   1.848  0.1680  0.0746 -1.4224
 6690TIP3    H220035   0.958   4.249   1.851  0.3786 -0.0251  2.1544
 6691TIP3   OH220036   0.307   0.311   4.355  0.5704 -0.5256  0.1986
 6691TIP3    H120037   0.221   0.319   4.398 -0.2157 -1.2413 -1.1983
 6691TIP3    H220038   0.321   0.396   4.313 -0.0213 -0.8025 -0.5747
 6692TIP3   OH220039   3.450   0.338   1.860  0.5700  0.7189 -0.1034
 6692TIP3    H120040   3.509   0.262   1.862 -1.0855 -0.6108  0.6722
 6692TIP3    H220041   3.463   0.376   1.773  1.8007 -0.1485 -0.3307
 6693TIP3   OH220042   2.119   1.987   1.759  0.3937  0.1181 -0.2958
 6693TIP3    H120043   2.149   1.920   1.697  0.3820  1.1556 -1.4550
 6693TIP3    H220044   2.033   1.957   1.787 -0.7148  0.8285 -2.7048
 6694TIP3   OH220045   0.214   4.021   1.550 -0.1232  0.2203 -0.3943
 6694TIP3    H120046   0.294   4.022   1.603  0.0408  1.3308 -0.6367
 6694TIP3    H220047   0.153   4.079   1.597  0.6077  2.6390 -2.2320
 6695TIP3   OH220048   5.365   6.419   4.837  0.1857  0.7873 -0.5020
 6695TIP3    H120049   5.328   6.497   4.796 -0.2011  0.8933  0.0460
 6695TIP3    H220050   5.289   6.363   4.854  0.5684 -0.2619 -2.0101
 6696TIP3   OH220051   6.735   5.679   4.396 -0.1636  0.2986 -0.1498
 6696TIP3    H120052   6.725   5.584   4.384  2.1360 -0.2715  1.6291
 6696TIP3    H220053   6.660   5.717   4.350 -1.9368 -2.4294  0.2275
 6697TIP3   OH220054   3.025   0.694   0.717  0.0283  0.3233 -0.5747
 6697TIP3    H120055   3.086   0.741   0.660  0.1750 -0.0943 -0.7688
 6697TIP3    H220056   3.067   0.609   0.733 -0.8411 -0.2644 -1.3222
 6698TIP3   OH220057   0.122   5.284   4.896 -0.0688 -0.0628  0.6230
 6698TIP3    H120058   0.180   5.246   4.962  3.3558  0.9673 -1.5339
 6698TIP3    H220059   0.037   5.242   4.912  0.9383 -1.0130  4.5816
 6699TIP3   OH220060   1.468   0.138   3.274 -0.2263 -0.4867  0.1647
 6699TIP3    H120061   1.450   0.047   3.299 -1.7951 -0.5242 -0.9739
 6699TIP3    H220062   1.442   0.190   3.350 -1.0742 -0.8750  0.1499
 6700TIP3   OH220063   2.360   4.658   3.773 -0.5421 -0.0915 -0.0998
 6700TIP3    H120064   2.410   4.668   3.854 -1.2740  0.7312  0.2714
 6700TIP3    H220065   2.420   4.689   3.704 -0.4454  0.6642  0.3123
 6701TIP3   OH220066   6.495   2.041   4.376 -0.2325 -0.0913 -0.4395
 6701TIP3    H120067   6.575   2.012   4.332 -0.5375 -1.0687 -0.3662
 6701TIP3    H220068   6.465   1.964   4.426 -0.0830  0.8671  1.2237
 6702TIP3   OH220069   2.700   2.496   4.256 -0.2404 -0.4149  0.4708
 6702TIP3    H120070   2.710   2.549   4.178 -0.5417 -0.1673  0.5981
 6702TIP3    H220071   2.691   2.559   4.328 -0.7128 -0.6334  0.6070
 6703TIP3   OH220072   1.909   0.669   2.254  0.0345  0.0428 -0.3119
 6703TIP3    H120073   1.863   0.691   2.173 -1.5167 -0.1428  0.4829
 6703TIP3    H220074   1.951   0.585   2.235 -0.5492 -0.1400 -0.8356
 6704TIP3   OH220075   3.848   4.733   0.136  0.1567  0.2184 -0.4724
 6704TIP3    H120076   3.923   4.710   0.192 -0.7536 -1.7533  0.0294
 6704TIP3    H220077   3.772   4.705   0.186 -0.9194  1.8563 -1.1368
 6705TIP3   OH220078   5.288   4.530   5.088  0.2491 -0.1414  0.2421
 6705TIP3    H120079   5.223   4.472   5.048  1.3256 -1.2967  0.1018
 6705TIP3    H220080   5.299   4.600   5.024 -0.2205 -0.3954 -0.1298
 6706TIP3   OH220081   4.308   1.110   0.024 -0.4124  0.0520  0.3943
 6706TIP3    H120082   4.247   1.080  -0.042 -0.8556  1.6676  0.0254
 6706TIP3    H220083   4.264   1.094   0.107  0.1322 -1.9495  0.3414
 6707TIP3   OH220084   2.983   2.661   2.420 -0.0212 -0.5545  0.8349
 6707TIP3    H120085   3.001   2.614   2.339  0.6329 -1.2198  1.3432
 6707TIP3    H220086   2.900   2.706   2.405  0.4405 -0.0980 -0.4413
 6708TIP3   OH220087   5.142   3.731   3.579  0.1502  0.2667 -0.3886
 6708TIP3    H120088   5.066   3.775   3.539 -0.0348  0.1782 -0.1361
 6708TIP3    H220089   5.137   3.641   3.547  0.6866  0.4902 -1.1286
 6709TIP3   OH220090   1.459   2.479   1.159  0.6396  0.0233  0.1134
 6709TIP3    H120091   1.488   2.570   1.152  1.1659 -0.1231  0.3336
 6709TIP3    H220092   1.475   2.455   1.250  0.7946 -0.3836 -0.0145
 6710TIP3   OH220093   4.288   5.654   5.139 -0.7622  0.6920  0.5594
 6710TIP3    H120094   4.219   5.635   5.202 -1.8411  0.4145 -0.6539
 6710TIP3    H220095   4.294   5.574   5.086  0.4898  0.7167  0.6429
 6711TIP3   OH220096   3.259   3.183   1.775  0.1923  0.0904  0.4894
 6711TIP3    H120097   3.278   3.276   1.788 -1.1046  0.3231  0.9117
 6711TIP3    H220098   3.181   3.182   1.719  1.4504 -0.8074 -1.3579
 6712TIP3   OH220099   2.277   5.234   1.197  0.0686  0.5456  0.0404
 6712TIP3    H120100   2.287   5.324   1.166  1.7381 -0.1155 -1.5591
 6712TIP3    H220101   2.190   5.232   1.236 -0.2231  2.7187 -0.3471
 6713TIP3   OH220102   2.312   3.611   4.392 -0.0473 -0.2923 -0.6370
 6713TIP3    H120103   2.284   3.525   4.361 -2.1118 -0.5814  1.7333
 6713TIP3    H220104   2.307   3.605   4.487  0.9758  2.0875 -0.3779
 6714TIP3   OH220105   4.386   0.181   1.780 -0.7208 -0.1705  0.0136
 6714TIP3    H120106   4.431   0.097   1.773 -0.0667  0.1521  0.2560
 6714TIP3    H220107   4.411   0.228   1.701  0.1177  0.3631  0.5874
 6715TIP3   OH220108   4.159   4.193   2.208 -0.0959 -0.4141 -0.1770
 6715TIP3    H120109   4.217   4.188   2.132 -0.8128 -0.6552 -0.7280
 6715TIP3    H220110   4.217   4.210   2.282  0.8267 -1.8344 -0.5158
 6716TIP3   OH220111   0.903   6.076   3.384  0.1208  0.3882 -0.2870
 6716TIP3    H120112   0.905   6.092   3.290  1.9124 -0.3852 -0.4323
 6716TIP3    H220113   0.991   6.100   3.414  0.2427 -1.2753  0.8166
 6717TIP3   OH220114   1.361   2.468   0.444  0.0681 -0.2168  0.2516
 6717TIP3    H120115   1.423   2.418   0.391 -0.6259  0.4021 -1.2078
 6717TIP3    H220116   1.334   2.408   0.513  2.9497 -0.2330  1.5286
 6718TIP3   OH220117   4.994   2.854   1.278  1.0683 -0.9173  0.1333
 6718TIP3    H120118   5.060   2.907   1.234  1.9992 -0.9286  1.4395
 6718TIP3    H220119   4.916   2.908   1.278  1.5030 -0.2811 -0.1205
 6719TIP3   OH220120   4.603   4.390   1.581  0.4177 -0.1000 -0.2551
 6719TIP3    H120121   4.623   4.481   1.601 -2.0389  0.1560  1.4067
 6719TIP3    H220122   4.679   4.341   1.612  1.4635  1.3040 -0.5320
 6720TIP3   OH220123   1.491   0.307   0.768  0.1856  0.1792  0.7914
 6720TIP3    H120124   1.580   0.342   0.773  0.1822  0.3624 -0.2163
 6720TIP3    H220125   1.502   0.212   0.770  0.5514  0.1502 -0.9957
 6721TIP3   OH220126   2.044   5.304   5.199 -0.0613 -0.2465  0.8405
 6721TIP3    H120127   2.128   5.340   5.228 -0.1639  1.3291 -0.6500
 6721TIP3    H220128   1.980   5.372   5.220 -1.0695 -1.5667  2.2677
 6722TIP3   OH220129   6.467   0.893   2.752 -0.6326 -0.6272  0.3872
 6722TIP3    H120130   6.536   0.865   2.812 -0.8484 -1.6733  0.1760
 6722TIP3    H220131   6.509   0.955   2.693  0.0581 -1.0567  0.4229
 6723TIP3   OH220132   6.229   5.106   1.667  0.1536 -0.0264  0.2459
 6723TIP3    H120133   6.235   5.020   1.625 -1.0516 -0.1050  0.2027
 6723TIP3    H220134   6.318   5.142   1.660  0.2784 -0.5393 -1.2829
 6724TIP3   OH220135   4.115   1.250   4.024  0.1617 -0.6189 -0.0236
 6724TIP3    H120136   4.205   1.263   3.995 -0.1027 -1.1552 -1.1323
 6724TIP3    H220137   4.062   1.296   3.959 -0.3408  0.7267  1.2629
 6725TIP3   OH220138   0.166   4.635   3.056 -0.4949  0.0375  0.1656
 6725TIP3    H120139   0.203   4.707   3.005 -0.6574  0.2983  0.4178
 6725TIP3    H220140   0.079   4.664   3.081 -2.9266 -2.3232 -4.3486
 6726TIP3   OH220141   2.873   0.288   5.011  0.0141 -0.6513 -0.3301
 6726TIP3    H120142   2.783   0.260   4.993  0.2867 -1.2778 -0.7693
 6726TIP3    H220143   2.928   0.224   4.964  0.7257 -1.2213  1.2053
 6727TIP3   OH220144   3.779   6.337   2.397  0.0655 -0.2035  0.1486
 6727TIP3    H120145   3.711   6.271   2.412 -0.2254  0.1162  0.2599
 6727TIP3    H220146   3.813   6.355   2.485  0.1356 -0.1976  0.1196
 6728TIP3   OH220147   4.706   1.058   0.107  0.1598  0.4041 -0.6709
 6728TIP3    H120148   4.750   1.091   0.029  2.7080 -1.5147 -0.1863
 6728TIP3    H220149   4.777   1.023   0.161 -1.7823 -0.6887  1.3338
 6729TIP3   OH220150   1.259   3.819   2.767 -0.1696 -0.3297 -0.6214
 6729TIP3    H120151   1.296   3.833   2.680 -0.3844 -0.7175 -0.7826
 6729TIP3    H220152   1.323   3.765   2.813 -0.2803 -0.5366 -0.7093
 6730TIP3   OH220153   3.933   5.934   0.936 -0.0565  0.7353 -0.1304
 6730TIP3    H120154   3.998   6.004   0.929  0.1476  0.7046  1.2259
 6730TIP3    H220155   3.878   5.945   0.858  1.9082  0.3905 -1.6533
 6731TIP3   OH220156   3.382   3.531   4.337  0.2011 -0.2911 -0.5047
 6731TIP3    H120157   3.423   3.464   4.281 -0.0305 -0.4133 -0.5295
 6731TIP3    H220158   3.323   3.578   4.278 -0.7281 -1.0042 -0.1746
 6732TIP3   OH220159   3.559   2.988   3.863  0.0720 -0.4248  0.2934
 6732TIP3    H120160   3.600   3.005   3.948  0.2639  2.6674 -0.3067
 6732TIP3    H220161   3.625   3.016   3.799 -1.3280  0.5952 -0.7572
 6733TIP3   OH220162   5.496   6.795   2.607 -0.0495 -0.5568 -0.3419
 6733TIP3    H120163   5.566   6.789   2.672 -1.6579 -1.7506  1.3808
 6733TIP3    H220164   5.518   6.728   2.542  0.4980 -0.7870  0.0777
 6734TIP3   OH220165   2.230   1.654   3.807  0.6794 -0.4113  0.6903
 6734TIP3    H120166   2.297   1.676   3.871 -0.0209  2.4132  0.6073
 6734TIP3    H220167   2.272   1.589   3.750  3.5168  1.4460  0.4356
 6735TIP3   OH220168   0.186   2.925   4.604 -0.0950  0.1889  0.0980
 6735TIP3    H120169   0.242   2.859   4.563  0.4037 -0.3407  1.5621
 6735TIP3    H220170   0.121   2.874   4.652 -0.3072  0.7727  0.4339
 6736TIP3   OH220171   3.552   6.164   0.941 -0.0921  0.4341 -0.4096
 6736TIP3    H120172   3.585   6.076   0.955  0.0550  0.2594 -1.7603
 6736TIP3    H220173   3.490   6.178   1.013  0.8080 -0.2792  0.5341
 6737TIP3   OH220174   5.103   5.935   0.830  0.2352 -0.0473 -0.1137
 6737TIP3    H120175   5.076   6.019   0.868  1.0661  0.2666 -0.1796
 6737TIP3    H220176   5.186   5.915   0.874 -0.0108 -0.8870 -0.0308
 6738TIP3   OH220177   5.830   6.088   2.964  0.1814 -0.1329  0.0414
 6738TIP3    H120178   5.797   6.168   2.923 -0.2647 -0.5323 -0.3941
 6738TIP3    H220179   5.925   6.098   2.963  0.3596 -0.9557 -2.9040
 6739TIP3   OH220180   5.247   0.102   0.915 -0.2403  0.6342 -0.1112
 6739TIP3    H120181   5.333   0.140   0.931  1.0134 -1.2753 -1.8720
 6739TIP3    H220182   5.251   0.069   0.826 -3.1879  1.3812 -0.6145
 6740TIP3   OH220183   2.720   3.530   0.469  0.0855 -0.5044  1.3615
 6740TIP3    H120184   2.642   3.485   0.500 -1.1205 -0.1703 -0.9077
 6740TIP3    H220185   2.720   3.515   0.374  2.1734  0.4452  1.1521
 6741TIP3   OH220186   4.884   6.126   1.454 -0.0926  0.2831 -0.3628
 6741TIP3    H120187   4.930   6.049   1.422  0.0071 -0.0119  0.4692
 6741TIP3    H220188   4.791   6.105   1.443 -0.0729 -0.0869  0.1399
 6742TIP3   OH220189   6.034   2.636   0.437  0.4248 -0.1587  0.2769
 6742TIP3    H120190   6.043   2.643   0.342 -0.5829  1.4513  0.2690
 6742TIP3    H220191   6.010   2.724   0.465  0.1184 -0.7516  1.9640
 6743TIP3   OH220192   2.537   1.597   0.688 -1.2849 -0.1412  0.3882
 6743TIP3    H120193   2.466   1.536   0.709 -0.5407 -1.8144 -1.6125
 6743TIP3    H220194   2.493   1.678   0.663 -2.5649 -1.2684 -1.2001
 6744TIP3   OH220195   4.459   4.010   2.817 -0.3945 -0.4862 -0.1872
 6744TIP3    H120196   4.505   3.963   2.887 -0.0274  2.3230  1.6432
 6744TIP3    H220197   4.529   4.051   2.766 -0.7361 -0.7919 -0.9108
 6745TIP3   OH220198   3.516   1.200   2.837 -0.4670  0.2480 -0.4792
 6745TIP3    H120199   3.595   1.151   2.812  1.1668  1.0483  2.5897
 6745TIP3    H220200   3.542   1.292   2.829 -0.9878  0.5174  0.6796
 6746TIP3   OH220201   2.757   5.499   3.933 -0.4362  0.8202  0.1433
 6746TIP3    H120202   2.809   5.579   3.939  0.6080  0.1388  0.7309
 6746TIP3    H220203   2.818   5.430   3.962 -1.5240 -0.0812  0.3401
 6747TIP3   OH220204   4.191   5.448   3.636 -0.3328  0.0824  0.5858
 6747TIP3    H120205   4.167   5.361   3.668 -1.4041 -0.2308 -0.9731
 6747TIP3    H220206   4.129   5.507   3.679  0.4223  0.1097  1.6790
 6748TIP3   OH220207   2.438   5.244   2.661 -0.7677  0.6508  0.1197
 6748TIP3    H120208   2.358   5.296   2.671 -1.3350 -0.2195  0.2599
 6748TIP3    H220209   2.411   5.170   2.605 -0.3873 -0.3047  1.1592
 6749TIP3   OH220210   7.024   0.787   1.829 -0.0495 -0.1485  0.0311
 6749TIP3    H120211   6.947   0.744   1.866 -0.3329 -0.4052 -0.8351
 6749TIP3    H220212   6.993   0.873   1.802 -0.5312 -0.8784 -1.9673
 6750TIP3   OH220213   0.468   6.742   2.528 -0.0799  0.4578  0.2428
 6750TIP3    H120214   0.415   6.709   2.601 -0.0091  1.5354  0.7939
 6750TIP3    H220215   0.506   6.663   2.490  0.0626 -0.1240  1.5208
 6751TIP3   OH220216   0.504   6.696   5.593  0.4509  0.2769 -0.0500
 6751TIP3    H120217   0.484   6.750   5.518 -2.0550 -1.2071 -0.5798
 6751TIP3    H220218   0.508   6.607   5.558 -0.8757 -0.4595  1.5366
 6752TIP3   OH220219   5.716   0.253   3.223  0.0520  0.1480  0.7393
 6752TIP3    H120220   5.706   0.270   3.317 -0.9500  0.2809  0.6216
 6752TIP3    H220221   5.666   0.322   3.180  0.6968  0.2263  0.0934
 6753TIP3   OH220222   4.929   3.422   2.090  0.1849 -0.0985  0.0460
 6753TIP3    H120223   4.969   3.377   2.165 -0.6646  0.4681  0.8569
 6753TIP3    H220224   4.845   3.379   2.078 -1.5676  2.4371  2.1115
 6754TIP3   OH220225   3.337   5.572   5.154 -0.3393  0.4195  0.7350
 6754TIP3    H120226   3.388   5.567   5.235  0.9736 -0.0420 -0.0954
 6754TIP3    H220227   3.382   5.513   5.094 -2.0307 -0.2334  0.0470
 6755TIP3   OH220228   3.738   3.650   4.434  0.5868 -0.3539  0.5626
 6755TIP3    H120229   3.708   3.700   4.358  3.7023  0.0933 -0.5389
 6755TIP3    H220230   3.743   3.559   4.403 -2.7499 -1.0950  1.8293
 6756TIP3   OH220231   2.900   3.686   5.270 -0.0834 -0.0933  0.1093
 6756TIP3    H120232   2.893   3.776   5.300  2.4088 -0.1409  1.0772
 6756TIP3    H220233   2.817   3.668   5.227 -0.0817  3.1410 -1.4653
 6757TIP3   OH220234   6.824   4.689   1.143 -0.3481 -0.5977  0.1291
 6757TIP3    H120235   6.882   4.688   1.067  0.1669  1.3763  0.4527
 6757TIP3    H220236   6.877   4.650   1.213 -0.1883 -0.7535 -0.0754
 6758TIP3   OH220237   6.582   1.032   4.901  0.3120  0.2115 -0.0556
 6758TIP3    H120238   6.629   0.950   4.884 -2.1270 -0.9498 -1.8829
 6758TIP3    H220239   6.582   1.078   4.816 -1.8200  0.0991 -0.1808
 6759TIP3   OH220240   5.565   2.979   2.799  0.1748  0.1473  0.3360
 6759TIP3    H120241   5.561   3.020   2.713  1.6868 -0.4714 -0.0734
 6759TIP3    H220242   5.512   2.900   2.790  1.0482 -0.3871 -0.3437
 6760TIP3   OH220243   2.735   2.459   5.485 -0.7805 -0.3147  0.1045
 6760TIP3    H120244   2.782   2.386   5.443  1.4258 -1.3821  3.8797
 6760TIP3    H220245   2.798   2.531   5.483 -1.0082 -0.0991  0.7198
 6761TIP3   OH220246   3.741   2.303   4.738 -0.4511 -0.3305 -0.6100
 6761TIP3    H120247   3.687   2.244   4.792 -1.3588 -0.8282 -2.0143
 6761TIP3    H220248   3.764   2.251   4.661  1.4935  0.1037 -0.3766
 6762TIP3   OH220249   3.140   5.647   4.169 -0.0790 -0.2908  0.6783
 6762TIP3    H120250   3.079   5.713   4.134  1.4848  1.5981  1.3381
 6762TIP3    H220251   3.114   5.635   4.260  0.0106 -0.1389  0.7232
 6763TIP3   OH220252   4.957   2.341   5.280 -0.4756 -0.4182  0.4272
 6763TIP3    H120253   4.869   2.354   5.243 -0.1358 -1.1388 -0.6921
 6763TIP3    H220254   4.941   2.323   5.373 -1.2504  3.1513  1.1245
 6764TIP3   OH220255   3.587   2.425   2.688  0.2028 -0.0065  0.0788
 6764TIP3    H120256   3.558   2.387   2.770  0.0866 -1.1984 -0.4918
 6764TIP3    H220257   3.532   2.502   2.675 -1.1038 -0.9002  0.1744
 6765TIP3   OH220258   0.721   5.820   1.291 -0.4926 -0.3704 -0.7313
 6765TIP3    H120259   0.637   5.851   1.258 -0.0767  0.7443 -0.8240
 6765TIP3    H220260   0.770   5.901   1.311 -1.0405 -0.8448  3.5931
 6766TIP3   OH220261   7.106   4.324   2.955  0.0239 -0.1370 -0.0814
 6766TIP3    H120262   7.200   4.329   2.969 -0.4982  1.8390  4.5969
 6766TIP3    H220263   7.086   4.400   2.900  1.0850 -0.9301 -1.6572
 6767TIP3   OH220264   3.243   0.844   0.272 -0.8361  0.1265 -0.3084
 6767TIP3    H120265   3.184   0.846   0.347 -0.3575 -2.3587  0.2250
 6767TIP3    H220266   3.197   0.792   0.206 -0.0112 -0.2880 -0.5697
 6768TIP3   OH220267   5.173   2.950   5.172 -0.3308  0.2808 -0.5380
 6768TIP3    H120268   5.155   3.026   5.227 -0.2950  0.4207 -0.7211
 6768TIP3    H220269   5.090   2.933   5.127 -0.9482 -1.0010  0.9770
 6769TIP3   OH220270   5.298   4.550   5.769 -0.2081 -0.3017 -0.1317
 6769TIP3    H120271   5.390   4.554   5.742 -0.2219 -0.0548 -0.1410
 6769TIP3    H220272   5.283   4.631   5.817 -0.1158 -0.8616  0.8619
 6770TIP3   OH220273   7.033   0.300   1.359 -0.3665 -0.8054 -0.2986
 6770TIP3    H120274   7.051   0.329   1.270 -1.5807  0.0146 -0.2987
 6770TIP3    H220275   7.043   0.379   1.412 -0.5799 -1.0836  0.1649
 6771TIP3   OH220276   0.278   6.273   2.673  0.1161 -0.4332  0.2472
 6771TIP3    H120277   0.338   6.256   2.600 -0.1391 -0.8195  0.1209
 6771TIP3    H220278   0.238   6.188   2.691  0.1742 -0.3413  0.8384
 6772TIP3   OH220279   4.377   3.229   4.951 -0.2052 -0.3436 -0.0142
 6772TIP3    H120280   4.410   3.314   4.980  1.0595 -0.5048 -0.9261
 6772TIP3    H220281   4.294   3.219   4.998 -0.8947  1.8347 -0.6439
 6773TIP3   OH220282   6.595   3.203   2.145  0.3862  0.4917  0.1603
 6773TIP3    H120283   6.641   3.120   2.136  1.2579  0.4325  3.7691
 6773TIP3    H220284   6.503   3.182   2.131  0.9066 -0.2122 -2.8845
 6774TIP3   OH220285   1.401   2.580   2.006  0.2505  0.1973  0.8810
 6774TIP3    H120286   1.368   2.662   1.968 -1.9342 -0.7928  0.5159
 6774TIP3    H220287   1.407   2.520   1.931  2.2482  0.0871  1.0671
 6775TIP3   OH220288   4.168   4.454   4.027  0.2167 -0.1180 -0.1023
 6775TIP3    H120289   4.075   4.476   4.018  0.0152 -0.4631  0.9955
 6775TIP3    H220290   4.214   4.518   3.973 -0.5666  0.9993  0.5338
 6776TIP3   OH220291   6.569   2.740   4.643  0.4554  0.1740 -0.2328
 6776TIP3    H120292   6.510   2.779   4.708  2.1516  0.4882  1.1854
 6776TIP3    H220293   6.631   2.809   4.621  1.2258 -0.5969 -0.5407
 6777TIP3   OH220294   6.306   3.275   4.554 -0.5131  0.1312  0.1549
 6777TIP3    H120295   6.331   3.279   4.462  0.5259  1.3178  0.4666
 6777TIP3    H220296   6.384   3.303   4.602 -0.6692 -1.5314  1.4668
 6778TIP3   OH220297   2.725   6.261   0.714  0.1559 -0.3091  0.7229
 6778TIP3    H120298   2.806   6.308   0.733 -0.5370  0.7339  1.1589
 6778TIP3    H220299   2.656   6.325   0.729 -0.7481 -1.1447  0.2157
 6779TIP3   OH220300   4.813   2.556   2.212 -0.2880 -0.4827 -0.4114
 6779TIP3    H120301   4.723   2.575   2.239 -0.9705 -2.4417 -1.1345
 6779TIP3    H220302   4.809   2.550   2.117  0.4545 -1.2769 -0.4034
 6780TIP3   OH220303   6.738   1.180   0.283 -0.3611 -0.6002 -0.5395
 6780TIP3    H120304   6.833   1.180   0.290 -0.4512 -1.0488  1.1465
 6780TIP3    H220305   6.717   1.256   0.229  0.8253  1.2005  1.3902
 6781TIP3   OH220306   5.703   1.891   0.591  0.1778  0.4665  0.1105
 6781TIP3    H120307   5.615   1.855   0.604 -0.1043  0.3467 -1.8300
 6781TIP3    H220308   5.761   1.815   0.596 -0.0853  0.1888 -0.7851
 6782TIP3   OH220309   1.968   1.879   2.363 -0.1545 -0.2170 -0.0372
 6782TIP3    H120310   1.959   1.855   2.456 -1.1805  0.2564  0.0033
 6782TIP3    H220311   2.015   1.962   2.364 -1.7739  0.7429  0.2039
 6783TIP3   OH220312   0.109   0.726   5.104  0.0623  0.2554 -0.2105
 6783TIP3    H120313   0.122   0.818   5.125 -0.0053  0.4100 -0.8421
 6783TIP3    H220314   0.041   0.725   5.038  0.2791 -0.2269 -0.4360
 6784TIP3   OH220315   1.710   3.670   0.491  0.1220  0.0499 -0.1233
 6784TIP3    H120316   1.800   3.663   0.459  0.1176  0.8402 -0.3354
 6784TIP3    H220317   1.664   3.598   0.449  0.2712  0.6539 -1.3892
 6785TIP3   OH220318   5.495   3.656   4.242  0.2724 -0.0614  0.3548
 6785TIP3    H120319   5.545   3.707   4.179 -0.3665 -0.6423 -0.6397
 6785TIP3    H220320   5.467   3.578   4.194  1.9150 -1.8066  2.0311
 6786TIP3   OH220321   4.026   2.627   4.202  0.0525 -0.3510 -0.1663
 6786TIP3    H120322   3.973   2.550   4.184  3.0739 -2.8642  0.6838
 6786TIP3    H220323   3.963   2.695   4.226 -2.7807 -2.6235 -0.6075
 6787TIP3   OH220324   6.897   0.206   5.346 -0.0846 -0.0728 -0.3436
 6787TIP3    H120325   6.988   0.235   5.336  0.0825 -0.8200 -1.0874
 6787TIP3    H220326   6.851   0.283   5.379  0.7861  0.3549 -0.0895
 6788TIP3   OH220327   3.286   6.299   0.466 -0.1572  0.3805  0.2299
 6788TIP3    H120328   3.280   6.217   0.515 -0.7065  0.3418  0.1108
 6788TIP3    H220329   3.195   6.323   0.450  0.0139  0.5934 -0.4354
 6789TIP3   OH220330   6.585   3.111   1.231  0.0106  0.1729 -0.3618
 6789TIP3    H120331   6.548   3.173   1.168  1.8224  0.2011 -1.4958
 6789TIP3    H220332   6.510   3.071   1.274 -1.2757  0.6524 -2.0781
 6790TIP3   OH220333   0.711   1.343   5.400 -0.6375  0.2705  0.3334
 6790TIP3    H120334   0.663   1.361   5.481 -0.5969 -0.6941  0.5890
 6790TIP3    H220335   0.787   1.400   5.403 -2.6197  3.2118 -0.9430
 6791TIP3   OH220336   3.038   6.095   3.434 -0.4195  0.4903 -0.4513
 6791TIP3    H120337   3.102   6.130   3.496 -1.7336  2.9435 -0.3546
 6791TIP3    H220338   3.020   6.006   3.466  0.9524  0.6918  1.0369
 6792TIP3   OH220339   7.212   4.309   5.213 -0.3823 -0.4250  0.4084
 6792TIP3    H120340   7.196   4.384   5.270  2.5059 -0.8239  1.9198
 6792TIP3    H220341   7.137   4.251   5.229 -1.6580  1.2296  0.6952
 6793TIP3   OH220342   4.408   4.024   0.516  0.1218  0.0315  0.1103
 6793TIP3    H120343   4.363   4.041   0.434 -0.4855  0.0909  0.4516
 6793TIP3    H220344   4.346   3.974   0.569  0.6164 -0.2683  0.4225
 6794TIP3   OH220345   2.724   6.617   4.959 -0.0438  0.3703  0.0923
 6794TIP3    H120346   2.814   6.640   4.980 -0.6242  1.4932  1.4766
 6794TIP3    H220347   2.709   6.533   5.002  0.4529 -0.0406 -0.5138
 6795TIP3   OH220348   5.433   2.351   4.514 -0.3893  0.4523  0.0560
 6795TIP3    H120349   5.432   2.446   4.497  0.2028  0.5837  0.7186
 6795TIP3    H220350   5.513   2.336   4.565  0.2608 -0.6286 -1.2293
 6796TIP3   OH220351   1.387   0.274   3.502  0.4181  0.1303 -0.0671
 6796TIP3    H120352   1.434   0.209   3.554  0.5100 -0.3841 -0.7775
 6796TIP3    H220353   1.419   0.358   3.534  0.4961 -0.1715  0.6813
 6797TIP3   OH220354   5.777   3.208   5.772 -0.2319  0.3822  0.0605
 6797TIP3    H120355   5.682   3.223   5.773 -0.7881 -2.4960  0.4624
 6797TIP3    H220356   5.812   3.267   5.838 -1.7752  1.2930  0.1006
 6798TIP3   OH220357   4.000   0.602   5.052 -0.2984 -0.0674 -0.1709
 6798TIP3    H120358   3.935   0.546   5.095 -0.6761 -1.2211 -2.0670
 6798TIP3    H220359   4.039   0.653   5.122 -3.4005  0.8468  1.0605
 6799TIP3   OH220360   0.256   1.884   5.512 -0.2829  0.0218  0.2207
 6799TIP3    H120361   0.327   1.897   5.576 -0.6138  2.5736  0.1901
 6799TIP3    H220362   0.177   1.877   5.565 -0.4028  0.8399  0.1676
 6800TIP3   OH220363   2.732   2.628   2.174  0.9048 -0.2869  0.3738
 6800TIP3    H120364   2.672   2.680   2.121  1.9473  0.2650 -0.2959
 6800TIP3    H220365   2.677   2.588   2.241  0.2026  2.3712  1.4762
 6801TIP3   OH220366   2.835   6.451   1.378 -0.3756  0.0007 -0.2473
 6801TIP3    H120367   2.903   6.386   1.397 -0.2608 -0.2037 -1.2886
 6801TIP3    H220368   2.883   6.532   1.360 -0.5481  0.6964  2.0192
 6802TIP3   OH220369   4.319   1.200   5.355  0.6694  0.7335  0.0767
 6802TIP3    H120370   4.351   1.182   5.266 -0.8137  0.0595 -0.3556
 6802TIP3    H220371   4.264   1.278   5.345  0.4974  0.6543  0.4015
 6803TIP3   OH220372   0.767   3.519   2.059 -0.1551 -0.1786  0.5620
 6803TIP3    H120373   0.776   3.442   2.002 -0.2959  1.0149 -1.1540
 6803TIP3    H220374   0.766   3.483   2.148 -0.7448 -2.2044 -0.1974
 6804TIP3   OH220375   5.912   1.375   1.320 -0.0309 -0.8102  0.2219
 6804TIP3    H120376   5.863   1.428   1.384  0.5686  0.9076 -0.6882
 6804TIP3    H220377   5.999   1.366   1.358  0.3523  0.2867 -0.3504
 6805TIP3   OH220378   1.665   4.849   5.342 -0.4333  0.0551 -0.8797
 6805TIP3    H120379   1.578   4.820   5.314 -0.3874 -3.2866  1.7528
 6805TIP3    H220380   1.725   4.787   5.299  0.2758 -0.0526  0.2330
 6806TIP3   OH220381   5.552   5.068   2.971 -0.2801  0.1527 -0.0204
 6806TIP3    H120382   5.543   4.994   2.911 -0.5732  1.7894 -2.0908
 6806TIP3    H220383   5.645   5.069   2.994 -0.3512 -1.1012  0.4374
 6807TIP3   OH220384   4.152   1.797   0.115 -0.0201 -0.3729  0.5698
 6807TIP3    H120385   4.157   1.858   0.041 -1.9425  1.1089  1.5697
 6807TIP3    H220386   4.079   1.739   0.093 -0.4507 -0.0715  1.1927
 6808TIP3   OH220387   5.123   1.474   4.802  0.1718  0.2265  0.3395
 6808TIP3    H120388   5.214   1.460   4.829  0.5508  0.7454 -0.6200
 6808TIP3    H220389   5.081   1.508   4.881  1.2364  1.6325  0.3468
 6809TIP3   OH220390   4.129   4.280   3.525 -0.1099 -0.3535 -0.1774
 6809TIP3    H120391   4.199   4.325   3.477 -1.6340  1.7544 -0.5474
 6809TIP3    H220392   4.115   4.199   3.476  1.7043 -0.6148 -0.3581
 6810TIP3   OH220393   4.933   0.748   3.293  0.0706  0.3759 -0.2241
 6810TIP3    H120394   4.902   0.732   3.382 -0.3669  1.0711 -0.2467
 6810TIP3    H220395   4.862   0.797   3.251  0.3978  0.3102 -0.8653
 6811TIP3   OH220396   3.209   1.473   4.921 -0.1022  0.3261 -0.4838
 6811TIP3    H120397   3.168   1.427   4.847  0.0293 -0.8633  0.1588
 6811TIP3    H220398   3.137   1.524   4.960 -0.3522  0.3342 -0.9451
 6812TIP3   OH220399   2.453   6.168   2.048  0.7788 -0.6702  0.4444
 6812TIP3    H120400   2.470   6.260   2.028 -0.2129 -0.1165  1.9615
 6812TIP3    H220401   2.459   6.123   1.964  2.3463  0.6013 -0.1551
 6813TIP3   OH220402   0.371   4.091   5.269 -0.0951  0.1848  0.2909
 6813TIP3    H120403   0.367   3.998   5.290  0.4831  0.6158  2.6547
 6813TIP3    H220404   0.361   4.095   5.174 -3.0465 -2.0869  0.3401
 6814TIP3   OH220405   3.955   2.497   3.225 -0.0203 -0.0188  0.1018
 6814TIP3    H120406   4.023   2.559   3.253  0.6495 -0.2906 -0.8936
 6814TIP3    H220407   3.950   2.434   3.297 -0.9670  1.3393  1.3032
 6815TIP3   OH220408   5.021   3.996   4.827  0.1720  0.1844 -0.3716
 6815TIP3    H120409   5.040   4.044   4.908  2.9344  1.7908 -1.8077
 6815TIP3    H220410   4.943   4.037   4.792 -0.6729 -0.0954  1.1028
 6816TIP3   OH220411   2.004   1.820   5.687  0.1949  0.2308  0.1115
 6816TIP3    H120412   2.010   1.727   5.665  2.2247  0.4686 -0.4772
 6816TIP3    H220413   1.936   1.825   5.754  0.5458 -1.7624  0.6547
 6817TIP3   OH220414   4.849   0.503   1.406  0.2013  0.1952 -0.0169
 6817TIP3    H120415   4.827   0.484   1.315 -4.2147  2.1385  0.3812
 6817TIP3    H220416   4.912   0.574   1.402 -0.9190  1.1612 -1.6875
 6818TIP3   OH220417   5.354   4.989   0.566  0.0172  0.1634  0.1211
 6818TIP3    H120418   5.330   5.004   0.474 -0.5995 -0.0999  0.2392
 6818TIP3    H220419   5.291   4.925   0.598  0.3614  0.0916  0.6741
 6819TIP3   OH220420   1.218   6.689   5.036 -0.2066  0.2003  0.5268
 6819TIP3    H120421   1.166   6.643   5.101 -0.7649 -0.7151 -0.5187
 6819TIP3    H220422   1.302   6.643   5.035 -0.3568 -0.0750  0.2980
 6820TIP3   OH220423   3.875   5.019   3.945 -0.0128 -0.8741  0.5076
 6820TIP3    H120424   3.828   5.095   3.913 -1.3098 -1.6566  0.4876
 6820TIP3    H220425   3.968   5.040   3.930 -0.3860  0.3229 -0.2712
 6821TIP3   OH220426   4.772   3.621   1.131 -0.0714 -0.0905  0.2259
 6821TIP3    H120427   4.721   3.549   1.167 -1.3073  0.5368 -0.2109
 6821TIP3    H220428   4.857   3.582   1.109  0.6080 -0.6138  3.3122
 6822TIP3   OH220429   2.936   4.027   4.904 -0.5067 -0.6300 -0.0978
 6822TIP3    H120430   2.993   3.957   4.872 -0.2573 -0.4085 -0.1451
 6822TIP3    H220431   2.850   4.007   4.868  0.1721  0.8156 -2.8173
 6823TIP3   OH220432   3.128   2.794   3.749  0.1995 -0.2005  0.4045
 6823TIP3    H120433   3.092   2.874   3.709  0.2897  0.3956  1.4640
 6823TIP3    H220434   3.205   2.824   3.796  0.6530 -1.0540  0.2176
 6824TIP3   OH220435   0.088   5.758   4.954  0.7766  0.0310 -0.5449
 6824TIP3    H120436   0.019   5.804   4.906 -0.2085 -1.3548 -0.5167
 6824TIP3    H220437   0.105   5.813   5.030 -0.5612  0.2337 -0.3696
 6825TIP3   OH220438   2.315   2.568   3.751 -0.0178  0.5551 -0.2501
 6825TIP3    H120439   2.229   2.527   3.766  0.6019 -1.0526 -0.8724
 6825TIP3    H220440   2.368   2.539   3.825  0.3741  0.4104 -0.5854
 6826TIP3   OH220441   0.923   6.507   1.770  0.6593  0.1045  0.2494
 6826TIP3    H120442   0.849   6.564   1.749  1.8168  1.2289 -1.0226
 6826TIP3    H220443   0.945   6.464   1.687  2.0855  0.6416  0.3063
 6827TIP3   OH220444   6.402   0.270   5.676  0.0943  0.0937  0.3444
 6827TIP3    H120445   6.493   0.255   5.702 -0.6839 -0.6090  2.9312
 6827TIP3    H220446   6.350   0.230   5.745 -2.2106  2.3237  0.0525
 6828TIP3   OH220447   5.159   3.613   3.933  0.3412  0.0656  0.1966
 6828TIP3    H120448   5.184   3.701   3.902 -1.4906  0.3808 -0.5340
 6828TIP3    H220449   5.187   3.554   3.863 -2.2882  0.5990 -1.4497
 6829TIP3   OH220450   0.827   3.768   0.454  0.7186 -0.0177 -0.3809
 6829TIP3    H120451   0.820   3.722   0.537  0.2327  1.2134  0.2914
 6829TIP3    H220452   0.741   3.758   0.413  1.1169 -1.0619 -0.9936
 6830TIP3   OH220453   2.504   5.255   2.239 -0.5191  0.4395 -0.3413
 6830TIP3    H120454   2.508   5.335   2.187  0.0598  0.6651  0.0471
 6830TIP3    H220455   2.535   5.281   2.326 -0.7172 -0.1151 -0.0988
 6831TIP3   OH220456   0.191   6.044   1.710  0.1331  0.4052  0.5707
 6831TIP3    H120457   0.141   5.968   1.740  1.4417 -0.2929  1.0771
 6831TIP3    H220458   0.183   6.042   1.615 -1.5469  0.8670  0.6597
 6832TIP3   OH220459   4.003   4.490   0.863 -0.1591 -0.5251 -0.1977
 6832TIP3    H120460   3.995   4.563   0.802 -2.1245  0.1568  0.7800
 6832TIP3    H220461   4.069   4.519   0.926  0.6753 -0.5549 -1.0244
 6833TIP3   OH220462   0.464   1.270   0.582 -0.8239  0.4678  0.0308
 6833TIP3    H120463   0.553   1.236   0.592 -1.2085 -1.5567 -2.3958
 6833TIP3    H220464   0.412   1.217   0.642 -0.3754  2.3250  2.2167
 6834TIP3   OH220465   1.392   5.444   5.494 -0.1897 -0.2694 -0.7159
 6834TIP3    H120466   1.465   5.479   5.544 -0.4227 -1.6713  0.7093
 6834TIP3    H220467   1.414   5.462   5.403  1.6708 -0.1580 -0.2888
 6835TIP3   OH220468   2.272   3.996   4.899 -0.6122 -0.1692  0.0197
 6835TIP3    H120469   2.291   3.930   4.965 -1.6403  0.6466  1.1745
 6835TIP3    H220470   2.344   3.990   4.836  0.8128 -0.4291  1.6273
 6836TIP3   OH220471   6.604   2.875   2.238 -0.1522  0.0624 -0.0985
 6836TIP3    H120472   6.566   2.842   2.157 -0.2888 -0.1127  0.0380
 6836TIP3    H220473   6.694   2.899   2.213 -0.2848  0.2869 -0.3699
 6837TIP3   OH220474   4.565   0.133   2.599  0.6584 -0.4036 -0.1985
 6837TIP3    H120475   4.572   0.087   2.682 -1.2142 -3.9993 -1.8259
 6837TIP3    H220476   4.471   0.143   2.585  0.9645  1.6501 -1.1886
 6838TIP3   OH220477   1.483   1.146   4.764 -0.7385 -0.0247  0.1072
 6838TIP3    H120478   1.561   1.142   4.709 -0.9926  1.7314 -0.4656
 6838TIP3    H220479   1.410   1.146   4.702 -1.2890 -2.5595  0.6689
 6839TIP3   OH220480   0.031   0.300   2.904  0.3418 -0.8802  0.0146
 6839TIP3    H120481  -0.050   0.310   2.854 -1.3599 -1.9214  2.3881
 6839TIP3    H220482   0.046   0.206   2.905  0.1898 -0.9037  1.6144
 6840TIP3   OH220483   1.335   3.694   2.246 -0.3227 -0.2480 -0.1604
 6840TIP3    H120484   1.273   3.765   2.261 -0.5030 -0.4956  0.3105
 6840TIP3    H220485   1.340   3.648   2.330  0.0112 -0.6170 -0.3741
 6841TIP3   OH220486   0.610   0.897   2.642 -0.5155  0.0848  0.4915
 6841TIP3    H120487   0.598   0.827   2.706  0.4138  1.5277  2.3127
 6841TIP3    H220488   0.644   0.852   2.564 -0.6267 -1.5738  1.3541
 6842TIP3   OH220489   4.019   5.048   0.584 -0.1105  0.4804 -0.4718
 6842TIP3    H120490   3.950   4.991   0.618 -0.1670  0.8997  0.1408
 6842TIP3    H220491   3.977   5.133   0.571  0.1024  0.5307 -0.8585
 6843TIP3   OH220492   2.404   1.131   4.116 -0.2638  0.5015  0.5467
 6843TIP3    H120493   2.326   1.180   4.143  0.2585  2.0402 -0.6435
 6843TIP3    H220494   2.413   1.149   4.023  0.7331 -0.8127  0.3567
 6844TIP3   OH220495   3.261   5.290   4.350  0.4023 -0.6875  0.7044
 6844TIP3    H120496   3.318   5.344   4.296  0.7846 -0.5836  1.1997
 6844TIP3    H220497   3.228   5.349   4.417 -1.0801 -0.5191 -0.1477
 6845TIP3   OH220498   2.533   3.724   2.193  0.4679  0.0617 -0.1597
 6845TIP3    H120499   2.545   3.629   2.187 -2.0278 -0.3641  0.2176
 6845TIP3    H220500   2.598   3.753   2.256  2.1507 -1.1663 -1.2434
 6846TIP3   OH220501   5.364   4.753   3.370 -0.1760 -0.0659  0.1577
 6846TIP3    H120502   5.365   4.840   3.330 -0.3307  0.2845  0.8971
 6846TIP3    H220503   5.360   4.770   3.464  1.5879 -0.8485  0.4128
 6847TIP3   OH220504   5.287   4.615   3.012 -0.4158  0.6291 -0.4399
 6847TIP3    H120505   5.264   4.708   3.007 -1.5438  0.4703  1.0412
 6847TIP3    H220506   5.366   4.612   3.065 -0.2111  0.7568 -0.7338
 6848TIP3   OH220507   4.471   6.243   1.448  0.3910  0.0972  0.0917
 6848TIP3    H120508   4.528   6.221   1.374  1.0754 -0.9681  0.9103
 6848TIP3    H220509   4.441   6.158   1.480  0.0552  0.5561  1.0149
 6849TIP3   OH220510   0.100   1.098   0.286  0.0423  0.1310  0.1012
 6849TIP3    H120511   0.189   1.102   0.320 -0.2100 -0.5773  0.8626
 6849TIP3    H220512   0.059   1.027   0.334 -0.7824  0.1061 -0.6190
 6850TIP3   OH220513   6.348   0.147   0.318 -0.7925 -0.2561 -0.4500
 6850TIP3    H120514   6.438   0.179   0.315 -0.0531 -2.2473 -0.9098
 6850TIP3    H220515   6.342   0.101   0.402 -1.3271 -0.3564 -0.5366
 6851TIP3   OH220516   0.910   6.572   4.066 -0.1708  0.0363  0.4152
 6851TIP3    H120517   0.834   6.630   4.061  0.1653  0.5081  0.7119
 6851TIP3    H220518   0.985   6.629   4.048  0.0213 -0.6689 -1.1710
 6852TIP3   OH220519   1.135   6.535   4.529  0.1298  0.6605  0.0702
 6852TIP3    H120520   1.066   6.568   4.472  0.5992 -0.8682 -1.4565
 6852TIP3    H220521   1.089   6.481   4.594 -0.2104  0.4790 -0.3171
 6853TIP3   OH220522   2.759   3.377   3.755  0.4071 -0.6611  0.2472
 6853TIP3    H120523   2.730   3.467   3.739 -0.0698 -0.9325 -0.4313
 6853TIP3    H220524   2.814   3.384   3.833  1.5135  0.4404 -0.5996
 6854TIP3   OH220525   3.642   6.635   0.781  0.0950 -0.4090  0.0753
 6854TIP3    H120526   3.560   6.586   0.780 -0.9278  1.2308 -1.0140
 6854TIP3    H220527   3.687   6.605   0.859 -0.8091 -2.5111 -0.1543
 6855TIP3   OH220528   5.494   4.335   0.112  0.0684 -0.3409 -0.6073
 6855TIP3    H120529   5.509   4.408   0.171  1.7797  1.3195 -2.9136
 6855TIP3    H220530   5.553   4.266   0.142 -1.3773 -0.8097  1.4309
 6856TIP3   OH220531   0.437   4.343   3.813 -0.2706 -0.2611 -0.7520
 6856TIP3    H120532   0.361   4.285   3.800 -0.3126 -0.2037 -0.7598
 6856TIP3    H220533   0.416   4.392   3.892 -0.5314  0.2138 -1.1050
 6857TIP3   OH220534   7.224   5.792   0.723 -0.1800  0.2760  0.7276
 6857TIP3    H120535   7.143   5.834   0.752 -0.5179 -1.7040  2.9446
 6857TIP3    H220536   7.256   5.848   0.653 -2.8290  1.7784  0.5839
 6858TIP3   OH220537   2.944   5.453   4.856 -0.8310 -0.2543  0.4178
 6858TIP3    H120538   3.036   5.428   4.863 -0.9382 -0.7164  0.1863
 6858TIP3    H220539   2.933   5.522   4.922 -1.0259 -2.2108  2.5957
 6859TIP3   OH220540   6.380   2.345   5.073 -0.1152 -0.0830  0.3553
 6859TIP3    H120541   6.350   2.435   5.081 -1.1031 -0.3020 -0.7109
 6859TIP3    H220542   6.460   2.342   5.126 -0.9573  0.9727  1.7680
 6860TIP3   OH220543   0.273   4.509   4.295  0.3341  0.0100 -0.2325
 6860TIP3    H120544   0.193   4.556   4.270 -1.1949 -2.5113 -0.3949
 6860TIP3    H220545   0.322   4.572   4.348 -0.2341  2.7076 -2.6235
 6861TIP3   OH220546   0.139   0.580   2.665 -0.4191  0.3246  0.3924
 6861TIP3    H120547   0.169   0.668   2.641 -2.8979  1.2075  0.2603
 6861TIP3    H220548   0.156   0.527   2.587 -2.3777  1.6468 -1.0320
 6862TIP3   OH220549   4.944   2.779   1.737 -0.5728 -0.6885  0.0825
 6862TIP3    H120550   5.017   2.841   1.736 -0.9001 -0.2966  0.1765
 6862TIP3    H220551   4.903   2.789   1.651 -1.4648  0.2445  0.6017
 6863TIP3   OH220552   3.233   4.917   5.357 -0.4061  0.3863 -0.2019
 6863TIP3    H120553   3.287   4.991   5.329  0.4990  0.0717  0.6691
 6863TIP3    H220554   3.145   4.954   5.363  0.2214  1.7579  1.4364
 6864TIP3   OH220555   3.583   5.627   3.492  0.6113 -0.5561 -0.1466
 6864TIP3    H120556   3.603   5.657   3.403  1.5406 -0.8041 -0.0311
 6864TIP3    H220557   3.668   5.624   3.536  0.3832 -2.0854  0.2383
 6865TIP3   OH220558   2.381   6.759   5.761  0.4289  0.4746  0.2497
 6865TIP3    H120559   2.452   6.696   5.754  1.3597  1.4429  0.5877
 6865TIP3    H220560   2.346   6.768   5.673 -0.3621 -1.2007  0.3601
 6866TIP3   OH220561   2.215   0.622   3.373  0.5707  0.1024 -0.6617
 6866TIP3    H120562   2.290   0.680   3.388 -0.3098  1.6547 -1.9043
 6866TIP3    H220563   2.163   0.630   3.453  1.1401 -0.0459 -0.2721
 6867TIP3   OH220564   2.241   0.506   3.130 -0.1618 -0.3073  1.2476
 6867TIP3    H120565   2.243   0.544   3.218  1.6765  1.5560  0.4890
 6867TIP3    H220566   2.235   0.581   3.071 -0.2198 -1.4433 -0.2778
 6868TIP3   OH220567   0.781   2.698   4.277 -0.0463 -0.3692 -0.6109
 6868TIP3    H120568   0.787   2.689   4.182 -0.7694 -3.0284 -0.4838
 6868TIP3    H220569   0.834   2.626   4.312 -1.7263 -0.9419  0.9224
 6869TIP3   OH220570   4.019   1.215   3.025  0.2459 -0.9490  0.0586
 6869TIP3    H120571   4.002   1.278   2.955 -0.1150 -0.7531  0.3225
 6869TIP3    H220572   4.089   1.255   3.077 -0.6296 -0.3039  0.7860
 6870TIP3   OH220573   4.859   2.500   3.148 -0.3349  0.0120  0.1500
 6870TIP3    H120574   4.767   2.478   3.162 -0.5668  0.7803 -0.1063
 6870TIP3    H220575   4.906   2.449   3.214 -1.0882  0.8493  1.3969
 6871TIP3   OH220576   6.585   4.344   0.738 -0.1861 -0.1699 -0.3810
 6871TIP3    H120577   6.677   4.320   0.740 -0.8092 -2.7017  0.4295
 6871TIP3    H220578   6.575   4.410   0.807  0.7599 -0.9092  0.4787
 6872TIP3   OH220579   1.180   2.560   4.310  0.3238  0.5015  0.3234
 6872TIP3    H120580   1.266   2.524   4.290  0.1086  0.1708 -0.0323
 6872TIP3    H220581   1.187   2.653   4.289  1.1198  0.8571  1.9893
 6873TIP3   OH220582   6.804   5.409   1.891 -0.5672 -0.4019  0.1514
 6873TIP3    H120583   6.819   5.417   1.797  1.1346  1.6676  0.5223
 6873TIP3    H220584   6.710   5.424   1.901 -0.5776  0.6844 -1.1388
 6874TIP3   OH220585   4.487   3.581   4.243  0.1079 -0.4946 -0.3424
 6874TIP3    H120586   4.571   3.572   4.197 -0.4944 -0.3174 -1.5163
 6874TIP3    H220587   4.495   3.664   4.290  0.1488  0.1619 -1.4583
 6875TIP3   OH220588   3.308   4.448   5.618  0.2631 -0.1202 -0.9403
 6875TIP3    H120589   3.387   4.494   5.590  0.2243  1.5628  1.4899
 6875TIP3    H220590   3.237   4.493   5.572  0.4517  0.6412 -0.5067
 6876TIP3   OH220591   1.813   2.680   3.631  0.0099  0.1236 -0.1859
 6876TIP3    H120592   1.808   2.745   3.701  0.1104  0.0370 -0.0992
 6876TIP3    H220593   1.803   2.596   3.675  1.2796 -0.0113 -0.1251
 6877TIP3   OH220594   0.020   0.306   1.685 -0.1957  0.3815 -0.0427
 6877TIP3    H120595  -0.009   0.392   1.715 -0.8030  0.7152 -1.4597
 6877TIP3    H220596   0.081   0.326   1.613  0.0946 -0.3637 -0.0080
 6878TIP3   OH220597   0.148   1.333   5.607 -0.0386  0.3810  0.1735
 6878TIP3    H120598   0.196   1.253   5.627  0.2663  0.1856 -1.2964
 6878TIP3    H220599   0.059   1.303   5.589  0.3320  0.2161 -1.4966
 6879TIP3   OH220600   0.937   2.595   2.555 -0.0081  0.7320 -0.4554
 6879TIP3    H120601   0.967   2.526   2.615  0.3963 -0.3295 -1.8215
 6879TIP3    H220602   0.880   2.650   2.608 -0.3658 -0.6715  0.6720
 6880TIP3   OH220603   2.800   3.342   2.166  0.4941 -0.1520 -0.3963
 6880TIP3    H120604   2.849   3.269   2.126 -0.0757 -0.4597 -0.5382
 6880TIP3    H220605   2.840   3.351   2.253  0.4993 -0.7114 -0.3320
 6881TIP3   OH220606   0.654   6.333   1.530  0.2274 -0.1325  0.1951
 6881TIP3    H120607   0.707   6.405   1.496  0.2444 -0.1504  0.1844
 6881TIP3    H220608   0.607   6.371   1.605 -1.3066  0.4763 -0.9986
 6882TIP3   OH220609   2.303   1.910   5.119 -0.0342  0.1652  0.2120
 6882TIP3    H120610   2.305   1.961   5.038 -0.6361  1.3764  0.9220
 6882TIP3    H220611   2.253   1.965   5.180  0.3935 -0.7262  1.3988
 6883TIP3   OH220612   4.402   5.357   0.589 -0.3192  0.6613  0.3863
 6883TIP3    H120613   4.352   5.334   0.668  1.1749  0.8008  1.3965
 6883TIP3    H220614   4.349   5.322   0.518 -1.0124 -0.7539  1.5286
 6884TIP3   OH220615   6.740   2.576   5.183  0.1542  0.5583  0.6414
 6884TIP3    H120616   6.684   2.507   5.218 -0.7061 -0.1825 -1.9130
 6884TIP3    H220617   6.798   2.530   5.122 -1.4694  2.1650 -2.3419
 6885TIP3   OH220618   6.644   4.266   5.016  0.8034 -0.1793  0.1264
 6885TIP3    H120619   6.657   4.195   4.953 -0.1975  0.9006 -1.3685
 6885TIP3    H220620   6.563   4.243   5.061 -0.2265  0.6012 -1.2581
 6886TIP3   OH220621   0.220   0.679   4.487  0.2917  0.9307 -1.0944
 6886TIP3    H120622   0.293   0.621   4.462  0.5447  0.1134  1.3232
 6886TIP3    H220623   0.252   0.767   4.466  1.2409  0.4541 -1.7520
 6887TIP3   OH220624   7.005   2.611   3.951 -0.0739  0.0019 -0.0896
 6887TIP3    H120625   7.025   2.671   3.880  1.2022  0.1575  0.3677
 6887TIP3    H220626   6.991   2.527   3.908  1.9555 -0.1890 -0.4657
 6888TIP3   OH220627   3.306   4.303   3.659 -0.1244  0.3516  0.4125
 6888TIP3    H120628   3.274   4.231   3.713 -0.1606 -0.2388 -0.3771
 6888TIP3    H220629   3.384   4.335   3.705 -0.0916 -0.2052  0.7575
 6889TIP3   OH220630   7.140   6.213   3.688  0.1227  0.1087  0.2007
 6889TIP3    H120631   7.203   6.273   3.648  1.5603 -0.5546  1.3874
 6889TIP3    H220632   7.179   6.190   3.772 -1.9785  0.0914  1.2351
 6890TIP3   OH220633   3.327   6.015   0.220 -0.0121 -0.3921 -0.1073
 6890TIP3    H120634   3.373   6.093   0.188  0.0668 -0.8989 -1.3024
 6890TIP3    H220635   3.302   6.037   0.310 -2.6161  2.2303 -1.2871
 6891TIP3   OH220636   6.726   4.564   3.106 -0.4273  0.2227  0.0338
 6891TIP3    H120637   6.786   4.574   3.180 -0.2122 -0.2655 -0.0710
 6891TIP3    H220638   6.784   4.566   3.029 -0.5857  0.1442 -0.0876
 6892TIP3   OH220639   2.008   4.881   2.415  0.7094 -0.0937  0.3091
 6892TIP3    H120640   2.056   4.867   2.333 -0.3445  1.1857 -0.5681
 6892TIP3    H220641   1.994   4.975   2.419  1.0409 -0.0858  2.1625
 6893TIP3   OH220642   0.553   2.340   1.649 -0.1824 -0.0869 -0.3437
 6893TIP3    H120643   0.534   2.367   1.559 -1.2997  1.5259  0.3131
 6893TIP3    H220644   0.624   2.398   1.676  1.3184 -1.6971 -0.6794
 6894TIP3   OH220645   5.325   3.066   3.218 -0.1504 -0.1238  0.7075
 6894TIP3    H120646   5.409   3.027   3.194 -0.7311 -0.7188 -0.3814
 6894TIP3    H220647   5.342   3.106   3.304  0.9904 -1.0223  0.9265
 6895TIP3   OH220648   7.120   1.814   1.544  0.0359 -0.3254  0.1424
 6895TIP3    H120649   7.075   1.895   1.522 -0.4178 -0.6951 -0.3194
 6895TIP3    H220650   7.079   1.748   1.488 -1.1002 -1.2832  1.9733
 6896TIP3   OH220651   2.179   1.214   4.533  0.0219  0.0735  0.2248
 6896TIP3    H120652   2.212   1.286   4.586 -2.8761  1.9633 -0.3651
 6896TIP3    H220653   2.098   1.187   4.576 -0.8786 -0.2771 -1.6000
 6897TIP3   OH220654   5.639   3.827   2.931 -0.2349 -0.3964 -0.2338
 6897TIP3    H120655   5.676   3.758   2.986  0.5418  0.5648  0.4736
 6897TIP3    H220656   5.565   3.861   2.982  0.2947  0.2861  0.0868
 6898TIP3   OH220657   6.463   2.379   2.824 -0.6100 -0.1196  0.0004
 6898TIP3    H120658   6.420   2.319   2.763 -0.4184  0.3686 -0.6201
 6898TIP3    H220659   6.523   2.323   2.874 -0.2059 -0.3993 -0.7807
 6899TIP3   OH220660   3.004   4.405   2.231 -0.1397  0.1074  0.4073
 6899TIP3    H120661   2.966   4.388   2.317  0.1873  0.1645  0.5676
 6899TIP3    H220662   2.931   4.434   2.177 -0.5991 -1.1632  0.3053
 6900TIP3   OH220663   6.708   1.964   0.712  0.4010 -0.4160  0.4763
 6900TIP3    H120664   6.782   1.936   0.765  1.1025  0.7169  0.1301
 6900TIP3    H220665   6.648   1.889   0.713  1.0679 -0.9577  1.6252
 6901TIP3   OH220666   3.707   5.310   3.416 -0.2997  0.2226  0.2782
 6901TIP3    H120667   3.664   5.292   3.332 -0.6953 -1.5533  0.8057
 6901TIP3    H220668   3.636   5.335   3.475 -0.3345 -0.5093  0.5689
 6902TIP3   OH220669   6.371   6.298   0.524  0.2624 -0.2950 -0.1635
 6902TIP3    H120670   6.279   6.274   0.539  0.8914 -3.3918 -0.6480
 6902TIP3    H220671   6.380   6.300   0.428  0.9398 -1.1267 -0.1230
 6903TIP3   OH220672   6.924   4.825   5.330 -0.1322 -0.0620 -0.3404
 6903TIP3    H120673   6.834   4.855   5.338  0.5353  2.0092  0.0488
 6903TIP3    H220674   6.953   4.812   5.421  0.5602  1.3023 -0.3444
 6904TIP3   OH220675   6.129   5.410   2.970 -0.0304  0.3734  0.0110
 6904TIP3    H120676   6.185   5.379   3.041  0.8456  0.5681 -0.5753
 6904TIP3    H220677   6.164   5.368   2.892 -2.2275 -1.4339 -0.0959
 6905TIP3   OH220678   6.018   3.952   1.263 -0.5076 -0.1019  0.5061
 6905TIP3    H120679   5.989   3.866   1.295 -1.4792  0.0231 -0.0098
 6905TIP3    H220680   6.039   3.938   1.171 -0.3937  0.1538  0.4920
 6906TIP3   OH220681   0.020   1.645   3.568  0.1643 -0.5031  1.1478
 6906TIP3    H120682   0.077   1.575   3.536  1.6625  0.4087  1.7154
 6906TIP3    H220683   0.071   1.725   3.555 -0.3608  0.2031  3.0595
 6907TIP3   OH220684   0.731   1.182   3.128  0.0769  0.2257  0.0075
 6907TIP3    H120685   0.714   1.095   3.093  0.8248 -1.1868  2.8677
 6907TIP3    H220686   0.826   1.193   3.122  0.0843  0.4532  0.4414
 6908TIP3   OH220687   2.515   1.109   0.409  0.6780  0.3461 -0.2441
 6908TIP3    H120688   2.515   1.102   0.505 -0.8911  0.9761 -0.1673
 6908TIP3    H220689   2.525   1.019   0.379  1.5364  0.1766  0.4972
 6909TIP3   OH220690   5.832   3.316   1.940 -0.0350  0.3136 -0.3040
 6909TIP3    H120691   5.776   3.249   1.903 -1.0412  1.5796 -1.1769
 6909TIP3    H220692   5.779   3.396   1.939  2.1424  1.9082 -2.4686
 6910TIP3   OH220693   4.136   5.080   1.171 -0.4021  0.5531  0.2005
 6910TIP3    H120694   4.111   4.992   1.144  0.0612  0.0049  1.4802
 6910TIP3    H220695   4.227   5.088   1.142 -0.0038  0.0788  1.2595
 6911TIP3   OH220696   5.290   3.401   5.318  0.1746 -0.1995 -0.3784
 6911TIP3    H120697   5.256   3.378   5.405  0.0461 -0.0733 -0.3955
 6911TIP3    H220698   5.270   3.494   5.308  0.0629 -0.2475 -0.6027
 6912TIP3   OH220699   3.532   3.760   0.735 -0.7290 -0.0935 -0.3302
 6912TIP3    H120700   3.449   3.798   0.706 -1.4819 -1.6244 -0.2764
 6912TIP3    H220701   3.509   3.710   0.814  0.5730  0.8571  0.7077
 6913TIP3   OH220702   4.681   0.022   4.276 -0.3190  0.1904  0.1693
 6913TIP3    H120703   4.612   0.044   4.339 -0.0376 -0.0200  0.5526
 6913TIP3    H220704   4.690   0.101   4.223 -0.5082  0.3956  0.4362
 6914TIP3   OH220705   5.293   2.679   0.206 -0.2501  0.0817  0.5048
 6914TIP3    H120706   5.245   2.625   0.269 -0.7970  0.2563  0.2441
 6914TIP3    H220707   5.286   2.631   0.123  0.7071 -0.2926  0.6180
 6915TIP3   OH220708   0.855   3.249   2.536  0.0856  0.4830  0.3815
 6915TIP3    H120709   0.820   3.160   2.530 -0.0485  0.6183 -1.0932
 6915TIP3    H220710   0.818   3.295   2.461  0.2123  1.7747  1.0837
 6916TIP3   OH220711   3.756   4.493   2.565 -0.2980 -0.1221 -0.2045
 6916TIP3    H120712   3.741   4.410   2.519  0.7077 -1.2200  1.3733
 6916TIP3    H220713   3.668   4.531   2.574 -0.7340 -0.8225 -1.2451
 6917TIP3   OH220714   7.053   6.132   0.020  0.0637 -0.7159  0.0812
 6917TIP3    H120715   7.011   6.129   0.107 -2.5128 -0.0208 -1.0311
 6917TIP3    H220716   7.092   6.219   0.015 -2.0241  0.2502 -0.3461
 6918TIP3   OH220717   2.879   5.878   1.869 -0.0517 -0.2252 -0.0923
 6918TIP3    H120718   2.811   5.945   1.863  0.8798  0.8263  0.7538
 6918TIP3    H220719   2.851   5.821   1.940 -0.1603  0.0857  0.1162
 6919TIP3   OH220720   0.386   1.225   5.357 -0.1279  0.3238  0.1002
 6919TIP3    H120721   0.437   1.212   5.278 -0.3750  0.3946 -0.0723
 6919TIP3    H220722   0.364   1.318   5.356  0.2608  0.4226  0.4909
 6920TIP3   OH220723   5.781   0.743   4.181  0.2701  0.1234 -0.5071
 6920TIP3    H120724   5.820   0.828   4.160  0.8772  0.1566  0.7184
 6920TIP3    H220725   5.699   0.742   4.131  1.2951  0.4874 -2.2910
 6921TIP3   OH220726   0.526   6.189   1.143  0.6100  0.3251  0.1462
 6921TIP3    H120727   0.533   6.174   1.049 -0.6099  0.6322 -0.0167
 6921TIP3    H220728   0.432   6.201   1.158  0.7559  0.0273  1.4402
 6922TIP3   OH220729   0.063   0.559   0.328 -0.2539  0.0867  0.8494
 6922TIP3    H120730   0.063   0.624   0.398  0.3560  0.1333  0.8067
 6922TIP3    H220731   0.036   0.478   0.371 -0.2997  0.2081  1.0511
 6923TIP3   OH220732   3.578   4.855   3.481  0.2684  0.3039  0.0974
 6923TIP3    H120733   3.638   4.815   3.419 -0.2691  0.4351 -0.5196
 6923TIP3    H220734   3.630   4.868   3.560  0.9649  0.1374 -0.3250
 6924TIP3   OH220735   1.970   0.506   5.030  0.2437  0.4036 -0.6480
 6924TIP3    H120736   2.063   0.512   5.008 -0.0255 -1.5679 -2.7216
 6924TIP3    H220737   1.927   0.488   4.946 -1.9189  0.4160  0.3971
 6925TIP3   OH220738   5.810   5.233   4.109 -0.5031 -0.2814 -0.2496
 6925TIP3    H120739   5.868   5.308   4.118 -1.2582  0.2675  0.1877
 6925TIP3    H220740   5.793   5.205   4.199 -1.7513  0.2407 -0.2987
 6926TIP3   OH220741   2.702   0.487   2.306 -0.1830  0.8493 -0.2416
 6926TIP3    H120742   2.783   0.521   2.269  0.1619 -0.6300 -0.9003
 6926TIP3    H220743   2.675   0.417   2.246 -0.5262 -0.4616  1.3647
 6927TIP3   OH220744   6.092   2.132   0.560 -0.0300  0.5886 -0.8454
 6927TIP3    H120745   6.002   2.148   0.590 -0.3655  0.5330 -1.8071
 6927TIP3    H220746   6.088   2.142   0.465  0.8515 -0.0438 -0.9564
 6928TIP3   OH220747   1.915   5.323   4.934 -0.0558 -0.1487 -0.0438
 6928TIP3    H120748   1.898   5.417   4.924 -2.2476 -0.5778 -1.1695
 6928TIP3    H220749   1.961   5.315   5.017 -3.3302  1.6346  2.1760
 6929TIP3   OH220750   1.342   4.684   1.213 -0.0201 -0.7007  0.2130
 6929TIP3    H120751   1.371   4.605   1.167  0.2110  0.0692 -1.0074
 6929TIP3    H220752   1.293   4.734   1.148  0.4276  0.4876  0.7554
 6930TIP3   OH220753   2.793   6.075   1.519  0.0841 -0.2371  0.2421
 6930TIP3    H120754   2.864   6.120   1.564 -0.3203  0.6422  0.0227
 6930TIP3    H220755   2.736   6.145   1.489  0.3611 -0.7761 -1.6823
 6931TIP3   OH220756   3.402   2.380   3.601  0.5199 -0.8617  0.3193
 6931TIP3    H120757   3.411   2.467   3.563  0.0627 -0.1171  1.8284
 6931TIP3    H220758   3.320   2.384   3.651  0.8206 -1.9473  0.9361
 6932TIP3   OH220759   5.479   0.824   3.797 -0.3374  0.4431  0.0637
 6932TIP3    H120760   5.536   0.766   3.848  1.0975  1.2770 -0.5373
 6932TIP3    H220761   5.470   0.902   3.851 -0.0006  0.7441 -0.3028
 6933TIP3   OH220762   7.194   3.577   2.803  0.0599 -0.5721 -0.3529
 6933TIP3    H120763   7.258   3.592   2.734  0.4968 -0.8937 -0.0260
 6933TIP3    H220764   7.109   3.584   2.760  0.3206 -2.8351 -1.3793
 6934TIP3   OH220765   4.176   0.334   4.360 -0.2352  0.2391  0.1655
 6934TIP3    H120766   4.151   0.411   4.310  0.6132  1.7618  1.9560
 6934TIP3    H220767   4.160   0.358   4.451 -0.2959 -1.8558  0.7685
 6935TIP3   OH220768   0.037   3.906   1.174 -0.4175  0.2296 -0.1849
 6935TIP3    H120769   0.055   3.876   1.264  0.6337 -0.1465 -0.5090
 6935TIP3    H220770   0.120   3.942   1.144 -1.3544  2.5523 -0.2067
 6936TIP3   OH220771   0.959   3.733   2.838 -0.5731  0.2247  0.5978
 6936TIP3    H120772   0.959   3.656   2.896  0.4768  1.3388  2.1446
 6936TIP3    H220773   1.048   3.738   2.805 -0.8960  0.2321 -0.3091
 6937TIP3   OH220774   6.590   3.785   3.155  0.0967  0.6774  0.6812
 6937TIP3    H120775   6.553   3.840   3.085  0.1832 -1.5385 -1.2450
 6937TIP3    H220776   6.683   3.779   3.133  0.0516 -0.3554  0.7360
 6938TIP3   OH220777   3.345   4.004   1.527 -0.2775 -0.5041  0.5219
 6938TIP3    H120778   3.264   4.012   1.577  0.1639 -0.8987  1.3179
 6938TIP3    H220779   3.370   4.094   1.506 -0.1646 -0.2852  1.5304
 6939TIP3   OH220780   4.415   6.243   5.277  0.1549  0.6303 -0.4841
 6939TIP3    H120781   4.498   6.289   5.274  0.7281 -0.4142 -1.2363
 6939TIP3    H220782   4.353   6.301   5.233  0.3875  1.5702  0.3995
 6940TIP3   OH220783   0.959   4.012   4.226 -0.4227  0.2408 -0.1254
 6940TIP3    H120784   1.007   4.049   4.152  2.1296  1.0517  1.7673
 6940TIP3    H220785   0.918   3.932   4.191  1.0513  0.3381 -2.2879
 6941TIP3   OH220786   3.084   4.057   4.557  0.5139  0.1696  0.4311
 6941TIP3    H120787   3.056   4.006   4.633  0.4767  1.6417  1.4456
 6941TIP3    H220788   3.139   3.996   4.506  0.7231 -0.7802  1.7375
 6942TIP3   OH220789   5.614   0.141   2.849  0.0140  0.2188  0.0331
 6942TIP3    H120790   5.599   0.132   2.755  1.2955 -0.1911 -0.1487
 6942TIP3    H220791   5.589   0.232   2.869  1.0584  0.7479 -0.9786
 6943TIP3   OH220792   3.039   1.359   0.599 -0.4310 -0.5235 -0.1240
 6943TIP3    H120793   3.080   1.396   0.678 -0.2772 -0.0541 -0.4201
 6943TIP3    H220794   2.950   1.395   0.600  0.3072  1.5156 -1.4650
 6944TIP3   OH220795   3.730   3.493   0.327  0.0600  0.3703 -0.4102
 6944TIP3    H120796   3.754   3.514   0.417 -0.5184  1.5726 -0.5189
 6944TIP3    H220797   3.785   3.418   0.305  1.1341  0.8398  0.5236
 6945TIP3   OH220798   5.664   0.462   1.345  0.8284 -0.1656  0.3039
 6945TIP3    H120799   5.741   0.405   1.350  1.1870  0.2733 -0.1528
 6945TIP3    H220800   5.692   0.536   1.291  0.1486  0.1026  0.3090
 6946TIP3   OH220801   4.184   4.930   3.374 -0.1913  0.5376 -0.3837
 6946TIP3    H120802   4.171   4.948   3.467 -0.8754  0.0056 -0.3674
 6946TIP3    H220803   4.097   4.904   3.343  0.2131 -0.1199 -0.9834
 6947TIP3   OH220804   1.731   5.411   4.647  0.3890 -0.4163 -0.0637
 6947TIP3    H120805   1.765   5.324   4.664  1.0921 -0.2622 -0.6301
 6947TIP3    H220806   1.808   5.465   4.633  0.0142  0.5944  1.5667
 6948TIP3   OH220807   6.118   5.411   1.905  0.0883 -0.0968  0.2127
 6948TIP3    H120808   6.137   5.426   1.813 -0.5574 -1.2424 -0.1335
 6948TIP3    H220809   6.026   5.437   1.915  0.4645  1.0689  0.8021
 6949TIP3   OH220810   4.952   4.120   0.045  0.1436  0.1632  0.1680
 6949TIP3    H120811   5.041   4.100   0.016  1.0661  0.3582  2.5826
 6949TIP3    H220812   4.954   4.213   0.066  0.2020 -0.3362  2.6875
 6950TIP3   OH220813   3.914   5.454   3.051  0.2818 -0.1399 -1.3283
 6950TIP3    H120814   3.985   5.518   3.038 -0.4003  0.5842 -1.5583
 6950TIP3    H220815   3.853   5.472   2.979  0.6966 -1.9246 -2.1953
 6951TIP3   OH220816   3.396   6.743   5.373  0.0122 -0.3411  0.0449
 6951TIP3    H120817   3.365   6.714   5.287  1.6509  0.1010 -0.7325
 6951TIP3    H220818   3.417   6.662   5.420 -3.3671 -0.7524  1.1017
 6952TIP3   OH220819   4.759   3.839   3.320  0.1384 -0.0331 -0.3463
 6952TIP3    H120820   4.725   3.782   3.250 -1.9012 -0.4206  0.8693
 6952TIP3    H220821   4.763   3.925   3.280 -0.0110 -0.4335 -1.2517
 6953TIP3   OH220822   1.686   0.494   3.219  0.3499  0.2949  0.4501
 6953TIP3    H120823   1.692   0.423   3.283 -0.9934 -1.2295 -1.0215
 6953TIP3    H220824   1.774   0.531   3.216  1.0044 -1.0787  1.5119
 6954TIP3   OH220825   6.342   6.721   5.198  0.8730  0.5020 -0.1247
 6954TIP3    H120826   6.357   6.707   5.292 -1.3885 -0.2958  0.1783
 6954TIP3    H220827   6.352   6.634   5.159  0.4932  0.5849 -0.4116
 6955TIP3   OH220828   5.554   5.874   2.294  0.0889  0.6753 -0.1753
 6955TIP3    H120829   5.512   5.951   2.333 -1.1598 -0.8357  1.6656
 6955TIP3    H220830   5.499   5.801   2.321  0.4311 -0.7768 -3.0208
 6956TIP3   OH220831   7.085   4.867   5.042  0.0431  0.5581  0.5130
 6956TIP3    H120832   7.130   4.786   5.022  0.4960  0.7723  0.6543
 6956TIP3    H220833   7.058   4.858   5.133  0.0711  0.5594  0.5212
 6957TIP3   OH220834   4.275   2.791   1.031 -0.0338  0.4688  0.6511
 6957TIP3    H120835   4.324   2.830   1.103 -0.6303  0.1355  1.2486
 6957TIP3    H220836   4.234   2.866   0.987 -0.2111  0.6185  1.0683
 6958TIP3   OH220837   0.343   4.678   5.205 -0.2698 -0.1548  0.3459
 6958TIP3    H120838   0.345   4.654   5.112  1.0730 -0.4640  0.4294
 6958TIP3    H220839   0.265   4.634   5.239 -0.1999 -0.9027 -0.4199
 6959TIP3   OH220840   6.028   3.631   3.067  0.5775  0.4632  0.0685
 6959TIP3    H120841   6.045   3.681   3.146  0.4950 -1.4573  1.3726
 6959TIP3    H220842   6.113   3.624   3.023  0.6827  1.2765  0.1410
 6960TIP3   OH220843   6.003   1.459   5.061  0.0934 -0.4118  0.3774
 6960TIP3    H120844   6.098   1.470   5.069  0.0485  1.1093 -0.7139
 6960TIP3    H220845   5.994   1.385   5.001  0.6757  0.7743 -1.2635
 6961TIP3   OH220846   0.621   0.603   0.238  0.4701  0.1670 -0.0160
 6961TIP3    H120847   0.550   0.631   0.296 -0.7008  3.0421 -2.5707
 6961TIP3    H220848   0.698   0.650   0.271  0.3465  0.0203  0.4992
 6962TIP3   OH220849   2.207   5.768   5.168  0.0137  0.2212  0.4851
 6962TIP3    H120850   2.270   5.703   5.200 -0.9099 -0.3342  1.2345
 6962TIP3    H220851   2.257   5.822   5.107  0.8220 -1.1783 -0.1370
 6963TIP3   OH220852   6.204   2.455   4.151  0.4120 -0.0624  0.5601
 6963TIP3    H120853   6.175   2.435   4.062  0.8839  2.3990 -0.2055
 6963TIP3    H220854   6.238   2.371   4.184 -0.6604 -1.2498 -1.2001
 6964TIP3   OH220855   2.342   6.103   4.692  0.6972  0.0737 -0.4965
 6964TIP3    H120856   2.393   6.024   4.710  3.0232  1.2768 -1.3567
 6964TIP3    H220857   2.391   6.173   4.734 -1.6031  1.0536  0.7218
 6965TIP3   OH220858   6.559   1.030   2.523 -0.5643 -0.4801  0.1337
 6965TIP3    H120859   6.553   0.969   2.449 -2.0805  2.0885 -2.0445
 6965TIP3    H220860   6.635   1.084   2.503 -0.5878 -0.1918  0.8215
 6966TIP3   OH220861   5.029   0.174   4.100  0.1150  0.2314  0.1148
 6966TIP3    H120862   5.028   0.264   4.067  0.4840 -0.2448 -1.2571
 6966TIP3    H220863   5.091   0.175   4.172  0.1620  1.0561  0.0734
 6967TIP3   OH220864   3.084   4.944   2.802 -0.0793 -0.0250  0.7103
 6967TIP3    H120865   3.001   4.905   2.776  0.3081 -1.0187  0.9305
 6967TIP3    H220866   3.131   4.959   2.720  0.4232 -1.5258  0.6993
 6968TIP3   OH220867   5.798   5.990   5.397  0.0374  0.0428 -0.1762
 6968TIP3    H120868   5.845   5.907   5.389 -1.2065 -1.3568  4.2616
 6968TIP3    H220869   5.708   5.969   5.376 -0.0889  0.5576 -0.1658
 6969TIP3   OH220870   1.076   4.246   2.519 -0.1962  0.1822 -0.1583
 6969TIP3    H120871   1.151   4.294   2.554 -0.6092 -0.2156  1.3290
 6969TIP3    H220872   1.075   4.164   2.568 -0.4408 -0.6834 -1.5608
 6970TIP3   OH220873   1.483   6.248   3.233 -0.3005 -0.7012 -0.4296
 6970TIP3    H120874   1.439   6.307   3.294  0.1107 -0.4397 -0.3806
 6970TIP3    H220875   1.501   6.169   3.284 -1.5437 -1.1880 -0.7064
 6971TIP3   OH220876   5.790   4.521   4.866  0.1481 -0.5069 -0.2433
 6971TIP3    H120877   5.717   4.517   4.928  0.4687 -2.3150  0.0428
 6971TIP3    H220878   5.850   4.586   4.903  0.1639 -1.3008  1.1568
 6972TIP3   OH220879   6.627   0.792   1.143  0.0122  0.1185  0.3861
 6972TIP3    H120880   6.629   0.747   1.228  1.1066  0.9775  0.8415
 6972TIP3    H220881   6.677   0.872   1.157  0.8379 -0.0625 -1.2711
 6973TIP3   OH220882   0.588   2.618   0.562 -0.3199 -0.2487  0.5883
 6973TIP3    H120883   0.562   2.585   0.648  0.2646 -0.6184  0.6303
 6973TIP3    H220884   0.508   2.656   0.526 -1.1933 -2.2619  0.2934
 6974TIP3   OH220885   5.137   6.148   3.769  0.1376  0.1231 -0.1846
 6974TIP3    H120886   5.123   6.068   3.819  1.8505 -0.0905  0.0203
 6974TIP3    H220887   5.194   6.122   3.697  0.7395  1.1546 -0.1019
 6975TIP3   OH220888   6.477   5.720   0.138  0.3903 -0.2250 -0.3614
 6975TIP3    H120889   6.544   5.789   0.135  0.9396 -0.7715 -1.5129
 6975TIP3    H220890   6.401   5.759   0.094  1.1775 -0.7932 -2.3336
 6976TIP3   OH220891   4.447   5.318   2.485 -0.7280 -0.0448 -0.0787
 6976TIP3    H120892   4.465   5.371   2.563  0.6759 -1.6811  0.7682
 6976TIP3    H220893   4.408   5.237   2.518 -2.8956  0.3770 -1.3560
 6977TIP3   OH220894   6.004   4.223   4.076  0.0716  0.2573 -0.4411
 6977TIP3    H120895   5.912   4.247   4.081 -0.1601 -0.7409  0.6257
 6977TIP3    H220896   6.045   4.267   4.151  0.4812  0.7198 -0.9253
 6978TIP3   OH220897   2.714   5.047   2.816  0.0527 -0.5008 -0.7775
 6978TIP3    H120898   2.732   5.067   2.724 -2.9600 -0.6125 -1.4819
 6978TIP3    H220899   2.740   5.126   2.863 -0.3494  0.3864 -1.9959
 6979TIP3   OH220900   4.748   5.195   1.340  0.5301 -0.6927  0.2972
 6979TIP3    H120901   4.744   5.248   1.419 -2.0211  0.6893 -0.6536
 6979TIP3    H220902   4.745   5.105   1.370  0.5269 -0.2179  1.7752
 6980TIP3   OH220903   3.981   2.924   0.591 -0.1337  0.0790  0.6076
 6980TIP3    H120904   4.011   2.847   0.639 -0.1377 -0.6756 -0.5514
 6980TIP3    H220905   3.912   2.890   0.534  0.8005  0.6545 -0.9083
 6981TIP3   OH220906   3.880   6.617   3.016 -0.0343  0.2683 -0.1368
 6981TIP3    H120907   3.790   6.631   2.989 -0.1851  0.1070  0.2760
 6981TIP3    H220908   3.874   6.553   3.087  0.3515  0.7622  0.3398
 6982TIP3   OH220909   3.192   1.653   2.933  0.6964 -0.0872  0.1628
 6982TIP3    H120910   3.105   1.616   2.947  1.1147 -0.7923  1.0393
 6982TIP3    H220911   3.238   1.588   2.879  0.2920  0.8772 -1.3834
 6983TIP3   OH220912   7.163   2.608   5.030  0.2210  0.6562  0.0378
 6983TIP3    H120913   7.146   2.693   5.071 -1.9222  1.0929 -1.5340
 6983TIP3    H220914   7.146   2.623   4.937  0.1555 -1.4100 -0.3307
 6984TIP3   OH220915   2.042   3.105   5.895  0.9622  0.1628 -0.0879
 6984TIP3    H120916   1.980   3.111   5.823 -1.1286 -0.6296  1.5375
 6984TIP3    H220917   2.086   3.021   5.882 -0.8513 -0.9512  0.5677
 6985TIP3   OH220918   3.296   4.621   4.612  0.2757  0.1338 -0.3054
 6985TIP3    H120919   3.360   4.663   4.670  1.1978 -0.7467 -0.6483
 6985TIP3    H220920   3.314   4.659   4.526  0.8458 -0.6404 -0.5405
 6986TIP3   OH220921   2.406   4.993   0.878  0.1046  0.1015  0.1159
 6986TIP3    H120922   2.327   5.047   0.889 -0.3616 -0.1721 -1.6843
 6986TIP3    H220923   2.376   4.903   0.895  0.2534  0.1011  0.3793
 6987TIP3   OH220924   2.287   0.775   5.796  0.0662 -0.5689 -0.0330
 6987TIP3    H120925   2.340   0.724   5.857  0.2980 -0.9755 -0.5629
 6987TIP3    H220926   2.197   0.763   5.827  0.1336 -1.1747 -0.0486
 6988TIP3   OH220927   0.732   3.693   3.449 -0.3096 -0.2496  0.9705
 6988TIP3    H120928   0.790   3.764   3.477  0.3290  0.1457 -1.1382
 6988TIP3    H220929   0.792   3.622   3.425 -0.7112 -0.1655 -0.3728
 6989TIP3   OH220930   7.032   2.163   2.836 -0.2098  0.8555 -0.1436
 6989TIP3    H120931   7.044   2.168   2.741  2.0692  0.3812  0.0615
 6989TIP3    H220932   7.117   2.190   2.873 -0.9581  0.7811  1.7639
 6990TIP3   OH220933   6.031   0.122   4.362  0.0209 -0.5745 -0.4346
 6990TIP3    H120934   6.115   0.167   4.364  0.2657 -1.0515  0.8192
 6990TIP3    H220935   5.970   0.182   4.404  0.1485 -0.9977  0.3781
 6991TIP3   OH220936   0.962   5.317   0.746 -0.0005  0.2372  0.3380
 6991TIP3    H120937   0.978   5.225   0.724 -0.9342  0.3516 -0.9241
 6991TIP3    H220938   1.038   5.343   0.797  0.8701 -0.8874 -0.3354
 6992TIP3   OH220939   6.439   4.063   3.745 -0.5223 -0.6675  0.0431
 6992TIP3    H120940   6.384   4.141   3.752  0.8614  0.2599  1.2952
 6992TIP3    H220941   6.496   4.080   3.670  0.4549  0.0273  0.9083
 6993TIP3   OH220942   3.785   2.955   4.247 -0.1547  0.1632 -0.2813
 6993TIP3    H120943   3.799   2.895   4.173  0.0848  1.2623 -1.1492
 6993TIP3    H220944   3.873   2.982   4.273 -0.2077 -0.6532  0.7908
 6994TIP3   OH220945   4.597   1.688   4.138  0.2374 -0.2913 -0.1686
 6994TIP3    H120946   4.659   1.757   4.161 -1.0306  0.5002  1.0458
 6994TIP3    H220947   4.590   1.693   4.043  0.7474  0.7384 -0.1629
 6995TIP3   OH220948   2.247   4.815   4.993  0.2217 -0.0518  0.2849
 6995TIP3    H120949   2.269   4.723   5.009 -1.7265 -0.5499  0.3631
 6995TIP3    H220950   2.330   4.862   5.005  1.6659 -1.9649 -1.4393
 6996TIP3   OH220951   6.197   3.347   1.094 -0.3483  0.0944 -0.0717
 6996TIP3    H120952   6.122   3.394   1.057 -1.0939 -0.1949  1.0318
 6996TIP3    H220953   6.192   3.363   1.188 -1.0119 -2.6401  0.4629
 6997TIP3   OH220954   0.196   1.449   4.184  0.0712 -0.3024 -0.3448
 6997TIP3    H120955   0.199   1.493   4.269  0.3631  1.9875 -1.4503
 6997TIP3    H220956   0.107   1.414   4.178  0.3569 -1.3981  1.2793
 6998TIP3   OH220957   6.709   5.595   2.489 -0.2994 -0.2468  0.4902
 6998TIP3    H120958   6.745   5.586   2.577  1.6128 -0.6546 -0.2979
 6998TIP3    H220959   6.659   5.514   2.475 -2.2191  0.6055  1.8263
 6999TIP3   OH220960   5.673   2.005   3.450  0.0684 -0.2905  0.3743
 6999TIP3    H120961   5.698   2.067   3.518  0.6968  0.1085 -0.2084
 6999TIP3    H220962   5.614   2.055   3.393 -2.3204 -1.2585  1.8230
 7000TIP3   OH220963   0.839   0.290   2.044  0.6649  0.0850 -0.3181
 7000TIP3    H120964   0.764   0.308   2.100 -1.0244 -0.6506 -2.2203
 7000TIP3    H220965   0.882   0.375   2.033 -2.3788  1.5392 -2.5064
 7001TIP3   OH220966   4.214   0.876   4.732  0.2634 -0.2560  0.1413
 7001TIP3    H120967   4.265   0.800   4.703 -2.4004 -1.0185 -3.2857
 7001TIP3    H220968   4.124   0.845   4.734 -0.6033  2.0969  1.6516
 7002TIP3   OH220969   0.297   1.190   2.406  0.6667  0.3653 -0.2683
 7002TIP3    H120970   0.276   1.106   2.365  0.9591  0.4430 -0.5721
 7002TIP3    H220971   0.351   1.167   2.481  0.3826  0.2496 -0.0951
 7003TIP3   OH220972   4.226   3.057   0.598  0.4566 -0.2352 -0.8720
 7003TIP3    H120973   4.234   3.138   0.546 -1.1259  0.7594  0.3415
 7003TIP3    H220974   4.142   3.020   0.572 -0.4035  0.3205  0.9558
 7004TIP3   OH220975   0.438   2.734   3.222 -0.1948 -0.2880 -0.5885
 7004TIP3    H120976   0.412   2.671   3.289  0.9624 -0.8783 -0.6708
 7004TIP3    H220977   0.411   2.693   3.139  1.0904 -0.9807 -0.6868
 7005TIP3   OH220978   5.787   4.849   1.226 -0.2797 -0.9638 -0.2623
 7005TIP3    H120979   5.857   4.882   1.170  0.1861 -2.5123 -0.6293
 7005TIP3    H220980   5.740   4.786   1.172 -0.9482 -1.1608  0.5272
 7006TIP3   OH220981   2.356   2.736   4.834  0.2280 -0.2672 -0.0328
 7006TIP3    H120982   2.448   2.713   4.825  0.1999  0.1142 -1.5132
 7006TIP3    H220983   2.315   2.657   4.869  0.8967 -0.8906 -0.6109
 7007TIP3   OH220984   5.135   4.046   4.541  0.1251 -0.4293  0.4808
 7007TIP3    H120985   5.095   3.980   4.598 -0.4461 -0.4285  0.0897
 7007TIP3    H220986   5.219   4.009   4.515  0.4141 -0.4091  1.3596
 7008TIP3   OH220987   0.302   4.458   4.713 -0.1324  0.5030 -0.3719
 7008TIP3    H120988   0.347   4.375   4.727 -1.0306 -0.3898 -2.3251
 7008TIP3    H220989   0.219   4.449   4.760  1.0533  1.6449  2.1412
 7009TIP3   OH220990   7.010   3.585   0.513  0.7441 -0.1512 -0.0013
 7009TIP3    H120991   6.961   3.585   0.595  0.2908 -1.4639 -0.2457
 7009TIP3    H220992   6.945   3.560   0.447  1.4255 -0.5569 -0.5308
 7010TIP3   OH220993   2.068   1.734   3.405  0.8129 -0.0865 -0.4236
 7010TIP3    H120994   2.150   1.687   3.393  0.5802 -0.6642  0.2060
 7010TIP3    H220995   2.094   1.826   3.411  1.1848  0.0018 -2.6176
 7011TIP3   OH220996   5.958   4.753   3.869 -0.6043 -0.0128  0.5164
 7011TIP3    H120997   5.940   4.842   3.901 -1.3578 -0.4624  1.3851
 7011TIP3    H220998   6.018   4.716   3.933 -0.8874 -0.3900  0.5665
 7012TIP3   OH220999   4.594   4.182   1.788 -0.4851 -0.1734 -0.3199
 7012TIP3    H121000   4.586   4.169   1.882 -1.1378  0.6475 -0.2473
 7012TIP3    H221001   4.689   4.188   1.772 -0.3970  0.5353  0.4131
 7013TIP3   OH221002   2.643   5.873   0.658 -0.4833  0.2242  0.9625
 7013TIP3    H121003   2.563   5.925   0.660 -0.8681 -0.3205  0.2803
 7013TIP3    H221004   2.690   5.899   0.736 -0.1568  2.3748  0.1149
 7014TIP3   OH221005   1.546   0.641   0.437 -0.0773 -0.4136 -0.0202
 7014TIP3    H121006   1.519   0.664   0.349 -2.8149  0.3937  0.9295
 7014TIP3    H221007   1.574   0.550   0.432 -0.7844 -0.5591 -1.5820
 7015TIP3   OH221008   2.618   0.974   4.567 -0.6732  0.0230  0.1804
 7015TIP3    H121009   2.699   0.967   4.515 -1.0428  1.2905 -0.6112
 7015TIP3    H221010   2.552   1.003   4.504 -1.1734  1.4429  1.3105
 7016TIP3   OH221011   4.911   1.095   2.115 -0.4247  0.2005 -0.4607
 7016TIP3    H121012   4.890   1.060   2.202  3.1849 -0.8649  0.1499
 7016TIP3    H221013   4.923   1.189   2.129  2.1167 -0.2388  0.7333
 7017TIP3   OH221014   5.253   5.574   0.478 -0.2949 -0.1553 -0.1364
 7017TIP3    H121015   5.173   5.625   0.471  0.5481  1.3369  0.7014
 7017TIP3    H221016   5.265   5.560   0.572 -1.1864 -3.0781 -0.3596
 7018TIP3   OH221017   6.701   6.091   5.022 -0.0458  0.2852  0.1996
 7018TIP3    H121018   6.629   6.028   5.033 -2.0947  1.8023 -2.9305
 7018TIP3    H221019   6.657   6.176   5.012  2.3404  1.5973  0.2108
 7019TIP3   OH221020   2.906   0.388   1.280  0.0261  0.5174  0.2655
 7019TIP3    H121021   2.980   0.387   1.218 -0.7320 -1.2138 -0.6859
 7019TIP3    H221022   2.943   0.426   1.360  1.8147  0.1707 -0.3382
 7020TIP3   OH221023   2.107   3.426   2.996  0.0972 -0.1473 -0.0534
 7020TIP3    H121024   2.073   3.348   3.040 -0.8827  0.9733  1.2741
 7020TIP3    H221025   2.157   3.392   2.922  1.4335 -2.1293  1.6344
 7021TIP3   OH221026   2.066   2.855   2.136  0.5319  0.3240  0.5330
 7021TIP3    H121027   2.038   2.854   2.044  1.3665  1.3577  0.2477
 7021TIP3    H221028   2.037   2.940   2.169 -1.0579 -0.5998  1.6785
 7022TIP3   OH221029   0.904   6.526   0.585 -0.1266 -0.2654 -0.0006
 7022TIP3    H121030   0.988   6.529   0.538  0.4240  3.0419  0.9067
 7022TIP3    H221031   0.839   6.509   0.517  1.0840 -0.5342 -1.1302
 7023TIP3   OH221032   4.527   0.074   3.903 -0.3283 -0.3635 -0.1670
 7023TIP3    H121033   4.438   0.105   3.916  0.2323  1.2588  0.0809
 7023TIP3    H221034   4.550   0.101   3.814 -0.7015 -2.4694 -0.9528
 7024TIP3   OH221035   4.906   5.743   3.321 -0.0207 -0.6341 -0.2321
 7024TIP3    H121036   4.962   5.732   3.398  0.6171  0.0947 -0.5818
 7024TIP3    H221037   4.943   5.818   3.275 -1.4089 -0.0152 -0.3659
 7025TIP3   OH221038   3.532   4.261   2.571 -0.0137  0.1139 -0.1868
 7025TIP3    H121039   3.441   4.290   2.580 -0.8479 -1.9735 -1.0770
 7025TIP3    H221040   3.553   4.276   2.479  0.1965 -0.3156 -0.2121
 7026TIP3   OH221041   5.421   5.345   3.122 -0.0974 -0.1990  0.7945
 7026TIP3    H121042   5.362   5.382   3.188 -2.8115 -0.5208 -1.2378
 7026TIP3    H221043   5.386   5.256   3.107  1.9235 -1.0056  0.6037
 7027TIP3   OH221044   6.800   4.953   1.158  0.4209 -0.5159  0.4676
 7027TIP3    H121045   6.820   4.986   1.246  1.1470  0.0963  0.0826
 7027TIP3    H221046   6.813   4.858   1.165  2.8247 -0.2534  0.4608
 7028TIP3   OH221047   3.304   0.460   2.562  0.3524 -0.1370 -0.3413
 7028TIP3    H121048   3.350   0.392   2.511 -2.6850 -1.4317 -1.6015
 7028TIP3    H221049   3.257   0.411   2.630  1.4001  1.2239  1.4597
 7029TIP3   OH221050   1.757   2.813   5.726  0.3178  0.1032  0.1154
 7029TIP3    H121051   1.807   2.826   5.806 -1.0932  1.6571  0.8018
 7029TIP3    H221052   1.796   2.735   5.685  1.0669 -0.7325  2.2980
 7030TIP3   OH221053   2.748   2.503   2.785  0.3657  0.4656  0.1638
 7030TIP3    H121054   2.677   2.440   2.777  1.5614 -0.9465  0.2159
 7030TIP3    H221055   2.705   2.588   2.792 -1.5056 -0.6059  3.9594
 7031TIP3   OH221056   1.083   5.141   2.155  0.6827 -0.0464 -0.0363
 7031TIP3    H121057   1.176   5.151   2.136  0.8876 -0.6039  0.5902
 7031TIP3    H221058   1.047   5.229   2.146  1.4463  0.3528  0.5863
 7032TIP3   OH221059   4.800   1.446   3.919 -0.9917  0.6076  0.1532
 7032TIP3    H121060   4.781   1.535   3.889  0.2003  1.0311  0.6133
 7032TIP3    H221061   4.851   1.408   3.848 -0.2001  0.8107  0.6080
 7033TIP3   OH221062   0.317   0.982   0.501 -0.1488  0.2216  0.3093
 7033TIP3    H121063   0.412   0.989   0.512 -0.0339 -1.8404  1.0840
 7033TIP3    H221064   0.287   0.940   0.582 -1.4930 -0.5876 -0.5672
 7034TIP3   OH221065   4.714   6.339   2.635  0.1596 -0.6450 -0.3646
 7034TIP3    H121066   4.662   6.368   2.711 -0.5283  1.7172 -1.6274
 7034TIP3    H221067   4.657   6.356   2.560  2.1986  0.7447 -1.6959
 7035TIP3   OH221068   3.788   6.654   1.017 -0.5365 -0.1079 -0.3052
 7035TIP3    H121069   3.878   6.662   0.987 -0.4047  0.2374  0.1672
 7035TIP3    H221070   3.787   6.572   1.067 -0.0609  0.6966  1.0917
 7036TIP3   OH221071   0.096   3.139   0.930  0.3427  0.1683  0.4494
 7036TIP3    H121072   0.105   3.074   0.999 -0.5818  0.5454  0.9403
 7036TIP3    H221073   0.074   3.220   0.977 -0.9436  0.2864 -0.3311
 7037TIP3   OH221074   2.255   4.438   5.339 -0.4782  0.1154  0.2087
 7037TIP3    H121075   2.241   4.519   5.387 -0.9481  0.4176 -0.4128
 7037TIP3    H221076   2.182   4.382   5.365  0.2611 -0.4172  1.2269
 7038TIP3   OH221077   1.986   2.331   0.910  0.6808  0.4864  0.1555
 7038TIP3    H121078   1.895   2.360   0.902  0.4030 -0.2265  0.5665
 7038TIP3    H221079   2.017   2.324   0.820  0.2143  0.4044 -0.0045
 7039TIP3   OH221080   4.051   0.206   5.580  0.1110 -0.9825 -0.0206
 7039TIP3    H121081   4.123   0.217   5.517 -0.4981  3.3342 -0.2950
 7039TIP3    H221082   3.974   0.192   5.526 -0.2863  1.9534 -0.3940
 7040TIP3   OH221083   6.556   4.738   1.501  0.0769 -0.0410  0.1368
 7040TIP3    H121084   6.525   4.724   1.590  0.4177 -2.4276 -0.0639
 7040TIP3    H221085   6.551   4.833   1.488  0.0909  0.3585  2.6979
 7041TIP3   OH221086   1.607   3.760   4.299 -0.1284 -0.3120 -0.0252
 7041TIP3    H121087   1.534   3.699   4.293 -0.3293 -0.0478 -0.3293
 7041TIP3    H221088   1.623   3.787   4.209 -1.0949  1.2954  0.2415
 7042TIP3   OH221089   0.842   6.082   3.656  0.5690  0.2618  0.0779
 7042TIP3    H121090   0.900   6.005   3.660 -0.8783 -1.2511 -3.7226
 7042TIP3    H221091   0.823   6.093   3.563 -1.3798  3.7334  0.7212
 7043TIP3   OH221092   3.512   6.174   5.100 -0.3439  0.1573 -0.6169
 7043TIP3    H121093   3.435   6.226   5.078 -0.4611 -0.0469 -0.6977
 7043TIP3    H221094   3.548   6.148   5.015 -0.1595  0.2901 -0.5801
 7044TIP3   OH221095   2.523   1.061   1.070  0.0673 -0.4420 -0.5792
 7044TIP3    H121096   2.477   1.133   1.113  0.7625  0.1248 -0.7580
 7044TIP3    H221097   2.616   1.083   1.080  0.3340 -1.7376  0.0959
 7045TIP3   OH221098   0.514   3.067   2.986 -0.3552  0.3070 -0.0862
 7045TIP3    H121099   0.491   2.984   2.944  0.2935 -0.7091  1.4850
 7045TIP3    H221100   0.431   3.099   3.021 -0.5565  0.1358 -0.4025
 7046TIP3   OH221101   5.140   2.737   2.189 -0.2376 -0.3767 -0.1897
 7046TIP3    H121102   5.049   2.748   2.216 -0.0973 -0.8603  0.4989
 7046TIP3    H221103   5.140   2.759   2.095 -1.2535 -1.3758 -0.4529
 7047TIP3   OH221104   0.596   4.305   5.197 -0.0028 -0.3436 -0.3266
 7047TIP3    H121105   0.641   4.234   5.152  0.2189 -0.8532  0.6617
 7047TIP3    H221106   0.535   4.340   5.132 -0.1445 -1.4666 -0.8272
 7048TIP3   OH221107   3.889   2.126   4.537 -0.2335  0.2975 -0.4636
 7048TIP3    H121108   3.884   2.060   4.468 -0.9107  0.6691 -0.7698
 7048TIP3    H221109   3.878   2.075   4.618 -1.4479  0.0998 -0.7296
 7049TIP3   OH221110   1.101   3.740   1.862  0.5596  0.3817  0.4442
 7049TIP3    H121111   1.166   3.784   1.807  1.6353  0.8604  2.0317
 7049TIP3    H221112   1.151   3.671   1.906 -0.3724 -0.2625  0.5106
 7050TIP3   OH221113   3.701   1.275   3.327  0.5701  0.4400  0.4985
 7050TIP3    H121114   3.616   1.286   3.284  1.0156  0.9497 -0.2671
 7050TIP3    H221115   3.753   1.222   3.266  1.6188  2.1983 -0.2170
 7051TIP3   OH221116   4.575   2.505   5.729  0.5799  0.2659  0.0052
 7051TIP3    H121117   4.597   2.562   5.802 -0.0217 -0.2092  0.5696
 7051TIP3    H221118   4.577   2.562   5.652  1.5228  0.7061  0.3351
 7052TIP3   OH221119   3.425   4.865   2.180  0.4247 -0.2975  0.7032
 7052TIP3    H121120   3.427   4.915   2.262 -0.7153 -1.3369  1.3816
 7052TIP3    H221121   3.333   4.862   2.155  0.7705  0.0920 -0.6869
 7053TIP3   OH221122   3.504   1.184   5.552  0.0076 -0.9444  0.0022
 7053TIP3    H121123   3.447   1.129   5.499 -0.6444 -1.5664  1.2985
 7053TIP3    H221124   3.461   1.269   5.554  0.0622 -0.9021 -0.4875
 7054TIP3   OH221125   5.750   6.382   4.353  0.0058 -0.3442  0.0993
 7054TIP3    H121126   5.760   6.447   4.284 -1.0167  0.4229  0.6529
 7054TIP3    H221127   5.840   6.361   4.380  0.4298 -0.7299 -1.4981
 7055TIP3   OH221128   5.041   0.450   0.043  0.5717 -0.4094  0.4065
 7055TIP3    H121129   5.076   0.536   0.069  0.2724 -0.6741  1.7779
 7055TIP3    H221130   5.007   0.464  -0.045  1.0145  0.7510  0.3986
 7056TIP3   OH221131   1.848   3.311   0.051 -0.2303 -0.4914  0.7011
 7056TIP3    H121132   1.805   3.333  -0.031  1.1207 -1.0884 -0.1970
 7056TIP3    H221133   1.794   3.242   0.090 -0.4457 -0.7553 -0.0659
 7057TIP3   OH221134   2.653   0.606   1.160  0.3377  0.3205 -0.0109
 7057TIP3    H121135   2.653   0.532   1.100  2.8737 -0.2542  0.5697
 7057TIP3    H221136   2.643   0.683   1.104  1.2481 -0.2884 -1.0529
 7058TIP3   OH221137   1.404   2.162   2.011 -0.0318 -0.0244  0.5155
 7058TIP3    H121138   1.394   2.193   2.100 -2.1181 -0.2134  0.3984
 7058TIP3    H221139   1.359   2.227   1.957  0.6456 -0.2402 -0.3428
 7059TIP3   OH221140   0.890   5.756   3.125  0.7773  0.1301 -0.0747
 7059TIP3    H121141   0.944   5.704   3.185 -1.0171 -0.2815  1.2818
 7059TIP3    H221142   0.803   5.717   3.132 -0.1066  1.8871 -0.7829
 7060TIP3   OH221143   4.451   4.631   3.548 -0.4076  0.1542 -0.1288
 7060TIP3    H121144   4.532   4.633   3.599  0.1257  1.6849 -0.9862
 7060TIP3    H221145   4.420   4.722   3.549 -2.8267 -0.5823  1.2460
 7061TIP3   OH221146   5.718   5.003   5.268 -0.2524 -0.2897  0.0128
 7061TIP3    H121147   5.636   5.048   5.247  0.3339  1.2832  0.8855
 7061TIP3    H221148   5.734   5.024   5.360  0.3421 -1.9062  0.3082
 7062TIP3   OH221149   4.611   6.078   3.767  0.1947 -0.3214 -0.4857
 7062TIP3    H121150   4.703   6.103   3.777  0.2754 -1.2359  1.5895
 7062TIP3    H221151   4.588   6.107   3.679  2.2310  0.6614 -0.7617
 7063TIP3   OH221152   0.663   2.133   1.822  0.0868  0.1572 -0.3919
 7063TIP3    H121153   0.588   2.163   1.770  0.1492 -0.7812 -1.0425
 7063TIP3    H221154   0.649   2.172   1.908 -1.0352  0.1691 -0.5668
 7064TIP3   OH221155   2.885   0.488   3.733  0.7539  0.0902 -0.0202
 7064TIP3    H121156   2.838   0.406   3.750 -0.1723  0.6177  0.0354
 7064TIP3    H221157   2.906   0.484   3.640  0.3421 -0.0203 -0.1095
 7065TIP3   OH221158   5.056   5.146   5.560  0.6985 -0.3856 -0.5128
 7065TIP3    H121159   5.135   5.155   5.615  0.8862  1.5752 -1.0323
 7065TIP3    H221160   4.995   5.097   5.615  1.7614 -0.6659  0.4728
 7066TIP3   OH221161   6.468   3.647   4.763  0.1938 -0.0425  0.0666
 7066TIP3    H121162   6.536   3.650   4.830 -0.1474  0.4712  0.4013
 7066TIP3    H221163   6.435   3.736   4.759  0.7144  0.1028 -1.3322
 7067TIP3   OH221164   4.358   0.653   4.712  0.3717  0.5330  0.1968
 7067TIP3    H121165   4.417   0.604   4.654 -0.3717 -0.7083  0.4670
 7067TIP3    H221166   4.376   0.619   4.799 -0.4579  0.4192  0.3306
 7068TIP3   OH221167   4.205   0.895   5.700 -0.1994 -0.2328  0.0027
 7068TIP3    H121168   4.141   0.864   5.636  0.4070  0.9944 -1.2365
 7068TIP3    H221169   4.264   0.821   5.713 -1.9220 -1.4682  1.3336
 7069TIP3   OH221170   4.018   2.948   3.957 -0.0376 -0.5033  0.3785
 7069TIP3    H121171   4.094   2.980   3.908 -0.3361  0.4135  0.4848
 7069TIP3    H221172   3.954   2.926   3.889 -0.3822  0.5848  0.3283
 7070TIP3   OH221173   1.737   1.837   5.032 -0.2090  0.1058 -0.1799
 7070TIP3    H121174   1.829   1.837   5.056 -0.2414 -2.7157  0.2631
 7070TIP3    H221175   1.730   1.902   4.961  2.1395  0.1364 -0.4477
 7071TIP3   OH221176   5.270   4.844   1.025  0.1168  0.4490  0.2871
 7071TIP3    H121177   5.349   4.799   0.993  1.5110  1.3139  2.3360
 7071TIP3    H221178   5.205   4.828   0.956  1.8492 -0.8738 -1.1672
 7072TIP3   OH221179   3.775   5.788   3.928  0.0073 -0.3253  0.5483
 7072TIP3    H121180   3.866   5.819   3.926 -1.3367  4.4033 -1.4717
 7072TIP3    H221181   3.759   5.756   3.839 -0.2364 -1.6088  1.0356
 7073TIP3   OH221182   3.060   2.923   4.882  0.3213 -0.1555  0.0400
 7073TIP3    H121183   3.118   2.966   4.820  0.3906 -0.0078  0.2087
 7073TIP3    H221184   2.985   2.981   4.890  0.5516  0.0769  0.4961
 7074TIP3   OH221185   6.413   0.847   3.220 -0.1100 -0.0596 -0.2787
 7074TIP3    H121186   6.364   0.803   3.150 -1.5348 -0.0017  0.6281
 7074TIP3    H221187   6.346   0.870   3.285  1.0732  0.4929  0.7939
 7075TIP3   OH221188   2.883   3.683   4.535 -0.0917  0.1228  0.0525
 7075TIP3    H121189   2.922   3.714   4.617  1.0227  1.3262 -0.8824
 7075TIP3    H221190   2.913   3.746   4.470 -1.5690 -0.3889 -1.1640
 7076TIP3   OH221191   3.103   0.871   1.366 -0.0612 -0.2409  0.1436
 7076TIP3    H121192   3.081   0.862   1.273  1.3394  3.1948 -0.6675
 7076TIP3    H221193   3.199   0.874   1.367 -0.0828  2.5040  1.2639
 7077TIP3   OH221194   3.929   5.474   3.337  0.4687  0.3779 -0.3148
 7077TIP3    H121195   3.921   5.479   3.242  1.2611  1.0220 -0.3588
 7077TIP3    H221196   3.860   5.414   3.364 -0.2565  0.7861 -1.2212
 7078TIP3   OH221197   6.590   2.239   0.770 -0.0999  0.1510 -0.2708
 7078TIP3    H121198   6.518   2.253   0.707 -0.0224 -0.5678 -0.5350
 7078TIP3    H221199   6.637   2.163   0.735  0.2739  0.0842  0.3682
 7079TIP3   OH221200   5.313   0.728   2.167 -0.2378  0.2294 -0.5319
 7079TIP3    H121201   5.286   0.820   2.162  0.7572  0.5886  0.3776
 7079TIP3    H221202   5.268   0.694   2.244  0.1846  0.2327 -0.2825
 7080TIP3   OH221203   5.820   3.218   4.545  0.4518  0.1969  0.5214
 7080TIP3    H121204   5.852   3.233   4.634  1.2366 -0.0657  0.2936
 7080TIP3    H221205   5.880   3.268   4.490 -0.1391  0.5024  0.1470
 7081TIP3   OH221206   1.380   3.218   1.881  0.8240  0.3157  0.0609
 7081TIP3    H121207   1.473   3.194   1.873  0.3070 -1.7138 -0.4854
 7081TIP3    H221208   1.338   3.172   1.808 -0.8367 -0.0137  1.1895
 7082TIP3   OH221209   0.148   6.451   1.062 -0.1184 -0.4225  0.2223
 7082TIP3    H121210   0.088   6.376   1.058  1.0876 -1.5307  1.5532
 7082TIP3    H221211   0.225   6.417   1.109  1.1502  1.2053 -0.5915
 7083TIP3   OH221212   4.316   5.694   2.539 -0.0656 -0.0122  0.1334
 7083TIP3    H121213   4.285   5.720   2.626  0.3558 -0.4193  0.4133
 7083TIP3    H221214   4.400   5.652   2.556 -1.1086 -2.3793 -0.1873
 7084TIP3   OH221215   3.887   2.801   0.123  0.4431 -0.6128 -0.3222
 7084TIP3    H121216   3.920   2.811   0.034  0.3405 -0.2219 -0.3148
 7084TIP3    H221217   3.871   2.890   0.154 -1.6157 -0.8092 -0.6953
 7085TIP3   OH221218   0.466   4.902   4.988 -0.1720  0.2478 -0.0392
 7085TIP3    H121219   0.551   4.937   5.015 -0.6870  0.7114  1.0618
 7085TIP3    H221220   0.435   4.852   5.064 -0.7387 -0.1678 -0.5355
 7086TIP3   OH221221   6.034   4.707   2.854  0.4121 -0.0695  0.5171
 7086TIP3    H121222   6.112   4.654   2.843  0.8474  0.6392  0.1406
 7086TIP3    H221223   5.973   4.675   2.787  0.8742  0.2706 -0.0679
 7087TIP3   OH221224   0.465   3.973   1.044 -0.1274  0.1564 -0.1850
 7087TIP3    H121225   0.455   3.961   1.138  0.7676 -1.2899 -0.2439
 7087TIP3    H221226   0.535   3.913   1.019  0.0222  0.8945 -1.7001
 7088TIP3   OH221227   0.449   1.401   2.168  0.4489 -0.4558 -0.0189
 7088TIP3    H121228   0.479   1.312   2.188  1.2028  0.3046  2.6679
 7088TIP3    H221229   0.512   1.434   2.103 -0.6290 -2.2458 -2.1195
 7089TIP3   OH221230   4.398   2.976   4.656  0.2143 -0.4853  0.0308
 7089TIP3    H121231   4.454   2.958   4.731  1.1772 -0.8540 -0.7570
 7089TIP3    H221232   4.394   3.071   4.651 -1.0686 -0.4284  1.4105
 7090TIP3   OH221233   4.356   1.454   2.369  0.1806  0.3634 -0.4506
 7090TIP3    H121234   4.310   1.374   2.391 -0.8136  0.6458 -1.4028
 7090TIP3    H221235   4.305   1.492   2.297  1.5883  0.9710 -1.1747
 7091TIP3   OH221236   6.558   4.424   4.086 -0.5037  0.4526  0.1168
 7091TIP3    H121237   6.481   4.454   4.036  0.2762  0.2026 -1.2722
 7091TIP3    H221238   6.611   4.503   4.097  0.1221  0.1908 -0.9310
 7092TIP3   OH221239   1.550   2.800   3.956 -0.0353 -0.8961  0.0332
 7092TIP3    H121240   1.582   2.733   4.017 -0.6685  0.4829  1.9587
 7092TIP3    H221241   1.504   2.750   3.889  0.5684 -2.4719  0.7256
 7093TIP3   OH221242   4.398   3.986   2.349  0.1465 -0.1555 -0.3261
 7093TIP3    H121243   4.456   4.056   2.379  0.1703  0.1514 -1.0801
 7093TIP3    H221244   4.349   3.960   2.428  1.2915 -0.4165  0.3247
 7094TIP3   OH221245   2.776   1.976   1.176  0.1689  0.2136 -0.1926
 7094TIP3    H121246   2.703   2.030   1.144  0.3872  0.2298 -0.6822
 7094TIP3    H221247   2.854   2.025   1.151  0.3616 -0.1337 -0.2758
 7095TIP3   OH221248   3.937   6.029   5.821 -0.9208  0.0661 -0.5258
 7095TIP3    H121249   3.961   6.060   5.908 -1.4083 -0.3385 -0.2380
 7095TIP3    H221250   4.000   5.959   5.803 -0.5395  0.4481 -0.6904
 7096TIP3   OH221251   2.867   2.699   5.548  0.0900  0.0812  0.7714
 7096TIP3    H121252   2.829   2.725   5.632 -3.1374  0.8207 -0.7617
 7096TIP3    H221253   2.898   2.781   5.509  0.1580 -0.0412  0.5672
 7097TIP3   OH221254   0.054   4.751   1.300  0.0810  0.0740 -0.3086
 7097TIP3    H121255   0.047   4.679   1.362 -1.5698 -0.1757 -0.7478
 7097TIP3    H221256   0.068   4.709   1.215  1.0647  0.3632 -0.3018
 7098TIP3   OH221257   0.379   1.020   2.854 -0.0883 -0.5105  0.1765
 7098TIP3    H121258   0.340   0.961   2.790 -2.1313  1.6199 -0.7011
 7098TIP3    H221259   0.346   0.990   2.938 -3.5879  0.9516 -0.4949
 7099TIP3   OH221260   2.538   2.454   3.230 -0.3392  0.3985  0.5812
 7099TIP3    H121261   2.459   2.506   3.219 -1.4944 -1.1790  1.1645
 7099TIP3    H221262   2.533   2.386   3.163  1.1948  1.0168 -0.2304
 7100TIP3   OH221263   3.757   0.522   3.834 -0.0273 -0.1682 -0.2828
 7100TIP3    H121264   3.786   0.565   3.754  1.3856  1.9645  1.2474
 7100TIP3    H221265   3.699   0.585   3.876  0.2826 -0.6822  0.9671
 7101TIP3   OH221266   4.156   1.460   3.471 -0.3020 -0.2255 -0.1822
 7101TIP3    H121267   4.247   1.486   3.480 -0.3068  0.4853 -1.8444
 7101TIP3    H221268   4.129   1.434   3.559  0.8234  1.7290  0.7812
 7102TIP3   OH221269   6.579   4.053   1.380  0.6583  0.1257  0.3365
 7102TIP3    H121270   6.645   4.031   1.315 -0.3671 -0.0573 -0.6842
 7102TIP3    H221271   6.541   4.135   1.349 -0.1402 -0.1827  0.4569
 7103TIP3   OH221272   2.249   3.341   4.551 -0.3725 -0.7841 -0.5986
 7103TIP3    H121273   2.308   3.311   4.482  0.2443  3.0770 -1.9851
 7103TIP3    H221274   2.165   3.355   4.507 -0.8125 -1.0136  0.1412
 7104TIP3   OH221275   6.238   2.823   2.654 -0.1474 -0.3193  0.3359
 7104TIP3    H121276   6.290   2.899   2.680 -1.8510 -0.0009  3.2850
 7104TIP3    H221277   6.294   2.747   2.673 -0.1356  0.0685  2.0168
 7105TIP3   OH221278   4.706   6.329   0.524 -0.0990  0.0312 -0.3459
 7105TIP3    H121279   4.670   6.379   0.451  0.0846  0.4137 -0.1781
 7105TIP3    H221280   4.697   6.238   0.498 -0.3627  0.1550 -0.6915
 7106TIP3   OH221281   4.157   4.642   4.839  0.0861 -0.4440 -0.2011
 7106TIP3    H121282   4.250   4.630   4.820  0.1516 -0.6927  0.2587
 7106TIP3    H221283   4.125   4.554   4.857 -0.3571 -0.4257 -0.8497
 7107TIP3   OH221284   3.085   0.330   2.720  0.1493  0.0210 -0.1655
 7107TIP3    H121285   3.102   0.237   2.710  1.2696  0.2136 -0.1710
 7107TIP3    H221286   3.007   0.335   2.776  1.2942 -0.8999  1.5959
 7108TIP3   OH221287   2.866   3.828   4.021 -0.0413  0.1707 -0.4733
 7108TIP3    H121288   2.945   3.854   4.069  1.1868 -0.5744 -1.9907
 7108TIP3    H221289   2.845   3.904   3.966 -0.5240  0.4411  0.0694
 7109TIP3   OH221290   2.940   1.708   2.095  0.0623 -0.0881 -0.1503
 7109TIP3    H121291   2.850   1.684   2.118 -0.3399  1.4035 -0.1073
 7109TIP3    H221292   2.958   1.658   2.015 -0.1320 -1.7883  0.8265
 7110TIP3   OH221293   3.522   6.646   1.128 -0.4507  0.3971  0.1387
 7110TIP3    H121294   3.500   6.679   1.041  0.8053  0.2333 -0.2597
 7110TIP3    H221295   3.586   6.577   1.112  1.1516  1.5558  1.2741
 7111TIP3   OH221296   2.201   5.389   2.750  0.1398 -0.2398 -0.5148
 7111TIP3    H121297   2.142   5.389   2.675 -1.2444  0.6890  0.5314
 7111TIP3    H221298   2.188   5.474   2.792  0.8843 -0.7239  0.7756
 7112TIP3   OH221299   1.571   6.338   3.554 -0.6076  0.5720 -0.7227
 7112TIP3    H121300   1.526   6.393   3.491  0.4881  0.1260 -1.9249
 7112TIP3    H221301   1.514   6.262   3.565 -0.7356  0.5804 -1.3011
 7113TIP3   OH221302   0.372   5.859   3.027 -0.2753 -0.3845  0.4482
 7113TIP3    H121303   0.280   5.860   3.000 -0.0104 -1.1183 -0.5477
 7113TIP3    H221304   0.374   5.910   3.108 -1.3166  0.8698 -0.2777
 7114TIP3   OH221305   0.607   5.813   0.687  0.5976 -0.5675 -0.5235
 7114TIP3    H121306   0.575   5.898   0.717  0.3991 -0.6285 -0.5676
 7114TIP3    H221307   0.602   5.818   0.592 -2.5459 -1.8370 -0.5123
 7115TIP3   OH221308   3.147   2.268   1.373 -0.0852 -0.5029  0.5990
 7115TIP3    H121309   3.083   2.339   1.361  1.6909  1.0647 -0.2348
 7115TIP3    H221310   3.186   2.286   1.458 -0.3297 -1.1076  0.8414
 7116TIP3   OH221311   3.277   4.005   2.747 -0.1295  0.4897 -0.2680
 7116TIP3    H121312   3.270   4.040   2.659 -0.7036  1.0961  0.0119
 7116TIP3    H221313   3.307   3.915   2.735  0.3353  0.7409 -1.0486
 7117TIP3   OH221314   3.572   6.022   2.028 -0.3548 -0.2288 -0.3904
 7117TIP3    H121315   3.611   6.095   1.979  0.4546  0.6200  1.4141
 7117TIP3    H221316   3.505   6.064   2.082 -1.8725 -1.2805 -1.3845
 7118TIP3   OH221317   0.523   0.492   2.975  0.4539 -0.0214  0.0639
 7118TIP3    H121318   0.443   0.503   2.923 -0.5901  0.5399  1.7187
 7118TIP3    H221319   0.517   0.403   3.009 -0.6280  0.7200  1.9639
 7119TIP3   OH221320   1.783   5.692   1.597 -0.0055  0.3967  0.7212
 7119TIP3    H121321   1.839   5.728   1.527 -0.2673 -1.8636 -0.7537
 7119TIP3    H221322   1.840   5.631   1.644 -1.0302 -1.6218 -0.5408
 7120TIP3   OH221323   5.142   6.276   1.795  0.1033  0.1276  0.3283
 7120TIP3    H121324   5.167   6.236   1.878 -1.3253 -1.5387  0.0227
 7120TIP3    H221325   5.116   6.365   1.818  2.0083  0.4914  1.2625
 7121TIP3   OH221326   2.471   4.089   5.410  0.7112 -0.1125  0.1659
 7121TIP3    H121327   2.510   4.009   5.375  1.7960  1.1937 -1.7947
 7121TIP3    H221328   2.440   4.136   5.333 -1.7253  0.4845  1.4430
 7122TIP3   OH221329   4.095   1.005   2.252 -0.0025  0.0729  0.1582
 7122TIP3    H121330   4.162   1.073   2.259  0.2016 -0.2563  1.6599
 7122TIP3    H221331   4.139   0.924   2.276 -1.1077 -0.0243  2.0717
 7123TIP3   OH221332   4.713   5.286   3.150 -0.2609 -0.7099 -0.0927
 7123TIP3    H121333   4.679   5.325   3.069 -1.2727 -0.4748  0.4418
 7123TIP3    H221334   4.768   5.354   3.188 -0.7529 -0.3740  0.0260
 7124TIP3   OH221335   4.639   0.502   1.601  0.0972  0.1421  0.3080
 7124TIP3    H121336   4.638   0.597   1.617 -1.3390  0.0852  0.6672
 7124TIP3    H221337   4.728   0.485   1.569  0.4750  1.5612  0.4969
 7125TIP3   OH221338   5.899   5.032   3.921 -0.4418 -0.0640  0.6541
 7125TIP3    H121339   5.912   5.085   3.999 -0.4051  0.6739  0.1535
 7125TIP3    H221340   5.805   5.017   3.918 -0.3015 -1.2652  1.5874
 7126TIP3   OH221341   3.923   2.032   4.011 -0.0780  0.6232 -0.4824
 7126TIP3    H121342   3.987   2.101   4.029  0.9356 -0.9778  2.9186
 7126TIP3    H221343   3.951   1.995   3.927  3.3580  0.1914  0.7076
 7127TIP3   OH221344   4.840   2.496   0.632  0.5330  0.2934  0.3097
 7127TIP3    H121345   4.890   2.544   0.698  2.1516 -1.2991  0.3367
 7127TIP3    H221346   4.782   2.439   0.683  0.0636  0.7437  0.2948
 7128TIP3   OH221347   2.271   4.161   2.912 -0.3952  0.1710 -0.2075
 7128TIP3    H121348   2.227   4.083   2.877 -0.7976 -1.3398  3.2078
 7128TIP3    H221349   2.203   4.206   2.962  0.8742  0.0124  1.8072
 7129TIP3   OH221350   0.890   4.976   4.403  0.6845 -0.0544  0.1103
 7129TIP3    H121351   0.904   5.061   4.445 -0.9320 -0.1508  0.9078
 7129TIP3    H221352   0.938   4.914   4.459  0.4543  0.1159  0.5000
 7130TIP3   OH221353   4.568   2.697   1.831 -0.0903 -0.1639 -0.0439
 7130TIP3    H121354   4.538   2.706   1.740  0.2819 -0.9378 -0.2500
 7130TIP3    H221355   4.525   2.768   1.877  1.2587  1.5080 -1.2072
 7131TIP3   OH221356   4.855   5.068   3.010 -0.2185  0.3221  0.4687
 7131TIP3    H121357   4.799   5.115   3.071 -1.3968  0.6257 -0.7882
 7131TIP3    H221358   4.921   5.132   2.984 -0.0680  0.3712  0.9586
 7132TIP3   OH221359   2.231   3.515   0.336 -0.3371  0.1515  0.6013
 7132TIP3    H121360   2.267   3.584   0.280  2.0580 -1.3567  0.1271
 7132TIP3    H221361   2.199   3.449   0.276 -1.3919  0.2431  1.0452
 7133TIP3   OH221362   5.357   1.876   0.139 -0.5396  0.5263  0.4391
 7133TIP3    H121363   5.402   1.898   0.220  1.6392 -0.0373 -0.5163
 7133TIP3    H221364   5.427   1.878   0.072 -2.3406  1.6041 -1.5386
 7134TIP3   OH221365   5.954   2.698   3.126  0.1003  0.1747 -0.5359
 7134TIP3    H121366   6.043   2.702   3.092 -0.4431 -0.0830 -2.0389
 7134TIP3    H221367   5.937   2.605   3.139  0.4456  0.2901  0.8914
 7135TIP3   OH221368   5.962   1.795   5.016 -0.2066 -0.0440 -0.2502
 7135TIP3    H121369   5.939   1.744   4.939  0.0499 -0.7525  0.1325
 7135TIP3    H221370   6.040   1.845   4.989  0.2474 -0.7490 -0.2663
 7136TIP3   OH221371   5.641   1.611   0.044 -0.1982  0.3372 -0.0021
 7136TIP3    H121372   5.698   1.616  -0.033 -0.6330  0.3052 -0.3265
 7136TIP3    H221373   5.552   1.622   0.009 -0.3760  0.6058  0.5284
 7137TIP3   OH221374   1.312   1.068   2.450 -0.4440  0.0464  0.1038
 7137TIP3    H121375   1.291   0.978   2.473 -0.4589 -0.0775 -0.3786
 7137TIP3    H221376   1.272   1.121   2.519 -1.3772 -0.2459 -0.1968
 7138TIP3   OH221377   6.178   5.960   5.288  0.1773 -0.3344  0.2670
 7138TIP3    H121378   6.108   5.962   5.222 -0.7343 -1.7736  1.1312
 7138TIP3    H221379   6.186   5.867   5.311  0.9201  0.0691  1.7388
 7139TIP3   OH221380   0.492   3.078   4.904  0.6137 -0.7685  0.0186
 7139TIP3    H121381   0.427   3.149   4.908  0.0304 -1.2865 -0.0135
 7139TIP3    H221382   0.524   3.080   4.814  2.3531  0.9547  0.5969
 7140TIP3   OH221383   6.658   6.562   5.004  0.0935  0.1829  0.0217
 7140TIP3    H121384   6.745   6.582   4.968 -0.7449  1.9111 -1.1318
 7140TIP3    H221385   6.603   6.547   4.928 -0.5621 -1.3385  0.7573
 7141TIP3   OH221386   2.096   5.030   4.889 -0.3565 -0.2278 -0.1031
 7141TIP3    H121387   2.129   4.943   4.907 -0.0851  0.1559  1.3807
 7141TIP3    H221388   2.112   5.079   4.970 -0.5671  1.1732 -0.8788
 7142TIP3   OH221389   4.831   0.176   4.980  0.1973 -0.1581 -0.7900
 7142TIP3    H121390   4.799   0.264   5.001 -2.4258 -1.2541  0.2117
 7142TIP3    H221391   4.863   0.184   4.890 -0.3674  1.7240 -0.8727
 7143TIP3   OH221392   2.872   1.373   0.043 -0.5825  0.0996 -0.1351
 7143TIP3    H121393   2.839   1.460   0.066 -0.8232 -0.7016  3.0502
 7143TIP3    H221394   2.844   1.317   0.115 -2.2202 -3.1469 -3.0014
 7144TIP3   OH221395   4.551   1.520   0.275  0.0935  0.3340 -1.0007
 7144TIP3    H121396   4.508   1.444   0.313 -0.3681  0.4714 -1.2405
 7144TIP3    H221397   4.573   1.492   0.186 -0.7526  0.7213 -1.3449
 7145TIP3   OH221398   5.618   0.417   2.922  0.2911  0.3634  0.3180
 7145TIP3    H121399   5.579   0.437   3.007 -2.2663 -0.9989 -0.4340
 7145TIP3    H221400   5.652   0.500   2.891 -1.2791  1.4935  1.4706
 7146TIP3   OH221401   2.777   0.406   0.707  0.8707 -0.3257  0.4812
 7146TIP3    H121402   2.715   0.390   0.635 -0.4256 -3.0149  2.0536
 7146TIP3    H221403   2.834   0.475   0.674 -2.1377  1.4158 -1.5700
 7147TIP3   OH221404   5.723   4.234   0.200  0.2160 -0.0547  0.6696
 7147TIP3    H121405   5.745   4.301   0.135 -0.9209  1.4255  1.7239
 7147TIP3    H221406   5.806   4.216   0.244  0.5415  0.7436  0.4148
 7148TIP3   OH221407   1.700   0.617   5.371  0.0220  0.5709  0.2048
 7148TIP3    H121408   1.672   0.548   5.311 -0.7471 -0.2751  1.4887
 7148TIP3    H221409   1.795   0.624   5.358 -0.1712  0.6265 -1.3026
 7149TIP3   OH221410   5.579   2.526   1.247 -0.4094  0.2580  0.0280
 7149TIP3    H121411   5.502   2.470   1.251 -0.5153  0.4355  0.4992
 7149TIP3    H221412   5.641   2.485   1.309 -0.0902  0.0636 -0.4136
 7150TIP3   OH221413   3.382   2.162   0.062 -0.4980 -0.6569  0.2792
 7150TIP3    H121414   3.311   2.198   0.009 -0.5371 -0.2320  0.6088
 7150TIP3    H221415   3.346   2.158   0.151  0.5826  1.6772  0.9009
 7151TIP3   OH221416   4.917   4.609   3.930  0.1263  0.4035  0.2036
 7151TIP3    H121417   4.836   4.648   3.898 -1.2775 -2.2669  0.2532
 7151TIP3    H221418   4.889   4.543   3.993  2.0895 -2.4530 -1.6835
 7152TIP3   OH221419   0.459   6.568   2.211  0.0203  0.0562  0.0531
 7152TIP3    H121420   0.468   6.522   2.294  0.0874 -0.8489 -0.4444
 7152TIP3    H221421   0.415   6.506   2.153 -0.3130  0.7914 -0.5025
 7153TIP3   OH221422   2.809   4.786   0.561 -0.6509 -0.3278  0.3871
 7153TIP3    H121423   2.731   4.837   0.536  0.5930  1.8659  0.7520
 7153TIP3    H221424   2.811   4.791   0.656 -0.6485 -1.3343  0.4469
 7154TIP3   OH221425   1.388   4.508   3.232 -0.0195  0.5452  0.8558
 7154TIP3    H121426   1.306   4.555   3.244  0.1648  0.9635  0.5201
 7154TIP3    H221427   1.439   4.564   3.174  0.9714  0.8712  2.0009
 7155TIP3   OH221428   4.106   6.116   5.198 -0.3089 -0.0788  0.1213
 7155TIP3    H121429   4.090   6.204   5.232 -0.4760 -0.0752  0.0373
 7155TIP3    H221430   4.194   6.094   5.228 -0.0641  0.3199 -0.3007
 7156TIP3   OH221431   5.695   6.280   2.811  0.1341 -0.3826  0.1801
 7156TIP3    H121432   5.695   6.264   2.717  0.9559  1.2928 -0.1430
 7156TIP3    H221433   5.731   6.368   2.821 -0.0771 -0.4546  2.0592
 7157TIP3   OH221434   6.108   3.506   5.824  0.0240  0.3373  0.1086
 7157TIP3    H121435   6.187   3.501   5.771 -0.3871  0.1520 -0.5060
 7157TIP3    H221436   6.118   3.437   5.890  0.7317  0.8520  0.5496
 7158TIP3   OH221437   6.345   2.032   0.252  0.3156 -0.3271 -0.4457
 7158TIP3    H121438   6.435   2.009   0.231  0.3828  0.3795 -0.9846
 7158TIP3    H221439   6.339   2.026   0.347  1.1594  0.4138 -0.3368
 7159TIP3   OH221440   6.648   3.841   0.811 -0.3876  0.2414 -0.2989
 7159TIP3    H121441   6.715   3.878   0.753  0.7600  0.4778  1.1245
 7159TIP3    H221442   6.623   3.914   0.867 -1.9127  0.1657 -0.8409
 7160TIP3   OH221443   3.353   2.780   2.759  0.3461 -0.7227  0.0960
 7160TIP3    H121444   3.407   2.858   2.775  1.3695 -1.6144  1.2457
 7160TIP3    H221445   3.270   2.815   2.726  0.8152  0.8427  0.4596
 7161TIP3   OH221446   2.357   6.701   5.006 -0.2240 -0.5234 -0.3108
 7161TIP3    H121447   2.386   6.788   4.979 -1.5708 -0.2682 -1.0146
 7161TIP3    H221448   2.311   6.717   5.089 -0.7625 -0.4947 -0.6070
 7162TIP3   OH221449   4.909   4.052   3.115 -0.0546  0.1648  0.1513
 7162TIP3    H121450   4.896   3.966   3.073 -0.0869 -0.0179  0.5361
 7162TIP3    H221451   5.000   4.075   3.094 -0.3415  0.4933 -0.7886
 7163TIP3   OH221452   0.892   3.785   3.687  0.2073 -0.2605 -0.2658
 7163TIP3    H121453   0.809   3.791   3.735  0.3860 -1.0295  0.1476
 7163TIP3    H221454   0.941   3.863   3.714 -0.1598 -0.0934 -0.0802
 7164TIP3   OH221455   3.451   1.597   1.117  0.0574  1.2038 -0.1232
 7164TIP3    H121456   3.544   1.586   1.098 -0.1168  0.1241 -0.4648
 7164TIP3    H221457   3.436   1.541   1.194 -0.6670 -0.1257 -1.2015
 7165TIP3   OH221458   0.408   2.826   0.741 -0.2423 -0.7957 -0.6919
 7165TIP3    H121459   0.362   2.803   0.661  0.4831 -2.4784 -0.6537
 7165TIP3    H221460   0.385   2.757   0.804  0.0291 -0.0761  0.2290
 7166TIP3   OH221461   3.182   5.846   1.893  0.0802 -0.1260 -0.1741
 7166TIP3    H121462   3.105   5.860   1.837 -0.7001 -0.1596  0.8748
 7166TIP3    H221463   3.147   5.815   1.976  1.1642  0.7170  0.6304
 7167TIP3   OH221464   3.918   3.252   1.124  0.3944  0.0373  0.1165
 7167TIP3    H121465   3.905   3.346   1.111  1.2473 -0.0167 -1.3086
 7167TIP3    H221466   3.905   3.214   1.037 -3.5353 -1.6756  1.2166
 7168TIP3   OH221467   2.938   5.718   5.406 -0.4942 -0.3119 -0.2519
 7168TIP3    H121468   3.006   5.665   5.365  0.7810  0.0246  1.3252
 7168TIP3    H221469   2.856   5.685   5.370  0.5193 -0.1948 -2.8231
 7169TIP3   OH221470   6.862   1.770   1.154  0.4144  0.5924  0.4262
 7169TIP3    H121471   6.817   1.746   1.072  0.4244  0.3269  0.4977
 7169TIP3    H221472   6.915   1.693   1.175  0.0476  0.4768  0.9383
 7170TIP3   OH221473   3.314   4.071   2.119  0.4020  0.5407 -0.3295
 7170TIP3    H121474   3.289   4.141   2.179  0.8589  0.4109  0.0183
 7170TIP3    H221475   3.397   4.100   2.081  0.6786  0.1115 -0.0545
 7171TIP3   OH221476  -0.031   0.215   4.885  0.6054 -0.0905  0.0323
 7171TIP3    H121477   0.003   0.132   4.851  0.3409 -0.2407  0.1302
 7171TIP3    H221478   0.041   0.253   4.934  1.0786  0.2436 -0.8996
 7172TIP3   OH221479   3.647   6.147   1.291  0.5055 -0.3972 -0.0293
 7172TIP3    H121480   3.687   6.077   1.240  0.4307 -0.8459  0.5192
 7172TIP3    H221481   3.625   6.107   1.375  0.7115  0.3551  0.3956
 7173TIP3   OH221482   3.125   3.148   2.942  0.0187  0.3269  0.4048
 7173TIP3    H121483   3.148   3.063   2.978  0.8708  0.1983 -0.4211
 7173TIP3    H221484   3.208   3.189   2.921 -0.4337  0.5859 -0.9748
 7174TIP3   OH221485   3.168   2.334   2.191 -0.4005 -0.2358 -0.4292
 7174TIP3    H121486   3.241   2.284   2.227  0.7930  1.3626 -0.5151
 7174TIP3    H221487   3.089   2.290   2.225  0.5764 -1.8592 -0.1495
 7175TIP3   OH221488   1.280   3.960   2.341  0.2262 -0.2330  0.4174
 7175TIP3    H121489   1.280   4.018   2.266 -0.6263 -1.1379 -0.3128
 7175TIP3    H221490   1.370   3.961   2.373  0.7937 -0.4676 -1.1262
 7176TIP3   OH221491   7.204   1.252   3.197 -0.2804  0.0180  0.7531
 7176TIP3    H121492   7.122   1.301   3.198 -1.3439 -1.6375 -0.7221
 7176TIP3    H221493   7.267   1.312   3.156 -1.8151 -0.1325 -2.0465
 7177TIP3   OH221494   7.079   3.026   2.679 -0.8184 -0.1652 -0.6267
 7177TIP3    H121495   7.092   3.119   2.662  0.0264 -0.3054 -0.7670
 7177TIP3    H221496   7.032   2.993   2.602  1.8054 -0.5255 -2.1813
 7178TIP3   OH221497   6.936   6.568   4.997  0.0854 -0.1825 -0.0315
 7178TIP3    H121498   6.917   6.594   5.087  5.8531  0.3140  1.4529
 7178TIP3    H221499   6.939   6.649   4.948  0.9528  0.0825  0.4251
 7179TIP3   OH221500   4.576   3.399   2.372 -0.5911 -0.5632 -0.5288
 7179TIP3    H121501   4.652   3.402   2.430  0.1893  1.0437 -1.5574
 7179TIP3    H221502   4.505   3.365   2.426  0.6908 -1.4502  0.6506
 7180TIP3   OH221503   5.921   4.232   4.815 -0.0773  0.1809 -0.6896
 7180TIP3    H121504   5.979   4.259   4.744  1.0823 -0.1635  0.1147
 7180TIP3    H221505   5.860   4.306   4.825 -0.4792  0.0995 -2.2413
 7181TIP3   OH221506   2.227   5.615   1.157 -0.3735 -0.3113  0.1856
 7181TIP3    H121507   2.231   5.700   1.113 -0.2363  0.3799  1.5105
 7181TIP3    H221508   2.319   5.594   1.177 -0.5428  0.1155  1.4978
 7182TIP3   OH221509   5.919   0.091   0.374 -0.0499 -0.4192 -0.3078
 7182TIP3    H121510   6.000   0.106   0.423 -0.0863 -0.8001 -0.1212
 7182TIP3    H221511   5.888   0.006   0.407 -1.4385  0.5066  0.8807
 7183TIP3   OH221512   4.628   0.414   2.827  0.4094 -0.2301  0.2547
 7183TIP3    H121513   4.717   0.401   2.860  0.5650  0.1389 -0.0105
 7183TIP3    H221514   4.578   0.340   2.861  1.1613 -1.2935 -0.8562
 7184TIP3   OH221515   0.958   4.831   1.294  1.1003 -0.1613  0.1048
 7184TIP3    H121516   0.886   4.871   1.246  1.0641 -0.8011 -0.3950
 7184TIP3    H221517   1.031   4.828   1.232  1.0333 -1.0501  0.0452
 7185TIP3   OH221518   3.160   1.857   2.144  0.9310 -0.0889  0.1932
 7185TIP3    H121519   3.082   1.808   2.120  0.6865 -0.0130  0.8158
 7185TIP3    H221520   3.181   1.827   2.232  0.7932  0.8958  0.5743
 7186TIP3   OH221521   0.313   2.191   0.998 -0.4788  0.5131  0.3228
 7186TIP3    H121522   0.304   2.285   1.019 -0.6814  0.2804  1.3706
 7186TIP3    H221523   0.226   2.165   0.970 -0.5819  0.5012  0.6493
 7187TIP3   OH221524   3.316   3.417   5.306 -0.6384 -0.3752  0.4362
 7187TIP3    H121525   3.305   3.488   5.243 -0.6855 -1.3617 -0.6996
 7187TIP3    H221526   3.232   3.413   5.352 -1.6795 -1.4470 -1.4130
 7188TIP3   OH221527   3.355   3.634   1.529 -0.1508 -0.1666 -0.2551
 7188TIP3    H121528   3.369   3.681   1.446  0.3230 -0.7098 -0.4921
 7188TIP3    H221529   3.263   3.650   1.550 -0.0330  0.7615 -0.3914
 7189TIP3   OH221530   5.732   1.038   2.556  0.5549  0.1767 -0.4918
 7189TIP3    H121531   5.703   1.070   2.642  1.3367 -0.8832  0.1982
 7189TIP3    H221532   5.738   0.943   2.567 -0.6494 -0.1413 -2.1437
 7190TIP3   OH221533   3.786   1.333   4.436  0.1783 -0.4165  0.9275
 7190TIP3    H121534   3.809   1.383   4.514 -0.1309  1.2297  0.0344
 7190TIP3    H221535   3.863   1.338   4.380  0.0524 -0.7218  0.7220
 7191TIP3   OH221536   2.585   2.043   4.653  0.5023 -0.5586  0.6281
 7191TIP3    H121537   2.637   1.993   4.590  0.1540 -1.8422  1.3276
 7191TIP3    H221538   2.495   2.033   4.624  0.5213  0.8150  0.0082
 7192TIP3   OH221539   4.692   4.539   0.508 -0.0466  0.2917 -0.4023
 7192TIP3    H121540   4.609   4.579   0.485 -0.7211 -0.2239  1.0413
 7192TIP3    H221541   4.709   4.477   0.437 -1.5163 -0.4702 -0.1314
 7193TIP3   OH221542   3.234   6.666   2.566  0.1313 -0.0772 -0.2652
 7193TIP3    H121543   3.203   6.618   2.643 -2.7979  1.5456 -0.2773
 7193TIP3    H221544   3.221   6.605   2.493  0.0840 -0.5934  0.1676
 7194TIP3   OH221545   1.028   5.082   4.803  0.3405 -0.6358 -0.3521
 7194TIP3    H121546   1.101   5.046   4.853 -0.9330 -0.6208  1.6491
 7194TIP3    H221547   0.965   5.009   4.799 -1.4094  0.6286  1.9645
 7195TIP3   OH221548   5.522   6.628   5.371  0.1595 -0.1203  0.4020
 7195TIP3    H121549   5.594   6.610   5.309  0.0654  1.5785 -0.2772
 7195TIP3    H221550   5.506   6.545   5.414 -0.5665 -1.7592 -2.7075
 7196TIP3   OH221551   5.684   6.414   5.842 -0.2384 -0.3133  0.1851
 7196TIP3    H121552   5.612   6.380   5.790  0.5779 -0.1240 -1.1092
 7196TIP3    H221553   5.689   6.356   5.918 -2.7373  0.5876  1.1401
 7197TIP3   OH221554   5.007   2.527   1.787  0.1374 -0.1048  0.5032
 7197TIP3    H121555   5.087   2.532   1.839  0.8912 -0.8193 -0.5419
 7197TIP3    H221556   4.980   2.618   1.775  0.1394  0.0884  1.8169
 7198TIP3   OH221557   0.615   4.425   1.112 -0.3504 -0.4971  0.2793
 7198TIP3    H121558   0.528   4.438   1.152 -1.1018 -1.2150 -1.0544
 7198TIP3    H221559   0.632   4.331   1.121  0.5847 -0.2702  1.0661
 7199TIP3   OH221560   4.764   0.847   1.385  0.0989 -0.6466 -0.3580
 7199TIP3    H121561   4.688   0.812   1.338 -1.1827  1.8224 -0.2923
 7199TIP3    H221562   4.746   0.826   1.477 -1.1431  0.8518 -0.2049
 7200TIP3   OH221563   6.152   5.689   4.396 -0.1279  0.0471  0.0277
 7200TIP3    H121564   6.058   5.704   4.403 -0.2554 -0.2065 -0.9491
 7200TIP3    H221565   6.172   5.629   4.468 -1.3286 -2.4788 -1.6084
 7201TIP3   OH221566   3.826   2.454   4.081  0.6666  0.4447  1.1960
 7201TIP3    H121567   3.840   2.371   4.127  2.5300 -0.5764 -1.0219
 7201TIP3    H221568   3.733   2.454   4.060  0.3616 -0.4086  2.4122
 7202TIP3   OH221569   4.664   0.160   3.648 -0.0626  0.5994 -0.6077
 7202TIP3    H121570   4.571   0.162   3.624 -0.0952  0.0367 -0.5580
 7202TIP3    H221571   4.686   0.066   3.647  0.4122  0.7074 -0.2700
 7203TIP3   OH221572   1.910   5.842   5.118  0.2452  0.4665  0.1339
 7203TIP3    H121573   1.872   5.840   5.030 -0.1877 -2.2879  0.2672
 7203TIP3    H221574   2.003   5.825   5.104  0.3598  1.1003  0.1401
 7204TIP3   OH221575   5.224   1.488   2.908 -0.5779 -0.5094 -0.2860
 7204TIP3    H121576   5.288   1.423   2.937  0.3715  0.3066 -0.5268
 7204TIP3    H221577   5.139   1.446   2.924  0.0133 -2.0800 -1.0386
 7205TIP3   OH221578   0.412   5.059   0.057 -0.5224  0.0192 -0.3334
 7205TIP3    H121579   0.468   5.130   0.086  1.5088 -2.3169  1.9707
 7205TIP3    H221580   0.462   5.014  -0.011 -1.4073  0.2427 -1.1577
 7206TIP3   OH221581   0.199   5.151   2.463 -0.3069  0.1415 -0.8868
 7206TIP3    H121582   0.211   5.076   2.521  0.5823  0.5693 -0.5044
 7206TIP3    H221583   0.273   5.145   2.401  1.4190  2.2074  0.8325
 7207TIP3   OH221584   6.449   2.634   2.711 -0.3575 -0.5513  0.3574
 7207TIP3    H121585   6.539   2.629   2.681 -0.5676 -0.8039 -0.2579
 7207TIP3    H221586   6.424   2.543   2.730 -1.1733 -0.8246 -1.6605
 7208TIP3   OH221587   6.360   1.003   3.599  0.1680 -0.3790 -0.2015
 7208TIP3    H121588   6.388   0.913   3.614 -0.3220 -0.8462 -1.8947
 7208TIP3    H221589   6.400   1.027   3.516  1.8932  1.6888  1.0990
 7209TIP3   OH221590   0.330   4.872   0.517 -0.2483 -0.4526  0.1575
 7209TIP3    H121591   0.408   4.829   0.481 -1.1759 -3.2356  1.2005
 7209TIP3    H221592   0.365   4.943   0.571  1.4601 -0.5827 -0.7129
 7210TIP3   OH221593   5.533   4.026   1.954  0.0833  0.2223 -0.1138
 7210TIP3    H121594   5.607   4.036   2.014 -0.4768  0.5668  0.5434
 7210TIP3    H221595   5.460   4.069   2.000 -1.0604 -1.9567  0.2357
 7211TIP3   OH221596   2.504   5.499   4.656 -0.0372  0.2003 -0.2330
 7211TIP3    H121597   2.560   5.504   4.734  1.4572  0.3672 -1.2648
 7211TIP3    H221598   2.423   5.459   4.687  0.9647 -0.8611  1.1683
 7212TIP3   OH221599   3.976   1.324   0.859 -0.4901 -0.1155 -0.0298
 7212TIP3    H121600   3.967   1.398   0.920 -0.6804 -0.7588  0.7431
 7212TIP3    H221601   4.071   1.317   0.844 -0.5219  0.7565 -0.7206
 7213TIP3   OH221602   2.465   5.495   0.564  0.8891  0.1132  0.4513
 7213TIP3    H121603   2.447   5.404   0.540  2.1834  0.3761 -1.7355
 7213TIP3    H221604   2.426   5.547   0.494 -0.6995  1.3797  2.1576
 7214TIP3   OH221605   1.156   4.500   1.806  0.0251  0.0336  0.3451
 7214TIP3    H121606   1.149   4.464   1.717 -2.8008  1.7491 -0.2622
 7214TIP3    H221607   1.211   4.577   1.795 -0.7268  0.5307 -0.0768
 7215TIP3   OH221608   1.455   1.178   5.800  0.4043  0.3397  0.1973
 7215TIP3    H121609   1.431   1.242   5.868  2.6279 -0.5485  1.9564
 7215TIP3    H221610   1.523   1.222   5.749 -0.2817  0.4965 -0.5935
 7216TIP3   OH221611   2.535   2.550   0.706 -0.9431  0.6612 -0.3219
 7216TIP3    H121612   2.617   2.600   0.706  0.3792 -1.3712 -0.0035
 7216TIP3    H221613   2.515   2.537   0.613  1.1955 -1.9024 -0.5497
 7217TIP3   OH221614   3.639   0.572   5.357  0.0922  0.7777  0.2681
 7217TIP3    H121615   3.677   0.535   5.278 -1.9040  2.1665 -1.4488
 7217TIP3    H221616   3.573   0.509   5.384  0.2750  0.6417  0.3959
 7218TIP3   OH221617   6.760   4.266   4.376 -0.0485  0.1357 -0.2571
 7218TIP3    H121618   6.714   4.232   4.299  2.1102  0.7905 -1.9350
 7218TIP3    H221619   6.782   4.189   4.427 -0.3467 -0.4351 -0.9763
 7219TIP3   OH221620   2.641   4.175   1.766 -0.2186  0.0976 -0.3728
 7219TIP3    H121621   2.560   4.140   1.805 -1.4653  1.0363 -1.9708
 7219TIP3    H221622   2.676   4.102   1.715 -0.8484  0.0693 -0.7902
 7220TIP3   OH221623   1.914   3.928   4.362 -0.1964  0.1084  0.0634
 7220TIP3    H121624   2.009   3.930   4.354 -0.1975  1.3185  0.2374
 7220TIP3    H221625   1.898   3.941   4.456 -0.5423  0.4965 -0.0470
 7221TIP3   OH221626   1.547   6.066   2.358  0.3855 -0.8006  0.0280
 7221TIP3    H121627   1.641   6.062   2.337  0.5607  0.9863  0.2801
 7221TIP3    H221628   1.544   6.109   2.443 -0.6700 -0.6711 -0.0691
 7222TIP3   OH221629   4.638   6.011   0.356  0.2292 -0.2854 -0.0951
 7222TIP3    H121630   4.702   5.941   0.354 -0.0319 -0.7078  2.5609
 7222TIP3    H221631   4.566   5.976   0.409 -0.8124  1.2527 -0.4328
 7223TIP3   OH221632   0.672   0.350   4.040  0.1153 -0.0452 -0.5230
 7223TIP3    H121633   0.638   0.285   3.978 -0.9423 -1.2770  1.2632
 7223TIP3    H221634   0.736   0.301   4.093  0.6739  0.8669 -0.3404
 7224TIP3   OH221635   1.227   1.286   5.168  0.0080  0.6058 -0.0210
 7224TIP3    H121636   1.298   1.328   5.216  1.1328 -0.4429 -0.7349
 7224TIP3    H221637   1.259   1.280   5.078  0.3673 -2.7169  0.2290
 7225TIP3   OH221638   4.064   4.578   1.974  0.1381 -0.1034  0.1002
 7225TIP3    H121639   4.116   4.508   1.933  0.4471 -0.1514  0.5628
 7225TIP3    H221640   3.996   4.532   2.023  0.3898 -0.0882  0.4696
 7226TIP3   OH221641   6.348   6.452   1.790 -0.4008  0.1673 -0.0478
 7226TIP3    H121642   6.360   6.386   1.721 -2.9569 -0.0240 -0.4114
 7226TIP3    H221643   6.407   6.524   1.764 -2.4743  0.8638 -3.5185
 7227TIP3   OH221644   5.542   1.514   2.659  0.0130 -0.4086  0.3142
 7227TIP3    H121645   5.486   1.549   2.591  1.1839  0.2872 -0.3199
 7227TIP3    H221646   5.631   1.537   2.632  0.4362  1.3585  2.8784
 7228TIP3   OH221647   4.204   3.048   3.769  0.0036 -0.1932  0.0519
 7228TIP3    H121648   4.128   3.041   3.712 -0.3521  0.1326  0.4813
 7228TIP3    H221649   4.272   3.086   3.714  0.8712 -3.3489 -1.3027
 7229TIP3   OH221650   6.656   1.377   4.196 -0.0874  0.2210 -0.4191
 7229TIP3    H121651   6.746   1.407   4.205 -0.0511  0.4671 -1.5459
 7229TIP3    H221652   6.604   1.457   4.195 -0.3674  0.0673  0.6069
 7230TIP3   OH221653   3.268   5.009   4.303  0.4839  0.2854 -0.4447
 7230TIP3    H121654   3.287   5.103   4.310 -1.2764  0.6174  0.5205
 7230TIP3    H221655   3.251   4.995   4.210  1.6614  0.7187 -0.7395
 7231TIP3   OH221656   4.277   0.920   5.042 -0.0423 -0.1617 -0.0503
 7231TIP3    H121657   4.246   0.917   4.951  0.5689  1.0645 -0.3177
 7231TIP3    H221658   4.215   0.979   5.086  0.2876  0.0997  0.0661
 7232TIP3   OH221659   5.167   0.430   2.775 -0.5252 -0.4101 -0.1248
 7232TIP3    H121660   5.174   0.418   2.870  1.6745  0.4587 -0.1215
 7232TIP3    H221661   5.257   0.423   2.743 -0.8734  1.7658 -1.8495
 7233TIP3   OH221662   6.919   3.838   1.432 -0.0136 -0.3262  0.2399
 7233TIP3    H121663   6.958   3.788   1.504  4.3352  2.4799  0.2107
 7233TIP3    H221664   6.841   3.878   1.470 -0.4608 -2.5469  1.8833
 7234TIP3   OH221665   2.162   5.986   5.786  0.4531  0.1660  0.1060
 7234TIP3    H121666   2.219   5.911   5.803  2.1073  0.9581 -1.5170
 7234TIP3    H221667   2.074   5.955   5.804  1.3835 -0.9966  3.1399
 7235TIP3   OH221668   1.389   0.850   2.896  0.0147 -0.6845 -0.1752
 7235TIP3    H121669   1.470   0.813   2.861  0.0357 -1.0381  0.2374
 7235TIP3    H221670   1.365   0.792   2.968  0.9066  0.9645  1.5356
 7236TIP3   OH221671   1.033   6.415   0.805  0.6478 -0.0657 -0.3577
 7236TIP3    H121672   0.975   6.454   0.740  1.4989  0.6719 -0.6831
 7236TIP3    H221673   0.991   6.435   0.889  0.2044  0.0658 -0.6072
 7237TIP3   OH221674   6.367   0.565   2.761 -0.1258  0.5860  0.8174
 7237TIP3    H121675   6.361   0.483   2.712 -0.1770  0.5913  0.8151
 7237TIP3    H221676   6.309   0.625   2.714 -0.8129  0.3576  1.3675
 7238TIP3   OH221677   6.717   4.330   2.447 -0.2288 -0.4163 -0.2452
 7238TIP3    H121678   6.759   4.283   2.519 -1.4609 -0.5440  0.4234
 7238TIP3    H221679   6.625   4.334   2.472 -0.4422  0.7824 -1.1601
 7239TIP3   OH221680   0.272   4.410   5.288  0.3203 -0.2168 -0.5985
 7239TIP3    H121681   0.272   4.315   5.302  0.7789 -0.0418  0.7586
 7239TIP3    H221682   0.337   4.424   5.219 -1.0908 -1.0326 -2.1383
 7240TIP3   OH221683   6.834   1.577   2.038 -0.3774  0.2981  0.0164
 7240TIP3    H121684   6.822   1.563   1.944  0.7137 -1.0200  0.0507
 7240TIP3    H221685   6.781   1.508   2.079  0.1083  0.1140  0.3375
 7241TIP3   OH221686   3.246   6.635   2.866  0.1412 -1.0848 -0.0703
 7241TIP3    H121687   3.247   6.547   2.904 -0.2435  0.2493  3.4335
 7241TIP3    H221688   3.165   6.674   2.899  0.5434  0.7308 -1.1141
 7242TIP3   OH221689   3.137   2.836   1.121  0.7150  0.0589 -0.8060
 7242TIP3    H121690   3.220   2.842   1.167  0.1415  1.0233  0.1483
 7242TIP3    H221691   3.102   2.925   1.123 -1.3350 -0.7090  0.7034
 7243TIP3   OH221692   4.562   1.859   5.829 -0.2911  0.1277  0.6512
 7243TIP3    H121693   4.521   1.821   5.751  0.5580 -0.5644  0.5208
 7243TIP3    H221694   4.502   1.928   5.856  0.2143  1.5692 -1.6131
 7244TIP3   OH221695   3.449   4.118   3.195 -0.3197  0.0776  0.4194
 7244TIP3    H121696   3.526   4.061   3.195  0.0616  0.5822  0.1052
 7244TIP3    H221697   3.479   4.199   3.235 -0.1373  0.9788 -1.4482
 7245TIP3   OH221698   5.465   3.298   5.579 -0.0136 -0.3561  0.1317
 7245TIP3    H121699   5.506   3.331   5.499  0.4050 -0.2942  0.3720
 7245TIP3    H221700   5.394   3.360   5.597  0.7039  0.3679  0.5276
 7246TIP3   OH221701   3.808   2.823   0.399 -0.0815 -1.1106  0.6988
 7246TIP3    H121702   3.759   2.743   0.418 -1.8895 -0.3251 -0.3529
 7246TIP3    H221703   3.843   2.811   0.311  1.8507 -1.7354  1.5097
 7247TIP3   OH221704   0.441   5.014   3.492 -0.0644 -0.5932 -0.2991
 7247TIP3    H121705   0.356   4.986   3.457  0.5584 -1.2341 -1.3602
 7247TIP3    H221706   0.497   4.937   3.482  0.8238  0.0313 -0.2239
 7248TIP3   OH221707   5.228   1.424   2.104 -0.0146  0.0573 -0.0834
 7248TIP3    H121708   5.309   1.417   2.155 -0.8116  0.5746  1.3266
 7248TIP3    H221709   5.166   1.466   2.164 -1.7303 -1.5326 -0.6258
 7249TIP3   OH221710   5.403   6.644   0.073  0.6217  0.2049  0.6501
 7249TIP3    H121711   5.429   6.736   0.075  0.0322  0.4427 -0.9554
 7249TIP3    H221712   5.331   6.641   0.009  1.3939 -1.5331 -0.2090
 7250TIP3   OH221713   6.094   4.210   5.036  0.0362  0.2348 -0.0219
 7250TIP3    H121714   6.034   4.258   5.093  0.3119 -0.0515  0.5115
 7250TIP3    H221715   6.048   4.205   4.952 -1.1149 -0.8289  0.6365
 7251TIP3   OH221716   0.136   0.424   2.437 -0.4744 -0.3304  0.1063
 7251TIP3    H121717   0.144   0.329   2.445  0.4313 -0.1634  1.6923
 7251TIP3    H221718   0.069   0.437   2.371 -1.6391 -2.0907  0.8718
 7252TIP3   OH221719   5.420   6.645   1.514  0.7004 -0.1549 -0.0397
 7252TIP3    H121720   5.370   6.711   1.468  2.1842 -0.3398 -2.0570
 7252TIP3    H221721   5.418   6.568   1.457  1.8995 -0.6889  0.5828
 7253TIP3   OH221722   5.808   6.347   2.311  0.3580 -0.4607  0.1633
 7253TIP3    H121723   5.866   6.322   2.239 -1.3469  0.9694 -1.8214
 7253TIP3    H221724   5.727   6.298   2.295  0.2097 -0.7032  1.5753
 7254TIP3   OH221725   5.298   3.533   5.657 -0.6968 -0.2172  0.3236
 7254TIP3    H121726   5.340   3.534   5.744 -1.2538 -3.3307  0.7456
 7254TIP3    H221727   5.272   3.623   5.642  1.9899  0.9838  2.0994
 7255TIP3   OH221728   6.490   3.831   0.582  0.0989  0.0770 -0.5402
 7255TIP3    H121729   6.525   3.758   0.530 -0.3388 -0.8317  0.3921
 7255TIP3    H221730   6.540   3.828   0.664 -2.4349 -1.6488  1.0915
 7256TIP3   OH221731   3.282   0.618   0.952 -0.0058  0.2468 -0.0655
 7256TIP3    H121732   3.306   0.624   0.859  0.0931 -1.0436 -0.1449
 7256TIP3    H221733   3.365   0.627   0.999 -0.1862  1.9694 -0.0320
 7257TIP3   OH221734   4.207   6.496   3.602 -0.2013 -0.2283 -0.1209
 7257TIP3    H121735   4.264   6.569   3.579  0.5131 -0.4057  1.0231
 7257TIP3    H221736   4.267   6.426   3.628 -0.9184 -0.7993  0.0370
 7258TIP3   OH221737   6.992   2.802   5.587  0.1150  0.1251  0.0740
 7258TIP3    H121738   6.972   2.864   5.517  1.7281  2.3586  1.4361
 7258TIP3    H221739   6.910   2.792   5.635 -0.5844 -0.1409 -1.1424
 7259TIP3   OH221740   1.002   4.511   3.820 -0.1857  0.0273 -0.0364
 7259TIP3    H121741   0.914   4.487   3.791 -0.2812 -1.2031  1.1524
 7259TIP3    H221742   1.000   4.499   3.915  1.0802  0.6009  0.0791
 7260TIP3   OH221743   3.733   3.526   2.764 -0.3463  0.5548  0.1685
 7260TIP3    H121744   3.748   3.579   2.686 -0.4036 -1.7183 -1.5030
 7260TIP3    H221745   3.649   3.483   2.748  0.3931 -1.1804  0.6924
 7261TIP3   OH221746   5.080   1.198   5.373 -0.9178 -0.0217 -0.2239
 7261TIP3    H121747   5.087   1.253   5.295 -0.0611  1.4189  0.8431
 7261TIP3    H221748   5.149   1.228   5.431 -0.6905 -1.9483  0.5956
 7262TIP3   OH221749   0.523   1.743   2.185  0.1523  0.0137  0.1882
 7262TIP3    H121750   0.567   1.674   2.136  0.0520 -0.0398  0.1733
 7262TIP3    H221751   0.503   1.703   2.270 -2.1556 -0.8181 -0.6584
 7263TIP3   OH221752   0.299   6.585   1.801 -0.4788 -0.3610  0.6252
 7263TIP3    H121753   0.263   6.661   1.756 -0.4335 -1.1060 -0.7441
 7263TIP3    H221754   0.249   6.577   1.882 -0.7291  0.8857  0.6065
 7264TIP3   OH221755   6.545   0.086   4.668  0.1676  0.1438  0.2322
 7264TIP3    H121756   6.541   0.067   4.762  1.2303  0.1767  0.2905
 7264TIP3    H221757   6.471   0.146   4.653  0.7090  1.1261  1.2883
 7265TIP3   OH221758   3.077   3.138   0.150 -0.0889  0.2811  0.0575
 7265TIP3    H121759   3.128   3.157   0.071  0.9774 -1.2991  0.3044
 7265TIP3    H221760   3.106   3.202   0.214  3.7050 -2.0580  1.0206
 7266TIP3   OH221761   3.560   5.344   4.109 -0.0781 -0.2863 -0.2372
 7266TIP3    H121762   3.522   5.431   4.120  0.7125  0.1806 -1.0342
 7266TIP3    H221763   3.490   5.291   4.071 -0.8557 -0.2586  1.1037
 7267TIP3   OH221764   3.398   4.036   5.357  0.1728 -0.0747 -0.2371
 7267TIP3    H121765   3.361   3.953   5.385 -1.3395  0.5625 -0.2519
 7267TIP3    H221766   3.401   4.089   5.437  1.0633 -0.0911 -0.2404
 7268TIP3   OH221767   0.137   3.336   4.458 -0.1386  0.0433  0.3687
 7268TIP3    H121768   0.105   3.352   4.547 -0.8771 -0.4564  0.1978
 7268TIP3    H221769   0.065   3.291   4.414  0.4581 -0.2704 -0.3007
 7269TIP3   OH221770   5.806   5.969   4.786 -0.1515  0.1578  0.0564
 7269TIP3    H121771   5.818   5.882   4.825 -0.4729  0.5363  1.0106
 7269TIP3    H221772   5.850   5.962   4.701 -1.9909 -1.6010 -0.8383
 7270TIP3   OH221773   5.481   0.494   2.146  0.0176  0.4999  0.3804
 7270TIP3    H121774   5.461   0.547   2.223  0.4544 -1.2541  1.7536
 7270TIP3    H221775   5.424   0.418   2.154 -0.6770  0.7415 -1.6099
 7271TIP3   OH221776   3.385   4.840   0.591 -0.1257  0.2395  0.3284
 7271TIP3    H121777   3.462   4.810   0.638 -0.3906  0.8370  1.1793
 7271TIP3    H221778   3.416   4.912   0.536 -0.1875  0.9373  1.1871
 7272TIP3   OH221779   2.483   6.569   4.407 -0.1466  0.3504 -0.3228
 7272TIP3    H121780   2.538   6.558   4.329 -2.0403 -0.6235 -1.6043
 7272TIP3    H221781   2.393   6.569   4.373 -1.1056 -1.3137  1.9550
 7273TIP3   OH221782   0.421   6.507   5.841 -0.3818  0.0607  0.4127
 7273TIP3    H121783   0.363   6.550   5.778 -0.4742 -0.2389  0.2879
 7273TIP3    H221784   0.459   6.434   5.792  0.2377  0.3599  0.4451
 7274TIP3   OH221785   3.246   5.395   4.013 -0.5083 -0.1290  0.7454
 7274TIP3    H121786   3.186   5.436   3.950  1.6790 -0.3013 -1.5919
 7274TIP3    H221787   3.271   5.466   4.072  0.4802  1.1354 -1.0867
 7275TIP3   OH221788   6.965   0.976   4.803  0.0321 -0.1596  0.2648
 7275TIP3    H121789   6.916   1.022   4.735 -0.1076 -1.0548 -0.2582
 7275TIP3    H221790   7.048   1.024   4.810  0.5238 -0.6930 -1.3486
 7276TIP3   OH221791   0.779   5.933   0.234  0.5517 -0.7734  0.2848
 7276TIP3    H121792   0.705   5.994   0.243  1.6639  0.9807 -1.5809
 7276TIP3    H221793   0.741   5.847   0.254 -1.3654  0.3497  1.8558
 7277TIP3   OH221794   0.725   0.989   2.166  0.3853  0.1808 -0.0858
 7277TIP3    H121795   0.653   1.050   2.182  1.7212  1.3356  2.0016
 7277TIP3    H221796   0.767   1.022   2.086  0.4300  1.3540  0.4062
 7278TIP3   OH221797   0.090   1.766   5.035 -0.5764  0.2859 -0.0143
 7278TIP3    H121798   0.058   1.837   5.091  0.8517  1.3543 -0.5088
 7278TIP3    H221799   0.158   1.723   5.086 -0.9103 -0.2606 -0.0194
 7279TIP3   OH221800   4.192   3.174   5.603 -0.7123 -0.3278  0.1571
 7279TIP3    H121801   4.271   3.221   5.629 -1.2029  0.3154  0.4892
 7279TIP3    H221802   4.223   3.085   5.585  1.0622  0.9334 -4.5643
 7280TIP3   OH221803   0.901   0.141   4.593  0.1187  0.5437  0.0197
 7280TIP3    H121804   0.868   0.220   4.549  2.1634  1.3512 -0.1806
 7280TIP3    H221805   0.934   0.173   4.676  0.5034 -0.2064  0.1514
 7281TIP3   OH221806   3.258   0.383   4.421  0.5375  0.2720 -0.0734
 7281TIP3    H121807   3.178   0.334   4.438  1.3406 -0.4858  1.8722
 7281TIP3    H221808   3.252   0.461   4.477  1.0506  0.3017 -0.0482
 7282TIP3   OH221809   5.754   6.658   1.456  0.5725 -0.4721  0.3922
 7282TIP3    H121810   5.687   6.718   1.423  0.4700  0.1980  1.7188
 7282TIP3    H221811   5.773   6.600   1.383 -0.1872  0.4377 -0.5617
 7283TIP3   OH221812   4.171   0.607   5.268 -0.6801 -0.4148  0.1298
 7283TIP3    H121813   4.243   0.656   5.227  0.3802 -1.6873  0.4052
 7283TIP3    H221814   4.209   0.572   5.349 -2.3762  1.0269  1.6445
 7284TIP3   OH221815   2.780   6.583   5.555  0.9324 -0.3239 -0.7145
 7284TIP3    H121816   2.771   6.661   5.609 -1.8909 -1.1179  0.1563
 7284TIP3    H221817   2.753   6.511   5.612  3.4472 -2.0181 -1.4902
 7285TIP3   OH221818   3.427   0.248   4.030 -0.2507  0.2932  0.4296
 7285TIP3    H121819   3.518   0.228   4.053  0.4493  0.3990 -1.9732
 7285TIP3    H221820   3.399   0.310   4.097  1.1044 -0.5113  1.8014
 7286TIP3   OH221821   3.927   3.385   1.947 -0.6363 -0.3323 -0.2972
 7286TIP3    H121822   3.992   3.327   1.908 -1.4892 -0.8887 -0.9444
 7286TIP3    H221823   3.976   3.463   1.973  0.4532 -1.1661  0.1878
 7287TIP3   OH221824   0.610   4.219   3.592 -0.4214 -0.0389 -0.0684
 7287TIP3    H121825   0.590   4.134   3.553  1.3612  0.2838 -1.8570
 7287TIP3    H221826   0.565   4.283   3.536 -0.3835  0.2904  0.2681
 7288TIP3   OH221827   3.629   2.583   2.474 -0.1217  0.0719 -0.1454
 7288TIP3    H121828   3.538   2.597   2.500  0.9279  3.0223  2.6913
 7288TIP3    H221829   3.662   2.520   2.537  0.0200 -0.3947 -0.6799
 7289TIP3   OH221830   2.227   4.200   0.941  0.3844 -0.3417 -0.0956
 7289TIP3    H121831   2.232   4.173   0.849  0.1942 -0.3592 -0.0996
 7289TIP3    H221832   2.182   4.285   0.938  1.4738  0.2646 -0.1447
 7290TIP3   OH221833   5.500   4.651   3.145 -0.3931  0.6754 -0.9070
 7290TIP3    H121834   5.557   4.581   3.175  0.9864  2.7219  1.6542
 7290TIP3    H221835   5.461   4.687   3.225  0.2679  3.8606 -1.8689
 7291TIP3   OH221836   1.783   3.033   2.878  0.1435  0.0173  0.1491
 7291TIP3    H121837   1.793   3.007   2.970 -0.5774  0.3859  0.3434
 7291TIP3    H221838   1.791   2.952   2.829  1.0194 -0.1186  0.4938
 7292TIP3   OH221839   3.555   5.348   4.453  0.4624 -0.3738  0.1286
 7292TIP3    H121840   3.598   5.301   4.381 -2.8147 -2.8054 -0.4398
 7292TIP3    H221841   3.502   5.415   4.409  0.6221  0.0177  0.5225
 7293TIP3   OH221842   0.402   2.659   1.074 -0.2536 -0.0588 -0.2594
 7293TIP3    H121843   0.403   2.719   1.148  1.6786 -1.2529  0.7537
 7293TIP3    H221844   0.324   2.685   1.024 -1.3994  1.0537  1.9344
 7294TIP3   OH221845   4.961   2.725   0.878 -0.3889 -0.4264  0.0600
 7294TIP3    H121846   4.954   2.820   0.886  0.4805 -0.3538 -0.0064
 7294TIP3    H221847   5.026   2.711   0.810 -1.3535 -1.0804 -0.7522
 7295TIP3   OH221848   4.891   0.844   3.573 -0.2896 -0.0970 -0.2469
 7295TIP3    H121849   4.976   0.886   3.589 -0.8284  0.9174 -0.0310
 7295TIP3    H221850   4.909   0.750   3.583  0.8493  0.0915 -0.3956
 7296TIP3   OH221851   6.829   0.450   3.579 -0.3471  0.1277 -0.4507
 7296TIP3    H121852   6.914   0.453   3.535  0.4374  1.5223  1.0346
 7296TIP3    H221853   6.767   0.427   3.510  1.1123 -0.0191 -1.7658
 7297TIP3   OH221854   6.283   1.944   0.760  0.3060  0.1471  0.7618
 7297TIP3    H121855   6.294   1.969   0.851  1.2141  1.4758  0.3107
 7297TIP3    H221856   6.198   1.981   0.735  0.2984  0.2327  0.9147
 7298TIP3   OH221857   6.208   0.597   1.039 -0.0758 -0.5814  0.3270
 7298TIP3    H121858   6.300   0.620   1.026  0.0771  0.0627  2.2429
 7298TIP3    H221859   6.160   0.677   1.020 -0.1094 -0.5056  0.7268
 7299TIP3   OH221860   5.790   1.977   0.278  0.2192 -0.2153 -0.5070
 7299TIP3    H121861   5.787   2.020   0.193  0.9283 -2.0996 -1.5424
 7299TIP3    H221862   5.871   2.009   0.318  0.0160  0.4859 -0.6486
 7300TIP3   OH221863   4.591   3.484   5.768 -0.0738  0.0595  0.1721
 7300TIP3    H121864   4.634   3.400   5.751 -2.6753 -1.2997 -0.1481
 7300TIP3    H221865   4.506   3.477   5.724 -0.9395  2.3186  1.3387
 7301TIP3   OH221866   4.802   5.802   0.305  0.3803 -0.3393 -0.7769
 7301TIP3    H121867   4.741   5.731   0.285 -2.0476  1.1546  0.8245
 7301TIP3    H221868   4.861   5.765   0.370 -1.2576 -0.7740  0.5310
 7302TIP3   OH221869   5.723   6.193   4.911 -0.3658 -0.2328  0.6286
 7302TIP3    H121870   5.697   6.240   4.832 -1.4831 -0.9646  0.5268
 7302TIP3    H221871   5.750   6.107   4.879 -0.1298 -0.2854  0.9723
 7303TIP3   OH221872   1.159   4.258   4.717  0.2225 -0.3292  0.1646
 7303TIP3    H121873   1.111   4.202   4.657 -1.1144  2.2259 -1.3400
 7303TIP3    H221874   1.201   4.323   4.660  1.7366  0.1997  1.7960
 7304TIP3   OH221875   0.474   6.641   3.414  0.1725 -0.3615  0.6902
 7304TIP3    H121876   0.380   6.653   3.400 -0.2175 -1.6399  1.9827
 7304TIP3    H221877   0.502   6.724   3.454 -0.0182  0.6900 -1.2113
 7305TIP3   OH221878   4.859   4.396   5.020 -0.1463 -0.5429  0.0870
 7305TIP3    H121879   4.824   4.429   5.104 -0.8214 -0.7089 -0.1203
 7305TIP3    H221880   4.883   4.306   5.038  0.1696 -0.4315  0.2288
 7306TIP3   OH221881   7.238   6.144   0.733  0.7644 -0.2061 -0.0570
 7306TIP3    H121882   7.179   6.093   0.789 -0.3682  1.7600  0.6082
 7306TIP3    H221883   7.182   6.176   0.663  1.0200  1.6600  0.5551
 7307TIP3   OH221884   7.090   4.427   2.664 -0.4121 -0.4206  0.1512
 7307TIP3    H121885   7.173   4.416   2.619  0.3315  2.6680  0.5319
 7307TIP3    H221886   7.039   4.483   2.605 -1.4933 -0.7032  0.7972
 7308TIP3   OH221887   4.949   0.349   0.273  0.3087 -0.2003  0.1354
 7308TIP3    H121888   4.996   0.360   0.190  0.5642 -3.0246 -0.1832
 7308TIP3    H221889   5.004   0.290   0.324 -0.6100  0.2653  1.7219
 7309TIP3   OH221890   0.553   1.201   1.809  0.5857 -0.1710 -0.4163
 7309TIP3    H121891   0.457   1.202   1.804  0.5325  0.7245  0.4132
 7309TIP3    H221892   0.580   1.148   1.734 -0.5113  0.7260 -1.4955
 7310TIP3   OH221893   1.758   3.904   0.976  0.1298  0.1686 -0.3207
 7310TIP3    H121894   1.734   3.963   0.905 -1.2838 -1.2429 -1.0806
 7310TIP3    H221895   1.850   3.924   0.994 -0.2464  2.4330 -0.6494
 7311TIP3   OH221896   6.549   1.120   0.974  0.4320  0.0960 -0.0084
 7311TIP3    H121897   6.518   1.147   1.060 -0.9206  0.9268 -0.7166
 7311TIP3    H221898   6.642   1.103   0.986  0.1680 -0.2658  1.7104
 7312TIP3   OH221899   2.067   2.220   4.197 -0.2354  0.5896 -0.0357
 7312TIP3    H121900   2.091   2.156   4.130 -0.7470  0.0495  0.2907
 7312TIP3    H221901   2.073   2.172   4.279 -2.5928  0.3616  0.0532
 7313TIP3   OH221902   5.235   3.441   4.370 -0.3037 -0.9701 -0.1892
 7313TIP3    H121903   5.180   3.500   4.422 -0.7345  0.8833 -2.5561
 7313TIP3    H221904   5.319   3.439   4.416 -0.9445 -0.1991  1.0662
 7314TIP3   OH221905   0.371   4.308   2.573 -0.5937 -0.2607  0.8228
 7314TIP3    H121906   0.426   4.387   2.572  0.1050 -0.7369  0.2665
 7314TIP3    H221907   0.431   4.237   2.551 -1.1345 -1.0074  1.7102
 7315TIP3   OH221908   1.981   1.793   5.371 -0.2899  0.1000  0.1010
 7315TIP3    H121909   1.909   1.842   5.411  0.2460  0.8564  0.1631
 7315TIP3    H221910   2.015   1.738   5.442  1.4709  2.3539  1.1341
 7316TIP3   OH221911   4.329   5.619   2.927  0.1601  0.5789  0.8232
 7316TIP3    H121912   4.419   5.595   2.905  0.1623  0.7013  0.6942
 7316TIP3    H221913   4.280   5.537   2.923 -0.3266  0.8789 -2.0015
 7317TIP3   OH221914   1.796   6.321   3.410  0.1571  0.1411  0.5911
 7317TIP3    H121915   1.816   6.415   3.411  2.6097 -0.2509  3.4159
 7317TIP3    H221916   1.716   6.313   3.463  0.7354  0.5577  1.5551
 7318TIP3   OH221917   1.586   4.243   0.641  0.6593 -0.0770  0.0895
 7318TIP3    H121918   1.669   4.198   0.659  2.2603  1.5297 -2.5636
 7318TIP3    H221919   1.578   4.241   0.546 -1.2021  1.7829  0.1289
 7319TIP3   OH221920   3.175   3.042   2.304 -0.0259  0.1299  0.3278
 7319TIP3    H121921   3.095   3.016   2.349  1.3182 -0.6361  2.4554
 7319TIP3    H221922   3.223   3.094   2.368  0.1525  2.7453 -1.7322
 7320TIP3   OH221923   5.931   5.672   1.064 -0.1226  0.1412 -0.8775
 7320TIP3    H121924   5.963   5.606   1.126 -0.5407 -0.4227 -1.2545
 7320TIP3    H221925   5.836   5.669   1.073 -0.1345  0.9905 -0.6052
 7321TIP3   OH221926   2.354   4.219   5.185 -0.0084  0.1527  0.9996
 7321TIP3    H121927   2.340   4.302   5.231 -2.5068 -0.0105  0.6633
 7321TIP3    H221928   2.345   4.242   5.092  0.8831 -0.2547  0.7980
 7322TIP3   OH221929   4.223   1.570   1.016 -0.8427  0.2931 -0.1460
 7322TIP3    H121930   4.227   1.583   1.111 -0.4413  1.0621 -0.2520
 7322TIP3    H221931   4.265   1.649   0.981  0.1667 -0.5754 -0.9248
 7323TIP3   OH221932   2.675   6.570   0.998 -0.3578 -0.5184 -0.1016
 7323TIP3    H121933   2.705   6.618   1.075 -0.9580  0.5775 -0.5208
 7323TIP3    H221934   2.755   6.538   0.956  0.3678  2.4772 -1.3081
 7324TIP3   OH221935   3.868   0.356   2.207 -0.2179  0.3654  0.0193
 7324TIP3    H121936   3.946   0.385   2.254  0.2752 -2.3084  1.0163
 7324TIP3    H221937   3.797   0.367   2.271 -0.4486  1.3830 -0.3817
 7325TIP3   OH221938   6.738   2.183   2.665 -0.3081 -0.5124  0.1476
 7325TIP3    H121939   6.716   2.221   2.750  1.8635 -1.3844  1.1667
 7325TIP3    H221940   6.716   2.251   2.601 -0.0175  0.9666  1.5779
 7326TIP3   OH221941   1.837   5.125   3.063  0.0199 -0.2901  0.3536
 7326TIP3    H121942   1.826   5.085   2.977 -0.7659 -1.2828  0.8875
 7326TIP3    H221943   1.775   5.197   3.065  0.0403 -0.2648  0.0918
 7327TIP3   OH221944   2.567   0.544   1.411  0.1485  0.1707 -0.4363
 7327TIP3    H121945   2.603   0.565   1.325 -0.4014 -0.2476 -0.7722
 7327TIP3    H221946   2.538   0.628   1.446  0.1538  0.3083 -0.7598
 7328TIP3   OH221947   3.859   4.555   2.143  0.0432 -0.0726 -0.5115
 7328TIP3    H121948   3.780   4.507   2.119  1.1441 -1.5790 -1.3372
 7328TIP3    H221949   3.832   4.612   2.215 -2.2065  0.8431 -1.9720
 7329TIP3   OH221950   2.321   5.022   2.511 -0.0214 -0.2155 -0.1555
 7329TIP3    H121951   2.235   5.058   2.488 -0.0546  0.4069  0.8872
 7329TIP3    H221952   2.303   4.966   2.587  0.6585  0.8612  0.8322
 7330TIP3   OH221953   1.417   2.806   1.513 -0.7478 -0.5680  0.9264
 7330TIP3    H121954   1.461   2.887   1.536 -0.2867 -0.8416  1.0177
 7330TIP3    H221955   1.434   2.747   1.586 -2.1750 -0.3398  1.4668
 7331TIP3   OH221956   6.452   3.223   1.837 -0.1748  0.3629  0.1229
 7331TIP3    H121957   6.486   3.141   1.801 -0.3219  0.7864 -1.0188
 7331TIP3    H221958   6.410   3.198   1.920 -1.6173 -0.9813 -0.9651
 7332TIP3   OH221959   6.334   4.111   5.286 -0.1039 -0.3003 -0.1367
 7332TIP3    H121960   6.367   4.173   5.221  1.8043 -2.0342 -0.9416
 7332TIP3    H221961   6.270   4.057   5.239 -0.0736 -0.3998 -0.0665
 7333TIP3   OH221962   0.309   0.570   5.853 -0.2155 -0.1266  0.2940
 7333TIP3    H121963   0.368   0.591   5.781 -1.4887  2.7113 -0.0727
 7333TIP3    H221964   0.270   0.486   5.829  2.6025 -1.4588 -0.0580
 7334TIP3   OH221965   3.953   0.032   3.700  0.0285 -0.1227  0.0450
 7334TIP3    H121966   3.874   0.078   3.729 -0.4130  0.3662 -1.7721
 7334TIP3    H221967   3.920  -0.041   3.647  0.7474  0.9187 -1.9390
 7335TIP3   OH221968   2.652   2.737   4.903  0.3489  0.1150  0.1613
 7335TIP3    H121969   2.638   2.677   4.829 -2.1841  0.3728  0.3521
 7335TIP3    H221970   2.655   2.823   4.862 -0.0609  0.1778  0.2641
 7336TIP3   OH221971   4.407   6.625   3.859 -0.3013  0.5106 -0.0999
 7336TIP3    H121972   4.328   6.577   3.834 -0.6896  0.6255  0.8607
 7336TIP3    H221973   4.434   6.671   3.779  0.0166 -1.1795 -1.0341
 7337TIP3   OH221974   4.896   3.396   3.528  0.0742 -0.2108  0.3287
 7337TIP3    H121975   4.869   3.402   3.620 -0.7593 -1.4172  0.1920
 7337TIP3    H221976   4.821   3.354   3.485  0.5309  0.1844 -0.8711
 7338TIP3   OH221977   4.917   4.189   1.108 -0.2036  0.0880 -0.3734
 7338TIP3    H121978   4.827   4.155   1.110 -0.1031 -0.2588 -1.2065
 7338TIP3    H221979   4.909   4.275   1.068 -0.4824  1.1895  1.9171
 7339TIP3   OH221980   1.023   0.265   1.822 -0.4240 -0.2102  0.1941
 7339TIP3    H121981   0.986   0.218   1.747 -0.7083 -1.5261  1.1129
 7339TIP3    H221982   0.953   0.265   1.887 -0.5709  1.8908  0.0998
 7340TIP3   OH221983   5.226   5.895   2.619 -0.1499 -0.1800  0.1946
 7340TIP3    H121984   5.233   5.807   2.656  0.0231  0.0831  0.7897
 7340TIP3    H221985   5.175   5.945   2.683  1.5345  0.7153  0.9092
 7341TIP3   OH221986   1.856   6.068   3.553  0.3264  0.2268 -0.3669
 7341TIP3    H121987   1.937   6.097   3.594  1.8107 -0.5844 -2.4872
 7341TIP3    H221988   1.835   6.136   3.489 -0.3661  0.1683 -0.2147
 7342TIP3   OH221989   4.834   4.464   3.215 -0.7433 -0.6460  0.8081
 7342TIP3    H121990   4.773   4.511   3.272 -1.6249 -1.6576  0.7500
 7342TIP3    H221991   4.892   4.418   3.275  0.6240  1.0829  0.8680
 7343TIP3   OH221992   2.856   5.484   2.169  0.4036 -0.0647  0.1500
 7343TIP3    H121993   2.952   5.483   2.172  0.4485  0.9305 -0.3295
 7343TIP3    H221994   2.829   5.412   2.225  1.4249  0.3954  1.2754
 7344TIP3   OH221995   6.053   6.578   2.281 -0.3713  0.1852  0.0099
 7344TIP3    H121996   6.088   6.665   2.297  2.1532 -1.1645  3.0378
 7344TIP3    H221997   5.971   6.576   2.330  0.6032  0.3300  1.7501
 7345TIP3   OH221998   3.867   5.186   2.230  0.1051  0.3730 -0.0838
 7345TIP3    H121999   3.863   5.093   2.251  0.3018  0.2055 -0.7715
 7345TIP3    H222000   3.790   5.202   2.176  1.3877  0.0489 -2.0892
 7346TIP3   OH222001   0.244   3.350   2.601 -0.2333 -0.6067 -0.3555
 7346TIP3    H122002   0.219   3.441   2.614  1.2089 -0.3556  0.9624
 7346TIP3    H222003   0.220   3.331   2.510 -2.1193  0.5396 -0.1357
 7347TIP3   OH222004   2.883   4.855   1.836  0.3521  0.1336  0.3050
 7347TIP3    H122005   2.827   4.921   1.877  1.6251  1.1462  0.4877
 7347TIP3    H222006   2.882   4.877   1.743  0.7525  0.3994  0.3618
 7348TIP3   OH222007   1.650   1.820   3.851  0.4257  0.1944  0.2233
 7348TIP3    H122008   1.634   1.768   3.930  0.3868  0.9209  0.7055
 7348TIP3    H222009   1.585   1.788   3.787 -0.1232  0.1906  0.7729
 7349TIP3   OH222010   2.600   4.245   1.072  0.0405 -0.4024 -0.2109
 7349TIP3    H122011   2.603   4.298   1.151  0.8189 -1.2224  0.3137
 7349TIP3    H222012   2.558   4.302   1.007  1.0846  0.9491  0.2686
 7350TIP3   OH222013   4.741   0.206   5.274  0.0288 -0.4660 -0.3351
 7350TIP3    H122014   4.686   0.134   5.244  0.4326 -1.0935  0.4143
 7350TIP3    H222015   4.683   0.282   5.274  0.0762 -0.3573 -2.9659
 7351TIP3   OH222016   2.685   2.011   0.007 -0.6879  0.0132  0.4579
 7351TIP3    H122017   2.744   2.050  -0.057 -0.1555  1.0660  1.5571
 7351TIP3    H222018   2.738   2.001   0.086 -1.8481  0.5716  1.3366
 7352TIP3   OH222019   6.227   2.493   0.014 -0.8586 -0.0425 -0.6903
 7352TIP3    H122020   6.263   2.574  -0.020 -0.9024  0.6295  0.8082
 7352TIP3    H222021   6.193   2.515   0.100 -0.9844 -1.6228 -0.2923
 7353TIP3   OH222022   5.199   3.831   0.884 -0.0114 -0.1750  0.5596
 7353TIP3    H122023   5.169   3.915   0.920 -0.3720  0.2558 -0.6925
 7353TIP3    H222024   5.253   3.855   0.809  0.9213 -1.0521  0.9241
 7354TIP3   OH222025   0.969   5.184   4.550 -0.1618 -0.1831 -0.5213
 7354TIP3    H122026   1.057   5.183   4.512  0.1625  3.2154 -0.1974
 7354TIP3    H222027   0.984   5.179   4.645 -0.0686  2.0546 -0.3507
 7355TIP3   OH222028   5.524   2.827   3.159 -0.5047 -0.1520 -0.5423
 7355TIP3    H122029   5.580   2.771   3.106 -1.7514 -0.4550 -1.5753
 7355TIP3    H222030   5.516   2.781   3.243  2.6221  1.0062  0.5365
 7356TIP3   OH222031   0.727   0.633   1.210  0.5309  0.3869 -0.0712
 7356TIP3    H122032   0.724   0.550   1.258  0.4653  0.8256  0.7063
 7356TIP3    H222033   0.694   0.612   1.123 -2.2909  0.1703  0.9641
 7357TIP3   OH222034   3.753   0.096   1.535  0.0297 -0.5559 -0.0924
 7357TIP3    H122035   3.799   0.095   1.451  0.3637  1.4481  0.0085
 7357TIP3    H222036   3.799   0.163   1.586  0.0591 -1.9632  1.8450
 7358TIP3   OH222037   5.525   3.288   1.690  0.4652 -0.0443 -0.1789
 7358TIP3    H122038   5.553   3.297   1.599  2.0832 -0.7899  0.2082
 7358TIP3    H222039   5.592   3.233   1.730 -1.0260 -1.0227  1.0961
 7359TIP3   OH222040   5.000   1.548   1.418  0.4415 -0.9572  0.2924
 7359TIP3    H122041   4.951   1.471   1.389  0.9827 -1.4784  0.7559
 7359TIP3    H222042   4.948   1.622   1.386 -0.7508 -1.4889  0.9242
 7360TIP3   OH222043   6.315   1.375   3.524 -0.5770 -0.2664 -0.1441
 7360TIP3    H122044   6.336   1.464   3.494 -2.6278  0.3412  0.0861
 7360TIP3    H222045   6.284   1.387   3.613  2.2343 -1.6642  1.1368
 7361TIP3   OH222046   6.555   6.050   4.371  0.1388  0.0015  0.1627
 7361TIP3    H122047   6.522   6.133   4.337 -0.2567 -0.1248  0.2319
 7361TIP3    H222048   6.583   6.070   4.461  0.2348  0.1072  0.1084
 7362TIP3   OH222049   6.830   4.641   3.795  0.2451 -0.5289 -0.2132
 7362TIP3    H122050   6.746   4.645   3.751 -0.2207 -0.6242  0.6452
 7362TIP3    H222051   6.868   4.728   3.782 -0.5893 -0.0346  0.5425
 7363TIP3   OH222052   5.436   4.629   1.443 -0.2193  0.0600  0.4478
 7363TIP3    H122053   5.392   4.562   1.390 -1.7434  1.8196 -0.6085
 7363TIP3    H222054   5.493   4.579   1.501 -2.1168 -2.2412  0.4878
 7364TIP3   OH222055   0.247   2.133   3.810  0.0142 -0.0939 -0.5190
 7364TIP3    H122056   0.342   2.141   3.805  0.1582 -1.8714 -1.2666
 7364TIP3    H222057   0.215   2.197   3.746  0.7700 -0.5191 -1.3445
 7365TIP3   OH222058   5.886   4.607   2.631 -0.1225  0.0291  0.3558
 7365TIP3    H122059   5.828   4.619   2.556  0.9371  0.0685 -0.4765
 7365TIP3    H222060   5.871   4.517   2.660 -1.9024  0.5771  1.3067
 7366TIP3   OH222061   4.334   0.836   2.349 -0.2192  0.0474  0.3045
 7366TIP3    H122062   4.350   0.833   2.444  0.9337  0.2212  0.1280
 7366TIP3    H222063   4.347   0.928   2.326 -0.2991 -0.0343 -0.0596
 7367TIP3   OH222064   1.893   0.029   1.144 -0.5984 -0.0307 -0.0425
 7367TIP3    H122065   1.954   0.060   1.077 -1.4501 -0.4853 -1.0488
 7367TIP3    H222066   1.942  -0.038   1.191  0.3300  0.9347  0.4268
 7368TIP3   OH222067   6.043   4.422   3.433 -0.0638  0.1254 -0.5126
 7368TIP3    H122068   5.961   4.462   3.406  0.0716 -0.0763 -1.2612
 7368TIP3    H222069   6.042   4.335   3.393 -0.4807 -0.7628  1.3180
 7369TIP3   OH222070   0.649   3.310   1.696 -0.2978 -0.2237 -0.0747
 7369TIP3    H122071   0.561   3.314   1.659 -1.1078 -0.9234  1.7166
 7369TIP3    H222072   0.695   3.382   1.652 -1.7502  0.1921 -1.0086
 7370TIP3   OH222073   0.715   6.310   0.801 -0.0476  0.2592  0.6038
 7370TIP3    H122074   0.641   6.249   0.801 -0.4505  0.6746 -1.3073
 7370TIP3    H222075   0.742   6.314   0.709  2.7562 -0.3208  1.3104
 7371TIP3   OH222076   0.886   0.513   3.878 -0.2240 -0.3201 -0.0376
 7371TIP3    H122077   0.920   0.466   3.802 -0.7146 -1.2087  0.2721
 7371TIP3    H222078   0.837   0.446   3.927  0.4838  0.1205  1.3149
 7372TIP3   OH222079   1.992  -0.008   2.652 -0.0840 -0.3136  0.1365
 7372TIP3    H122080   2.065  -0.008   2.590 -1.1995 -2.6997 -1.3282
 7372TIP3    H222081   1.937   0.065   2.625  0.2196 -0.4076 -0.7565
 7373TIP3   OH222082   2.863   1.253   3.931 -0.0208  0.3408 -0.1030
 7373TIP3    H122083   2.860   1.330   3.989 -0.0770 -1.7896  2.9941
 7373TIP3    H222084   2.772   1.240   3.905 -0.2275  0.5733  0.4694
 7374TIP3   OH222085   4.009   2.592   0.233  0.1034  0.2934  0.4486
 7374TIP3    H122086   3.966   2.515   0.195  1.5167  0.0409 -0.7227
 7374TIP3    H222087   3.962   2.666   0.196 -0.4056  0.0125  0.5204
 7375TIP3   OH222088   3.848   6.180   2.092  0.4858 -0.2073  0.1779
 7375TIP3    H122089   3.778   6.231   2.052  1.3436  1.6187  0.8367
 7375TIP3    H222090   3.908   6.160   2.020  1.1648  1.5842  0.1794
 7376TIP3   OH222091   3.042   3.988   0.757 -0.0684  0.0963  0.3988
 7376TIP3    H122092   2.983   4.043   0.705 -0.3985  0.0551  0.7224
 7376TIP3    H222093   3.116   3.971   0.699  0.1280  1.0310  0.3653
 7377TIP3   OH222094   1.304   3.434   0.510  0.2350 -0.9030  0.1103
 7377TIP3    H122095   1.218   3.465   0.539 -1.0653 -1.7170 -2.5354
 7377TIP3    H222096   1.324   3.360   0.568 -0.0412  0.2623  1.7767
 7378TIP3   OH222097   6.564   4.007   3.514 -0.2126  0.2444  0.4913
 7378TIP3    H122098   6.609   3.948   3.573 -2.4115 -1.6392  0.4330
 7378TIP3    H222099   6.630   4.033   3.450  1.1973 -0.9575  1.4108
 7379TIP3   OH222100   0.958   0.671   1.078  0.0765  0.2400  0.2574
 7379TIP3    H122101   0.897   0.630   1.140 -1.3158  1.2537 -0.3689
 7379TIP3    H222102   0.981   0.755   1.119 -1.0462  1.0283 -0.6465
 7380TIP3   OH222103   5.965   0.363   3.150  0.1217  0.3988 -0.2787
 7380TIP3    H122104   5.882   0.364   3.199  0.0866  0.3531 -0.3390
 7380TIP3    H222105   5.951   0.302   3.078 -0.0306  0.9256 -0.7018
 7381TIP3   OH222106   3.250   1.650   2.369 -0.3187 -0.5855 -0.2094
 7381TIP3    H122107   3.224   1.573   2.419 -2.1239 -1.0081 -1.7256
 7381TIP3    H222108   3.346   1.643   2.363 -0.2435 -1.5281  1.4994
 7382TIP3   OH222109   6.574   1.482   5.096  0.2539 -0.4334 -0.1453
 7382TIP3    H122110   6.559   1.439   5.011  2.3429 -0.9128 -0.3465
 7382TIP3    H222111   6.649   1.539   5.080 -0.6405  1.0689  0.8910
 7383TIP3   OH222112   7.034   5.689   3.087 -0.0357 -0.3087  0.7435
 7383TIP3    H122113   6.940   5.672   3.080  0.1102 -0.9534  0.2443
 7383TIP3    H222114   7.060   5.646   3.169  0.1639 -1.7744 -0.0642
 7384TIP3   OH222115   3.341   6.672   4.455 -0.0660  0.2495  0.0938
 7384TIP3    H122116   3.331   6.649   4.547 -0.2572 -0.3878 -0.0858
 7384TIP3    H222117   3.431   6.648   4.433 -0.3520 -0.6073 -0.1680
 7385TIP3   OH222118   1.992   3.258   5.556 -0.1984  0.1910  0.5455
 7385TIP3    H122119   2.071   3.205   5.546 -0.2614  0.2686 -0.4848
 7385TIP3    H222120   1.920   3.195   5.559 -0.1461  0.1472  0.9492
 7386TIP3   OH222121   3.661   6.024   4.594  0.4707 -0.0724  0.1434
 7386TIP3    H122122   3.742   6.074   4.604  0.6759 -0.3959  0.1201
 7386TIP3    H222123   3.687   5.947   4.544 -0.4309  1.2149 -2.4441
 7387TIP3   OH222124   2.164   3.337   3.415  0.5238 -0.4585  0.8915
 7387TIP3    H122125   2.248   3.309   3.452  1.0145 -1.1081 -0.6091
 7387TIP3    H222126   2.188   3.405   3.351 -0.2492  0.3846  1.4854
 7388TIP3   OH222127   0.579   5.045   4.742  0.7155  0.0912  0.5206
 7388TIP3    H122128   0.522   4.989   4.795  2.2633  0.6338  2.8921
 7388TIP3    H222129   0.561   5.133   4.773  2.3888  0.3264  0.8877
 7389TIP3   OH222130   2.906   4.044   3.113  0.0248 -0.6549 -0.2649
 7389TIP3    H122131   2.924   4.129   3.152 -0.3416 -0.2664 -0.9222
 7389TIP3    H222132   2.991   4.015   3.078  0.1339 -0.5243 -0.1067
 7390TIP3   OH222133   0.763   6.686   0.342  0.4567 -0.1015 -0.8688
 7390TIP3    H122134   0.692   6.645   0.391  1.8855  1.8695  3.3084
 7390TIP3    H222135   0.729   6.772   0.316  1.0646  0.7159  0.8616
 7391TIP3   OH222136   0.054   1.661   5.412 -0.2106  0.0503 -0.1846
 7391TIP3    H122137   0.007   1.616   5.483  0.5546  2.0498  1.6964
 7391TIP3    H222138  -0.002   1.735   5.389  1.0604  1.3628  0.7570
 7392TIP3   OH222139   2.546   3.445   2.210  0.5035  0.0476  0.1261
 7392TIP3    H122140   2.488   3.379   2.248 -1.0774 -0.7457 -3.2968
 7392TIP3    H222141   2.629   3.400   2.197 -0.1890 -0.9550 -1.0291
 7393TIP3   OH222142   3.007   2.849   5.151 -0.0656  0.0259  0.3506
 7393TIP3    H122143   3.017   2.887   5.064  0.4855  1.6220  1.0600
 7393TIP3    H222144   2.919   2.812   5.151 -0.0086 -0.1561 -0.9317
 7394TIP3   OH222145   2.884   3.141   1.976  0.2754 -0.1477 -0.2409
 7394TIP3    H122146   2.937   3.207   1.932  0.0219  0.5952  0.5449
 7394TIP3    H222147   2.796   3.153   1.941  0.3659 -0.5295 -0.6031
 7395TIP3   OH222148   4.101   5.033   2.423  0.5891  0.3979  0.4817
 7395TIP3    H122149   4.062   5.116   2.398  1.1110  0.5876  0.2724
 7395TIP3    H222150   4.170   5.056   2.485  1.8319  0.3016 -0.7968
 7396TIP3   OH222151   6.177   2.129   3.793  0.2995 -0.0719  0.3988
 7396TIP3    H122152   6.128   2.176   3.726  1.2357  3.4201  1.9040
 7396TIP3    H222153   6.269   2.151   3.777  0.6095  0.3207  2.3494
 7397TIP3   OH222154   7.175   4.590   0.905  0.1022 -0.2239 -0.2721
 7397TIP3    H122155   7.115   4.521   0.936  0.2091 -0.6657 -1.0366
 7397TIP3    H222156   7.234   4.605   0.979 -1.3684  0.7278  0.7780
 7398TIP3   OH222157   1.115   4.099   0.846  0.3543  0.0770  0.1191
 7398TIP3    H122158   1.074   4.177   0.883 -1.3117 -1.0919  0.8762
 7398TIP3    H222159   1.178   4.133   0.783  0.5837  2.0565  1.3135
 7399TIP3   OH222160   5.001   2.795   5.344 -0.7529 -0.3409  0.0290
 7399TIP3    H122161   5.054   2.856   5.292 -0.7622 -0.0887  0.3179
 7399TIP3    H222162   4.917   2.791   5.297 -0.6334 -0.4049 -0.1844
 7400TIP3   OH222163   0.471   2.195   5.309  0.1229  0.4044  0.1050
 7400TIP3    H122164   0.498   2.274   5.263  0.1815  0.5190  0.3323
 7400TIP3    H222165   0.464   2.223   5.401 -0.7038  0.3684  0.0661
 7401TIP3   OH222166   0.261   3.725   0.669 -0.0523 -0.0710  0.1721
 7401TIP3    H122167   0.339   3.691   0.711  0.0827 -0.2092 -0.1863
 7401TIP3    H222168   0.261   3.818   0.689 -0.7255 -0.3493  1.6488
 7402TIP3   OH222169   0.654   1.581   4.802 -0.2057 -0.7866  0.7514
 7402TIP3    H122170   0.640   1.675   4.813  0.4354 -0.7531  1.4222
 7402TIP3    H222171   0.746   1.573   4.775 -0.9131 -1.0841 -1.8118
 7403TIP3   OH222172   5.557   0.579   3.566  0.1214  0.2064 -0.1450
 7403TIP3    H122173   5.469   0.561   3.600  0.2675 -0.6354 -0.1857
 7403TIP3    H222174   5.546   0.652   3.506 -0.4602  0.4717  0.2815
 7404TIP3   OH222175   5.404   1.055   2.282 -0.2197 -0.1071 -0.0024
 7404TIP3    H122176   5.459   0.994   2.233  0.7311  0.0116  0.8859
 7404TIP3    H222177   5.452   1.138   2.279  0.6528 -0.4391  2.3562
 7405TIP3   OH222178   5.229   1.886   4.784 -0.0689  0.2155 -0.6464
 7405TIP3    H122179   5.190   1.803   4.758 -3.3549  1.3316  0.1792
 7405TIP3    H222180   5.221   1.942   4.707  1.7001 -0.0035 -1.0461
 7406TIP3   OH222181   5.321   1.616   4.492 -1.0107 -0.5928  0.0594
 7406TIP3    H122182   5.232   1.630   4.460 -0.6379  0.0691 -0.7312
 7406TIP3    H222183   5.360   1.703   4.494 -0.1176 -0.9663 -0.4298
 7407TIP3   OH222184   6.605   0.289   0.553  0.3424  0.2445  0.2594
 7407TIP3    H122185   6.666   0.232   0.599 -0.6928  0.8072  2.5026
 7407TIP3    H222186   6.629   0.282   0.461  1.4668 -2.2804  0.6722
 7408TIP3   OH222187   3.056   0.969   5.105  0.3308  0.7909 -0.1045
 7408TIP3    H122188   3.147   0.946   5.084 -0.0953  0.5661 -1.9086
 7408TIP3    H222189   3.008   0.887   5.092  0.0546  0.5069  2.3689
 7409TIP3   OH222190   6.587   1.537   3.850  0.5274  0.6393  0.1666
 7409TIP3    H122191   6.595   1.546   3.945  1.7791 -1.6522  0.3441
 7409TIP3    H222192   6.497   1.563   3.831 -0.6478 -1.3749  2.3753
 7410TIP3   OH222193   4.114   4.200   4.112  0.1970 -0.4204  0.0924
 7410TIP3    H122194   4.136   4.286   4.077  0.8292  0.2666  2.0360
 7410TIP3    H222195   4.033   4.176   4.068  0.1850  1.0027 -0.7252
 7411TIP3   OH222196   3.682   3.035   5.531  0.3451 -0.2291 -0.4338
 7411TIP3    H122197   3.692   3.086   5.451 -0.8072  1.7001  0.5700
 7411TIP3    H222198   3.590   3.010   5.533  1.0980 -3.5559 -1.4953
 7412TIP3   OH222199   0.400   6.487   5.131 -0.3724  0.1317 -0.0353
 7412TIP3    H122200   0.342   6.475   5.056 -1.4827 -0.4353  0.8890
 7412TIP3    H222201   0.406   6.401   5.171  1.9537 -0.0745 -0.6707
 7413TIP3   OH222202   6.664   5.786   0.536  0.1837  0.2161  0.1993
 7413TIP3    H122203   6.631   5.702   0.569  2.1931 -0.4953  0.5318
 7413TIP3    H222204   6.585   5.836   0.515 -1.0795 -1.7994 -0.1500
 7414TIP3   OH222205   5.060   5.588   5.036  0.2889  0.9032 -0.2543
 7414TIP3    H122206   5.011   5.519   4.991  0.7967 -0.2586  0.8952
 7414TIP3    H222207   4.994   5.654   5.057 -0.4364  0.2326 -0.3675
 7415TIP3   OH222208   3.874   0.683   2.283 -0.0947 -0.1217 -0.0657
 7415TIP3    H122209   3.869   0.617   2.352  0.7429  0.3663  0.4809
 7415TIP3    H222210   3.934   0.749   2.318 -1.2897  1.1851 -0.3737
 7416TIP3   OH222211   1.404   3.500   1.915 -0.6865 -0.1044  0.0959
 7416TIP3    H122212   1.369   3.430   1.861 -0.3233 -0.6244  0.5315
 7416TIP3    H222213   1.339   3.512   1.984  0.1913 -1.4145  1.1972
 7417TIP3   OH222214   5.332   4.962   4.673 -0.4899 -0.0610  0.4001
 7417TIP3    H122215   5.300   4.921   4.754  0.5755 -1.4283  0.1622
 7417TIP3    H222216   5.403   4.905   4.644  0.3261  1.3937 -0.5633
 7418TIP3   OH222217   0.589   1.769   2.705  0.2012  0.0309 -0.4415
 7418TIP3    H122218   0.597   1.862   2.684 -0.8482  1.0037  2.8526
 7418TIP3    H222219   0.661   1.751   2.765  1.4747 -1.8554 -2.3591
 7419TIP3   OH222220   4.825   1.667   2.360  0.0111 -0.2426 -0.2765
 7419TIP3    H122221   4.790   1.746   2.317  0.4468 -0.4817 -1.1049
 7419TIP3    H222222   4.757   1.601   2.348 -0.4654  0.0653  0.6457
 7420TIP3   OH222223   7.052   4.912   1.331 -0.6714  0.2013  0.3127
 7420TIP3    H122224   7.064   4.956   1.415 -0.4492  1.6466 -0.4477
 7420TIP3    H222225   7.115   4.840   1.332  0.4260  1.1321  0.7730
 7421TIP3   OH222226   2.906   6.339   2.509  0.0542  0.1730  0.1184
 7421TIP3    H122227   2.873   6.249   2.517 -0.2164  0.3689  1.4842
 7421TIP3    H222228   2.836   6.386   2.464 -0.2146 -0.0934  0.2506
 7422TIP3   OH222229   5.567   4.629   5.087  0.2767  0.1318 -0.5763
 7422TIP3    H122230   5.480   4.623   5.126  0.6777 -0.4565  0.2699
 7422TIP3    H222231   5.627   4.633   5.162  0.8912  2.4532 -1.1202
 7423TIP3   OH222232   3.793   6.425   0.525  0.1062 -0.0967 -0.3067
 7423TIP3    H122233   3.744   6.381   0.594  0.0941  0.1133 -0.1834
 7423TIP3    H222234   3.851   6.485   0.571  1.8590 -1.6723 -0.3090
 7424TIP3   OH222235   0.025   3.909   1.767  0.4911 -0.0973  0.2064
 7424TIP3    H122236  -0.069   3.928   1.766  0.5643  0.3622 -1.6179
 7424TIP3    H222237   0.059   3.955   1.843 -0.9728 -1.4655  1.7571
 7425TIP3   OH222238   4.664   0.331   0.459  0.1312  0.1961 -0.2571
 7425TIP3    H122239   4.716   0.271   0.405 -1.3810  0.5380 -2.2394
 7425TIP3    H222240   4.728   0.383   0.507  1.5979 -0.0108 -1.9054
 7426TIP3   OH222241   1.506   0.473   1.049 -0.5545  0.2539 -0.2775
 7426TIP3    H122242   1.517   0.401   1.111 -0.2462 -0.8331 -1.5609
 7426TIP3    H222243   1.595   0.501   1.028 -0.6613  0.6921 -0.1663
 7427TIP3   OH222244   5.188   1.924   3.034  0.3682  0.0428 -0.4911
 7427TIP3    H122245   5.123   1.860   3.006  0.2724 -0.4805  0.8430
 7427TIP3    H222246   5.187   1.918   3.130  1.9802  0.4214 -0.4307
 7428TIP3   OH222247   5.537   6.412   3.759 -0.0127  0.6745  0.6011
 7428TIP3    H122248   5.449   6.448   3.745 -0.3812 -0.7469 -1.2205
 7428TIP3    H222249   5.595   6.472   3.714 -0.1291  1.2320  1.1877
 7429TIP3   OH222250   6.065   1.181   3.576 -0.0412 -0.2133 -0.3626
 7429TIP3    H122251   6.004   1.199   3.504  0.4442  0.8301 -0.5355
 7429TIP3    H222252   6.100   1.267   3.599  1.1093 -0.7609 -0.0317
 7430TIP3   OH222253   3.610   1.598   5.571  0.0467 -0.4533 -0.8014
 7430TIP3    H122254   3.696   1.606   5.614  0.7332 -0.1466 -2.1895
 7430TIP3    H222255   3.617   1.519   5.518 -0.5998 -0.5196 -0.7969
 7431TIP3   OH222256   6.535   5.426   1.965 -0.3191  0.6989 -0.4815
 7431TIP3    H122257   6.492   5.432   1.879 -0.6438  2.5312 -0.2492
 7431TIP3    H222258   6.476   5.472   2.024  1.5453  2.6997 -0.0202
 7432TIP3   OH222259   1.290   2.262   0.620  0.4827 -0.5476  0.1232
 7432TIP3    H122260   1.297   2.266   0.716 -1.9388 -1.1415  0.3978
 7432TIP3    H222261   1.201   2.291   0.602  0.5039 -1.5942 -1.8721
 7433TIP3   OH222262   1.856   6.538   1.796 -0.0861  0.6131 -0.4448
 7433TIP3    H122263   1.932   6.596   1.794 -1.1354  2.0205 -0.9893
 7433TIP3    H222264   1.892   6.450   1.783  1.3112  1.4020 -2.2581
 7434TIP3   OH222265   4.569   2.146   2.523  0.4113  0.6738  0.0491
 7434TIP3    H122266   4.605   2.196   2.450 -0.5053  0.5716 -0.4878
 7434TIP3    H222267   4.613   2.181   2.600  1.6462  0.5533 -0.5743
 7435TIP3   OH222268   5.356   5.959   2.980  0.2548 -0.1666 -0.7042
 7435TIP3    H122269   5.426   5.906   3.018  0.8779  0.0639 -1.5111
 7435TIP3    H222270   5.276   5.922   3.017  0.7064 -1.3653 -0.8785
 7436TIP3   OH222271   4.295   4.340   0.958  0.2301  0.6349 -0.0695
 7436TIP3    H122272   4.231   4.390   1.008 -0.0926  0.1451  0.0111
 7436TIP3    H222273   4.245   4.270   0.918  0.3457  1.4415 -1.7030
 7437TIP3   OH222274   1.818   3.669   3.742 -0.1394 -0.1961 -0.0277
 7437TIP3    H122275   1.871   3.678   3.821  0.2981 -2.2058 -0.0212
 7437TIP3    H222276   1.843   3.743   3.687  0.4327  0.5650  1.2270
 7438TIP3   OH222277   4.359   1.292   2.958  0.1490 -0.2363 -0.0730
 7438TIP3    H122278   4.315   1.328   3.035 -2.0307 -1.6145 -0.5839
 7438TIP3    H222279   4.418   1.226   2.993  0.2552  0.1537  0.5016
 7439TIP3   OH222280   1.536   4.162   4.920  0.2898  0.2899  0.2155
 7439TIP3    H122281   1.626   4.128   4.918  0.2980  0.3603 -0.8146
 7439TIP3    H222282   1.545   4.246   4.966  1.3065  1.7718 -2.4735
 7440TIP3   OH222283   7.036   0.091   1.605  0.4965  0.2374 -0.0107
 7440TIP3    H122284   6.985   0.077   1.684  0.2382 -0.8567 -0.3484
 7440TIP3    H222285   7.102   0.155   1.629  1.9679 -1.8205  1.8040
 7441TIP3   OH222286   4.447   0.878   4.169 -0.1511 -0.5295  0.2641
 7441TIP3    H122287   4.512   0.897   4.236 -1.7423 -1.2531  2.1154
 7441TIP3    H222288   4.367   0.921   4.200 -0.7409 -0.1207 -1.6554
 7442TIP3   OH222289   1.532   1.998   0.768 -0.1385  0.0618  0.2874
 7442TIP3    H122290   1.535   1.976   0.861  0.3802  1.4060  0.6057
 7442TIP3    H222291   1.570   2.085   0.763  0.8563 -0.4312 -1.3233
 7443TIP3   OH222292   1.991   6.004   1.562 -0.6358  0.4549 -0.0636
 7443TIP3    H122293   1.926   6.009   1.632 -0.6223 -0.0045 -0.0194
 7443TIP3    H222294   1.960   5.935   1.504 -2.4760  3.0011 -2.3793
 7444TIP3   OH222295   0.963   1.887   3.247  0.0434  0.0628  0.7913
 7444TIP3    H122296   0.916   1.857   3.169 -0.9973 -1.1072  1.8481
 7444TIP3    H222297   0.923   1.971   3.268 -0.2163  0.0062  0.5338
 7445TIP3   OH222298   4.463   4.766   2.768  0.1287 -0.1747 -0.1729
 7445TIP3    H122299   4.404   4.741   2.839  1.2904 -0.5672  0.6939
 7445TIP3    H222300   4.417   4.741   2.688 -0.7754 -0.6628  0.4811
 7446TIP3   OH222301   0.094   5.823   5.235  0.3781 -0.2435 -0.6609
 7446TIP3    H122302   0.072   5.747   5.288 -0.0363 -0.4487 -1.1204
 7446TIP3    H222303   0.049   5.896   5.277 -1.5936 -0.7153 -1.8216
 7447TIP3   OH222304   0.421   4.837   3.793 -0.0386 -0.1149  0.3369
 7447TIP3    H122305   0.391   4.923   3.763 -0.5044 -0.3006  0.2587
 7447TIP3    H222306   0.504   4.855   3.837 -1.4217  0.7956  2.7881
 7448TIP3   OH222307   1.016   4.760   5.036 -0.4781 -0.0748 -0.0161
 7448TIP3    H122308   1.037   4.853   5.035 -0.8709  0.0404 -1.9130
 7448TIP3    H222309   1.069   4.724   5.108 -1.3495  1.7974  1.6465
 7449TIP3   OH222310   6.155   0.398   3.333 -0.2453  0.4278 -0.0830
 7449TIP3    H122311   6.138   0.403   3.427  1.0630  0.3666  0.1713
 7449TIP3    H222312   6.074   0.361   3.296 -0.4176 -0.4666  1.1317
 7450TIP3   OH222313   5.857   2.812   3.798  0.6685  0.1131 -0.4594
 7450TIP3    H122314   5.792   2.780   3.861  1.9203 -0.2626  0.6840
 7450TIP3    H222315   5.851   2.907   3.803  1.5830  0.1082  1.1499
 7451TIP3   OH222316   3.757   2.057   0.957  0.0264 -0.3862  0.2656
 7451TIP3    H122317   3.688   2.124   0.960  0.1180 -0.2318 -0.8997
 7451TIP3    H222318   3.832   2.098   1.000  0.4962  0.7707 -1.5705
 7452TIP3   OH222319   6.742   3.762   5.194  0.3009  0.1328 -0.0165
 7452TIP3    H122320   6.819   3.820   5.192  0.2642  0.1606 -0.8702
 7452TIP3    H222321   6.748   3.717   5.278  1.2747  0.1031 -0.0969
 7453TIP3   OH222322   0.751   6.325   0.084 -0.3995 -0.0793 -0.1965
 7453TIP3    H122323   0.695   6.394   0.046 -0.6843  0.6295  1.4105
 7453TIP3    H222324   0.811   6.301   0.014 -0.3513  1.7752 -0.8496
 7454TIP3   OH222325   0.647   4.094   5.015 -0.3177 -0.0541 -0.4908
 7454TIP3    H122326   0.731   4.110   4.972 -0.0529  0.9053  0.3460
 7454TIP3    H222327   0.642   3.999   5.023  0.3404 -0.1614 -1.2167
 7455TIP3   OH222328   0.635   0.146   3.312 -0.4277 -0.4893 -0.1460
 7455TIP3    H122329   0.601   0.168   3.225  0.0937 -0.8057 -0.4365
 7455TIP3    H222330   0.723   0.110   3.295 -0.5347 -1.0625  0.4619
 7456TIP3   OH222331   0.368   1.241   4.827 -0.2002 -0.2475  0.4607
 7456TIP3    H122332   0.357   1.321   4.880  0.6102  0.9679 -1.1225
 7456TIP3    H222333   0.327   1.262   4.743  1.0820 -1.0487 -0.3987
 7457TIP3   OH222334   4.023   0.334   1.246  0.8478 -0.3259 -0.1201
 7457TIP3    H122335   4.053   0.357   1.334  0.5458  1.6559 -0.4876
 7457TIP3    H222336   3.936   0.372   1.240  0.5614 -1.0911 -1.0355
 7458TIP3   OH222337   6.564   5.669   3.774  0.5214 -0.6708 -0.1764
 7458TIP3    H122338   6.640   5.726   3.760  0.4609 -0.3587  0.7054
 7458TIP3    H222339   6.489   5.722   3.748  0.4033 -0.0707  1.3205
 7459TIP3   OH222340   4.301   0.756   2.681  0.3619 -0.1888  0.6859
 7459TIP3    H122341   4.383   0.748   2.729  0.0899 -0.4415  1.1174
 7459TIP3    H222342   4.264   0.668   2.681 -1.0810  0.3303  2.6363
 7460TIP3   OH222343   2.739   3.796   1.404 -0.2965  0.2308  0.1291
 7460TIP3    H122344   2.763   3.760   1.318 -2.0013 -1.7494  0.3898
 7460TIP3    H222345   2.644   3.799   1.403 -0.3191  3.9087  0.5993
 7461TIP3   OH222346   6.963   2.507   2.710  0.4809  0.1326  0.0436
 7461TIP3    H122347   7.011   2.427   2.687 -0.2701 -0.5345  0.7518
 7461TIP3    H222348   7.016   2.577   2.674  1.0992 -0.6901 -0.7003
 7462TIP3   OH222349   0.856   0.735   0.379 -0.6299 -0.0776 -0.3597
 7462TIP3    H122350   0.814   0.732   0.465 -1.3412  0.8773 -0.6502
 7462TIP3    H222351   0.938   0.687   0.391 -1.1288 -0.7457  0.6067
 7463TIP3   OH222352   4.537   3.380   4.482 -0.6783 -0.3777 -0.3735
 7463TIP3    H122353   4.567   3.433   4.408 -0.8203 -1.6763 -1.3976
 7463TIP3    H222354   4.512   3.296   4.443  1.4461 -1.9828  1.3879
 7464TIP3   OH222355   5.711   2.013   2.944 -0.3066 -0.8168 -0.0101
 7464TIP3    H122356   5.772   2.055   2.883  0.4310 -1.1962  0.4484
 7464TIP3    H222357   5.713   2.068   3.022 -2.0778  0.2806 -0.6844
 7465TIP3   OH222358   5.588   1.647   5.835  0.1304  0.1357 -0.3808
 7465TIP3    H122359   5.516   1.584   5.825  0.2337 -0.1656  0.7108
 7465TIP3    H222360   5.572   1.712   5.767 -1.4964  0.3727  0.1823
 7466TIP3   OH222361   6.929   3.877   1.790  0.1719  0.9426 -0.3334
 7466TIP3    H122362   6.900   3.955   1.837  1.0353  1.7145 -1.0205
 7466TIP3    H222363   6.928   3.903   1.698 -0.0229 -0.0388 -0.6224
 7467TIP3   OH222364   6.974   2.171   5.174 -0.2334  0.1039  0.5563
 7467TIP3    H122365   6.994   2.160   5.267 -0.2105  0.8342  0.6406
 7467TIP3    H222366   6.932   2.089   5.150  0.9070 -0.6104  0.8952
 7468TIP3   OH222367   1.055   3.150   2.225  0.6030 -0.1593 -0.1629
 7468TIP3    H122368   0.961   3.161   2.241  0.8118  0.0250  1.0710
 7468TIP3    H222369   1.069   3.055   2.232 -0.0669 -0.6985 -4.0678
 7469TIP3   OH222370   1.523   0.443   2.976  0.6228  0.1509 -0.1322
 7469TIP3    H122371   1.462   0.375   3.006  0.3978  0.1059 -0.6822
 7469TIP3    H222372   1.568   0.471   3.056 -0.8861  0.9711  0.4822
 7470TIP3   OH222373   5.365   2.948   4.065  0.5998 -0.5979  0.1357
 7470TIP3    H122374   5.401   3.004   4.134 -0.2942 -1.5941  1.4676
 7470TIP3    H222375   5.365   2.860   4.103 -0.7354 -1.0370 -0.7934
 7471TIP3   OH222376   3.180   3.648   0.512 -0.4775 -0.3577  0.3997
 7471TIP3    H122377   3.240   3.588   0.557  0.1553 -1.0360 -1.2476
 7471TIP3    H222378   3.107   3.592   0.484 -1.7958  0.4024  2.1176
 7472TIP3   OH222379   5.280   2.751   1.250 -0.3416 -0.1808 -0.3052
 7472TIP3    H122380   5.274   2.659   1.227 -0.0445 -0.4389  0.6101
 7472TIP3    H222381   5.189   2.778   1.264 -0.3030 -1.0581  2.0736
 7473TIP3   OH222382   2.458   4.978   2.897  0.1753 -0.6693 -0.3633
 7473TIP3    H122383   2.391   5.045   2.891 -0.4235 -1.2536 -0.3409
 7473TIP3    H222384   2.535   5.017   2.856 -0.2761 -0.1165 -0.6965
 7474TIP3   OH222385   5.213   0.500   1.096 -0.1217  0.2903  0.1267
 7474TIP3    H122386   5.125   0.464   1.098 -0.0401  0.1064  1.5856
 7474TIP3    H222387   5.220   0.542   1.010 -1.3453 -0.3626 -0.3132
 7475TIP3   OH222388   5.441   0.658   1.652  0.1707  0.0887  0.2344
 7475TIP3    H122389   5.410   0.697   1.734 -0.9887  0.8358 -0.5239
 7475TIP3    H222390   5.511   0.715   1.623 -0.1371  0.4420  0.1755
 7476TIP3   OH222391   1.338   3.463   5.518 -0.7725  0.0231 -0.6480
 7476TIP3    H122392   1.428   3.439   5.496 -0.0884  2.2388 -0.5108
 7476TIP3    H222393   1.342   3.489   5.610 -1.4383  0.5683 -0.7628
 7477TIP3   OH222394   0.548  -0.012   1.186 -0.2669  0.1872 -0.0093
 7477TIP3    H122395   0.471  -0.056   1.223  1.1934 -0.7080  2.1571
 7477TIP3    H222396   0.527   0.081   1.192 -1.2355 -0.0457  0.4413
 7478TIP3   OH222397   0.808   2.067   4.093  0.3926 -0.1203 -0.1714
 7478TIP3    H122398   0.791   1.984   4.138  2.8372  0.5711  2.3496
 7478TIP3    H222399   0.723   2.110   4.088 -0.6103 -1.9730  0.2255
 7479TIP3   OH222400   6.670   5.444   0.390 -0.1473 -0.3232  0.2753
 7479TIP3    H122401   6.761   5.440   0.420 -0.1892 -0.6613  0.3554
 7479TIP3    H222402   6.623   5.488   0.461  0.5437  3.0588 -1.1530
 7480TIP3   OH222403   6.299   3.376   2.380 -0.4634  0.2461 -0.5837
 7480TIP3    H122404   6.370   3.422   2.426 -1.8087  2.1386 -0.2779
 7480TIP3    H222405   6.341   3.298   2.344  1.5131  0.7043  0.5473
 7481TIP3   OH222406   4.840   6.733   5.837 -0.1279  0.9506  0.2807
 7481TIP3    H122407   4.917   6.775   5.798 -1.6732  0.7399 -3.3898
 7481TIP3    H222408   4.858   6.639   5.829 -0.4118  0.9043  0.1824
 7482TIP3   OH222409   2.258   0.820   1.494 -0.6595 -0.1936 -0.1749
 7482TIP3    H122410   2.251   0.911   1.523 -0.5058  0.0882 -1.0057
 7482TIP3    H222411   2.349   0.797   1.509 -0.3914  0.2013 -1.1273
 7483TIP3   OH222412   4.721   6.006   1.719 -0.2561  0.3296  0.1426
 7483TIP3    H122413   4.726   6.032   1.627 -0.6261 -0.8800 -0.2358
 7483TIP3    H222414   4.655   5.937   1.721  1.0688 -0.9915  0.9774
 7484TIP3   OH222415   6.605   5.429   3.931  0.4062  0.1000 -0.1436
 7484TIP3    H122416   6.600   5.520   3.901  1.0174  0.2172  0.0955
 7484TIP3    H222417   6.600   5.434   4.026 -1.6521 -0.2840 -0.2000
 7485TIP3   OH222418   5.592   0.442   4.322  0.7630 -0.0838  0.2458
 7485TIP3    H122419   5.604   0.347   4.323 -0.6238 -0.2700  0.8465
 7485TIP3    H222420   5.673   0.477   4.360  0.2747 -1.1600  2.3863
 7486TIP3   OH222421   5.969   5.342   2.654 -0.4334 -0.3051  0.1401
 7486TIP3    H122422   5.951   5.266   2.708  0.4948 -2.1697 -2.0201
 7486TIP3    H222423   5.918   5.328   2.574 -0.4426  1.4950 -0.2304
 7487TIP3   OH222424   1.744   6.322   2.733 -0.5821  0.1035 -0.0154
 7487TIP3    H122425   1.780   6.396   2.683 -0.7968  0.9633  1.0592
 7487TIP3    H222426   1.666   6.296   2.685  0.0756 -0.1268 -0.9881
 7488TIP3   OH222427   2.034   6.270   5.008  0.1571  0.1465 -0.0675
 7488TIP3    H122428   2.072   6.291   4.923  0.2702 -0.9128 -0.2889
 7488TIP3    H222429   2.051   6.347   5.061 -1.7024  1.7038 -1.5685
 7489TIP3   OH222430   1.325   0.846   0.775  0.2249  1.0556  0.1240
 7489TIP3    H122431   1.243   0.877   0.739 -0.4394  0.4163  1.0329
 7489TIP3    H222432   1.302   0.814   0.863  1.8585  3.1911  1.4292
 7490TIP3   OH222433   4.229   6.381   2.124 -0.3182 -0.0591  0.0098
 7490TIP3    H122434   4.160   6.350   2.183 -0.9695  0.1374 -0.6320
 7490TIP3    H222435   4.302   6.320   2.138 -0.6223 -0.2729  0.6895
 7491TIP3   OH222436   6.743   0.469   0.762  0.5936  0.2219  0.0865
 7491TIP3    H122437   6.706   0.385   0.733  1.3726  0.2911 -1.1869
 7491TIP3    H222438   6.809   0.490   0.696  0.5019  1.7818  0.4532
 7492TIP3   OH222439   2.559   4.446   5.481  0.0052 -0.2702 -0.0531
 7492TIP3    H122440   2.465   4.436   5.464  0.3110  0.2686 -2.2614
 7492TIP3    H222441   2.566   4.445   5.577 -2.1352 -1.2501  0.1454
 7493TIP3   OH222442   1.827   0.596   2.916 -0.6033 -0.1211 -0.1967
 7493TIP3    H122443   1.773   0.566   2.842 -0.7840 -0.5221  0.0957
 7493TIP3    H222444   1.846   0.516   2.965  1.1071 -0.1605 -0.8441
 7494TIP3   OH222445   1.664   6.519   1.607  0.1267 -0.2453  0.3456
 7494TIP3    H122446   1.714   6.533   1.688  0.3050 -1.8622  0.5470
 7494TIP3    H222447   1.573   6.521   1.635  0.2033 -1.5848  0.7520
 7495TIP3   OH222448   0.564   3.226   2.471 -0.3450  0.2723  0.5374
 7495TIP3    H122449   0.529   3.232   2.559 -1.0028 -0.0922  0.3065
 7495TIP3    H222450   0.616   3.146   2.470  1.3623  1.3047  1.1615
 7496TIP3   OH222451   0.304   0.035   3.677  0.4559 -0.7309  0.2284
 7496TIP3    H122452   0.283   0.127   3.666  1.3680 -0.5941 -0.4656
 7496TIP3    H222453   0.309   0.023   3.772 -0.0164 -0.1557  0.3305
 7497TIP3   OH222454   6.291   5.422   4.573 -0.3126 -0.0397 -0.1411
 7497TIP3    H122455   6.315   5.390   4.487 -0.0347  0.7062 -0.3517
 7497TIP3    H222456   6.197   5.443   4.566 -0.3911 -0.3897 -0.1315
 7498TIP3   OH222457   3.138   0.917   0.593 -0.3787 -0.1433 -0.3550
 7498TIP3    H122458   3.058   0.950   0.552  0.7715  2.1018 -0.9113
 7498TIP3    H222459   3.115   0.910   0.686 -1.7760 -1.4072 -0.7555
 7499TIP3   OH222460   5.188   1.158   0.570 -0.0216  0.4321 -0.2378
 7499TIP3    H122461   5.207   1.251   0.554 -1.3455  0.1986 -3.8868
 7499TIP3    H222462   5.244   1.111   0.509 -1.2343 -1.0119 -0.2923
 7500TIP3   OH222463   5.910   5.757   0.001 -0.3747  0.1183 -0.2301
 7500TIP3    H122464   5.853   5.814  -0.049 -0.7974  1.0698  1.2582
 7500TIP3    H222465   5.851   5.707   0.058  0.2244  1.7155  1.9394
 7501TIP3   OH222466   4.242   1.283   3.702 -0.5695  0.0468  0.3834
 7501TIP3    H122467   4.186   1.209   3.680 -0.4893  0.1280 -0.1013
 7501TIP3    H222468   4.282   1.259   3.786 -2.5497  0.6691  1.5790
 7502TIP3   OH222469   3.853   0.997   5.238 -0.1977  0.6983 -0.6688
 7502TIP3    H122470   3.819   1.081   5.270  0.9719  0.9652 -0.0696
 7502TIP3    H222471   3.836   0.935   5.310 -1.0948  0.3937 -1.1254
 7503TIP3   OH222472   5.360   0.706   3.172 -0.2071 -0.3528  0.2920
 7503TIP3    H122473   5.341   0.794   3.140  0.3420 -0.5413 -0.5958
 7503TIP3    H222474   5.288   0.686   3.231 -0.6379  0.4668  0.0631
 7504TIP3   OH222475   0.835   3.111   3.837  0.0535  0.7180  0.5797
 7504TIP3    H122476   0.791   3.029   3.818  0.8002  0.4901 -0.2752
 7504TIP3    H222477   0.783   3.177   3.791  0.2494  0.5253  0.0645
 7505TIP3   OH222478   4.184   2.784   0.347  0.1201 -0.1617  0.3581
 7505TIP3    H122479   4.098   2.781   0.304 -0.1477 -0.1052  0.8746
 7505TIP3    H222480   4.235   2.846   0.295 -0.4968  0.6129  0.6468
 7506TIP3   OH222481   2.926   6.138   0.987  0.2316  0.3443  0.6241
 7506TIP3    H122482   2.972   6.087   1.054 -1.0923 -0.3439  1.0527
 7506TIP3    H222483   2.944   6.091   0.905  0.5056  0.2403  0.7404
 7507TIP3   OH222484   2.493   2.932   0.967 -0.0101 -1.0326 -0.0546
 7507TIP3    H122485   2.409   2.886   0.967 -0.6772  0.1194  0.8710
 7507TIP3    H222486   2.497   2.975   1.052 -0.2874  2.0336 -1.4386
 7508TIP3   OH222487   1.876   2.362   2.222  0.2662 -0.1022 -0.6336
 7508TIP3    H122488   1.934   2.304   2.272  0.9045  0.7671 -0.3409
 7508TIP3    H222489   1.790   2.321   2.228  0.8395 -1.4068 -1.0537
 7509TIP3   OH222490   0.258   1.020   5.107  0.1455  0.1225 -0.2015
 7509TIP3    H122491   0.229   1.051   5.193  2.2362  0.2083  0.5231
 7509TIP3    H222492   0.208   1.073   5.044 -3.0246 -1.4250  0.8459
 7510TIP3   OH222493   4.247   2.999   0.866 -0.2843 -0.2485  0.2817
 7510TIP3    H122494   4.238   3.090   0.895 -1.6003 -0.6612  1.2282
 7510TIP3    H222495   4.231   3.003   0.771  0.4402  0.5940  0.1779
 7511TIP3   OH222496   0.103   5.604   1.749 -0.2672 -0.1896 -0.9296
 7511TIP3    H122497   0.093   5.545   1.824 -0.2668  0.6138 -0.2833
 7511TIP3    H222498   0.184   5.653   1.767 -1.5050  1.7091 -0.2293
 7512TIP3   OH222499   2.507   5.081   1.142  0.2577 -0.2797 -0.0798
 7512TIP3    H122500   2.517   5.058   1.050 -1.4768 -1.7459  0.0617
 7512TIP3    H222501   2.429   5.135   1.145  0.9233  0.6858  0.4178
 7513TIP3   OH222502   1.435   5.252   2.745  0.7281 -0.3288  0.3309
 7513TIP3    H122503   1.529   5.232   2.739  0.7876 -1.1157  2.6394
 7513TIP3    H222504   1.393   5.188   2.687  1.6150  0.3350 -1.0903
 7514TIP3   OH222505   1.583   0.024   2.410  0.0425  0.1109  0.7464
 7514TIP3    H122506   1.498   0.068   2.410  0.7500  1.5397  0.1047
 7514TIP3    H222507   1.647   0.094   2.395  1.2365 -1.1217 -0.1967
 7515TIP3   OH222508   6.048   6.234   3.973 -0.7723  0.3414  0.4669
 7515TIP3    H122509   5.961   6.239   3.933 -0.9554  0.4354  0.8714
 7515TIP3    H222510   6.040   6.163   4.037  0.1398 -1.3223 -1.1762
 7516TIP3   OH222511   4.438   4.525   0.815 -0.2849 -0.3762 -0.7804
 7516TIP3    H122512   4.428   4.441   0.858  0.5413 -0.3167 -0.4511
 7516TIP3    H222513   4.449   4.588   0.887  0.1812 -0.1426 -1.0503
 7517TIP3   OH222514   4.472   3.147   3.618  0.1353  0.1218 -0.2988
 7517TIP3    H122515   4.505   3.114   3.535 -0.8737  0.1306 -0.7239
 7517TIP3    H222516   4.547   3.190   3.658  0.3365  1.2666 -1.8052
 7518TIP3   OH222517   0.145   4.114   0.709  0.2606  0.3181 -0.0601
 7518TIP3    H122518   0.132   4.142   0.800  1.8644  1.4463 -0.1306
 7518TIP3    H222519   0.223   4.058   0.713  0.8604  1.0716 -0.8350
 7519TIP3   OH222520   2.504   0.817   5.608  0.1666  0.7430  0.0355
 7519TIP3    H122521   2.442   0.808   5.681 -0.7539 -1.2747 -0.9217
 7519TIP3    H222522   2.476   0.897   5.563  0.9818  2.2415  2.0308
 7520TIP3   OH222523   6.367   3.933   3.003 -0.1132 -0.1105 -0.2321
 7520TIP3    H122524   6.301   4.003   3.002 -0.3031 -0.2711 -2.1187
 7520TIP3    H222525   6.451   3.979   2.994  0.0060  0.0451  1.4574
 7521TIP3   OH222526   5.621   6.546   2.555  0.0921 -0.0720  0.0934
 7521TIP3    H122527   5.698   6.519   2.505  0.5728  2.4516 -0.6793
 7521TIP3    H222528   5.650   6.545   2.646  0.6482 -0.3337 -0.0811
 7522TIP3   OH222529   3.730   5.074   5.564 -0.0752 -0.0170 -0.4382
 7522TIP3    H122530   3.785   5.145   5.595 -1.8011  1.5175 -0.7162
 7522TIP3    H222531   3.777   5.038   5.488  1.6807 -0.4143  0.7952
 7523TIP3   OH222532   0.836   2.606   4.023 -0.1472  0.6500 -0.2793
 7523TIP3    H122533   0.762   2.550   3.998  0.0830 -0.6052  1.6860
 7523TIP3    H222534   0.875   2.631   3.939 -0.6399 -1.6222 -1.2785
 7524TIP3   OH222535   2.832   0.899   0.354  0.1953  0.0890 -0.1885
 7524TIP3    H122536   2.868   0.967   0.411  2.0725  0.4556 -1.7046
 7524TIP3    H222537   2.815   0.944   0.271 -0.2272 -0.9138 -0.6663
 7525TIP3   OH222538   0.805   4.363   4.724 -0.2278  0.5091  0.1778
 7525TIP3    H122539   0.846   4.333   4.642  0.7164  1.4612  0.2767
 7525TIP3    H222540   0.812   4.458   4.720 -1.5251  0.6417  0.6943
 7526TIP3   OH222541   3.207   4.045   1.072  0.2052  0.3420 -0.4349
 7526TIP3    H122542   3.193   4.053   1.167  1.5325 -1.0522 -0.0894
 7526TIP3    H222543   3.165   3.962   1.049  1.2899 -0.1303 -0.7576
 7527TIP3   OH222544   6.847   3.543   0.747 -0.2406  0.8115 -0.3737
 7527TIP3    H122545   6.797   3.509   0.673  0.9632  1.0750 -1.3350
 7527TIP3    H222546   6.780   3.569   0.811 -1.2682 -0.5623 -0.8331
 7528TIP3   OH222547   6.317   0.665   4.619 -0.4618  0.2448 -0.0346
 7528TIP3    H122548   6.307   0.603   4.692 -1.5306  0.9963  0.4810
 7528TIP3    H222549   6.265   0.741   4.645  0.7223  1.3328 -0.7087
 7529TIP3   OH222550   6.353   5.889   3.806  0.5896 -0.1697 -0.9761
 7529TIP3    H122551   6.282   5.840   3.764  1.9925 -2.4593 -0.8117
 7529TIP3    H222552   6.317   5.977   3.818 -1.4559 -0.6702 -2.8082
 7530TIP3   OH222553   6.314   6.609   1.322 -0.0175  0.2292  0.3084
 7530TIP3    H122554   6.229   6.591   1.361  0.1170  0.4988  0.7303
 7530TIP3    H222555   6.376   6.553   1.369  0.3536  1.5214  1.4251
 7531TIP3   OH222556   6.011   2.966   0.087 -0.7836  0.1450 -0.1292
 7531TIP3    H122557   5.952   2.952   0.161 -1.7717 -0.3623 -0.9647
 7531TIP3    H222558   6.098   2.950   0.121 -1.2452 -0.3622  0.8492
 7532TIP3   OH222559   0.753   1.612   4.496 -0.5977  0.1826 -0.3025
 7532TIP3    H122560   0.717   1.523   4.497 -1.2957  0.4497  0.6325
 7532TIP3    H222561   0.821   1.611   4.563 -1.7262  0.7582  0.9027
 7533TIP3   OH222562   6.552   4.601   2.210  0.2319  0.2569 -0.1012
 7533TIP3    H122563   6.499   4.652   2.271  1.4728 -0.0942  1.3310
 7533TIP3    H222564   6.488   4.544   2.166 -0.5636 -1.0051  2.4034
 7534TIP3   OH222565   2.277   1.074   0.233 -0.3243 -0.3077 -0.2560
 7534TIP3    H122566   2.359   1.035   0.204  0.3547  1.6461 -1.1772
 7534TIP3    H222567   2.258   1.141   0.168 -1.3230  0.9703  1.2659
 7535TIP3   OH222568   7.169   4.046   2.787  0.0975 -0.4283 -0.4675
 7535TIP3    H122569   7.255   4.032   2.749  0.2220 -0.0457 -0.3275
 7535TIP3    H222570   7.128   4.113   2.732  1.3867  2.3245  1.7156
 7536TIP3   OH222571   0.257   6.593   3.031 -0.1698  0.1434 -0.7732
 7536TIP3    H122572   0.256   6.639   3.115 -1.5231 -2.9541  1.0727
 7536TIP3    H222573   0.168   6.603   2.997 -0.0475  0.1247 -1.1027
 7537TIP3   OH222574   2.478   5.608   5.163  0.1803 -0.4785  0.6750
 7537TIP3    H122575   2.565   5.594   5.201  0.7459 -1.2277 -0.8236
 7537TIP3    H222576   2.490   5.680   5.102  0.0178 -1.2712 -0.3163
 7538TIP3   OH222577   2.353   3.778   5.145 -0.3083 -0.2653 -0.0444
 7538TIP3    H122578   2.385   3.779   5.235  1.1475  0.3705 -0.5327
 7538TIP3    H222579   2.273   3.726   5.148 -0.7707  0.4732  1.7706
 7539TIP3   OH222580   6.836   2.199   0.896  0.2745  0.2503  0.1296
 7539TIP3    H122581   6.755   2.231   0.856  0.8704 -0.2956 -1.6210
 7539TIP3    H222582   6.852   2.115   0.852  1.8296  0.3923  0.3876
 7540TIP3   OH222583   0.540   5.897   1.850  0.0202 -0.8505 -0.2173
 7540TIP3    H122584   0.557   5.953   1.774  1.3712 -1.6947 -0.5828
 7540TIP3    H222585   0.511   5.957   1.919 -0.0887  0.0783 -1.0515
 7541TIP3   OH222586   2.173   2.100   0.771  0.2453 -0.1872 -0.6921
 7541TIP3    H122587   2.213   2.086   0.685 -0.0462  2.0211 -1.2533
 7541TIP3    H222588   2.083   2.128   0.751 -0.5962 -1.8926  0.4488
 7542TIP3   OH222589   2.607   5.793   3.081 -0.2863 -0.1258  0.4094
 7542TIP3    H122590   2.535   5.844   3.043  1.1169  2.0331  0.4342
 7542TIP3    H222591   2.624   5.835   3.165  0.0734 -1.5308  1.0646
 7543TIP3   OH222592   1.355   5.245   3.711 -0.2834 -0.3358 -0.1722
 7543TIP3    H122593   1.289   5.227   3.644 -0.5247  0.5110 -0.1691
 7543TIP3    H222594   1.438   5.236   3.665 -0.2804 -3.1899  0.2271
 7544TIP3   OH222595   4.224   2.419   5.636  0.0689 -0.0904  0.1260
 7544TIP3    H122596   4.243   2.477   5.563  0.2807  1.1967  1.1764
 7544TIP3    H222597   4.133   2.393   5.623 -0.2349  1.0022 -0.0145
 7545TIP3   OH222598   2.448   4.014   2.717 -0.0068  0.6131  0.5300
 7545TIP3    H122599   2.491   3.959   2.652  0.2747 -0.6124  1.7031
 7545TIP3    H222600   2.360   3.978   2.725 -0.2373  1.1396  0.3925
 7546TIP3   OH222601   6.869   5.594   3.935 -0.4397  0.3080 -0.0425
 7546TIP3    H122602   6.834   5.650   3.866  1.5540  0.1659 -1.2591
 7546TIP3    H222603   6.839   5.634   4.017 -2.5357  0.6957 -0.9552
 7547TIP3   OH222604   0.525   5.592   1.648  0.0534 -0.1058 -0.3504
 7547TIP3    H122605   0.583   5.585   1.723 -1.7557  1.2360  1.2965
 7547TIP3    H222606   0.577   5.562   1.573  1.6493 -2.3511  1.5338
 7548TIP3   OH222607   3.550   3.355   1.542  0.5077  0.4436  0.2043
 7548TIP3    H122608   3.503   3.425   1.497 -0.7463 -0.3783  0.1983
 7548TIP3    H222609   3.525   3.275   1.496  0.5373 -0.2209  1.2968
 7549TIP3   OH222610   4.303   4.449   5.759 -0.1456  0.1119  0.0887
 7549TIP3    H122611   4.270   4.388   5.692  0.6033 -0.0408 -0.1523
 7549TIP3    H222612   4.228   4.503   5.781 -0.8117 -0.8738  0.2713
 7550TIP3   OH222613   4.955   3.409   4.110  0.2165 -0.2489  0.5343
 7550TIP3    H122614   5.007   3.486   4.134 -1.3056  0.6632  1.0509
 7550TIP3    H222615   4.960   3.352   4.188 -1.2533  0.7996  1.4411
 7551TIP3   OH222616   3.087   1.614   4.624  0.2114 -1.0133 -0.2558
 7551TIP3    H122617   3.011   1.561   4.599  0.2051 -1.6288  0.9747
 7551TIP3    H222618   3.061   1.657   4.705  0.4346  0.4530 -0.9413
 7552TIP3   OH222619   3.712   0.805   2.674 -0.0854 -1.1591 -0.2336
 7552TIP3    H122620   3.749   0.719   2.698  0.1228 -0.9425  0.2488
 7552TIP3    H222621   3.651   0.786   2.603  0.4625 -1.6168 -0.5869
 7553TIP3   OH222622   0.686   6.523   4.757  0.4560  0.5108  0.1732
 7553TIP3    H122623   0.725   6.440   4.785  0.1403  0.4548  0.4447
 7553TIP3    H222624   0.713   6.586   4.823 -0.3304  0.3681  0.6429
 7554TIP3   OH222625   3.090   4.761   0.908 -0.3439 -0.2860 -0.5885
 7554TIP3    H122626   3.121   4.821   0.840  0.0276  0.3613  0.1396
 7554TIP3    H222627   3.073   4.679   0.861  0.2915  0.0295 -1.3964
 7555TIP3   OH222628   5.016   6.519   1.843  0.5946  0.7960 -0.2353
 7555TIP3    H122629   4.921   6.509   1.840  0.7293 -0.6766 -1.0170
 7555TIP3    H222630   5.032   6.608   1.814 -0.5217  0.7839 -0.9523
 7556TIP3   OH222631   3.520   0.210   1.436 -0.2660  0.4698  0.0354
 7556TIP3    H122632   3.598   0.164   1.468  0.4405  2.2841  1.0467
 7556TIP3    H222633   3.450   0.144   1.441  1.1288 -1.1608 -0.7544
 7557TIP3   OH222634   5.193   4.649   1.277  0.1391 -0.0757  0.1964
 7557TIP3    H122635   5.113   4.698   1.257  0.2780 -0.5298 -1.6135
 7557TIP3    H222636   5.163   4.576   1.331 -0.7000 -0.2786 -0.5111
 7558TIP3   OH222637   1.121   6.620   2.392  0.0180  0.1011 -0.9240
 7558TIP3    H122638   1.139   6.681   2.463  1.5202  0.1330 -1.3015
 7558TIP3    H222639   1.071   6.671   2.328  0.9428  0.8576 -1.0673
 7559TIP3   OH222640   3.140   0.725   1.988  0.1610 -0.5512  0.0892
 7559TIP3    H122641   3.172   0.638   1.963 -1.0387 -1.2295  0.8208
 7559TIP3    H222642   3.172   0.738   2.078  0.7366 -0.0165 -0.1827
 7560TIP3   OH222643   2.689   5.343   0.461  0.0863  0.6139  0.1786
 7560TIP3    H122644   2.660   5.397   0.387  0.3469  0.8143  0.2243
 7560TIP3    H222645   2.608   5.305   0.495 -0.0126  0.3158 -0.3659
 7561TIP3   OH222646   0.774   0.999   5.532  0.1692  0.5199  0.2549
 7561TIP3    H122647   0.772   1.024   5.440 -1.1782  0.4034  0.2305
 7561TIP3    H222648   0.714   1.060   5.575 -0.8629 -0.7381  0.6727
 7562TIP3   OH222649   2.377   3.272   5.385  0.0364 -0.1979 -0.1749
 7562TIP3    H122650   2.413   3.329   5.453  0.0576  0.4607 -0.7319
 7562TIP3    H222651   2.404   3.184   5.411 -0.8445 -0.0771  1.2218
 7563TIP3   OH222652   5.153   6.665   4.446  0.6842  0.3511 -0.1162
 7563TIP3    H122653   5.058   6.675   4.443  0.4685 -1.4837 -0.7990
 7563TIP3    H222654   5.182   6.678   4.356  1.1943  1.5768  0.2000
 7564TIP3   OH222655   5.023   4.302   0.756 -0.2144 -0.0731  0.0872
 7564TIP3    H122656   4.930   4.286   0.775 -0.2780  1.1126  0.9240
 7564TIP3    H222657   5.039   4.255   0.675 -1.7590  0.3030 -0.4845
 7565TIP3   OH222658   1.803   1.825   0.304  0.8622 -0.5152  0.0336
 7565TIP3    H122659   1.787   1.824   0.209  0.0501 -1.0151  0.1660
 7565TIP3    H222660   1.720   1.852   0.342  1.0578 -0.7336  0.6275
 7566TIP3   OH222661   5.332   3.155   2.612  0.2933 -0.4075  0.1816
 7566TIP3    H122662   5.411   3.111   2.582  0.5031  0.6171 -0.8063
 7566TIP3    H222663   5.282   3.173   2.532 -0.6970 -0.5711  0.7451
 7567TIP3   OH222664   3.700   6.475   5.124 -0.4210  0.0224 -0.4735
 7567TIP3    H122665   3.746   6.484   5.040  0.4934 -2.1091 -0.2835
 7567TIP3    H222666   3.771   6.463   5.188 -1.1722 -0.3751  0.2969
 7568TIP3   OH222667   1.843   4.217   0.418 -0.1105 -0.2331 -0.2053
 7568TIP3    H122668   1.935   4.215   0.444 -0.4563 -1.1363  1.0292
 7568TIP3    H222669   1.844   4.191   0.325  0.8883  0.0145 -0.2733
 7569TIP3   OH222670   2.182   6.773   2.818  0.0297 -0.4083  0.3722
 7569TIP3    H122671   2.275   6.792   2.800 -0.1277  0.1078  0.0656
 7569TIP3    H222672   2.179   6.754   2.911  0.8834 -3.2082 -0.0905
 7570TIP3   OH222673   0.769   0.745   3.423  0.9150 -0.5069 -0.4043
 7570TIP3    H122674   0.701   0.748   3.355 -0.5324  1.2194  1.0049
 7570TIP3    H222675   0.722   0.723   3.503  1.5538  2.6803  1.0105
 7571TIP3   OH222676   6.936   4.326   5.795  0.2287 -0.4995  0.1235
 7571TIP3    H122677   6.992   4.356   5.867 -1.6594  3.7341  0.1411
 7571TIP3    H222678   6.849   4.320   5.833 -1.2740  3.9854 -1.9139
 7572TIP3   OH222679   0.487   6.383   2.804  0.5646  0.1182 -0.3358
 7572TIP3    H122680   0.532   6.305   2.839 -0.8289 -1.3457 -1.6472
 7572TIP3    H222681   0.396   6.356   2.796  0.1273  1.7641 -1.2607
 7573TIP3   OH222682   3.801   5.931   2.972  0.1311  0.2184 -0.2019
 7573TIP3    H122683   3.749   5.859   3.007  1.6886 -0.3013  1.2018
 7573TIP3    H222684   3.759   6.010   3.007 -1.1454 -0.0205 -1.1407
 7574TIP3   OH222685   6.464   4.787   0.895  0.3316  0.4532 -0.1037
 7574TIP3    H122686   6.449   4.856   0.959  0.3657 -0.2311  0.6674
 7574TIP3    H222687   6.377   4.755   0.873  0.3544  0.0947  0.2933
 7575TIP3   OH222688   3.110   1.889   4.552 -0.5678  0.1515 -0.3785
 7575TIP3    H122689   3.196   1.929   4.568 -0.7755  0.3163  0.3849
 7575TIP3    H222690   3.123   1.796   4.570 -0.4326  0.0996 -0.7411
 7576TIP3   OH222691   5.219   3.928   2.929 -0.2848 -0.4798  0.2784
 7576TIP3    H122692   5.305   3.938   2.970 -0.1588  0.3575 -0.1722
 7576TIP3    H222693   5.171   4.008   2.954 -0.0127  0.3280 -1.6297
 7577TIP3   OH222694   2.863   3.121   5.739 -0.1647  0.3246 -0.4835
 7577TIP3    H122695   2.902   3.157   5.660 -1.2120 -1.4858 -1.9090
 7577TIP3    H222696   2.890   3.028   5.739  1.1822  0.5928  2.2018
 7578TIP3   OH222697   6.750   0.741   1.868  0.4229 -0.7414 -0.2003
 7578TIP3    H122698   6.765   0.734   1.963  0.7535 -1.7770 -0.3261
 7578TIP3    H222699   6.655   0.745   1.860  0.3937 -0.5781  0.1716
 7579TIP3   OH222700   6.807   2.926   4.512 -0.7537  0.4833 -0.5732
 7579TIP3    H122701   6.809   3.022   4.520 -0.2757  0.4127  0.2767
 7579TIP3    H222702   6.810   2.910   4.418 -0.6440  1.3023 -0.7190
 7580TIP3   OH222703   4.078   0.362   3.196  0.0903  0.6149 -0.1643
 7580TIP3    H122704   3.996   0.342   3.241  0.1842  0.8017  0.0884
 7580TIP3    H222705   4.065   0.449   3.159  0.0197  0.4694 -0.4860
 7581TIP3   OH222706   0.753   3.410   5.430  0.1990  0.1428  0.0273
 7581TIP3    H122707   0.679   3.354   5.455 -0.2497 -0.4969 -2.4156
 7581TIP3    H222708   0.828   3.350   5.426 -0.0079 -0.0766 -1.2712
 7582TIP3   OH222709   2.654   3.264   2.510 -0.2278 -0.0304  0.0312
 7582TIP3    H122710   2.683   3.355   2.503 -1.3189  0.3905  0.7018
 7582TIP3    H222711   2.594   3.252   2.436  0.6907 -0.5283 -0.6501
 7583TIP3   OH222712   0.098   0.438   5.175 -0.5187  0.6455 -0.1230
 7583TIP3    H122713   0.115   0.531   5.160  0.9846  0.2178 -1.4400
 7583TIP3    H222714   0.153   0.393   5.110  1.0539 -1.2439  2.3337
 7584TIP3   OH222715   6.632   0.777   3.373  0.1127  0.0683  0.5712
 7584TIP3    H122716   6.551   0.797   3.326  1.2967  1.4441 -1.0389
 7584TIP3    H222717   6.632   0.681   3.381 -1.1454 -0.0435 -0.3845
 7585TIP3   OH222718   6.869   3.832   4.818  0.5045  0.1033 -0.0688
 7585TIP3    H122719   6.895   3.837   4.726  1.0955 -0.0800  0.0853
 7585TIP3    H222720   6.949   3.851   4.867  0.0900  0.6805  0.4087
 7586TIP3   OH222721   5.177   4.202   5.177 -0.6603 -0.1660 -0.1602
 7586TIP3    H122722   5.169   4.285   5.130 -0.1854 -0.2554 -0.4031
 7586TIP3    H222723   5.195   4.228   5.268 -2.1605  0.0174  0.1172
 7587TIP3   OH222724   2.857   3.211   0.479 -0.6620  0.0023  0.2869
 7587TIP3    H122725   2.891   3.159   0.551 -0.4929 -0.3956 -0.0781
 7587TIP3    H222726   2.791   3.267   0.519 -1.9234 -1.5350  0.4463
 7588TIP3   OH222727   3.713   5.480   5.118  0.2645 -0.0169 -0.1229
 7588TIP3    H122728   3.800   5.490   5.079 -0.7814 -0.2194 -2.7478
 7588TIP3    H222729   3.702   5.557   5.173  1.4503  0.9308 -1.1504
 7589TIP3   OH222730   3.216   2.659   4.542 -0.5759 -0.3910 -0.0984
 7589TIP3    H122731   3.132   2.697   4.568  0.2145  1.2950  0.1312
 7589TIP3    H222732   3.255   2.631   4.625 -1.0241 -1.4889 -0.2378
 7590TIP3   OH222733   3.791   3.085   2.057  0.2860 -0.5174 -0.7084
 7590TIP3    H122734   3.886   3.080   2.050  0.1236 -1.2646 -3.2183
 7590TIP3    H222735   3.775   3.162   2.111  2.3040 -1.6283  1.6720
 7591TIP3   OH222736   5.126   5.139   2.217  0.3852 -0.0191 -0.0670
 7591TIP3    H122737   5.114   5.135   2.122  1.9714  0.8452 -0.3370
 7591TIP3    H222738   5.212   5.178   2.229  0.1576  0.0270  1.7481
 7592TIP3   OH222739   1.073   0.561   0.344 -0.0119  0.0456 -0.4750
 7592TIP3    H122740   1.124   0.518   0.276  0.0167 -0.6749 -0.0051
 7592TIP3    H222741   1.136   0.583   0.412 -0.2779 -0.6114 -0.0077
 7593TIP3   OH222742   6.072   3.317   1.821 -0.1969  0.2759  0.2103
 7593TIP3    H122743   5.999   3.297   1.880 -0.3483  0.5406  0.1105
 7593TIP3    H222744   6.047   3.277   1.738  0.5857 -1.2108  0.6513
 7594TIP3   OH222745   3.587   1.768   1.777 -0.0588  0.0244  0.0007
 7594TIP3    H122746   3.682   1.764   1.770 -0.0297 -1.4866  0.8358
 7594TIP3    H222747   3.566   1.861   1.776  1.3712  0.3583 -0.7885
 7595TIP3   OH222748   0.386   6.732   3.721 -0.7431 -0.0498 -0.1701
 7595TIP3    H122749   0.347   6.818   3.706 -0.3592 -0.1066 -1.6994
 7595TIP3    H222750   0.480   6.750   3.731 -0.9598 -0.0033  2.6221
 7596TIP3   OH222751   4.098   1.060   3.661 -0.3720  0.2491  0.5659
 7596TIP3    H122752   4.019   1.057   3.606  1.6963 -1.5178 -2.6249
 7596TIP3    H222753   4.102   0.973   3.701  0.6841 -0.2457 -0.5482
 7597TIP3   OH222754   2.001   1.798   1.535  0.0867  0.6770  0.1772
 7597TIP3    H122755   1.940   1.750   1.479 -0.5927 -0.2051  1.6386
 7597TIP3    H222756   2.025   1.736   1.604 -0.9610  2.4637  2.2466
 7598TIP3   OH222757   0.088   6.769   2.629 -0.5708  0.0066  0.0904
 7598TIP3    H122758   0.148   6.839   2.653 -1.2475  1.2339 -1.5602
 7598TIP3    H222759   0.136   6.689   2.647 -0.7954  0.6523  4.8084
 7599TIP3   OH222760   6.868   3.958   0.729 -0.1417  0.3049  0.7907
 7599TIP3    H122761   6.890   3.957   0.822 -0.8110 -2.0920  1.0046
 7599TIP3    H222762   6.927   3.893   0.690 -1.4089 -0.3975 -0.0193
 7600TIP3   OH222763   1.565   0.695   1.408  0.1012  0.2482  0.0288
 7600TIP3    H122764   1.500   0.703   1.477 -0.8475 -0.6734 -0.7269
 7600TIP3    H222765   1.522   0.729   1.330  0.8959  0.5743 -0.2847
 7601TIP3   OH222766   2.348   4.098   1.679  0.6844 -0.6336 -0.6199
 7601TIP3    H122767   2.263   4.062   1.655 -0.3257  1.2509 -0.1344
 7601TIP3    H222768   2.388   4.121   1.595  0.4099 -0.8879 -0.8258
 7602TIP3   OH222769   4.784   4.409   1.010  0.1191 -0.1182 -0.0643
 7602TIP3    H122770   4.698   4.379   1.036 -0.8274  2.1136 -0.3977
 7602TIP3    H222771   4.782   4.409   0.914 -0.1438  1.4517 -0.0934
 7603TIP3   OH222772   2.128   3.971   2.750 -0.0397  0.3615  0.2143
 7603TIP3    H122773   2.052   3.994   2.802 -0.5961 -0.4429 -0.2154
 7603TIP3    H222774   2.092   3.948   2.664  0.6368 -0.4451  0.1352
 7604TIP3   OH222775   4.067   4.726   0.733 -0.0307 -1.0594  0.1232
 7604TIP3    H122776   4.132   4.778   0.780  0.8292 -1.0166 -1.0570
 7604TIP3    H222777   3.984   4.772   0.748 -0.3706 -2.5332  3.8245
 7605TIP3   OH222778   4.856   6.036   3.488 -0.3846  0.6154 -0.2795
 7605TIP3    H122779   4.864   5.960   3.545 -2.2917  1.7505  1.6308
 7605TIP3    H222780   4.934   6.088   3.505 -0.1018  0.1035 -0.0188
 7606TIP3   OH222781   5.583   1.781   1.595  0.0523 -0.7664 -0.5409
 7606TIP3    H122782   5.600   1.854   1.535  0.2743 -0.9981 -0.7624
 7606TIP3    H222783   5.663   1.773   1.647  0.2132 -1.1567 -0.8422
 7607TIP3   OH222784   0.796   2.198   2.438  0.3292 -0.1420 -0.4553
 7607TIP3    H122785   0.760   2.265   2.380 -1.1679  0.0350  0.6042
 7607TIP3    H222786   0.862   2.243   2.490 -1.1520  0.7406  0.7357
 7608TIP3   OH222787   5.693   6.766   3.658 -0.7206 -0.3789  0.6811
 7608TIP3    H122788   5.599   6.774   3.672 -1.0653  2.3283 -1.9952
 7608TIP3    H222789   5.701   6.710   3.581 -0.3307  0.7456 -0.1307
 7609TIP3   OH222790   2.085   4.183   3.307 -0.3112  0.3623  0.1254
 7609TIP3    H122791   2.104   4.266   3.264 -0.1239  0.3791  0.2409
 7609TIP3    H222792   1.998   4.195   3.346 -0.0176  0.7153  0.6769
 7610TIP3   OH222793   2.223   1.153   3.426 -0.1302  0.2287 -0.4121
 7610TIP3    H122794   2.173   1.094   3.371 -1.6444  2.6304 -1.7949
 7610TIP3    H222795   2.209   1.240   3.388  2.7193  1.4194  0.9381
 7611TIP3   OH222796   0.629   1.107   0.275  0.5176  0.1082 -0.5587
 7611TIP3    H122797   0.561   1.150   0.223 -0.0408 -0.2739 -0.1470
 7611TIP3    H222798   0.654   1.031   0.222  1.3711  0.8069 -1.1975
 7612TIP3   OH222799   5.190   1.642   3.866  0.2511  0.3342  0.4818
 7612TIP3    H122800   5.164   1.734   3.861  1.5672  0.6971 -0.0964
 7612TIP3    H222801   5.158   1.604   3.784  1.0951  0.6765 -0.0253
 7613TIP3   OH222802   6.258   2.865   0.176  0.2876 -0.2357  0.0458
 7613TIP3    H122803   6.315   2.926   0.128 -0.2968  0.5596  0.3496
 7613TIP3    H222804   6.319   2.811   0.227  0.7785  0.5357  0.2892
 7614TIP3   OH222805   3.535   6.169   2.430 -0.3346  0.3469  0.2420
 7614TIP3    H122806   3.480   6.202   2.502  0.1436  3.0303 -0.5147
 7614TIP3    H222807   3.479   6.176   2.353  0.1757  0.4523 -0.1200
 7615TIP3   OH222808   4.877   6.562   2.725  0.3847  0.2391 -0.0201
 7615TIP3    H122809   4.907   6.581   2.636  2.0858  1.0112  0.6733
 7615TIP3    H222810   4.811   6.493   2.714  0.1074  0.7545 -1.9132
 7616TIP3   OH222811   1.256   3.068   4.236  0.1268 -0.5061 -0.4996
 7616TIP3    H122812   1.225   3.145   4.189  2.7341 -0.3508 -2.1426
 7616TIP3    H222813   1.270   3.099   4.326  0.3308  0.7125 -0.9303
 7617TIP3   OH222814   3.632   0.874   2.079  0.2474  0.1347  0.6310
 7617TIP3    H122815   3.713   0.824   2.073  0.7011  1.0609 -3.4150
 7617TIP3    H222816   3.654   0.949   2.134  1.8344 -0.1550  0.4336
 7618TIP3   OH222817   2.397   0.774   1.877 -0.3756 -0.2176 -0.3976
 7618TIP3    H122818   2.365   0.693   1.917 -2.6220  1.0980  0.6728
 7618TIP3    H222819   2.321   0.832   1.876  1.1610  1.9155 -1.1045
 7619TIP3   OH222820   2.619   0.205   0.344  0.5149 -0.3574  0.0446
 7619TIP3    H122821   2.680   0.252   0.402  1.8309 -2.6162  0.6329
 7619TIP3    H222822   2.547   0.265   0.331  1.2221  1.0960  2.2628
 7620TIP3   OH222823   6.815   0.739   2.133 -0.0904  0.0553 -0.0144
 7620TIP3    H122824   6.897   0.779   2.163  1.0794 -0.2097 -2.5877
 7620TIP3    H222825   6.820   0.648   2.163  0.9246 -0.1443 -0.7355
 7621TIP3   OH222826   2.319   6.105   4.407  0.0652 -0.6076  0.3973
 7621TIP3    H122827   2.237   6.098   4.359  0.2768 -1.1495  0.1139
 7621TIP3    H222828   2.295   6.090   4.499 -0.7647  2.8226  0.8994
 7622TIP3   OH222829   4.575   4.212   2.436  0.6626  0.0106 -0.2423
 7622TIP3    H122830   4.627   4.218   2.356 -0.6441 -0.8475 -1.2149
 7622TIP3    H222831   4.500   4.269   2.420  0.2361 -0.4019  0.2273
 7623TIP3   OH222832   1.702   5.317   5.173  0.6955  0.0536 -0.3579
 7623TIP3    H122833   1.765   5.383   5.145  1.2376  0.3355  1.4100
 7623TIP3    H222834   1.747   5.233   5.163  0.5459  0.0632 -1.1699
 7624TIP3   OH222835   5.201   0.158   4.333  0.4780  0.1441 -0.0955
 7624TIP3    H122836   5.116   0.163   4.376 -0.0377 -0.2570 -1.0533
 7624TIP3    H222837   5.264   0.164   4.405 -0.3558 -0.1899  0.6820
 7625TIP3   OH222838   2.739   6.683   2.267 -0.1375 -0.3534  0.2391
 7625TIP3    H122839   2.791   6.687   2.186 -1.1667  0.8660 -0.3946
 7625TIP3    H222840   2.759   6.765   2.312 -1.0645 -0.1432  0.2692
 7626TIP3   OH222841   0.577   5.694   3.149 -0.2721  0.1369  0.2858
 7626TIP3    H122842   0.530   5.680   3.231  0.9934  1.3320  1.2472
 7626TIP3    H222843   0.517   5.745   3.095 -0.1479  1.5779  1.4689
 7627TIP3   OH222844   5.262   1.227   1.407  0.7901 -0.2755  0.3060
 7627TIP3    H122845   5.221   1.289   1.467 -0.2159 -0.3886 -0.2497
 7627TIP3    H222846   5.347   1.209   1.446  1.0529  1.3507  0.5497
 7628TIP3   OH222847   5.616   2.809   3.961  0.3425 -0.4753 -0.2957
 7628TIP3    H122848   5.549   2.846   4.018 -0.5197 -0.6323 -1.1697
 7628TIP3    H222849   5.605   2.857   3.878 -0.4488 -2.2621 -1.2822
 7629TIP3   OH222850   0.352   4.848   4.491 -0.4016  0.3289  0.3676
 7629TIP3    H122851   0.425   4.906   4.511  1.4303 -2.1900  1.6208
 7629TIP3    H222852   0.324   4.873   4.403  1.7180  1.6564  0.0161
 7630TIP3   OH222853   5.381   5.741   4.227  0.1137  0.0606 -0.3164
 7630TIP3    H122854   5.292   5.712   4.209  0.4645  0.0654 -2.2770
 7630TIP3    H222855   5.383   5.756   4.322 -2.3276  1.3103 -0.3811
 7631TIP3   OH222856   0.136   4.089   4.208 -0.1275  0.2694  0.1132
 7631TIP3    H122857   0.229   4.071   4.222 -0.1638  0.8599  1.2903
 7631TIP3    H222858   0.109   4.134   4.288 -0.8554  2.3210 -1.2195
 7632TIP3   OH222859   1.315   3.717   4.554  0.2589  0.1118  0.0342
 7632TIP3    H122860   1.285   3.646   4.498 -1.0399  0.0474  0.7667
 7632TIP3    H222861   1.246   3.727   4.620  0.9584  1.2801  0.6369
 7633TIP3   OH222862   2.827   3.013   1.643 -0.4116  0.8313  0.0954
 7633TIP3    H122863   2.771   2.952   1.594 -0.7938  0.1213  1.3757
 7633TIP3    H222864   2.768   3.055   1.705  0.5715 -0.4979  2.0079
 7634TIP3   OH222865   3.184   2.102   1.620 -0.0062 -0.0016 -0.1289
 7634TIP3    H122866   3.193   2.072   1.529 -1.0703  0.2766 -0.3397
 7634TIP3    H222867   3.233   2.038   1.671  0.5403 -0.2062 -0.8892
 7635TIP3   OH222868   1.618   4.846   4.259 -0.2876  0.7709  0.5318
 7635TIP3    H122869   1.642   4.875   4.346  3.4670 -2.2879  0.7505
 7635TIP3    H222870   1.558   4.772   4.273  1.6793 -0.8721  0.7595
 7636TIP3   OH222871   5.884   0.775   5.009 -0.1506 -0.1940 -0.3491
 7636TIP3    H122872   5.930   0.692   4.996  0.6922  0.0732  0.8127
 7636TIP3    H222873   5.815   0.756   5.073 -0.1505 -0.0693 -0.3102
 7637TIP3   OH222874   4.426   4.645   5.533  0.1938 -0.1000  0.2459
 7637TIP3    H122875   4.363   4.644   5.461 -0.6165 -1.3640  0.9370
 7637TIP3    H222876   4.384   4.595   5.603  0.5591  1.8512  1.9622
 7638TIP3   OH222877   4.281   4.900   1.833 -0.7007  0.2041 -0.1721
 7638TIP3    H122878   4.354   4.906   1.895 -0.9005  2.8571 -0.0763
 7638TIP3    H222879   4.321   4.867   1.753  0.5138  1.0628  0.0506
 7639TIP3   OH222880   2.025   5.550   0.905 -0.1204  0.1659  0.0759
 7639TIP3    H122881   2.004   5.549   0.998  1.7906 -2.4148  0.5972
 7639TIP3    H222882   2.106   5.498   0.898  1.7204  3.0002 -2.6037
 7640TIP3   OH222883   6.563   2.327   0.333  0.2466  0.1072  0.3217
 7640TIP3    H122884   6.515   2.322   0.250  0.8065 -1.2070  0.0556
 7640TIP3    H222885   6.632   2.392   0.317 -0.0303  0.3218 -0.0244
 7641TIP3   OH222886   1.822   4.267   3.362 -0.4971 -0.4663 -0.1628
 7641TIP3    H122887   1.818   4.340   3.300 -0.6526 -0.4978 -0.1905
 7641TIP3    H222888   1.785   4.303   3.443  1.0859  0.0316  0.3724
 7642TIP3   OH222889   6.752   0.060   4.023  0.3258 -0.0166  0.1993
 7642TIP3    H122890   6.713  -0.005   4.082 -1.5018  0.0757 -0.8434
 7642TIP3    H222891   6.768   0.012   3.942  1.7663  0.1325  0.3775
 7643TIP3   OH222892   5.526   1.927   0.350 -0.4224 -0.6158 -0.7014
 7643TIP3    H122893   5.492   2.009   0.385 -0.0479 -0.1116 -1.4940
 7643TIP3    H222894   5.621   1.934   0.361 -0.4406 -1.3611  0.0975
 7644TIP3   OH222895   0.175   1.206   3.395  0.3237  0.0816 -0.2108
 7644TIP3    H122896   0.130   1.172   3.473 -0.1423  0.4298 -0.3299
 7644TIP3    H222897   0.118   1.183   3.322  0.1810  0.8016 -0.3300
 7645TIP3   OH222898   4.894   5.073   3.772 -0.3332 -0.0062 -0.3586
 7645TIP3    H122899   4.850   4.995   3.740 -1.0277 -0.1139  0.8097
 7645TIP3    H222900   4.845   5.146   3.735  0.7580 -0.0786 -2.0573
 7646TIP3   OH222901   6.020   0.987   1.413 -0.4361  0.5092  0.7618
 7646TIP3    H122902   6.071   1.042   1.473  2.3093 -0.8024 -0.2043
 7646TIP3    H222903   6.017   0.902   1.456 -1.4843  0.4411  0.5826
 7647TIP3   OH222904   1.591   4.502   3.021  0.1953 -0.2151  0.2115
 7647TIP3    H122905   1.648   4.507   2.944  1.7037 -0.1983  1.2911
 7647TIP3    H222906   1.558   4.591   3.031 -0.6273 -0.3796 -0.8406
 7648TIP3   OH222907   5.420   4.514   4.415  0.4905 -0.1767 -0.1034
 7648TIP3    H122908   5.430   4.471   4.500  0.1736  1.1668  0.6469
 7648TIP3    H222909   5.343   4.570   4.426 -0.9501 -1.6665 -2.0289
 7649TIP3   OH222910   2.810   3.269   1.346  0.1900  0.4817  0.3657
 7649TIP3    H122911   2.874   3.272   1.274 -2.1130 -1.1636 -1.9432
 7649TIP3    H222912   2.730   3.305   1.308 -1.1871 -0.6244  2.0690
 7650TIP3   OH222913   1.847   0.769   0.507  0.1844 -0.8815  0.1353
 7650TIP3    H122914   1.851   0.831   0.434 -1.6217  0.8788  1.3913
 7650TIP3    H222915   1.790   0.699   0.476 -0.8404  0.0184 -0.1105
 7651TIP3   OH222916   2.087   0.320   5.530  0.1702  0.2281  0.0383
 7651TIP3    H122917   2.096   0.275   5.446 -0.2751 -0.3453  0.2917
 7651TIP3    H222918   1.992   0.334   5.540  0.1627 -0.2539  0.7216
 7652TIP3   OH222919   6.384   0.184   3.507  0.0425 -0.2883 -0.6156
 7652TIP3    H122920   6.405   0.177   3.414  1.0058  0.0122 -0.4280
 7652TIP3    H222921   6.468   0.199   3.550 -0.7103  3.2391 -0.0692
 7653TIP3   OH222922   3.085   1.127   1.126 -0.2469 -0.3890  0.4445
 7653TIP3    H122923   3.071   1.218   1.097  0.9677  0.0185  1.0903
 7653TIP3    H222924   3.101   1.134   1.220 -1.7317 -1.4556  0.8155
 7654TIP3   OH222925   6.042   2.076   1.113 -0.1269 -0.4093 -0.2633
 7654TIP3    H122926   6.130   2.113   1.108 -1.0960  1.9535 -1.0245
 7654TIP3    H222927   6.021   2.051   1.023 -1.3188  1.8768 -0.6866
 7655TIP3   OH222928   3.083   3.819   4.743 -0.4138  0.2531 -0.2462
 7655TIP3    H122929   3.149   3.807   4.675 -2.4346 -2.9210 -1.8955
 7655TIP3    H222930   3.131   3.805   4.825  1.3406  0.0945 -1.2425
 7656TIP3   OH222931   5.082   5.281   3.264  0.3788  0.3915  0.1029
 7656TIP3    H122932   5.015   5.215   3.245  0.9493  0.0332 -0.7785
 7656TIP3    H222933   5.040   5.342   3.324  0.0789 -1.1959  1.5822
 7657TIP3   OH222934   6.048   5.683   5.181 -0.0178  0.0255 -0.2459
 7657TIP3    H122935   6.110   5.637   5.125  1.2628 -0.1348  1.2404
 7657TIP3    H222936   6.069   5.654   5.269 -0.2492  2.2059  0.5848
 7658TIP3   OH222937   6.873   6.277   3.109  0.5010 -0.5161 -0.1114
 7658TIP3    H122938   6.883   6.273   3.014  2.2623 -0.2077  0.0276
 7658TIP3    H222939   6.936   6.344   3.138 -1.2460  0.6998  1.1271
 7659TIP3   OH222940   4.528   4.530   3.246 -0.2095  0.2551  0.3973
 7659TIP3    H122941   4.552   4.504   3.157 -0.3134 -0.4494  0.5767
 7659TIP3    H222942   4.488   4.617   3.235  2.7699  1.7248  0.1114
 7660TIP3   OH222943   6.450   4.339   3.583  0.1639  0.1343 -0.3546
 7660TIP3    H122944   6.490   4.270   3.530 -0.2481  0.8189 -1.6040
 7660TIP3    H222945   6.493   4.419   3.554  0.6704  0.4350  1.1147
 7661TIP3   OH222946   7.082   1.917   1.211  0.3770  1.1684 -0.9319
 7661TIP3    H122947   7.063   1.940   1.302  1.1270  0.9548 -0.7175
 7661TIP3    H222948   7.003   1.873   1.180  0.0064  1.5083 -0.4741
 7662TIP3   OH222949   2.762   4.353   0.137  0.0746 -0.1279  0.2468
 7662TIP3    H122950   2.684   4.355   0.081 -0.0021  1.1393  0.3843
 7662TIP3    H222951   2.735   4.398   0.218  1.0011  0.5092  0.2126
 7663TIP3   OH222952   4.548   1.795   3.016  0.1261 -0.2340 -0.3116
 7663TIP3    H122953   4.505   1.729   2.962  0.5224 -0.6150 -0.1687
 7663TIP3    H222954   4.480   1.861   3.032 -0.4523 -0.8863  0.0194
 7664TIP3   OH222955   5.122   4.563   5.579 -0.5534 -0.0830 -0.1612
 7664TIP3    H122956   5.173   4.570   5.660 -0.4704  1.9426 -0.3361
 7664TIP3    H222957   5.186   4.534   5.513 -0.1875  0.0769  0.1169
 7665TIP3   OH222958   4.587   6.491   0.342  0.5485  0.5994  0.2047
 7665TIP3    H122959   4.531   6.497   0.419 -0.2674  0.0021 -0.3240
 7665TIP3    H222960   4.560   6.566   0.288 -0.6206 -0.3670 -0.5979
 7666TIP3   OH222961   2.685   0.167   2.681 -0.1924  0.7119 -0.4621
 7666TIP3    H122962   2.773   0.137   2.704 -0.3716 -0.0042 -0.6587
 7666TIP3    H222963   2.698   0.226   2.607  0.0308 -0.4094 -1.3547
 7667TIP3   OH222964   2.431   3.430   5.158  0.0687  0.4082  0.3450
 7667TIP3    H122965   2.435   3.370   5.233  0.5276  0.8383  0.6674
 7667TIP3    H222966   2.340   3.424   5.129 -0.0716  0.0974  0.8254
 7668TIP3   OH222967   4.150   6.755   1.613 -0.4660  0.1465 -0.1116
 7668TIP3    H122968   4.245   6.748   1.626 -0.5817  0.8611  1.2680
 7668TIP3    H222969   4.119   6.665   1.610  0.0988 -0.0842  0.7155
 7669TIP3   OH222970   5.358   3.709   4.642 -0.2626 -0.8745 -0.2655
 7669TIP3    H122971   5.311   3.670   4.568 -0.8835  0.0166 -0.3664
 7669TIP3    H222972   5.389   3.793   4.608 -0.2325 -0.6218  0.3720
 7670TIP3   OH222973   2.411   5.186   3.976  0.2795 -0.4897 -0.1057
 7670TIP3    H122974   2.324   5.151   3.960 -0.3763  0.5069  1.0875
 7670TIP3    H222975   2.446   5.133   4.048  0.0853  0.0025  0.3571
 7671TIP3   OH222976   2.457   3.446   5.613  0.2615 -0.0660  0.2931
 7671TIP3    H122977   2.409   3.497   5.677 -0.1587  0.4826 -0.4545
 7671TIP3    H222978   2.549   3.461   5.635  0.1973  1.9786 -0.6248
 7672TIP3   OH222979   3.483   2.642   3.478 -0.7153  0.1227 -0.2562
 7672TIP3    H122980   3.463   2.725   3.522  0.1057  0.4348 -0.4444
 7672TIP3    H222981   3.575   2.650   3.453 -0.6542 -0.8057 -0.3765
 7673TIP3   OH222982   3.987   1.898   5.384  0.3074 -0.0899  0.1629
 7673TIP3    H122983   3.903   1.852   5.393  0.5507 -0.7084 -0.5979
 7673TIP3    H222984   4.023   1.899   5.472 -1.7037  2.5839  1.0776
 7674TIP3   OH222985   0.879   6.407   3.231  0.4313  0.0336 -0.3395
 7674TIP3    H122986   0.955   6.352   3.214  0.2968  0.2637 -1.7535
 7674TIP3    H222987   0.806   6.362   3.189 -0.0455  0.3154  0.1695
 7675TIP3   OH222988   2.490   5.080   2.028 -0.2807 -0.4217  0.0977
 7675TIP3    H122989   2.497   5.154   2.088  2.3157 -0.9569  0.5669
 7675TIP3    H222990   2.423   5.107   1.964  0.1766  2.0726  0.5642
 7676TIP3   OH222991   2.146   1.110   1.269 -0.3305 -0.0277  0.1996
 7676TIP3    H122992   2.196   1.046   1.319 -1.8190 -1.3682  0.0303
 7676TIP3    H222993   2.100   1.059   1.202 -1.7566  1.1734  0.2059
 7677TIP3   OH222994   2.780   3.520   2.504  0.1677 -0.1865  0.3024
 7677TIP3    H122995   2.782   3.597   2.447  0.4800 -0.6697 -0.3441
 7677TIP3    H222996   2.746   3.554   2.587  0.5069  0.6937  0.0977
 7678TIP3   OH222997   4.357   6.277   3.682  0.7269 -0.3110 -0.1185
 7678TIP3    H122998   4.438   6.285   3.632  1.1432 -2.8536  0.0220
 7678TIP3    H222999   4.318   6.195   3.652 -1.2513  0.2966  0.6262
 7679TIP3   OH223000   2.498   1.743   4.714 -0.4269  0.0701  0.1214
 7679TIP3    H123001   2.586   1.725   4.683 -1.0983 -2.0522 -0.7621
 7679TIP3    H223002   2.500   1.721   4.807  0.0802  0.5102  0.2175
 7680TIP3   OH223003   3.279   5.786   3.400  0.3251  0.1529  0.6179
 7680TIP3    H123004   3.316   5.757   3.484  0.7467  0.8642  0.6876
 7680TIP3    H223005   3.224   5.713   3.372  1.0557 -0.5495  0.9678
 7681TIP3   OH223006   5.373   1.397   4.977 -0.7126  0.1870  0.0278
 7681TIP3    H123007   5.456   1.444   4.992 -0.2941 -0.5713  0.1260
 7681TIP3    H223008   5.399   1.305   4.968 -1.6232 -0.1505  0.7548
 7682TIP3   OH223009   2.985   5.214   4.471 -0.0600 -0.3251 -0.3872
 7682TIP3    H123010   2.904   5.182   4.432 -2.1146  2.0582  1.6177
 7682TIP3    H223011   3.007   5.293   4.423 -0.3563  0.3980  0.6232
 7683TIP3   OH223012   5.632   0.392   5.173 -0.1767  0.2005  0.5744
 7683TIP3    H123013   5.673   0.308   5.193 -3.3209 -1.9260 -0.9621
 7683TIP3    H223014   5.670   0.418   5.089 -0.7231 -0.9161 -0.0481
 7684TIP3   OH223015   0.966   2.986   5.350 -0.2961 -0.5058  0.0091
 7684TIP3    H123016   0.982   3.061   5.407  0.6223 -0.1307 -0.7328
 7684TIP3    H223017   0.891   2.941   5.391  0.0279  0.0221  1.2313
 7685TIP3   OH223018   6.980   0.894   2.649 -0.3323  0.3790 -0.5998
 7685TIP3    H123019   7.047   0.836   2.686  1.4246  0.6152 -3.1124
 7685TIP3    H223020   7.013   0.982   2.665 -0.1736  0.5045 -1.5740
 7686TIP3   OH223021   4.424   3.648   1.690  0.2527  0.3278 -0.7748
 7686TIP3    H123022   4.458   3.612   1.608  0.7287 -2.2037  0.4361
 7686TIP3    H223023   4.344   3.598   1.708  0.7536  0.0312  0.8435
 7687TIP3   OH223024   4.980   4.465   0.473 -0.5606 -0.4068  0.1524
 7687TIP3    H123025   4.957   4.515   0.394 -0.1155  0.4397  0.5543
 7687TIP3    H223026   4.906   4.481   0.533 -0.9498 -1.1355 -0.1216
 7688TIP3   OH223027   0.273   6.651   5.307 -0.1120 -0.0572 -0.3407
 7688TIP3    H123028   0.325   6.595   5.248  3.1924  0.8845  1.3978
 7688TIP3    H223029   0.336   6.716   5.339 -2.8163  2.1443  0.8752
 7689TIP3   OH223030   5.112   0.979   0.967 -0.0067  0.3039 -0.2825
 7689TIP3    H123031   5.047   0.917   1.000  0.3378  0.9343  1.7523
 7689TIP3    H223032   5.180   0.980   1.034 -0.8910  4.2302  0.8235
 7690TIP3   OH223033   4.397   1.093   5.683  0.0885  0.2243 -0.1088
 7690TIP3    H123034   4.319   1.062   5.637  0.1185 -1.2291  0.7374
 7690TIP3    H223035   4.449   1.013   5.698 -0.6536  0.2750  3.7728
 7691TIP3   OH223036   1.021   4.311   2.241 -0.2833  0.9008 -0.0455
 7691TIP3    H123037   1.052   4.291   2.329  0.6722 -0.8312 -0.7175
 7691TIP3    H223038   1.090   4.277   2.183 -0.8616  2.0388 -1.4699
 7692TIP3   OH223039   2.073   5.057   0.224  0.2034 -0.8711  0.4800
 7692TIP3    H123040   2.081   5.149   0.199 -0.9326 -0.6876  0.7350
 7692TIP3    H223041   1.979   5.038   0.215  0.4735 -2.1079  0.0687
 7693TIP3   OH223042   5.963   6.411   0.862  0.4560 -0.1837 -0.3954
 7693TIP3    H123043   5.954   6.503   0.837 -0.4669 -0.1877 -0.1307
 7693TIP3    H223044   5.877   6.388   0.899  0.3234 -1.4254 -1.3913
 7694TIP3   OH223045   1.767   4.365   1.894 -0.3038  0.8357  0.4203
 7694TIP3    H123046   1.745   4.350   1.802 -0.1373  0.7992  0.3845
 7694TIP3    H223047   1.728   4.292   1.941  1.5999 -0.4869  0.0953
 7695TIP3   OH223048   2.633   3.951   1.137  0.2004 -0.1110 -0.0174
 7695TIP3    H123049   2.661   3.965   1.228 -1.3527 -0.7123  0.6049
 7695TIP3    H223050   2.598   4.035   1.109 -0.2600 -0.1865  0.3166
 7696TIP3   OH223051   3.504   6.616   0.540  0.0471  0.1516  0.4726
 7696TIP3    H123052   3.572   6.658   0.593 -0.3965  0.6239  0.6650
 7696TIP3    H223053   3.541   6.530   0.520 -0.0604 -0.3266  2.1407
 7697TIP3   OH223054   5.513   1.720   4.846 -0.0725 -0.0428 -0.6024
 7697TIP3    H123055   5.543   1.811   4.842  1.6000 -0.5545 -0.1920
 7697TIP3    H223056   5.428   1.726   4.890  1.0366  1.1108  1.5396
 7698TIP3   OH223057   3.092   4.103   0.251  0.5313  0.1270  0.3978
 7698TIP3    H123058   3.094   4.031   0.187  0.1164  1.3973 -1.1186
 7698TIP3    H223059   2.999   4.122   0.261  0.6854  1.1310 -0.0246
 7699TIP3   OH223060   4.024   6.584   5.180  0.2458 -0.6708 -0.7240
 7699TIP3    H123061   4.113   6.550   5.187  0.3738 -0.8125 -2.6347
 7699TIP3    H223062   4.021   6.655   5.244  1.4680 -1.1722 -0.0652
 7700TIP3   OH223063   3.362   0.532   0.276 -0.0408 -0.2422 -0.1228
 7700TIP3    H123064   3.276   0.567   0.300 -0.9313 -2.1811 -0.2712
 7700TIP3    H223065   3.344   0.469   0.206  1.3062 -1.7263  0.7925
 7701TIP3   OH223066   1.709   3.921   0.283 -0.5446  0.1048  0.4520
 7701TIP3    H123067   1.764   3.852   0.246 -1.0594 -1.2057  2.0291
 7701TIP3    H223068   1.747   4.003   0.248  0.5012 -0.9026 -0.9011
 7702TIP3   OH223069   6.274   0.300   5.371  0.3329  0.2482  0.5799
 7702TIP3    H123070   6.204   0.349   5.414 -0.2341 -0.3551  0.3450
 7702TIP3    H223071   6.352   0.320   5.424  0.2069  1.7090  0.2733
 7703TIP3   OH223072   3.495   2.793   2.252  0.2712 -0.1814 -0.4568
 7703TIP3    H123073   3.460   2.836   2.330 -0.2471  0.0701 -0.8147
 7703TIP3    H223074   3.419   2.748   2.214  0.7594 -1.2459 -0.2031
 7704TIP3   OH223075   5.007   5.632   3.879 -0.5516 -0.2147  0.2583
 7704TIP3    H123076   5.066   5.681   3.937  0.8481 -1.0740 -0.3946
 7704TIP3    H223077   4.945   5.590   3.939 -1.1983  1.5260  0.8918
 7705TIP3   OH223078   6.727   2.649   2.644  0.3994  0.7631  0.1648
 7705TIP3    H123079   6.800   2.610   2.693  0.3522  0.1639 -0.2214
 7705TIP3    H223080   6.744   2.623   2.553 -0.6070  0.1071  0.1526
 7706TIP3   OH223081   0.789   1.812   3.049 -0.1632  0.2929 -0.2615
 7706TIP3    H123082   0.729   1.881   3.020  0.1470  0.8447  0.3956
 7706TIP3    H223083   0.820   1.773   2.967 -0.3133  0.9563 -0.6472
 7707TIP3   OH223084   7.019   4.361   1.078  0.0204  0.8686  0.0308
 7707TIP3    H123085   7.072   4.385   1.154  0.8154 -0.6664 -0.0089
 7707TIP3    H223086   6.934   4.336   1.115  0.1814  0.7775  0.3425
 7708TIP3   OH223087   1.744   5.583   3.232 -0.0109 -0.1580 -0.3955
 7708TIP3    H123088   1.798   5.577   3.310  0.0739  2.4165 -0.1904
 7708TIP3    H223089   1.780   5.516   3.173  0.7117 -1.2848  1.2483
 7709TIP3   OH223090   6.920   1.496   4.176 -0.1673 -0.2043 -0.0617
 7709TIP3    H123091   6.983   1.424   4.182  0.0270  0.0759  1.7467
 7709TIP3    H223092   6.936   1.535   4.090  0.5930 -1.5180 -0.5485
 7710TIP3   OH223093   3.713   4.369   4.158  0.4389 -0.3184  0.1476
 7710TIP3    H123094   3.777   4.429   4.197 -1.2900  0.6571  1.6257
 7710TIP3    H223095   3.765   4.293   4.133  2.3496  0.8742  0.2586
 7711TIP3   OH223096   1.810   2.880   3.848  0.7157  0.1213 -0.5195
 7711TIP3    H123097   1.725   2.860   3.887  1.4542  0.1335  1.1613
 7711TIP3    H223098   1.812   2.976   3.841  0.6833  0.1351 -0.3380
 7712TIP3   OH223099   2.612   2.715   5.184 -0.0642  1.1337 -0.4230
 7712TIP3    H123100   2.615   2.705   5.089 -0.0161  0.0462 -0.3255
 7712TIP3    H223101   2.571   2.634   5.215  1.4572  0.7127  0.5941
 7713TIP3   OH223102   1.655   1.520   3.993 -0.6899 -0.2911  0.2762
 7713TIP3    H123103   1.610   1.594   4.033 -0.1390 -0.4600  1.2196
 7713TIP3    H223104   1.747   1.533   4.015 -0.7242 -1.9015  1.5029
 7714TIP3   OH223105   4.264   3.989   4.908  0.3501 -0.2043  0.2617
 7714TIP3    H123106   4.316   4.069   4.917 -0.2458  0.2657 -0.2832
 7714TIP3    H223107   4.327   3.918   4.913  1.1929  0.3769 -1.3355
 7715TIP3   OH223108   2.097   4.415   2.742 -0.3478  0.1254 -0.0739
 7715TIP3    H123109   2.028   4.444   2.684  0.3918  2.9480  0.3246
 7715TIP3    H223110   2.155   4.362   2.687 -2.2784 -1.5296 -0.6095
 7716TIP3   OH223111   3.412   1.944   2.248  0.2252 -0.4844 -0.5999
 7716TIP3    H123112   3.424   1.857   2.286 -0.3408 -0.3565 -0.1300
 7716TIP3    H223113   3.451   1.936   2.160 -1.4664 -1.7651 -1.3041
 7717TIP3   OH223114   1.488   0.606   4.703  0.1337 -0.3774  0.2528
 7717TIP3    H123115   1.465   0.615   4.796  0.2429 -2.2634  0.4928
 7717TIP3    H223116   1.571   0.558   4.703 -1.0466 -2.5385 -0.8496
 7718TIP3   OH223117   0.777   3.956   3.305 -0.1941  1.0180 -0.0027
 7718TIP3    H123118   0.854   3.995   3.346  0.4520 -1.0942  0.9716
 7718TIP3    H223119   0.798   3.954   3.212  0.4271  1.5398  0.1189
 7719TIP3   OH223120   5.222   3.354   4.780  0.9198 -0.0361 -0.5973
 7719TIP3    H123121   5.172   3.425   4.740  2.1939  0.5858 -1.1606
 7719TIP3    H223122   5.198   3.356   4.872  1.3863  1.5355 -0.4875
 7720TIP3   OH223123   6.440   1.032   5.660 -0.2899 -0.2060 -0.2016
 7720TIP3    H123124   6.453   1.113   5.610 -2.1315  0.9860  1.1444
 7720TIP3    H223125   6.515   0.977   5.635 -0.1870  0.9886 -2.8783
 7721TIP3   OH223126   3.876   0.850   0.862 -0.0590  0.0938  0.0876
 7721TIP3    H123127   3.880   0.786   0.933 -0.4774  1.6692  1.5922
 7721TIP3    H223128   3.879   0.935   0.906 -0.6110  1.1283 -1.7694
 7722TIP3   OH223129   1.671   5.889   0.618 -0.7233  0.1058  0.0065
 7722TIP3    H123130   1.610   5.900   0.692  0.0082 -1.6579  0.9276
 7722TIP3    H223131   1.736   5.958   0.631 -0.0997 -0.7315  1.5784
 7723TIP3   OH223132   4.817   6.413   5.370  0.2320  0.0644  0.4781
 7723TIP3    H123133   4.885   6.427   5.436  0.0309 -0.4874  0.8068
 7723TIP3    H223134   4.738   6.394   5.420 -0.2239  0.9118  0.1009
 7724TIP3   OH223135   2.941   0.334   0.932 -0.3859  0.4343  0.7652
 7724TIP3    H123136   2.888   0.363   0.859 -0.6537 -0.5690  0.5457
 7724TIP3    H223137   2.992   0.260   0.897 -0.0336  0.3628  1.4085
 7725TIP3   OH223138   5.367   3.458   3.296 -0.0580 -0.1682  0.0492
 7725TIP3    H123139   5.295   3.498   3.345 -0.1828  1.4525 -1.3395
 7725TIP3    H223140   5.366   3.366   3.321 -0.3043  0.5113  2.7760
 7726TIP3   OH223141   4.460   1.231   3.249 -0.2011  0.0810 -0.2924
 7726TIP3    H123142   4.451   1.205   3.341 -0.9791  0.8241 -0.1432
 7726TIP3    H223143   4.388   1.292   3.234  1.1318  1.6244 -0.7995
 7727TIP3   OH223144   5.962   5.455   4.198  0.3064 -0.3516 -0.0722
 7727TIP3    H123145   5.950   5.445   4.293 -1.6337 -0.3945 -0.2851
 7727TIP3    H223146   6.036   5.515   4.189  1.0946 -1.0403  1.4444
 7728TIP3   OH223147   3.651   1.333   1.332 -0.1459  0.4711  0.2926
 7728TIP3    H123148   3.692   1.367   1.252  0.9613 -0.0827  0.6092
 7728TIP3    H223149   3.722   1.328   1.395 -0.5029 -1.3561  0.6066
 7729TIP3   OH223150   5.301   6.181   2.000 -0.3702  0.1575 -0.6149
 7729TIP3    H123151   5.299   6.256   2.060 -0.1869 -0.8123  0.6522
 7729TIP3    H223152   5.390   6.179   1.967  0.1616 -0.5280  0.7570
 7730TIP3   OH223153   5.551   5.658   0.388  0.0265  0.5393  0.1995
 7730TIP3    H123154   5.479   5.719   0.378 -0.3242  0.2388  0.8188
 7730TIP3    H223155   5.541   5.624   0.477  2.3855  2.3470  1.2599
 7731TIP3   OH223156   1.361   4.695   1.760  0.6691 -0.4203 -0.5732
 7731TIP3    H123157   1.386   4.780   1.798 -1.5313  0.1496 -0.2541
 7731TIP3    H223158   1.354   4.713   1.666 -0.1227 -0.1382 -0.4676
 7732TIP3   OH223159   0.259   5.361   3.332 -0.5220 -0.2761  0.1403
 7732TIP3    H123160   0.311   5.289   3.298  0.5593  1.1136 -1.3164
 7732TIP3    H223161   0.228   5.407   3.254  1.4221  2.6280  0.8921
 7733TIP3   OH223162   1.391   2.717   0.979 -0.4672  0.1592  0.2831
 7733TIP3    H123163   1.308   2.699   1.024 -0.1246  0.2437  0.9651
 7733TIP3    H223164   1.432   2.786   1.032 -0.6365  1.2052 -0.8931
 7734TIP3   OH223165   4.268   3.435   3.571 -0.4449 -0.1820  0.2933
 7734TIP3    H123166   4.266   3.358   3.628 -1.7751 -0.3100  0.0998
 7734TIP3    H223167   4.213   3.411   3.496  1.1608  0.0253 -1.0059
 7735TIP3   OH223168   6.302   3.752   4.065 -0.2598  0.1218  0.1582
 7735TIP3    H123169   6.310   3.772   3.972 -0.6565 -1.0585 -0.1482
 7735TIP3    H223170   6.392   3.739   4.096  0.0289  2.3454  0.4000
 7736TIP3   OH223171   6.563   0.022   4.938 -0.6947 -0.1294  0.0905
 7736TIP3    H123172   6.481  -0.018   4.968  0.1234 -0.5066  1.9540
 7736TIP3    H223173   6.571   0.102   4.988 -0.1234  0.1266 -0.3957
 7737TIP3   OH223174   6.612   3.815   4.058 -0.0407  0.6572 -0.2720
 7737TIP3    H123175   6.638   3.737   4.010 -0.0715 -1.5898  3.0190
 7737TIP3    H223176   6.694   3.862   4.075  0.2402  0.2850 -0.6063
 7738TIP3   OH223177   3.187   5.234   0.042  0.0662 -0.2542  0.1156
 7738TIP3    H123178   3.179   5.145   0.007  0.1827 -0.2866  0.1719
 7738TIP3    H223179   3.276   5.261   0.019  0.4011 -0.5438  1.0141
 7739TIP3   OH223180   0.254   1.458   2.399  0.4749  0.0874 -0.2341
 7739TIP3    H123181   0.231   1.367   2.381 -0.0179  0.2362 -0.3786
 7739TIP3    H223182   0.328   1.476   2.341 -0.1883  0.1364 -1.0753
 7740TIP3   OH223183   3.590   5.366   0.517 -0.6377 -0.3815  0.3255
 7740TIP3    H123184   3.593   5.430   0.589  0.3421  0.6873 -0.6315
 7740TIP3    H223185   3.520   5.398   0.459 -0.9291 -0.8362  0.4185
 7741TIP3   OH223186   3.478   0.915   4.510 -0.2972 -0.5878 -0.0914
 7741TIP3    H123187   3.442   0.945   4.427 -0.3603 -3.0475 -1.0586
 7741TIP3    H223188   3.553   0.860   4.486 -0.0441 -1.0056  1.4970
 7742TIP3   OH223189   4.421   4.779   0.696  0.4196  0.2599  0.6218
 7742TIP3    H123190   4.417   4.691   0.732 -0.2953 -0.6890 -1.5767
 7742TIP3    H223191   4.362   4.831   0.752 -0.1053 -0.9401  1.2171
 7743TIP3   OH223192   6.649   0.203   0.836 -0.0919  0.0437 -0.7023
 7743TIP3    H123193   6.554   0.194   0.828 -0.0914  0.7276 -1.7308
 7743TIP3    H223194   6.666   0.198   0.930 -1.3095  1.4083 -0.3747
 7744TIP3   OH223195   6.166   1.102   0.904 -0.3598 -0.2790  0.2915
 7744TIP3    H123196   6.183   1.174   0.966  0.2461 -0.6691  0.5891
 7744TIP3    H223197   6.084   1.127   0.861 -1.1868 -0.3393  1.7572
 7745TIP3   OH223198   4.244   5.052   5.450  0.2864 -0.0548 -0.0514
 7745TIP3    H123199   4.331   5.013   5.443 -0.3102 -1.2809 -1.3595
 7745TIP3    H223200   4.200   5.024   5.370 -1.2317  0.7365  0.4762
 7746TIP3   OH223201   0.989   5.378   0.446 -0.2360  0.1467  0.0043
 7746TIP3    H123202   0.956   5.412   0.529  0.1922  1.9656 -0.5293
 7746TIP3    H223203   1.053   5.312   0.472  0.5687  1.3236  1.1755
 7747TIP3   OH223204   5.854   1.203   0.411  0.1821 -0.0672 -0.3741
 7747TIP3    H123205   5.864   1.298   0.406  3.3881 -0.1307  1.8126
 7747TIP3    H223206   5.871   1.173   0.321  0.5811  1.3612 -0.8056
 7748TIP3   OH223207   6.733   5.776   4.886 -0.2973 -0.3628 -0.1566
 7748TIP3    H123208   6.826   5.800   4.886  0.2661 -2.3227 -0.1218
 7748TIP3    H223209   6.715   5.750   4.795 -0.7200 -0.3462 -0.0810
 7749TIP3   OH223210   1.831   1.497   2.598 -0.1123 -0.4348 -0.5055
 7749TIP3    H123211   1.738   1.486   2.618  0.2119 -0.9200  0.8338
 7749TIP3    H223212   1.864   1.555   2.666  0.5071 -0.0035 -1.1608
 7750TIP3   OH223213   4.075   0.358   2.051 -0.3422  0.3943  0.2737
 7750TIP3    H123214   4.102   0.354   2.142 -2.8579 -2.6282  1.0214
 7750TIP3    H223215   3.982   0.380   2.054 -0.5000  0.1507 -1.5664
 7751TIP3   OH223216   6.172   2.818   4.526 -0.5198  0.3789 -0.4072
 7751TIP3    H123217   6.100   2.760   4.501  1.8422 -3.9523  1.6727
 7751TIP3    H223218   6.227   2.824   4.448 -1.5649  1.2241 -1.1037
 7752TIP3   OH223219   3.985   5.442   1.667 -0.0047 -0.2098 -0.2414
 7752TIP3    H123220   4.034   5.366   1.697 -0.4474 -1.9175 -3.3413
 7752TIP3    H223221   3.899   5.433   1.709  0.2973 -0.8160  0.2661
 7753TIP3   OH223222   0.968   5.835   3.681  0.3133 -0.5500 -0.1694
 7753TIP3    H123223   0.971   5.755   3.630 -0.5855 -1.1297  0.6326
 7753TIP3    H223224   0.918   5.811   3.759  1.3128  0.3990  0.7954
 7754TIP3   OH223225   7.178   2.658   1.569  0.4050 -0.0021 -0.6085
 7754TIP3    H123226   7.142   2.746   1.576  0.8945  0.2050 -0.6579
 7754TIP3    H223227   7.123   2.615   1.503 -2.5110 -1.1137  2.2624
 7755TIP3   OH223228   5.812   5.207   2.461 -0.6093  0.4192  0.2947
 7755TIP3    H123229   5.788   5.214   2.368 -0.2797 -0.0659  0.1707
 7755TIP3    H223230   5.843   5.117   2.471 -1.2395  0.2787  1.0214
 7756TIP3   OH223231   1.270   5.398   5.761 -0.3054  0.0241 -0.6356
 7756TIP3    H123232   1.351   5.406   5.812 -0.7966  1.2050  0.0098
 7756TIP3    H223233   1.293   5.430   5.674  0.8810 -3.1798 -1.6609
 7757TIP3   OH223234   2.161   2.215   3.902 -0.1337  0.8859 -0.0247
 7757TIP3    H123235   2.129   2.296   3.862  0.4674  0.3745 -1.6064
 7757TIP3    H223236   2.105   2.146   3.866 -0.2075  0.5016  0.7906
 7758TIP3   OH223237   2.976   6.695   1.366 -0.1791  0.5159 -0.6163
 7758TIP3    H123238   3.005   6.729   1.450  0.1561  1.6428 -1.1644
 7758TIP3    H223239   3.057   6.669   1.321 -0.4596 -1.8790  0.0936
 7759TIP3   OH223240   4.102   0.836   5.427 -0.4224 -0.3535  0.1565
 7759TIP3    H123241   4.194   0.865   5.424 -1.1181  2.1944  0.9509
 7759TIP3    H223242   4.098   0.763   5.365  1.8156  0.4654 -1.0816
 7760TIP3   OH223243   2.519   6.696   4.165  0.0681 -0.2371  0.1015
 7760TIP3    H123244   2.426   6.712   4.180 -0.2186  0.9147 -2.3658
 7760TIP3    H223245   2.560   6.782   4.176  0.8799 -0.7411  1.1868
 7761TIP3   OH223246   6.564   1.738   0.690  0.4971  0.0001  0.8200
 7761TIP3    H123247   6.470   1.722   0.683  0.3338 -0.0289  2.6144
 7761TIP3    H223248   6.604   1.672   0.633 -0.5562  0.0257  0.0234
 7762TIP3   OH223249   1.289   3.927   1.707  0.4203 -0.0949 -0.1612
 7762TIP3    H123250   1.270   3.905   1.616  0.3245 -2.0796  0.2930
 7762TIP3    H223251   1.384   3.939   1.710  0.7355 -2.2211 -0.1476
 7763TIP3   OH223252   4.330   2.986   5.211 -0.3640  0.1390  0.1099
 7763TIP3    H123253   4.307   3.053   5.147 -0.5475  0.5724  0.6234
 7763TIP3    H223254   4.252   2.979   5.267 -1.0511 -1.7836 -1.0037
 7764TIP3   OH223255   4.888   3.084   3.468 -0.5073  0.4997 -0.6170
 7764TIP3    H123256   4.842   3.034   3.401 -1.3031  1.6128 -0.9269
 7764TIP3    H223257   4.959   3.128   3.421 -2.0668  2.6296 -1.1379
 7765TIP3   OH223258   1.674   1.817   3.365 -0.6440 -0.3259 -0.7420
 7765TIP3    H123259   1.758   1.833   3.322  0.3213 -1.7317  0.5091
 7765TIP3    H223260   1.669   1.722   3.372 -1.4870 -0.2008  0.8238
 7766TIP3   OH223261   0.094   1.660   1.989  0.0871 -0.3014 -0.1169
 7766TIP3    H123262   0.010   1.662   2.035  1.2071  0.1801  2.0492
 7766TIP3    H223263   0.131   1.574   2.009  0.8407  0.1317  0.4189
 7767TIP3   OH223264   3.970   3.647   0.431  0.0005 -0.0074 -0.3412
 7767TIP3    H123265   3.989   3.556   0.455  0.0400 -0.2274 -1.1769
 7767TIP3    H223266   3.881   3.662   0.462 -0.4400 -0.7110 -1.2062
 7768TIP3   OH223267   1.904   2.484   1.267  0.9098  0.7141  0.3011
 7768TIP3    H123268   1.833   2.426   1.297  1.2007  0.4713  0.5379
 7768TIP3    H223269   1.981   2.426   1.263  0.8812  0.7481 -0.9223
 7769TIP3   OH223270   0.939   6.736   1.441  0.6008 -0.7034  0.0658
 7769TIP3    H123271   0.964   6.713   1.352  0.9340  0.6647 -0.2274
 7769TIP3    H223272   1.009   6.700   1.496  1.1442 -0.3311 -0.3747
 7770TIP3   OH223273   2.190   5.037   5.179 -0.4854  0.2848 -0.1546
 7770TIP3    H123274   2.262   5.064   5.237 -0.9094  1.8519 -0.3138
 7770TIP3    H223275   2.125   5.107   5.187 -2.0496 -1.1136  0.0350
 7771TIP3   OH223276   4.641   4.116   5.014  0.5906  0.1780 -0.0687
 7771TIP3    H123277   4.705   4.139   5.081 -0.0496  0.8262  0.3262
 7771TIP3    H223278   4.603   4.033   5.045  2.1102 -0.9028 -0.9423
 7772TIP3   OH223279   6.954   5.003   2.923  0.0797 -0.0568 -0.0163
 7772TIP3    H123280   6.919   5.033   3.007 -0.1198  1.2415 -0.5365
 7772TIP3    H223281   6.880   4.960   2.880 -0.7254  1.9586 -0.7685
 7773TIP3   OH223282   5.726   2.758   5.029  0.2824  0.2848  0.1904
 7773TIP3    H123283   5.755   2.735   5.117 -0.3616  1.0098  0.6067
 7773TIP3    H223284   5.756   2.686   4.974  0.1425 -0.5002  1.1141
 7774TIP3   OH223285   6.800   0.968   1.573  0.5028 -0.3203  0.1245
 7774TIP3    H123286   6.809   0.949   1.666  1.9004 -0.4239 -0.0074
 7774TIP3    H223287   6.828   1.059   1.565  1.6360 -0.6923 -0.3528
 7775TIP3   OH223288   4.550   6.588   4.289 -0.6913 -1.0224 -0.4525
 7775TIP3    H123289   4.563   6.537   4.209  0.2566 -1.3235 -0.1120
 7775TIP3    H223290   4.460   6.619   4.282 -0.1346  0.3216 -2.4142
 7776TIP3   OH223291   4.779   4.929   0.627 -0.6066 -0.0967 -0.1942
 7776TIP3    H123292   4.751   4.932   0.536 -1.5028 -0.9839  0.0255
 7776TIP3    H223293   4.752   5.012   0.665  2.0151  1.3857 -1.3015
 7777TIP3   OH223294   6.329   3.499   4.943 -0.5295  0.5976 -0.1029
 7777TIP3    H123295   6.385   3.537   4.875 -0.5693  0.8614  0.0111
 7777TIP3    H223296   6.240   3.522   4.916 -0.6164 -0.1706 -0.5013
 7778TIP3   OH223297   6.676   5.034   1.421 -0.4792 -0.2699 -0.0502
 7778TIP3    H123298   6.656   5.119   1.382  0.5874 -0.4817 -1.1057
 7778TIP3    H223299   6.719   5.055   1.503 -0.2973  0.2067 -0.2659
 7779TIP3   OH223300   6.274   6.570   3.125  0.7168 -0.6033 -0.0824
 7779TIP3    H123301   6.316   6.528   3.051 -0.0036 -1.6861  0.0972
 7779TIP3    H223302   6.346   6.608   3.176  1.4586 -2.1532  0.0724
 7780TIP3   OH223303   2.087   2.578   3.214 -0.0437  0.1500  0.2380
 7780TIP3    H123304   2.004   2.595   3.169 -1.6458  0.2026  2.9600
 7780TIP3    H223305   2.116   2.664   3.244  0.2126 -0.0379  0.5333
 7781TIP3   OH223306   4.660   3.594   1.519  0.7708 -0.5022 -0.1460
 7781TIP3    H123307   4.609   3.592   1.438  1.1160 -0.9835 -0.3591
 7781TIP3    H223308   4.716   3.516   1.513 -0.7944 -1.8547  1.5762
 7782TIP3   OH223309   6.228   3.429   0.675  0.3156 -0.2057  0.1063
 7782TIP3    H123310   6.191   3.439   0.763  0.5780 -0.3770  0.2360
 7782TIP3    H223311   6.174   3.361   0.635 -0.0306  0.1250  0.0107
 7783TIP3   OH223312   4.858   6.232   4.075 -0.3262 -0.1802 -0.0921
 7783TIP3    H123313   4.818   6.289   4.010 -1.1540  0.7912  1.2247
 7783TIP3    H223314   4.854   6.145   4.036  1.8874  0.7217 -2.5932
 7784TIP3   OH223315   2.769   0.912   2.668  0.0942  0.3263  0.4110
 7784TIP3    H123316   2.766   1.004   2.693  1.7794  0.1721  1.3215
 7784TIP3    H223317   2.677   0.888   2.655 -0.3910  2.0644  0.3512
 7785TIP3   OH223318   1.932   6.174   1.992  0.6275  0.2412  0.2274
 7785TIP3    H123319   1.917   6.256   2.039 -0.3658  1.3651 -1.9301
 7785TIP3    H223320   2.022   6.181   1.960  0.0284  1.2523 -1.3096
 7786TIP3   OH223321   1.239   4.969   2.329 -0.1281  0.6431  0.0378
 7786TIP3    H123322   1.288   4.899   2.287  1.2285  0.6748  1.4708
 7786TIP3    H223323   1.301   5.008   2.390 -1.5459  1.6019  0.9277
 7787TIP3   OH223324   4.030   4.852   1.911  0.5723 -0.3619 -0.0206
 7787TIP3    H123325   4.034   4.757   1.898  0.6821 -0.3673  0.0524
 7787TIP3    H223326   4.120   4.882   1.899  0.5118 -0.2467 -0.1915
 7788TIP3   OH223327   2.445   5.543   3.213  0.2180 -0.0435  0.2297
 7788TIP3    H123328   2.400   5.486   3.152 -0.4024  1.2971 -0.6038
 7788TIP3    H223329   2.473   5.618   3.160  1.2726  0.3076  1.2280
 7789TIP3   OH223330   3.345   6.125   2.143 -0.0518 -0.2289 -0.0445
 7789TIP3    H123331   3.335   6.214   2.177 -3.6143  0.7016 -2.8481
 7789TIP3    H223332   3.269   6.078   2.176 -0.8900 -0.7028 -2.4283
 7790TIP3   OH223333   1.067   1.372   2.929  0.3606 -0.2192 -0.4868
 7790TIP3    H123334   1.079   1.445   2.991  1.7027 -0.9207  0.1347
 7790TIP3    H223335   0.998   1.402   2.870 -0.0125  1.0308  0.5290
 7791TIP3   OH223336   2.580   6.498   3.595 -0.1662  0.3932  0.0719
 7791TIP3    H123337   2.675   6.491   3.598 -0.1924 -2.1977 -1.9191
 7791TIP3    H223338   2.562   6.565   3.529  0.2173  1.1438  0.7061
 7792TIP3   OH223339   4.894   4.776   1.867 -0.2615  0.6084  0.2414
 7792TIP3    H123340   4.950   4.725   1.808  0.2987  1.1906  0.2535
 7792TIP3    H223341   4.928   4.757   1.955 -1.1222 -0.2911  0.3854
 7793TIP3   OH223342   4.621   2.053   3.564 -0.6437  0.4796  0.0138
 7793TIP3    H123343   4.588   2.133   3.525 -0.3522  1.6339  2.0111
 7793TIP3    H223344   4.543   2.003   3.588 -0.8318 -0.4568 -2.2944
 7794TIP3   OH223345   1.323   6.204   2.983  0.0380  0.5837 -0.2669
 7794TIP3    H123346   1.357   6.117   2.960 -1.2920 -0.3757  1.1840
 7794TIP3    H223347   1.378   6.232   3.056  0.8976  1.2890 -1.1650
 7795TIP3   OH223348   0.844   2.408   1.906 -0.1696  0.3867 -0.1790
 7795TIP3    H123349   0.861   2.478   1.969  0.2760 -0.5173  0.7198
 7795TIP3    H223350   0.913   2.344   1.922 -1.5281 -1.0464  0.1694
 7796TIP3   OH223351   6.252   2.568   5.838 -0.3838  0.0590 -0.0263
 7796TIP3    H123352   6.247   2.584   5.933  0.7930  0.6889 -0.0603
 7796TIP3    H223353   6.245   2.473   5.830  2.6160 -0.3490  0.9665
 7797TIP3   OH223354   0.408   5.613   3.343 -0.0763 -0.3222  0.0867
 7797TIP3    H123355   0.434   5.636   3.432 -2.8711  1.2521  0.6061
 7797TIP3    H223356   0.362   5.529   3.352 -0.1907 -0.2568  0.1213
 7798TIP3   OH223357   5.044   0.265   2.239  0.3009 -0.1758 -0.0883
 7798TIP3    H123358   4.953   0.237   2.230 -0.1712  0.5988  1.8535
 7798TIP3    H223359   5.072   0.232   2.324  0.6850  2.4785  0.9244
 7799TIP3   OH223360   3.041   1.394   1.023  0.5681  0.5327 -0.5484
 7799TIP3    H123361   3.098   1.471   1.020  1.6349 -0.1583  0.8861
 7799TIP3    H223362   2.957   1.427   1.054  1.3043  0.9988  1.0488
 7800TIP3   OH223363   2.215   4.714   1.428  0.0151 -0.5806 -0.1000
 7800TIP3    H123364   2.203   4.801   1.391 -0.2254 -1.1941 -1.5358
 7800TIP3    H223365   2.129   4.673   1.421  0.0255 -0.8041  0.9498
 7801TIP3   OH223366   2.741   5.375   1.805 -0.3575  0.2674 -0.2951
 7801TIP3    H123367   2.824   5.409   1.837 -0.9107 -1.5496  3.6337
 7801TIP3    H223368   2.681   5.449   1.811 -0.1711  0.2945  2.1411
 7802TIP3   OH223369   5.790   3.884   4.546  0.3886 -0.4691 -0.1183
 7802TIP3    H123370   5.780   3.806   4.491  0.7119  0.5359 -1.6423
 7802TIP3    H223371   5.710   3.935   4.530 -0.2209 -0.8471  1.5235
 7803TIP3   OH223372   3.778   1.736   1.226 -0.2351 -0.0698 -0.2503
 7803TIP3    H123373   3.851   1.766   1.280 -0.8555 -0.7230  0.9994
 7803TIP3    H223374   3.812   1.658   1.181 -0.1585 -0.3532  0.3001
 7804TIP3   OH223375   4.802   2.293   5.803  0.3118  0.4391  0.1261
 7804TIP3    H123376   4.742   2.277   5.876  0.5150 -0.4469  0.1103
 7804TIP3    H223377   4.765   2.369   5.758 -0.2258  0.5387  0.7132
 7805TIP3   OH223378   6.889   0.038   0.959 -0.2840  0.1310 -0.1889
 7805TIP3    H123379   6.930   0.102   0.902 -0.3143  2.3748  2.1296
 7805TIP3    H223380   6.797   0.038   0.933 -0.2120  0.7445 -0.4459
 7806TIP3   OH223381   5.548   4.594   1.869 -0.0777 -0.1763  0.1182
 7806TIP3    H123382   5.544   4.674   1.817 -0.2567 -1.0621 -1.2823
 7806TIP3    H223383   5.457   4.576   1.894 -0.0789 -0.1345  0.1444
 7807TIP3   OH223384   2.180   6.593   3.986 -0.0310  0.3713  0.5600
 7807TIP3    H123385   2.089   6.605   4.013 -0.3539  1.0058 -0.7249
 7807TIP3    H223386   2.204   6.675   3.942  0.6004 -0.3983 -0.6121
 7808TIP3   OH223387   4.851   0.922   5.913  0.2249 -0.5959 -1.0715
 7808TIP3    H123388   4.859   0.864   5.837 -2.1113  0.2903 -2.0764
 7808TIP3    H223389   4.823   1.006   5.876 -1.6141 -0.3192  0.7874
 7809TIP3   OH223390   4.349   0.923   5.375 -0.2285 -0.2242 -0.4393
 7809TIP3    H123391   4.343   1.018   5.380  1.2596 -0.0993 -0.8136
 7809TIP3    H223392   4.373   0.905   5.284  0.2630 -0.9080 -0.1831
 7810TIP3   OH223393   6.838   6.518   1.876 -0.3486  0.0644 -0.0943
 7810TIP3    H123394   6.769   6.580   1.852 -1.7262 -0.9719  0.9777
 7810TIP3    H223395   6.807   6.434   1.844  0.5275 -0.3953  0.2364
 7811TIP3   OH223396   0.675   3.317   3.762  0.0414 -0.7109  0.0405
 7811TIP3    H123397   0.607   3.332   3.827 -1.7179  0.3128 -1.9083
 7811TIP3    H223398   0.698   3.404   3.730  1.3101 -1.1393 -0.3011
 7812TIP3   OH223399   3.774   0.197   2.664  0.4280  0.1145  0.6117
 7812TIP3    H123400   3.781   0.285   2.701  0.8617 -0.6409  2.4522
 7812TIP3    H223401   3.864   0.163   2.666  0.2043 -0.5090  0.2881
 7813TIP3   OH223402   3.576   6.669   4.245 -0.3834  0.1747 -0.6845
 7813TIP3    H123403   3.657   6.661   4.194 -1.2010 -0.6992 -1.9195
 7813TIP3    H223404   3.569   6.763   4.264  0.8164  0.2834 -0.7126
 7814TIP3   OH223405   6.305   1.710   0.624  0.0346  0.3204  0.1519
 7814TIP3    H123406   6.293   1.802   0.648  0.3531  0.2233  0.7088
 7814TIP3    H223407   6.250   1.698   0.546  1.3513  1.4218 -0.9881
 7815TIP3   OH223408   0.776   2.286   3.545 -0.3181  0.0067 -0.3268
 7815TIP3    H123409   0.807   2.228   3.475  1.1082  0.5670 -0.1836
 7815TIP3    H223410   0.855   2.325   3.581 -0.7467 -1.8777  3.0874
 7816TIP3   OH223411   1.703   0.720   3.679  0.0770 -0.2775  0.1837
 7816TIP3    H123412   1.688   0.717   3.773  1.0029 -1.2699  0.3136
 7816TIP3    H223413   1.676   0.809   3.653  0.0884  0.0996  1.4186
 7817TIP3   OH223414   2.462   5.664   4.425 -0.3603  0.2333  0.5228
 7817TIP3    H123415   2.490   5.632   4.511 -1.1704  0.7422  0.9885
 7817TIP3    H223416   2.512   5.745   4.412 -1.7313  1.2927  1.4802
 7818TIP3   OH223417   0.708   3.360   1.328  0.0705  0.5085 -0.8599
 7818TIP3    H123418   0.782   3.419   1.317 -0.1394  0.8332 -0.5402
 7818TIP3    H223419   0.654   3.400   1.396 -0.3407  0.2178 -1.0061
 7819TIP3   OH223420   3.256   0.300   4.929 -0.1677  0.0130  0.5857
 7819TIP3    H123421   3.331   0.344   4.969 -0.2169 -0.2790  1.0049
 7819TIP3    H223422   3.201   0.274   5.003  0.1702 -1.3217  0.3898
 7820TIP3   OH223423   1.345   3.339   0.246 -0.0532 -0.1163  0.0762
 7820TIP3    H123424   1.311   3.416   0.199 -0.9751 -0.0620  0.8033
 7820TIP3    H223425   1.315   3.351   0.336 -1.3845 -1.9780 -0.0680
 7821TIP3   OH223426   4.003   4.530   1.351 -0.2070  0.3502  0.4790
 7821TIP3    H123427   3.911   4.526   1.376 -0.3492  0.3775 -0.0171
 7821TIP3    H223428   4.037   4.609   1.393 -0.6767  0.9082 -0.1643
 7822TIP3   OH223429   5.120   1.830   2.212  0.1226 -0.1966 -0.0750
 7822TIP3    H123430   5.129   1.869   2.299 -0.4176  0.0761 -0.1423
 7822TIP3    H223431   5.057   1.886   2.167  1.1858  0.2809 -1.0017
 7823TIP3   OH223432   6.830   4.223   2.984 -0.5134  0.0087 -0.6286
 7823TIP3    H123433   6.924   4.234   2.974 -0.4806 -0.6877 -1.1288
 7823TIP3    H223434   6.802   4.302   3.032  0.1153  0.8861 -1.6548
 7824TIP3   OH223435   1.191   6.309   2.103  0.7000  0.6205  0.1194
 7824TIP3    H123436   1.261   6.342   2.160 -0.3536  0.6827  1.4254
 7824TIP3    H223437   1.146   6.388   2.072  1.4292  0.5993 -1.0428
 7825TIP3   OH223438   6.955   3.222   1.169  0.2737  0.1999  0.3967
 7825TIP3    H123439   6.918   3.208   1.256 -1.0407 -0.3122 -0.2103
 7825TIP3    H223440   7.027   3.283   1.183 -1.6110  2.3255  1.5278
 7826TIP3   OH223441   6.082   5.309   3.853 -0.5061 -0.0042  0.5365
 7826TIP3    H123442   6.120   5.332   3.768 -2.5471  0.7471 -0.2221
 7826TIP3    H223443   6.049   5.220   3.841 -1.0030  0.1894  0.4650
 7827TIP3   OH223444   1.611   6.634   0.047  0.0221  0.4151  0.3670
 7827TIP3    H123445   1.518   6.654   0.053 -0.1228 -0.6913  3.2734
 7827TIP3    H223446   1.643   6.690  -0.024 -2.7377  1.1677 -0.3866
 7828TIP3   OH223447   6.255   1.972   3.554 -0.2042 -0.8073  0.3235
 7828TIP3    H123448   6.212   2.005   3.633  1.3977 -1.4810  1.5270
 7828TIP3    H223449   6.212   1.888   3.537  1.1594 -1.9200  2.0587
 7829TIP3   OH223450   3.751   4.833   4.169 -0.0148 -0.0424  0.6175
 7829TIP3    H123451   3.782   4.887   4.096  1.0820 -0.6397  0.6271
 7829TIP3    H223452   3.679   4.884   4.206  0.1462  0.8048 -0.1789
 7830TIP3   OH223453   3.913   4.046   5.792  0.3176  0.1795 -0.2563
 7830TIP3    H123454   3.848   4.110   5.820 -0.1340 -0.5583  0.4411
 7830TIP3    H223455   3.892   4.028   5.701  0.9479  1.5992 -0.7154
 7831TIP3   OH223456   3.771   0.246   3.814  0.0335 -0.4894  0.0192
 7831TIP3    H123457   3.781   0.338   3.791 -0.5020 -0.0320  1.5026
 7831TIP3    H223458   3.707   0.246   3.885 -0.4912 -2.0806 -0.4144
 7832TIP3   OH223459   1.729   3.124   4.653  0.4607 -0.2492  0.3634
 7832TIP3    H123460   1.820   3.132   4.623  0.4104 -0.9515  0.0106
 7832TIP3    H223461   1.709   3.031   4.643  0.0918 -0.3134  1.5921
 7833TIP3   OH223462   1.029   2.864   4.655 -0.1203  0.3745 -0.4859
 7833TIP3    H123463   0.947   2.881   4.700  0.3716  0.8226  0.2576
 7833TIP3    H223464   1.097   2.891   4.717  0.6878 -2.3145 -0.0468
 7834TIP3   OH223465   0.847   1.655   5.065 -0.1551  0.0379  0.3853
 7834TIP3    H123466   0.891   1.731   5.102 -0.2506 -1.4885  4.1350
 7834TIP3    H223467   0.918   1.592   5.050 -0.2040  0.3964 -1.7280
 7835TIP3   OH223468   2.407   5.504   5.874 -0.3024 -0.0682 -0.3338
 7835TIP3    H123469   2.330   5.489   5.929  0.6873 -1.8191  0.7035
 7835TIP3    H223470   2.381   5.477   5.787 -0.8558 -0.6981  0.0195
 7836TIP3   OH223471   2.518   6.014   5.367 -0.3925  0.0264 -0.1793
 7836TIP3    H123472   2.442   6.063   5.335 -1.9096 -1.2076  1.3370
 7836TIP3    H223473   2.546   5.961   5.292 -0.4992  1.1141 -0.9998
 7837TIP3   OH223474   6.616   5.308   4.877  0.7166  0.3629 -0.5915
 7837TIP3    H123475   6.598   5.242   4.810 -2.1995 -0.7450  1.0905
 7837TIP3    H223476   6.548   5.374   4.865 -0.8215 -0.5922  2.0287
 7838TIP3   OH223477   3.957   5.478   4.985 -0.9350 -0.2435 -0.9051
 7838TIP3    H123478   3.951   5.565   4.944 -0.5805  0.7472  1.0258
 7838TIP3    H223479   4.045   5.474   5.020 -1.9280 -0.0113  1.8194
 7839TIP3   OH223480   4.222   1.367   3.201  0.5800  0.0912  0.2405
 7839TIP3    H123481   4.247   1.457   3.181  0.9229  0.1409  0.8809
 7839TIP3    H223482   4.187   1.371   3.290  0.7078 -0.4289  0.3190
 7840TIP3   OH223483   2.073   3.620   2.422  1.0001 -0.6577 -0.1146
 7840TIP3    H123484   2.075   3.571   2.340  0.6542  0.6549 -0.9474
 7840TIP3    H223485   2.030   3.562   2.484 -0.1593 -1.0838 -1.2840
 7841TIP3   OH223486   1.822   6.170   4.296  0.1753  0.4769  0.0978
 7841TIP3    H123487   1.777   6.249   4.267 -0.2997  0.7150  1.4197
 7841TIP3    H223488   1.761   6.099   4.276  0.5965  0.4299 -1.0767
 7842TIP3   OH223489   0.826   2.487   0.489 -0.1944  0.0236 -0.4466
 7842TIP3    H123490   0.827   2.530   0.404 -2.1072 -0.5534 -0.8005
 7842TIP3    H223491   0.736   2.456   0.500  0.3520 -1.1472  1.1710
 7843TIP3   OH223492   4.160   4.064   3.351 -0.1744 -0.3091 -0.0146
 7843TIP3    H123493   4.114   4.074   3.267 -0.6300 -0.5059  0.2108
 7843TIP3    H223494   4.136   3.977   3.382 -1.3669  0.4046  1.1373
 7844TIP3   OH223495   0.733   2.292   4.918 -0.8594 -0.1841 -0.1493
 7844TIP3    H123496   0.797   2.280   4.988 -1.6605  1.4068  0.9331
 7844TIP3    H223497   0.784   2.324   4.843 -0.2051 -0.3712  0.2108
 7845TIP3   OH223498   5.432   1.979   2.157  0.2459 -0.0716 -0.2954
 7845TIP3    H123499   5.463   2.040   2.225  1.0150  0.0157 -0.7223
 7845TIP3    H223500   5.399   2.036   2.088 -0.4812 -0.1608 -0.0318
 7846TIP3   OH223501   1.392   5.289   4.912  0.1975 -0.2403  0.3131
 7846TIP3    H123502   1.429   5.266   4.997 -1.7227 -1.5420  0.8544
 7846TIP3    H223503   1.396   5.208   4.861  1.0536  0.4503 -0.7673
 7847TIP3   OH223504   5.130   0.246   1.329  0.2053  0.2199 -0.1617
 7847TIP3    H123505   5.074   0.280   1.259  1.5708  1.9731 -0.4711
 7847TIP3    H223506   5.177   0.173   1.289  0.6532  0.9346 -0.9867
 7848TIP3   OH223507   0.107   1.801   1.266  0.2654  0.6238  0.3320
 7848TIP3    H123508   0.023   1.842   1.248 -1.0965 -2.6698 -1.6264
 7848TIP3    H223509   0.164   1.827   1.193 -0.2407 -0.0335 -0.3077
 7849TIP3   OH223510   1.279   0.731   5.180  0.4065 -0.0377  0.8982
 7849TIP3    H123511   1.317   0.650   5.149  0.2068  0.2553 -0.1359
 7849TIP3    H223512   1.312   0.741   5.270 -0.7714 -2.0317  1.6059
 7850TIP3   OH223513   2.736   0.648   5.207  0.1548 -0.0647 -0.1983
 7850TIP3    H123514   2.794   0.695   5.147  0.7371  0.2991  0.6372
 7850TIP3    H223515   2.697   0.717   5.261  1.1222 -0.5364  1.1413
 7851TIP3   OH223516   4.168   5.562   2.335  0.0967 -0.2548  0.3953
 7851TIP3    H123517   4.212   5.600   2.411  0.3612 -0.7838  0.5113
 7851TIP3    H223518   4.077   5.590   2.343  0.3163  0.4610  0.4055
 7852TIP3   OH223519   5.485   5.707   3.186 -0.2704  0.3591 -0.2226
 7852TIP3    H123520   5.553   5.639   3.184 -0.9082 -0.2750 -1.1192
 7852TIP3    H223521   5.534   5.789   3.182  0.6710  0.1171  3.1162
 7853TIP3   OH223522   3.883   1.393   5.058 -0.1706  0.0705 -0.3583
 7853TIP3    H123523   3.878   1.327   4.989  0.1511 -1.4509  1.0082
 7853TIP3    H223524   3.864   1.476   5.014 -1.5362 -1.0309 -1.9672
 7854TIP3   OH223525   1.885   6.751   3.063 -0.3730 -0.2583  0.1265
 7854TIP3    H123526   1.826   6.731   3.135 -0.8782 -1.1551 -0.5176
 7854TIP3    H223527   1.972   6.748   3.102 -0.6960  0.4499  0.9444
 7855TIP3   OH223528   6.949   1.560   0.615  0.6553  0.0775 -0.0821
 7855TIP3    H123529   6.927   1.471   0.588 -0.5703  0.6049 -0.8912
 7855TIP3    H223530   7.006   1.549   0.692 -1.5542 -1.4031  1.4372
 7856TIP3   OH223531   6.087   0.599   4.872 -0.0884 -0.1545 -0.4244
 7856TIP3    H123532   6.147   0.525   4.885 -2.4184 -1.8174  2.0618
 7856TIP3    H223533   6.137   0.676   4.897  1.4626 -1.2617  0.0372
 7857TIP3   OH223534   2.097   4.101   0.708  0.1378  0.7144 -0.1116
 7857TIP3    H123535   2.102   4.008   0.684  3.3901  0.9839 -0.8626
 7857TIP3    H223536   2.131   4.147   0.631  0.1979  2.4312  0.9049
 7858TIP3   OH223537   0.734   1.351   4.949 -0.3568 -0.1413 -0.1413
 7858TIP3    H123538   0.712   1.366   5.041 -0.1946  0.5167 -0.2056
 7858TIP3    H223539   0.695   1.424   4.902  1.5049  0.8032 -0.3167
 7859TIP3   OH223540   2.453   0.340   1.977 -0.2734  0.6368 -0.1984
 7859TIP3    H123541   2.441   0.261   2.031  0.4666  0.5086 -0.2061
 7859TIP3    H223542   2.535   0.378   2.010  1.9073 -1.0549 -3.1474
 7860TIP3   OH223543   3.548   4.470   0.665 -0.2448 -0.2600  0.5239
 7860TIP3    H123544   3.514   4.518   0.589  1.9601 -0.0372 -0.3820
 7860TIP3    H223545   3.489   4.494   0.736 -2.7999 -0.9514 -1.1658
 7861TIP3   OH223546   2.936   4.519   2.618  0.5405  0.7364 -0.2750
 7861TIP3    H123547   2.994   4.465   2.671  0.3882  0.3850 -0.4686
 7861TIP3    H223548   2.995   4.577   2.570  0.7946 -0.2768 -1.2112
 7862TIP3   OH223549   0.902   0.038   0.337 -0.3221 -0.1539  0.0518
 7862TIP3    H123550   0.906   0.021   0.243  3.3200 -0.3465  0.0935
 7862TIP3    H223551   0.972   0.101   0.352  0.1083 -1.1659  2.8027
 7863TIP3   OH223552   3.547   4.907   2.626 -0.1254  0.1205  0.3001
 7863TIP3    H123553   3.572   4.992   2.661  1.2897  0.2704 -0.9791
 7863TIP3    H223554   3.453   4.915   2.606  0.0896  1.5238 -0.2120
 7864TIP3   OH223555   6.001   3.876   0.146  0.1004  0.2737 -0.1665
 7864TIP3    H123556   6.068   3.817   0.183 -1.0814 -1.1039 -0.1320
 7864TIP3    H223557   5.981   3.937   0.216  0.2395 -0.2665  0.3532
 7865TIP3   OH223558   5.949   0.396   5.294  0.1184 -0.5026 -0.3328
 7865TIP3    H123559   5.941   0.354   5.380  1.2363  0.5654  0.3416
 7865TIP3    H223560   5.959   0.489   5.315 -0.2575 -0.1453 -1.6733
 7866TIP3   OH223561   2.827   0.431   4.427  0.2307 -0.0867  0.8686
 7866TIP3    H123562   2.866   0.346   4.405 -2.3621 -1.5556  1.5798
 7866TIP3    H223563   2.886   0.468   4.492  1.3520 -1.3810  0.6353
 7867TIP3   OH223564   4.340   4.330   2.386  0.4076  0.5226 -0.1687
 7867TIP3    H123565   4.268   4.320   2.449 -0.4839 -1.0018 -1.3515
 7867TIP3    H223566   4.319   4.412   2.340 -0.3804  0.2827 -0.2597
 7868TIP3   OH223567   0.667   4.509   4.144  0.6058 -0.7903 -0.3283
 7868TIP3    H123568   0.690   4.597   4.171  1.0901 -1.0274  0.0343
 7868TIP3    H223569   0.747   4.458   4.153  0.0600 -1.5347  0.5889
 7869TIP3   OH223570   4.823   1.319   3.303 -0.3643 -0.2625 -0.1763
 7869TIP3    H123571   4.738   1.363   3.306 -3.0674 -4.8447  0.0346
 7869TIP3    H223572   4.839   1.303   3.210 -1.3077 -1.8653 -0.1014
 7870TIP3   OH223573   1.315   2.531   0.084 -0.5800 -0.2513 -0.4107
 7870TIP3    H123574   1.369   2.491   0.152 -0.2124  2.9708  1.4224
 7870TIP3    H223575   1.377   2.551   0.013 -0.1587 -0.0708  0.0041
 7871TIP3   OH223576   0.925   4.098   3.954  0.0070  0.0523 -0.5494
 7871TIP3    H123577   0.841   4.087   3.909  0.5228  1.5635 -1.9830
 7871TIP3    H223578   0.991   4.077   3.889  0.7652  1.8947 -0.4537
 7872TIP3   OH223579   1.292   6.233   2.682  0.2003  0.1531  0.1254
 7872TIP3    H123580   1.227   6.250   2.750  0.3374  0.7585  0.1072
 7872TIP3    H223581   1.240   6.218   2.602  0.0922  0.9512  0.0429
 7873TIP3   OH223582   4.239   0.747   1.109 -0.4064  0.5630  0.0815
 7873TIP3    H123583   4.222   0.658   1.079  0.9133  0.7746 -1.3754
 7873TIP3    H223584   4.230   0.742   1.205 -1.5468 -0.8329 -0.0670
 7874TIP3   OH223585   5.921   0.146   2.467  0.1504 -0.1076 -0.0705
 7874TIP3    H123586   5.850   0.126   2.405 -0.1980  1.4588 -0.2390
 7874TIP3    H223587   5.882   0.135   2.553 -1.2792  3.3705 -0.0965
 7875TIP3   OH223588   5.282   2.742   5.026 -0.2448  0.0983  0.1295
 7875TIP3    H123589   5.277   2.668   5.087 -0.0523  0.4616  0.5883
 7875TIP3    H223590   5.251   2.817   5.076  0.1973  0.4577 -0.1265
 7876TIP3   OH223591   0.451   0.584   4.306  0.4608  0.5457  0.2432
 7876TIP3    H123592   0.523   0.546   4.356  1.0945  1.0633 -0.2526
 7876TIP3    H223593   0.493   0.650   4.250 -0.4612  1.2059  0.3034
 7877TIP3   OH223594   4.169   2.487   0.432 -0.6568  0.2651 -0.0652
 7877TIP3    H123595   4.101   2.530   0.380 -0.2674  0.6805 -0.2385
 7877TIP3    H223596   4.229   2.449   0.367 -1.3977 -1.2167  0.0749
 7878TIP3   OH223597   4.224   5.911   2.388 -0.0743 -0.8101 -0.1177
 7878TIP3    H123598   4.250   5.839   2.446  0.3033 -0.6937 -0.1435
 7878TIP3    H223599   4.303   5.963   2.377 -0.3680 -0.3352 -0.0239
 7879TIP3   OH223600   2.831   3.558   3.976 -0.5539 -0.7474  0.3500
 7879TIP3    H123601   2.873   3.541   4.060  2.4943 -0.5181 -1.0028
 7879TIP3    H223602   2.844   3.652   3.962  0.1261 -1.0018 -0.9008
 7880TIP3   OH223603   1.934   2.090   2.066  0.4613 -0.3420  0.5421
 7880TIP3    H123604   1.961   2.134   2.147  1.3649  0.1787 -0.0295
 7880TIP3    H223605   1.850   2.130   2.044  0.8145  0.4321  0.5526
 7881TIP3   OH223606   6.297   5.644   0.399  0.9362  0.3957  0.4441
 7881TIP3    H123607   6.256   5.614   0.318 -0.6897 -0.9894  1.7327
 7881TIP3    H223608   6.384   5.675   0.371  0.7454 -0.8060 -1.6914
 7882TIP3   OH223609   1.350   6.431   3.400 -0.5850 -0.3029 -0.0986
 7882TIP3    H123610   1.359   6.522   3.372 -0.9765 -0.0871  0.4577
 7882TIP3    H223611   1.276   6.432   3.461 -0.0231 -0.8308  0.6138
 7883TIP3   OH223612   2.307   0.892   1.194 -0.1202 -0.2716  0.6430
 7883TIP3    H123613   2.377   0.913   1.132 -0.2967  1.9293  1.0947
 7883TIP3    H223614   2.227   0.898   1.142 -0.1980  0.6890  0.8438
 7884TIP3   OH223615   4.736   3.400   4.883 -0.5796  0.3009  0.8176
 7884TIP3    H123616   4.673   3.335   4.850 -0.4956  0.6645 -0.1017
 7884TIP3    H223617   4.682   3.470   4.919 -0.7918  1.3793 -1.4358
 7885TIP3   OH223618   1.161   4.854   5.508 -0.2717 -0.1563 -0.2437
 7885TIP3    H123619   1.255   4.846   5.494 -0.4089 -3.8085 -0.1961
 7885TIP3    H223620   1.122   4.811   5.432 -1.9933  1.9432 -0.6271
 7886TIP3   OH223621   1.897   4.787   0.085 -0.3424 -0.4319  0.0786
 7886TIP3    H123622   1.921   4.772   0.176  1.5977 -0.1732 -0.3416
 7886TIP3    H223623   1.843   4.712   0.061 -1.6875 -0.0316  1.6780
 7887TIP3   OH223624   0.516   0.365   1.989 -0.2159 -0.6698  0.1707
 7887TIP3    H123625   0.552   0.386   1.903 -0.7061 -1.3289 -0.2066
 7887TIP3    H223626   0.554   0.430   2.047  1.2360 -1.0573 -0.2902
 7888TIP3   OH223627   1.749   1.826   5.570  0.4709  0.1871  0.3856
 7888TIP3    H123628   1.752   1.914   5.531  1.5693  0.4902  1.0985
 7888TIP3    H223629   1.706   1.839   5.655 -2.1599 -0.5143 -0.7703
 7889TIP3   OH223630   0.642   4.708   1.309 -0.4561 -0.0261  0.6701
 7889TIP3    H123631   0.575   4.729   1.243 -0.0888  2.5662  1.0179
 7889TIP3    H223632   0.699   4.645   1.265 -1.6587 -0.3043 -0.5692
 7890TIP3   OH223633   2.343   3.753   0.204  0.3115  0.4026  0.1680
 7890TIP3    H123634   2.374   3.812   0.273 -0.6802  1.3048 -0.1402
 7890TIP3    H223635   2.392   3.780   0.127  0.3410  0.3785  0.1781
 7891TIP3   OH223636   1.816   3.116   1.041  0.3035  0.1731  0.1620
 7891TIP3    H123637   1.753   3.132   1.112  1.6048  0.2491  1.3529
 7891TIP3    H223638   1.772   3.053   0.984  0.1023 -1.8720  2.3707
 7892TIP3   OH223639   5.818   1.307   4.243 -0.2965  0.0575  0.2243
 7892TIP3    H123640   5.890   1.298   4.181 -0.4579 -1.8737  0.2581
 7892TIP3    H223641   5.821   1.399   4.269  2.8856 -0.1539  1.0920
 7893TIP3   OH223642   2.932   0.640   2.166  0.0387 -0.6140  0.0763
 7893TIP3    H123643   2.968   0.672   2.083 -1.4297  1.3726  0.1460
 7893TIP3    H223644   2.996   0.665   2.232  0.7976 -1.4263 -0.3362
 7894TIP3   OH223645   5.423   0.539   0.235  0.1894  0.1383 -0.2633
 7894TIP3    H123646   5.477   0.527   0.313 -0.7184  1.3907  0.6033
 7894TIP3    H223647   5.466   0.611   0.187  0.5944 -0.4492 -0.8017
 7895TIP3   OH223648   0.321   2.532   2.382 -0.0982  0.3318 -0.4036
 7895TIP3    H123649   0.393   2.594   2.393  1.3881 -1.3204 -0.3847
 7895TIP3    H223650   0.363   2.451   2.353 -1.6784 -1.3418  1.6263
 7896TIP3   OH223651   4.885   1.928   2.093 -0.0374  0.0659  0.1637
 7896TIP3    H123652   4.810   1.869   2.104  0.4567 -0.4551  0.8296
 7896TIP3    H223653   4.857   2.010   2.134 -0.4526  0.0568 -0.0934
 7897TIP3   OH223654   0.334   1.261  -0.002 -0.1478  0.5873 -0.2130
 7897TIP3    H123655   0.398   1.297   0.059 -0.5438  0.8486  0.0495
 7897TIP3    H223656   0.250   1.298   0.026 -0.3751  0.4713 -0.7272
 7898TIP3   OH223657   4.417   3.439   5.395 -0.2524  0.0498  0.1314
 7898TIP3    H123658   4.396   3.429   5.488  1.3314  0.0181  0.5080
 7898TIP3    H223659   4.484   3.507   5.392 -0.2310  0.0002 -0.9838
 7899TIP3   OH223660   4.528   3.046   1.784 -0.0287 -0.4116  0.5596
 7899TIP3    H123661   4.489   3.131   1.800  1.7123  0.4904  0.2755
 7899TIP3    H223662   4.617   3.053   1.819  1.4147 -0.8358 -2.6388
 7900TIP3   OH223663   2.894   5.632   0.844 -0.3387  0.4506  0.5119
 7900TIP3    H123664   2.966   5.572   0.865  1.5071  1.1320 -3.1793
 7900TIP3    H223665   2.835   5.625   0.919  2.3465 -1.9915  2.6162
 7901TIP3   OH223666   3.481   6.631   4.729  0.4759 -0.1143  0.2910
 7901TIP3    H123667   3.464   6.592   4.815 -1.0804 -1.9346 -0.7673
 7901TIP3    H223668   3.524   6.561   4.680  0.9696  0.7616 -0.5571
 7902TIP3   OH223669   3.170   4.043   5.850  0.4625 -0.4199  0.1787
 7902TIP3    H123670   3.077   4.066   5.856  0.2026 -1.4107 -0.0079
 7902TIP3    H223671   3.203   4.055   5.939 -0.3168 -2.0256  0.7044
 7903TIP3   OH223672   5.040   4.655   4.948  0.4679  0.0729 -0.0091
 7903TIP3    H123673   5.049   4.568   4.910 -4.1722  1.0195 -4.3431
 7903TIP3    H223674   5.120   4.702   4.923  1.6325 -2.0135 -0.3680
 7904TIP3   OH223675   7.086   4.149   0.551  0.0319 -0.0266 -0.5218
 7904TIP3    H123676   7.150   4.126   0.618 -1.4540  1.2295  1.4287
 7904TIP3    H223677   7.046   4.066   0.526 -1.7964 -0.2908  2.7629
 7905TIP3   OH223678   6.088   5.726   2.380 -0.0156 -0.3505 -0.3257
 7905TIP3    H123679   6.038   5.756   2.456 -0.2393  0.3818 -0.7560
 7905TIP3    H223680   6.179   5.747   2.401  0.1264 -1.6671  0.4504
 7906TIP3   OH223681   5.426   3.963   3.090  0.3404 -0.2495  0.3735
 7906TIP3    H123682   5.379   3.970   3.173 -1.5221  2.2528 -0.7755
 7906TIP3    H223683   5.455   4.053   3.071  0.8938 -0.7959 -1.5873
 7907TIP3   OH223684   2.587   0.470   2.768  0.1330  0.2931 -0.6415
 7907TIP3    H123685   2.647   0.462   2.693  0.2535 -0.9944 -0.4401
 7907TIP3    H223686   2.628   0.417   2.836 -0.9747 -0.1850 -0.3278
 7908TIP3   OH223687   5.056   4.416   3.041 -0.3755 -0.7165 -0.1921
 7908TIP3    H123688   4.985   4.434   3.102 -1.6769  0.5286 -1.9696
 7908TIP3    H223689   5.130   4.467   3.076 -1.4380  0.9608 -0.2608
 7909TIP3   OH223690   0.206   0.086   5.654 -0.1033  0.4485 -0.0897
 7909TIP3    H123691   0.249   0.093   5.569  0.0211 -1.6676 -0.2535
 7909TIP3    H223692   0.114   0.069   5.633  0.1508 -1.4633  0.0984
 7910TIP3   OH223693   5.122   0.513   5.436 -0.4029  0.1147  0.0244
 7910TIP3    H123694   5.132   0.569   5.513  0.4922  0.8089 -0.5789
 7910TIP3    H223695   5.212   0.493   5.410 -0.6790  0.6113 -1.3584
 7911TIP3   OH223696   1.205   2.793   4.898  0.4785 -0.1519  0.4252
 7911TIP3    H123697   1.150   2.719   4.923  0.1263  0.0135  0.1529
 7911TIP3    H223698   1.250   2.818   4.979 -1.5420  1.1439  1.2518
 7912TIP3   OH223699   6.844   4.062   3.263  0.2751 -0.2794 -0.0713
 7912TIP3    H123700   6.927   4.078   3.219  0.6342 -1.0000  0.3359
 7912TIP3    H223701   6.832   3.967   3.259 -0.0563 -0.2789  0.7202
 7913TIP3   OH223702   3.097   2.814   2.635 -0.1698 -0.3560 -0.4105
 7913TIP3    H123703   3.045   2.769   2.701  1.2416 -0.0244  0.9844
 7913TIP3    H223704   3.063   2.783   2.551 -2.5753 -0.1511  0.4268
 7914TIP3   OH223705   7.069   3.660   5.876  0.6981 -0.0734  0.2078
 7914TIP3    H123706   7.089   3.573   5.841  0.2470 -0.0674 -0.0694
 7914TIP3    H223707   7.042   3.711   5.800  0.4923  0.1701  0.4422
 7915TIP3   OH223708   2.089   1.596   4.500  0.0885 -0.7735  0.1594
 7915TIP3    H123709   2.152   1.525   4.514 -0.3688 -1.5469 -1.5169
 7915TIP3    H223710   2.122   1.669   4.553  3.2975 -0.6135 -1.8448
 7916TIP3   OH223711   4.999   5.665   5.423 -0.5114  0.0852  0.0660
 7916TIP3    H123712   5.093   5.651   5.419 -0.6841 -2.0108  1.4963
 7916TIP3    H223713   4.978   5.713   5.343  1.6512 -0.0214 -0.6261
 7917TIP3   OH223714   5.110   3.755   5.037  0.4836 -0.2388  0.3923
 7917TIP3    H123715   5.146   3.843   5.030  1.1016 -0.4202  1.1064
 7917TIP3    H223716   5.142   3.723   5.121 -0.8689 -0.6305  0.7958
 7918TIP3   OH223717   2.740   4.916   0.259  0.1803 -0.1567 -0.0090
 7918TIP3    H123718   2.689   4.854   0.207  1.8833 -0.7307 -1.1078
 7918TIP3    H223719   2.689   4.929   0.339 -0.8312 -2.0305 -0.2831
 7919TIP3   OH223720   3.399   3.732   1.288 -0.1249 -0.4358  0.3498
 7919TIP3    H123721   3.421   3.823   1.269  0.8933 -0.3458  1.7831
 7919TIP3    H223722   3.361   3.699   1.207 -3.5925  2.1759  0.6606
 7920TIP3   OH223723   0.266   5.639   5.658  0.2571  0.3708  0.7325
 7920TIP3    H123724   0.179   5.645   5.696  0.2468  1.3318  0.6050
 7920TIP3    H223725   0.253   5.662   5.566  0.4051 -1.1055  0.3163
 7921TIP3   OH223726   6.012   4.201   5.426  0.1567  0.6799  0.0601
 7921TIP3    H123727   6.098   4.181   5.463 -0.1376 -2.0265 -0.5141
 7921TIP3    H223728   5.953   4.202   5.502  0.0201 -1.9910  0.0718
 7922TIP3   OH223729   6.005   4.752   5.264  0.0050 -0.0061 -0.0862
 7922TIP3    H123730   6.074   4.719   5.323  1.0149  1.5367 -0.3517
 7922TIP3    H223731   6.012   4.847   5.269 -2.7108  0.2450  0.5273
 7923TIP3   OH223732   1.923   1.808   1.973  0.1021  0.4059  0.3151
 7923TIP3    H123733   1.884   1.725   2.001 -1.7418  0.8033 -0.8770
 7923TIP3    H223734   1.915   1.865   2.049 -1.6529  0.4374  0.1516
 7924TIP3   OH223735   1.630   3.830   4.025 -0.0272  0.0364 -0.4697
 7924TIP3    H123736   1.655   3.855   3.936 -0.4381  1.3521 -0.2429
 7924TIP3    H223737   1.551   3.777   4.014 -1.4407  2.0817 -0.8296
 7925TIP3   OH223738   1.807   5.099   5.362  0.5515 -0.5508 -0.1517
 7925TIP3    H123739   1.762   5.020   5.392 -2.9145  1.3806  0.3929
 7925TIP3    H223740   1.839   5.077   5.275 -3.4773 -1.6780 -1.5806
 7926TIP3   OH223741   6.400   1.884   4.757 -0.0897  0.4129 -0.5898
 7926TIP3    H123742   6.453   1.964   4.761 -0.9472  1.0440 -1.2457
 7926TIP3    H223743   6.326   1.902   4.816  0.3036 -0.3669  0.1515
 7927TIP3   OH223744   6.398   3.330   4.306 -1.0477 -0.0944  1.1237
 7927TIP3    H123745   6.461   3.270   4.265 -2.6429  0.0258 -1.8083
 7927TIP3    H223746   6.448   3.409   4.324 -0.3321  0.1521 -1.5042
 7928TIP3   OH223747   6.315   5.006   3.022  0.0684  0.0631  0.5310
 7928TIP3    H123748   6.378   4.954   2.971  0.1013  0.9235 -0.3333
 7928TIP3    H223749   6.306   4.958   3.104 -0.2993 -1.6005 -0.4267
 7929TIP3   OH223750   4.420   1.643   2.012  0.2828 -0.6482  0.0151
 7929TIP3    H123751   4.379   1.720   1.972  0.5726 -0.9296 -0.8363
 7929TIP3    H223752   4.367   1.625   2.090  0.8266  1.0605  0.8335
 7930TIP3   OH223753   6.179   0.749   4.203  0.4982  0.4411 -0.0028
 7930TIP3    H123754   6.186   0.686   4.131  1.9058  0.1547  0.3470
 7930TIP3    H223755   6.261   0.798   4.201  1.2943 -0.6132  2.3236
 7931TIP3   OH223756   5.966   6.046   1.448  0.0839 -0.5703 -0.5904
 7931TIP3    H123757   5.966   6.068   1.541  2.0150  0.0880 -0.7103
 7931TIP3    H223758   5.965   5.950   1.446 -0.7078 -0.5827  0.0803
 7932TIP3   OH223759   2.954   0.445   1.533 -0.2331 -0.4274  0.4800
 7932TIP3    H123760   2.865   0.412   1.548 -0.4164 -1.0409 -1.6389
 7932TIP3    H223761   3.011   0.383   1.578 -0.7096 -2.3818 -1.4346
 7933TIP3   OH223762   3.947   2.309   4.300 -0.2277  0.3978 -0.5431
 7933TIP3    H123763   3.959   2.276   4.389  0.2107  3.6794  0.7858
 7933TIP3    H223764   3.904   2.394   4.312 -0.6437  0.7298 -3.5334
 7934TIP3   OH223765   2.374   0.867   4.191 -0.6281 -0.1824 -0.1718
 7934TIP3    H123766   2.340   0.878   4.280 -0.7505  0.4270 -0.2870
 7934TIP3    H223767   2.396   0.956   4.163  1.9327 -0.6095  0.2278
 7935TIP3   OH223768   7.088   2.298   4.099 -0.4826 -0.0355  0.1383
 7935TIP3    H123769   7.047   2.218   4.065 -0.7838  0.2367 -0.1484
 7935TIP3    H223770   7.097   2.355   4.023  0.9636 -0.3058  0.0927
 7936TIP3   OH223771   0.501   1.642   5.607 -0.6327  0.1169  0.0687
 7936TIP3    H123772   0.439   1.633   5.680 -2.7154  0.6020 -1.5239
 7936TIP3    H223773   0.493   1.560   5.559  1.4980 -0.6264  0.8635
 7937TIP3   OH223774   4.240   5.485   1.968  0.2715  0.4159  0.0676
 7937TIP3    H123775   4.158   5.456   2.008  0.4291 -0.6560 -0.3459
 7937TIP3    H223776   4.308   5.443   2.019  0.5053 -0.0186 -0.5818
 7938TIP3   OH223777   3.897   3.399   2.468  0.0987  0.1722  0.6524
 7938TIP3    H123778   3.827   3.340   2.439  0.7766 -0.3662  0.0765
 7938TIP3    H223779   3.950   3.413   2.390  0.0546  1.4029  0.8339
 7939TIP3   OH223780   3.478   3.623   4.579 -0.1399 -0.1746  0.1885
 7939TIP3    H123781   3.566   3.639   4.545  0.2984 -0.8127  0.9926
 7939TIP3    H223782   3.430   3.586   4.505 -0.0080  1.0265 -0.5188
 7940TIP3   OH223783   4.396   4.940   4.239  0.3702 -0.1401  0.1095
 7940TIP3    H123784   4.472   4.968   4.291  0.3578  1.7867 -0.8141
 7940TIP3    H223785   4.334   5.013   4.247 -0.3776 -0.6238 -1.1223
 7941TIP3   OH223786   0.774   2.999   0.921  0.0013  0.6119 -0.4798
 7941TIP3    H123787   0.729   2.930   0.971  0.5443  1.0312  0.6368
 7941TIP3    H223788   0.719   3.013   0.844 -0.0838 -1.1236 -0.7759
 7942TIP3   OH223789   2.608   6.394   2.705 -0.5379  0.0339  0.1194
 7942TIP3    H123790   2.656   6.346   2.637  2.2612  4.5471 -1.6153
 7942TIP3    H223791   2.522   6.410   2.668  0.5481  1.3702 -2.0629
 7943TIP3   OH223792   3.763   6.325   4.225 -0.0231 -0.5307 -0.4273
 7943TIP3    H123793   3.792   6.272   4.300  1.4109 -0.2605 -0.7722
 7943TIP3    H223794   3.687   6.278   4.191 -2.4183  0.6610  2.7254
 7944TIP3   OH223795   6.569   2.772   0.364 -0.4127 -0.0368  0.4236
 7944TIP3    H123796   6.663   2.793   0.361 -0.3946 -0.2630 -1.2803
 7944TIP3    H223797   6.545   2.787   0.456  1.3507 -0.2768  0.9754
 7945TIP3   OH223798   1.104   6.246   4.656  0.2085 -0.1880 -0.0836
 7945TIP3    H123799   1.037   6.198   4.608  0.4822 -0.5626 -0.0995
 7945TIP3    H223800   1.182   6.243   4.600  0.4573 -0.4142  0.2663
 7946TIP3   OH223801   0.271   2.807   5.671  0.4243  0.1852 -0.0772
 7946TIP3    H123802   0.348   2.798   5.728  0.0497  0.7171  0.5155
 7946TIP3    H223803   0.244   2.717   5.655  1.1788 -0.0136 -0.3070
 7947TIP3   OH223804   3.381   2.282   3.202 -0.2239  0.4355  0.4261
 7947TIP3    H123805   3.435   2.312   3.275 -0.8512 -0.2957  1.2073
 7947TIP3    H223806   3.299   2.254   3.242 -0.2751 -0.7537 -0.4478
 7948TIP3   OH223807   5.026   3.524   1.047 -0.1182  0.2422 -0.0161
 7948TIP3    H123808   5.111   3.560   1.073  0.0180 -0.4901  0.5803
 7948TIP3    H223809   5.028   3.524   0.951  0.3661  0.6649 -0.0106
 7949TIP3   OH223810   2.431   3.076   4.518 -0.2520  0.3402 -0.2913
 7949TIP3    H123811   2.357   3.038   4.471 -0.8063  0.1690  0.6866
 7949TIP3    H223812   2.430   3.168   4.495  0.0326  0.1014 -1.3058
 7950TIP3   OH223813   6.580   4.647   3.671  0.3654  0.4402  0.7681
 7950TIP3    H123814   6.526   4.639   3.749  2.1789  0.3006  2.0516
 7950TIP3    H223815   6.520   4.684   3.605 -1.8012 -1.4288  1.5286
 7951TIP3   OH223816   6.790   6.571   3.127 -0.1815  0.6354  0.2798
 7951TIP3    H123817   6.774   6.477   3.131 -0.1535  0.5369 -1.3317
 7951TIP3    H223818   6.885   6.579   3.142  0.0084  0.2954 -0.6647
 7952TIP3   OH223819   4.277   0.126   4.026 -0.7584 -0.1152 -0.3267
 7952TIP3    H123820   4.264   0.214   3.990 -0.0476  1.3832  2.7699
 7952TIP3    H223821   4.275   0.138   4.121  0.3659 -3.3149  0.2255
 7953TIP3   OH223822   0.254   5.656   1.313  0.1804  0.2712  0.0232
 7953TIP3    H123823   0.194   5.633   1.243  0.6876  0.4295 -0.4709
 7953TIP3    H223824   0.230   5.598   1.385  0.2194 -0.5166 -0.5801
 7954TIP3   OH223825   0.960   5.911   0.659  0.3231  0.5076 -0.4861
 7954TIP3    H123826   1.000   5.915   0.746  1.3258  0.6446 -0.9460
 7954TIP3    H223827   0.949   6.002   0.633  2.6442  0.5330 -1.6563
 7955TIP3   OH223828   1.915   4.068   4.064 -0.5653  0.0481  0.0683
 7955TIP3    H123829   1.937   3.988   4.017 -1.7987 -1.0375  1.2659
 7955TIP3    H223830   1.968   4.065   4.144 -0.1247  0.7664 -0.1911
 7956TIP3   OH223831   5.840   2.946   4.507  0.2489 -0.2438  0.3106
 7956TIP3    H123832   5.793   2.934   4.589 -0.0723  0.5757  0.2566
 7956TIP3    H223833   5.843   3.041   4.495  2.1742 -0.2407  0.4693
 7957TIP3   OH223834   3.011   3.389   1.883 -0.1551 -0.3157 -0.1932
 7957TIP3    H123835   2.932   3.391   1.830 -0.2002  0.7106 -0.1107
 7957TIP3    H223836   3.083   3.389   1.819 -0.2170  0.0865 -0.2668
 7958TIP3   OH223837   0.167   0.601   4.790  0.7615  0.3446  0.5044
 7958TIP3    H123838   0.089   0.623   4.840  0.0659 -1.0280  0.0606
 7958TIP3    H223839   0.136   0.589   4.700  2.0263  3.0334 -0.4150
 7959TIP3   OH223840   0.654   4.750   5.174 -0.3838  0.1034 -0.2205
 7959TIP3    H123841   0.715   4.676   5.175  1.0885  1.2472  2.0648
 7959TIP3    H223842   0.570   4.712   5.199 -0.2807 -1.1919 -1.6557
 7960TIP3   OH223843   0.610   4.641   0.925  0.0133  0.0859 -0.1669
 7960TIP3    H123844   0.625   4.548   0.947 -1.0368 -0.1143 -0.2577
 7960TIP3    H223845   0.665   4.656   0.848  0.1706 -0.4635 -0.1728
 7961TIP3   OH223846   6.556   0.549   0.493 -0.7405  0.6817  0.2327
 7961TIP3    H123847   6.470   0.525   0.457 -0.2207  0.3114 -0.7744
 7961TIP3    H223848   6.595   0.466   0.520 -1.0059  0.9238  1.4564
 7962TIP3   OH223849   4.303   3.927   2.610 -0.1389 -0.3680 -0.0770
 7962TIP3    H123850   4.352   3.949   2.689 -1.4808  1.0316  0.4318
 7962TIP3    H223851   4.322   3.834   2.594  1.3021 -0.2916  1.0341
 7963TIP3   OH223852   5.294   5.583   4.877 -0.4352 -0.2902  0.0470
 7963TIP3    H123853   5.220   5.549   4.927 -0.9390 -0.3663 -0.7320
 7963TIP3    H223854   5.265   5.578   4.786  0.0383  0.9065 -0.1764
 7964TIP3   OH223855   3.345   1.032   2.039 -0.3548 -0.6926  0.1973
 7964TIP3    H123856   3.426   0.987   2.064 -1.3092 -1.3426  2.3510
 7964TIP3    H223857   3.306   1.060   2.122 -1.2637  1.5909 -0.9069
 7965TIP3   OH223858   4.376   4.229   4.997  0.3989 -0.2690 -0.3338
 7965TIP3    H123859   4.368   4.266   4.909  1.0779 -0.4011 -0.4624
 7965TIP3    H223860   4.471   4.220   5.010  0.2881 -0.6657  0.2373
 7966TIP3   OH223861   0.916   4.737   4.003  0.3899 -0.2653  0.4620
 7966TIP3    H123862   0.927   4.826   4.036 -0.0251 -0.1477  0.2855
 7966TIP3    H223863   0.978   4.685   4.055  0.1149  0.0007  1.0690
 7967TIP3   OH223864   1.369   4.632   0.518 -0.1751  0.5249  0.1006
 7967TIP3    H123865   1.361   4.695   0.446  0.9223 -1.2796 -1.7366
 7967TIP3    H223866   1.319   4.556   0.489  1.5786 -0.8439  0.4814
 7968TIP3   OH223867   5.395   2.416   3.983 -0.1561 -0.0825  0.1879
 7968TIP3    H123868   5.382   2.333   4.030 -0.2086 -0.3823 -0.3467
 7968TIP3    H223869   5.310   2.460   3.987 -0.7314 -0.9956 -1.3100
 7969TIP3   OH223870   2.520   3.156   2.253 -0.2239 -0.3695 -0.8675
 7969TIP3    H123871   2.445   3.096   2.255 -0.4353 -0.1003  0.8857
 7969TIP3    H223872   2.589   3.107   2.209 -0.3370 -1.9930  0.6686
 7970TIP3   OH223873   0.503   6.407   3.247 -0.0773  0.2543 -0.2646
 7970TIP3    H123874   0.418   6.364   3.238  1.2664 -2.8437  0.6049
 7970TIP3    H223875   0.488   6.476   3.313 -1.1201 -3.1384  3.4495
 7971TIP3   OH223876   3.401   1.711   4.677 -0.1466 -0.2209 -0.1301
 7971TIP3    H123877   3.496   1.699   4.668 -0.0092 -0.5949  1.5608
 7971TIP3    H223878   3.363   1.633   4.635  0.3493 -0.7623  0.4085
 7972TIP3   OH223879   3.752   0.470   1.986  0.4303  0.4854  0.2409
 7972TIP3    H123880   3.783   0.424   2.065 -0.7877 -1.0828 -0.1332
 7972TIP3    H223881   3.665   0.502   2.011 -0.0340 -0.1718 -0.4942
 7973TIP3   OH223882   4.836   6.555   1.047 -0.4929  0.3869  0.7741
 7973TIP3    H123883   4.800   6.642   1.062  0.1896  0.4824  2.0472
 7973TIP3    H223884   4.924   6.570   1.014 -0.6207  0.1735  0.3301
 7974TIP3   OH223885   0.306   3.946   3.989  0.0328 -0.1837  0.4341
 7974TIP3    H123886   0.336   3.938   3.899 -1.7794  1.2212 -0.3584
 7974TIP3    H223887   0.353   4.021   4.024 -2.5476  2.2359 -0.9137
 7975TIP3   OH223888   0.396   0.494   2.383 -0.3297 -0.0828  0.0619
 7975TIP3    H123889   0.304   0.470   2.397 -0.2293 -0.5155 -0.0005
 7975TIP3    H223890   0.446   0.426   2.429 -0.0428  0.3349  0.3769
 7976TIP3   OH223891   6.832   4.290   1.351  0.0910 -0.0570 -0.4802
 7976TIP3    H123892   6.772   4.280   1.277  1.5579  0.9049 -1.8885
 7976TIP3    H223893   6.884   4.367   1.328  2.4439 -1.3359  0.2090
 7977TIP3   OH223894   7.010   1.543   4.727  0.5820  0.2920 -0.0486
 7977TIP3    H123895   7.069   1.505   4.793  0.9898 -0.2911 -0.7326
 7977TIP3    H223896   6.962   1.469   4.692 -0.9040  0.8201  0.8080
 7978TIP3   OH223897   4.786   5.445   2.794 -0.2884 -0.2282  0.6209
 7978TIP3    H123898   4.827   5.449   2.880  0.3529 -1.1891  0.3723
 7978TIP3    H223899   4.811   5.360   2.759 -0.6169  0.1110 -0.4809
 7979TIP3   OH223900   1.916   5.786   5.575 -0.2145 -0.1868  0.4701
 7979TIP3    H123901   1.973   5.810   5.501 -0.8629 -0.2934 -0.0778
 7979TIP3    H223902   1.860   5.862   5.588 -1.0998 -0.7084 -0.1332
 7980TIP3   OH223903   7.172   3.797   0.260 -0.2165  0.0004 -0.4098
 7980TIP3    H123904   7.153   3.879   0.305 -2.4397 -0.4106 -0.5049
 7980TIP3    H223905   7.253   3.766   0.301 -0.1564  1.4749  0.6697
 7981TIP3   OH223906   0.785   6.290   4.891 -0.6408  0.7741  0.0629
 7981TIP3    H123907   0.828   6.223   4.838 -1.0211  0.4283  0.1865
 7981TIP3    H223908   0.713   6.244   4.934  0.3812  0.7191  1.8657
 7982TIP3   OH223909   2.763   5.196   3.086  0.0212  0.3829  0.2268
 7982TIP3    H123910   2.789   5.220   3.175  0.1947  0.4733  0.1518
 7982TIP3    H223911   2.681   5.243   3.072  0.9639  1.9308 -0.3533
 7983TIP3   OH223912   3.987   0.812   4.871  0.0563  0.5571 -0.1448
 7983TIP3    H123913   3.913   0.864   4.901 -0.1572  0.1687  0.0144
 7983TIP3    H223914   3.999   0.745   4.939  0.2579  0.3375 -0.3932
 7984TIP3   OH223915   0.256   2.608   5.217 -0.4044 -0.2235 -0.0436
 7984TIP3    H123916   0.220   2.697   5.215  0.5154  0.1498 -0.1985
 7984TIP3    H223917   0.310   2.601   5.138 -1.5776 -1.4111 -0.7844
 7985TIP3   OH223918   3.252   5.448   4.548 -0.2037 -0.1079  0.0135
 7985TIP3    H123919   3.275   5.360   4.579  1.9503 -0.1267 -1.4166
 7985TIP3    H223920   3.231   5.496   4.628  0.5683 -1.3955  1.0392
 7986TIP3   OH223921   2.739   5.472   5.680 -0.1908 -0.0495  0.5601
 7986TIP3    H123922   2.658   5.458   5.630 -0.8262  1.7811  0.9940
 7986TIP3    H223923   2.728   5.416   5.758 -0.6891 -0.4054  0.2435
 7987TIP3   OH223924   4.997   0.269   2.639 -0.0599 -0.4524 -0.0703
 7987TIP3    H123925   5.031   0.345   2.687 -2.8371  1.9736 -1.6130
 7987TIP3    H223926   4.971   0.208   2.708  0.8813  0.6227  1.3001
 7988TIP3   OH223927   0.069   0.777   5.635  0.1785 -0.3251  0.3760
 7988TIP3    H123928  -0.002   0.795   5.572  0.3878 -1.2157 -0.1330
 7988TIP3    H223929   0.076   0.681   5.636  2.3920 -0.2369 -0.7355
 7989TIP3   OH223930   5.638   2.365   2.214 -0.5491  0.1022 -0.1688
 7989TIP3    H123931   5.544   2.349   2.201 -0.8865  1.5847  0.3071
 7989TIP3    H223932   5.658   2.440   2.158  0.0351  0.6874  0.8018
 7990TIP3   OH223933   6.100   3.354   2.867 -0.5075  0.5596  0.1845
 7990TIP3    H123934   6.065   3.317   2.786 -0.4463  1.2089 -0.1439
 7990TIP3    H223935   6.024   3.363   2.925 -0.9146  2.0003 -0.5361
 7991TIP3   OH223936   6.573   0.226   5.377 -0.1277  0.4987 -0.0454
 7991TIP3    H123937   6.606   0.308   5.414 -0.1481  0.7944 -0.6747
 7991TIP3    H223938   6.595   0.231   5.284 -2.8235  1.1453 -0.7255
 7992TIP3   OH223939   4.527   4.327   1.096 -0.0662 -0.0420 -0.2770
 7992TIP3    H123940   4.526   4.385   1.172  1.0053  2.3766 -1.9781
 7992TIP3    H223941   4.437   4.327   1.065 -0.5352 -1.1384  0.9950
 7993TIP3   OH223942   0.948   0.639   2.316 -0.3858 -0.4913 -0.4362
 7993TIP3    H123943   0.932   0.620   2.224  1.9999 -0.9615 -0.8180
 7993TIP3    H223944   0.992   0.560   2.349  1.6050  0.8546  0.2803
 7994TIP3   OH223945   6.385   6.694   3.362 -0.0045  0.3693  0.1221
 7994TIP3    H123946   6.479   6.698   3.346  0.0559  0.1285  0.4057
 7994TIP3    H223947   6.374   6.619   3.421 -0.5498 -0.5798 -1.1403
 7995TIP3   OH223948   6.214   2.339   3.395 -0.3192 -0.1865  0.1265
 7995TIP3    H123949   6.288   2.279   3.403  0.2351  0.3125 -1.0154
 7995TIP3    H223950   6.150   2.293   3.341  0.2294  0.3307 -0.9987
 7996TIP3   OH223951   5.647   3.961   0.182 -0.5174  0.1473  0.0126
 7996TIP3    H123952   5.657   3.951   0.087  1.0980 -0.5664  0.2181
 7996TIP3    H223953   5.663   4.054   0.198 -0.6927  0.2517 -0.3974
 7997TIP3   OH223954   5.774   0.777   2.589  0.0808 -0.7456 -0.0115
 7997TIP3    H123955   5.745   0.711   2.653 -0.4627  1.2841  1.9780
 7997TIP3    H223956   5.869   0.769   2.588 -0.0009 -1.8855 -0.1939
 7998TIP3   OH223957   3.507   3.087   5.007  0.0687  0.1563 -0.5083
 7998TIP3    H123958   3.551   3.005   4.983 -0.4905 -0.4561  0.5272
 7998TIP3    H223959   3.574   3.155   4.993  0.6526 -0.5083 -1.0049
 7999TIP3   OH223960   2.338   0.465   5.327 -0.4044  0.3230 -0.7044
 7999TIP3    H123961   2.361   0.376   5.300 -0.5850 -0.3131  1.0458
 7999TIP3    H223962   2.408   0.490   5.387 -2.0449 -0.0435  1.4970
 8000TIP3   OH223963   6.414   0.270   1.440  0.4818 -0.1020 -0.5898
 8000TIP3    H123964   6.444   0.246   1.528  1.5558  0.5460 -0.7614
 8000TIP3    H223965   6.390   0.187   1.400  1.3140 -0.5770 -0.1479
 8001TIP3   OH223966   4.418   5.170   0.975 -0.5709 -0.0575  0.2489
 8001TIP3    H123967   4.437   5.104   0.908  0.5316  0.1641  0.3173
 8001TIP3    H223968   4.504   5.206   0.998 -0.8430 -0.5691  2.2490
 8002TIP3   OH223969   1.366   5.767   2.007 -0.3701  0.3955  0.0106
 8002TIP3    H123970   1.316   5.688   2.028  1.1332 -0.7604 -0.5798
 8002TIP3    H223971   1.341   5.787   1.917 -0.4043  0.3040 -0.0010
 8003TIP3   OH223972   6.292   5.253  -0.007  0.1967  0.6642 -0.2031
 8003TIP3    H123973   6.321   5.264   0.084  2.2538  1.3842 -0.8924
 8003TIP3    H223974   6.373   5.249  -0.058 -0.8934 -0.3874 -1.9664
 8004TIP3   OH223975   2.028   5.849   2.228  0.1976  0.9310 -0.2849
 8004TIP3    H123976   1.993   5.928   2.271  1.0599  0.2136  1.8742
 8004TIP3    H223977   1.955   5.787   2.229  1.0993 -0.3698  3.7110
 8005TIP3   OH223978   6.453   6.335   2.122 -0.2933  0.2954 -0.1623
 8005TIP3    H123979   6.382   6.338   2.058 -1.3203 -0.9795  0.8693
 8005TIP3    H223980   6.414   6.370   2.203  0.4294  0.1731  0.2481
 8006TIP3   OH223981   2.384   6.632   3.764  0.5409 -0.4047 -0.0077
 8006TIP3    H123982   2.421   6.578   3.694 -0.6442 -1.1508 -0.0818
 8006TIP3    H223983   2.337   6.570   3.820 -0.9998  0.5528 -0.1888
 8007TIP3   OH223984   5.515   4.090   3.392 -0.3644  0.3542 -0.3231
 8007TIP3    H123985   5.438   4.058   3.346 -0.4980 -0.1339  0.2282
 8007TIP3    H223986   5.510   4.049   3.478  1.3756 -0.9905 -0.8169
 8008TIP3   OH223987   1.211   1.217   0.999 -0.5055  0.4233  0.2713
 8008TIP3    H123988   1.170   1.168   1.070 -1.5876  1.7604  0.6189
 8008TIP3    H223989   1.145   1.216   0.929 -1.1958  2.5364  0.8092
 8009TIP3   OH223990   4.546   1.565   2.600 -0.2343  0.0426  0.1329
 8009TIP3    H123991   4.472   1.552   2.540 -0.4206  1.6183 -0.0186
 8009TIP3    H223992   4.598   1.485   2.592 -0.9407 -0.3112 -1.1633
 8010TIP3   OH223993   4.479   4.720   4.063  0.1894  0.2135  0.2019
 8010TIP3    H123994   4.531   4.686   4.136 -1.9275 -2.2267  0.7072
 8010TIP3    H223995   4.413   4.775   4.105 -1.3591 -1.6149  0.2798
 8011TIP3   OH223996   4.634   6.371   1.000 -0.4780 -0.0867 -0.0522
 8011TIP3    H123997   4.692   6.442   1.026  0.7533 -0.7039 -1.0543
 8011TIP3    H223998   4.691   6.307   0.959 -1.8291 -0.8348 -0.8219
 8012TIP3   OH223999   1.400   1.975   2.235 -0.0453 -0.2859 -0.6378
 8012TIP3    H124000   1.315   1.983   2.193  0.1073  0.4599 -0.8111
 8012TIP3    H224001   1.394   2.029   2.314  1.0552  1.8473 -1.9235
 8013TIP3   OH224002   0.240   5.496   3.098  0.4184 -0.0426  0.3325
 8013TIP3    H124003   0.211   5.585   3.076 -0.6506 -0.2663  0.7575
 8013TIP3    H224004   0.246   5.451   3.014  0.0248  0.1676  0.1878
 8014TIP3   OH224005   4.870   0.298   4.665 -0.0518  0.4505 -0.3125
 8014TIP3    H124006   4.818   0.279   4.587 -1.2964 -0.9610  0.7944
 8014TIP3    H224007   4.938   0.358   4.635 -0.9147  0.4956 -2.3167
 8015TIP3   OH224008   2.904   1.783   5.422 -0.1553  0.4633 -0.3331
 8015TIP3    H124009   2.961   1.811   5.493 -0.7158  0.5532  0.0861
 8015TIP3    H224010   2.958   1.791   5.343  0.1933  1.2248 -0.0307
 8016TIP3   OH224011   0.867   5.382   1.723 -0.7787  0.0203  0.1902
 8016TIP3    H124012   0.895   5.388   1.632  0.9474  0.4098  0.7129
 8016TIP3    H224013   0.874   5.472   1.756 -0.2868 -0.3057  1.0046
 8017TIP3   OH224014   3.735   4.683   5.389 -0.3182 -0.3705  0.7567
 8017TIP3    H124015   3.666   4.668   5.324  0.9655 -1.3601 -0.4416
 8017TIP3    H224016   3.770   4.769   5.368 -1.5695  0.4422  1.7950
 8018TIP3   OH224017   0.428   3.224   0.582  0.2025  0.2879 -0.3070
 8018TIP3    H124018   0.522   3.232   0.594  0.0849  1.5040 -0.0764
 8018TIP3    H224019   0.396   3.185   0.663  0.0595  3.6061  1.4048
 8019TIP3   OH224020   3.478   5.530   3.187  0.3535  0.3735  0.1260
 8019TIP3    H124021   3.559   5.558   3.144  1.3057 -0.6044  1.2181
 8019TIP3    H224022   3.430   5.611   3.204  0.7285  0.9063 -1.2136
 8020TIP3   OH224023   0.273   0.060   3.052  0.1728 -0.2237  0.5630
 8020TIP3    H124024   0.269  -0.009   2.986 -0.5881 -1.2989  1.6723
 8020TIP3    H224025   0.191   0.050   3.101  1.1000 -0.0411  2.2117
 8021TIP3   OH224026   0.700   6.287   3.077  0.6593  0.3148  0.0337
 8021TIP3    H124027   0.625   6.337   3.110 -0.4171 -0.9377 -0.3921
 8021TIP3    H224028   0.666   6.198   3.067  2.2531 -0.3120 -0.0802
 8022TIP3   OH224029   3.807   2.537   4.399 -0.6659 -0.4358 -0.1348
 8022TIP3    H124030   3.853   2.519   4.481 -0.2094 -1.3446 -0.5767
 8022TIP3    H224031   3.733   2.593   4.425  0.0515  0.1457  0.7432
 8023TIP3   OH224032   6.884   4.271   5.165  0.1044 -0.3972 -0.2565
 8023TIP3    H124033   6.915   4.350   5.119 -0.5798  0.4212  0.6399
 8023TIP3    H224034   6.797   4.256   5.128 -0.0623 -0.2923  0.0886
 8024TIP3   OH224035   5.200   5.498   1.552 -0.6584  0.1428 -0.0354
 8024TIP3    H124036   5.120   5.446   1.562  0.0916 -1.0923 -0.2955
 8024TIP3    H224037   5.184   5.553   1.476 -1.7358  0.8412  0.6627
 8025TIP3   OH224038   5.584   5.348   2.558  0.2365  0.1694  0.0091
 8025TIP3    H124039   5.657   5.304   2.516  0.5998 -1.1622  1.9079
 8025TIP3    H224040   5.607   5.350   2.651 -1.8235  0.2764  0.5740
 8026TIP3   OH224041   0.868   4.279   4.130 -0.2711 -0.1982 -0.0818
 8026TIP3    H124042   0.892   4.204   4.074 -2.3292 -0.9907  0.0186
 8026TIP3    H224043   0.797   4.246   4.185  0.3958  1.1537  1.6812
 8027TIP3   OH224044   1.243   1.530   3.518 -0.6010  0.7733 -0.0893
 8027TIP3    H124045   1.189   1.605   3.493 -1.1976  0.9516  1.5827
 8027TIP3    H224046   1.180   1.465   3.550 -0.1199 -0.5986 -1.8009
 8028TIP3   OH224047   0.543   3.557   0.064  0.7493 -0.3542 -0.5871
 8028TIP3    H124048   0.492   3.534   0.142  0.1016 -0.6698 -1.0892
 8028TIP3    H224049   0.630   3.520   0.081  0.5224 -0.7187 -0.1605
 8029TIP3   OH224050   1.409   5.549   2.674 -0.3871 -0.3086 -0.2812
 8029TIP3    H124051   1.382   5.459   2.689  1.2466 -0.7645  0.0679
 8029TIP3    H224052   1.329   5.600   2.684 -0.8943 -1.4488  2.0670
 8030TIP3   OH224053   6.919   4.476   4.982 -0.0149  0.0949 -0.6429
 8030TIP3    H124054   6.874   4.454   4.900 -0.6907  0.6088 -0.4199
 8030TIP3    H224055   6.959   4.561   4.966  0.4619 -0.1277 -0.6676
 8031TIP3   OH224056   3.416   3.331   4.162 -0.1128 -0.2097  0.4443
 8031TIP3    H124057   3.388   3.319   4.071  1.6544  1.5693 -0.4025
 8031TIP3    H224058   3.450   3.245   4.188 -1.3191 -0.9457 -0.2637
 8032TIP3   OH224059   4.309   5.095   2.586  0.0651  0.1607  0.0316
 8032TIP3    H124060   4.253   5.122   2.659  1.4729 -0.0647  1.2523
 8032TIP3    H224061   4.377   5.042   2.627  0.5335 -0.5306 -1.5547
 8033TIP3   OH224062   0.804   5.838   3.906 -0.6111  0.8555  0.0284
 8033TIP3    H124063   0.796   5.815   3.998 -0.4441  1.2278  0.1392
 8033TIP3    H224064   0.742   5.910   3.894  0.6426  2.0272  0.2858
 8034TIP3   OH224065   0.366   6.341   0.235 -0.3187  0.0239  1.1807
 8034TIP3    H124066   0.349   6.389   0.154  0.4080  0.4190  1.2558
 8034TIP3    H224067   0.319   6.389   0.303 -1.4174 -0.6414  0.9134
 8035TIP3   OH224068   4.247   5.618   0.422 -0.5054  0.0082  0.1846
 8035TIP3    H124069   4.318   5.683   0.416 -0.2431 -0.2812  0.0994
 8035TIP3    H224070   4.211   5.614   0.334 -1.3187  0.9106  0.4602
 8036TIP3   OH224071   4.111   5.612   0.181  0.0593 -0.3479 -0.7835
 8036TIP3    H124072   4.022   5.640   0.161 -0.3559 -1.8748 -1.1943
 8036TIP3    H224073   4.156   5.613   0.096  0.7951  1.4624 -0.4348
 8037TIP3   OH224074   5.469   5.111   5.260  1.0699 -0.1369 -0.1455
 8037TIP3    H124075   5.375   5.095   5.271  1.0597  0.1469  0.2060
 8037TIP3    H224076   5.477   5.207   5.260  1.5501 -0.1484  1.6485
 8038TIP3   OH224077   4.023   4.829   1.139 -0.2382 -0.0435 -0.2388
 8038TIP3    H124078   3.934   4.802   1.117 -0.1642  0.4500 -1.1914
 8038TIP3    H224079   4.056   4.760   1.196 -1.7347  0.4703  1.3548
 8039TIP3   OH224080   1.822   4.420   4.138 -0.2348  0.4395  0.0402
 8039TIP3    H124081   1.911   4.394   4.113  0.2810 -0.0642  2.2376
 8039TIP3    H224082   1.828   4.514   4.156 -0.5908  0.7877 -1.5020
 8040TIP3   OH224083   1.491   2.939   1.113 -0.1060  0.1289  0.3703
 8040TIP3    H124084   1.552   2.923   1.185  0.1793  0.9410  0.3288
 8040TIP3    H224085   1.411   2.971   1.155  0.2793  1.2172  0.3059
 8041TIP3   OH224086   6.116   5.094   3.388  0.0070  0.5320  0.5286
 8041TIP3    H124087   6.047   5.064   3.329  0.0254  1.6171 -0.0634
 8041TIP3    H224088   6.192   5.041   3.365  1.3281  3.6085 -3.4800
 8042TIP3   OH224089   6.091   3.877   2.703 -0.1994  0.0448 -0.3645
 8042TIP3    H124090   6.061   3.907   2.789  1.0061  1.5549 -0.4214
 8042TIP3    H224091   6.063   3.786   2.698 -0.0145 -0.1751  1.7577
 8043TIP3   OH224092   0.518   5.283   4.832  0.2076  0.2514 -0.3947
 8043TIP3    H124093   0.559   5.300   4.916  0.3211 -0.0514 -0.3866
 8043TIP3    H224094   0.455   5.354   4.820  1.2295  1.1187 -0.7368
 8044TIP3   OH224095   5.972   2.013   2.609 -0.2465 -0.6763 -0.1051
 8044TIP3    H124096   5.973   1.921   2.584 -1.3111 -0.7660  0.1567
 8044TIP3    H224097   5.880   2.033   2.626 -0.2542  0.8543 -1.6927
 8045TIP3   OH224098   1.923   4.549   5.679  0.1316  0.0359  0.0482
 8045TIP3    H124099   1.850   4.561   5.619  0.3332  1.7298  0.0804
 8045TIP3    H224100   1.997   4.592   5.635  0.8078 -0.5782  0.5612
 8046TIP3   OH224101   6.612   5.978   0.096  0.3109 -0.7559 -0.0172
 8046TIP3    H124102   6.680   5.941   0.151  0.0232  0.1032  0.9384
 8046TIP3    H224103   6.655   6.048   0.047  0.3524 -0.9092 -0.2019
 8047TIP3   OH224104   2.723   4.169   5.489 -0.7920  0.7477  0.1396
 8047TIP3    H124105   2.632   4.176   5.460 -0.8196  0.0407  0.0351
 8047TIP3    H224106   2.718   4.124   5.573 -0.4179 -1.4477 -0.9204
 8048TIP3   OH224107   6.783   1.203   3.964  0.2431 -0.1390 -0.3507
 8048TIP3    H124108   6.752   1.218   3.875  0.5737 -1.3427 -0.6914
 8048TIP3    H224109   6.703   1.195   4.016 -0.0550 -1.9411 -1.0049
 8049TIP3   OH224110   6.497   6.549   0.855  0.1067  0.1720  0.0165
 8049TIP3    H124111   6.448   6.495   0.793  1.7880  0.5871 -1.7521
 8049TIP3    H224112   6.441   6.626   0.870 -0.0111  0.4129 -1.5770
 8050TIP3   OH224113   5.580   4.581   5.748 -0.3509 -0.3124  0.4479
 8050TIP3    H124114   5.631   4.536   5.682 -1.4993 -0.2334 -0.5355
 8050TIP3    H224115   5.597   4.534   5.830 -0.1806 -1.4396 -0.2229
 8051TIP3   OH224116   0.699   5.142   2.671 -0.5890  0.1383 -0.7328
 8051TIP3    H124117   0.616   5.153   2.718  0.1954  0.6855  0.6120
 8051TIP3    H224118   0.702   5.216   2.610  0.0564  1.7083  1.0930
 8052TIP3   OH224119   4.420   6.475   5.661  0.0427 -0.1857 -0.0767
 8052TIP3    H124120   4.454   6.522   5.738 -0.9961 -0.1655  0.3821
 8052TIP3    H224121   4.368   6.404   5.697  0.6360 -0.9945 -0.7785
 8053TIP3   OH224122   3.762   6.049   2.351  0.0845  0.4160 -0.4857
 8053TIP3    H124123   3.671   6.080   2.363  0.1989  0.7114 -0.3527
 8053TIP3    H224124   3.796   6.104   2.280 -0.9616 -2.1181 -3.1661
 8054TIP3   OH224125   1.561   2.738   3.006 -0.0059  0.4276 -0.6564
 8054TIP3    H124126   1.532   2.660   3.054  1.5184  1.2194  1.7277
 8054TIP3    H224127   1.638   2.708   2.956  0.1408  0.2260 -0.3152
 8055TIP3   OH224128   5.350   1.381   3.933 -0.1709 -0.0097  0.3526
 8055TIP3    H124129   5.409   1.419   3.868 -2.8053  1.4900 -1.3741
 8055TIP3    H224130   5.348   1.445   4.004 -0.4371  0.3983 -0.0211
 8056TIP3   OH224131   5.231   3.590   1.947  0.2899 -0.0139  0.5097
 8056TIP3    H124132   5.245   3.554   2.034 -0.8176 -1.8904 -0.0273
 8056TIP3    H224133   5.198   3.679   1.962  1.7253  0.3183  1.9313
 8057TIP3   OH224134   5.938   6.065   1.041  0.2632 -0.4050  0.4534
 8057TIP3    H124135   5.937   6.114   0.959  1.6680 -0.9838  0.0637
 8057TIP3    H224136   5.879   5.992   1.025  1.5117 -1.2389 -0.5354
 8058TIP3   OH224137   2.986   5.149   5.070  0.0902 -0.0505  0.4396
 8058TIP3    H124138   3.026   5.203   5.002 -1.3090 -0.5195 -0.8167
 8058TIP3    H224139   2.936   5.084   5.021  0.6283 -1.6499  1.9196
 8059TIP3   OH224140   5.289   5.191   5.704 -0.3802  0.5149 -0.5481
 8059TIP3    H124141   5.348   5.146   5.644  0.5000  1.1033 -0.1473
 8059TIP3    H224142   5.310   5.284   5.694  0.3870  0.5846  1.2669
 8060TIP3   OH224143   5.572   5.849   4.724  0.1113 -0.0730  0.0507
 8060TIP3    H124144   5.549   5.817   4.811 -0.9164 -0.5045 -0.3695
 8060TIP3    H224145   5.656   5.894   4.737 -0.1343  0.0680  1.2954
 8061TIP3   OH224146   5.202   6.312   5.503  0.2966  0.5594 -0.4134
 8061TIP3    H124147   5.243   6.226   5.505  0.7759  0.6791 -2.5143
 8061TIP3    H224148   5.125   6.303   5.559 -1.1551 -2.0990 -2.5932
 8062TIP3   OH224149   3.568   1.914   1.153 -0.0903  0.1073  0.5156
 8062TIP3    H124150   3.612   1.835   1.184 -0.4281 -1.7068 -3.1864
 8062TIP3    H224151   3.640   1.971   1.125  0.1498  1.2753  3.1393
 8063TIP3   OH224152   5.999   1.348   4.500  0.1164  0.3600 -0.4931
 8063TIP3    H124153   5.946   1.357   4.421 -1.4170  2.2394  0.6819
 8063TIP3    H224154   5.956   1.278   4.550 -0.5373  1.0393 -0.0983
 8064TIP3   OH224155   4.430   1.804   4.353 -0.0493 -0.2859  0.7172
 8064TIP3    H124156   4.444   1.737   4.286 -1.2265  0.7527 -0.6383
 8064TIP3    H224157   4.503   1.865   4.342 -0.1403 -0.2159  0.4941
 8065TIP3   OH224158   6.303   3.882   1.955 -0.0381  0.0649  0.2698
 8065TIP3    H124159   6.350   3.822   1.896  1.0157 -0.4125  1.5446
 8065TIP3    H224160   6.370   3.942   1.986 -0.9743  1.5665 -0.5116
 8066TIP3   OH224161   1.728   1.753   2.268  0.0231 -0.6449 -0.5067
 8066TIP3    H124162   1.784   1.830   2.270 -1.8216  0.8845 -2.5293
 8066TIP3    H224163   1.704   1.738   2.359  0.3614  1.2517 -0.0712
 8067TIP3   OH224164   2.936   1.194   2.514 -0.1316 -0.5667 -0.8225
 8067TIP3    H124165   2.917   1.270   2.568  1.0508  0.1384 -1.3549
 8067TIP3    H224166   2.931   1.226   2.424  1.1522 -0.9000 -1.0366
 8068TIP3   OH224167   1.965   4.407   2.098  0.2809 -0.1482  0.1533
 8068TIP3    H124168   1.971   4.313   2.118 -2.6791 -0.3366  0.7134
 8068TIP3    H224169   1.897   4.412   2.030  1.2755  1.5254 -0.7826
 8069TIP3   OH224170   1.899   4.907   5.634  0.0024 -0.3087 -0.6035
 8069TIP3    H124171   1.963   4.849   5.591  0.0164  0.0174 -1.0390
 8069TIP3    H224172   1.821   4.853   5.645  0.6485 -1.0066  0.8071
 8070TIP3   OH224173   5.096   2.418   5.603 -0.6157  0.1833 -0.3387
 8070TIP3    H124174   5.099   2.345   5.664  1.5811  1.2838  1.0143
 8070TIP3    H224175   5.009   2.456   5.614 -1.4553 -1.6238 -0.3988
 8071TIP3   OH224176   0.122   4.836   1.763  0.1349  0.3200 -0.1017
 8071TIP3    H124177   0.036   4.814   1.726  0.8900 -1.2819 -1.0076
 8071TIP3    H224178   0.120   4.931   1.773 -1.5361  0.3767 -0.6236
 8072TIP3   OH224179   1.708   6.030   5.887  0.4291 -0.0451 -0.1180
 8072TIP3    H124180   1.736   5.958   5.831  1.6895 -0.8684  1.4816
 8072TIP3    H224181   1.783   6.090   5.888  0.1334  0.3215  0.0979
 8073TIP3   OH224182   6.960   6.698   2.859 -0.4924 -0.3382 -0.3419
 8073TIP3    H124183   6.873   6.698   2.820  0.2844 -1.3051 -2.1859
 8073TIP3    H224184   6.990   6.607   2.852  0.6894 -0.0133  0.2103
 8074TIP3   OH224185   3.509   6.226   1.661 -0.8867  0.2572  0.4686
 8074TIP3    H124186   3.555   6.151   1.625 -0.7891  0.0279  1.0610
 8074TIP3    H224187   3.428   6.231   1.611 -0.1189  0.8228 -0.7561
 8075TIP3   OH224188   1.955   0.441   0.300 -0.0380  0.6189  0.1642
 8075TIP3    H124189   2.015   0.413   0.231  1.5256 -1.7556  2.3117
 8075TIP3    H224190   1.994   0.522   0.335  2.3957 -1.1437  1.8677
 8076TIP3   OH224191   1.131   1.128   3.050  0.4727 -0.2287  0.3885
 8076TIP3    H124192   1.126   1.221   3.030  1.3650 -0.2534  0.0174
 8076TIP3    H224193   1.081   1.085   2.981 -1.4096  0.0658  1.5022
 8077TIP3   OH224194   0.942   5.300   5.616  0.2604 -0.1013 -0.7390
 8077TIP3    H124195   0.957   5.214   5.656 -0.7911  0.0330  0.0059
 8077TIP3    H224196   0.852   5.294   5.582  0.2070  0.6680 -0.7470
 8078TIP3   OH224197   5.474   5.676   4.536  0.0422 -0.5811 -0.3227
 8078TIP3    H124198   5.526   5.738   4.588 -0.0298 -0.8808  0.1107
 8078TIP3    H224199   5.535   5.643   4.470 -0.3070  1.0954 -1.5621
 8079TIP3   OH224200   4.701   0.054   0.628  0.6927 -0.0872  0.3618
 8079TIP3    H124201   4.724  -0.027   0.583  0.7623 -1.2826  2.3997
 8079TIP3    H224202   4.676   0.115   0.558  0.8793 -1.7680 -1.2435
 8080TIP3   OH224203   3.291   4.376   2.269 -0.4369 -0.1297 -0.5649
 8080TIP3    H124204   3.202   4.409   2.260 -1.3478 -1.6327  1.9198
 8080TIP3    H224205   3.344   4.453   2.288 -2.0807  0.3943  2.6404
 8081TIP3   OH224206   4.788   2.753   3.069 -0.3250 -0.2707  0.7283
 8081TIP3    H124207   4.797   2.662   3.096 -1.8541 -0.7769 -0.3573
 8081TIP3    H224208   4.716   2.753   3.006  0.7789  1.4228 -0.6233
 8082TIP3   OH224209   3.376   1.822   0.981  0.3906  0.2033  0.2647
 8082TIP3    H124210   3.374   1.729   1.002  0.8958 -0.1899 -1.2813
 8082TIP3    H224211   3.433   1.860   1.048  1.2964 -0.8465  0.1327
 8083TIP3   OH224212   5.421   5.800   5.488 -0.0027 -0.0513 -0.0336
 8083TIP3    H124213   5.403   5.722   5.436 -0.2196 -0.2476  0.3291
 8083TIP3    H224214   5.448   5.866   5.424 -1.0641 -0.0432 -0.4926
 8084TIP3   OH224215   4.828   3.405   3.782 -0.2519  0.1119  0.1119
 8084TIP3    H124216   4.746   3.440   3.815 -0.2317  1.0724 -0.8123
 8084TIP3    H224217   4.892   3.423   3.851 -0.2019  2.1181 -0.4114
 8085TIP3   OH224218   0.298   4.678   4.889  0.0861 -0.1564  0.1251
 8085TIP3    H124219   0.380   4.728   4.894  0.9193 -1.5740  2.0402
 8085TIP3    H224220   0.310   4.620   4.814 -0.4083  1.6111 -1.3878
 8086TIP3   OH224221   1.936   3.667   2.822 -0.0316 -0.2472  0.0825
 8086TIP3    H124222   1.978   3.582   2.806  0.3674 -0.2490  1.0456
 8086TIP3    H224223   1.979   3.699   2.901 -1.0111  0.3177  0.3928
 8087TIP3   OH224224   5.078   1.882   3.807  0.1608 -0.1646  0.1396
 8087TIP3    H124225   5.085   1.836   3.723 -0.7303 -1.7403  0.8974
 8087TIP3    H224226   5.000   1.937   3.797 -0.6180 -1.2173  0.3144
 8088TIP3   OH224227   3.182   5.720   0.488 -0.2403 -0.5686 -0.3200
 8088TIP3    H124228   3.217   5.632   0.471  0.0921 -0.2807 -1.1927
 8088TIP3    H224229   3.088   5.707   0.496 -0.0369 -1.2811  1.5187
 8089TIP3   OH224230   6.403   2.572   0.261  0.0191  0.4487  0.3494
 8089TIP3    H124231   6.465   2.625   0.311 -0.3559  0.2418  1.0433
 8089TIP3    H224232   6.440   2.569   0.173  2.6133 -2.0571  1.3543
 8090TIP3   OH224233   0.098   1.642   3.223 -1.2391  0.0178  0.3904
 8090TIP3    H124234   0.112   1.555   3.185  1.9301  0.2552  0.7756
 8090TIP3    H224235   0.033   1.683   3.166  0.5884 -0.9803 -2.5959
 8091TIP3   OH224236   0.376   4.530   0.353 -0.2924  0.3217  0.3733
 8091TIP3    H124237   0.428   4.454   0.327 -1.1498 -0.6955  1.5088
 8091TIP3    H224238   0.285   4.499   0.348 -0.9165  2.1898 -2.0806
 8092TIP3   OH224239   3.996   2.430   3.796  0.9262 -0.0204 -0.2193
 8092TIP3    H124240   3.920   2.412   3.852  1.1684 -0.9086 -0.1537
 8092TIP3    H224241   4.027   2.515   3.826  0.5427 -0.0947  0.4323
 8093TIP3   OH224242   1.389   5.023   5.486 -0.1462  0.7211 -0.5859
 8093TIP3    H124243   1.450   5.081   5.532 -1.0365  1.2284 -0.0118
 8093TIP3    H224244   1.311   5.076   5.473 -0.8832 -0.2565 -0.2971
 8094TIP3   OH224245   2.393   1.513   5.312  0.5234  0.2811 -0.1508
 8094TIP3    H124246   2.437   1.495   5.229  0.5810  1.7134 -0.4554
 8094TIP3    H224247   2.300   1.502   5.293  0.6496 -2.7236  0.4875
 8095TIP3   OH224248   6.785   6.286   4.130  0.3444 -0.5757 -0.4880
 8095TIP3    H124249   6.759   6.335   4.052 -1.7144 -1.0239 -0.1581
 8095TIP3    H224250   6.860   6.333   4.165 -0.0564  0.9029 -1.5351
 8096TIP3   OH224251   2.614   5.608   3.724  0.6473 -0.0050 -0.0193
 8096TIP3    H124252   2.683   5.569   3.670  0.8093  1.1408 -0.6555
 8096TIP3    H224253   2.611   5.552   3.802  1.3290 -0.8878 -0.6079
 8097TIP3   OH224254   1.258   3.870   5.080 -0.2589 -0.2542 -0.0739
 8097TIP3    H124255   1.243   3.933   5.010  2.1858  0.4641 -0.0685
 8097TIP3    H224256   1.348   3.889   5.109  0.7623 -3.9737 -0.3178
 8098TIP3   OH224257   1.319   6.050   0.189  0.8609 -0.3562  0.3448
 8098TIP3    H124258   1.223   6.046   0.184  0.8507  0.2312 -0.0773
 8098TIP3    H224259   1.340   6.015   0.275  0.3369 -1.4598  0.0484
 8099TIP3   OH224260   5.508   0.252   1.001  0.0078 -0.4231  0.9680
 8099TIP3    H124261   5.450   0.280   1.072  0.4043  0.6562  0.8853
 8099TIP3    H224262   5.590   0.298   1.017 -0.2126  0.6747 -0.7288
 8100TIP3   OH224263   0.081   0.563   3.024  0.0813 -0.5402 -0.3897
 8100TIP3    H124264   0.048   0.483   2.983  1.3304 -2.1256  1.5045
 8100TIP3    H224265   0.034   0.568   3.107 -0.3922  1.0540 -0.7260
 8101TIP3   OH224266   4.383   2.550   3.129  0.4384 -0.2173 -0.5539
 8101TIP3    H124267   4.439   2.625   3.109 -1.7163  1.0491 -2.1577
 8101TIP3    H224268   4.316   2.585   3.188  0.4474 -1.3569  0.1741
 8102TIP3   OH224269   3.751   5.471   2.818  0.1797  0.0613  0.1560
 8102TIP3    H124270   3.819   5.430   2.764  0.9146 -0.9326  1.7723
 8102TIP3    H224271   3.730   5.552   2.771  1.0900 -0.5371 -1.3855
 8103TIP3   OH224272   0.420   3.782   2.937  0.6358 -0.4530 -0.0701
 8103TIP3    H124273   0.426   3.692   2.903  0.6756 -0.7247  0.6431
 8103TIP3    H224274   0.480   3.784   3.011  0.9849  0.3015 -0.3627
 8104TIP3   OH224275   0.637   1.826   0.800  0.0551  0.3545 -0.0061
 8104TIP3    H124276   0.651   1.851   0.709 -1.5968  0.2717 -0.3166
 8104TIP3    H224277   0.613   1.907   0.844  0.1731  0.2715  0.2150
 8105TIP3   OH224278   0.499   4.574   4.527  0.1853 -0.1372 -0.1476
 8105TIP3    H124279   0.408   4.554   4.549  0.8916 -2.2035  1.1505
 8105TIP3    H224280   0.525   4.640   4.592 -0.0583 -0.3995  0.2228
 8106TIP3   OH224281   6.659   4.247   3.336 -0.1512  0.0766 -0.0559
 8106TIP3    H124282   6.706   4.170   3.303  0.0315 -0.0551  0.5140
 8106TIP3    H224283   6.628   4.291   3.256  1.3013  0.4050 -0.4591
 8107TIP3   OH224284   3.473   2.529   1.826 -0.7102 -0.3175  0.6572
 8107TIP3    H124285   3.389   2.486   1.842 -0.1183 -2.0066 -0.5103
 8107TIP3    H224286   3.460   2.619   1.858 -2.6331 -0.7918  1.3705
 8108TIP3   OH224287   0.750   5.682   5.313 -0.3084  0.5507 -0.1956
 8108TIP3    H124288   0.803   5.746   5.361 -0.0114  0.7820 -0.8235
 8108TIP3    H224289   0.814   5.620   5.278 -0.7027 -1.1470  1.8840
 8109TIP3   OH224290   4.459   4.874   2.034 -0.1435  0.0257  0.6896
 8109TIP3    H124291   4.477   4.780   2.038 -1.7857 -0.2795  1.8811
 8109TIP3    H224292   4.397   4.890   2.105  0.7524  2.1912  1.0620
 8110TIP3   OH224293   3.795   1.315   2.751 -0.2116 -0.6158 -0.3419
 8110TIP3    H124294   3.722   1.355   2.799  0.0233 -2.1506  1.3830
 8110TIP3    H224295   3.859   1.386   2.743 -0.2713 -0.2718  1.6601
 8111TIP3   OH224296   6.908   0.748   3.392 -0.2164 -0.2757 -0.0952
 8111TIP3    H124297   6.949   0.739   3.306  1.9233  0.7464  0.7475
 8111TIP3    H224298   6.821   0.782   3.374 -0.8063 -2.5323 -1.9840
 8112TIP3   OH224299   3.525   0.310   4.742 -0.0620 -0.1853 -0.9794
 8112TIP3    H124300   3.451   0.324   4.800  0.4535 -0.5855 -0.2038
 8112TIP3    H224301   3.534   0.215   4.737  1.4911 -0.1720  0.4106
 8113TIP3   OH224302   4.429   0.731   5.130 -0.3035  0.2742 -0.1869
 8113TIP3    H124303   4.521   0.744   5.154 -0.3433  2.0026 -0.7927
 8113TIP3    H224304   4.402   0.816   5.093 -2.1283 -0.2065 -0.0560
 8114TIP3   OH224305   5.460   3.914   5.535 -0.0020  0.0698 -0.7937
 8114TIP3    H124306   5.452   3.880   5.625  0.4594  0.4850 -0.5905
 8114TIP3    H224307   5.494   3.840   5.485 -1.3369 -0.5148 -0.8682
 8115TIP3   OH224308   0.305   2.649   1.809 -0.2013 -0.0662 -0.6078
 8115TIP3    H124309   0.396   2.622   1.800 -0.4704 -0.4181 -2.7732
 8115TIP3    H224310   0.302   2.695   1.893  1.3678 -2.2646  0.7546
 8116TIP3   OH224311   1.542   3.370   3.524  0.1173  0.0576 -0.4581
 8116TIP3    H124312   1.477   3.401   3.461 -1.4085 -0.3716  0.8197
 8116TIP3    H224313   1.585   3.297   3.481 -0.4049  0.2068 -1.2508
 8117TIP3   OH224314   7.097   5.131   4.930  1.1566  0.2797  0.2488
 8117TIP3    H124315   7.125   5.043   4.955  0.8543 -0.4570 -1.8155
 8117TIP3    H224316   7.027   5.152   4.992  1.7507 -0.5941  1.2529
 8118TIP3   OH224317   0.720   6.363   3.668 -0.4288 -0.0458 -0.0983
 8118TIP3    H124318   0.718   6.414   3.749 -1.9589  0.3007 -0.3429
 8118TIP3    H224319   0.754   6.277   3.696  2.9595  1.2083  0.1770
 8119TIP3   OH224320   5.185   0.632   5.677 -0.0810 -0.4582  0.3426
 8119TIP3    H124321   5.258   0.694   5.676 -0.0134 -0.5459 -0.3027
 8119TIP3    H224322   5.161   0.626   5.769 -2.5691  3.4029  0.1837
 8120TIP3   OH224323   0.113   0.200   0.811  0.5002 -0.5736 -0.0256
 8120TIP3    H124324   0.187   0.147   0.839  1.0749 -0.9500 -2.0924
 8120TIP3    H224325   0.044   0.137   0.792 -1.0807 -0.1423  3.5922
 8121TIP3   OH224326   4.807   2.621   3.393  0.4597  0.6282  0.0460
 8121TIP3    H124327   4.874   2.622   3.325 -0.4093 -1.2178 -0.9266
 8121TIP3    H224328   4.837   2.555   3.456 -0.7832 -0.9102 -0.8760
 8122TIP3   OH224329   4.121   5.837   5.784  0.7651 -0.3800  0.3183
 8122TIP3    H124330   4.212   5.864   5.800  1.6637 -1.9381 -1.6777
 8122TIP3    H224331   4.104   5.768   5.847  0.4038  0.9319  1.7021
 8123TIP3   OH224332   6.067   1.010   4.271 -0.1025 -0.1553 -0.3593
 8123TIP3    H124333   6.018   1.008   4.353 -1.5518 -1.0003 -1.1813
 8123TIP3    H224334   6.085   0.917   4.252  0.9640  0.0848 -0.5746
 8124TIP3   OH224335   3.136   5.007   4.544 -0.3880  0.4172  0.2360
 8124TIP3    H124336   3.074   5.076   4.518  0.4286  0.2403 -2.4645
 8124TIP3    H224337   3.193   4.996   4.468  1.3368 -1.2494  1.6807
 8125TIP3   OH224338   3.275   3.617   4.051  0.3091  0.1749 -0.3320
 8125TIP3    H124339   3.184   3.643   4.067 -0.1002 -0.7003 -1.1402
 8125TIP3    H224340   3.319   3.698   4.027  0.0604  0.8380  1.3642
 8126TIP3   OH224341   6.547   1.454   3.282 -0.3984  0.1269 -0.0348
 8126TIP3    H124342   6.505   1.436   3.198 -0.8842 -1.3291  0.4980
 8126TIP3    H224343   6.585   1.371   3.308 -1.2598  0.2478  1.7318
 8127TIP3   OH224344   4.016   4.521   2.443 -0.0116 -0.0564 -0.0168
 8127TIP3    H124345   3.961   4.595   2.415  0.3120  0.5099  0.7903
 8127TIP3    H224346   3.958   4.467   2.497 -0.0293  0.0442  0.0655
 8128TIP3   OH224347   1.149   3.411   2.666  0.2483 -0.1936  0.0174
 8128TIP3    H124348   1.195   3.486   2.629 -0.6276  0.6289  0.5543
 8128TIP3    H224349   1.192   3.396   2.751 -0.1897  0.3206  0.3383
 8129TIP3   OH224350   3.354   1.835   3.947  0.1798  0.2302  0.0605
 8129TIP3    H124351   3.409   1.821   3.870 -0.2885  3.0729 -0.9148
 8129TIP3    H224352   3.272   1.868   3.912  0.2317  2.4141  1.7508
 8130TIP3   OH224353   6.196   0.733   0.149 -0.0427  0.0554  0.2971
 8130TIP3    H124354   6.133   0.706   0.082  0.5140  1.2765 -0.7632
 8130TIP3    H224355   6.271   0.767   0.099 -0.8572  4.0108  1.4083
 8131TIP3   OH224356   2.671   5.547   4.886  0.0779 -0.5645  0.1357
 8131TIP3    H124357   2.742   5.482   4.883 -1.6030 -2.4609 -2.3148
 8131TIP3    H224358   2.716   5.631   4.897  2.7004 -1.7150 -0.9444
 8132TIP3   OH224359   4.563   2.320   3.456 -0.7307  0.0905 -0.0594
 8132TIP3    H124360   4.632   2.361   3.508 -1.1069  0.2817  0.2980
 8132TIP3    H224361   4.584   2.342   3.365 -1.7591  2.4144  0.1970
 8133TIP3   OH224362   5.772   6.199   0.840  0.3575  0.2476  0.4064
 8133TIP3    H124363   5.688   6.153   0.833  1.0078 -0.7660 -1.8810
 8133TIP3    H224364   5.760   6.279   0.788  0.3481  0.8820  1.3680
 8134TIP3   OH224365   3.422   4.928   4.759 -0.6421 -0.1245 -0.3880
 8134TIP3    H124366   3.452   4.856   4.703 -1.2556  0.9451 -2.1538
 8134TIP3    H224367   3.463   5.006   4.723 -2.1466  0.7824 -0.2206
 8135TIP3   OH224368   6.351   1.203   3.798 -0.3944 -0.2354 -0.4748
 8135TIP3    H124369   6.287   1.153   3.848  1.3577 -2.5888 -0.3520
 8135TIP3    H224370   6.369   1.148   3.721  1.9569 -0.0639 -0.1362
 8136TIP3   OH224371   5.676   1.257   4.985 -0.3925  0.1447 -0.0281
 8136TIP3    H124372   5.659   1.346   5.017  1.4709  1.0244 -1.2930
 8136TIP3    H224373   5.713   1.212   5.061  0.4633  1.0703  0.1388
 8137TIP3   OH224374   2.903   3.975   1.880 -0.1613  0.6359  0.9855
 8137TIP3    H124375   2.919   3.882   1.871  0.4429  0.8017  0.2570
 8137TIP3    H224376   2.810   3.982   1.904 -0.6909 -0.0703 -0.7732
 8138TIP3   OH224377   2.699   3.614   1.641 -0.0853 -0.0435  0.5255
 8138TIP3    H124378   2.685   3.678   1.711 -1.7273  0.9469 -0.6206
 8138TIP3    H224379   2.740   3.664   1.571  0.7730 -0.8252  0.4540
 8139TIP3   OH224380   0.268   1.576   4.440 -0.1418  0.3429 -0.1648
 8139TIP3    H124381   0.279   1.663   4.401 -1.4971  0.9698  0.8099
 8139TIP3    H224382   0.343   1.566   4.498 -0.2912  1.1070  0.1635
 8140TIP3   OH224383   1.419   1.684   4.757 -0.1647  0.5568  0.3133
 8140TIP3    H124384   1.337   1.653   4.795 -0.6156  0.1934 -0.9374
 8140TIP3    H224385   1.422   1.646   4.670  1.9083 -0.4143  0.7439
 8141TIP3   OH224386   2.823   3.461   1.115  0.8299  0.3757  0.2341
 8141TIP3    H124387   2.728   3.468   1.128  0.6459 -0.9914 -0.2406
 8141TIP3    H224388   2.832   3.429   1.025  1.7349  0.0781  0.4301
 8142TIP3   OH224389   2.014   1.540   5.547 -0.1717  0.1787 -0.8029
 8142TIP3    H124390   2.058   1.488   5.480 -0.1677 -0.8684 -0.0143
 8142TIP3    H224391   1.963   1.477   5.597 -2.4693  1.3266 -1.5570
 8143TIP3   OH224392   3.941   1.026   4.038  0.5888 -0.4143 -0.5471
 8143TIP3    H124393   4.008   1.092   4.055 -0.5086  0.2541  1.6868
 8143TIP3    H224394   3.902   1.052   3.955  2.1282 -0.0138 -1.1852
 8144TIP3   OH224395   3.087   1.254   3.756 -0.2322 -0.2676 -0.4120
 8144TIP3    H124396   3.027   1.231   3.827 -0.6933  0.9235 -0.3984
 8144TIP3    H224397   3.047   1.331   3.714  0.1279 -0.8205 -1.8401
 8145TIP3   OH224398   3.194   0.334   5.214 -0.6843 -0.2681 -0.0848
 8145TIP3    H124399   3.201   0.238   5.209 -0.8117 -0.3127  0.6205
 8145TIP3    H224400   3.100   0.352   5.211 -0.6861 -0.1976  0.4003
 8146TIP3   OH224401   2.781   1.895   5.833 -0.3957  0.5395 -0.4349
 8146TIP3    H124402   2.720   1.892   5.907  0.6713 -3.5188  0.5534
 8146TIP3    H224403   2.725   1.901   5.756 -1.7919  0.9255  0.5696
 8147TIP3   OH224404   1.411   3.020   2.351 -0.2649  0.4480 -0.3191
 8147TIP3    H124405   1.399   3.011   2.257  1.4204 -1.2078 -0.4371
 8147TIP3    H224406   1.505   3.038   2.361 -0.0658 -1.1895  1.1049
 8148TIP3   OH224407   4.878   1.727   5.424  0.1012 -0.5105  0.3513
 8148TIP3    H124408   4.887   1.816   5.391  3.1335 -0.2852  1.4539
 8148TIP3    H224409   4.897   1.733   5.517  1.1232 -2.3658  0.3311
 8149TIP3   OH224410   2.102   6.537   5.040 -0.0385  0.3835 -0.6099
 8149TIP3    H124411   2.132   6.544   4.949  0.4144 -0.6479 -0.5606
 8149TIP3    H224412   2.134   6.616   5.082 -0.4541  0.9881 -1.3995
 8150TIP3   OH224413   3.901   2.251   1.588  0.3947 -0.3885 -0.0846
 8150TIP3    H124414   3.887   2.282   1.677  0.2262 -0.4663 -0.0832
 8150TIP3    H224415   3.864   2.319   1.532 -0.0364 -0.6148 -0.0798
 8151TIP3   OH224416   1.330   0.897   3.476  0.2147  0.0894 -0.7599
 8151TIP3    H124417   1.317   0.934   3.389 -1.4090 -0.9820 -1.0274
 8151TIP3    H224418   1.340   0.973   3.533  1.7961  0.7953 -1.9181
 8152TIP3   OH224419   6.258   3.731   1.520 -0.5056  0.3460 -0.0367
 8152TIP3    H124420   6.324   3.799   1.529 -0.8893  0.7988 -0.6151
 8152TIP3    H224421   6.183   3.763   1.570 -0.9768  0.7383 -0.9601
 8153TIP3   OH224422   4.802   3.963   2.181  0.1346 -0.2220  0.3436
 8153TIP3    H124423   4.865   3.973   2.252  0.8956 -2.2102 -0.0085
 8153TIP3    H224424   4.839   4.012   2.108  0.0124  0.6907  0.8781
 8154TIP3   OH224425   3.225   2.088   2.037 -0.2339  0.2331  0.5292
 8154TIP3    H124426   3.136   2.097   2.071 -0.3060  0.3821  0.3002
 8154TIP3    H224427   3.259   2.009   2.080 -1.2324 -1.1191 -1.0571
 8155TIP3   OH224428   4.492   2.408   1.296  0.2787  0.1544 -0.2902
 8155TIP3    H124429   4.511   2.398   1.389  0.8294 -0.5227 -0.4702
 8155TIP3    H224430   4.401   2.438   1.294 -0.0112 -0.6261  0.4446
 8156TIP3   OH224431   3.319   1.103   3.708  0.3591  1.0403  0.1041
 8156TIP3    H124432   3.236   1.149   3.696  0.6370  1.4561 -0.2527
 8156TIP3    H224433   3.359   1.100   3.621 -0.1370 -0.8492 -0.1119
 8157TIP3   OH224434   3.326   2.938   0.542  0.1576  0.5263 -0.4137
 8157TIP3    H124435   3.362   2.873   0.603  1.6144 -0.2197 -1.9911
 8157TIP3    H224436   3.259   2.890   0.494 -0.3531  0.8588 -0.0434
 8158TIP3   OH224437   1.335   4.801   0.298 -0.1325 -0.4560  0.0536
 8158TIP3    H124438   1.305   4.876   0.247 -2.3744 -0.8763  0.6116
 8158TIP3    H224439   1.377   4.744   0.234  0.9339  0.8937 -0.5055
 8159TIP3   OH224440   1.970   0.118   5.849 -0.3304 -0.1250 -0.6762
 8159TIP3    H124441   1.996   0.208   5.866 -1.7625  0.4768 -1.4971
 8159TIP3    H224442   1.981   0.106   5.755 -1.2257 -0.4262 -0.7552
 8160TIP3   OH224443   6.181   4.118   1.654 -0.3839  0.6786  0.5383
 8160TIP3    H124444   6.264   4.132   1.608  0.1045  0.0604  1.2217
 8160TIP3    H224445   6.118   4.171   1.605  0.4052  1.1428  0.0032
 8161TIP3   OH224446   5.248   0.322   0.611  0.4295 -0.0357 -0.0586
 8161TIP3    H124447   5.295   0.373   0.677  1.5560 -1.1864  0.0677
 8161TIP3    H224448   5.298   0.241   0.603 -1.3619 -1.1885 -0.1869
 8162TIP3   OH224449   5.843   3.249   2.208 -0.6218 -0.0081 -0.6110
 8162TIP3    H124450   5.853   3.290   2.122  1.6412 -0.4615 -0.6215
 8162TIP3    H224451   5.758   3.206   2.205 -1.6306  1.9372 -1.7493
 8163TIP3   OH224452   3.850   4.891   0.755 -0.1263 -0.7963  0.2297
 8163TIP3    H124453   3.767   4.842   0.757 -0.9382  0.4988 -0.3880
 8163TIP3    H224454   3.845   4.950   0.830 -0.2195 -0.0327 -0.3615
 8164TIP3   OH224455   2.876   1.405   4.347 -0.4297  0.0931 -0.1758
 8164TIP3    H124456   2.867   1.454   4.429 -2.7273  1.2853 -1.0483
 8164TIP3    H224457   2.801   1.345   4.347 -0.0643 -0.3757 -1.0781
 8165TIP3   OH224458   7.210   4.164   1.640 -0.0863  0.0416 -0.5766
 8165TIP3    H124459   7.157   4.158   1.560  0.3769 -4.0855 -0.7893
 8165TIP3    H224460   7.147   4.156   1.711 -0.1943  0.2375 -0.6498
 8166TIP3   OH224461   6.422   4.144   0.066 -0.1318 -0.0849 -0.1425
 8166TIP3    H124462   6.458   4.167   0.151  1.3298  0.2571 -0.8312
 8166TIP3    H224463   6.482   4.183   0.003 -0.5394 -1.3311 -1.3437
 8167TIP3   OH224464   2.229   1.713   0.846 -0.1487 -0.4700  0.1525
 8167TIP3    H124465   2.156   1.653   0.834  0.3966 -1.0392 -0.3519
 8167TIP3    H224466   2.276   1.679   0.922  2.1885 -2.8176 -2.1710
 8168TIP3   OH224467   3.495   2.240   2.048  0.5512 -0.1358  0.1431
 8168TIP3    H124468   3.556   2.231   1.975  0.2954 -0.4449 -0.0366
 8168TIP3    H224469   3.414   2.200   2.016  0.3233  0.0716  0.4586
 8169TIP3   OH224470   6.333   2.931   4.304 -0.8232 -0.5127 -0.0784
 8169TIP3    H124471   6.339   2.840   4.276  0.0327 -0.5498  0.2109
 8169TIP3    H224472   6.420   2.952   4.338 -1.4106 -0.0031  1.1605
 8170TIP3   OH224473   5.701   3.043   5.285  0.0538 -0.2019 -0.1716
 8170TIP3    H124474   5.632   3.082   5.232 -0.2370 -0.0086  0.3451
 8170TIP3    H224475   5.757   3.117   5.310 -1.3376  0.1867  2.0805
 8171TIP3   OH224476   2.192   0.056   1.404 -0.3296  0.0416 -0.2209
 8171TIP3    H124477   2.224   0.102   1.482  1.3150 -2.4691  0.7234
 8171TIP3    H224478   2.234   0.101   1.331  3.4659 -1.3386  0.8253
 8172TIP3   OH224479   3.312   2.129   2.665  0.2854  0.3752  0.6921
 8172TIP3    H124480   3.326   2.194   2.733  0.7696  0.4848  0.4905
 8172TIP3    H224481   3.289   2.049   2.713  2.0446  0.0669  1.0785
 8173TIP3   OH224482   2.207   4.921   4.642 -0.3177 -0.2553 -0.4509
 8173TIP3    H124483   2.259   4.994   4.609  0.4753  0.5248  2.2663
 8173TIP3    H224484   2.167   4.954   4.722 -1.7417 -2.1410 -0.3073
 8174TIP3   OH224485   6.636   0.795   3.980  0.0558 -0.1681 -0.2655
 8174TIP3    H124486   6.688   0.728   3.935 -0.9337 -0.5377 -0.9028
 8174TIP3    H224487   6.700   0.849   4.025  1.1866  0.6909 -2.7266
 8175TIP3   OH224488   1.453   0.237   2.152  0.5421  0.5485  0.4254
 8175TIP3    H124489   1.522   0.181   2.117  0.7410  1.0202  0.0428
 8175TIP3    H224490   1.397   0.178   2.201 -0.0237 -0.2368 -1.1013
 8176TIP3   OH224491   1.290   1.799   1.159  0.1302 -0.4184 -0.5629
 8176TIP3    H124492   1.329   1.718   1.191 -0.5570 -0.4430  0.2559
 8176TIP3    H224493   1.200   1.776   1.138 -0.6458  0.5077  1.4748
 8177TIP3   OH224494   1.428   5.117   5.218 -0.5331 -0.1373  0.0581
 8177TIP3    H124495   1.510   5.163   5.235 -1.5228  1.1061  1.6950
 8177TIP3    H224496   1.409   5.071   5.300 -2.0711  0.5868  0.1373
 8178TIP3   OH224497   4.680   0.902   2.317 -0.3830 -0.0657 -0.4166
 8178TIP3    H124498   4.691   0.877   2.225 -2.6964  1.7011 -1.2845
 8178TIP3    H224499   4.657   0.820   2.361 -0.4628 -0.7532 -1.6651
 8179TIP3   OH224500   2.437   2.623   1.794 -0.0990  0.5576 -0.0496
 8179TIP3    H124501   2.344   2.630   1.774  0.0968 -2.2596 -2.7283
 8179TIP3    H224502   2.440   2.587   1.882 -1.4727  2.1074  0.6731
 8180TIP3   OH224503   1.080   5.382   2.518 -0.4419 -0.3002 -0.2340
 8180TIP3    H124504   0.990   5.369   2.488  0.4723 -0.3888 -3.2427
 8180TIP3    H224505   1.110   5.295   2.543 -0.4506 -0.6934 -1.5497
 8181TIP3   OH224506   2.289   2.029   2.568  0.3226  0.4630 -0.4118
 8181TIP3    H124507   2.239   2.036   2.487 -2.5760  1.7918  1.3042
 8181TIP3    H224508   2.248   2.093   2.627  2.7575  0.0987  1.8844
 8182TIP3   OH224509   7.170   0.155   0.195  0.8246  0.1330 -0.4136
 8182TIP3    H124510   7.161   0.224   0.261  0.1922 -0.3393 -0.0034
 8182TIP3    H224511   7.229   0.091   0.235  1.1908  0.2890 -0.6890
 8183TIP3   OH224512   0.556   3.081   5.210 -0.0165  0.5022 -0.0591
 8183TIP3    H124513   0.573   2.987   5.211  3.2606  0.9838  0.2036
 8183TIP3    H224514   0.595   3.111   5.128  0.9359  1.8848  0.8598
 8184TIP3   OH224515   3.750   0.863   3.747 -0.0632  0.1036 -0.0974
 8184TIP3    H124516   3.674   0.870   3.688 -0.2819  2.1397  0.3399
 8184TIP3    H224517   3.808   0.934   3.720  0.5760  0.0709  1.1203
 8185TIP3   OH224518   1.302   3.015   1.353  0.5282 -0.2175 -0.3816
 8185TIP3    H124519   1.298   2.963   1.434  0.9862 -0.4428 -0.4975
 8185TIP3    H224520   1.233   2.978   1.298  0.3977 -0.2485 -0.2010
 8186TIP3   OH224521   2.748   4.585   1.619 -0.3986  0.1628  0.2114
 8186TIP3    H124522   2.746   4.610   1.527  1.7134  0.6103  0.2248
 8186TIP3    H224523   2.719   4.493   1.619  0.7189 -0.2313 -1.0848
 8187TIP3   OH224524   0.260   6.487   0.033  0.3358  0.3615  0.5964
 8187TIP3    H124525   0.307   6.488  -0.050 -0.1623  0.2514  0.3113
 8187TIP3    H224526   0.288   6.567   0.077  0.4193  0.5418  0.2236
 8188TIP3   OH224527   3.373   0.931   1.367  0.2255  0.4528  0.1157
 8188TIP3    H124528   3.366   1.022   1.397 -0.4945  0.7330 -0.8500
 8188TIP3    H224529   3.421   0.936   1.285 -0.6805  0.0953 -0.4572
 8189TIP3   OH224530   5.718   5.291   4.447 -0.7172 -0.2147  1.0040
 8189TIP3    H124531   5.799   5.340   4.455 -0.7036 -0.2395  1.0197
 8189TIP3    H224532   5.735   5.209   4.494 -0.0818 -1.0623 -0.6319
 8190TIP3   OH224533   2.031   0.452   1.637 -0.3997 -0.2466 -0.2513
 8190TIP3    H124534   2.074   0.369   1.616 -1.2729 -1.3102  1.9573
 8190TIP3    H224535   1.958   0.457   1.575 -0.4221 -1.1829 -0.3128
 8191TIP3   OH224536   5.747   4.285   4.139 -0.6137  0.1954  0.2068
 8191TIP3    H124537   5.763   4.347   4.209 -1.5158 -0.4324  0.9938
 8191TIP3    H224538   5.678   4.325   4.086  0.2981  0.8201 -0.5336
 8192TIP3   OH224539   0.826   2.762   2.342 -0.1265  0.0793  0.1739
 8192TIP3    H124540   0.887   2.798   2.277 -0.4468  0.0799 -0.1230
 8192TIP3    H224541   0.882   2.712   2.401  0.0293 -0.7935 -0.7026
 8193TIP3   OH224542   1.975   0.252   2.468 -0.1193 -0.2152  0.3158
 8193TIP3    H124543   1.985   0.311   2.393 -0.0597 -0.8886 -0.2215
 8193TIP3    H224544   1.899   0.286   2.515 -0.4764 -0.0801 -0.3444
 8194TIP3   OH224545   1.177   6.119   2.457  0.5495 -0.3508 -0.5183
 8194TIP3    H124546   1.166   6.046   2.518  3.3641 -0.7240 -0.3204
 8194TIP3    H224547   1.225   6.080   2.383  1.5228  1.1153 -0.6939
 8195TIP3   OH224548   5.264   4.502   5.348 -0.3422 -0.6406 -0.3686
 8195TIP3    H124549   5.222   4.501   5.262  0.2309  0.8852 -0.7051
 8195TIP3    H224550   5.321   4.579   5.345 -0.4501 -0.4647  1.4429
 8196TIP3   OH224551   3.714   3.813   4.918  0.1064  0.3204 -0.3660
 8196TIP3    H124552   3.774   3.885   4.938  3.3892 -2.8152  2.4922
 8196TIP3    H224553   3.740   3.784   4.831  0.7820  0.7684 -0.3274
 8197TIP3   OH224554   5.393   3.266   1.387 -0.3498 -0.7455  0.3658
 8197TIP3    H124555   5.474   3.216   1.386  0.7323  0.7453 -3.5219
 8197TIP3    H224556   5.419   3.354   1.413 -0.0416  0.3867 -3.2267
 8198TIP3   OH224557   0.693   1.482   4.160  1.2999 -0.0009 -0.2277
 8198TIP3    H124558   0.623   1.421   4.137  0.1329  1.9554 -2.1734
 8198TIP3    H224559   0.680   1.498   4.254  0.2736 -1.0458 -0.1655
 8199TIP3   OH224560   0.843   3.621   0.697  0.2749 -0.1995  0.0699
 8199TIP3    H124561   0.879   3.692   0.751 -0.8534  0.9454 -0.6078
 8199TIP3    H224562   0.777   3.580   0.753  0.1269  0.0308  0.0632
 8200TIP3   OH224563   7.085   0.425   3.497  0.0663  0.0089  0.5302
 8200TIP3    H124564   7.172   0.465   3.497  0.1590  0.0060 -2.0255
 8200TIP3    H224565   7.102   0.332   3.514  0.4985  0.1230  0.7305
 8201TIP3   OH224566   3.216   5.453   3.623 -0.0712  0.8472 -0.2061
 8201TIP3    H124567   3.229   5.430   3.531 -2.3160  0.4026 -0.4574
 8201TIP3    H224568   3.251   5.541   3.630  0.1575  0.8818 -1.4897
 8202TIP3   OH224569   4.576   5.111   1.923 -0.4631  0.5079 -0.1141
 8202TIP3    H124570   4.513   5.062   1.976 -0.8595  0.5998 -0.4879
 8202TIP3    H224571   4.568   5.201   1.953  1.5001  0.1238  1.7750
 8203TIP3   OH224572   1.470   1.004   3.818 -0.3017 -0.0277 -0.0177
 8203TIP3    H124573   1.511   1.010   3.732  0.1554 -0.3080  0.1752
 8203TIP3    H224574   1.436   1.092   3.834 -1.5191 -0.2931 -1.0183
 8204TIP3   OH224575   2.199   2.541   5.365  0.6389 -0.5478  0.8042
 8204TIP3    H124576   2.234   2.532   5.454  1.2961 -1.8822  0.4314
 8204TIP3    H224577   2.247   2.615   5.328  1.2441 -0.7671  1.1427
 8205TIP3   OH224578   3.422   0.174   5.667 -0.5467 -0.3268 -0.2861
 8205TIP3    H124579   3.509   0.178   5.627 -0.4613 -0.8688 -0.1569
 8205TIP3    H224580   3.439   0.184   5.761 -0.7582  1.0895 -0.3783
 8206TIP3   OH224581   4.671   0.847   5.203 -0.4565  0.0465  0.1909
 8206TIP3    H124582   4.678   0.925   5.148 -0.0545  0.1751  0.4202
 8206TIP3    H224583   4.754   0.802   5.191  0.4950  1.1086  2.2261
 8207TIP3   OH224584   5.570  -0.004   3.791 -0.0994 -0.4124  0.7852
 8207TIP3    H124585   5.588   0.040   3.874 -0.2995  0.3755  0.4230
 8207TIP3    H224586   5.651   0.006   3.741 -0.4644  0.4308  0.3299
 8208TIP3   OH224587   5.701   2.052   2.644  0.7188  0.2482 -0.0339
 8208TIP3    H124588   5.617   2.060   2.690  1.2322  1.3099  0.7704
 8208TIP3    H224589   5.679   2.010   2.561 -0.1157 -2.7617  1.5536
 8209TIP3   OH224590   2.287   0.802   2.200 -0.3808  0.6631 -0.6702
 8209TIP3    H124591   2.368   0.826   2.244 -0.2987  0.2891 -0.6107
 8209TIP3    H224592   2.296   0.708   2.183 -1.2312  0.3883  0.2770
 8210TIP3   OH224593   3.382   5.540   4.220 -0.1062  0.1081  0.6233
 8210TIP3    H124594   3.421   5.617   4.262 -0.3508  1.1968 -1.0649
 8210TIP3    H224595   3.294   5.569   4.196  0.9847  0.6694 -3.3568
 8211TIP3   OH224596   4.381   2.431   2.456  0.2950 -0.3354 -0.1026
 8211TIP3    H124597   4.324   2.428   2.378 -3.5088 -0.2357  2.4229
 8211TIP3    H224598   4.443   2.359   2.442 -0.5369 -0.6553 -2.9837
 8212TIP3   OH224599   4.534   5.537   2.660  0.5864  0.5506  0.4066
 8212TIP3    H124600   4.581   5.475   2.716  1.7644  2.5811  1.7749
 8212TIP3    H224601   4.596   5.558   2.591  0.7006  1.1910  0.6962
 8213TIP3   OH224602   1.193   6.366   3.612  0.0814  0.1416 -0.4686
 8213TIP3    H124603   1.203   6.381   3.706  0.8768 -0.8418 -0.3803
 8213TIP3    H224604   1.106   6.402   3.592 -0.2170  0.1286  0.6898
 8214TIP3   OH224605   6.009   5.775   1.372 -0.4022 -0.2726 -0.4454
 8214TIP3    H124606   5.953   5.716   1.322  1.2630 -1.1272 -1.3612
 8214TIP3    H224607   6.078   5.800   1.311  0.3878  0.5206  0.7443
 8215TIP3   OH224608   3.896   1.516   4.155 -0.4623  0.2293  0.0759
 8215TIP3    H124609   3.883   1.600   4.200  0.4937  0.3935  0.0803
 8215TIP3    H224610   3.815   1.468   4.169 -0.4576  0.5636  1.3871
 8216TIP3   OH224611   6.794   6.305   1.722  0.0816 -0.2842 -0.0742
 8216TIP3    H124612   6.771   6.275   1.634 -0.5781 -0.5314  0.1826
 8216TIP3    H224613   6.787   6.227   1.777 -2.5744  0.4839  0.7814
 8217TIP3   OH224614   1.389   1.520   2.429  0.2785  0.3326 -0.6072
 8217TIP3    H124615   1.355   1.608   2.412  0.6660  0.2582 -1.8468
 8217TIP3    H224616   1.311   1.466   2.441  0.0110  1.1743  2.2881
 8218TIP3   OH224617   6.153   4.244   1.908 -0.1779 -0.7299  0.1994
 8218TIP3    H124618   6.152   4.243   1.812  0.2132  2.3400  0.0693
 8218TIP3    H224619   6.245   4.227   1.930 -0.0414 -0.2700 -0.0123
 8219TIP3   OH224620   0.138   6.704   2.354  0.3357 -0.3799  0.2311
 8219TIP3    H124621   0.121   6.733   2.444 -1.9027  0.7163 -0.4787
 8219TIP3    H224622   0.178   6.780   2.311  0.9300 -0.7357  0.1338
 8220TIP3   OH224623   4.407   2.724   5.239 -0.1714 -0.1990  0.6278
 8220TIP3    H124624   4.410   2.687   5.151 -0.8574  1.0296  0.0659
 8220TIP3    H224625   4.367   2.810   5.228 -0.2230  0.0017  2.1368
 8221TIP3   OH224626   6.082   1.224   2.132  0.1177 -0.4549  0.0565
 8221TIP3    H124627   6.098   1.153   2.195 -0.7006  0.6331  1.5722
 8221TIP3    H224628   6.007   1.195   2.081  0.7014 -1.2994 -0.3286
 8222TIP3   OH224629   0.201   5.795   2.461 -0.0406 -0.1681  0.3687
 8222TIP3    H124630   0.164   5.710   2.485  0.5926 -1.0887 -1.6830
 8222TIP3    H224631   0.126   5.847   2.434 -0.2610 -0.7594 -0.2001
 8223TIP3   OH224632   0.135   0.338   3.674  0.3699  0.1088  0.2239
 8223TIP3    H124633   0.129   0.425   3.635  3.6895  0.2168 -0.3146
 8223TIP3    H224634   0.167   0.354   3.763  1.4481 -0.5377 -0.0324
 8224TIP3   OH224635   4.983   3.015   2.221 -0.1955  0.4959 -0.5879
 8224TIP3    H124636   4.979   2.958   2.144  0.0056 -1.2191  0.5985
 8224TIP3    H224637   4.960   2.957   2.294 -0.6288  2.1237  0.6162
 8225TIP3   OH224638   5.633   3.691   2.693  0.1149 -0.0907 -0.1533
 8225TIP3    H124639   5.629   3.756   2.763 -0.4415  0.1711 -0.4229
 8225TIP3    H224640   5.666   3.612   2.735 -0.6803 -0.0749  0.5117
 8226TIP3   OH224641   3.329   1.672   1.707 -0.3710 -0.0331 -0.3887
 8226TIP3    H124642   3.419   1.677   1.674 -0.3638 -1.5205 -0.6853
 8226TIP3    H224643   3.337   1.692   1.800  0.4906 -1.4010 -0.1364
 8227TIP3   OH224644   4.338   3.579   0.508 -0.0730 -0.2658  0.0382
 8227TIP3    H124645   4.293   3.658   0.479 -1.7837 -1.5022 -0.9070
 8227TIP3    H224646   4.430   3.595   0.487 -0.2357  1.7840  0.6764
 8228TIP3   OH224647   6.396   3.014   2.800  0.1490 -0.4653 -0.4706
 8228TIP3    H124648   6.385   2.975   2.887  0.8147  1.6061  0.6302
 8228TIP3    H224649   6.373   3.106   2.813 -0.5308 -0.2705 -2.7100
 8229TIP3   OH224650   6.435   5.721   3.133 -0.0857  0.0459  0.0296
 8229TIP3    H124651   6.472   5.772   3.205  0.4629  0.2086 -0.3673
 8229TIP3    H224652   6.417   5.635   3.171  0.2819  0.1047  0.3351
 8230TIP3   OH224653   1.170   0.032   5.179 -0.9789  0.2344 -0.1096
 8230TIP3    H124654   1.121   0.085   5.242  0.0436  0.5369  0.4523
 8230TIP3    H224655   1.249   0.082   5.162 -0.5320 -0.5721 -0.4616
 8231TIP3   OH224656   0.851   6.372   5.163 -0.2154  0.1348 -0.1638
 8231TIP3    H124657   0.880   6.286   5.194  0.1004  0.5186  0.6317
 8231TIP3    H224658   0.827   6.357   5.072 -1.3021 -1.0566  0.2891
 8232TIP3   OH224659   1.871   4.453   5.246  0.2413  0.5450  0.1455
 8232TIP3    H124660   1.932   4.519   5.215 -0.4175 -0.2921 -3.2634
 8232TIP3    H224661   1.926   4.379   5.270  0.7225  0.8303 -0.0701
 8233TIP3   OH224662   1.374   2.355   5.567  0.0571  0.1509  0.0371
 8233TIP3    H124663   1.433   2.396   5.630  0.6499  0.5378 -0.7492
 8233TIP3    H224664   1.311   2.424   5.544  0.1201  0.1499 -0.1370
 8234TIP3   OH224665   6.430   3.695   5.743 -0.0181 -0.4697  0.0076
 8234TIP3    H124666   6.468   3.631   5.804  0.6352 -0.5822 -0.5067
 8234TIP3    H224667   6.360   3.646   5.699  1.6750 -1.4682 -1.7319
 8235TIP3   OH224668   0.653   0.845   0.862 -0.2579  0.0839 -0.0911
 8235TIP3    H124669   0.660   0.894   0.944  1.4567 -0.1354 -0.0886
 8235TIP3    H224670   0.652   0.753   0.890 -0.8037  0.0276 -0.2718
 8236TIP3   OH224671   2.227   5.334   5.751 -0.0496 -0.1135  0.8774
 8236TIP3    H124672   2.185   5.249   5.741  0.3754 -0.0593 -1.9862
 8236TIP3    H224673   2.306   5.329   5.697 -0.3363  2.2681  0.1274
 8237TIP3   OH224674   3.990   2.846   3.348  0.3338  0.0086  0.2843
 8237TIP3    H124675   3.907   2.885   3.321  0.5408  1.2550  1.3619
 8237TIP3    H224676   4.016   2.896   3.426  1.5493 -1.0791  0.6080
 8238TIP3   OH224677   3.953   6.278   1.315  0.1063 -0.4385  0.5510
 8238TIP3    H124678   3.941   6.198   1.365  0.2229 -1.6061 -1.2037
 8238TIP3    H224679   3.979   6.249   1.228  0.7303  1.5340  0.0104
 8239TIP3   OH224680   4.338   1.279   4.262  0.3646 -0.0864  0.1762
 8239TIP3    H124681   4.333   1.305   4.170 -0.3664 -0.6241  0.0569
 8239TIP3    H224682   4.378   1.354   4.306 -0.2833  0.6149 -0.4044
 8240TIP3   OH224683   3.802   2.239   3.108  0.4007 -0.2406 -0.3770
 8240TIP3    H124684   3.746   2.280   3.174  0.9378 -0.2499  0.0898
 8240TIP3    H224685   3.786   2.290   3.028 -0.5842 -0.5036 -0.3643
 8241TIP3   OH224686   3.698   1.566   2.513  0.5378 -0.0401  0.1291
 8241TIP3    H124687   3.716   1.473   2.526  1.1735 -0.2954 -2.1720
 8241TIP3    H224688   3.775   1.599   2.467  1.5897  2.3070  3.2112
 8242TIP3   OH224689   2.703   0.315   2.097  0.2679  0.0773 -0.0235
 8242TIP3    H124690   2.710   0.225   2.067  0.7809  0.1150 -0.0370
 8242TIP3    H224691   2.744   0.366   2.027  0.3396  0.2801  0.1636
 8243TIP3   OH224692   6.740   1.131   5.089 -0.4891 -0.2011 -0.3627
 8243TIP3    H124693   6.682   1.106   5.018 -0.5421  0.7258 -0.6634
 8243TIP3    H224694   6.704   1.088   5.166 -2.3256  1.2885 -0.3005
 8244TIP3   OH224695   2.813   2.019   0.288  0.3195 -0.0900 -0.1355
 8244TIP3    H124696   2.796   2.066   0.370  3.6592  0.2400  0.5132
 8244TIP3    H224697   2.832   1.929   0.316 -1.1389 -0.6802 -0.8959
 8245TIP3   OH224698   0.816   6.221   1.810 -0.5667  0.0770  0.2645
 8245TIP3    H124699   0.800   6.295   1.869 -0.0881  1.2806 -1.0453
 8245TIP3    H224700   0.761   6.238   1.734 -0.1905 -0.7372 -0.2060
 8246TIP3   OH224701   0.654   2.931   0.534 -0.6395  0.5490  0.1081
 8246TIP3    H124702   0.669   3.025   0.541  0.0604  0.5496 -1.2268
 8246TIP3    H224703   0.598   2.910   0.609 -0.6772  1.9917  0.5027
 8247TIP3   OH224704   4.837   6.323   0.767 -0.4971 -0.4460  0.1199
 8247TIP3    H124705   4.917   6.367   0.741 -0.9837  0.9229  0.8525
 8247TIP3    H224706   4.782   6.324   0.688 -0.6571  0.6445  0.2397
 8248TIP3   OH224707   4.788   3.315   1.039 -0.1710 -0.3472  0.3677
 8248TIP3    H124708   4.877   3.350   1.049 -0.1313 -0.4806  0.4820
 8248TIP3    H224709   4.776   3.259   1.116 -0.6898  0.3910  0.8410
 8249TIP3   OH224710   0.223   5.987   2.686  0.0658  0.4700 -0.3166
 8249TIP3    H124711   0.240   5.913   2.629 -0.2162 -0.6688  1.0229
 8249TIP3    H224712   0.157   5.955   2.748  0.3378  1.6581  0.6267
 8250TIP3   OH224713   4.974   3.158   0.453 -0.3974 -0.2420 -0.3869
 8250TIP3    H124714   4.977   3.159   0.357 -1.4142 -0.3336 -0.4295
 8250TIP3    H224715   4.888   3.122   0.474 -0.9235  1.4431  0.5359
 8251TIP3   OH224716   2.148   5.816   5.422 -0.4507  0.3883  0.0745
 8251TIP3    H124717   2.189   5.802   5.337 -0.6185  1.1535 -0.1447
 8251TIP3    H224718   2.210   5.780   5.485 -0.2561 -0.0524 -0.3577
 8252TIP3   OH224719   6.892   5.359   1.071  0.7459  0.1532 -0.6727
 8252TIP3    H124720   6.932   5.274   1.091  0.9506  0.3650 -0.1483
 8252TIP3    H224721   6.961   5.409   1.028  0.8353  0.2732 -0.3980
 8253TIP3   OH224722   2.524   2.235   0.227  0.1763  0.3682 -0.5943
 8253TIP3    H124723   2.479   2.177   0.166  1.0755  0.3450 -1.2754
 8253TIP3    H224724   2.542   2.182   0.304 -2.1118  0.7524  0.2571
 8254TIP3   OH224725   5.913   3.332   0.184 -0.0926  0.4150  0.1712
 8254TIP3    H124726   5.967   3.388   0.127 -0.4827  0.5023 -0.1206
 8254TIP3    H224727   5.823   3.349   0.155 -0.2410 -0.0803  0.3409
 8255TIP3   OH224728   5.232   0.278   5.745 -0.5625  0.1130  0.7773
 8255TIP3    H124729   5.190   0.357   5.781 -1.0481  0.1899  0.0633
 8255TIP3    H224730   5.276   0.239   5.820 -1.4040  0.3642  1.4279
 8256TIP3   OH224731   2.613   3.995   3.688  0.2723 -0.2324  0.0136
 8256TIP3    H124732   2.555   4.055   3.734  1.1670 -0.1794  1.0946
 8256TIP3    H224733   2.637   4.042   3.608  0.0207  0.3501  0.2768
 8257TIP3   OH224734   4.210   1.009   4.213 -0.2144 -0.3532  0.5101
 8257TIP3    H124735   4.126   1.041   4.245 -0.6881 -0.4638 -0.5693
 8257TIP3    H224736   4.268   1.085   4.216 -0.7842  0.1286 -0.1649
 8258TIP3   OH224737   0.122   0.545   3.488 -0.3590  0.2207  0.2441
 8258TIP3    H124738   0.218   0.536   3.486 -0.4154 -0.3885  0.1619
 8258TIP3    H224739   0.102   0.610   3.421 -0.0299  0.0842  0.0110
 8259TIP3   OH224740   6.736   6.464   0.946 -0.1773 -0.1771 -0.3149
 8259TIP3    H124741   6.783   6.479   0.863  1.6436 -0.7198  0.5656
 8259TIP3    H224742   6.649   6.502   0.932  0.4716  0.7504 -2.0762
 8260TIP3   OH224743   1.838   5.858   3.086 -0.4799  0.4074 -0.0728
 8260TIP3    H124744   1.847   5.947   3.120  0.7451  0.0944  0.4743
 8260TIP3    H224745   1.816   5.805   3.162  1.1576 -0.1152  0.0742
 8261TIP3   OH224746   6.950   1.255   1.013 -0.3361 -0.0140  0.1260
 8261TIP3    H124747   6.970   1.183   1.073 -3.9060 -0.3661  1.1156
 8261TIP3    H224748   6.896   1.215   0.945 -0.3710  1.3179 -0.6536
 8262TIP3   OH224749   6.543   4.383   5.708 -0.1459 -0.5323  0.1363
 8262TIP3    H124750   6.557   4.313   5.644  0.5723  0.4449 -0.8087
 8262TIP3    H224751   6.453   4.371   5.737 -0.6469 -0.6860 -1.4388
 8263TIP3   OH224752   1.568   4.976   3.355 -0.0419 -0.3086 -0.0189
 8263TIP3    H124753   1.519   4.939   3.429 -0.3644 -1.4668 -0.7826
 8263TIP3    H224754   1.651   4.930   3.357 -0.7346 -1.7240 -1.4417
 8264TIP3   OH224755   1.442   0.836   1.196  0.4229  0.0085 -0.2097
 8264TIP3    H124756   1.513   0.883   1.153  0.3448  0.4315  0.1246
 8264TIP3    H224757   1.373   0.830   1.129  0.9766 -0.9124 -0.7314
 8265TIP3   OH224758   5.483   6.164   3.973  0.2743  0.2223  0.0475
 8265TIP3    H124759   5.465   6.186   3.882 -0.6113  4.2344  1.0394
 8265TIP3    H224760   5.397   6.156   4.014  0.6288  1.2982  1.0699
 8266TIP3   OH224761   1.900   5.602   0.432 -0.3963 -0.2022  0.1868
 8266TIP3    H124762   1.806   5.600   0.414 -0.6771 -0.5999  1.5965
 8266TIP3    H224763   1.919   5.694   0.452 -0.5623 -0.1899  0.2854
 8267TIP3   OH224764   4.482   5.380   4.572  0.1273  0.0051  0.8667
 8267TIP3    H124765   4.567   5.337   4.588 -0.0532  0.3695  3.2887
 8267TIP3    H224766   4.503   5.473   4.568 -0.0480  0.0284  0.4659
 8268TIP3   OH224767   0.994   4.282   5.150 -0.3737  0.0147  0.2910
 8268TIP3    H124768   1.019   4.236   5.230 -0.9925  0.4158  0.7205
 8268TIP3    H224769   0.991   4.213   5.083  2.6866  0.0520 -0.0262
 8269TIP3   OH224770   2.175   1.421   0.958  0.1226 -0.1306 -0.2365
 8269TIP3    H124771   2.092   1.465   0.972  0.6805  0.9521 -0.2281
 8269TIP3    H224772   2.190   1.427   0.863  1.1334  1.4942 -0.0144
 8270TIP3   OH224773   2.368   3.934   3.469  0.5897  0.5323  0.1797
 8270TIP3    H124774   2.392   3.973   3.553 -1.6039  2.0897  0.1821
 8270TIP3    H224775   2.371   3.839   3.485  1.5428  0.7749  1.6005
 8271TIP3   OH224776   5.030   2.580   4.898  0.3900 -0.2341 -0.3414
 8271TIP3    H124777   4.983   2.504   4.865 -0.6289  0.1638  0.1608
 8271TIP3    H224778   5.068   2.551   4.981 -0.7609  0.0510  0.3043
 8272TIP3   OH224779   0.115   3.314   5.526 -0.0117 -0.0011 -0.6296
 8272TIP3    H124780   0.169   3.240   5.500  0.0762  0.0887 -0.7028
 8272TIP3    H224781   0.173   3.371   5.576  0.1329  0.4037 -1.2409
 8273TIP3   OH224782   5.387   4.743   3.896  0.1951  0.0008  0.2718
 8273TIP3    H124783   5.432   4.786   3.824  0.0327 -0.5343 -0.1610
 8273TIP3    H224784   5.298   4.778   3.894  0.2088  0.0341  0.2521
 8274TIP3   OH224785   3.826   5.947   1.201 -0.2866  0.1298 -0.5727
 8274TIP3    H124786   3.854   5.967   1.111 -0.2195  0.4542 -0.4811
 8274TIP3    H224787   3.818   5.852   1.203  0.6810  0.0431 -0.6371
 8275TIP3   OH224788   4.770   5.569   5.876  0.5205  0.3572  0.2159
 8275TIP3    H124789   4.810   5.613   5.801 -0.7384  0.1949 -0.5773
 8275TIP3    H224790   4.789   5.476   5.862 -1.2567  0.1236 -0.9114
 8276TIP3   OH224791  -0.034   1.224   1.874  0.2998 -0.2053  0.2881
 8276TIP3    H124792   0.030   1.226   1.803 -0.1944 -1.5229 -0.2208
 8276TIP3    H224793   0.011   1.180   1.946 -0.1958 -1.6955 -0.2759
 8277TIP3   OH224794   5.656   0.981   1.410  0.2147  0.1800  0.1511
 8277TIP3    H124795   5.597   0.992   1.336  2.0203  1.4792 -1.1704
 8277TIP3    H224796   5.690   1.068   1.428  0.4504 -0.2406  2.0280
 8278TIP3   OH224797   1.908   0.457   4.412 -0.3179 -0.0449  0.1609
 8278TIP3    H124798   1.852   0.448   4.335  0.0889 -0.9002 -0.0461
 8278TIP3    H224799   1.989   0.496   4.378 -0.5143  0.5161  0.3331
 8279TIP3   OH224800   4.517   5.687   1.239 -0.5506 -0.0907  0.6092
 8279TIP3    H124801   4.530   5.781   1.250 -0.9184  0.0235  0.0780
 8279TIP3    H224802   4.532   5.671   1.146 -1.6045 -0.3799  0.4813
 8280TIP3   OH224803   1.756   4.647   3.909  0.3158  0.2046  0.6355
 8280TIP3    H124804   1.827   4.664   3.970 -0.7169 -1.6775  2.5067
 8280TIP3    H224805   1.789   4.577   3.852 -0.3888 -1.6624  2.3871
 8281TIP3   OH224806   3.405   5.749   4.518  0.2056 -0.2525  0.1739
 8281TIP3    H124807   3.484   5.710   4.556 -1.2853 -2.6375  1.1236
 8281TIP3    H224808   3.334   5.694   4.551 -1.5012 -0.9942 -4.0881
 8282TIP3   OH224809   4.912   5.199   4.021 -0.5323 -0.6630 -0.1301
 8282TIP3    H124810   4.945   5.110   4.034 -2.0317 -1.1096  0.9608
 8282TIP3    H224811   4.848   5.190   3.951 -0.5383 -0.3990 -0.1571
 8283TIP3   OH224812   6.645   6.362   3.647  0.3808  0.0480  0.1954
 8283TIP3    H124813   6.733   6.357   3.609 -0.3752  2.0912 -2.0808
 8283TIP3    H224814   6.598   6.288   3.608  0.4745  0.3137 -0.4359
 8284TIP3   OH224815   0.671   4.140   1.074 -0.1048 -0.0502  0.2589
 8284TIP3    H124816   0.580   4.122   1.052  0.0716 -1.4511  0.6234
 8284TIP3    H224817   0.693   4.077   1.143  1.0337  0.5172  0.4467
 8285TIP3   OH224818   0.417   0.360   4.703  0.4763  0.1679 -0.2923
 8285TIP3    H124819   0.470   0.338   4.779  1.8604 -0.8071 -1.4853
 8285TIP3    H224820   0.428   0.455   4.694  1.0577  0.1530  0.1736
 8286TIP3   OH224821   0.219   1.474   3.473 -0.1460 -0.1323 -0.6902
 8286TIP3    H124822   0.192   1.384   3.456 -0.3022  0.0674 -1.5588
 8286TIP3    H224823   0.257   1.504   3.390  1.3010  0.1195  0.0243
 8287TIP3   OH224824   6.288   6.068   4.227  0.3874  0.0947 -0.2093
 8287TIP3    H124825   6.247   6.154   4.217  0.6851  0.3391  0.5692
 8287TIP3    H224826   6.269   6.044   4.318  0.4901 -0.5702 -0.3612
 8288TIP3   OH224827   4.269   3.409   4.155  0.7889 -0.1343  0.0229
 8288TIP3    H124828   4.259   3.333   4.213 -0.2880 -0.1219 -0.1251
 8288TIP3    H224829   4.320   3.472   4.206  0.5334 -0.4389  0.6585
 8289TIP3   OH224830   5.793   6.645   3.103 -0.2808  0.1651 -0.1868
 8289TIP3    H124831   5.734   6.570   3.096  0.6659 -0.4391 -3.4609
 8289TIP3    H224832   5.794   6.683   3.015  0.6713  2.9725  0.9147
 8290TIP3   OH224833   6.456   5.151   2.037  0.1980 -0.0929 -0.3252
 8290TIP3    H124834   6.496   5.234   2.012 -0.1337  0.5638  1.2089
 8290TIP3    H224835   6.513   5.117   2.106 -1.4017  0.4737  1.3384
 8291TIP3   OH224836   0.280   4.950   4.257  0.1423 -0.7709 -0.2698
 8291TIP3    H124837   0.348   4.970   4.193  0.8841 -0.2733  0.6580
 8291TIP3    H224838   0.198   4.963   4.209  0.6753  0.2369 -0.9391
 8292TIP3   OH224839   1.301   5.271   2.071 -0.2065 -0.2293 -0.0442
 8292TIP3    H124840   1.287   5.358   2.106 -0.7458 -0.4100  0.2054
 8292TIP3    H224841   1.394   5.268   2.048 -0.0215  0.1519  0.6449
 8293TIP3   OH224842   5.379   4.896   1.297  0.0851  0.2801  0.3610
 8293TIP3    H124843   5.366   4.876   1.205 -1.3066  1.0907  0.3559
 8293TIP3    H224844   5.371   4.811   1.341 -1.1027  0.1408 -0.0935
 8294TIP3   OH224845   6.373   4.422   2.923 -0.0391 -0.3628  0.3778
 8294TIP3    H124846   6.363   4.506   2.878 -1.4992 -0.0367  1.2433
 8294TIP3    H224847   6.385   4.358   2.853 -1.6298  0.2163 -0.4638
 8295TIP3   OH224848   0.124   1.412   1.233  0.2187  0.0324 -0.3821
 8295TIP3    H124849   0.157   1.502   1.233 -0.5197  0.3101  0.0040
 8295TIP3    H224850   0.135   1.383   1.323  0.1575 -0.1567 -0.4357
 8296TIP3   OH224851   4.873   4.950   1.100  0.1014  0.2936 -0.3408
 8296TIP3    H124852   4.870   4.865   1.056  4.1319  0.0341 -0.5225
 8296TIP3    H224853   4.938   4.938   1.169 -2.6852  2.0064  2.8237
 8297TIP3   OH224854   1.762   6.276   1.133 -0.1997  0.2574 -0.2127
 8297TIP3    H124855   1.854   6.299   1.122 -0.3303  0.5185 -0.8034
 8297TIP3    H224856   1.763   6.196   1.185  0.3308  0.6341  0.3845
 8298TIP3   OH224857   2.636   3.448   4.208  0.1104 -0.4170  0.0931
 8298TIP3    H124858   2.628   3.503   4.131 -0.1785 -0.7833 -0.1392
 8298TIP3    H224859   2.660   3.509   4.279  1.6443 -0.2501 -0.5264
 8299TIP3   OH224860   1.001   5.906   4.584 -0.6801  0.5687  0.1003
 8299TIP3    H124861   1.081   5.873   4.624 -0.2685 -0.0174 -1.1650
 8299TIP3    H224862   1.031   5.955   4.507 -1.5984 -1.5117 -1.6670
 8300TIP3   OH224863   0.553   5.900  -0.018 -0.0135 -0.0772  0.0362
 8300TIP3    H124864   0.590   5.935   0.063  0.9215 -1.1941  0.1153
 8300TIP3    H224865   0.487   5.964  -0.044 -1.4694 -0.4319  2.5126
 8301TIP3   OH224866   6.244   6.151   3.429 -0.3218 -0.0638  0.0827
 8301TIP3    H124867   6.336   6.172   3.445 -0.0776 -0.0473 -1.2626
 8301TIP3    H224868   6.206   6.233   3.397 -0.6779 -0.2121  0.1186
 8302TIP3   OH224869   4.293   5.940   5.280  0.0487 -0.3057  0.1528
 8302TIP3    H124870   4.267   5.849   5.260 -1.4123  0.2181 -0.5011
 8302TIP3    H224871   4.306   5.941   5.375  2.0744 -1.6472 -0.0321
 8303TIP3   OH224872   2.762   3.429   3.256  0.5855 -0.7874 -0.4540
 8303TIP3    H124873   2.685   3.377   3.232  0.7022 -0.5535 -1.3926
 8303TIP3    H224874   2.832   3.394   3.201  0.9000 -0.3170 -0.3588
 8304TIP3   OH224875   1.761   1.396   2.355 -0.0094  0.2180  0.5849
 8304TIP3    H124876   1.764   1.426   2.445 -0.4957  0.5942  0.4815
 8304TIP3    H224877   1.709   1.316   2.357  0.5902 -0.1750  0.7391
 8305TIP3   OH224878   6.282   4.288   3.876  0.2101 -0.4014 -0.7506
 8305TIP3    H124879   6.268   4.347   3.950 -2.1087 -0.5703 -0.9760
 8305TIP3    H224880   6.308   4.346   3.804 -3.2862  0.7059 -1.3271
 8306TIP3   OH224881   7.028   3.810   5.220 -0.1873  0.1465  0.5203
 8306TIP3    H124882   7.033   3.745   5.290  1.3322 -0.8611 -0.4417
 8306TIP3    H224883   7.043   3.894   5.263 -1.8533 -0.1573  1.7470
 8307TIP3   OH224884   6.201   6.376   2.609  0.6182 -0.2583 -0.1745
 8307TIP3    H124885   6.267   6.445   2.609  1.0247 -0.6254 -1.2973
 8307TIP3    H224886   6.170   6.372   2.699  1.0592  0.9405  0.0425
 8308TIP3   OH224887   4.403   0.262   4.709 -0.1195 -0.2549  0.1628
 8308TIP3    H124888   4.313   0.280   4.681  0.7551  0.6733 -2.3751
 8308TIP3    H224889   4.443   0.349   4.721  1.0230 -0.5867 -0.9694
 8309TIP3   OH224890   2.640   3.896   0.706  0.1713 -0.4524  0.1386
 8309TIP3    H124891   2.546   3.912   0.718  0.2750  1.3005 -1.0244
 8309TIP3    H224892   2.682   3.973   0.744  1.0028 -0.0476 -1.5152
 8310TIP3   OH224893   0.222   1.406   2.663 -0.0518  0.7599 -0.5598
 8310TIP3    H124894   0.263   1.484   2.700 -2.0357  1.6564 -0.1536
 8310TIP3    H224895   0.205   1.429   2.571 -2.4070  1.6347  0.0195
 8311TIP3   OH224896   1.989   2.781   0.855 -0.4225  0.2197  0.1385
 8311TIP3    H124897   1.969   2.773   0.949  1.9795  0.8612  0.7710
 8311TIP3    H224898   1.934   2.715   0.813 -0.1407 -1.4586  2.2220
 8312TIP3   OH224899   0.351   1.814   3.991 -0.2727 -0.2658  0.1453
 8312TIP3    H124900   0.288   1.857   3.934  0.9879 -0.7250 -1.6694
 8312TIP3    H224901   0.318   1.725   4.000  0.5840 -0.7947 -1.6224
 8313TIP3   OH224902   5.981   0.026   4.930 -0.1336  0.3069 -0.2081
 8313TIP3    H124903   5.911   0.051   4.870  0.2904  1.0286 -0.4236
 8313TIP3    H224904   5.947  -0.050   4.977 -1.1168  0.7450 -0.1876
 8314TIP3   OH224905   1.831   5.609   2.534  0.2259 -0.7517 -0.0584
 8314TIP3    H124906   1.737   5.594   2.529  0.2328 -0.4674 -1.3466
 8314TIP3    H224907   1.851   5.667   2.461  1.5408 -1.5661 -0.3858
 8315TIP3   OH224908   4.126   6.759   2.544 -0.6019 -0.5130  0.2838
 8315TIP3    H124909   4.178   6.692   2.499  1.0317  1.4372 -0.8739
 8315TIP3    H224910   4.190   6.812   2.591 -1.6401  1.2564 -0.1877
 8316TIP3   OH224911   4.651   3.510   1.783 -0.4012  0.0210 -0.2560
 8316TIP3    H124912   4.669   3.576   1.850  2.3474 -0.7813 -0.0604
 8316TIP3    H224913   4.620   3.561   1.707 -1.5007  1.1515  0.9056
 8317TIP3   OH224914   2.961   2.100   5.812 -0.1606 -0.2898  0.1547
 8317TIP3    H124915   2.943   2.145   5.894 -0.9642 -0.1756 -0.0678
 8317TIP3    H224916   2.899   2.027   5.811  0.0396 -0.4572 -0.2209
 8318TIP3   OH224917   1.052   1.992   1.753  0.4219 -0.1496  0.2787
 8318TIP3    H124918   1.055   2.084   1.726 -0.9765 -0.4330 -0.9293
 8318TIP3    H224919   1.144   1.965   1.753  0.7157  0.7376 -1.2251
 8319TIP3   OH224920   2.287   0.404   0.578  0.1827  0.2444  0.7400
 8319TIP3    H124921   2.232   0.454   0.638  0.9726  1.2560  0.6472
 8319TIP3    H224922   2.359   0.464   0.556 -1.5802  1.1785 -3.5619
 8320TIP3   OH224923   0.452   4.200   5.757  0.0753  0.0572 -0.0684
 8320TIP3    H124924   0.503   4.210   5.676 -1.4545 -1.3105 -1.2655
 8320TIP3    H224925   0.381   4.264   5.749 -0.2091 -0.2336  0.0721
 8321TIP3   OH224926   3.588   0.812   0.797  0.2079 -0.1295  0.1290
 8321TIP3    H124927   3.674   0.773   0.813 -1.1425 -2.3964  2.6546
 8321TIP3    H224928   3.529   0.738   0.785 -1.2983  1.3552 -2.8897
 8322TIP3   OH224929   0.821   4.514   2.493  0.0671 -0.4217  0.1171
 8322TIP3    H124930   0.914   4.532   2.478  0.2349 -1.3373  0.0099
 8322TIP3    H224931   0.775   4.575   2.434  0.5997 -0.1565 -0.0294
 8323TIP3   OH224932   6.560   5.092   4.356 -0.0189  0.3591  0.5549
 8323TIP3    H124933   6.536   5.015   4.305  0.5318 -0.7564  1.9101
 8323TIP3    H224934   6.648   5.115   4.326 -0.1937  0.4874  0.1343
 8324TIP3   OH224935   2.348   3.204   2.522  0.4147 -0.0612  0.1469
 8324TIP3    H124936   2.332   3.272   2.458  1.3926  1.1355  1.1107
 8324TIP3    H224937   2.356   3.124   2.471  1.4024  0.8895 -1.2551
 8325TIP3   OH224938   5.656   1.875   1.039  0.4155  0.1543 -0.3642
 8325TIP3    H124939   5.617   1.925   0.967  1.7668  1.3655 -0.2992
 8325TIP3    H224940   5.666   1.787   1.005 -0.9323  0.1747 -0.8970
 8326TIP3   OH224941   2.484   0.770   2.960 -0.8561 -0.1135 -0.0983
 8326TIP3    H124942   2.442   0.834   2.902 -0.1455 -0.4739 -1.0395
 8326TIP3    H224943   2.477   0.687   2.913  0.6134 -0.2366 -0.1347
 8327TIP3   OH224944   1.807   2.806   5.036  0.0152 -0.2990  0.0789
 8327TIP3    H124945   1.832   2.899   5.040 -0.0218 -0.2839 -0.0379
 8327TIP3    H224946   1.738   2.803   4.970 -1.2171 -0.1407  1.3239
 8328TIP3   OH224947   2.874   5.572   4.581  0.0608  0.3688  0.3061
 8328TIP3    H124948   2.842   5.653   4.619 -0.5400 -0.1508  0.9289
 8328TIP3    H224949   2.874   5.509   4.653 -1.1222 -0.6409 -0.5149
 8329TIP3   OH224950   3.126   3.532   3.722 -0.4615 -0.5425 -0.2759
 8329TIP3    H124951   3.056   3.590   3.752 -0.3512  0.5588 -2.0145
 8329TIP3    H224952   3.195   3.591   3.692  1.9437 -1.5431  2.7016
 8330TIP3   OH224953   3.736   3.513   3.657 -0.8509  0.3348 -0.2392
 8330TIP3    H124954   3.680   3.484   3.585 -0.6167 -0.8389  0.0263
 8330TIP3    H224955   3.690   3.483   3.736  1.3239 -3.0988 -0.0619
 8331TIP3   OH224956   6.978   0.335   2.059 -0.4342  0.0317  0.0663
 8331TIP3    H124957   6.910   0.278   2.023  0.4370 -0.1880 -1.3271
 8331TIP3    H224958   7.060   0.294   2.030  0.2616  0.8757  0.7951
 8332TIP3   OH224959   6.640   3.514   4.349  0.4582  0.3814  0.3929
 8332TIP3    H124960   6.699   3.439   4.352 -0.6871 -0.5187  1.1065
 8332TIP3    H224961   6.649   3.555   4.435 -0.5121 -0.2210  0.7969
 8333TIP3   OH224962   5.374   1.371   3.569  0.3664 -0.7820  0.0750
 8333TIP3    H124963   5.433   1.437   3.607  1.0857 -0.6028 -1.2985
 8333TIP3    H224964   5.345   1.319   3.644  3.0436 -1.5041  0.6910
 8334TIP3   OH224965   6.979   1.387   3.110 -0.1397  0.3029  0.0672
 8334TIP3    H124966   6.893   1.348   3.094  0.9026 -1.7680 -0.9663
 8334TIP3    H224967   7.005   1.423   3.025  0.3772  0.1291  0.1486
 8335TIP3   OH224968   3.398   1.633   3.322  0.1711 -0.2202 -0.0909
 8335TIP3    H124969   3.455   1.612   3.396 -1.1704 -0.6659  0.8484
 8335TIP3    H224970   3.393   1.729   3.323  2.9249  0.0525 -1.8022
 8336TIP3   OH224971   0.277   1.648   1.439  0.2652  0.5308 -0.1097
 8336TIP3    H124972   0.363   1.633   1.400 -0.1871  1.2031 -1.4076
 8336TIP3    H224973   0.230   1.699   1.374 -0.9105  0.7112  0.8575
 8337TIP3   OH224974   5.841   0.643   0.337  0.1336 -0.2425  0.6725
 8337TIP3    H124975   5.759   0.679   0.372 -0.4598 -2.0064  1.1956
 8337TIP3    H224976   5.909   0.704   0.367 -0.9372  1.1363  0.4039
 8338TIP3   OH224977   4.647   4.665   3.824 -0.7530 -0.2169  0.3778
 8338TIP3    H124978   4.693   4.738   3.782  0.7426 -1.4887 -0.3060
 8338TIP3    H224979   4.601   4.705   3.897  0.6471  1.3119  0.4920
 8339TIP3   OH224980   0.187   4.014   1.963  0.2389  0.4750  0.1124
 8339TIP3    H124981   0.199   4.109   1.962  3.5253  0.2326  2.1004
 8339TIP3    H224982   0.195   3.989   2.055 -3.4118 -1.5750  0.0807
 8340TIP3   OH224983   1.678   5.249   1.936 -0.0885 -0.1533  0.5974
 8340TIP3    H124984   1.637   5.336   1.940  1.1197  0.5659 -1.3310
 8340TIP3    H224985   1.744   5.251   2.006 -0.4402  0.2542  0.9256
 8341TIP3   OH224986   6.735   2.494   1.981  0.1461  0.1856  0.1066
 8341TIP3    H124987   6.802   2.460   1.921  1.6221  1.5533  0.9058
 8341TIP3    H224988   6.664   2.522   1.924  0.8639  0.0496 -0.8859
 8342TIP3   OH224989   6.039   6.155   3.637 -0.2929  0.0533 -0.1376
 8342TIP3    H124990   6.130   6.169   3.612 -0.5854 -0.2002 -1.4254
 8342TIP3    H224991   5.992   6.148   3.553 -1.0924 -2.4124  0.4439
 8343TIP3   OH224992   2.088   1.148   3.970 -0.3309  0.5231 -0.3511
 8343TIP3    H124993   2.084   1.238   3.937 -1.4885  0.3623 -0.6880
 8343TIP3    H224994   2.102   1.159   4.065 -1.2590  1.0887 -0.2647
 8344TIP3   OH224995   1.665   4.520   4.528  0.6253 -0.3749 -0.6061
 8344TIP3    H124996   1.605   4.446   4.537 -2.0153  1.8565  3.3139
 8344TIP3    H224997   1.752   4.481   4.537 -0.6259 -3.0930  1.3393
 8345TIP3   OH224998   4.948   2.177   1.908  0.0296 -0.0292  0.0344
 8345TIP3    H124999   5.010   2.109   1.885 -0.6301 -1.4096  2.0642
 8345TIP3    H225000   4.906   2.200   1.825  1.2740 -1.0565 -0.9192
 8346TIP3   OH225001   3.939   5.755   5.122  0.1110  0.0349  0.5074
 8346TIP3    H125002   3.989   5.680   5.154 -1.3890 -0.9789  0.5455
 8346TIP3    H225003   3.929   5.811   5.199  2.8466  1.2942  0.0878
 8347TIP3   OH225004   1.278   3.308   2.128 -0.2883  0.4349 -0.0675
 8347TIP3    H125005   1.211   3.249   2.162  0.2093 -0.8156 -1.1736
 8347TIP3    H225006   1.310   3.265   2.049  2.3343  0.6395  0.7978
 8348TIP3   OH225007   1.804   5.448   1.159  0.3180 -0.0463 -0.0803
 8348TIP3    H125008   1.788   5.402   1.077 -1.1153  0.8699 -0.3456
 8348TIP3    H225009   1.732   5.510   1.167  0.3409 -0.1988  1.9439
 8349TIP3   OH225010   3.474   4.028   4.451 -0.3437 -0.1515  0.1023
 8349TIP3    H125011   3.490   4.013   4.358  0.8362 -2.6772  0.6211
 8349TIP3    H225012   3.557   4.006   4.494 -1.1768 -0.0929  1.8287
 8350TIP3   OH225013   4.442   0.522   4.930  0.0224  0.1088  0.0132
 8350TIP3    H125014   4.439   0.581   5.005 -0.7015  1.3073 -0.9265
 8350TIP3    H225015   4.457   0.435   4.969 -1.7544  0.4674  1.6791
 8351TIP3   OH225016   1.461   3.304   1.134  0.4864  0.1661  0.5823
 8351TIP3    H125017   1.429   3.394   1.130  2.0716  0.7480  0.2740
 8351TIP3    H225018   1.388   3.251   1.100 -0.6855  1.2466  1.3094
 8352TIP3   OH225019   5.002   1.197   4.352  0.3485  0.0118 -0.3486
 8352TIP3    H125020   4.966   1.150   4.428 -0.7256  2.9931  1.2051
 8352TIP3    H225021   5.081   1.239   4.386  0.8998 -0.1368 -1.4419
 8353TIP3   OH225022   5.181   1.881   3.295  0.1507  0.4585  0.0712
 8353TIP3    H125023   5.269   1.881   3.332  0.5463  0.9445 -0.8322
 8353TIP3    H225024   5.134   1.949   3.343 -0.1708 -0.7381  1.5152
 8354TIP3   OH225025   6.712   2.428   5.489 -0.1154  0.3949 -0.4429
 8354TIP3    H125026   6.676   2.517   5.495 -0.8782  0.1282 -0.9908
 8354TIP3    H225027   6.799   2.435   5.528 -0.8171  1.0096  1.0919
 8355TIP3   OH225028   3.049   3.233   3.745  0.1684  0.0911 -0.3153
 8355TIP3    H125029   2.992   3.177   3.693 -1.9347  2.4875 -0.8332
 8355TIP3    H225030   3.031   3.322   3.713 -0.4157  1.6376  3.6084
 8356TIP3   OH225031   0.583   6.653   4.322 -0.6355 -0.0558 -0.8677
 8356TIP3    H125032   0.509   6.662   4.381 -0.0153 -2.9846  0.5678
 8356TIP3    H225033   0.543   6.627   4.238 -1.3056 -0.7841 -0.3409
 8357TIP3   OH225034   3.844   1.439   4.700 -0.4384 -0.8400 -0.0084
 8357TIP3    H125035   3.771   1.500   4.708 -0.2520 -0.7840  1.4815
 8357TIP3    H225036   3.921   1.495   4.686 -0.5097 -0.8384 -0.4087
 8358TIP3   OH225037   1.925   1.586   5.844  0.1045 -0.3727  0.1720
 8358TIP3    H125038   1.867   1.519   5.882  0.1175 -0.1985  0.5037
 8358TIP3    H225039   2.008   1.540   5.831  0.5805 -0.0308  1.8393
 8359TIP3   OH225040   5.028   2.709   2.658 -0.5984  0.1931  0.9067
 8359TIP3    H125041   4.997   2.792   2.696 -2.2428  0.1245 -0.2191
 8359TIP3    H225042   4.954   2.650   2.665 -0.1019 -0.5773 -0.1431
 8360TIP3   OH225043   0.975   3.245   5.474 -0.3775  0.3592  0.0839
 8360TIP3    H125044   1.036   3.262   5.546 -0.7538 -1.6118  0.9455
 8360TIP3    H225045   1.017   3.283   5.397  1.2102  0.3960  0.9257
 8361TIP3   OH225046   6.549   2.736   3.819  0.3064  0.4526  0.2544
 8361TIP3    H125047   6.505   2.789   3.886 -0.6794 -0.3192  0.2384
 8361TIP3    H225048   6.629   2.705   3.862  0.3573  1.0728  0.6174
 8362TIP3   OH225049   4.968   1.143   1.534 -0.4053  0.0266 -0.0857
 8362TIP3    H125050   5.018   1.062   1.527 -0.0871 -0.0645  2.2830
 8362TIP3    H225051   5.028   1.205   1.576 -1.6757  0.4229  1.2555
 8363TIP3   OH225052   0.776   5.306   5.371 -0.3507  0.3127  0.1969
 8363TIP3    H125053   0.690   5.338   5.398 -1.5711  0.2751 -3.1284
 8363TIP3    H225054   0.817   5.382   5.330 -0.4125 -0.5486 -1.5648
 8364TIP3   OH225055   1.687   1.349   2.839 -0.4930  0.1491  0.1518
 8364TIP3    H125056   1.732   1.308   2.765  2.7137  2.3259  0.6402
 8364TIP3    H225057   1.714   1.297   2.915  1.2930  1.3694  0.4257
 8365TIP3   OH225058   1.617   1.163   2.427  0.3618  0.0246 -0.6574
 8365TIP3    H125059   1.666   1.144   2.507 -1.4121  0.3002  0.5613
 8365TIP3    H225060   1.532   1.121   2.441  0.4450 -1.0440 -2.9952
 8366TIP3   OH225061   1.991   1.235   2.033 -0.4772 -0.8534 -0.3660
 8366TIP3    H125062   1.997   1.317   1.985 -2.1448 -0.2573  0.3540
 8366TIP3    H225063   1.897   1.216   2.036 -0.2199 -2.1033  0.6093
 8367TIP3   OH225064   5.776   4.202   0.534  0.5805  0.1939  0.2806
 8367TIP3    H125065   5.804   4.289   0.508  0.9983 -0.4293 -1.4754
 8367TIP3    H225066   5.691   4.189   0.490  0.2006 -0.0431  1.0584
 8368TIP3   OH225067   5.823   4.981   5.012  0.7039  0.1247 -0.1962
 8368TIP3    H125068   5.796   4.948   5.097  0.7286 -0.6476 -0.4805
 8368TIP3    H225069   5.780   5.067   5.005  1.3580  0.5663  0.9211
 8369TIP3   OH225070   4.114   0.992   1.373  0.4764  0.3357 -0.7785
 8369TIP3    H125071   4.171   1.009   1.298  1.6383 -0.6112 -0.1453
 8369TIP3    H225072   4.087   1.078   1.404  3.9143  1.0221  0.6564
 8370TIP3   OH225073   2.507   1.452   1.752 -0.6181  0.1060 -0.1141
 8370TIP3    H125074   2.495   1.461   1.846 -1.9193 -1.9854 -0.0205
 8370TIP3    H225075   2.419   1.453   1.716 -0.2201 -0.3740 -1.1490
 8371TIP3   OH225076   5.103   4.399   1.137 -0.6942 -0.0210  0.3838
 8371TIP3    H125077   5.085   4.406   1.230 -0.5712 -0.5027  0.4490
 8371TIP3    H225078   5.075   4.310   1.113 -2.8210  0.8318 -0.5267
 8372TIP3   OH225079   3.268   6.391   2.975 -0.2870 -0.2670 -0.5637
 8372TIP3    H125080   3.361   6.373   2.979  0.1016  1.6117  0.2188
 8372TIP3    H225081   3.238   6.389   3.066 -1.1370 -1.3358 -0.8408
 8373TIP3   OH225082   4.351   4.684   1.671  0.3708 -0.1481  0.0086
 8373TIP3    H125083   4.387   4.647   1.751  0.1384 -0.2975  0.0463
 8373TIP3    H225084   4.259   4.656   1.671  0.1074  0.6736  0.1942
 8374TIP3   OH225085   5.066   5.428   1.937  0.0434 -0.0403 -0.0376
 8374TIP3    H125086   5.038   5.336   1.937  0.4794 -0.1800  0.6219
 8374TIP3    H225087   5.028   5.464   2.018  0.5434  0.1478  0.1138
 8375TIP3   OH225088   2.364   6.366   4.560 -0.1856  0.3805  0.0625
 8375TIP3    H125089   2.355   6.275   4.531 -0.8116  0.0830  1.1125
 8375TIP3    H225090   2.405   6.411   4.487 -1.5006 -0.3680 -1.1821
 8376TIP3   OH225091   2.786   6.679   0.420 -0.2170 -0.0555  0.4334
 8376TIP3    H125092   2.702   6.691   0.465  0.7465  1.1771  2.0339
 8376TIP3    H225093   2.828   6.607   0.467 -0.9135 -1.6512 -1.2796
 8377TIP3   OH225094   2.323   0.606   2.762  0.3390 -0.5629 -0.0125
 8377TIP3    H125095   2.261   0.535   2.779 -0.8887 -0.5224 -3.5395
 8377TIP3    H225096   2.409   0.563   2.762 -0.2182 -1.7303 -0.4902
 8378TIP3   OH225097   5.334   4.647   0.390  0.0689  0.1809  0.0248
 8378TIP3    H125098   5.285   4.633   0.471 -0.4929  0.8985 -0.1824
 8378TIP3    H225099   5.289   4.719   0.346  0.8292  0.3190 -0.5625
 8379TIP3   OH225100   6.927   5.267   4.474  0.5210  0.4054  0.0903
 8379TIP3    H125101   7.003   5.234   4.522 -0.2405 -0.3858  0.7935
 8379TIP3    H225102   6.896   5.192   4.424  0.7113  0.9601 -0.8798
 8380TIP3   OH225103   4.465   1.441   1.837 -0.1768 -0.0879 -0.2949
 8380TIP3    H125104   4.444   1.509   1.902 -3.4113  1.7951 -2.9603
 8380TIP3    H225105   4.416   1.364   1.867  1.2858 -0.4636  1.2882
 8381TIP3   OH225106   5.281   1.580   4.120 -0.1239  0.0978  0.3758
 8381TIP3    H125107   5.228   1.619   4.191 -0.3271 -0.2683  0.4282
 8381TIP3    H225108   5.226   1.590   4.042 -0.7445 -1.2556  0.6237
 8382TIP3   OH225109   3.465   4.321   0.380  0.2486 -0.2963 -0.0806
 8382TIP3    H125110   3.415   4.316   0.298  1.7059  0.0761 -1.0471
 8382TIP3    H225111   3.548   4.277   0.359  0.7744  0.1133  1.0953
 8383TIP3   OH225112   7.135   5.526   4.013  0.2860 -0.2243 -0.6449
 8383TIP3    H125113   7.204   5.592   4.015  0.0420  0.0248 -0.4009
 8383TIP3    H225114   7.055   5.576   3.994 -0.3681 -0.0351  2.1708
 8384TIP3   OH225115   0.733   4.778   0.219  0.0367  0.2148  0.7641
 8384TIP3    H125116   0.750   4.867   0.187  1.1097 -0.2354  0.0460
 8384TIP3    H225117   0.818   4.748   0.253 -0.6021 -0.0719  2.2160
 8385TIP3   OH225118   1.621   5.630   0.427 -0.4345 -0.1166  0.1530
 8385TIP3    H125119   1.557   5.699   0.447 -0.2748  0.7346 -2.0133
 8385TIP3    H225120   1.568   5.550   0.419 -1.1072  0.3802 -0.5639
 8386TIP3   OH225121   5.894   0.498   4.324 -0.3518 -0.3551  0.1469
 8386TIP3    H125122   5.877   0.581   4.279 -1.7556 -0.3213  0.6938
 8386TIP3    H225123   5.988   0.500   4.344 -0.5206  1.5089  0.9650
 8387TIP3   OH225124   2.304   2.181   4.375  0.4420  0.0009 -0.9947
 8387TIP3    H125125   2.359   2.119   4.328  1.6240  0.1534  0.1587
 8387TIP3    H225126   2.291   2.142   4.461 -0.8266  0.2314 -1.0541
 8388TIP3   OH225127   6.992   2.387   5.538 -0.7540 -0.1110  0.4233
 8388TIP3    H125128   6.995   2.309   5.483 -2.0876 -0.6094  1.0164
 8388TIP3    H225129   7.025   2.458   5.482  1.7752 -1.2870  0.2861
 8389TIP3   OH225130   3.805   2.427   2.899  0.1518  0.0412 -0.0098
 8389TIP3    H125131   3.851   2.366   2.841  0.8515  0.7596 -0.2142
 8389TIP3    H225132   3.714   2.425   2.868  0.2064 -0.7360 -0.1445
 8390TIP3   OH225133   2.544   2.910   4.137  0.4733 -0.1616  0.5322
 8390TIP3    H125134   2.478   2.974   4.110 -1.1006 -1.5720  0.8583
 8390TIP3    H225135   2.627   2.947   4.107 -0.4203  1.7772  0.2750
 8391TIP3   OH225136   1.135   2.183   5.577 -0.1602 -0.0735  0.0450
 8391TIP3    H125137   1.216   2.234   5.580 -0.2948  0.2766 -1.5251
 8391TIP3    H225138   1.066   2.248   5.590 -0.2027 -0.5887  3.1001
 8392TIP3   OH225139   4.198   1.918   4.722 -0.4029 -0.0800 -0.1661
 8392TIP3    H125140   4.189   1.908   4.627  1.8225  1.2276 -0.5780
 8392TIP3    H225141   4.223   2.009   4.734  4.5498 -1.3158  1.1006
 8393TIP3   OH225142   1.301   6.708   3.448  0.3256 -0.1574  0.4685
 8393TIP3    H125143   1.274   6.791   3.410  1.9661 -0.3468 -1.2471
 8393TIP3    H225144   1.272   6.712   3.539  0.2500  2.2357  0.3771
 8394TIP3   OH225145   6.425   2.506   2.164  0.1891  0.6601 -0.3895
 8394TIP3    H125146   6.413   2.583   2.109 -1.6603  0.7929  0.1408
 8394TIP3    H225147   6.366   2.520   2.238 -0.1831 -1.2603 -0.2761
 8395TIP3   OH225148   4.731   4.714   2.848  0.0446 -0.0617  0.1181
 8395TIP3    H125149   4.647   4.731   2.805 -0.0240  0.8074  0.5689
 8395TIP3    H225150   4.796   4.719   2.779 -0.3324 -1.4094 -0.3587
 8396TIP3   OH225151   5.822   5.467   5.551  0.2336 -0.0816 -0.5907
 8396TIP3    H125152   5.874   5.387   5.550  0.9600  0.3768 -1.4259
 8396TIP3    H225153   5.859   5.518   5.624 -0.7506 -0.8132  0.4513
 8397TIP3   OH225154   5.063   1.317   2.450 -0.0544  0.5713 -0.7026
 8397TIP3    H125155   5.146   1.335   2.406  0.2095 -0.2807 -0.5679
 8397TIP3    H225156   5.052   1.390   2.512  1.5185 -0.2283  0.5984
 8398TIP3   OH225157   2.350   3.255   0.778  0.4283 -0.3533 -0.2112
 8398TIP3    H125158   2.286   3.245   0.708  2.1158 -0.1450 -1.8530
 8398TIP3    H225159   2.401   3.173   0.777  0.7864 -0.1519  0.4554
 8399TIP3   OH225160   3.941   1.578   2.377  0.6570  0.0230 -0.1823
 8399TIP3    H125161   3.958   1.490   2.345  0.1990 -0.5868  1.1530
 8399TIP3    H225162   3.980   1.579   2.465 -2.2539 -0.0123  1.2186
 8400TIP3   OH225163   3.967   6.705   0.480 -0.5721  0.0998  0.1580
 8400TIP3    H125164   3.998   6.622   0.444 -1.6807 -0.6845  0.9457
 8400TIP3    H225165   4.035   6.731   0.542 -0.0807 -0.0592 -0.3072
 8401TIP3   OH225166   5.007   5.727   1.089  0.6394  0.2865  0.7069
 8401TIP3    H125167   4.985   5.799   1.029  2.6775 -0.3673 -0.9723
 8401TIP3    H225168   4.932   5.667   1.084  0.5928  0.4380 -0.9355
 8402TIP3   OH225169   3.065   4.862   5.701  0.2752 -0.7221  0.1692
 8402TIP3    H125170   3.081   4.894   5.790 -0.3616  0.8205 -0.2490
 8402TIP3    H225171   2.980   4.898   5.678  0.2804 -1.3968 -0.9545
 8403TIP3   OH225172   4.005   1.681   0.690  0.1592 -0.0606  0.1042
 8403TIP3    H125173   4.090   1.719   0.668 -0.1450  1.2603  1.0607
 8403TIP3    H225174   3.941   1.746   0.660 -0.4747 -0.6546  0.1417
 8404TIP3   OH225175   1.391   3.838   1.427 -0.2929  0.0408  0.0875
 8404TIP3    H125176   1.487   3.833   1.422 -0.1912  1.9534 -0.4225
 8404TIP3    H225177   1.364   3.747   1.440  1.6256 -0.4666  0.9977
 8405TIP3   OH225178   5.296   3.256   2.107 -0.0873  0.0067 -0.0251
 8405TIP3    H125179   5.282   3.189   2.174  1.8882  0.0432  0.4999
 8405TIP3    H225180   5.246   3.331   2.137  1.8997  0.5298  2.3054
 8406TIP3   OH225181   5.486   0.188   1.988  0.4786 -0.5771 -0.3903
 8406TIP3    H125182   5.561   0.129   1.994  0.8497  0.0109  1.0952
 8406TIP3    H225183   5.510   0.251   1.921  1.6690  0.0715  0.6098
 8407TIP3   OH225184   4.809   3.516   0.330  0.1186 -0.3739 -0.1588
 8407TIP3    H125185   4.773   3.433   0.361  0.3501 -0.4379 -0.0586
 8407TIP3    H225186   4.889   3.491   0.284 -0.7311 -0.3859 -1.7105
 8408TIP3   OH225187   2.676   5.115   3.736 -1.6443  0.1019 -0.2464
 8408TIP3    H125188   2.715   5.035   3.700 -0.6147  0.4653  0.0306
 8408TIP3    H225189   2.732   5.185   3.705  0.0302  0.3564  2.9081
 8409TIP3   OH225190   2.192   3.858   4.373 -0.1505 -0.6207 -0.0456
 8409TIP3    H125191   2.253   3.913   4.422 -1.0026  1.0020 -0.7064
 8409TIP3    H225192   2.226   3.769   4.383  2.3252  0.1963 -0.4043
 8410TIP3   OH225193   4.239   3.226   1.550 -0.1654  0.0690 -0.6604
 8410TIP3    H125194   4.316   3.174   1.525  0.0358  0.2762 -0.4764
 8410TIP3    H225195   4.192   3.241   1.468  0.8341  1.3007 -1.0359
 8411TIP3   OH225196   2.988   6.375   4.275  0.3741 -0.0738  0.1309
 8411TIP3    H125197   2.898   6.355   4.247 -0.1239  0.1000  1.5167
 8411TIP3    H225198   3.009   6.457   4.231  0.0490 -0.3897 -0.6241
 8412TIP3   OH225199   1.042   1.131   1.751  0.4356 -0.7678 -0.4938
 8412TIP3    H125200   1.119   1.113   1.804 -0.0383 -0.2027  0.4199
 8412TIP3    H225201   1.071   1.195   1.686  0.8871 -1.0253 -0.5420
 8413TIP3   OH225202   5.527   4.318   3.951 -0.7021 -0.1693  0.2299
 8413TIP3    H125203   5.495   4.350   3.867  1.5607  1.5519 -0.0596
 8413TIP3    H225204   5.468   4.358   4.015 -2.1252 -1.0752 -0.4542
 8414TIP3   OH225205   1.012   3.854   1.524 -0.0778  0.3848  0.4296
 8414TIP3    H125206   1.049   3.766   1.514 -1.3522 -0.1165  0.0348
 8414TIP3    H225207   0.921   3.840   1.548 -0.5595  1.5872 -0.5630
 8415TIP3   OH225208   3.229   3.159   4.983 -0.0422  0.1325  0.2648
 8415TIP3    H125209   3.266   3.240   4.948  0.2249  0.4327  1.2187
 8415TIP3    H225210   3.305   3.110   5.015 -0.1483 -0.7348 -0.7567
 8416TIP3   OH225211   3.425   0.614   0.712 -0.6144 -0.6691  0.0478
 8416TIP3    H125212   3.429   0.519   0.702 -0.6634 -0.5832 -0.9535
 8416TIP3    H225213   3.406   0.646   0.624 -0.0402  0.3089  0.2672
 8417TIP3   OH225214   5.268   2.603   2.825  0.5929  0.1259 -0.5018
 8417TIP3    H125215   5.206   2.655   2.774 -0.4761 -0.2912  0.3212
 8417TIP3    H225216   5.302   2.538   2.764 -2.3933 -1.8645 -0.2336
 8418TIP3   OH225217   5.176   0.140   1.625  0.6048  0.0337  0.6785
 8418TIP3    H125218   5.160   0.130   1.531  0.5159  0.3330  0.6623
 8418TIP3    H225219   5.188   0.234   1.637  1.8194 -0.1191  0.7690
 8419TIP3   OH225220   3.994   0.579   4.723  0.4324 -0.1438  0.2329
 8419TIP3    H125221   4.008   0.665   4.763 -1.9616  1.9022 -2.8334
 8419TIP3    H225222   3.899   0.567   4.725  0.2449 -0.4007 -3.4687
 8420TIP3   OH225223   4.315   4.831   5.023 -0.0238 -0.4954  0.3985
 8420TIP3    H125224   4.306   4.762   4.958  1.5537 -1.3752  1.0830
 8420TIP3    H225225   4.375   4.796   5.089 -0.2503  1.0079  1.4697
 8421TIP3   OH225226   1.036   1.199   0.792  0.7478  0.1164 -0.7059
 8421TIP3    H125227   1.066   1.169   0.706  1.5082 -0.1779 -0.3466
 8421TIP3    H225228   0.974   1.270   0.772 -0.2028 -0.9112 -1.5258
 8422TIP3   OH225229   5.568   3.069   1.373 -0.7496 -0.1168 -0.6749
 8422TIP3    H125230   5.662   3.057   1.387 -0.6873  1.4073  0.4297
 8422TIP3    H225231   5.538   2.984   1.342  0.5562 -1.4215  1.3567
 8423TIP3   OH225232   3.186   4.163   3.139  0.2907  0.1697  0.0148
 8423TIP3    H125233   3.271   4.139   3.175  0.3304  1.1452  0.6105
 8423TIP3    H225234   3.181   4.116   3.056  0.2762 -1.9876  1.1637
 8424TIP3   OH225235   1.120   5.030   5.089 -0.2188 -0.1653 -0.1860
 8424TIP3    H125236   1.061   5.009   5.161  1.4420  0.4858  1.4331
 8424TIP3    H225237   1.128   5.126   5.092  1.3811 -0.2760  0.0604
 8425TIP3   OH225238   5.732   5.327   0.152  0.3233  0.1016 -0.1388
 8425TIP3    H125239   5.686   5.309   0.234 -1.1078  1.2878 -0.6345
 8425TIP3    H225240   5.822   5.300   0.169  0.0708  0.3463  1.8305
 8426TIP3   OH225241   5.104   4.026   1.670 -0.0902 -0.4103 -0.7219
 8426TIP3    H125242   5.049   3.952   1.698 -0.6999  0.1878 -0.2958
 8426TIP3    H225243   5.193   3.990   1.667 -0.2483 -0.9358  0.3597
 8427TIP3   OH225244   4.815   5.665   5.619  0.0257 -0.3642 -0.0542
 8427TIP3    H125245   4.891   5.653   5.561  0.0050  0.4177 -0.2521
 8427TIP3    H225246   4.747   5.700   5.561 -0.6781 -1.6037  0.0019
 8428TIP3   OH225247   1.570   1.318   5.563  0.4206 -0.8167  0.3208
 8428TIP3    H125248   1.634   1.389   5.557 -0.2087  0.0027  2.3177
 8428TIP3    H225249   1.617   1.240   5.536  1.6109  0.0961 -0.3516
 8429TIP3   OH225250   4.748   5.591   4.951  0.6689  0.0602  0.0101
 8429TIP3    H125251   4.723   5.682   4.930 -0.1988 -0.2071 -0.1530
 8429TIP3    H225252   4.673   5.556   4.999  0.9162 -0.6344 -0.1044
 8430TIP3   OH225253   2.755   6.371   5.772 -0.1732 -0.7513 -0.4079
 8430TIP3    H125254   2.790   6.395   5.858  0.9081 -0.6087 -0.8681
 8430TIP3    H225255   2.823   6.315   5.734 -0.5298 -0.6114 -1.2620
 8431TIP3   OH225256   1.641   4.728   2.444  0.1577  0.1244  0.3211
 8431TIP3    H125257   1.625   4.791   2.374  0.6130  0.7405  0.7593
 8431TIP3    H225258   1.682   4.654   2.400  0.5650  0.5627 -0.0514
 8432TIP3   OH225259   1.283   4.052   1.230  0.1555  0.3261 -1.0096
 8432TIP3    H125260   1.321   4.093   1.308 -2.0718  1.0877 -0.2332
 8432TIP3    H225261   1.330   3.969   1.222  0.5462  0.2709  1.1147
 8433TIP3   OH225262   1.262   4.352   0.486  0.5858 -0.0497 -0.4953
 8433TIP3    H125263   1.316   4.299   0.427  0.2709 -1.2470  0.2412
 8433TIP3    H225264   1.283   4.320   0.573 -1.0743 -0.3627 -0.1698
 8434TIP3   OH225265   2.192   1.536   4.829 -0.1974 -0.5224 -0.3336
 8434TIP3    H125266   2.274   1.489   4.814  0.5189  0.7431 -0.5870
 8434TIP3    H225267   2.124   1.474   4.804  0.6875 -1.5232 -0.3551
 8435TIP3   OH225268   4.020   2.179   5.410  0.0931  0.1356  0.1956
 8435TIP3    H125269   4.108   2.180   5.370  0.1428 -0.9985  0.2548
 8435TIP3    H225270   3.998   2.087   5.417 -1.4962  0.4277 -0.6415
 8436TIP3   OH225271   4.756   3.332   3.245  0.1732 -0.1733 -0.3006
 8436TIP3    H125272   4.802   3.249   3.239 -1.0568 -0.8291 -1.2466
 8436TIP3    H225273   4.667   3.309   3.272 -0.2275  0.8101 -0.7187
 8437TIP3   OH225274   6.208   3.395   3.918 -0.7287  0.0278  0.0834
 8437TIP3    H125275   6.264   3.431   3.987  0.3990  0.1366 -0.8536
 8437TIP3    H225276   6.248   3.311   3.897 -0.2571  0.5692 -1.3261
 8438TIP3   OH225277   3.811   2.803   3.704 -0.2041 -0.2709 -0.1710
 8438TIP3    H125278   3.820   2.780   3.611  0.6972  2.3799 -0.8097
 8438TIP3    H225279   3.721   2.777   3.725 -0.5070 -0.7378 -1.8425
 8439TIP3   OH225280   0.293   3.121   0.360 -0.4697 -0.1525  0.4105
 8439TIP3    H125281   0.328   3.188   0.419 -4.1757  3.1208 -0.6984
 8439TIP3    H225282   0.215   3.089   0.404 -1.4841 -0.0189 -1.2214
 8440TIP3   OH225283   4.933   6.260   2.857 -0.8822 -0.2835  0.1108
 8440TIP3    H125284   4.849   6.307   2.854 -0.6267  0.4053  2.0260
 8440TIP3    H225285   4.986   6.300   2.788 -1.3743  0.8471  0.3688
 8441TIP3   OH225286   3.057   6.399   4.824  0.1849 -0.1189  0.5151
 8441TIP3    H125287   3.068   6.405   4.729 -0.5729 -1.6546  0.2932
 8441TIP3    H225288   3.081   6.485   4.856  0.1043  0.5490 -1.1042
 8442TIP3   OH225289   5.673   3.556   2.055 -0.5690 -0.6791 -0.1860
 8442TIP3    H125290   5.614   3.494   2.013 -0.2430  0.2737 -2.1728
 8442TIP3    H225291   5.617   3.631   2.078 -0.4094 -0.3835 -0.7411
 8443TIP3   OH225292   4.182   1.223   2.464  0.0126 -0.1074  0.3057
 8443TIP3    H125293   4.092   1.191   2.460 -0.1672  0.3788  0.4454
 8443TIP3    H225294   4.232   1.150   2.501 -0.3924 -0.2322  0.6061
 8444TIP3   OH225295   6.709   6.461   3.930  0.3078 -0.3451 -0.2626
 8444TIP3    H125296   6.783   6.506   3.888 -0.3688  1.0691 -0.0030
 8444TIP3    H225297   6.662   6.420   3.857 -0.7116  1.8753 -0.9630
 8445TIP3   OH225298   3.118   1.960   1.315 -0.1347 -0.1651  0.2364
 8445TIP3    H125299   3.213   1.967   1.325 -0.3351  1.5240  1.2388
 8445TIP3    H225300   3.091   2.045   1.279 -1.3782 -0.2503  0.9106
 8446TIP3   OH225301   1.885   3.282   2.844  0.4772  0.0707 -0.1709
 8446TIP3    H125302   1.852   3.192   2.847 -0.7567  0.5228  0.6709
 8446TIP3    H225303   1.964   3.280   2.898 -1.1441  0.0555  2.3760
 8447TIP3   OH225304   1.221   4.391   2.685 -0.5270 -0.2778 -0.4164
 8447TIP3    H125305   1.306   4.416   2.649 -0.5889  1.8720  0.7905
 8447TIP3    H225306   1.241   4.355   2.772 -0.8609  0.4636 -0.0283
 8448TIP3   OH225307   2.236   4.996   1.320  0.0499 -0.3709 -0.0951
 8448TIP3    H125308   2.254   5.023   1.410 -0.3083 -0.0429 -0.1169
 8448TIP3    H225309   2.269   5.068   1.266  0.5736 -0.7188 -0.2510
 8449TIP3   OH225310   0.675   0.449   4.443 -0.3218  0.5254  0.1927
 8449TIP3    H125311   0.705   0.417   4.528  1.3658  0.0040 -0.5582
 8449TIP3    H225312   0.631   0.373   4.403 -0.8886  0.6950  0.4878
 8450TIP3   OH225313   0.287   0.396   2.851 -0.4987  0.2864 -0.2685
 8450TIP3    H125314   0.217   0.352   2.898 -0.1856  1.2158  1.1101
 8450TIP3    H225315   0.250   0.482   2.829  0.0790  0.6291  0.1096
 8451TIP3   OH225316   5.743   5.601   3.948  0.7053 -0.3430  0.7814
 8451TIP3    H125317   5.685   5.575   4.020 -0.0863 -1.9677 -0.3743
 8451TIP3    H225318   5.691   5.662   3.897  1.5180  1.3605  1.9137
 8452TIP3   OH225319   2.922   5.405   4.273  0.1125  0.0918  0.7379
 8452TIP3    H125320   2.850   5.469   4.272  0.6862  0.8124 -1.9539
 8452TIP3    H225321   2.893   5.335   4.214 -0.4362 -2.2114  3.5135
 8453TIP3   OH225322   7.091   5.862   1.123 -1.3425 -0.0991 -0.5208
 8453TIP3    H125323   7.033   5.825   1.190 -1.5328  0.7952 -0.1859
 8453TIP3    H225324   7.141   5.929   1.168 -1.3940  0.4388 -1.2432
 8454TIP3   OH225325   1.453   3.417   5.075  0.0363  0.0040 -0.0513
 8454TIP3    H125326   1.431   3.476   5.147  0.4212  1.3527 -0.9971
 8454TIP3    H225327   1.500   3.472   5.012 -0.5081 -1.0634 -1.4471
 8455TIP3   OH225328   5.833   1.577   4.286 -0.2762 -0.0625  0.2151
 8455TIP3    H125329   5.883   1.654   4.259 -3.0314  1.1271 -2.0126
 8455TIP3    H225330   5.765   1.611   4.344 -0.0471 -1.2462  1.2330
 8456TIP3   OH225331   2.387   5.115   5.337 -0.0436 -0.0744  0.1999
 8456TIP3    H125332   2.407   5.040   5.393  4.2182  0.9112  0.3659
 8456TIP3    H225333   2.390   5.190   5.396 -2.0048  0.4987 -0.3515
 8457TIP3   OH225334   5.637   1.259   3.976  0.6035 -0.5312  0.0688
 8457TIP3    H125335   5.666   1.303   3.896  1.4518  0.3528  0.8332
 8457TIP3    H225336   5.669   1.315   4.047 -0.9441 -0.7867  1.0230
 8458TIP3   OH225337   2.064   4.424   0.664 -0.5433  0.4877 -0.7172
 8458TIP3    H125338   2.144   4.389   0.626 -1.0062  0.1605 -1.3981
 8458TIP3    H225339   2.011   4.449   0.589 -1.0315  0.8167 -0.2663
 8459TIP3   OH225340   5.228   4.887   2.513 -0.1017 -0.1395  0.0518
 8459TIP3    H125341   5.282   4.841   2.448  1.4697  1.0684  0.4446
 8459TIP3    H225342   5.194   4.963   2.466  1.8769  1.3112  0.8212
 8460TIP3   OH225343   4.856   5.849   4.943  1.1855 -0.0537  0.0245
 8460TIP3    H125344   4.764   5.877   4.944  0.1151 -3.1614 -0.9193
 8460TIP3    H225345   4.903   5.924   4.907 -0.9366  1.6977  0.6784
 8461TIP3   OH225346   6.433   1.599   4.139  0.7971 -0.0420  0.0126
 8461TIP3    H125347   6.392   1.515   4.117  1.8783 -0.8956  1.1614
 8461TIP3    H225348   6.359   1.656   4.160  0.0657 -0.8175 -0.3865
 8462TIP3   OH225349   4.204   3.690   3.029  0.0453 -0.1092 -0.1585
 8462TIP3    H125350   4.178   3.779   3.003  0.9247  0.5791  1.2539
 8462TIP3    H225351   4.134   3.661   3.087 -0.8611 -0.8483 -1.5568
 8463TIP3   OH225352   2.537   5.616   1.867  0.2122  0.0708  0.4065
 8463TIP3    H125353   2.495   5.685   1.816 -0.3889 -0.7856 -0.2874
 8463TIP3    H225354   2.614   5.657   1.905  0.8722  0.6541 -1.4927
 8464TIP3   OH225355   2.061   6.416   4.430  0.1100  0.1436  0.1076
 8464TIP3    H125356   1.987   6.473   4.410  0.5532  0.4114 -0.8199
 8464TIP3    H225357   2.130   6.444   4.371  0.1730 -1.7336 -0.7929
 8465TIP3   OH225358   1.905   2.646   4.501  0.4970 -0.5636 -0.0336
 8465TIP3    H125359   1.924   2.562   4.542  1.1996 -0.8672 -0.9480
 8465TIP3    H225360   1.988   2.673   4.462  0.2866  0.5825  0.2828
 8466TIP3   OH225361   1.148   4.329   3.660  0.0097 -0.2203  0.7958
 8466TIP3    H125362   1.101   4.386   3.721  1.1145 -0.7776  2.2397
 8466TIP3    H225363   1.236   4.365   3.656  0.3153 -0.9619  0.5761
 8467TIP3   OH225364   5.728   2.584   0.967 -0.4380  0.2980  0.4105
 8467TIP3    H125365   5.669   2.568   1.040  0.4522 -0.7517  0.9296
 8467TIP3    H225366   5.796   2.640   1.003  0.2574 -0.6021  0.5448
 8468TIP3   OH225367   2.321   4.625   3.401 -0.3642  0.0628 -0.2220
 8468TIP3    H125368   2.390   4.560   3.412 -0.5995  0.0746  1.8049
 8468TIP3    H225369   2.239   4.577   3.416 -0.4587  1.0753  3.4849
 8469TIP3   OH225370   5.549   0.688   4.795  0.0879 -0.7356  0.0931
 8469TIP3    H125371   5.644   0.693   4.807  0.2852  0.8225 -1.5644
 8469TIP3    H225372   5.535   0.715   4.704 -1.9631 -0.8589  0.3156
 8470TIP3   OH225373   0.799   6.494   2.597 -0.1483 -0.2175 -0.0681
 8470TIP3    H125374   0.820   6.420   2.654  0.7564  0.6697  0.7993
 8470TIP3    H225375   0.850   6.478   2.517 -1.6169 -1.5963 -0.7790
 8471TIP3   OH225376   4.866   6.071   0.594 -0.0800 -0.3665  0.6234
 8471TIP3    H125377   4.926   6.057   0.668  1.3754  0.8415 -0.2633
 8471TIP3    H225378   4.779   6.073   0.634  0.7022  0.7195  2.3872
 8472TIP3   OH225379   6.752   1.416   1.135  0.6206 -0.2573  0.2971
 8472TIP3    H125380   6.764   1.486   1.070  0.0731 -2.2927 -2.1782
 8472TIP3    H225381   6.814   1.349   1.108 -1.3956 -2.2237  0.3096
 8473TIP3   OH225382   6.182   1.719   5.210 -0.4280  0.3189 -0.3130
 8473TIP3    H125383   6.128   1.783   5.257 -2.5276 -2.4673  1.3497
 8473TIP3    H225384   6.130   1.697   5.133 -1.0973 -1.3838  0.5896
 8474TIP3   OH225385   6.091   3.272   3.479  0.1270  0.2820  0.2890
 8474TIP3    H125386   6.083   3.264   3.384 -1.2378 -0.1542  0.4347
 8474TIP3    H225387   6.156   3.342   3.491  0.3553  0.3050 -0.9516
 8475TIP3   OH225388   0.661   2.335   0.902  0.0044  0.4435 -0.2582
 8475TIP3    H125389   0.621   2.334   0.816 -1.4549  0.9223  0.3809
 8475TIP3    H225390   0.709   2.418   0.906 -0.4610  0.7233 -0.3897
 8476TIP3   OH225391   5.131   6.085   3.361 -0.2747  0.2894  0.6247
 8476TIP3    H125392   5.194   6.070   3.431 -0.5597 -0.2118  0.7734
 8476TIP3    H225393   5.130   6.181   3.351  0.6083  0.3007  0.5234
 8477TIP3   OH225394   3.375   3.888   4.034 -0.3156  0.2211  0.5596
 8477TIP3    H125395   3.447   3.872   3.973 -1.5412 -0.7387 -0.6701
 8477TIP3    H225396   3.412   3.949   4.098  1.3640  0.3288 -0.4527
 8478TIP3   OH225397   2.605   0.813   0.980  0.6814  0.9540 -0.0723
 8478TIP3    H125398   2.676   0.835   0.920  0.1948  0.5739 -0.8122
 8478TIP3    H225399   2.567   0.898   1.004  0.3903  1.0741 -0.9233
 8479TIP3   OH225400   0.933   1.023   3.293 -0.4169  0.6236  0.1418
 8479TIP3    H125401   0.882   0.988   3.220 -0.5988 -1.7883  1.3212
 8479TIP3    H225402   0.869   1.031   3.365 -0.3854  3.5421 -0.0201
 8480TIP3   OH225403   3.960   2.539   1.970 -0.2466 -0.5885  0.5519
 8480TIP3    H125404   3.872   2.576   1.979  0.5393  1.2683  1.0428
 8480TIP3    H225405   4.018   2.615   1.974  1.2378 -1.3036 -3.5775
 8481TIP3   OH225406   3.667   5.932   0.246  0.3748  0.2199  0.3081
 8481TIP3    H125407   3.633   5.977   0.324  0.4751 -1.5025  1.4063
 8481TIP3    H225408   3.704   5.850   0.280  1.5494 -0.0272 -1.4139
 8482TIP3   OH225409   3.515   2.492   2.147  0.3332  0.0893 -0.0889
 8482TIP3    H125410   3.478   2.411   2.113  0.5709  0.5924 -1.6069
 8482TIP3    H225411   3.440   2.550   2.157  0.3657  0.2137 -0.5594
 8483TIP3   OH225412   4.895   6.702   0.201 -0.3275 -0.6835 -0.3276
 8483TIP3    H125413   4.822   6.661   0.154  0.7274 -0.9873 -1.7665
 8483TIP3    H225414   4.920   6.638   0.267 -1.6726 -0.3601  0.5281
 8484TIP3   OH225415   6.946   4.158   4.890 -0.4499  0.0038  0.0522
 8484TIP3    H125416   6.952   4.176   4.983  0.0324 -1.3249  0.3019
 8484TIP3    H225417   6.855   4.133   4.876 -0.0310 -2.0847  0.6558
 8485TIP3   OH225418   1.531   6.052   1.050 -0.7881 -0.0663 -0.2666
 8485TIP3    H125419   1.620   6.023   1.035 -0.3749  0.6548  0.6859
 8485TIP3    H225420   1.503   6.003   1.128 -0.7446  0.6925  0.2294
 8486TIP3   OH225421   5.176   1.400   0.860  0.0006  0.1908  0.6264
 8486TIP3    H125422   5.201   1.311   0.887  0.9333  0.6307  1.2536
 8486TIP3    H225423   5.179   1.451   0.940  1.1349  1.1534 -0.0077
 8487TIP3   OH225424   2.579   5.290   0.962  0.2607  0.4266  0.5027
 8487TIP3    H125425   2.594   5.345   0.885  0.1901  0.5066  0.5459
 8487TIP3    H225426   2.659   5.239   0.971 -0.2468 -0.5711 -0.4219
 8488TIP3   OH225427   5.057   2.173   0.655 -0.3791  0.4255 -0.0341
 8488TIP3    H125428   5.117   2.245   0.673 -0.1461 -0.0737  1.3438
 8488TIP3    H225429   5.018   2.152   0.740 -1.5822 -0.0860 -0.6774
 8489TIP3   OH225430   4.683   2.629   0.881  0.3389  0.4045 -0.4622
 8489TIP3    H125431   4.732   2.565   0.932 -0.9229 -0.5543 -0.4362
 8489TIP3    H225432   4.742   2.705   0.876  2.7052 -1.3643 -2.1168
 8490TIP3   OH225433   4.963   4.918   2.797 -0.0234 -0.8495  0.1063
 8490TIP3    H125434   4.924   4.974   2.864  1.4482 -0.1365  0.4094
 8490TIP3    H225435   4.960   4.970   2.717 -0.3918 -1.0973 -0.0420
 8491TIP3   OH225436   4.139   3.813   4.113  0.2492  0.3167 -0.3611
 8491TIP3    H125437   4.220   3.767   4.091  0.2433 -0.4264  1.0423
 8491TIP3    H225438   4.168   3.895   4.154  0.2764  0.4484 -0.6398
 8492TIP3   OH225439   0.331   5.736   1.800 -0.0158  0.6035  0.2329
 8492TIP3    H125440   0.383   5.674   1.749 -1.7917 -1.3504  0.6620
 8492TIP3    H225441   0.391   5.809   1.817  2.2173 -1.0126 -0.2052
 8493TIP3   OH225442   0.019   0.915   4.532  0.1634  0.2052  0.1111
 8493TIP3    H125443   0.034   0.974   4.606  0.3870 -0.2425  0.4243
 8493TIP3    H225444   0.093   0.931   4.474  0.2872  0.1452  0.2523
 8494TIP3   OH225445   3.019   5.320   1.435  0.2127 -0.3951  0.3172
 8494TIP3    H125446   3.068   5.277   1.365 -0.5238 -0.5420 -0.1130
 8494TIP3    H225447   2.946   5.363   1.391  0.8891  1.2557  0.7468
 8495TIP3   OH225448   4.190   3.802   0.462  0.7308 -0.8078  0.5215
 8495TIP3    H125449   4.109   3.762   0.431  0.7942 -1.4181  1.1275
 8495TIP3    H225450   4.222   3.853   0.387 -0.4020 -0.2491  0.3909
 8496TIP3   OH225451   3.099   5.529   5.269  0.7285 -0.4322  0.2128
 8496TIP3    H125452   3.113   5.460   5.334 -0.9814 -1.9170 -0.9060
 8496TIP3    H225453   3.184   5.539   5.227  1.0838 -1.6455  0.6043
 8497TIP3   OH225454   4.909   2.969   2.727 -0.2012 -0.2738 -0.5099
 8497TIP3    H125455   4.905   2.988   2.821  1.4571  0.0570 -0.4774
 8497TIP3    H225456   4.831   3.012   2.690 -1.6716 -1.6252  0.8804
 8498TIP3   OH225457   3.919   2.900   5.480 -0.1375  0.4410 -0.4268
 8498TIP3    H125458   3.965   2.831   5.527 -0.4260  0.1133 -0.6267
 8498TIP3    H225459   3.829   2.894   5.510 -0.8138 -1.1488 -2.5586
 8499TIP3   OH225460   6.770   2.779   1.760  0.4003 -0.1158  0.0268
 8499TIP3    H125461   6.831   2.790   1.833  1.8020 -0.2057 -1.0857
 8499TIP3    H225462   6.730   2.693   1.774  0.5433 -0.0617  0.7768
 8500TIP3   OH225463   0.549   3.776   4.739  0.1120 -0.2201  1.1224
 8500TIP3    H125464   0.485   3.705   4.748  0.3559 -0.4574  1.0131
 8500TIP3    H225465   0.554   3.814   4.827  0.9303 -1.1803  1.5200
 8501TIP3   OH225466   3.442   0.778   4.177  0.6048 -0.4518 -0.0193
 8501TIP3    H125467   3.376   0.819   4.121  0.2125  0.0452  0.7927
 8501TIP3    H225468   3.406   0.692   4.198  0.4537 -0.3816  0.0065
 8502TIP3   OH225469   2.171   1.250   4.250 -0.1641  0.2809 -0.2699
 8502TIP3    H125470   2.163   1.249   4.345  1.9426 -0.3276 -0.0379
 8502TIP3    H225471   2.152   1.340   4.225  1.3074  0.9765  0.9800
 8503TIP3   OH225472   4.427   4.026   3.451 -0.1359  0.1489 -0.1700
 8503TIP3    H125473   4.344   4.074   3.463 -0.2812  0.3416 -1.7621
 8503TIP3    H225474   4.494   4.095   3.453  0.0203 -0.0099  1.1454
 8504TIP3   OH225475   5.901   0.130   5.749  0.0261 -0.2219 -0.1947
 8504TIP3    H125476   5.877   0.038   5.762 -0.6834  0.0412  0.3706
 8504TIP3    H225477   5.902   0.167   5.837 -1.5235  0.7621 -0.5686
 8505TIP3   OH225478   0.726   5.182   1.435  0.1218 -0.1272  0.0351
 8505TIP3    H125479   0.758   5.189   1.345  1.0379 -1.0969  0.2699
 8505TIP3    H225480   0.740   5.090   1.458  0.8158  0.3280  1.5070
 8506TIP3   OH225481   6.836   3.740   2.804  0.0993  0.2987  0.7690
 8506TIP3    H125482   6.883   3.667   2.844  0.0613 -0.6935 -0.8874
 8506TIP3    H225483   6.891   3.817   2.820  1.7286 -0.6349 -0.1429
 8507TIP3   OH225484   6.391   4.751   1.717  0.0464  0.5605  0.2956
 8507TIP3    H125485   6.379   4.656   1.708  0.8124  0.5280 -0.5406
 8507TIP3    H225486   6.350   4.788   1.638  0.5348  0.8528  0.1734
 8508TIP3   OH225487   6.574   2.176   1.393  0.0325  0.2477 -0.0060
 8508TIP3    H125488   6.580   2.105   1.329 -1.6493  1.2709 -1.3947
 8508TIP3    H225489   6.602   2.136   1.476  3.4848 -0.8045 -1.4979
 8509TIP3   OH225490   2.099   6.746   0.854 -0.1353  0.1745 -0.1836
 8509TIP3    H125491   2.155   6.822   0.869  0.3666 -0.2461  0.1091
 8509TIP3    H225492   2.046   6.739   0.933 -0.9077  0.8168 -0.6289
 8510TIP3   OH225493   2.079   1.544   4.226 -0.2791 -0.0748  0.5029
 8510TIP3    H125494   2.082   1.577   4.315 -0.4108  2.1178 -0.2478
 8510TIP3    H225495   2.102   1.619   4.171 -2.4282 -0.7021 -1.4522
 8511TIP3   OH225496   1.881   1.798   3.090 -0.2461  0.1443 -0.4130
 8511TIP3    H125497   1.943   1.869   3.076 -0.0225  0.2892  1.1349
 8511TIP3    H225498   1.935   1.724   3.117 -0.6219 -0.0949 -0.3061
 8512TIP3   OH225499   6.623   4.522   0.940  0.5856  0.1811  0.1654
 8512TIP3    H125500   6.555   4.590   0.935 -0.3704 -0.8342 -1.4549
 8512TIP3    H225501   6.706   4.570   0.933  0.0528  1.3738  1.4736
 8513TIP3   OH225502   2.240   5.133   2.889  0.2122 -0.1027  0.1527
 8513TIP3    H125503   2.201   5.209   2.845  0.9155  0.5007  0.5510
 8513TIP3    H225504   2.177   5.109   2.956  0.4300  0.7661  0.6858
 8514TIP3   OH225505   2.504   0.847   2.656  0.4086 -0.0544 -0.3362
 8514TIP3    H125506   2.460   0.914   2.708 -1.0120 -0.7320 -0.6165
 8514TIP3    H225507   2.445   0.772   2.658  0.1303 -0.0255 -3.1645
 8515TIP3   OH225508   3.106   2.845   3.105 -0.2422 -0.4039  0.2773
 8515TIP3    H125509   3.073   2.758   3.081  1.0541 -1.0319  0.6411
 8515TIP3    H225510   3.189   2.827   3.150  0.4134  1.0572 -0.2802
 8516TIP3   OH225511   0.538   0.106   1.862  0.0906  0.1942  0.2739
 8516TIP3    H125512   0.526   0.196   1.891  1.2966  0.4553  0.0085
 8516TIP3    H225513   0.606   0.111   1.795  0.7493 -1.0023  0.8173
 8517TIP3   OH225514   4.832   4.679   1.255  0.3185  0.1006  0.3547
 8517TIP3    H125515   4.845   4.666   1.161 -1.6382 -0.9711  0.1843
 8517TIP3    H225516   4.849   4.593   1.294 -0.3517  0.1514  0.7816
 8518TIP3   OH225517   3.522   1.985   0.373  0.2507 -0.2012  0.1121
 8518TIP3    H125518   3.441   2.029   0.348 -0.5966 -2.0651 -0.6383
 8518TIP3    H225519   3.496   1.924   0.442  0.9185 -1.0591 -0.3667
 8519TIP3   OH225520   6.450   6.538   4.125 -0.1194 -0.4332 -0.0476
 8519TIP3    H125521   6.414   6.625   4.111  1.3000  0.3218  0.7977
 8519TIP3    H225522   6.483   6.512   4.039 -0.4040 -0.0671 -0.2695
 8520TIP3   OH225523   5.433   2.038   2.798 -0.3144 -0.2753 -0.2534
 8520TIP3    H125524   5.481   1.969   2.843  0.4314  0.4028  0.0118
 8520TIP3    H225525   5.346   2.001   2.783 -0.5754 -0.5477  1.6771
 8521TIP3   OH225526   2.230   6.441   1.173  0.4935  0.0200  0.1489
 8521TIP3    H125527   2.166   6.492   1.224 -0.5591  0.5739 -1.6359
 8521TIP3    H225528   2.239   6.359   1.222  0.0981  0.7935  1.6002
 8522TIP3   OH225529   5.339   3.527   3.715 -0.5526  0.3245 -0.1784
 8522TIP3    H125530   5.302   3.446   3.680 -0.5124  0.5648 -0.7877
 8522TIP3    H225531   5.372   3.574   3.638 -0.4106  0.8353  0.1877
 8523TIP3   OH225532   1.240   1.624   0.251 -0.0831 -0.2167  0.3515
 8523TIP3    H125533   1.264   1.594   0.339 -1.9289  0.2220  1.0599
 8523TIP3    H225534   1.206   1.545   0.208  1.4161 -0.5807 -0.2512
 8524TIP3   OH225535   0.710   1.593   0.075 -0.4577 -0.3509  0.4747
 8524TIP3    H125536   0.805   1.608   0.075 -0.1789 -1.9655 -0.0719
 8524TIP3    H225537   0.675   1.662   0.019  0.4485 -0.0226  0.2922
 8525TIP3   OH225538   3.064   5.213   3.453  0.2223 -0.6801 -0.6870
 8525TIP3    H125539   3.142   5.256   3.417  0.8866 -1.3239 -0.0667
 8525TIP3    H225540   3.078   5.120   3.435 -0.4505 -0.7910 -0.6427
 8526TIP3   OH225541   5.159   5.753   2.194  0.3120  0.3608  0.3977
 8526TIP3    H125542   5.183   5.784   2.281  1.4014  0.2959  0.1389
 8526TIP3    H225543   5.219   5.799   2.135 -1.4874  1.6794 -0.5062
 8527TIP3   OH225544   2.203   3.114   1.040  0.4492  0.0358 -0.3587
 8527TIP3    H125545   2.265   3.147   1.105  0.7404 -0.6300 -0.2859
 8527TIP3    H225546   2.222   3.020   1.034  0.7405  0.1546 -1.7292
 8528TIP3   OH225547   2.827   5.237   4.724 -0.1137  0.0294 -0.4630
 8528TIP3    H125548   2.864   5.234   4.635  0.5400 -1.1937 -0.1599
 8528TIP3    H225549   2.883   5.299   4.771 -1.0296  1.4261 -1.1231
 8529TIP3   OH225550   5.476   2.109   3.276  0.4368  0.1986 -0.2125
 8529TIP3    H125551   5.535   2.136   3.205 -0.4212 -0.6949 -1.2991
 8529TIP3    H225552   5.390   2.140   3.248  0.1864  0.4484  0.7935
 8530TIP3   OH225553   4.290   4.366   0.641  0.0900  0.0364  0.6210
 8530TIP3    H125554   4.234   4.435   0.605 -0.5908 -1.4179 -1.3611
 8530TIP3    H225555   4.343   4.409   0.707 -1.0189  2.2151  0.1845
 8531TIP3   OH225556   4.414   4.732   0.442  0.0189 -0.3063  0.2896
 8531TIP3    H125557   4.355   4.661   0.465 -0.2758  0.6710  2.8029
 8531TIP3    H225558   4.422   4.785   0.521  1.9214  1.2834 -0.8417
 8532TIP3   OH225559   2.366   3.642   3.467 -0.2434 -0.6824 -0.2984
 8532TIP3    H125560   2.319   3.593   3.400  1.3546 -0.8438 -1.3543
 8532TIP3    H225561   2.345   3.597   3.549 -0.2344 -2.0495 -1.0161
 8533TIP3   OH225562   5.709   2.647   0.246  0.2618  0.1657 -0.2960
 8533TIP3    H125563   5.663   2.571   0.211  1.3622 -0.9074  0.5070
 8533TIP3    H225564   5.669   2.661   0.332  0.0477  0.5107 -0.4511
 8534TIP3   OH225565   4.737   3.226   1.296  0.1307 -0.5284  0.5701
 8534TIP3    H125566   4.729   3.142   1.341  2.0073 -0.6624  0.7072
 8534TIP3    H225567   4.775   3.285   1.361 -2.1837  0.7792  0.8364
 8535TIP3   OH225568   5.866   2.518   4.904 -0.4080  0.3007  0.1269
 8535TIP3    H125569   5.836   2.511   4.813 -0.6274  0.4039  0.1915
 8535TIP3    H225570   5.955   2.552   4.897 -0.4614  0.4087 -0.0442
 8536TIP3   OH225571   1.169   1.133   1.988 -0.4984 -0.2023  0.1967
 8536TIP3    H125572   1.245   1.076   1.974 -0.2186  0.2274 -0.0546
 8536TIP3    H225573   1.185   1.173   2.074 -0.7818 -0.6317  0.4529
 8537TIP3   OH225574   1.297   6.654   1.242 -0.1229 -0.2964 -0.3115
 8537TIP3    H125575   1.297   6.566   1.279  0.4364  0.4032  1.4621
 8537TIP3    H225576   1.380   6.692   1.271 -0.3807  0.8450 -0.9994
 8538TIP3   OH225577   3.176   2.364   3.728 -0.3076 -0.2388  0.4914
 8538TIP3    H125578   3.136   2.427   3.788  0.4471 -0.3824  1.1451
 8538TIP3    H225579   3.106   2.302   3.708 -0.7210  0.1378  0.7586
 8539TIP3   OH225580   5.064   1.536   2.671  0.0937 -0.5576  0.1764
 8539TIP3    H125581   5.139   1.478   2.682  0.7308  0.5601  2.5343
 8539TIP3    H225582   5.081   1.609   2.732 -1.6802  1.0296 -1.1007
 8540TIP3   OH225583   0.662   1.478   1.032 -0.0846  0.0010  0.2147
 8540TIP3    H125584   0.699   1.565   1.050 -0.7405  0.0501  1.4759
 8540TIP3    H225585   0.617   1.489   0.948  1.4156  0.3448 -0.5766
 8541TIP3   OH225586   0.727   3.853   5.652  0.0988  0.0754 -1.1222
 8541TIP3    H125587   0.725   3.776   5.596 -1.0857 -0.1658 -0.7638
 8541TIP3    H225588   0.638   3.887   5.650 -0.2035 -0.3831  1.2201
 8542TIP3   OH225589   4.989   2.040   0.264 -0.5385  0.2035 -0.0605
 8542TIP3    H125590   4.936   2.116   0.243 -1.2096 -0.2608 -0.0780
 8542TIP3    H225591   5.030   2.015   0.181 -1.0944 -0.0367 -0.2701
 8543TIP3   OH225592   3.651   2.978   0.556 -0.3063  0.0259  0.2654
 8543TIP3    H125593   3.695   2.916   0.498 -1.8362 -0.9551  0.1058
 8543TIP3    H225594   3.574   3.005   0.507 -1.2848 -0.3134  1.5750
 8544TIP3   OH225595   0.109   5.357   1.908  0.0702  0.1387 -0.0454
 8544TIP3    H125596   0.151   5.275   1.881 -0.3587 -0.3585  0.7458
 8544TIP3    H225597   0.173   5.400   1.964  0.3114  0.3754 -0.4937
 8545TIP3   OH225598   3.157   6.316   3.969 -0.0100  0.0817 -0.1294
 8545TIP3    H125599   3.240   6.337   3.926  0.0185  0.1869 -0.0241
 8545TIP3    H225600   3.153   6.377   4.043  0.4217 -0.7745  0.6152
 8546TIP3   OH225601   6.069   0.052   2.226 -0.2208 -0.2824  0.4119
 8546TIP3    H125602   6.066   0.088   2.315  1.2104  1.0508 -0.0369
 8546TIP3    H225603   6.069  -0.043   2.238 -2.2781 -0.1982  1.7190
 8547TIP3   OH225604   4.505   0.503   4.570 -0.1195  0.1593  0.3025
 8547TIP3    H125605   4.557   0.434   4.528 -0.1428  0.3628 -0.0601
 8547TIP3    H225606   4.471   0.556   4.498  0.5906  1.0547  0.5889
 8548TIP3   OH225607   0.927   1.557   4.702 -0.4350  0.2930 -0.4800
 8548TIP3    H125608   0.987   1.573   4.629 -0.9338 -1.1212 -1.2520
 8548TIP3    H225609   0.969   1.486   4.751 -1.0030 -0.0382 -0.4690
 8549TIP3   OH225610   6.317   6.760   3.994  0.2274 -0.0279 -0.2043
 8549TIP3    H125611   6.280   6.684   3.948 -0.7717 -1.7936  3.1783
 8549TIP3    H225612   6.265   6.834   3.962 -1.1414 -1.2967 -1.1037
 8550TIP3   OH225613   1.040   4.739   3.650 -0.2895  0.6832 -0.1792
 8550TIP3    H125614   1.013   4.667   3.707  1.0635  1.1297  1.0950
 8550TIP3    H225615   1.037   4.703   3.562 -2.2448 -0.1064  0.1413
 8551TIP3   OH225616   1.112   4.102   1.519 -0.3300 -0.3273 -0.2546
 8551TIP3    H125617   1.085   4.011   1.524 -2.0345  0.2029  2.3666
 8551TIP3    H225618   1.034   4.152   1.546  1.5223  1.6646  1.8725
 8552TIP3   OH225619   4.525   0.934   0.752  0.3583 -0.3409 -0.5995
 8552TIP3    H125620   4.616   0.905   0.748  0.8764  1.0427  0.2181
 8552TIP3    H225621   4.515   0.989   0.674  0.4371  0.0329 -0.3507
 8553TIP3   OH225622   1.733   0.449   4.190 -0.0940 -0.0926 -0.3610
 8553TIP3    H125623   1.648   0.412   4.166 -0.4147  0.8627 -0.7111
 8553TIP3    H225624   1.718   0.543   4.195  0.6008 -0.0311  0.9844
 8554TIP3   OH225625   4.513   1.758   1.185  0.6270 -0.2075  0.0571
 8554TIP3    H125626   4.479   1.669   1.183  0.4367 -0.1304 -1.1551
 8554TIP3    H225627   4.437   1.813   1.202  0.1982 -0.0799 -2.0623
 8555TIP3   OH225628   0.011   1.216   1.465 -0.1867 -0.6345 -0.1107
 8555TIP3    H125629  -0.061   1.263   1.508 -1.2193 -0.6680 -1.7234
 8555TIP3    H225630   0.082   1.219   1.528 -0.5511  2.1749  0.3007
 8556TIP3   OH225631   2.637   1.878   2.590 -0.3308 -0.3881  0.0775
 8556TIP3    H125632   2.656   1.946   2.526  1.1560  0.2056  1.0989
 8556TIP3    H225633   2.587   1.923   2.659  0.7223 -0.2883  0.7921
 8557TIP3   OH225634   6.420   6.180   2.711 -0.5110  0.0372  0.0439
 8557TIP3    H125635   6.391   6.239   2.641 -1.0050 -1.5112 -1.1084
 8557TIP3    H225636   6.432   6.237   2.787  0.1795  1.7949 -1.3210
 8558TIP3   OH225637   2.027   3.167   4.668 -0.2908 -0.1644  0.6696
 8558TIP3    H125638   2.037   3.229   4.596 -1.2025  0.3024  0.9225
 8558TIP3    H225639   2.107   3.115   4.667 -0.7624 -0.9388 -1.4006
 8559TIP3   OH225640   4.247   5.826   2.763 -0.2821 -0.3950  0.0010
 8559TIP3    H125641   4.285   5.765   2.826  0.4236  1.0204  0.9942
 8559TIP3    H225642   4.184   5.878   2.813 -1.3081 -0.6786 -0.9571
 8560TIP3   OH225643   1.647   0.859   0.994  0.3761 -0.2600 -0.5291
 8560TIP3    H125644   1.729   0.865   0.945  1.2939  1.3197  1.0686
 8560TIP3    H225645   1.607   0.778   0.965  1.8157 -0.3548 -2.4017
 8561TIP3   OH225646   6.674   5.366   5.787  0.3370 -0.6851 -0.0453
 8561TIP3    H125647   6.753   5.358   5.842  0.1839 -0.2708  0.2399
 8561TIP3    H225648   6.663   5.460   5.775  0.0578 -0.7559 -0.3398
 8562TIP3   OH225649   4.953   4.676   3.559 -0.1474  0.2001  0.1444
 8562TIP3    H125650   5.003   4.754   3.584 -1.8108  1.0190  1.0883
 8562TIP3    H225651   5.017   4.605   3.561  1.1339  1.3161  0.5710
 8563TIP3   OH225652   5.082   2.210   4.673  0.0935  1.1146  0.3035
 8563TIP3    H125653   5.068   2.241   4.763  1.1075 -0.0451  0.8825
 8563TIP3    H225654   5.014   2.144   4.660  0.3321  0.8489  0.4243
 8564TIP3   OH225655   6.614   0.671   5.575  0.6382  0.5463  0.3043
 8564TIP3    H125656   6.635   0.617   5.651  3.7222 -1.3721 -1.6582
 8564TIP3    H225657   6.698   0.711   5.550  0.2238 -0.3254 -3.0128
 8565TIP3   OH225658   5.678   6.164   2.539 -0.3212 -0.0760  0.1208
 8565TIP3    H125659   5.673   6.075   2.573 -1.8949 -0.0690  0.0059
 8565TIP3    H225660   5.771   6.178   2.521 -0.2073 -2.3238 -1.5282
 8566TIP3   OH225661   1.289   0.154   4.043 -0.1659 -0.0085  0.4023
 8566TIP3    H125662   1.256   0.179   3.956  3.6095 -0.1126 -1.2602
 8566TIP3    H225663   1.279   0.059   4.046  2.0253 -0.3744 -1.1796
 8567TIP3   OH225664   0.575   1.809   4.515 -0.0687 -0.7931  0.7268
 8567TIP3    H125665   0.636   1.882   4.528 -1.0019  0.0182  0.6832
 8567TIP3    H225666   0.631   1.732   4.503  0.9304 -0.1193  0.9856
 8568TIP3   OH225667   5.937   4.341   5.203  0.5465  0.5391 -0.2587
 8568TIP3    H125668   5.842   4.338   5.213  0.6644 -0.9501  0.6646
 8568TIP3    H225669   5.970   4.286   5.273  2.1837  2.0641  0.2373
 8569TIP3   OH225670   1.166   3.946   4.497  0.4498 -0.0335  0.2202
 8569TIP3    H125671   1.257   3.966   4.475  0.4606 -1.8473 -1.6840
 8569TIP3    H225672   1.150   3.860   4.459 -2.3422  0.6312 -0.3695
 8570TIP3   OH225673   1.275   5.794   2.534  0.1321  0.6081 -0.4018
 8570TIP3    H125674   1.249   5.719   2.482  0.3024  0.2415  0.0371
 8570TIP3    H225675   1.196   5.819   2.582  0.4465 -0.2307  0.5940
 8571TIP3   OH225676   6.766   2.389   3.316  0.2416  0.6074 -0.2029
 8571TIP3    H125677   6.845   2.425   3.274 -0.2879  1.9993 -0.0501
 8571TIP3    H225678   6.696   2.403   3.252  0.2591 -1.6208 -0.8063
 8572TIP3   OH225679   5.702   3.832   2.467 -0.0583 -0.1098 -0.1497
 8572TIP3    H125680   5.745   3.792   2.543 -1.0829 -1.1063 -0.0636
 8572TIP3    H225681   5.670   3.916   2.499  0.4743 -0.0386  0.2149
 8573TIP3   OH225682   0.793   5.339   3.351 -0.0227 -0.5026 -0.1154
 8573TIP3    H125683   0.822   5.385   3.430  0.1462  0.2402 -0.5944
 8573TIP3    H225684   0.791   5.407   3.283 -1.2078 -0.9037 -0.5083
 8574TIP3   OH225685   2.695   0.779   2.140  0.0853 -0.3653  0.3288
 8574TIP3    H125686   2.650   0.799   2.222 -1.1304 -0.7669 -0.2220
 8574TIP3    H225687   2.781   0.747   2.167 -0.8470 -2.0064  1.5354
 8575TIP3   OH225688   3.495   6.634   1.527 -0.2090  0.7164 -0.0280
 8575TIP3    H125689   3.560   6.696   1.559 -0.0873  0.6830 -0.2082
 8575TIP3    H225690   3.434   6.687   1.476 -1.0489  0.9537  1.1925
 8576TIP3   OH225691   2.664   3.263   3.518 -0.0219 -0.2108  0.0012
 8576TIP3    H125692   2.680   3.287   3.609 -1.2639  2.7417 -0.4384
 8576TIP3    H225693   2.750   3.266   3.477  0.1954  1.5749  0.4949
 8577TIP3   OH225694   1.932   4.830   0.905  0.1026 -0.2611 -0.1097
 8577TIP3    H125695   1.856   4.879   0.876 -0.0763 -1.0704 -1.0583
 8577TIP3    H225696   1.933   4.841   1.000 -0.0151  1.4174 -0.2704
 8578TIP3   OH225697   5.122   4.073   0.995 -0.0168 -0.4927 -0.0295
 8578TIP3    H125698   5.027   4.072   0.989  0.0274 -0.1926 -1.0935
 8578TIP3    H225699   5.141   4.118   1.077 -0.7933 -3.1669  1.7367
 8579TIP3   OH225700   4.688   3.119   3.066 -0.1625  0.0991  0.9431
 8579TIP3    H125701   4.653   3.075   3.143  1.7993  0.4972  2.1252
 8579TIP3    H225702   4.766   3.069   3.042 -0.7612 -0.0485 -0.8486
 8580TIP3   OH225703   2.835   2.198   1.415 -0.0424 -0.2729 -0.0004
 8580TIP3    H125704   2.818   2.104   1.425 -0.3899 -0.4635 -2.0417
 8580TIP3    H225705   2.925   2.203   1.384 -0.0183  0.0825  0.1216
 8581TIP3   OH225706   2.743   0.443   1.827  0.0234 -0.4213  0.4204
 8581TIP3    H125707   2.833   0.437   1.858 -0.2414  0.1487  1.3164
 8581TIP3    H225708   2.717   0.533   1.845 -0.9786 -0.7865  0.8674
 8582TIP3   OH225709   1.642   4.087   4.173  0.4574  0.0251  0.2280
 8582TIP3    H125710   1.621   4.069   4.081  4.0114  2.2223 -1.2409
 8582TIP3    H225711   1.733   4.060   4.182  0.1825 -0.1919  3.2073
 8583TIP3   OH225712   6.751   0.724   0.877 -0.5201  0.1825 -0.1032
 8583TIP3    H125713   6.702   0.722   0.960 -0.1075  1.1786  0.1780
 8583TIP3    H225714   6.752   0.632   0.848 -0.2156 -0.2746  1.2647
 8584TIP3   OH225715   4.357   0.459   0.782  0.4799  0.7403 -0.0025
 8584TIP3    H125716   4.417   0.392   0.813  2.1239  2.6555  1.1986
 8584TIP3    H225717   4.357   0.449   0.687 -1.1043 -2.3098  0.1727
 8585TIP3   OH225718   0.548   5.249   5.153  0.1737 -0.2297 -0.5637
 8585TIP3    H125719   0.589   5.332   5.177 -2.1508  0.7720  0.2371
 8585TIP3    H225720   0.584   5.186   5.216  1.3479  0.3050 -0.6652
 8586TIP3   OH225721   0.672   4.878   1.500 -0.0686 -0.2892 -0.0021
 8586TIP3    H125722   0.724   4.837   1.570 -0.2022 -0.4434  0.0059
 8586TIP3    H225723   0.672   4.814   1.430  2.1912  0.8392 -1.1602
 8587TIP3   OH225724   6.982   5.265   1.392  0.4424 -0.3983  0.2978
 8587TIP3    H125725   6.973   5.353   1.354 -1.5079 -0.4893  0.4664
 8587TIP3    H225726   6.998   5.209   1.316 -0.5887 -0.1912 -0.0918
 8588TIP3   OH225727   5.346   5.921   0.969 -0.1609 -0.0068 -0.4436
 8588TIP3    H125728   5.363   5.873   1.050  1.3693  0.1503 -0.6247
 8588TIP3    H225729   5.405   5.996   0.973 -2.3604  1.8061 -0.2570
 8589TIP3   OH225730   5.447   5.218   0.046 -0.1393 -0.2184 -0.3796
 8589TIP3    H125731   5.381   5.248  -0.016  0.2470  0.4420 -0.4864
 8589TIP3    H225732   5.397   5.183   0.120 -0.6087  0.3475 -0.4220
 8590TIP3   OH225733   1.130   6.741   3.993  0.4438 -0.2601 -0.5210
 8590TIP3    H125734   1.171   6.654   3.988 -0.0189 -0.8242  3.0791
 8590TIP3    H225735   1.198   6.798   4.026  0.4602  0.6061 -1.9583
 8591TIP3   OH225736   3.273   3.446   0.264  0.4202 -0.1677 -0.5011
 8591TIP3    H125737   3.201   3.435   0.326  0.4028 -0.0687 -0.5026
 8591TIP3    H225738   3.241   3.511   0.202  0.4822 -0.1792 -0.5455
 8592TIP3   OH225739   5.755   4.473   2.956  0.0920  0.7214  0.0552
 8592TIP3    H125740   5.826   4.418   2.921  0.4419  1.0188  0.2898
 8592TIP3    H225741   5.751   4.451   3.049 -0.1124  0.7227  0.0468
 8593TIP3   OH225742   1.773   5.338   0.493  0.5765 -0.0306 -0.8599
 8593TIP3    H125743   1.783   5.333   0.398  1.4471 -0.3729 -0.7579
 8593TIP3    H225744   1.842   5.398   0.521  0.2160  0.2043 -0.4519
 8594TIP3   OH225745   0.411   5.971   2.354  1.1771  0.9107 -0.3982
 8594TIP3    H125746   0.437   5.928   2.273  0.7159  1.0054 -0.6009
 8594TIP3    H225747   0.364   5.903   2.404  0.2662  1.2175 -0.8081
 8595TIP3   OH225748   0.910   3.320   4.626  0.1885 -0.1570  0.2098
 8595TIP3    H125749   0.978   3.354   4.683 -0.3176 -1.8268  1.9049
 8595TIP3    H225750   0.840   3.292   4.685 -0.7815 -1.0643 -1.2838
 8596TIP3   OH225751   6.697   1.820   1.916  0.5598 -0.0962 -0.1354
 8596TIP3    H125752   6.702   1.907   1.957  3.1851  0.4994 -1.5335
 8596TIP3    H225753   6.664   1.764   1.986 -0.1245  1.7964  1.1676
 8597TIP3   OH225754   5.729   3.393   4.126  0.0867 -0.6067  0.4810
 8597TIP3    H125755   5.682   3.427   4.050  0.9190 -1.1951 -0.3191
 8597TIP3    H225756   5.663   3.348   4.177 -1.0552  2.0452  1.5376
 8598TIP3   OH225757   5.002   5.068   2.450  0.4083 -0.4955 -0.0265
 8598TIP3    H125758   4.907   5.065   2.437  0.2255 -2.3121  1.3314
 8598TIP3    H225759   5.037   5.099   2.366 -1.3658  0.1943 -0.5610
 8599TIP3   OH225760   4.013   0.892   1.615  0.6433  0.1485 -0.2791
 8599TIP3    H125761   4.025   0.978   1.656  0.6028  0.4611 -0.9138
 8599TIP3    H225762   4.096   0.874   1.571  0.9035 -0.4640  0.4322
 8600TIP3   OH225763   5.676   0.806   0.490 -0.1344 -0.2911  0.4626
 8600TIP3    H125764   5.591   0.787   0.529 -0.0499  0.5343  1.0745
 8600TIP3    H225765   5.686   0.901   0.498  0.5739 -0.3004 -0.1573
 8601TIP3   OH225766   0.336   2.765   0.492 -0.2372 -0.0896  0.2435
 8601TIP3    H125767   0.400   2.782   0.422  1.3620  1.2870  1.9057
 8601TIP3    H225768   0.251   2.776   0.450  0.5601 -1.5512 -1.9730
 8602TIP3   OH225769   7.198   6.222   2.955 -0.1420 -0.1597  0.4669
 8602TIP3    H125770   7.107   6.230   2.928  0.1310  0.0690 -0.4227
 8602TIP3    H225771   7.209   6.129   2.974 -0.1113 -0.5394 -1.1937
 8603TIP3   OH225772   2.520   4.861   3.618 -0.3440  0.2356 -0.2782
 8603TIP3    H125773   2.510   4.937   3.676  0.4668  0.4356 -0.3943
 8603TIP3    H225774   2.500   4.894   3.531 -2.2645 -0.2257 -0.0593
 8604TIP3   OH225775   5.292   0.542   1.453 -0.4320  0.3356 -0.4000
 8604TIP3    H125776   5.350   0.578   1.520 -0.5369  0.2363 -0.2562
 8604TIP3    H225777   5.257   0.462   1.491 -0.4885  0.2758 -0.5755
 8605TIP3   OH225778   4.749   0.044   4.714 -0.0975  0.2929 -0.3597
 8605TIP3    H125779   4.751   0.139   4.705  0.4381  0.6929  2.7411
 8605TIP3    H225780   4.829   0.023   4.763 -1.1894 -1.4758  0.7921
 8606TIP3   OH225781   0.876   2.786   5.657 -0.5692  0.1462 -0.5312
 8606TIP3    H125782   0.813   2.825   5.596 -1.7071 -0.4110  0.2676
 8606TIP3    H225783   0.921   2.861   5.695 -0.8986  0.5662 -0.9424
 8607TIP3   OH225784   6.135   4.195   1.332 -0.3045  0.1487 -0.0798
 8607TIP3    H125785   6.102   4.246   1.258 -3.3775  0.6073  1.4620
 8607TIP3    H225786   6.118   4.104   1.309 -0.1541  0.2101 -0.4328
 8608TIP3   OH225787   6.140   4.098   3.076  0.1882  0.3208 -0.8630
 8608TIP3    H125788   6.109   4.073   3.163 -0.4399 -0.0963 -1.2044
 8608TIP3    H225789   6.062   4.093   3.021  0.6652  0.2244 -1.5269
 8609TIP3   OH225790   3.639   6.146   5.342  0.3637 -0.1890 -0.4913
 8609TIP3    H125791   3.563   6.146   5.400 -1.2648  0.3702 -2.4755
 8609TIP3    H225792   3.603   6.168   5.256  2.5902 -1.2558 -1.7898
 8610TIP3   OH225793   5.205   5.810   1.545 -0.4387 -0.4458 -0.4565
 8610TIP3    H125794   5.175   5.898   1.567  1.1169 -0.3265  1.4380
 8610TIP3    H225795   5.188   5.758   1.624 -3.1279 -2.4491 -2.1345
 8611TIP3   OH225796   6.341   1.238   2.038 -0.3613 -0.0619 -0.1296
 8611TIP3    H125797   6.260   1.258   2.084 -0.5834 -1.4844  0.1551
 8611TIP3    H225798   6.399   1.203   2.107  0.0485 -0.2280 -0.5549
 8612TIP3   OH225799   5.454   5.141   3.715  0.2822  0.1568  0.2522
 8612TIP3    H125800   5.454   5.230   3.681  0.4804  0.7345  1.6732
 8612TIP3    H225801   5.494   5.148   3.802 -1.9351 -0.8723  1.4500
 8613TIP3   OH225802   1.361   2.712   3.303  0.0080 -0.6601 -0.0382
 8613TIP3    H125803   1.274   2.678   3.322  0.6987 -2.5381 -0.0706
 8613TIP3    H225804   1.415   2.683   3.377  0.6163  0.5826  0.0473
 8614TIP3   OH225805   1.009   1.124   0.108 -0.1668 -0.2631 -0.2138
 8614TIP3    H125806   1.046   1.097   0.024  0.5134  4.0944 -1.5199
 8614TIP3    H225807   1.067   1.085   0.174 -0.9864 -4.1634 -1.5449
 8615TIP3   OH225808   0.586   4.243   2.261 -0.7457 -0.5402 -0.3053
 8615TIP3    H125809   0.587   4.338   2.274 -1.4483 -0.3314 -1.6289
 8615TIP3    H225810   0.652   4.210   2.322 -2.3600  0.5081  2.1870
 8616TIP3   OH225811   0.992   1.452   0.347  0.1535 -0.1962  0.4794
 8616TIP3    H125812   1.024   1.523   0.403  1.1322 -0.6480  0.5080
 8616TIP3    H225813   1.054   1.450   0.274 -1.3350  0.6567 -0.8554
 8617TIP3   OH225814   0.880   2.154   0.956 -0.4563  0.4278 -0.1298
 8617TIP3    H125815   0.836   2.223   0.907  1.1964  1.8241  0.2291
 8617TIP3    H225816   0.844   2.161   1.045 -0.1166  1.0179 -0.0329
 8618TIP3   OH225817   1.791   5.999   1.753 -0.6153 -0.7442  0.5319
 8618TIP3    H125818   1.762   5.908   1.758  0.6541 -1.1545  0.7218
 8618TIP3    H225819   1.763   6.037   1.836  1.3653 -1.7605  1.7373
 8619TIP3   OH225820   4.426   4.945   1.583 -0.1559  0.3304  0.2465
 8619TIP3    H125821   4.375   4.958   1.503  3.2771 -3.0323 -2.9159
 8619TIP3    H225822   4.418   4.851   1.601  0.7505  0.6682  2.7832
 8620TIP3   OH225823   2.195   1.689   1.920 -0.3931  0.0473  0.2323
 8620TIP3    H125824   2.119   1.746   1.926 -0.3284  0.2304 -0.5866
 8620TIP3    H225825   2.247   1.710   1.998  0.2791  2.0701 -0.6882
 8621TIP3   OH225826   4.707   1.941   1.663  0.0537  0.2417 -0.7355
 8621TIP3    H125827   4.717   1.897   1.579 -0.1141  2.0356 -1.7592
 8621TIP3    H225828   4.762   1.892   1.723  0.2074 -1.0649 -1.9007
 8622TIP3   OH225829   1.837   3.636   1.077  0.2851  0.2690  0.5502
 8622TIP3    H125830   1.761   3.681   1.039 -1.4292 -0.5936  2.7253
 8622TIP3    H225831   1.868   3.578   1.008 -1.1941  0.4775 -0.3251
 8623TIP3   OH225832   1.691   5.616   3.905  0.1912  0.1183  0.2475
 8623TIP3    H125833   1.690   5.547   3.839  2.7370  0.2575 -0.0406
 8623TIP3    H225834   1.738   5.579   3.979 -0.7860  0.6785  1.1893
 8624TIP3   OH225835   2.837   4.880   3.345  0.6419 -0.0635 -0.0821
 8624TIP3    H125836   2.780   4.943   3.303  0.4573  0.3709  0.7842
 8624TIP3    H225837   2.925   4.904   3.315  0.7263  1.4678  1.2315
 8625TIP3   OH225838   2.332   6.408   2.300 -0.2465 -0.0718 -0.2720
 8625TIP3    H125839   2.321   6.495   2.339 -0.0976  0.5721 -1.6102
 8625TIP3    H225840   2.279   6.411   2.220 -0.6348 -1.3884 -0.0873
 8626TIP3   OH225841   7.083   3.865   2.951  0.1538 -0.6410 -0.2486
 8626TIP3    H125842   7.166   3.832   2.987  0.5334 -0.1226 -0.6296
 8626TIP3    H225843   7.110   3.933   2.889 -0.6048  0.1398  0.2693
 8627TIP3   OH225844   6.239   2.915   1.630 -0.5021  0.8776 -0.0761
 8627TIP3    H125845   6.221   2.822   1.613  0.0912  0.2342  2.4613
 8627TIP3    H225846   6.181   2.938   1.702  0.1225  2.1992  0.0321
 8628TIP3   OH225847   7.174   5.900   2.016  0.3711  0.4770  0.0001
 8628TIP3    H125848   7.103   5.917   2.079 -0.5772 -0.3364 -0.8244
 8628TIP3    H225849   7.253   5.928   2.062 -0.6188  2.9683  0.3433
 8629TIP3   OH225850   5.626   4.860   1.693 -0.7873 -0.4254  0.1050
 8629TIP3    H125851   5.685   4.833   1.623 -1.6887 -0.1156 -0.8068
 8629TIP3    H225852   5.665   4.940   1.728  0.3500 -1.2748  0.8530
 8630TIP3   OH225853   2.327   5.596   3.673  0.3439 -0.1892  0.3671
 8630TIP3    H125854   2.421   5.614   3.671  0.5097 -0.9553  0.8658
 8630TIP3    H225855   2.286   5.682   3.667  1.0723  0.1395 -0.0629
 8631TIP3   OH225856   2.493   3.483   0.678  0.0223  0.2129  0.8297
 8631TIP3    H125857   2.493   3.510   0.770 -0.1235 -0.0588  0.9088
 8631TIP3    H225858   2.433   3.409   0.674  1.1421 -0.7205  0.7917
 8632TIP3   OH225859   4.134   3.204   5.093 -0.1110  0.1623 -0.0948
 8632TIP3    H125860   4.097   3.282   5.051 -1.5263 -0.6878 -0.4971
 8632TIP3    H225861   4.097   3.205   5.181 -0.1862 -0.0987 -0.1241
 8633TIP3   OH225862   3.504   0.675   2.527 -0.0389  0.4260 -0.0596
 8633TIP3    H125863   3.483   0.715   2.442 -0.9706  1.5442  0.6533
 8633TIP3    H225864   3.443   0.602   2.535 -0.7754  1.0485  0.1428
 8634TIP3   OH225865   0.618   5.191   5.633 -0.1603  0.5289  0.2954
 8634TIP3    H125866   0.605   5.128   5.704 -0.6713  1.0289  0.6577
 8634TIP3    H225867   0.552   5.259   5.649  1.2444  1.8531  0.6920
 8635TIP3   OH225868   6.848   6.443   0.034 -0.2316  0.3170  0.0592
 8635TIP3    H125869   6.775   6.387   0.062  0.2634  0.2647  1.3054
 8635TIP3    H225870   6.888   6.472   0.116  0.0465  1.8073 -0.5869
 8636TIP3   OH225871   3.805   0.273   3.279 -0.2369 -0.1326  0.1154
 8636TIP3    H125872   3.793   0.334   3.353 -0.3532  1.4517 -1.1543
 8636TIP3    H225873   3.726   0.219   3.280 -1.7728  1.9489 -0.6739
 8637TIP3   OH225874   6.241   2.732   3.097  0.2716  0.0821 -0.2242
 8637TIP3    H125875   6.310   2.798   3.097  2.4598 -1.9944  2.2343
 8637TIP3    H225876   6.251   2.686   3.014  2.0337 -0.3276  0.1941
 8638TIP3   OH225877   4.377   6.301   2.974  0.1937 -0.3348  0.0933
 8638TIP3    H125878   4.370   6.208   2.955  0.4155 -0.9130  2.4996
 8638TIP3    H225879   4.287   6.334   2.963  0.0773 -0.8532 -0.5827
 8639TIP3   OH225880   1.370   2.031   2.998 -0.1571  0.1247 -0.3214
 8639TIP3    H125881   1.443   2.046   2.938 -0.7301 -2.1917 -1.7157
 8639TIP3    H225882   1.403   1.965   3.059 -1.0911 -1.1064 -1.0969
 8640TIP3   OH225883   3.710   0.611   4.719  0.5708  0.3879  0.7493
 8640TIP3    H125884   3.663   0.572   4.646  0.4489 -0.6941  1.3844
 8640TIP3    H225885   3.669   0.575   4.797  0.3679  1.9161  1.3825
 8641TIP3   OH225886   2.315   5.652   0.758  0.1072 -0.4897  0.8578
 8641TIP3    H125887   2.243   5.675   0.699 -1.7133 -0.4999  2.9647
 8641TIP3    H225888   2.376   5.604   0.702 -0.8790  0.6036 -1.3005
 8642TIP3   OH225889   1.275   6.645   2.020  0.6140  0.1658 -0.4727
 8642TIP3    H125890   1.184   6.619   2.038 -0.2663  0.7691 -3.4030
 8642TIP3    H225891   1.298   6.704   2.091 -0.7980 -1.0101  1.0500
 8643TIP3   OH225892   2.447   6.336   1.466 -0.5734  0.1187  0.0506
 8643TIP3    H125893   2.389   6.272   1.426 -1.4189  0.0334  1.3626
 8643TIP3    H225894   2.527   6.333   1.413 -0.1068 -2.8882  0.7734
 8644TIP3   OH225895   2.064   2.985   1.274 -0.2448  0.1980  0.1783
 8644TIP3    H125896   2.087   3.027   1.191 -1.4844  0.8417  0.1328
 8644TIP3    H225897   2.031   3.056   1.329 -0.2270 -0.3561  0.9297
 8645TIP3   OH225898   2.842   1.938   4.190  0.2062  0.1450  0.3831
 8645TIP3    H125899   2.889   1.873   4.242 -0.6708 -0.9024 -0.1001
 8645TIP3    H225900   2.832   1.898   4.104 -0.6579  0.7764  0.1777
 8646TIP3   OH225901   1.053   3.572   4.674 -0.0155  0.1485  0.3007
 8646TIP3    H125902   0.972   3.622   4.683 -0.9717 -1.3110  0.1385
 8646TIP3    H225903   1.094   3.577   4.761 -1.0659 -0.4057  0.8361
 8647TIP3   OH225904   5.869   1.141   3.054 -0.3909  0.6027 -0.5760
 8647TIP3    H125905   5.800   1.129   3.118 -0.8604  1.5898 -0.8690
 8647TIP3    H225906   5.900   1.230   3.068  1.3399 -0.0551  0.0291
 8648TIP3   OH225907   3.523   2.222   0.697 -0.1790 -0.0383 -0.5522
 8648TIP3    H125908   3.489   2.134   0.678 -1.1766 -0.1116  1.2752
 8648TIP3    H225909   3.507   2.234   0.791  1.3968  1.4942 -0.4231
 8649TIP3   OH225910   0.145   2.594   2.155  0.1167 -0.3814 -0.0599
 8649TIP3    H125911   0.212   2.564   2.217  0.8668 -0.6862 -1.0001
 8649TIP3    H225912   0.067   2.544   2.178  0.3799 -0.4836  0.6412
 8650TIP3   OH225913   0.702   3.381   0.349  0.1132  0.1153  0.4076
 8650TIP3    H125914   0.755   3.437   0.292 -0.6763  0.3471 -0.1258
 8650TIP3    H225915   0.612   3.410   0.333 -0.2621 -0.9151  0.5626
 8651TIP3   OH225916   4.584   1.817   0.907  0.1424  0.4128  0.3403
 8651TIP3    H125917   4.573   1.912   0.920 -0.5079  0.4228 -0.2008
 8651TIP3    H225918   4.585   1.781   0.995 -1.8662  0.7030  0.5335
 8652TIP3   OH225919   5.427   1.291   2.918 -0.0705  0.1818  0.3168
 8652TIP3    H125920   5.503   1.348   2.934 -0.0615  0.3260 -0.2257
 8652TIP3    H225921   5.465   1.204   2.903  0.2141  0.7317 -2.5839
 8653TIP3   OH225922   1.079   2.845   1.504  0.3562  0.0585 -0.1136
 8653TIP3    H125923   1.067   2.755   1.535 -1.6428  0.4449  0.3623
 8653TIP3    H225924   1.019   2.896   1.557  1.7369  1.7671 -0.1189
 8654TIP3   OH225925   5.808   6.429   1.610  0.5368 -0.2096 -0.4712
 8654TIP3    H125926   5.779   6.513   1.573  1.3022  0.7574  1.0440
 8654TIP3    H225927   5.734   6.400   1.664  0.6323 -0.0299 -0.2418
 8655TIP3   OH225928   5.669   1.032   4.808  0.5908 -0.2175  0.1812
 8655TIP3    H125929   5.614   1.098   4.850 -0.4500 -1.8263  1.4858
 8655TIP3    H225930   5.610   0.959   4.791  1.7520 -0.9382 -0.9881
 8656TIP3   OH225931   2.268   2.798   4.034 -0.0054  0.1537 -0.3832
 8656TIP3    H125932   2.305   2.758   4.113  3.1344  1.0262 -1.2698
 8656TIP3    H225933   2.184   2.835   4.063  0.1045 -1.2938  2.0147
 8657TIP3   OH225934   6.934   2.208   4.662 -0.2437 -0.6135 -0.5703
 8657TIP3    H125935   6.887   2.229   4.581  2.8887 -2.1266 -2.9822
 8657TIP3    H225936   6.949   2.293   4.703  0.0918  0.4914 -2.8283
 8658TIP3   OH225937   1.111   0.205   3.459  0.2070  0.6218 -0.3248
 8658TIP3    H125938   1.202   0.231   3.465 -0.2516  1.9756  1.8952
 8658TIP3    H225939   1.084   0.191   3.550 -2.3618  2.4641 -0.6830
 8659TIP3   OH225940   4.651   3.719   5.657  0.0338  0.4151 -0.1431
 8659TIP3    H125941   4.632   3.642   5.710  1.3945  0.2400  0.1315
 8659TIP3    H225942   4.662   3.790   5.721 -0.0977  0.5943 -0.3171
 8660TIP3   OH225943   1.491   1.842   1.574  0.1321  0.4485  0.0032
 8660TIP3    H125944   1.418   1.895   1.609  1.3909  1.8607  0.6369
 8660TIP3    H225945   1.548   1.828   1.650  1.0329  0.2819 -0.6918
 8661TIP3   OH225946   0.817   4.728   2.857  0.3317 -0.5129  0.5103
 8661TIP3    H125947   0.881   4.657   2.868 -0.0639 -0.9446  0.0741
 8661TIP3    H225948   0.741   4.699   2.908  0.0811 -0.5157  0.1388
 8662TIP3   OH225949   3.124   0.231   1.698  0.1148  0.1385  0.4415
 8662TIP3    H125950   3.214   0.202   1.709  0.3408  0.3245 -0.8351
 8662TIP3    H225951   3.080   0.157   1.656  0.0489  0.6242 -0.3553
 8663TIP3   OH225952   3.865   0.578   4.366  0.5931  0.0607 -0.3877
 8663TIP3    H125953   3.898   0.552   4.280  0.1564 -1.0595 -0.2211
 8663TIP3    H225954   3.794   0.639   4.347 -1.7409 -2.6500 -0.9877
 8664TIP3   OH225955   1.462   0.144   5.864  0.1708  0.3446 -0.8437
 8664TIP3    H125956   1.398   0.200   5.908 -0.8191 -1.3064 -0.0788
 8664TIP3    H225957   1.420   0.058   5.861  2.4089 -0.8553 -0.1720
 8665TIP3   OH225958   5.315   4.421   2.009  0.4138 -0.5578  0.0399
 8665TIP3    H125959   5.348   4.348   1.957 -0.2401 -1.3305  0.6878
 8665TIP3    H225960   5.336   4.398   2.100 -1.0418 -0.6200  0.3790
 8666TIP3   OH225961   1.553   1.490   1.423  0.6579  0.1697 -0.3396
 8666TIP3    H125962   1.556   1.418   1.486 -1.3049 -1.1976 -1.6571
 8666TIP3    H225963   1.642   1.497   1.391  1.5920  0.5411  2.1222
 8667TIP3   OH225964   1.513   2.853   2.673  0.2633 -0.2990  0.4675
 8667TIP3    H125965   1.476   2.770   2.701 -0.4614 -0.1788 -0.1287
 8667TIP3    H225966   1.588   2.866   2.731  0.3209 -1.3094  0.6337
 8668TIP3   OH225967   0.357   3.625   5.107 -0.1996  0.0999 -0.2601
 8668TIP3    H125968   0.391   3.661   5.025  0.9803 -1.2032 -0.3776
 8668TIP3    H225969   0.418   3.555   5.130 -2.6937 -2.2940 -0.3821
 8669TIP3   OH225970   3.029   6.289   0.428 -0.1415 -0.3039 -0.3489
 8669TIP3    H125971   3.016   6.218   0.491  0.0109  0.9566  1.1545
 8669TIP3    H225972   2.996   6.254   0.346 -0.2720 -2.0346  0.3978
 8670TIP3   OH225973   0.983   5.798   5.094 -0.2160  0.2661 -0.6777
 8670TIP3    H125974   0.999   5.754   5.178 -0.0611 -0.0282 -0.8563
 8670TIP3    H225975   1.001   5.730   5.028  2.2375  1.1829 -1.0652
 8671TIP3   OH225976   1.365   0.569   2.298 -0.2360  0.2345  0.1602
 8671TIP3    H125977   1.329   0.593   2.383 -0.5428 -1.8097  0.6521
 8671TIP3    H225978   1.300   0.509   2.260  0.4653  0.1631 -0.9770
 8672TIP3   OH225979   4.898   0.334   1.623 -0.4265 -0.1592  0.1045
 8672TIP3    H125980   4.983   0.374   1.644 -0.1622 -0.6769  0.0441
 8672TIP3    H225981   4.899   0.326   1.527 -0.4546 -0.3588  0.1211
 8673TIP3   OH225982   4.705   1.797   2.654 -0.2279 -0.0526 -0.5253
 8673TIP3    H125983   4.785   1.748   2.636 -0.3555 -0.9565  1.1809
 8673TIP3    H225984   4.634   1.734   2.639 -0.6283  0.6344 -1.6573
 8674TIP3   OH225985   4.301   0.242   3.277  0.5803  0.0409  0.1776
 8674TIP3    H125986   4.357   0.316   3.256  0.6453 -0.2707 -0.7808
 8674TIP3    H225987   4.212   0.271   3.257  0.2874  0.7184  2.1867
 8675TIP3   OH225988   4.856   1.135   0.854  0.0218 -0.1584  0.5825
 8675TIP3    H125989   4.866   1.134   0.759  0.5440 -0.2017  0.6365
 8675TIP3    H225990   4.901   1.056   0.884 -0.7663 -0.5315  0.8113
 8676TIP3   OH225991   4.390   6.484   1.391  0.6587  0.1232 -0.6837
 8676TIP3    H125992   4.408   6.390   1.387  0.4057  0.0820 -4.8593
 8676TIP3    H225993   4.296   6.491   1.404  0.9861 -0.0171  2.4716
 8677TIP3   OH225994   2.005   0.649   3.536  0.2302  0.0355 -0.0060
 8677TIP3    H125995   1.954   0.616   3.611 -0.6545 -0.6670 -0.8888
 8677TIP3    H225996   1.989   0.743   3.536  0.4373  0.0842  0.8209
 8678TIP3   OH225997   7.044   1.536   1.165  0.3687  0.0512  0.3201
 8678TIP3    H125998   7.132   1.505   1.144  0.0938  0.3399 -1.3375
 8678TIP3    H225999   7.036   1.521   1.260  2.0539 -0.3062  0.4374
 8679TIP3   OH226000   1.386   5.734   0.561 -0.1526 -0.0430 -0.2787
 8679TIP3    H126001   1.303   5.687   0.568  0.6107 -1.3165  0.5551
 8679TIP3    H226002   1.391   5.786   0.641 -0.6095  0.8622 -0.8175
 8680TIP3   OH226003   4.393   3.504   3.170  0.0799  0.2709 -0.0718
 8680TIP3    H126004   4.323   3.514   3.105  1.7763 -0.8206 -2.1826
 8680TIP3    H226005   4.445   3.584   3.161 -0.0650  0.4303  0.4687
 8681TIP3   OH226006   0.164   3.339   1.361  0.4384 -0.5671 -0.1112
 8681TIP3    H126007   0.222   3.391   1.306  0.0403  0.0673  0.0573
 8681TIP3    H226008   0.127   3.273   1.302 -0.4585  0.4870 -0.7703
 8682TIP3   OH226009   5.063   3.614   0.776  1.2107 -0.4227  0.7885
 8682TIP3    H126010   5.086   3.634   0.685  1.4227 -0.0042  0.9328
 8682TIP3    H226011   5.106   3.683   0.827 -2.2718  1.9207  0.9072
 8683TIP3   OH226012   0.548   2.720   5.507 -0.1911  1.0198  0.2806
 8683TIP3    H126013   0.467   2.670   5.510  0.1308  0.4985  0.3404
 8683TIP3    H226014   0.555   2.760   5.594  0.3989 -0.2014  0.8274
 8684TIP3   OH226015   2.068   2.204   5.855 -0.1590 -0.1717 -0.0229
 8684TIP3    H126016   2.041   2.167   5.939 -1.0650  1.3191  0.3895
 8684TIP3    H226017   2.164   2.211   5.862 -0.2392  0.1093  0.9883
 8685TIP3   OH226018   1.773   4.057   2.655 -0.1017  0.3025  0.0579
 8685TIP3    H126019   1.827   4.085   2.728  0.5784  1.2348 -0.7870
 8685TIP3    H226020   1.801   4.111   2.582  1.8915 -3.0926 -1.9287
 8686TIP3   OH226021   6.910   1.908   2.947 -0.4930 -0.7388 -0.0544
 8686TIP3    H126022   6.926   1.964   2.870  0.3297 -0.7552  0.0956
 8686TIP3    H226023   6.872   1.968   3.012 -0.0752 -0.4574 -0.0645
 8687TIP3   OH226024   0.599   6.593   1.791  0.1444  0.0736 -0.1689
 8687TIP3    H126025   0.545   6.641   1.853  0.1765  1.2014 -0.9834
 8687TIP3    H226026   0.545   6.520   1.763  0.3866 -0.8867  1.6929
 8688TIP3   OH226027   1.499   1.416   3.212  0.6404 -0.7907 -0.1990
 8688TIP3    H126028   1.567   1.459   3.158  1.4243 -2.0325 -0.2315
 8688TIP3    H226029   1.478   1.336   3.165 -0.7683 -0.4912 -0.1018
 8689TIP3   OH226030   5.156   2.527   5.153 -0.3942  0.1544 -0.4183
 8689TIP3    H126031   5.229   2.556   5.208  0.1979 -0.4072 -0.8825
 8689TIP3    H226032   5.099   2.478   5.213 -1.4808  2.3097  0.4011
 8690TIP3   OH226033   3.343   3.444   3.518  0.1537 -0.1902 -0.7172
 8690TIP3    H126034   3.318   3.521   3.569 -2.2828 -1.5713  0.3166
 8690TIP3    H226035   3.273   3.433   3.454  0.9246 -1.0671 -1.4498
 8691TIP3   OH226036   4.788   5.238   5.430 -0.0948  0.1307 -0.1848
 8691TIP3    H126037   4.806   5.171   5.496 -0.3966  0.1036 -0.1299
 8691TIP3    H226038   4.723   5.295   5.471 -0.2617  0.1297 -0.4500
 8692TIP3   OH226039   6.276   2.408   3.121  0.0194 -0.2052  0.5020
 8692TIP3    H126040   6.229   2.467   3.180 -0.1723 -1.2732  1.4526
 8692TIP3    H226041   6.245   2.431   3.034  2.1098  3.1138  0.4593
 8693TIP3   OH226042   1.165   5.999   2.906 -0.0136  0.4660 -0.9067
 8693TIP3    H126043   1.178   5.967   2.995 -1.5813 -1.4960 -1.3214
 8693TIP3    H226044   1.184   6.093   2.911  0.0454  0.3728  1.4608
 8694TIP3   OH226045   1.417   5.350   1.691  0.4362 -0.0189 -1.2707
 8694TIP3    H126046   1.323   5.340   1.703  0.6181 -0.6393 -0.1980
 8694TIP3    H226047   1.443   5.413   1.758  0.9051 -0.5117 -0.9817
 8695TIP3   OH226048   0.419   6.360   1.694 -0.3783  0.2061 -0.1436
 8695TIP3    H126049   0.354   6.424   1.726  0.0613  1.2452 -1.2446
 8695TIP3    H226050   0.385   6.334   1.608 -0.1461 -0.4599 -0.0337
 8696TIP3   OH226051   2.402   1.598   2.191  0.5976  0.5202  0.3324
 8696TIP3    H126052   2.448   1.551   2.262  0.7296  0.1676  0.0196
 8696TIP3    H226053   2.328   1.639   2.234  0.7965  0.4837  0.7176
 8697TIP3   OH226054   4.709   2.123   5.209  0.2460 -0.0643 -0.4969
 8697TIP3    H126055   4.664   2.043   5.181  1.9379 -0.4581 -2.3749
 8697TIP3    H226056   4.658   2.194   5.171 -0.0046 -0.3882 -0.7711
 8698TIP3   OH226057   3.575   0.174   2.157  0.2560 -0.7132 -0.1098
 8698TIP3    H126058   3.562   0.177   2.062  0.0959 -3.5360 -0.2557
 8698TIP3    H226059   3.646   0.110   2.170  0.1969 -0.4787  1.6778
 8699TIP3   OH226060   6.655   4.959   3.348  0.2900  0.3952  0.0903
 8699TIP3    H126061   6.670   4.876   3.393  1.3036  0.2920 -0.4106
 8699TIP3    H226062   6.599   4.937   3.274 -0.0957  0.3048  0.4028
 8700TIP3   OH226063   5.229   1.262   5.585 -0.5172  0.3570  0.1112
 8700TIP3    H126064   5.167   1.330   5.613 -1.7127 -1.0010  0.9066
 8700TIP3    H226065   5.189   1.180   5.615  0.5668 -0.7643 -1.3880
 8701TIP3   OH226066   2.037   6.155   5.613 -0.1820  0.1537 -0.2716
 8701TIP3    H126067   2.028   6.106   5.531  1.4773  0.8596 -0.9204
 8701TIP3    H226068   2.114   6.116   5.656 -1.9089 -1.2489  1.7467
 8702TIP3   OH226069   6.010   1.783   2.851 -0.1595 -0.1900  0.3350
 8702TIP3    H126070   5.916   1.792   2.866 -0.2036 -1.1470  0.7424
 8702TIP3    H226071   6.018   1.705   2.797  0.3273  0.6708 -0.8848
 8703TIP3   OH226072   2.965   2.239   3.629 -0.8973 -0.8076  0.1712
 8703TIP3    H126073   2.930   2.274   3.547  1.0589 -1.1456 -0.8728
 8703TIP3    H226074   2.920   2.155   3.640  0.2943 -1.7949 -1.7689
 8704TIP3   OH226075   2.322   6.406   2.672  0.0670 -0.2809 -0.6856
 8704TIP3    H126076   2.230   6.434   2.669  0.1398  0.0389 -0.0809
 8704TIP3    H226077   2.320   6.315   2.644 -0.3933 -0.1794 -0.9987
 8705TIP3   OH226078   4.908   6.313   0.179  0.6162  0.0382  0.0579
 8705TIP3    H126079   4.979   6.362   0.137 -0.2865 -0.4721 -2.2129
 8705TIP3    H226080   4.877   6.371   0.248  1.5056  1.4003 -0.6275
 8706TIP3   OH226081   3.987   2.751   1.604 -0.1127 -0.5252 -1.3060
 8706TIP3    H126082   3.953   2.698   1.532 -0.6412 -1.4907 -0.3610
 8706TIP3    H226083   4.033   2.823   1.560 -0.0987 -1.2939 -2.6057
 8707TIP3   OH226084   3.137   4.388   3.445  0.4144 -0.5132  0.1056
 8707TIP3    H126085   3.112   4.297   3.458  0.4045 -0.3922  0.9757
 8707TIP3    H226086   3.186   4.411   3.524  0.1939  0.3118  0.0121
 8708TIP3   OH226087   6.247   5.770   4.789  0.1308 -0.0981 -0.3399
 8708TIP3    H126088   6.237   5.865   4.791  0.1497 -0.0912 -0.5495
 8708TIP3    H226089   6.306   5.754   4.715 -1.3023 -0.3936 -1.4763
 8709TIP3   OH226090   5.214   5.630   1.265  0.1179 -0.0054  0.0223
 8709TIP3    H126091   5.144   5.625   1.200  0.3678 -1.0239 -0.1950
 8709TIP3    H226092   5.269   5.554   1.246  0.5998  0.0919  0.9676
 8710TIP3   OH226093   0.337   1.948   0.700  0.0525 -0.5757  0.5231
 8710TIP3    H126094   0.398   2.000   0.752 -1.0685  0.5484  0.7828
 8710TIP3    H226095   0.269   1.921   0.762 -1.0279  0.3428 -0.2104
 8711TIP3   OH226096   2.930   1.997   2.462 -0.1343  0.6517  0.1391
 8711TIP3    H126097   2.973   2.071   2.505 -0.8390  0.8630  0.4799
 8711TIP3    H226098   2.844   2.029   2.437 -1.1036 -0.5103  1.7849
 8712TIP3   OH226099   6.254   2.613   3.649 -0.0669 -0.8830 -0.3075
 8712TIP3    H126100   6.342   2.604   3.684 -0.1904  0.2301  0.3338
 8712TIP3    H226101   6.264   2.600   3.554  0.9300  0.0899 -0.3503
 8713TIP3   OH226102   5.759   5.574   2.739 -0.1003 -0.5528 -0.8274
 8713TIP3    H126103   5.767   5.479   2.744 -0.6723 -0.5919 -0.4885
 8713TIP3    H226104   5.815   5.607   2.808 -0.8325 -0.7029 -0.1479
 8714TIP3   OH226105   6.725   1.876   1.554 -0.3240  0.2640  0.0820
 8714TIP3    H126106   6.743   1.799   1.608  2.4526  0.8986  0.1854
 8714TIP3    H226107   6.701   1.840   1.469  0.2638 -0.7282  0.3164
 8715TIP3   OH226108   6.556   3.421   2.459 -0.0654  0.3040  0.0905
 8715TIP3    H126109   6.602   3.484   2.515  0.3191 -1.7315  2.2189
 8715TIP3    H226110   6.589   3.439   2.371  1.1970  2.0204  0.8496
 8716TIP3   OH226111   2.311   4.850   3.224  0.6486 -0.0706  0.1588
 8716TIP3    H126112   2.340   4.918   3.285 -1.7961  2.5819 -1.3702
 8716TIP3    H226113   2.303   4.771   3.278  0.6293  1.6060  2.7851
 8717TIP3   OH226114   5.989   0.107   0.111  0.2076  0.3691  0.0551
 8717TIP3    H126115   6.019   0.190   0.146 -1.7169  1.9644 -1.8037
 8717TIP3    H226116   5.918   0.080   0.169  0.0452  0.6476 -0.0144
 8718TIP3   OH226117   6.479   3.334   0.778  0.0145 -0.0081  0.7905
 8718TIP3    H126118   6.409   3.361   0.718 -0.7605  0.5534  1.9263
 8718TIP3    H226119   6.511   3.416   0.816  0.0167 -0.4065  1.6676
 8719TIP3   OH226120   6.034   5.835   2.986  0.5773 -0.2556  0.4724
 8719TIP3    H126121   6.098   5.788   2.933  0.4052  1.0808 -0.9884
 8719TIP3    H226122   6.035   5.790   3.071  0.5699 -2.7197 -0.7611
 8720TIP3   OH226123   4.781   0.037   1.739  0.2421  0.0724  0.0233
 8720TIP3    H126124   4.757   0.125   1.768  0.1502  0.0976 -0.1242
 8720TIP3    H226125   4.715   0.015   1.673  0.0286 -0.2700  0.3476
 8721TIP3   OH226126   3.019   6.654   3.014  0.1555  0.3895  0.4775
 8721TIP3    H126127   2.937   6.619   2.977  1.0203 -0.4582 -0.6959
 8721TIP3    H226128   3.028   6.609   3.098  0.5416 -1.2355 -0.3902
 8722TIP3   OH226129   1.909   6.662   4.057 -0.3423  0.4474  0.0858
 8722TIP3    H126130   1.894   6.756   4.048  1.3123  0.8701  1.1876
 8722TIP3    H226131   1.849   6.621   3.995  0.1215  2.3148 -1.6853
 8723TIP3   OH226132   1.592   6.457   0.695 -0.9158  0.2117 -0.0822
 8723TIP3    H126133   1.620   6.460   0.603  0.0013  1.8859  0.2069
 8723TIP3    H226134   1.561   6.367   0.707 -0.5457 -0.2149 -1.8741
 8724TIP3   OH226135   0.744   5.789   4.175 -0.0618  0.1834  0.5823
 8724TIP3    H126136   0.776   5.699   4.178  2.3436  0.9306 -0.1747
 8724TIP3    H226137   0.650   5.782   4.192 -0.4904 -2.7430 -2.1525
 8725TIP3   OH226138   3.457   2.998   2.500 -0.2926  0.0918  0.2554
 8725TIP3    H126139   3.540   2.972   2.538  0.3298  1.1074 -0.3793
 8725TIP3    H226140   3.409   3.040   2.572 -1.1743 -2.3492  1.2040
 8726TIP3   OH226141   3.524   0.902   4.767 -0.2646  0.2050  0.5478
 8726TIP3    H126142   3.593   0.967   4.760  0.2965 -0.5072 -0.8681
 8726TIP3    H226143   3.475   0.908   4.685 -1.8504  0.6236  1.4744
 8727TIP3   OH226144   6.452   1.007   0.380  0.2897  0.0615  0.4249
 8727TIP3    H126145   6.547   0.995   0.377  0.1261 -1.6044  1.1681
 8727TIP3    H226146   6.436   1.081   0.321  2.1793  1.4153  1.4932
 8728TIP3   OH226147   4.117   1.668   1.375  0.1067  0.0863  0.3394
 8728TIP3    H126148   4.211   1.688   1.378 -0.2681  2.5795 -1.4988
 8728TIP3    H226149   4.078   1.732   1.435 -0.5207 -0.1756  0.2133
 8729TIP3   OH226150   5.734   0.837   4.452  0.1091  0.1846 -0.3171
 8729TIP3    H126151   5.810   0.893   4.471  1.3943 -1.3857 -0.5834
 8729TIP3    H226152   5.747   0.808   4.361 -0.4804 -0.5799 -0.1724
 8730TIP3   OH226153   7.014   1.953   0.262  0.0357 -0.1175  0.3543
 8730TIP3    H126154   6.983   1.896   0.333 -0.6495 -0.0050  0.1514
 8730TIP3    H226155   6.935   1.973   0.211  0.6408 -0.8587 -0.9257
 8731TIP3   OH226156   2.230   4.858   1.975 -0.4460  0.5087  0.1859
 8731TIP3    H126157   2.158   4.917   1.951  0.5325  1.0803 -1.4772
 8731TIP3    H226158   2.238   4.799   1.900 -0.1297 -0.4964  0.9951
 8732TIP3   OH226159   1.866   0.527   1.872  1.1107 -0.1559  0.4359
 8732TIP3    H126160   1.949   0.504   1.830  1.5594  1.0756  0.5963
 8732TIP3    H226161   1.805   0.538   1.800  1.2569 -0.4222  0.2707
 8733TIP3   OH226162   4.632   4.911   1.225  0.1188 -0.3796 -0.4117
 8733TIP3    H126163   4.683   4.976   1.177 -1.0412  0.4052 -0.6186
 8733TIP3    H226164   4.696   4.844   1.251  0.8167 -0.7637 -2.9006
 8734TIP3   OH226165   4.301   5.759   3.505 -0.6532 -0.1065  0.3594
 8734TIP3    H126166   4.208   5.737   3.498 -0.9036  0.8811  0.4174
 8734TIP3    H226167   4.347   5.681   3.475 -1.5105 -0.5290  0.1321
 8735TIP3   OH226168   3.687   0.382   2.978  0.0982 -0.1869  0.5136
 8735TIP3    H126169   3.636   0.307   3.008  0.0270  0.0561  1.0058
 8735TIP3    H226170   3.778   0.356   2.992  0.0873 -0.3237  0.3385
 8736TIP3   OH226171   7.031   5.353   5.286  0.5726 -0.3254 -0.0317
 8736TIP3    H126172   7.107   5.296   5.277 -0.0119 -1.1513  0.0637
 8736TIP3    H226173   6.959   5.302   5.247 -0.1845 -0.1254  1.0462
 8737TIP3   OH226174   3.314   4.340   1.973  0.0741  0.6725 -0.1387
 8737TIP3    H126175   3.227   4.363   1.939 -0.4095 -0.0193  0.5807
 8737TIP3    H226176   3.316   4.381   2.060 -0.5536 -1.3574  0.9060
 8738TIP3   OH226177   4.484   4.173   1.394 -0.7811  0.4521  0.3843
 8738TIP3    H126178   4.530   4.252   1.424 -0.3094 -0.0321  0.9537
 8738TIP3    H226179   4.447   4.198   1.309 -0.2683  1.1542  0.3591
 8739TIP3   OH226180   5.145   6.431   2.699  0.0670  0.0139 -0.0823
 8739TIP3    H126181   5.150   6.515   2.745 -0.0316 -0.2070  0.3362
 8739TIP3    H226182   5.102   6.452   2.616 -1.3340  0.1226  0.6482
 8740TIP3   OH226183   1.659   2.333   0.827 -0.1639  0.0375  0.3163
 8740TIP3    H126184   1.647   2.302   0.738 -0.9631  0.3376  0.3049
 8740TIP3    H226185   1.641   2.427   0.822 -0.3318  0.0362  0.8062
 8741TIP3   OH226186   6.162   2.933   5.667 -0.5152  0.2134  0.3036
 8741TIP3    H126187   6.098   2.996   5.636 -1.0723  0.1061  1.2032
 8741TIP3    H226188   6.215   2.981   5.731 -0.9479 -0.2140  0.9996
 8742TIP3   OH226189   1.691   0.080   2.112 -0.0004  0.4575  0.4850
 8742TIP3    H126190   1.727   0.167   2.095  0.2334 -0.0094 -1.6666
 8742TIP3    H226191   1.764   0.020   2.097 -0.1483 -0.1636  1.9973
 8743TIP3   OH226192   6.353   0.170   0.915 -0.1465 -0.2198 -0.0005
 8743TIP3    H126193   6.277   0.142   0.863 -0.0098  1.1628 -0.9997
 8743TIP3    H226194   6.317   0.235   0.975 -0.0761 -0.9502  0.8605
 8744TIP3   OH226195   6.425   3.289   5.649 -0.1068  0.0850  0.4247
 8744TIP3    H126196   6.410   3.264   5.557 -1.8144  1.7229  0.1887
 8744TIP3    H226197   6.485   3.223   5.682 -0.0145 -0.9792 -1.6760
 8745TIP3   OH226198   3.633   5.701   5.809  0.3350 -0.3509  0.0547
 8745TIP3    H126199   3.638   5.618   5.857  2.4428 -0.4160 -0.1977
 8745TIP3    H226200   3.637   5.768   5.878 -1.2754 -0.4116  0.2511
 8746TIP3   OH226201   2.087   6.068   0.250  0.0588 -0.3101  0.0953
 8746TIP3    H126202   2.131   6.144   0.288  0.7648 -1.3144  1.3512
 8746TIP3    H226203   2.152   6.031   0.189  0.2964 -0.7709  0.6219
 8747TIP3   OH226204   0.598   1.388   1.558 -0.3281 -0.2025 -0.3282
 8747TIP3    H126205   0.619   1.387   1.651 -0.3480  2.3053 -0.2279
 8747TIP3    H226206   0.566   1.300   1.540  1.2334 -1.2634  1.6385
 8748TIP3   OH226207   3.000   6.313   2.905 -0.3106 -0.1610 -0.1425
 8748TIP3    H126208   2.977   6.268   2.987 -0.8479 -2.4516 -1.4805
 8748TIP3    H226209   3.093   6.333   2.914 -0.8064  1.6083  1.8772
 8749TIP3   OH226210   6.838   3.049   0.612  0.6202  0.2252 -0.5270
 8749TIP3    H126211   6.888   2.991   0.671  0.5021 -0.3157 -0.9458
 8749TIP3    H226212   6.760   3.072   0.662  0.2812 -0.6277 -0.6362
 8750TIP3   OH226213   3.088   4.255   2.688  0.3323 -0.7025 -0.0039
 8750TIP3    H126214   3.050   4.259   2.600 -0.5564 -2.8499  0.2202
 8750TIP3    H226215   3.166   4.200   2.677  1.3590  0.6716  0.2115
 8751TIP3   OH226216   3.500   5.442   0.024 -0.1102 -0.2749  0.2701
 8751TIP3    H126217   3.420   5.487   0.051 -0.4700 -1.2331  0.8486
 8751TIP3    H226218   3.501   5.362   0.076  0.7564 -0.7147 -0.4019
 8752TIP3   OH226219   2.823   5.398   2.827 -0.2288  0.7619 -0.1230
 8752TIP3    H126220   2.737   5.370   2.857 -0.2425 -0.1604 -0.9464
 8752TIP3    H226221   2.833   5.356   2.741  1.9578 -1.0454  0.9107
 8753TIP3   OH226222   3.400   0.075   4.597 -0.0388 -0.1840 -0.0588
 8753TIP3    H126223   3.409   0.125   4.515  0.3123 -0.3633 -0.1308
 8753TIP3    H226224   3.432  -0.012   4.575 -1.5349 -0.7256 -0.1937
 8754TIP3   OH226225   6.468   0.843   0.055 -0.1884  0.4185 -0.8214
 8754TIP3    H126226   6.515   0.795   0.123  0.0280  0.7655 -0.7209
 8754TIP3    H226227   6.517   0.925   0.047 -0.1439  0.3315 -1.4718
 8755TIP3   OH226228   1.358   0.020   4.555 -0.4501 -0.6369 -0.2781
 8755TIP3    H126229   1.315   0.061   4.479 -0.5906  0.2051  0.2384
 8755TIP3    H226230   1.367  -0.072   4.531  0.4083 -0.2130 -1.7251
 8756TIP3   OH226231   5.115   1.093   4.103 -0.2881 -0.1305  0.6462
 8756TIP3    H126232   5.055   1.071   4.174 -0.9366 -0.0110  0.1431
 8756TIP3    H226233   5.168   1.165   4.137 -0.7063  0.0360  0.9480
 8757TIP3   OH226234   5.722   0.139   4.037  0.4338 -0.1420 -0.5134
 8757TIP3    H126235   5.740   0.065   4.095 -1.1596 -0.9369 -0.9788
 8757TIP3    H226236   5.793   0.201   4.055  0.9594 -1.1147  0.9922
 8758TIP3   OH226237   4.966   0.522   5.209 -0.0411  0.4285  0.2792
 8758TIP3    H126238   5.015   0.507   5.289  1.9075  0.6940 -0.7833
 8758TIP3    H226239   5.033   0.524   5.140 -1.7246 -0.9312 -1.5254
 8759TIP3   OH226240   5.448   5.502   2.890 -0.3953  0.2700  0.1919
 8759TIP3    H126241   5.436   5.477   2.982  0.1082 -0.8476 -0.0259
 8759TIP3    H226242   5.543   5.502   2.878 -0.3941  1.7491  0.0084
 8760TIP3   OH226243   6.098   2.938   1.254  0.4917  0.0650 -0.3472
 8760TIP3    H126244   6.077   2.848   1.279 -0.8839  0.1397 -1.1297
 8760TIP3    H226245   6.152   2.929   1.176 -0.0375 -0.0915 -0.7042
 8761TIP3   OH226246   5.824   4.336   0.903 -0.1608 -0.1628  0.1877
 8761TIP3    H126247   5.799   4.388   0.826  1.0293 -0.1331 -0.1944
 8761TIP3    H226248   5.740   4.309   0.941 -0.8297 -1.9516 -2.2914
 8762TIP3   OH226249   1.181   6.026   5.381 -0.4255  0.2178 -0.1985
 8762TIP3    H126250   1.228   5.984   5.454 -0.5642 -1.6332 -1.1207
 8762TIP3    H226251   1.250   6.050   5.319 -0.4059  0.7863  0.0367
 8763TIP3   OH226252   2.019   1.487   2.317 -0.0388  0.0562 -0.0004
 8763TIP3    H126253   1.926   1.475   2.337  0.1384 -0.8477  0.3147
 8763TIP3    H226254   2.063   1.419   2.366  0.7319  0.0117 -0.7279
 8764TIP3   OH226255   2.132   3.179   5.274 -0.4014 -0.9273  0.3283
 8764TIP3    H126256   2.135   3.085   5.292  0.4487 -0.8861  0.4491
 8764TIP3    H226257   2.222   3.209   5.287 -0.5292 -0.2118 -0.3507
 8765TIP3   OH226258   4.291   2.132   3.394  0.2579  0.0580 -0.0499
 8765TIP3    H126259   4.237   2.175   3.328 -1.2320 -0.4231  0.8013
 8765TIP3    H226260   4.287   2.190   3.470  1.1545  0.1325 -0.0511
 8766TIP3   OH226261   3.924   3.108   4.829 -0.1191 -0.1168 -0.1591
 8766TIP3    H126262   4.004   3.065   4.800  0.0818 -0.1923  0.4765
 8766TIP3    H226263   3.946   3.201   4.833 -1.2057  0.4240 -3.7157
 8767TIP3   OH226264   5.949   3.416   4.395  0.2624  0.1454  0.1762
 8767TIP3    H126265   6.026   3.456   4.354  0.4166  0.3020  0.6070
 8767TIP3    H226266   5.881   3.482   4.386  0.1163 -0.0761 -0.3905
 8768TIP3   OH226267   4.708   4.194   2.929  0.0942 -0.1499 -0.2133
 8768TIP3    H126268   4.754   4.116   2.961  0.2124 -0.2305 -0.5791
 8768TIP3    H226269   4.689   4.175   2.838 -3.1508 -1.3188  0.5647
 8769TIP3   OH226270   0.611   5.335   2.199  0.1888  0.3997  0.1545
 8769TIP3    H126271   0.617   5.291   2.115 -0.3528  1.8796 -0.7080
 8769TIP3    H226272   0.533   5.299   2.240 -1.3951  1.8800 -1.4009
 8770TIP3   OH226273   3.400   3.349   2.162 -0.3932  0.4042 -0.2250
 8770TIP3    H126274   3.412   3.256   2.146 -0.1183  0.6461 -1.5419
 8770TIP3    H226275   3.305   3.360   2.171 -0.3199 -0.2851  2.0624
 8771TIP3   OH226276   5.996   4.463   5.767 -0.0284 -0.2447  0.1248
 8771TIP3    H126277   5.983   4.556   5.746 -0.5362 -0.2882  0.2315
 8771TIP3    H226278   6.032   4.464   5.855 -0.8645 -0.1732  0.4775
 8772TIP3   OH226279   6.672   3.182   4.039 -0.4388  0.0500 -0.7539
 8772TIP3    H126280   6.692   3.126   3.964  1.4237  1.1008 -1.1086
 8772TIP3    H226281   6.636   3.261   4.001  0.4612  0.5664 -0.5727
 8773TIP3   OH226282   2.755   2.862   2.341  0.2399  0.0963 -0.2514
 8773TIP3    H126283   2.782   2.951   2.365  0.3660  0.4130 -1.4582
 8773TIP3    H226284   2.723   2.871   2.251  2.1784 -1.4298 -1.1721
 8774TIP3   OH226285   0.460   4.148   1.296 -0.0925  0.3775 -0.2100
 8774TIP3    H126286   0.398   4.082   1.328  1.6775 -0.2917  2.1446
 8774TIP3    H226287   0.545   4.103   1.296  0.7496  1.8675 -1.2514
 8775TIP3   OH226288   5.919   4.609   2.176 -0.9061 -0.4198  0.0478
 8775TIP3    H126289   5.880   4.522   2.170 -0.9808 -0.3015 -1.3566
 8775TIP3    H226290   5.904   4.649   2.091  2.7320 -0.5538 -0.8333
 8776TIP3   OH226291   7.169   3.920   4.079  0.5439  0.0224  0.2617
 8776TIP3    H126292   7.244   3.862   4.093  2.4388  1.8762 -1.4404
 8776TIP3    H226293   7.199   4.006   4.108 -1.2820  0.6599  0.3940
 8777TIP3   OH226294   3.854   1.762   0.354 -0.4537 -0.1913 -0.3890
 8777TIP3    H126295   3.795   1.740   0.282  0.1848  0.3417 -1.0914
 8777TIP3    H226296   3.931   1.706   0.340  0.4961  1.2674 -1.2660
 8778TIP3   OH226297   3.212   6.166   1.886 -0.3242 -0.4668 -0.2274
 8778TIP3    H126298   3.304   6.153   1.863  0.0369  1.5456 -0.1335
 8778TIP3    H226299   3.198   6.108   1.962  1.2884  0.2207  0.6448
 8779TIP3   OH226300   5.451   5.383   5.040  0.3445 -0.4120  0.5105
 8779TIP3    H126301   5.369   5.340   5.063  0.0337  0.7936  1.8141
 8779TIP3    H226302   5.430   5.436   4.963 -0.2842  0.3424  1.1814
 8780TIP3   OH226303   6.205   5.714   5.413  0.0934  0.7200 -0.4840
 8780TIP3    H126304   6.145   5.719   5.487  0.4136  1.2099 -0.2501
 8780TIP3    H226305   6.235   5.623   5.413  0.8804  0.9450  0.6379
 8781TIP3   OH226306   2.436   4.609   3.007 -0.1216  0.0569 -0.5141
 8781TIP3    H126307   2.347   4.585   2.980 -0.0898  1.7268 -2.4008
 8781TIP3    H226308   2.490   4.534   2.982 -0.9146 -0.8070  0.2829
 8782TIP3   OH226309   6.897   2.543   2.177  0.2369  0.5922 -0.4655
 8782TIP3    H126310   6.818   2.503   2.139  0.7008  0.7002 -1.6037
 8782TIP3    H226311   6.959   2.470   2.183  0.6891  0.8728 -1.4375
 8783TIP3   OH226312   5.108   4.297   4.666 -0.0924 -0.3398  0.1479
 8783TIP3    H126313   5.153   4.357   4.607 -0.4816 -1.7209 -1.6465
 8783TIP3    H226314   5.143   4.211   4.644 -1.8637 -1.1565  0.3652
 8784TIP3   OH226315   5.364   1.695   0.486  0.0796 -0.0588 -0.2635
 8784TIP3    H126316   5.282   1.691   0.534 -0.9970  0.1619 -2.0309
 8784TIP3    H226317   5.381   1.788   0.474  0.2814 -0.1160 -0.4314
 8785TIP3   OH226318   5.601   3.514   3.895  0.3473  0.0817  0.0080
 8785TIP3    H126319   5.643   3.541   3.813  0.2190 -1.4827 -0.6007
 8785TIP3    H226320   5.508   3.535   3.882  0.3045 -0.2916 -0.3175
 8786TIP3   OH226321   6.867   5.674   2.730 -0.0494  0.4614 -0.0532
 8786TIP3    H126322   6.795   5.694   2.790 -0.5233  2.0776 -1.1108
 8786TIP3    H226323   6.893   5.759   2.694  1.3774 -0.2715 -0.8469
 8787TIP3   OH226324   0.642   4.116   3.852 -0.0078  0.2285  0.0987
 8787TIP3    H126325   0.580   4.159   3.911  0.0515 -0.6456  0.8212
 8787TIP3    H226326   0.635   4.165   3.770 -0.0653  1.4939  0.8300
 8788TIP3   OH226327   0.412   2.971   1.828 -0.6042 -0.1965 -0.0431
 8788TIP3    H126328   0.422   3.058   1.867  0.3251 -0.0310 -0.6150
 8788TIP3    H226329   0.389   2.914   1.901 -1.3941  0.5496  0.3091
 8789TIP3   OH226330   0.464   1.324   4.156  0.3408  0.4428 -0.1341
 8789TIP3    H126331   0.394   1.390   4.155  0.7110  0.8403 -0.3013
 8789TIP3    H226332   0.437   1.262   4.223  1.0811  1.9800  1.6891
 8790TIP3   OH226333   1.189   4.367   1.581  0.1138  0.1630 -0.3872
 8790TIP3    H126334   1.154   4.278   1.581  0.0414  0.1829 -1.4015
 8790TIP3    H226335   1.220   4.381   1.492 -0.8205  1.5121 -0.5385
 8791TIP3   OH226336   0.424   6.707   0.138 -0.2401  0.3510 -0.6338
 8791TIP3    H126337   0.508   6.663   0.127 -1.3933 -1.7159 -1.8735
 8791TIP3    H226338   0.417   6.721   0.232  1.0390 -0.4251 -0.3908
 8792TIP3   OH226339   3.737   6.771   4.655  0.3130  0.5195  0.0468
 8792TIP3    H126340   3.723   6.865   4.663  0.1597  0.4037  1.3890
 8792TIP3    H226341   3.662   6.732   4.699  0.2997 -0.2431 -0.6310
 8793TIP3   OH226342   4.213   0.623   2.992  0.3291 -0.2000 -0.0011
 8793TIP3    H126343   4.251   0.557   3.051 -0.5236 -2.1399 -1.4896
 8793TIP3    H226344   4.139   0.659   3.041  0.0631 -1.2539  0.4153
 8794TIP3   OH226345   4.483   0.735   0.192  0.6856  0.9775  0.2806
 8794TIP3    H126346   4.524   0.773   0.270  0.9242 -0.2664  0.7869
 8794TIP3    H226347   4.519   0.647   0.187 -0.1503  0.6725 -0.6308
 8795TIP3   OH226348   6.536   5.574   0.594 -0.2153  0.5927 -0.5380
 8795TIP3    H126349   6.560   5.574   0.687 -0.5219  0.0978 -0.4575
 8795TIP3    H226350   6.450   5.533   0.591 -0.4236  1.0602 -0.9899
 8796TIP3   OH226351   5.518   4.171   0.435  0.2361 -0.2623  0.4336
 8796TIP3    H126352   5.517   4.076   0.437  2.7764 -0.3685  2.8428
 8796TIP3    H226353   5.443   4.198   0.487  0.4088 -1.0013  1.0770
 8797TIP3   OH226354   1.984   2.082   4.578 -0.2310  0.1786 -0.2191
 8797TIP3    H126355   1.978   2.029   4.499  1.0547 -0.2280 -0.0639
 8797TIP3    H226356   2.074   2.072   4.608  0.0119  2.2651 -0.0501
 8798TIP3   OH226357   0.110   5.123   0.596 -0.1439 -0.5097 -0.4477
 8798TIP3    H126358   0.123   5.159   0.508 -1.9363 -0.9451 -0.9460
 8798TIP3    H226359   0.020   5.089   0.595 -0.6569  0.5556  1.9370
 8799TIP3   OH226360   5.921   0.175   0.986 -0.0662  0.3429 -0.1737
 8799TIP3    H126361   5.905   0.263   0.952  1.6440  0.8736  0.3011
 8799TIP3    H226362   5.835   0.135   0.991 -0.7523  1.5876 -1.4911
 8800TIP3   OH226363   0.937   5.863   5.424 -0.2556  0.2431 -0.0244
 8800TIP3    H126364   1.020   5.879   5.379 -0.6945 -0.6707 -1.2001
 8800TIP3    H226365   0.949   5.903   5.510  1.6330 -0.3777  0.0585
 8801TIP3   OH226366   3.035   3.572   5.053  0.7070  0.3149 -0.6138
 8801TIP3    H126367   3.005   3.597   5.140  3.1760 -0.4528  0.5441
 8801TIP3    H226368   2.965   3.515   5.019  0.4974 -0.8772  1.6497
 8802TIP3   OH226369   5.005   6.041   4.819 -0.7365 -0.3646  0.1043
 8802TIP3    H126370   4.971   6.065   4.733 -0.8288  0.0943  0.2659
 8802TIP3    H226371   5.087   5.996   4.801 -0.2457  0.6210 -0.1764
 8803TIP3   OH226372   2.691  -0.004   1.472  0.0977  0.8353  0.3448
 8803TIP3    H126373   2.666   0.046   1.394  0.0239 -0.7451 -0.6941
 8803TIP3    H226374   2.778   0.028   1.494  1.2925 -0.4725 -2.0396
 8804TIP3   OH226375   2.513   3.531   4.841  0.8247 -0.3112  0.3574
 8804TIP3    H126376   2.479   3.452   4.799  1.2271 -0.1412 -0.2998
 8804TIP3    H226377   2.508   3.512   4.935  1.6139 -1.4209  0.1940
 8805TIP3   OH226378   0.424   3.999   1.786 -0.0291  0.3590 -0.1435
 8805TIP3    H126379   0.492   3.943   1.825 -1.1026  0.6594  2.3936
 8805TIP3    H226380   0.350   3.992   1.847 -2.3021  0.1309 -2.7055
 8806TIP3   OH226381   0.986   4.022   4.677  0.4373 -0.2278  0.8329
 8806TIP3    H126382   1.054   4.001   4.613 -1.2200 -0.0749 -1.1006
 8806TIP3    H226383   0.905   3.987   4.638 -0.8214  0.8423  2.3476
 8807TIP3   OH226384   6.215   4.581   3.135  1.1186  0.4773 -0.0857
 8807TIP3    H126385   6.198   4.504   3.190 -0.1779  0.4465 -0.4997
 8807TIP3    H226386   6.271   4.548   3.065  0.0894 -0.2541 -0.5904
 8808TIP3   OH226387   7.131   4.497   1.904 -0.3417  0.0780 -0.3185
 8808TIP3    H126388   7.044   4.517   1.868 -1.5782  0.7409  2.7435
 8808TIP3    H226389   7.177   4.581   1.905  0.3503 -0.2418 -1.7703
 8809TIP3   OH226390   4.598   5.538   0.491  0.0135  0.3662  0.2126
 8809TIP3    H126391   4.547   5.475   0.542  1.1183 -1.3617 -0.7360
 8809TIP3    H226392   4.680   5.548   0.539  1.3326 -1.7746 -1.4425
 8810TIP3   OH226393   2.479   4.364   2.719 -0.0745 -0.0174  0.7326
 8810TIP3    H126394   2.560   4.412   2.707  0.7066 -1.6026 -0.8519
 8810TIP3    H226395   2.410   4.427   2.700  0.9014  0.5703 -1.0994
 8811TIP3   OH226396   0.232   4.747   3.985  0.1146  0.2704 -0.6269
 8811TIP3    H126397   0.264   4.784   3.903 -0.7664  1.7895 -0.3216
 8811TIP3    H226398   0.264   4.807   4.053 -1.9142  0.9229 -0.1765
 8812TIP3   OH226399   5.153   4.408   1.435  0.6384 -0.1903 -0.3576
 8812TIP3    H126400   5.096   4.331   1.434  0.8077 -0.3399  0.4800
 8812TIP3    H226401   5.224   4.384   1.494  2.0728 -0.3494 -2.0717
 8813TIP3   OH226402   1.771   1.161   3.090 -0.6128 -0.0240  0.3942
 8813TIP3    H126403   1.791   1.099   3.160 -0.1810 -0.8079 -0.4058
 8813TIP3    H226404   1.685   1.196   3.114 -1.5959 -2.0780  0.0994
 8814TIP3   OH226405   0.497   6.745   2.003  0.2905 -0.7499  0.3630
 8814TIP3    H126406   0.485   6.690   2.081 -2.1138 -0.9264 -0.0613
 8814TIP3    H226407   0.520   6.831   2.038 -1.7466 -0.5568  1.3730
 8815TIP3   OH226408   5.738   3.961   1.579 -0.1415 -0.3897 -0.7229
 8815TIP3    H126409   5.740   3.883   1.634  0.0111  0.4999  0.5872
 8815TIP3    H226410   5.786   3.937   1.500  0.1612 -1.5134 -0.2097
 8816TIP3   OH226411   5.853   1.725   2.153 -1.0118 -0.5334  0.5228
 8816TIP3    H126412   5.910   1.669   2.101 -0.9014  0.6757 -0.7283
 8816TIP3    H226413   5.769   1.723   2.109 -1.2245 -0.3292  0.9063
 8817TIP3   OH226414   5.677   5.047   0.045 -0.3502 -0.5381 -0.3266
 8817TIP3    H126415   5.608   5.114   0.041  1.1910  1.1048 -0.6438
 8817TIP3    H226416   5.750   5.085  -0.004  1.7308 -1.0529  2.1641
 8818TIP3   OH226417   4.997   5.734   4.341  0.7358  0.2382 -0.1327
 8818TIP3    H126418   4.926   5.775   4.292  1.1501 -0.7680 -1.6246
 8818TIP3    H226419   5.047   5.808   4.377 -0.4629  0.9634  0.0894
 8819TIP3   OH226420   3.626   0.127   1.840 -0.2043  0.3807 -0.0921
 8819TIP3    H126421   3.721   0.115   1.830 -0.3740 -0.2480 -1.1396
 8819TIP3    H226422   3.588   0.068   1.775 -1.3432 -0.1267  0.9942
 8820TIP3   OH226423   0.003   4.575   5.768 -0.2396 -0.0668 -0.3746
 8820TIP3    H126424   0.064   4.631   5.719 -0.8246  0.6231 -0.3356
 8820TIP3    H226425  -0.052   4.535   5.701 -1.4950  1.4136 -0.2943
 8821TIP3   OH226426   2.901   0.706   2.800  0.1468 -0.3294 -0.3622
 8821TIP3    H126427   2.859   0.783   2.761 -1.9760 -1.3715 -0.2719
 8821TIP3    H226428   2.921   0.649   2.725 -0.5812 -0.7585 -0.2350
 8822TIP3   OH226429   5.780   1.973   5.145 -0.2133  0.3037 -0.4178
 8822TIP3    H126430   5.826   1.893   5.119 -0.9905  0.0924 -1.1819
 8822TIP3    H226431   5.844   2.043   5.132 -0.1900  0.0581 -1.8042
 8823TIP3   OH226432   5.182   0.649   0.846 -0.2395  0.0180  0.2622
 8823TIP3    H126433   5.246   0.718   0.831  1.9548 -1.5817  1.7815
 8823TIP3    H226434   5.135   0.641   0.763  1.3269  1.4232 -0.8062
 8824TIP3   OH226435   3.707   0.394   3.517  0.3319 -0.0999  0.4945
 8824TIP3    H126436   3.666   0.329   3.574 -0.2600 -1.3657 -1.3073
 8824TIP3    H226437   3.639   0.460   3.502 -0.5559 -1.3098 -1.0949
 8825TIP3   OH226438   2.083   5.549   1.366  0.0818 -0.4900 -0.0450
 8825TIP3    H126439   2.049   5.460   1.350  0.2176 -0.6089  0.3247
 8825TIP3    H226440   2.128   5.572   1.285 -1.1871 -0.1866 -0.6851
 8826TIP3   OH226441   5.282   4.245   2.717 -0.4037  0.1710  0.4229
 8826TIP3    H126442   5.272   4.305   2.643  0.5905 -1.7218 -1.3686
 8826TIP3    H226443   5.343   4.289   2.776  1.4190  0.3937 -1.5207
 8827TIP3   OH226444   3.961   2.404   5.579 -0.0486 -0.1094 -0.5822
 8827TIP3    H126445   3.987   2.332   5.522 -0.4099  0.7169 -1.8237
 8827TIP3    H226446   3.870   2.385   5.602  0.3450 -0.8591  0.3881
 8828TIP3   OH226447   4.650   4.251   3.463 -0.1563 -0.2936 -0.8862
 8828TIP3    H126448   4.649   4.237   3.368  3.7899 -0.3656 -1.0936
 8828TIP3    H226449   4.654   4.346   3.473 -1.1427 -0.2572 -0.7097
 8829TIP3   OH226450   2.330   0.115   4.734 -0.2330 -0.3445  0.0101
 8829TIP3    H126451   2.322   0.187   4.796  0.3057 -1.1662  1.0734
 8829TIP3    H226452   2.258   0.056   4.757 -0.6566 -0.1736 -0.8351
 8830TIP3   OH226453   7.022   3.807   5.648 -0.3205  0.4522  0.0911
 8830TIP3    H126454   7.068   3.887   5.671 -0.0762  0.0859  0.9137
 8830TIP3    H226455   6.930   3.833   5.640 -0.2950  0.7472  0.7101
 8831TIP3   OH226456   4.269   1.363   2.698  0.1108  0.3320  0.0666
 8831TIP3    H126457   4.287   1.316   2.779 -1.7345  0.2987  0.5134
 8831TIP3    H226458   4.228   1.297   2.641 -0.3282  0.8093 -0.1817
 8832TIP3   OH226459   3.344   5.979   3.726 -0.4270  0.6206  0.1587
 8832TIP3    H126460   3.276   6.044   3.708  0.5566  1.5532 -0.3332
 8832TIP3    H226461   3.297   5.898   3.744 -1.9275  2.2461  4.8176
 8833TIP3   OH226462   2.603   0.450   5.085 -0.1049 -0.4495  0.1459
 8833TIP3    H126463   2.648   0.522   5.129  1.9341 -1.1256 -0.6958
 8833TIP3    H226464   2.559   0.492   5.010 -0.1771  0.1254  0.5061
 8834TIP3   OH226465   6.370   2.234   4.602  0.1664 -0.0761 -0.7805
 8834TIP3    H126466   6.446   2.290   4.616  1.4081 -1.3829 -1.8928
 8834TIP3    H226467   6.392   2.183   4.524 -1.6489 -0.8532 -0.8350
 8835TIP3   OH226468   3.852   5.200   3.129  0.6364 -0.2973 -0.2200
 8835TIP3    H126469   3.758   5.192   3.139  0.7024  0.3055  1.1354
 8835TIP3    H226470   3.865   5.290   3.098  0.8287  0.2261  1.2753
 8836TIP3   OH226471   1.724   0.443   4.608  0.1694  0.4085 -0.3657
 8836TIP3    H126472   1.787   0.451   4.536  0.0964 -0.9917 -0.6095
 8836TIP3    H226473   1.648   0.400   4.568 -0.1791  0.3310  0.3664
 8837TIP3   OH226474   1.667   2.229   0.057 -0.1001 -0.3033  0.0136
 8837TIP3    H126475   1.744   2.217   0.113 -0.3989 -1.2772  0.2282
 8837TIP3    H226476   1.630   2.141   0.048 -2.3744  0.3882  1.6024
 8838TIP3   OH226477   6.237   2.343   0.309  0.1156  0.2873  0.5886
 8838TIP3    H126478   6.188   2.370   0.387  0.0019 -0.0879  0.6520
 8838TIP3    H226479   6.307   2.407   0.301  0.0853  0.3696  0.9644
 8839TIP3   OH226480   0.874   1.661   2.068  0.0542 -0.0519  0.4418
 8839TIP3    H126481   0.790   1.621   2.047 -0.5893 -0.2353  2.9749
 8839TIP3    H226482   0.902   1.704   1.987 -2.9180  0.8360 -0.2165
 8840TIP3   OH226483   3.028   0.149   0.313 -0.2951 -0.6566 -0.1401
 8840TIP3    H126484   3.032   0.243   0.300 -0.2754 -0.7602 -0.9085
 8840TIP3    H226485   3.035   0.138   0.408  1.5488  0.0317 -0.1566
 8841TIP3   OH226486   0.343   3.507   4.288 -0.4590  0.1301  0.0514
 8841TIP3    H126487   0.416   3.445   4.297  0.1299  0.7442 -0.3970
 8841TIP3    H226488   0.268   3.461   4.325 -0.1648 -1.0809 -0.7974
 8842TIP3   OH226489   4.187   4.523   1.138 -0.2701 -0.0826 -0.5350
 8842TIP3    H126490   4.110   4.540   1.193 -0.8644 -1.8739 -0.7469
 8842TIP3    H226491   4.258   4.506   1.200  0.3432  2.7856 -0.3112
 8843TIP3   OH226492   2.496   6.662   0.812 -0.0910 -0.5014 -0.3454
 8843TIP3    H126493   2.455   6.725   0.872 -1.2375 -0.3654 -1.2365
 8843TIP3    H226494   2.572   6.629   0.860  0.5768  1.5891  0.1338
 8844TIP3   OH226495   3.104   1.005   0.880 -0.2340  0.1072 -0.1651
 8844TIP3    H126496   3.195   0.977   0.879  0.1338  1.1357  1.3971
 8844TIP3    H226497   3.087   1.028   0.971 -1.5736  1.4870 -0.7250
 8845TIP3   OH226498   3.839   2.151   1.207 -0.3445 -0.1165 -0.3750
 8845TIP3    H126499   3.820   2.237   1.169 -1.2829 -0.6462 -1.1355
 8845TIP3    H226500   3.932   2.136   1.187  0.3524  1.5064  1.3936
 8846TIP3   OH226501   5.266   3.989   3.311 -0.4608 -0.5526  0.0366
 8846TIP3    H126502   5.225   4.048   3.375 -1.9626 -1.1546 -0.3417
 8846TIP3    H226503   5.210   3.912   3.309  0.1008 -0.9591 -1.2985
 8847TIP3   OH226504   5.310   3.459   0.363  0.1677  0.5065 -0.3708
 8847TIP3    H126505   5.387   3.485   0.415  0.0141 -1.5149  0.9962
 8847TIP3    H226506   5.339   3.381   0.315 -1.3667 -1.2311  1.3472
 8848TIP3   OH226507   3.636   1.751   0.565  0.0676  0.0486 -0.0724
 8848TIP3    H126508   3.670   1.825   0.617 -0.0643  0.2314 -0.2451
 8848TIP3    H226509   3.704   1.734   0.500 -0.7473  1.3173 -1.3120
 8849TIP3   OH226510   5.567   1.187   4.339 -0.2832 -0.1071  0.7810
 8849TIP3    H126511   5.650   1.226   4.311 -0.5068  0.2886  0.6567
 8849TIP3    H226512   5.574   1.095   4.317  0.3023 -0.1623  1.1746
 8850TIP3   OH226513   4.728   2.303   4.486  0.5468  0.2923 -0.3831
 8850TIP3    H126514   4.721   2.349   4.403  0.1747 -0.2578 -0.6604
 8850TIP3    H226515   4.724   2.372   4.552  1.0010  0.7454 -0.8189
 8851TIP3   OH226516   3.165   4.566   5.832 -0.4882 -0.0634 -0.0311
 8851TIP3    H126517   3.215   4.549   5.753  0.0342  0.9988  0.0684
 8851TIP3    H226518   3.223   4.541   5.903 -0.9670 -1.0420  0.0353
 8852TIP3   OH226519   1.213   1.196   1.524 -0.4351 -0.7528  0.2619
 8852TIP3    H126520   1.287   1.164   1.472  0.1796  2.3606 -0.9738
 8852TIP3    H226521   1.248   1.202   1.613  0.8952  0.6703 -0.3036
 8853TIP3   OH226522   6.863   5.078   3.185  0.3681 -0.3429  0.2615
 8853TIP3    H126523   6.947   5.124   3.188  0.2209  0.0108 -0.7242
 8853TIP3    H226524   6.873   5.006   3.248  0.7178  0.8041  1.5742
 8854TIP3   OH226525   2.665   3.220   5.580  0.0170  0.1145 -0.5638
 8854TIP3    H126526   2.706   3.182   5.657 -0.1586 -1.2047 -1.1027
 8854TIP3    H226527   2.672   3.315   5.594 -0.4596 -0.0797  1.3099
 8855TIP3   OH226528   6.283   4.591   2.485  0.2469 -0.3628 -0.7513
 8855TIP3    H126529   6.342   4.666   2.479  0.3957 -0.4167 -0.0638
 8855TIP3    H226530   6.260   4.571   2.394  0.2287  0.4937 -0.9457
 8856TIP3   OH226531   2.441   0.960   3.586 -0.5297 -0.7777  0.3587
 8856TIP3    H126532   2.426   0.999   3.500 -0.7489 -1.9383 -0.1508
 8856TIP3    H226533   2.414   1.028   3.648  1.3569  0.7893 -0.4149
 8857TIP3   OH226534   1.516   5.753   3.290 -0.2950 -0.1594  0.1664
 8857TIP3    H126535   1.601   5.717   3.262 -0.7993 -0.8909 -0.4708
 8857TIP3    H226536   1.466   5.678   3.320  0.0992  0.5571  2.8944
 8858TIP3   OH226537   4.109   5.989   0.404 -0.1969  0.2042 -0.0951
 8858TIP3    H126538   4.126   6.083   0.394  3.0514 -0.4995 -2.8318
 8858TIP3    H226539   4.030   5.974   0.352 -0.9906  1.4156  0.6866
 8859TIP3   OH226540   4.333   6.554   0.503 -0.3825 -0.0652 -0.1186
 8859TIP3    H126541   4.318   6.566   0.409 -2.0196 -0.0456  0.1071
 8859TIP3    H226542   4.285   6.626   0.544  1.3739  0.6820  0.7108
 8860TIP3   OH226543   1.015   3.686   4.391 -0.3228 -0.7988  0.8708
 8860TIP3    H126544   0.971   3.741   4.456 -0.8853 -0.9827  0.6503
 8860TIP3    H226545   1.033   3.604   4.437 -1.4023 -1.2111  0.5861
 8861TIP3   OH226546   4.515   4.667   1.028  0.0534 -0.1184  0.2256
 8861TIP3    H126547   4.465   4.747   1.042  0.1797 -0.1308  0.7711
 8861TIP3    H226548   4.523   4.629   1.115 -2.0120 -1.9468 -0.2900
 8862TIP3   OH226549   4.641   1.325   1.667 -0.0742  0.8864  0.4338
 8862TIP3    H126550   4.719   1.334   1.722  0.4543 -0.4973 -0.0545
 8862TIP3    H226551   4.574   1.376   1.712  1.2875  2.7770  0.4679
 8863TIP3   OH226552   1.988   4.027   0.995 -0.0532 -0.0936  0.5211
 8863TIP3    H126553   2.052   4.056   0.930  0.7470 -1.0786  0.8412
 8863TIP3    H226554   2.014   4.071   1.075 -0.0860 -0.0942  0.5318
 8864TIP3   OH226555   3.865   5.079   4.663 -0.0559  0.2083 -0.1354
 8864TIP3    H126556   3.945   5.038   4.696  0.9549  2.1392 -0.0748
 8864TIP3    H226557   3.823   5.115   4.740 -0.7952 -0.4627 -0.2193
 8865TIP3   OH226558   5.977   0.510   1.735 -0.6325 -0.3899  0.1459
 8865TIP3    H126559   5.887   0.477   1.733 -0.5453 -0.6074 -0.5171
 8865TIP3    H226560   6.031   0.432   1.720 -0.4672  0.1741 -2.8477
 8866TIP3   OH226561   4.087   2.052   0.560  0.0880 -0.3352  0.1167
 8866TIP3    H126562   4.001   2.071   0.523  0.1373  1.0091  0.6291
 8866TIP3    H226563   4.103   1.960   0.539 -1.5442 -0.6498  0.1595
 8867TIP3   OH226564   6.901   6.089   5.464 -0.2920  0.2147 -0.0554
 8867TIP3    H126565   6.927   6.176   5.492  1.5236  0.3764 -1.9708
 8867TIP3    H226566   6.868   6.047   5.543  0.6007  1.9838  1.3374
 8868TIP3   OH226567   4.066   3.594   5.861 -0.3982  0.2210  0.3919
 8868TIP3    H126568   4.072   3.531   5.933  1.5511  0.0839  0.1644
 8868TIP3    H226569   4.058   3.540   5.782 -1.9318  0.3587  0.4300
 8869TIP3   OH226570   5.962   1.086   1.159 -0.1382  0.7652  0.0092
 8869TIP3    H126571   6.012   1.166   1.172 -0.7565  0.9060  1.9482
 8869TIP3    H226572   5.973   1.038   1.241 -0.4955 -0.7283 -0.7862
 8870TIP3   OH226573   1.926   1.274   4.748  0.1670  0.1456  0.9310
 8870TIP3    H126574   1.923   1.188   4.707 -0.5880 -0.3826  2.0434
 8870TIP3    H226575   1.851   1.321   4.712 -0.2301 -0.1549  1.3655
 8871TIP3   OH226576   6.583   2.806   5.259 -0.2153 -0.2814  0.0569
 8871TIP3    H126577   6.637   2.727   5.265 -0.8697 -0.6449  1.6613
 8871TIP3    H226578   6.645   2.875   5.235  0.3665 -1.2430 -1.4049
 8872TIP3   OH226579   4.555   2.668   4.231 -0.0134 -0.0838 -0.4135
 8872TIP3    H126580   4.570   2.747   4.284 -0.5804  0.2632 -0.7492
 8872TIP3    H226581   4.466   2.641   4.255 -0.3620  0.2100 -1.3390
 8873TIP3   OH226582   0.638   6.063   2.781  0.5580 -0.3632  0.1027
 8873TIP3    H126583   0.617   5.970   2.787  0.6956 -0.3852  0.2375
 8873TIP3    H226584   0.614   6.087   2.691 -1.5249 -0.0173  0.7005
 8874TIP3   OH226585   5.675   5.199   1.907 -0.2308  0.2587  0.1524
 8874TIP3    H126586   5.600   5.143   1.926  0.3245 -0.8409 -0.7847
 8874TIP3    H226587   5.713   5.162   1.827  0.0511  2.0882 -0.6132
 8875TIP3   OH226588   6.536   1.713   1.363  0.5480  0.5598 -0.5618
 8875TIP3    H126589   6.505   1.760   1.285  0.6716  0.3704 -0.7241
 8875TIP3    H226590   6.461   1.716   1.423  0.3930  0.5595 -0.7532
 8876TIP3   OH226591   2.342   3.654   3.937  0.0192 -0.2072  0.2169
 8876TIP3    H126592   2.432   3.650   3.971  0.2963 -0.9646 -0.5816
 8876TIP3    H226593   2.306   3.734   3.976  0.6397 -0.5129  1.4956
 8877TIP3   OH226594   3.507   5.442   1.169  0.2019  0.2431  0.1374
 8877TIP3    H126595   3.557   5.448   1.250  1.0784 -2.5324 -0.1121
 8877TIP3    H226596   3.416   5.443   1.197  0.4837 -2.0843  1.3796
 8878TIP3   OH226597   1.954   6.589   0.676 -0.2063 -0.2693  0.0679
 8878TIP3    H126598   1.994   6.653   0.733 -0.2612 -1.6053  1.6890
 8878TIP3    H226599   1.888   6.545   0.731  0.3037 -2.1687 -0.7398
 8879TIP3   OH226600   4.807   5.719   5.194 -0.5420  0.1879 -0.5271
 8879TIP3    H126601   4.763   5.669   5.126 -2.8658 -0.1458  1.1215
 8879TIP3    H226602   4.822   5.805   5.155  0.8905 -0.8586 -2.4098
 8880TIP3   OH226603   5.623   1.472   4.749 -0.2068  0.1924  0.2273
 8880TIP3    H126604   5.605   1.432   4.664  2.1508  0.1209 -0.3047
 8880TIP3    H226605   5.552   1.535   4.761 -3.0736 -2.7445  0.2634
 8881TIP3   OH226606   0.134   6.454   3.271  0.3173 -0.2554  0.3878
 8881TIP3    H126607   0.187   6.394   3.324 -0.7653  0.0770  1.9178
 8881TIP3    H226608   0.159   6.435   3.180  1.9000 -1.1676  0.9786
 8882TIP3   OH226609   4.476   2.983   0.474 -0.2907  0.6200  0.3024
 8882TIP3    H126610   4.413   2.990   0.402  0.1728  0.9453 -0.0696
 8882TIP3    H226611   4.424   3.003   0.552 -0.7151  0.6032  0.0285
 8883TIP3   OH226612   3.783   2.907   4.738 -0.1554 -0.3267 -0.4290
 8883TIP3    H126613   3.744   2.937   4.656 -3.3279  0.6250  1.2928
 8883TIP3    H226614   3.825   2.985   4.775 -1.9186  0.2367  0.5021
 8884TIP3   OH226615   4.326   5.283   5.605  0.3099  0.0935 -0.0396
 8884TIP3    H126616   4.250   5.340   5.617 -0.3508 -0.5792 -0.9275
 8884TIP3    H226617   4.295   5.212   5.548  0.0947 -3.0237  3.5242
 8885TIP3   OH226618   5.740   1.625   2.473  0.7930  0.3268  0.3104
 8885TIP3    H126619   5.679   1.699   2.461 -0.4347 -0.5449  0.9073
 8885TIP3    H226620   5.815   1.663   2.519 -0.2301  1.0424  1.4730
 8886TIP3   OH226621   7.117   4.523   2.226 -0.9885  0.3208 -0.3818
 8886TIP3    H126622   7.187   4.588   2.226 -0.8093  0.1747 -2.2806
 8886TIP3    H226623   7.163   4.439   2.231 -1.2271  0.2484  2.4106
 8887TIP3   OH226624   3.946   2.505   5.846  0.6359 -0.6964  0.3646
 8887TIP3    H126625   3.956   2.473   5.756  2.5182 -1.3403  0.7490
 8887TIP3    H226626   4.002   2.583   5.850  1.0201 -1.0012  1.1196
 8888TIP3   OH226627   3.404   2.345   0.483  0.6071  0.2720  0.4626
 8888TIP3    H126628   3.427   2.305   0.567  1.4351  0.3530  0.2888
 8888TIP3    H226629   3.335   2.407   0.504 -0.7977 -1.3192  0.7225
 8889TIP3   OH226630   0.123   1.875   0.864  0.3407 -0.0082  0.1107
 8889TIP3    H126631   0.041   1.825   0.871  0.2853 -0.4772 -2.7941
 8889TIP3    H226632   0.095   1.963   0.840  0.6012 -0.7914 -3.6826
 8890TIP3   OH226633   6.444   0.774   2.099  0.5014  0.5667 -0.3584
 8890TIP3    H126634   6.431   0.759   2.006  0.6544 -2.7200  0.0405
 8890TIP3    H226635   6.359   0.805   2.131  0.3934  1.5282 -1.5142
 8891TIP3   OH226636   2.349   1.595   5.767 -0.4013  0.1938 -0.7545
 8891TIP3    H126637   2.407   1.589   5.690 -0.1983 -0.0765 -0.5797
 8891TIP3    H226638   2.275   1.539   5.746 -0.4383  0.2719 -0.8343
 8892TIP3   OH226639   7.139   4.103   3.165  0.5525 -0.6230 -0.5705
 8892TIP3    H126640   7.136   4.060   3.080  1.4170 -1.2119 -0.3220
 8892TIP3    H226641   7.174   4.190   3.148  2.7220 -1.4228 -0.6091
 8893TIP3   OH226642   7.020   3.303   2.554 -0.1635  0.1236 -0.3704
 8893TIP3    H126643   6.997   3.389   2.518  1.0832 -0.1014 -1.7714
 8893TIP3    H226644   6.967   3.296   2.633 -2.3269  1.0184 -1.6659
 8894TIP3   OH226645   2.906   0.057   2.804  0.2831 -0.1317 -0.1522
 8894TIP3    H126646   2.929  -0.033   2.825 -2.2095 -1.0326 -0.8774
 8894TIP3    H226647   2.885   0.097   2.889  1.9996 -0.0052  0.2383
 8895TIP3   OH226648   3.832   6.001   0.673  0.3919  0.7056 -0.0576
 8895TIP3    H126649   3.762   5.950   0.715  0.4056 -0.1605 -1.0407
 8895TIP3    H226650   3.858   5.948   0.597  0.8521  1.8852 -0.7490
 8896TIP3   OH226651   2.157   0.077   4.069 -0.6051  0.0035 -0.3319
 8896TIP3    H126652   2.138   0.010   4.005 -2.0902 -0.6786  0.7629
 8896TIP3    H226653   2.072   0.115   4.091 -0.1553  0.1746  1.2580
 8897TIP3   OH226654   6.903   6.123   3.868  0.0898  0.4010  0.3048
 8897TIP3    H126655   6.960   6.173   3.810 -0.7186  2.0987  0.9080
 8897TIP3    H226656   6.899   6.174   3.948 -0.4816 -0.8377  1.1072
 8898TIP3   OH226657   0.326   2.850   5.007  0.0311 -0.7678 -0.5328
 8898TIP3    H126658   0.385   2.916   4.971 -0.1708 -0.0615  0.3871
 8898TIP3    H226659   0.380   2.772   5.016  1.0878  0.0851  1.0370
 8899TIP3   OH226660   2.116   1.455   2.864  0.2502  0.2999  0.1314
 8899TIP3    H126661   2.047   1.428   2.925 -1.9074  1.4699 -1.6354
 8899TIP3    H226662   2.102   1.549   2.852  1.9799  0.5112 -0.5638
 8900TIP3   OH226663   5.157   0.887   1.736 -0.0121 -0.4128  0.0602
 8900TIP3    H126664   5.070   0.905   1.773 -0.4569  0.2086 -1.1943
 8900TIP3    H226665   5.142   0.885   1.641  0.9687 -2.5170 -0.0862
 8901TIP3   OH226666   1.480   2.479   3.020 -0.1082 -0.2266  0.0778
 8901TIP3    H126667   1.446   2.425   3.091 -0.7483  0.1037  0.0237
 8901TIP3    H226668   1.458   2.431   2.940 -0.4522 -0.0117  0.0426
 8902TIP3   OH226669   4.769   2.012   2.406  0.4964 -0.0618  0.2734
 8902TIP3    H126670   4.717   2.017   2.486  0.8860 -0.9352  0.5914
 8902TIP3    H226671   4.704   1.998   2.337  0.1312  0.9999  0.3809
 8903TIP3   OH226672   2.090   5.116   3.108 -0.3359 -0.3301  0.1155
 8903TIP3    H126673   1.994   5.113   3.115 -0.5726  0.1716 -2.0811
 8903TIP3    H226674   2.121   5.088   3.194 -2.4350  2.6624  2.0474
 8904TIP3   OH226675   7.211   3.238   3.147 -0.6461 -0.5663 -0.3493
 8904TIP3    H126676   7.228   3.332   3.138  1.2888 -0.6776  1.4869
 8904TIP3    H226677   7.116   3.230   3.135 -0.8914  1.6436 -0.3373
 8905TIP3   OH226678   2.894   5.720   1.658  0.0500  0.5466 -0.5102
 8905TIP3    H126679   2.823   5.767   1.615 -1.4292 -1.2745 -0.2074
 8905TIP3    H226680   2.887   5.743   1.750  0.6193  1.2812 -0.6456
 8906TIP3   OH226681   1.796   2.229   5.805 -0.3665 -0.7441  0.1033
 8906TIP3    H126682   1.891   2.227   5.803 -0.1549  2.9964  0.2914
 8906TIP3    H226683   1.770   2.165   5.738  2.0936 -3.3449  1.3985
 8907TIP3   OH226684   5.582   1.827   5.300 -0.2763 -0.0586 -0.4827
 8907TIP3    H126685   5.630   1.879   5.236 -0.1226 -1.0170 -1.1610
 8907TIP3    H226686   5.649   1.774   5.343 -0.5155 -0.1734 -0.2466
 8908TIP3   OH226687   6.612   1.310   0.778  0.0899  0.4080 -0.0632
 8908TIP3    H126688   6.545   1.342   0.718  0.4871  1.8989  0.2376
 8908TIP3    H226689   6.564   1.255   0.841 -0.9411  1.7955  0.4049
 8909TIP3   OH226690   7.230   2.196   4.339  0.0150 -0.4187 -0.4220
 8909TIP3    H126691   7.195   2.116   4.378 -2.6270  1.1782  0.7777
 8909TIP3    H226692   7.168   2.216   4.269  0.9675  0.2865 -1.0690
 8910TIP3   OH226693   2.978   2.618   1.032  0.3893 -0.1426 -0.3405
 8910TIP3    H126694   3.027   2.699   1.047  0.6352 -0.1991 -0.8099
 8910TIP3    H226695   2.893   2.633   1.072  0.1628  0.6483 -1.1018
 8911TIP3   OH226696   5.640   4.964   3.599 -0.0002  0.3861 -0.0069
 8911TIP3    H126697   5.606   4.909   3.529  0.0003 -2.1610  1.8450
 8911TIP3    H226698   5.566   5.021   3.623  0.0312  1.3623 -2.0239
 8912TIP3   OH226699   1.751   2.518   1.561 -0.2721  0.4970 -0.3092
 8912TIP3    H126700   1.694   2.454   1.518 -0.7850  0.2048  0.7602
 8912TIP3    H226701   1.805   2.465   1.620 -1.0872  1.0866  1.0036
 8913TIP3   OH226702   4.211   5.161   4.237 -0.4627  0.0017 -0.5938
 8913TIP3    H126703   4.157   5.199   4.167 -0.4806 -0.2382 -0.7113
 8913TIP3    H226704   4.149   5.143   4.307 -0.1203  2.3757  0.4117
 8914TIP3   OH226705   1.582   4.814   2.714  0.1194  0.0915 -0.1455
 8914TIP3    H126706   1.583   4.785   2.623 -0.6294 -1.6144  0.3628
 8914TIP3    H226707   1.661   4.868   2.723  1.1087 -1.0932 -1.3765
 8915TIP3   OH226708   2.032   3.670   3.124  0.7248  0.3046 -0.1487
 8915TIP3    H126709   2.101   3.722   3.082  0.2323  1.7271  0.7184
 8915TIP3    H226710   2.035   3.586   3.079  0.9581  1.3690 -2.2554
 8916TIP3   OH226711   3.692   6.107   5.684  0.0567 -0.1894  0.1951
 8916TIP3    H126712   3.721   6.109   5.775  0.0960 -0.2976  0.1851
 8916TIP3    H226713   3.755   6.161   5.637  0.0355 -0.1329  0.2327
 8917TIP3   OH226714   0.056   2.527   3.187 -0.3629  0.0832 -0.0724
 8917TIP3    H126715   0.122   2.484   3.242  0.3318  0.5961 -0.4805
 8917TIP3    H226716   0.002   2.455   3.154 -0.1627 -0.3254  0.4640
 8918TIP3   OH226717   3.697   4.997   5.126  0.1442 -0.1554  0.3343
 8918TIP3    H126718   3.607   5.021   5.104  0.7077  1.6392 -0.2353
 8918TIP3    H226719   3.739   5.080   5.149  1.5840 -0.9939  0.8789
 8919TIP3   OH226720   1.571   4.267   1.247  0.5645 -0.1496 -0.0769
 8919TIP3    H126721   1.641   4.212   1.283  0.1282  1.1113  2.9386
 8919TIP3    H226722   1.491   4.232   1.286 -0.5838 -1.2048 -3.0337
 8920TIP3   OH226723   2.802   6.732   5.216 -0.3458  0.0823 -0.1340
 8920TIP3    H126724   2.795   6.818   5.173  3.4263  1.1959  1.0301
 8920TIP3    H226725   2.719   6.722   5.264 -0.4353  3.8347  0.8395
 8921TIP3   OH226726   1.054   2.090   1.207  0.1288  0.2820  0.2965
 8921TIP3    H126727   1.125   2.151   1.187 -1.5651  1.6784 -2.1045
 8921TIP3    H226728   1.086   2.037   1.280  2.7620  2.2208  0.6687
 8922TIP3   OH226729   2.816   2.326   3.850  0.2085 -0.8276 -0.1780
 8922TIP3    H126730   2.849   2.320   3.761 -2.3910 -1.0496 -1.2008
 8922TIP3    H226731   2.872   2.392   3.892  1.1090 -0.2984 -2.1162
 8923TIP3   OH226732   1.247   2.386   3.501  0.6094 -0.6675  0.2767
 8923TIP3    H126733   1.311   2.456   3.518  0.0973  0.1736 -1.0378
 8923TIP3    H226734   1.162   2.431   3.502  0.3979 -0.8016 -2.5108
 8924TIP3   OH226735   6.663   2.038   0.221 -0.6473 -0.4888 -0.2979
 8924TIP3    H126736   6.628   1.961   0.267 -1.0980 -0.3239 -0.3629
 8924TIP3    H226737   6.650   2.110   0.283  1.6450 -0.7856  0.6239
 8925TIP3   OH226738   5.066   5.132   1.958 -0.6779 -0.7011 -0.3502
 8925TIP3    H126739   4.998   5.134   1.891  0.4389 -1.5783 -1.5484
 8925TIP3    H226740   5.123   5.060   1.933 -0.0547 -0.8680  1.3934
 8926TIP3   OH226741   0.830   6.400   5.706 -0.2830 -0.0179  0.1140
 8926TIP3    H126742   0.867   6.379   5.792  0.7912  0.3266 -0.2489
 8926TIP3    H226743   0.737   6.380   5.715 -0.1953  0.0485  1.3661
 8927TIP3   OH226744   5.414   6.374   5.759  0.4738 -0.2303  0.3370
 8927TIP3    H126745   5.367   6.446   5.801 -0.4405 -0.8264  0.3598
 8927TIP3    H226746   5.353   6.300   5.763  1.6593 -1.2154  0.9833
 8928TIP3   OH226747   2.150   2.229   1.604 -0.1284 -0.3366 -0.2805
 8928TIP3    H126748   2.121   2.195   1.519  2.6983 -0.6645 -1.2036
 8928TIP3    H226749   2.149   2.153   1.662  0.4868 -0.7129 -0.7519
 8929TIP3   OH226750   0.886   1.235   1.061 -0.5749  0.6991  0.6129
 8929TIP3    H126751   0.809   1.236   1.005 -1.3380 -0.3077  1.6097
 8929TIP3    H226752   0.919   1.326   1.059 -0.7283  0.7517 -1.2051
 8930TIP3   OH226753   3.136   2.027   2.974 -1.0804  0.1171 -0.1611
 8930TIP3    H126754   3.152   1.987   2.889 -1.3006  1.6811 -0.9853
 8930TIP3    H226755   3.137   1.955   3.036  4.0302 -0.5954 -0.7183
 8931TIP3   OH226756   4.848   4.972   5.650  0.1814 -0.3749 -0.7637
 8931TIP3    H126757   4.763   4.959   5.691 -0.4652 -1.6141 -2.3858
 8931TIP3    H226758   4.850   4.909   5.577  2.7886 -0.9428 -0.3171
 8932TIP3   OH226759   3.364   3.205   0.547 -0.1362  0.4543 -0.3861
 8932TIP3    H126760   3.353   3.111   0.532  1.7125 -0.2632  2.0964
 8932TIP3    H226761   3.406   3.237   0.467  2.1356 -1.5103 -0.0712
 8933TIP3   OH226762   2.636   4.277   4.944 -0.1269 -0.0545 -0.2075
 8933TIP3    H126763   2.638   4.208   5.011 -1.6116  0.1951  0.1461
 8933TIP3    H226764   2.542   4.291   4.928 -0.0490  3.4389  1.4084
 8934TIP3   OH226765   1.933   4.576   1.407 -0.2832 -0.7441 -0.0973
 8934TIP3    H126766   1.911   4.598   1.498 -0.0472 -1.2449  0.0874
 8934TIP3    H226767   1.963   4.485   1.412 -0.2962 -0.7802 -0.6831
 8935TIP3   OH226768   1.401   6.294   1.072 -0.4149  0.4064  0.1931
 8935TIP3    H126769   1.443   6.210   1.092 -1.6244  0.0871  1.5604
 8935TIP3    H226770   1.383   6.289   0.978  0.2270 -0.5291  0.1023
 8936TIP3   OH226771   2.235   3.547   3.253  0.4147  0.2061  0.3205
 8936TIP3    H126772   2.306   3.552   3.190  1.6718 -1.8088  1.4642
 8936TIP3    H226773   2.160   3.587   3.208  1.3093 -0.8905 -2.3457
 8937TIP3   OH226774   3.071   2.679   4.107 -0.0315  0.1316  0.0055
 8937TIP3    H126775   3.008   2.725   4.162 -0.7733  2.0786 -2.2720
 8937TIP3    H226776   3.141   2.743   4.092  0.3432 -0.4668 -0.9357
 8938TIP3   OH226777   3.260   6.197   1.568  0.7281  0.1481  0.3136
 8938TIP3    H126778   3.257   6.153   1.483 -1.0252 -0.3406  0.5870
 8938TIP3    H226779   3.239   6.128   1.631  1.4441  0.6282  1.0983
 8939TIP3   OH226780   5.112   1.996   1.760  0.3991 -0.0158 -1.1630
 8939TIP3    H126781   5.061   1.916   1.773 -1.8395  1.2325 -1.6495
 8939TIP3    H226782   5.104   2.014   1.666  3.1322 -0.5775 -1.5845
 8940TIP3   OH226783   3.478   2.445   4.703 -0.3146  0.1464  0.2692
 8940TIP3    H126784   3.481   2.364   4.652 -1.5463  0.2934 -0.0471
 8940TIP3    H226785   3.515   2.512   4.645  0.6452 -0.1518  0.5073
 8941TIP3   OH226786   5.144   2.426   2.997  0.4031 -0.8235  0.5281
 8941TIP3    H126787   5.096   2.497   3.038 -1.4632 -1.8018  0.1332
 8941TIP3    H226788   5.206   2.469   2.939 -0.9641  0.4897 -0.0142
 8942TIP3   OH226789   0.401   0.566   1.279  0.3412  0.5558  0.4116
 8942TIP3    H126790   0.430   0.638   1.223  1.7253  0.6428  1.2107
 8942TIP3    H226791   0.321   0.533   1.236 -0.8102  3.0671  0.4750
 8943TIP3   OH226792   2.454   2.584   1.476 -0.1406 -0.1982 -0.4102
 8943TIP3    H126793   2.417   2.521   1.413  0.4234 -0.6019 -0.3440
 8943TIP3    H226794   2.446   2.668   1.432  0.1026 -0.4566 -0.9600
 8944TIP3   OH226795   5.804   5.348   0.958  0.6568 -0.0179 -0.3686
 8944TIP3    H126796   5.718   5.383   0.935  1.4587  0.2966 -3.2618
 8944TIP3    H226797   5.798   5.332   1.052 -2.0965  1.2397 -0.2099
 8945TIP3   OH226798   5.621   1.082   0.244 -0.3672 -0.1110 -0.4397
 8945TIP3    H126799   5.684   1.064   0.175 -0.2054 -0.4006 -0.2191
 8945TIP3    H226800   5.642   1.171   0.273  1.8130 -1.1500  1.5503
 8946TIP3   OH226801   7.193   6.210   1.935 -0.7577 -0.3402 -0.0071
 8946TIP3    H126802   7.261   6.144   1.920 -0.0957  0.5743 -1.2434
 8946TIP3    H226803   7.126   6.164   1.984 -0.3533 -1.9806 -0.9045
 8947TIP3   OH226804   5.458   6.594   4.015 -0.4361  0.7217 -0.0526
 8947TIP3    H126805   5.382   6.542   4.039 -0.5995  0.4054 -1.1782
 8947TIP3    H226806   5.501   6.544   3.945  2.1659 -0.3063  2.0965
 8948TIP3   OH226807   5.757   1.728   3.544 -0.6606  0.3102 -0.4972
 8948TIP3    H126808   5.732   1.729   3.637  0.8861  0.2826 -0.0426
 8948TIP3    H226809   5.734   1.815   3.512 -1.1288  0.3500 -0.0658
 8949TIP3   OH226810   3.060   0.393   3.239  0.2593  0.0679  0.1722
 8949TIP3    H126811   3.076   0.326   3.172  0.5224 -0.6001  0.8829
 8949TIP3    H226812   2.969   0.418   3.227  0.0276 -0.7456  0.1693
 8950TIP3   OH226813   5.588   6.063   2.036 -0.0737  0.2111 -0.9723
 8950TIP3    H126814   5.641   5.987   2.012 -0.8859 -0.3240 -1.1198
 8950TIP3    H226815   5.600   6.073   2.130  1.5807  1.1205 -1.2211
 8951TIP3   OH226816   6.823   0.562   0.101  0.1573 -0.1885  0.0932
 8951TIP3    H126817   6.839   0.514   0.183 -0.5222 -1.0827 -0.2825
 8951TIP3    H226818   6.754   0.625   0.124 -0.0289 -0.4338  0.2156
 8952TIP3   OH226819   2.026   4.764   2.659 -0.8002 -0.1084 -0.1481
 8952TIP3    H126820   2.016   4.792   2.568 -1.3807 -0.3725 -0.1729
 8952TIP3    H226821   1.995   4.673   2.660  0.8605 -0.6939 -0.0290
 8953TIP3   OH226822   5.068   2.242   3.688  0.1621 -0.3051 -0.4123
 8953TIP3    H126823   5.105   2.327   3.711  0.4800 -0.1145 -1.5602
 8953TIP3    H226824   4.975   2.250   3.708  0.6049 -0.6316  2.0768
 8954TIP3   OH226825   4.612   4.399   4.870 -0.6721 -0.4107  0.5399
 8954TIP3    H126826   4.704   4.381   4.887 -0.4030 -1.0350 -1.3821
 8954TIP3    H226827   4.608   4.420   4.777 -2.4892 -0.4530  0.5696
 8955TIP3   OH226828   7.110   6.280   1.060 -0.3964  0.0256  0.2186
 8955TIP3    H126829   7.124   6.186   1.049  2.1436  0.3739 -0.1100
 8955TIP3    H226830   7.083   6.289   1.151 -0.2021 -0.9864  0.3946
 8956TIP3   OH226831   4.935   3.926   3.530 -0.3981  0.0364 -0.0911
 8956TIP3    H126832   4.863   3.887   3.482 -1.9673  1.5546  0.9350
 8956TIP3    H226833   4.899   3.946   3.617  1.5385 -0.0870  0.7982
 8957TIP3   OH226834   0.430   1.696   3.635  0.9405 -0.6487 -0.0944
 8957TIP3    H126835   0.400   1.605   3.639  0.3641 -0.4267  1.5524
 8957TIP3    H226836   0.522   1.691   3.661  0.7926 -0.7339  0.4396
 8958TIP3   OH226837   5.054   5.184   4.791  0.0729  0.3807  0.0583
 8958TIP3    H126838   5.100   5.231   4.722 -1.9402 -0.9472 -2.3529
 8958TIP3    H226839   5.000   5.250   4.834 -0.2577  0.8865 -1.1032
 8959TIP3   OH226840   2.870   1.449   4.648  0.5419 -0.4662  0.0448
 8959TIP3    H126841   2.943   1.397   4.681  2.7551  3.0952  1.2600
 8959TIP3    H226842   2.796   1.425   4.704  1.9850 -0.9144  1.8234
 8960TIP3   OH226843   3.803   3.098   0.173  0.3389 -0.4048 -0.2151
 8960TIP3    H126844   3.761   3.110   0.088 -3.2148  0.5179  1.4748
 8960TIP3    H226845   3.847   3.181   0.189  0.9315 -0.5417 -1.0822
 8961TIP3   OH226846   5.808   3.064   3.878  0.1897 -0.6037  0.4160
 8961TIP3    H126847   5.814   3.061   3.973 -0.9617 -0.2377  0.5093
 8961TIP3    H226848   5.810   3.157   3.856 -4.6487 -0.2279  0.5146
 8962TIP3   OH226849   0.850   2.500   5.233 -0.4839  0.4949  0.6431
 8962TIP3    H126850   0.880   2.591   5.231 -1.2364  0.7322 -0.2332
 8962TIP3    H226851   0.917   2.451   5.186 -0.3277  0.6696  0.6826
 8963TIP3   OH226852   2.132   1.886   0.207 -0.8925  0.4253  0.3539
 8963TIP3    H126853   2.075   1.894   0.131 -0.9904  0.6517  0.4474
 8963TIP3    H226854   2.156   1.794   0.210  0.2744  0.6668 -0.7936
 8964TIP3   OH226855   1.671   0.704   4.232  0.2514  0.0437  0.3950
 8964TIP3    H126856   1.710   0.783   4.270 -0.0883  0.7706 -0.7204
 8964TIP3    H226857   1.578   0.712   4.250  0.1485  0.1645 -0.1651
 8965TIP3   OH226858   0.450   0.655   4.695  0.1547  0.0681 -0.7978
 8965TIP3    H126859   0.358   0.671   4.715  0.0645 -0.1806 -0.9978
 8965TIP3    H226860   0.492   0.741   4.700 -0.0240  0.1325 -0.3827
 8966TIP3   OH226861   1.744   6.619   2.861  0.4765  0.3772  0.8091
 8966TIP3    H126862   1.683   6.562   2.909  1.7879 -1.1646  0.7302
 8966TIP3    H226863   1.800   6.656   2.929  0.5219  0.4563  0.7286
 8967TIP3   OH226864   3.542   6.570   2.874 -0.4038 -0.6473 -0.1961
 8967TIP3    H126865   3.450   6.592   2.858 -0.9886 -0.6176  2.5945
 8967TIP3    H226866   3.589   6.653   2.865 -1.2019  0.0382  1.4815
 8968TIP3   OH226867   5.640   1.900   2.427 -0.8709  0.6271 -0.4585
 8968TIP3    H126868   5.651   1.964   2.356 -1.4431  1.3725  0.1002
 8968TIP3    H226869   5.546   1.897   2.442 -0.7331  0.7451  0.4962
 8969TIP3   OH226870   1.134   4.871   1.080 -0.2453  0.2932 -0.2272
 8969TIP3    H126871   1.159   4.953   1.038 -0.4881  0.4789 -0.0079
 8969TIP3    H226872   1.061   4.839   1.027  1.7055 -1.3042 -2.1606
 8970TIP3   OH226873   2.648   4.383   1.939  0.7434 -0.0707 -0.1782
 8970TIP3    H126874   2.658   4.318   1.869 -0.4921 -1.4434  0.8596
 8970TIP3    H226875   2.669   4.335   2.019 -1.8997  0.2704  0.7948
 8971TIP3   OH226876   1.222   0.623   3.473 -0.2232 -0.1129  0.5796
 8971TIP3    H126877   1.255   0.711   3.457 -0.1276 -0.0010  1.3784
 8971TIP3    H226878   1.301   0.568   3.473 -0.2335 -0.1273  0.6073
 8972TIP3   OH226879   1.474   1.676   0.106 -0.1750 -0.1276  0.2606
 8972TIP3    H126880   1.380   1.685   0.124  0.3927  2.1317  2.7311
 8972TIP3    H226881   1.511   1.645   0.189  1.3006 -1.1220 -0.7133
 8973TIP3   OH226882   1.369   3.618   3.476  0.7998 -0.0784 -0.3939
 8973TIP3    H126883   1.302   3.683   3.497 -0.3315 -1.1952 -0.4597
 8973TIP3    H226884   1.438   3.633   3.540 -0.4851 -0.3190  1.1083
 8974TIP3   OH226885   6.597   4.567   5.257 -0.5889 -0.0194 -0.0354
 8974TIP3    H126886   6.541   4.572   5.180 -0.0962  0.6334 -0.3612
 8974TIP3    H226887   6.660   4.499   5.237 -0.6643 -0.0795 -0.0695
 8975TIP3   OH226888   3.080   3.450   1.232 -0.0961  0.1837 -1.0720
 8975TIP3    H126889   2.993   3.479   1.205 -0.5910 -0.8235 -0.6047
 8975TIP3    H226890   3.076   3.448   1.327  0.1810 -0.6166 -1.0678
 8976TIP3   OH226891   1.643   2.794   2.436 -0.0048 -0.1154  0.8415
 8976TIP3    H126892   1.583   2.829   2.502  0.2644 -0.3496  1.2165
 8976TIP3    H226893   1.729   2.825   2.464  0.0854 -0.0387  0.4802
 8977TIP3   OH226894   6.844   5.416   3.716  0.3651 -0.2699 -0.1283
 8977TIP3    H126895   6.896   5.442   3.793  1.8344  1.1980 -1.5414
 8977TIP3    H226896   6.902   5.359   3.666  1.4361  2.6183 -2.5228
 8978TIP3   OH226897   0.948   0.380   4.343  0.0913 -0.1411  0.3924
 8978TIP3    H126898   0.911   0.463   4.313  0.7954  0.2800  0.6646
 8978TIP3    H226899   0.986   0.400   4.428 -0.1509 -0.8614  0.6736
 8979TIP3   OH226900   2.235   0.374   4.113  0.3395  0.0601 -0.2891
 8979TIP3    H126901   2.145   0.343   4.122  0.3240  0.3861  0.8401
 8979TIP3    H226902   2.288   0.295   4.120  0.1594 -0.0716 -0.4139
 8980TIP3   OH226903   6.580   6.227   2.961  0.4525  0.0893 -0.0683
 8980TIP3    H126904   6.640   6.154   2.944  0.6630  0.2442  0.0025
 8980TIP3    H226905   6.564   6.223   3.056  0.8216  0.4071  0.0090
 8981TIP3   OH226906   4.604   0.242   4.131  0.1154 -0.0529  0.0688
 8981TIP3    H126907   4.592   0.166   4.074  0.9066  0.1006 -0.3079
 8981TIP3    H226908   4.561   0.314   4.086 -1.2403 -0.3963  0.7462
 8982TIP3   OH226909   2.569   5.890   2.207 -0.1119 -0.0879  0.4088
 8982TIP3    H126910   2.624   5.957   2.167  0.4660 -0.7522  0.0621
 8982TIP3    H226911   2.480   5.923   2.197  0.1665  0.6637  0.3248
 8983TIP3   OH226912   7.178   3.720   0.768  0.1481  0.5377 -0.5502
 8983TIP3    H126913   7.272   3.718   0.749  0.3723 -0.6741  0.5042
 8983TIP3    H226914   7.148   3.803   0.733  2.0495  1.9533  0.9360
 8984TIP3   OH226915   6.871   2.640   4.376  0.0579  0.1183 -0.7810
 8984TIP3    H126916   6.963   2.662   4.390 -0.0276  0.8133 -1.2328
 8984TIP3    H226917   6.842   2.604   4.460  0.7940 -0.3053 -0.7057
 8985TIP3   OH226918   4.813   5.103   4.484 -0.8669 -0.1838  0.1962
 8985TIP3    H126919   4.799   5.035   4.417 -0.3036 -0.3844  0.2704
 8985TIP3    H226920   4.843   5.179   4.435 -0.2907 -0.3836  0.2317
 8986TIP3   OH226921   4.195   2.924   5.466  0.6239 -0.9397  0.1058
 8986TIP3    H126922   4.101   2.942   5.460  0.1224 -2.5944  2.0798
 8986TIP3    H226923   4.207   2.842   5.419  0.8755 -1.2623  0.7204
 8987TIP3   OH226924   5.856   3.788   1.785  0.3815 -0.5175 -0.4229
 8987TIP3    H126925   5.950   3.795   1.770  0.2323  0.8154 -0.9043
 8987TIP3    H226926   5.846   3.798   1.880  0.5487  2.5155 -0.6262
 8988TIP3   OH226927   4.918   3.563   5.567  0.4974  0.0224 -0.1769
 8988TIP3    H126928   4.863   3.619   5.622  0.5807 -0.0763  0.0100
 8988TIP3    H226929   4.893   3.474   5.591  1.3791 -0.0432  0.5982
 8989TIP3   OH226930   2.643   3.618   5.217  0.3142 -0.0098 -0.0075
 8989TIP3    H126931   2.581   3.563   5.168  0.9279 -0.1965 -0.5878
 8989TIP3    H226932   2.594   3.646   5.294 -0.7293  0.4136 -0.7965
 8990TIP3   OH226933   3.008   4.618   4.336  0.1995  0.2479 -0.0415
 8990TIP3    H126934   2.976   4.702   4.371 -3.5384 -0.1208 -2.0009
 8990TIP3    H226935   3.097   4.636   4.308  0.0579  3.1218  1.0151
 8991TIP3   OH226936   1.654   4.761   5.607 -0.0645  0.0087 -0.5679
 8991TIP3    H126937   1.702   4.706   5.545 -1.0152 -2.4388  0.7479
 8991TIP3    H226938   1.588   4.804   5.554  2.0202  1.6653 -2.0077
 8992TIP3   OH226939   2.892   1.969   3.291  0.3227 -0.2992  0.4408
 8992TIP3    H126940   2.884   2.063   3.277  0.1353 -0.3849 -0.0691
 8992TIP3    H226941   2.810   1.933   3.256  0.6604 -0.7034  0.0484
 8993TIP3   OH226942   4.039   5.611   3.780 -0.2719 -0.0804 -0.3030
 8993TIP3    H126943   4.064   5.580   3.867  2.6577  0.8269 -0.7057
 8993TIP3    H226944   4.071   5.701   3.776  0.3900 -0.3437 -2.5459
 8994TIP3   OH226945   0.816   3.275   1.944  0.1198 -0.4143  0.3794
 8994TIP3    H126946   0.728   3.265   1.909 -0.9627 -0.1867  2.8627
 8994TIP3    H226947   0.839   3.188   1.975  1.0132 -0.5859 -0.7006
 8995TIP3   OH226948   2.270   4.508   4.630  0.3173 -0.3493  0.6595
 8995TIP3    H126949   2.298   4.535   4.542 -1.0659 -1.3218 -0.1022
 8995TIP3    H226950   2.333   4.551   4.689  1.3261  0.2427 -0.7946
 8996TIP3   OH226951   5.168   2.591   1.005 -0.5847  0.2809 -0.6200
 8996TIP3    H126952   5.230   2.645   0.956 -0.6731  1.0618  0.1096
 8996TIP3    H226953   5.083   2.635   0.993 -0.5096  0.8482  0.7188
 8997TIP3   OH226954   6.500   1.949   3.714 -0.5083  0.1794  1.0533
 8997TIP3    H126955   6.585   1.929   3.675 -0.7265 -1.1547  1.2000
 8997TIP3    H226956   6.449   1.987   3.642 -0.0848  0.1521  0.7324
 8998TIP3   OH226957   1.603   4.520   0.261 -0.1644  0.6545  0.0961
 8998TIP3    H126958   1.613   4.454   0.330 -1.9271 -0.2634 -0.4723
 8998TIP3    H226959   1.526   4.492   0.211  2.3998 -0.1491 -3.8491
 8999TIP3   OH226960   3.536   4.645   2.619 -0.0950  0.6418 -0.2636
 8999TIP3    H126961   3.511   4.637   2.711 -0.0507  1.4654 -0.1697
 8999TIP3    H226962   3.576   4.732   2.613 -1.6162  1.3071 -1.3939
 9000TIP3   OH226963   1.115   0.850   0.591  0.7310 -0.4214 -0.5274
 9000TIP3    H126964   1.049   0.821   0.654  0.6871  1.8819  0.5788
 9000TIP3    H226965   1.174   0.775   0.583  0.1253 -1.1754  1.4285
 9001TIP3   OH226966   0.612   5.133   4.307 -0.5562 -0.1911 -0.1798
 9001TIP3    H126967   0.622   5.191   4.383  0.1369  0.8248 -1.0238
 9001TIP3    H226968   0.594   5.047   4.345  0.7061  0.1010  1.1622
 9002TIP3   OH226969   3.506   5.407   2.930  0.1497 -0.5377 -0.4733
 9002TIP3    H126970   3.583   5.453   2.897  1.4615 -1.6254  0.9403
 9002TIP3    H226971   3.510   5.320   2.891  1.2053 -1.5220  1.6796
 9003TIP3   OH226972   0.664   5.543   0.812  0.1612 -0.4563  0.0359
 9003TIP3    H126973   0.665   5.633   0.781 -0.6842 -0.5743 -0.3540
 9003TIP3    H226974   0.740   5.537   0.871 -0.9611  1.0977  1.7737
 9004TIP3   OH226975   6.366   1.132   5.268  0.0306 -1.0995 -0.6175
 9004TIP3    H126976   6.439   1.070   5.260 -0.7606 -2.0855 -0.5127
 9004TIP3    H226977   6.353   1.164   5.179  0.6814 -0.7943 -0.6103
 9005TIP3   OH226978   6.217   1.022   3.970  0.0335  0.4439 -0.3231
 9005TIP3    H126979   6.126   0.996   3.986  0.2209 -0.0829 -0.0731
 9005TIP3    H226980   6.267   0.970   4.033  0.3734  1.9354  0.7106
 9006TIP3   OH226981   3.058   6.722   4.414 -0.3721 -0.8079  0.5566
 9006TIP3    H126982   3.147   6.689   4.412 -0.3654 -0.7740  0.2458
 9006TIP3    H226983   3.046   6.764   4.328 -1.0837 -1.8611  0.1227
 9007TIP3   OH226984   3.387   0.639   4.848  0.2986  0.1065 -0.1964
 9007TIP3    H126985   3.455   0.698   4.815  0.7495 -1.3911 -2.1308
 9007TIP3    H226986   3.428   0.594   4.922  0.1467  1.7309  0.9201
 9008TIP3   OH226987   1.480   4.921   0.964  0.2120 -0.3958 -0.2956
 9008TIP3    H126988   1.402   4.878   0.927  0.2376  0.0513 -0.8743
 9008TIP3    H226989   1.536   4.849   0.991 -0.9563 -0.7499  1.3388
 9009TIP3   OH226990   0.134   2.403   3.976 -0.3426 -0.0249  0.2836
 9009TIP3    H126991   0.190   2.385   3.900 -0.8347 -2.3860  0.3887
 9009TIP3    H226992   0.168   2.345   4.045  0.8877  2.9337  2.3734
 9010TIP3   OH226993   4.078   0.172   1.627  0.4905 -0.5305  0.4055
 9010TIP3    H126994   4.092   0.251   1.575  1.1063 -0.7491  0.2363
 9010TIP3    H226995   4.147   0.173   1.693 -1.0506  0.4287  2.0942
 9011TIP3   OH226996   1.506   3.088   3.894 -0.1673 -0.4937  0.2619
 9011TIP3    H126997   1.593   3.115   3.865  0.1985 -0.8247  1.0256
 9011TIP3    H226998   1.518   2.999   3.926 -0.7966 -0.5483  0.3633
 9012TIP3   OH226999   0.656   3.863   3.782  0.1979  0.6070 -0.1260
 9012TIP3    H127000   0.569   3.823   3.774 -0.3573  1.4526  1.2900
 9012TIP3    H227001   0.640   3.951   3.816  1.6108  0.7261  0.3194
 9013TIP3   OH227002   5.158   0.169   0.366  0.0572 -0.6548 -0.3995
 9013TIP3    H127003   5.152   0.074   0.366 -1.4160 -0.5887  0.0967
 9013TIP3    H227004   5.243   0.188   0.326  1.1653 -2.2075  1.0668
 9014TIP3   OH227005   3.770   3.628   3.281  0.5076  0.7470  0.6001
 9014TIP3    H127006   3.708   3.699   3.294 -1.3189 -0.3933 -1.1874
 9014TIP3    H227007   3.727   3.551   3.319  2.3403  0.4680  2.3120
 9015TIP3   OH227008   7.079   5.132   1.164  0.2385  0.5725 -0.1966
 9015TIP3    H127009   7.108   5.062   1.222 -0.7129  1.2531  1.1544
 9015TIP3    H227010   7.114   5.108   1.078 -1.0161 -2.1584 -0.0395
 9016TIP3   OH227011   2.540   1.236   5.873 -0.0105  0.6356 -0.1963
 9016TIP3    H127012   2.487   1.257   5.796 -0.2897  1.2338  0.1476
 9016TIP3    H227013   2.629   1.261   5.850 -0.1174  0.9403 -0.2782
 9017TIP3   OH227014   4.346   0.644   5.766  0.3182 -0.5004  0.1991
 9017TIP3    H127015   4.336   0.552   5.744  2.2608 -0.7948  0.3999
 9017TIP3    H227016   4.436   0.652   5.797  0.5558  1.6887 -0.8854
 9018TIP3   OH227017   4.300   5.368   5.294  0.0092 -0.3397 -0.1929
 9018TIP3    H127018   4.384   5.329   5.274  0.6945  1.3897 -0.8349
 9018TIP3    H227019   4.279   5.335   5.382  2.3622  0.8091  0.8885
 9019TIP3   OH227020   3.711   1.384   3.590  0.0632 -0.6524 -0.1181
 9019TIP3    H127021   3.690   1.337   3.509 -2.6699  2.1178 -1.2274
 9019TIP3    H227022   3.680   1.325   3.659 -0.6300 -1.7036 -1.2540
 9020TIP3   OH227023   1.793   3.926   5.413 -0.5102 -0.3518  0.0213
 9020TIP3    H127024   1.840   3.869   5.352  0.3305 -1.1073  1.3172
 9020TIP3    H227025   1.755   3.995   5.358 -1.0967 -1.8431 -1.5338
 9021TIP3   OH227026   6.530   3.150   3.395  0.0101 -0.3497 -0.6070
 9021TIP3    H127027   6.492   3.066   3.369 -1.5718  0.0153  0.3457
 9021TIP3    H227028   6.526   3.149   3.491  0.7546  0.4770 -0.5500
 9022TIP3   OH227029   4.647   2.774   2.521  0.1390  0.3614  0.2528
 9022TIP3    H127030   4.609   2.833   2.587  3.1979  1.4979  1.2099
 9022TIP3    H227031   4.673   2.697   2.571 -0.3027 -0.1250 -0.2588
 9023TIP3   OH227032   1.916   3.933   0.521 -0.4713 -0.3387 -0.2829
 9023TIP3    H127033   1.967   3.955   0.443 -1.1419 -0.4105 -0.7454
 9023TIP3    H227034   1.900   3.839   0.513 -0.3657 -0.3887  0.0540
 9024TIP3   OH227035   3.769   6.262   3.466 -0.3771 -0.1314  0.0908
 9024TIP3    H127036   3.680   6.280   3.495 -0.0743  2.2930 -0.2292
 9024TIP3    H227037   3.815   6.346   3.476  1.8126 -1.2439  0.0284
 9025TIP3   OH227038   2.079   3.818   3.606  0.9133  0.0279  0.7011
 9025TIP3    H127039   2.098   3.725   3.601 -1.3179 -0.4591  0.2436
 9025TIP3    H227040   2.080   3.847   3.514  1.8996  0.5503  0.8601
 9026TIP3   OH227041   5.164   4.055   4.131  0.5824  0.9661  0.1879
 9026TIP3    H127042   5.178   3.969   4.169 -1.5371 -0.1272 -1.3473
 9026TIP3    H227043   5.244   4.072   4.080  1.6523  0.6268  1.6953
 9027TIP3   OH227044   0.874   2.592   3.349 -0.6741 -0.0664  0.3300
 9027TIP3    H127045   0.843   2.675   3.386  1.1171  0.3845  0.9294
 9027TIP3    H227046   0.813   2.572   3.278 -1.8442  1.1324  0.9791
 9028TIP3   OH227047   0.865   6.337   3.922  0.0554 -0.1999  0.1101
 9028TIP3    H127048   0.839   6.301   4.006 -1.4367  0.4818 -0.0304
 9028TIP3    H227049   0.860   6.432   3.933  2.3158  0.0053 -0.0176
 9029TIP3   OH227050   1.310   0.505   5.667  0.1031 -0.3927  0.8828
 9029TIP3    H127051   1.321   0.565   5.593  3.2324 -1.7761  0.0480
 9029TIP3    H227052   1.262   0.430   5.631 -0.0713 -0.2353  0.7855
 9030TIP3   OH227053   0.747   0.169   5.304 -0.0867  0.6224  0.3210
 9030TIP3    H127054   0.727   0.143   5.393 -0.7823 -0.9481 -0.2639
 9030TIP3    H227055   0.673   0.223   5.277 -0.5568 -0.0553  0.2385
 9031TIP3   OH227056   2.491   5.082   4.896  0.1184 -0.1928  0.3498
 9031TIP3    H127057   2.563   5.046   4.946 -0.1415  0.3817  1.1474
 9031TIP3    H227058   2.422   5.097   4.960 -0.1953  0.6190 -0.1598
 9032TIP3   OH227059   2.399   0.702   3.702  0.1928 -0.4271  0.4354
 9032TIP3    H127060   2.375   0.729   3.790  0.2369  0.8404  0.0775
 9032TIP3    H227061   2.390   0.781   3.649 -0.3404 -1.2835 -0.8061
 9033TIP3   OH227062   0.291   5.197   5.075 -0.1712  0.0908  1.0806
 9033TIP3    H127063   0.387   5.200   5.084  0.0986  0.9781 -1.2907
 9033TIP3    H227064   0.269   5.105   5.086  1.1236 -0.3085  0.5743
 9034TIP3   OH227065   2.554   4.281   3.088  0.3495  0.8374  0.1500
 9034TIP3    H127066   2.600   4.364   3.105 -0.2199  1.4959 -1.2849
 9034TIP3    H227067   2.508   4.262   3.169  0.1835  2.1509  0.3895
 9035TIP3   OH227068   2.438   1.348   3.059 -0.7370  0.2613 -0.1646
 9035TIP3    H127069   2.456   1.437   3.087  0.5408  0.3216 -1.0654
 9035TIP3    H227070   2.433   1.353   2.964  0.9514 -0.8392 -0.3647
 9036TIP3   OH227071   1.174   6.589   5.826  0.0884  0.4460 -0.2398
 9036TIP3    H127072   1.182   6.522   5.894  1.0909  0.0420 -0.7351
 9036TIP3    H227073   1.264   6.620   5.813  0.0958 -0.3088 -2.1874
 9037TIP3   OH227074   5.904   1.479   0.357 -0.6715  0.6125 -0.4761
 9037TIP3    H127075   5.995   1.456   0.337 -1.1505 -1.0879 -0.8384
 9037TIP3    H227076   5.891   1.564   0.315  0.9620  1.2645  0.2317
 9038TIP3   OH227077   6.505   2.293   0.057  0.3763  0.5901  0.3317
 9038TIP3    H127078   6.420   2.329   0.033 -0.9757 -1.0590  2.2994
 9038TIP3    H227079   6.515   2.216   0.002 -0.5942 -0.5784  1.7028
 9039TIP3   OH227080   1.187   0.268   1.498 -0.0229  0.1683  0.6751
 9039TIP3    H127081   1.222   0.208   1.564  0.4644 -0.9627 -0.5627
 9039TIP3    H227082   1.092   0.256   1.503  0.0573 -0.5735  0.5745
 9040TIP3   OH227083   4.297   4.020   5.577 -0.3210  0.1641  0.5990
 9040TIP3    H127084   4.242   4.016   5.498 -1.5720 -0.9681  1.4919
 9040TIP3    H227085   4.288   3.934   5.617 -1.3771  1.3272  3.0687
 9041TIP3   OH227086   7.014   4.270   4.108 -0.2027  0.1104 -0.3609
 9041TIP3    H127087   7.073   4.320   4.051 -0.2159 -0.3830 -0.8144
 9041TIP3    H227088   6.934   4.259   4.056 -0.3673 -0.0014 -0.0893
 9042TIP3   OH227089   5.933   6.118   0.190 -0.2740  0.1771 -0.1103
 9042TIP3    H127090   5.999   6.053   0.164  1.9517  1.2065  2.5276
 9042TIP3    H227091   5.903   6.089   0.276  0.6997  2.4896  1.1000
 9043TIP3   OH227092   0.558   4.998   5.819  0.1550  0.3108 -0.4678
 9043TIP3    H127093   0.478   4.960   5.784 -1.3909  1.9720  1.0004
 9043TIP3    H227094   0.559   4.971   5.911  0.4243  1.5860 -0.0774
 9044TIP3   OH227095   3.421   5.452   2.421  0.7862 -0.1706  0.2259
 9044TIP3    H127096   3.513   5.476   2.415  0.8586 -0.5757 -0.2929
 9044TIP3    H227097   3.419   5.359   2.399  0.1529  0.0175 -0.5399
 9045TIP3   OH227098   1.735   4.238   3.876  0.8032  0.0846 -0.4636
 9045TIP3    H127099   1.756   4.324   3.911 -0.9278 -0.6255  2.7770
 9045TIP3    H227100   1.788   4.177   3.929 -0.3022 -0.9775 -0.5249
 9046TIP3   OH227101   6.925   3.849   2.347  0.1928 -0.2645  0.0544
 9046TIP3    H127102   6.897   3.785   2.282 -0.2206  0.4189 -0.4632
 9046TIP3    H227103   6.846   3.868   2.398  0.4338 -0.5402  0.5335
 9047TIP3   OH227104   1.479   4.425   2.507  0.1124  0.2553  0.0651
 9047TIP3    H127105   1.429   4.370   2.447 -0.0863  1.5654 -1.0150
 9047TIP3    H227106   1.527   4.485   2.450 -0.3646  1.7839  1.2163
 9048TIP3   OH227107   4.754   4.090   1.470 -0.1358  0.5277  0.3655
 9048TIP3    H127108   4.731   4.074   1.379 -0.7310 -0.9043  0.7393
 9048TIP3    H227109   4.843   4.127   1.466 -0.2901  0.8057 -0.7963
 9049TIP3   OH227110   4.570   2.397   4.867 -0.3949 -0.0483  0.5887
 9049TIP3    H127111   4.581   2.302   4.876 -0.7086  0.0689  2.5964
 9049TIP3    H227112   4.513   2.421   4.940 -2.0887  1.4013 -1.1171
 9050TIP3   OH227113   0.247   2.429   1.394 -0.3030 -0.4140  0.1729
 9050TIP3    H127114   0.316   2.363   1.393  0.2744  0.1648 -1.4404
 9050TIP3    H227115   0.166   2.380   1.377  0.1052 -0.7371 -0.9256
 9051TIP3   OH227116   4.570   2.165   3.006 -1.0869 -0.3089 -0.1292
 9051TIP3    H127117   4.520   2.115   3.071  0.7280 -1.1315  0.7010
 9051TIP3    H227118   4.612   2.098   2.952 -1.8508  0.3739 -1.6177
 9052TIP3   OH227119   4.460   3.907   5.337 -0.4597  0.2308  0.0426
 9052TIP3    H127120   4.467   3.943   5.426 -2.9737 -0.0161  0.4270
 9052TIP3    H227121   4.510   3.825   5.341  1.9196  1.5959  0.3129
 9053TIP3   OH227122   1.299   3.342   4.760 -0.4496  0.1932  0.4092
 9053TIP3    H127123   1.387   3.320   4.730 -1.0763 -1.8623 -0.0854
 9053TIP3    H227124   1.308   3.428   4.801  1.5085  0.6459 -0.8244
 9054TIP3   OH227125   6.877   6.187   4.809 -0.0557  0.2633 -0.3723
 9054TIP3    H127126   6.801   6.239   4.782  1.0216  0.7700 -2.6482
 9054TIP3    H227127   6.918   6.240   4.878 -0.9041  0.6983 -0.1740
 9055TIP3   OH227128   5.256   0.088   2.898  0.0361 -0.0890  0.3991
 9055TIP3    H127129   5.315   0.021   2.932  0.1905 -0.1684 -0.0134
 9055TIP3    H227130   5.289   0.170   2.934 -0.8283 -0.3396  1.8220
 9056TIP3   OH227131   7.177   6.657   1.264 -0.0201  0.1329 -0.1615
 9056TIP3    H127132   7.224   6.612   1.194 -1.5288 -0.2870 -0.9367
 9056TIP3    H227133   7.187   6.750   1.244 -0.2723  0.0221 -0.8298
 9057TIP3   OH227134   0.734   5.624   3.717 -0.1885  0.2719  0.1741
 9057TIP3    H127135   0.651   5.578   3.729  0.2895 -0.2654  1.6430
 9057TIP3    H227136   0.731   5.696   3.781  0.4516  0.2787  0.2044
 9058TIP3   OH227137   4.902   4.082   2.435  0.6120  0.1152  0.0677
 9058TIP3    H127138   4.909   4.070   2.530 -1.5204  1.1235  0.4364
 9058TIP3    H227139   4.992   4.094   2.405  1.4510 -1.4708  1.7516
 9059TIP3   OH227140   2.117   0.748   1.729  0.1013  0.5903 -0.0992
 9059TIP3    H127141   2.161   0.776   1.649  0.1662  0.1923 -0.2095
 9059TIP3    H227142   2.085   0.660   1.709 -2.0793  1.4296 -0.5375
 9060TIP3   OH227143   3.855   6.431   3.217  0.1295  0.3291 -0.5223
 9060TIP3    H127144   3.925   6.413   3.280  1.1700  0.9917 -1.4437
 9060TIP3    H227145   3.774   6.418   3.266  0.8602 -1.5778  0.2825
 9061TIP3   OH227146   1.749   1.200   1.352  0.2291 -0.0351  0.1393
 9061TIP3    H127147   1.724   1.140   1.422  0.0483  0.5028  0.5459
 9061TIP3    H227148   1.725   1.155   1.271  0.4743 -0.6781  0.4234
 9062TIP3   OH227149   3.138   3.761   3.347 -0.2667  0.1130  0.7155
 9062TIP3    H127150   3.190   3.685   3.369  0.0358 -0.0625 -0.5179
 9062TIP3    H227151   3.047   3.735   3.364 -0.0630 -0.0362  1.5973
 9063TIP3   OH227152   5.112   0.960   4.701 -0.2855  0.7301 -0.3309
 9063TIP3    H127153   5.174   1.024   4.736 -0.3063  0.5773 -0.0146
 9063TIP3    H227154   5.117   0.886   4.761 -0.0138  0.2948 -0.8892
 9064TIP3   OH227155   0.885   1.771   1.778 -0.0102 -0.3866 -0.4946
 9064TIP3    H127156   0.817   1.781   1.712 -0.3576  0.7738  0.0053
 9064TIP3    H227157   0.918   1.860   1.793  0.0443 -0.6086  0.9059
 9065TIP3   OH227158   7.107   5.529   5.008  0.2671  0.1410 -0.1834
 9065TIP3    H127159   7.055   5.584   5.067 -0.7170 -0.1662 -0.7548
 9065TIP3    H227160   7.046   5.500   4.941  1.0308 -0.7604 -0.5167
 9066TIP3   OH227161   4.518   1.821   3.359  0.3736  0.2594 -0.2119
 9066TIP3    H127162   4.613   1.833   3.364  0.5319 -0.4488 -1.2381
 9066TIP3    H227163   4.491   1.871   3.281 -0.6624  3.4331  1.9648
 9067TIP3   OH227164   3.974   3.409   4.788  0.2784 -0.2825  0.4364
 9067TIP3    H127165   3.976   3.375   4.699 -2.4008 -3.9220  1.5533
 9067TIP3    H227166   3.886   3.447   4.797  1.1161  1.6198  1.0923
 9068TIP3   OH227167   1.206   3.792   0.553  0.6571  0.2005 -0.2410
 9068TIP3    H127168   1.159   3.741   0.487 -0.8873  0.8337  0.3224
 9068TIP3    H227169   1.227   3.874   0.508  0.2369  0.3451 -0.1868
 9069TIP3   OH227170   5.832   5.124   0.788  0.2366  0.0278 -1.0466
 9069TIP3    H127171   5.836   5.157   0.877 -0.3201 -2.4730 -0.0097
 9069TIP3    H227172   5.786   5.192   0.739  1.5398  1.9481  0.2782
 9070TIP3   OH227173   4.413   2.914   2.241  0.1105  0.5599 -0.2622
 9070TIP3    H127174   4.385   2.968   2.167 -0.5903 -0.6402 -0.9146
 9070TIP3    H227175   4.343   2.924   2.306  0.7021  1.5748  0.2390
 9071TIP3   OH227176   1.968   1.120   0.896  0.1076  0.2694 -0.2163
 9071TIP3    H127177   1.960   1.214   0.880  0.4422  0.4824  0.7685
 9071TIP3    H227178   1.906   1.079   0.835 -0.4467  1.1620 -0.2657
 9072TIP3   OH227179   4.237   2.483   0.137 -0.0973 -0.0820 -0.3930
 9072TIP3    H127180   4.153   2.523   0.159  0.4305 -0.0594  1.9059
 9072TIP3    H227181   4.298   2.556   0.130 -0.3186 -0.0584 -2.5393
 9073TIP3   OH227182   0.349   3.874   1.326  0.9198 -0.1876  0.9433
 9073TIP3    H127183   0.290   3.877   1.402  0.8867 -0.5764  0.9332
 9073TIP3    H227184   0.312   3.806   1.270  0.6112  0.4987  0.3010
 9074TIP3   OH227185   2.794   6.323   4.790 -0.3106 -0.1639 -0.2674
 9074TIP3    H127186   2.736   6.377   4.736 -1.2839 -0.7891  0.1311
 9074TIP3    H227187   2.882   6.342   4.756 -0.7456  0.6874 -0.9804
 9075TIP3   OH227188   6.359   2.806   1.078  0.1077  0.3159 -0.3845
 9075TIP3    H127189   6.379   2.714   1.058 -1.1079 -0.0909  0.1557
 9075TIP3    H227190   6.369   2.812   1.173  0.6863  0.8841 -0.4763
 9076TIP3   OH227191   1.594   5.532   5.657 -0.4197  0.7282 -0.2090
 9076TIP3    H127192   1.649   5.587   5.601 -0.2785  0.9654  0.1556
 9076TIP3    H227193   1.655   5.488   5.715 -0.5138 -0.0205 -0.6673
 9077TIP3   OH227194   2.244   1.396   3.966  0.0231 -0.2623  0.8008
 9077TIP3    H127195   2.311   1.408   3.899 -0.7277  0.7938  0.1986
 9077TIP3    H227196   2.252   1.473   4.023 -0.6511 -0.1184  0.7208
 9078TIP3   OH227197   5.194   1.520   5.374  0.5763  0.4196 -0.0840
 9078TIP3    H127198   5.155   1.485   5.294  0.4505 -0.4589  0.3506
 9078TIP3    H227199   5.277   1.559   5.345  0.4524  0.2595 -0.6679
 9079TIP3   OH227200   4.459   3.793   3.338 -0.1416  0.1473  0.3296
 9079TIP3    H127201   4.450   3.888   3.350 -0.9375  0.4776 -2.1264
 9079TIP3    H227202   4.385   3.756   3.386  0.6968  0.6668  2.0772
 9080TIP3   OH227203   1.733   0.441   4.884 -0.0220  0.0692 -0.3319
 9080TIP3    H127204   1.756   0.446   4.791 -1.3169  0.3778 -0.6568
 9080TIP3    H227205   1.711   0.531   4.908 -2.1026 -0.3537 -0.4163
 9081TIP3   OH227206   3.656   3.659   3.004 -0.2168  0.4367 -0.2896
 9081TIP3    H127207   3.709   3.617   2.936  0.4215  0.5094  0.1592
 9081TIP3    H227208   3.690   3.625   3.086 -0.7765  0.5941  0.0143
 9082TIP3   OH227209   0.445   4.156   4.074  0.4009 -0.5110  0.3216
 9082TIP3    H127210   0.447   4.252   4.068  0.7775 -0.5494 -0.3451
 9082TIP3    H227211   0.510   4.135   4.140 -0.0534 -0.2822  0.8440
 9083TIP3   OH227212   0.996   2.529   2.120  0.4918  0.3442 -0.2668
 9083TIP3    H127213   1.036   2.559   2.201  1.1044 -1.5061  0.1707
 9083TIP3    H227214   1.018   2.436   2.115  3.5135  0.9740 -4.2644
 9084TIP3   OH227215   4.396   0.692   1.720  0.1364 -0.1006  0.4919
 9084TIP3    H127216   4.454   0.631   1.674  0.8038  1.2798 -0.5797
 9084TIP3    H227217   4.441   0.711   1.802  0.2045 -0.5982  0.5719
 9085TIP3   OH227218   5.144   5.635   4.133  0.2918 -0.2074  0.7504
 9085TIP3    H127219   5.112   5.546   4.121 -0.5437 -0.3584  3.4740
 9085TIP3    H227220   5.083   5.674   4.195  0.2924  2.5086 -0.8099
 9086TIP3   OH227221   2.665   3.749   1.866  0.1362  0.3746 -0.0832
 9086TIP3    H127222   2.630   3.831   1.901 -0.4865  0.2145 -0.3106
 9086TIP3    H227223   2.710   3.709   1.941  0.9702  1.2000 -0.1327
 9087TIP3   OH227224   5.845   1.015   0.088  0.2364 -0.0862  0.2245
 9087TIP3    H127225   5.869   0.923   0.086  0.0777 -0.1440  0.8602
 9087TIP3    H227226   5.872   1.049   0.003  0.3772 -0.6977  0.0245
 9088TIP3   OH227227   6.895   5.324   2.126 -0.4730  0.1902  0.0561
 9088TIP3    H127228   6.905   5.233   2.098 -1.1968  0.3879 -0.8901
 9088TIP3    H227229   6.843   5.365   2.058 -0.5945  1.2002  0.7266
 9089TIP3   OH227230   2.500   2.327   2.696 -0.3676  0.0067  0.6032
 9089TIP3    H127231   2.473   2.301   2.608  1.1829  1.6228 -0.4259
 9089TIP3    H227232   2.436   2.394   2.721  1.2738  2.3852 -1.0114
 9090TIP3   OH227233   5.015   6.589   2.466 -0.2923 -0.3185 -0.4743
 9090TIP3    H127234   4.949   6.655   2.444 -0.6197 -0.7211 -0.7164
 9090TIP3    H227235   5.098   6.637   2.464 -0.5869  0.2247 -0.0154
 9091TIP3   OH227236   5.155   0.420   1.725  0.0853  0.3869  0.1285
 9091TIP3    H127237   5.117   0.378   1.803  0.4184 -0.6600 -0.2503
 9091TIP3    H227238   5.230   0.469   1.759  0.9472 -1.0173  0.3502
 9092TIP3   OH227239   6.875   2.706   1.269  0.1322 -0.2945 -0.1856
 9092TIP3    H127240   6.935   2.632   1.277  0.9013  0.3594  0.3517
 9092TIP3    H227241   6.890   2.756   1.350 -1.3226 -0.2457  0.0678
 9093TIP3   OH227242   2.621   0.209   4.959 -0.4473 -0.2870  0.6738
 9093TIP3    H127243   2.567   0.133   4.983 -0.5398  0.1745  2.0242
 9093TIP3    H227244   2.585   0.281   5.010  0.0608  0.5259 -0.0909
 9094TIP3   OH227245   1.354   6.011   0.443 -0.1045 -0.0911  0.0628
 9094TIP3    H127246   1.322   6.063   0.517  2.2271  1.1138  0.3148
 9094TIP3    H227247   1.387   5.931   0.483  0.1662  0.0926  0.2132
 9095TIP3   OH227248   6.961   5.914   4.408 -0.1658 -0.2478  0.4068
 9095TIP3    H127249   6.962   6.008   4.427 -1.4367 -0.1987  0.3426
 9095TIP3    H227250   6.892   5.905   4.342  1.0856 -1.0081 -0.8677
 9096TIP3   OH227251   6.764   1.528   3.520  0.3855 -0.0391 -0.0104
 9096TIP3    H127252   6.739   1.611   3.479 -0.2272  0.3442  1.1106
 9096TIP3    H227253   6.687   1.473   3.512  0.4362 -0.1375  0.1814
 9097TIP3   OH227254   0.347   1.482   1.663  0.0940 -0.1348 -0.0320
 9097TIP3    H127255   0.267   1.507   1.617 -1.1488 -0.2579  1.9422
 9097TIP3    H227256   0.327   1.398   1.702  1.1486 -0.0952  0.6370
 9098TIP3   OH227257   2.100   6.035   2.939  0.1235 -0.2083  0.1086
 9098TIP3    H127258   2.005   6.041   2.945  0.1286 -1.2089  2.5166
 9098TIP3    H227259   2.126   6.111   2.888 -2.0815 -1.1647 -2.7281
 9099TIP3   OH227260   5.420   0.199   0.276  0.7272 -0.4719  0.0741
 9099TIP3    H127261   5.460   0.203   0.189  1.5319 -0.5999  0.4342
 9099TIP3    H227262   5.461   0.271   0.325  0.2905 -0.4106  0.3559
 9100TIP3   OH227263   2.941   2.328   4.135 -0.4912  0.1470 -0.1802
 9100TIP3    H127264   3.033   2.312   4.153 -0.6305 -0.5590 -0.0923
 9100TIP3    H227265   2.909   2.377   4.211 -0.2404  0.2184 -0.1217
 9101TIP3   OH227266   5.201   5.233   4.516 -0.0789 -0.4712  0.6060
 9101TIP3    H127267   5.225   5.175   4.444  4.6171  0.1304  1.3463
 9101TIP3    H227268   5.162   5.309   4.473  0.7480 -0.9839 -1.1376
 9102TIP3   OH227269   6.560   6.135   0.644  0.5343  0.5141  0.3614
 9102TIP3    H127270   6.537   6.046   0.617  0.8744  0.1996  1.0794
 9102TIP3    H227271   6.488   6.190   0.611  0.8441  0.1357 -1.0028
 9103TIP3   OH227272   0.074   4.774   0.531  0.2826  0.0834  0.0550
 9103TIP3    H127273   0.152   4.818   0.498  1.2009 -1.5827 -0.1215
 9103TIP3    H227274   0.002   4.833   0.509  1.3027  0.8819 -1.3233
 9104TIP3   OH227275   1.020   0.443   3.621  0.2839 -0.2066 -0.1310
 9104TIP3    H127276   1.086   0.506   3.592 -0.1247  0.0470 -0.5275
 9104TIP3    H227277   0.986   0.405   3.540  1.7834 -2.2727  0.1445
 9105TIP3   OH227278   5.557   0.963   3.120  0.2958  0.3350 -0.0304
 9105TIP3    H127279   5.646   0.968   3.155 -0.0828 -3.6226  2.0699
 9105TIP3    H227280   5.503   1.005   3.186  0.3756  0.4376 -0.0302
 9106TIP3   OH227281   0.897   0.077   3.303  0.1618  0.6447 -0.1342
 9106TIP3    H127282   0.966   0.120   3.354 -0.0414 -0.5234  1.2195
 9106TIP3    H227283   0.945   0.019   3.243  0.4219  2.4449 -1.7565
 9107TIP3   OH227284   6.950   3.366   3.785 -0.4724 -0.3513  0.5364
 9107TIP3    H127285   6.923   3.354   3.876  0.1907 -0.9011  0.6666
 9107TIP3    H227286   7.027   3.310   3.775  1.0718  1.6433  0.3900
 9108TIP3   OH227287   0.327   0.115   1.642  0.3905 -0.6695  0.0029
 9108TIP3    H127288   0.256   0.051   1.632  0.7039 -1.0143 -0.0501
 9108TIP3    H227289   0.348   0.111   1.735 -0.3184  0.1511  0.2091
 9109TIP3   OH227290   2.755   1.206   0.774 -0.0380 -0.2109 -0.0787
 9109TIP3    H127291   2.782   1.177   0.861  0.1878  1.9784  0.6345
 9109TIP3    H227292   2.663   1.230   0.784 -0.1249 -0.3260 -0.5579
 9110TIP3   OH227293   5.379   2.125   4.026 -0.5199  0.3611  0.1582
 9110TIP3    H127294   5.331   2.119   3.943 -0.0118  1.0214 -0.1912
 9110TIP3    H227295   5.393   2.033   4.051 -0.5220  0.1479 -0.5798
 9111TIP3   OH227296   6.855   5.019   4.387  0.4163 -0.1709 -0.2572
 9111TIP3    H127297   6.896   4.949   4.336  2.3027  0.1551  0.7357
 9111TIP3    H227298   6.877   5.000   4.478 -0.2536  0.9448  0.1667
 9112TIP3   OH227299   4.694   3.111   2.651 -0.4748 -0.1388 -0.2917
 9112TIP3    H127300   4.637   3.188   2.653  0.1422  0.3154  1.2067
 9112TIP3    H227301   4.653   3.050   2.712 -0.1828 -0.4147 -0.3738
 9113TIP3   OH227302   6.162   1.958   4.878 -0.8819 -0.0651 -0.3014
 9113TIP3    H127303   6.101   1.968   4.805 -0.6776  2.0171 -0.2472
 9113TIP3    H227304   6.176   2.047   4.910 -0.9024 -0.8893  2.2561
 9114TIP3   OH227305   3.118   3.927   5.195  0.2312 -0.2302  0.3525
 9114TIP3    H127306   3.024   3.915   5.210  0.5975 -2.7316  1.3373
 9114TIP3    H227307   3.131   4.021   5.194 -2.3884  0.2066 -0.6347
 9115TIP3   OH227308   3.438   5.165   1.585 -0.0352 -0.5177 -0.2941
 9115TIP3    H127309   3.416   5.142   1.675  1.2268 -0.2361  0.1141
 9115TIP3    H227310   3.371   5.227   1.558  0.6494  0.9284  1.1586
 9116TIP3   OH227311   6.803   1.359   4.785  0.2358 -0.0777  0.2240
 9116TIP3    H127312   6.736   1.294   4.804  0.0207  0.2401  0.5475
 9116TIP3    H227313   6.805   1.416   4.862  1.6460 -0.7292  0.7129
 9117TIP3   OH227314   3.605   4.446   2.076  0.0458  0.2428  0.5513
 9117TIP3    H127315   3.518   4.485   2.073  0.2072  0.5923 -2.6632
 9117TIP3    H227316   3.616   4.404   1.991  3.3999  1.1087  0.4237
 9118TIP3   OH227317   5.919   0.304   4.510  0.4933 -0.3399 -0.0620
 9118TIP3    H127318   5.973   0.300   4.589 -0.6003 -0.3697  0.7046
 9118TIP3    H227319   5.913   0.398   4.489  1.6832 -0.4015 -0.7674
 9119TIP3   OH227320   4.501   3.173   4.327 -0.4043 -0.1971 -0.0073
 9119TIP3    H127321   4.509   3.109   4.256  0.6134 -0.6252  0.4735
 9119TIP3    H227322   4.407   3.179   4.343 -0.5204 -1.7098  0.0430
 9120TIP3   OH227323   3.211   1.109   4.441 -0.1023 -0.1691  0.1897
 9120TIP3    H127324   3.159   1.158   4.377  0.4231  2.0550  1.3947
 9120TIP3    H227325   3.299   1.106   4.404 -0.4721 -1.7303 -0.6564
 9121TIP3   OH227326   0.438   2.483   4.548 -0.0763  0.7410  0.3742
 9121TIP3    H127327   0.515   2.435   4.516  0.1596  1.1086  0.3837
 9121TIP3    H227328   0.363   2.435   4.511  0.0631 -0.8924  2.0708
 9122TIP3   OH227329   3.270   2.127   5.491 -0.1059 -0.0894  0.1305
 9122TIP3    H127330   3.322   2.207   5.496  0.6369 -0.5867  0.5957
 9122TIP3    H227331   3.200   2.139   5.555 -1.1753  0.9918 -1.1860
 9123TIP3   OH227332   5.089   4.685   3.289  0.5922 -0.4530  0.2575
 9123TIP3    H127333   5.178   4.714   3.309 -0.1103  1.1637  1.2035
 9123TIP3    H227334   5.046   4.681   3.375 -1.0577  1.6506 -0.3877
 9124TIP3   OH227335   6.200   1.676   1.494 -0.7482  0.0787 -0.2754
 9124TIP3    H127336   6.268   1.665   1.560  0.0701 -0.4839 -1.1893
 9124TIP3    H227337   6.239   1.733   1.428 -1.8708  1.3830  0.1078
 9125TIP3   OH227338   2.257   2.699   2.266 -0.1903 -0.1661  0.3548
 9125TIP3    H127339   2.252   2.662   2.354  0.9403 -1.0193  0.0859
 9125TIP3    H227340   2.184   2.760   2.261 -1.9951 -2.1424  0.9580
 9126TIP3   OH227341   3.432   5.354   5.002 -0.0273 -0.1326 -0.7881
 9126TIP3    H127342   3.429   5.281   5.064  0.6456  1.0988  0.7922
 9126TIP3    H227343   3.496   5.328   4.937 -1.2002 -1.7299 -1.3676
 9127TIP3   OH227344   0.836   5.955   2.439  0.3619  0.1646  0.0477
 9127TIP3    H127345   0.756   5.986   2.480 -0.5272 -2.7966  0.7771
 9127TIP3    H227346   0.903   5.963   2.506 -0.4810 -1.9695  1.2507
 9128TIP3   OH227347   2.264   1.759   2.594  0.0427 -0.3292 -0.0706
 9128TIP3    H127348   2.283   1.853   2.590 -2.3131  0.2210 -0.0929
 9128TIP3    H227349   2.201   1.745   2.523  0.4954 -1.9842 -0.1778
 9129TIP3   OH227350   3.009   0.589   2.557 -0.4491 -0.2156  0.5233
 9129TIP3    H127351   3.027   0.670   2.510 -1.3665  1.1057  2.2974
 9129TIP3    H227352   3.093   0.563   2.594 -0.2871  0.3712  0.5799
 9130TIP3   OH227353   4.447   5.927   3.942 -0.1646 -0.1519  0.7433
 9130TIP3    H127354   4.506   5.993   3.904 -0.4483 -0.8682 -1.0346
 9130TIP3    H227355   4.383   5.910   3.874  0.3845 -2.8867  0.7974
 9131TIP3   OH227356   2.750   3.760   2.385 -0.1796 -0.2705 -0.0162
 9131TIP3    H127357   2.827   3.735   2.334  0.7828 -1.0117  1.7096
 9131TIP3    H227358   2.784   3.819   2.452 -1.4101  0.6902 -0.2046
 9132TIP3   OH227359   4.770   1.681   1.550  0.3435 -0.1600  0.2183
 9132TIP3    H127360   4.732   1.605   1.508 -1.8334  1.0560 -0.1460
 9132TIP3    H227361   4.776   1.658   1.643 -1.0654 -0.5001  0.2379
 9133TIP3   OH227362   2.413   2.258   2.448  0.0834 -0.0175 -0.1947
 9133TIP3    H127363   2.372   2.180   2.485  0.5871 -0.6065 -0.8394
 9133TIP3    H227364   2.366   2.272   2.365  1.0803 -0.6347 -0.8868
 9134TIP3   OH227365   7.067   4.086   5.816  0.2772 -0.2312  0.5613
 9134TIP3    H127366   7.045   4.178   5.802  0.9403 -0.1929 -0.2517
 9134TIP3    H227367   7.005   4.057   5.883 -0.3235  0.6464  0.4005
 9135TIP3   OH227368   7.098   1.765   3.792  0.5897  0.0348  0.4055
 9135TIP3    H127369   7.152   1.788   3.867  0.9187 -0.7654  0.4230
 9135TIP3    H227370   7.131   1.680   3.763 -0.1315 -0.0928 -0.0843
 9136TIP3   OH227371   4.072   6.128   4.620 -0.1278  0.0067  0.0192
 9136TIP3    H127372   4.100   6.155   4.707 -0.1625 -1.2759  0.4390
 9136TIP3    H227373   4.086   6.033   4.618 -0.7851 -0.0824 -1.1262
 9137TIP3   OH227374   1.020   3.475   3.005 -0.3132  0.3247  0.0030
 9137TIP3    H127375   1.035   3.429   3.088  0.4333  0.5054 -0.0184
 9137TIP3    H227376   0.966   3.415   2.954 -0.6669  0.1510  0.5673
 9138TIP3   OH227377   0.405   5.660   0.903  0.3466  0.1216 -1.0189
 9138TIP3    H127378   0.441   5.572   0.915 -0.1953 -0.1407 -1.2729
 9138TIP3    H227379   0.477   5.710   0.864  1.5175  0.4922  1.4121
 9139TIP3   OH227380   0.336   0.617   5.281  0.1075  0.0381 -0.4052
 9139TIP3    H127381   0.276   0.654   5.217  0.4046 -1.5356 -1.6819
 9139TIP3    H227382   0.334   0.678   5.355 -1.0683  1.3553 -1.4656
 9140TIP3   OH227383   2.884   4.779   2.643 -0.1406  0.0714  0.4808
 9140TIP3    H127384   2.890   4.799   2.549  1.5959  0.1118  0.5734
 9140TIP3    H227385   2.883   4.684   2.647  2.9576 -0.0605  0.4914
 9141TIP3   OH227386   3.459   1.348   3.755 -0.1627  0.3747 -0.3020
 9141TIP3    H127387   3.452   1.261   3.716  0.8670  0.2433 -0.1966
 9141TIP3    H227388   3.368   1.378   3.761 -0.7981 -1.7245  2.0178
 9142TIP3   OH227389   0.992   3.531   3.395  0.2806 -0.5750  0.4721
 9142TIP3    H127390   0.975   3.459   3.456 -2.3383 -0.9210 -0.5349
 9142TIP3    H227391   1.047   3.493   3.327  0.5842 -1.0629  0.9811
 9143TIP3   OH227392   6.928   6.360   0.675 -0.0664  0.7735  0.1756
 9143TIP3    H127393   6.963   6.272   0.665  0.1078  0.8668 -0.0363
 9143TIP3    H227394   6.851   6.363   0.619  0.5832  1.1167 -0.7270
 9144TIP3   OH227395   0.721   2.819   3.465  0.6315  0.5530  0.9062
 9144TIP3    H127396   0.637   2.864   3.459  0.6021  0.3486 -0.6699
 9144TIP3    H227397   0.780   2.884   3.503  0.1517  1.2878  0.4262
 9145TIP3   OH227398   0.373   0.709   4.981 -0.2883 -0.0940  0.3352
 9145TIP3    H127399   0.287   0.687   5.017 -0.1637 -1.5448 -0.1602
 9145TIP3    H227400   0.366   0.801   4.956 -1.2017  0.2309  1.6530
 9146TIP3   OH227401   4.540   3.345   0.415  0.1813 -0.5020 -0.7629
 9146TIP3    H127402   4.554   3.331   0.322  2.3034 -0.4181 -0.4944
 9146TIP3    H227403   4.543   3.440   0.426  1.0745 -0.5574 -0.4654
 9147TIP3   OH227404   3.796   1.417   0.666  0.2630 -0.1136 -0.0479
 9147TIP3    H127405   3.835   1.348   0.718 -0.6907 -1.2889 -0.8451
 9147TIP3    H227406   3.778   1.487   0.728  0.7531 -0.7867  0.8705
 9148TIP3   OH227407   4.897   1.344   2.230  0.6715 -0.1138 -0.3853
 9148TIP3    H127408   4.835   1.409   2.261 -1.3469 -1.6304 -1.0522
 9148TIP3    H227409   4.959   1.334   2.302 -0.0596  1.1552  0.4651
 9149TIP3   OH227410   3.991   2.529   4.961  0.0346 -0.4374 -0.2286
 9149TIP3    H127411   4.021   2.503   4.874  2.5984  2.6078 -0.4174
 9149TIP3    H227412   4.064   2.508   5.019 -0.3921  0.3997  0.6320
 9150TIP3   OH227413   3.596  -0.002   3.667  0.0282 -0.5397 -0.2611
 9150TIP3    H127414   3.576  -0.000   3.761  2.1808 -0.6256  0.2514
 9150TIP3    H227415   3.591   0.090   3.640  0.3927 -0.3878  0.1771
 9151TIP3   OH227416   6.118   2.589   4.860  0.0011  0.5362 -0.1121
 9151TIP3    H127417   6.176   2.554   4.792 -1.5359 -0.0739 -1.1440
 9151TIP3    H227418   6.133   2.684   4.857  0.3120  0.4685 -0.9468
 9152TIP3   OH227419   0.037   0.700   1.289  0.2932  0.3025  0.3679
 9152TIP3    H127420   0.069   0.619   1.248 -0.8448  0.5840 -1.1957
 9152TIP3    H227421  -0.028   0.670   1.352  1.7389 -0.1173  1.7111
 9153TIP3   OH227422   3.097   2.934   1.402 -0.7638 -0.1083  0.4865
 9153TIP3    H127423   3.060   2.847   1.385  0.3303 -0.2643 -1.3791
 9153TIP3    H227424   3.183   2.917   1.441 -0.9173  0.1603  0.9472
 9154TIP3   OH227425   6.684   6.708   0.585 -0.3787  0.0433  0.1266
 9154TIP3    H127426   6.720   6.784   0.631 -0.0757 -0.4457  0.7057
 9154TIP3    H227427   6.601   6.690   0.629  0.1207 -0.6994  0.7979
 9155TIP3   OH227428   5.451   2.506   0.670 -0.1747  0.5296 -0.4957
 9155TIP3    H127429   5.463   2.539   0.581 -0.4320  0.9673 -0.3719
 9155TIP3    H227430   5.458   2.583   0.726  0.8851  0.1204 -0.0512
 9156TIP3   OH227431   3.509   0.902   1.134  0.6007  0.0939 -0.8446
 9156TIP3    H127432   3.596   0.934   1.156  0.3150 -0.6519  1.6285
 9156TIP3    H227433   3.514   0.807   1.145 -0.7424  0.1250  0.2890
 9157TIP3   OH227434   0.925   2.947   2.729  0.1649 -0.4412 -0.0478
 9157TIP3    H127435   0.986   2.995   2.673  2.2264 -2.5134  0.3052
 9157TIP3    H227436   0.972   2.935   2.811 -1.0793 -1.3295  0.5696
 9158TIP3   OH227437   4.957   1.419   4.142 -0.1927  0.2581  0.2877
 9158TIP3    H127438   4.998   1.333   4.130  1.0318  0.8858 -0.1339
 9158TIP3    H227439   4.891   1.423   4.072  0.2258 -0.0485 -0.1313
 9159TIP3   OH227440   4.658   4.156   2.674  0.5249 -0.3188  0.2746
 9159TIP3    H127441   4.703   4.076   2.648  0.7549  0.0301 -0.4162
 9159TIP3    H227442   4.629   4.196   2.592  2.9486  1.7862  0.2799
 9160TIP3   OH227443   1.190   6.699   1.618 -0.1201  0.2406 -0.2642
 9160TIP3    H127444   1.258   6.762   1.595 -0.7864  1.5898  1.2524
 9160TIP3    H227445   1.238   6.619   1.642  0.6625 -1.0129 -5.0629
 9161TIP3   OH227446   3.020   1.794   3.958  0.1575 -0.5117  0.5111
 9161TIP3    H127447   3.044   1.729   4.025  0.1300 -0.3727  0.6556
 9161TIP3    H227448   2.989   1.741   3.884 -0.0471 -0.6573  0.7011
 9162TIP3   OH227449   0.092   2.380   5.144 -0.6809  0.2083 -0.4206
 9162TIP3    H127450   0.062   2.435   5.071  0.9231  1.2974 -0.3124
 9162TIP3    H227451   0.147   2.437   5.196  1.4325 -1.5940 -0.5337
 9163TIP3   OH227452   0.832   4.874   0.660  0.2652  0.0406  0.6512
 9163TIP3    H127453   0.783   4.919   0.729  1.7441 -0.0541  1.8350
 9163TIP3    H227454   0.868   4.797   0.704 -0.3260 -1.0753 -0.7536
 9164TIP3   OH227455   0.845   3.560   0.959  0.1465  0.0223  0.0426
 9164TIP3    H127456   0.936   3.537   0.945 -0.1322 -0.5236 -1.0033
 9164TIP3    H227457   0.803   3.478   0.985  0.0631  0.4029  1.1610
 9165TIP3   OH227458   2.989   4.362   5.293 -0.4724 -0.1371 -0.4277
 9165TIP3    H127459   2.951   4.365   5.381 -0.4310 -0.3099 -0.4041
 9165TIP3    H227460   2.915   4.374   5.234 -0.8102 -1.9616 -0.4413
 9166TIP3   OH227461   4.675   3.617   3.134 -0.5143 -0.1352  0.2464
 9166TIP3    H127462   4.754   3.650   3.093 -0.5961  0.0803  0.2601
 9166TIP3    H227463   4.668   3.526   3.104 -0.0509 -0.2779  0.5638
 9167TIP3   OH227464   1.360   2.748   5.347 -0.1037 -0.1744  0.3686
 9167TIP3    H127465   1.356   2.676   5.410 -0.4942 -0.3296  0.1764
 9167TIP3    H227466   1.316   2.713   5.269 -0.9050  0.4957  0.5055
 9168TIP3   OH227467   5.480   0.589   2.460 -0.1083  0.3247 -0.1973
 9168TIP3    H127468   5.433   0.646   2.521  1.4561  0.8811  0.5659
 9168TIP3    H227469   5.422   0.515   2.447 -0.7828  0.5042  1.4735
 9169TIP3   OH227470   7.125   3.889   4.975 -0.0920  0.2871 -0.4609
 9169TIP3    H127471   7.199   3.938   5.012  2.0821 -2.0897 -1.3849
 9169TIP3    H227472   7.095   3.834   5.047  1.6689 -1.5685 -1.0529
 9170TIP3   OH227473   0.810   0.593   5.889  0.3227  0.6531 -0.5522
 9170TIP3    H127474   0.904   0.607   5.882  0.2694  1.3525  0.1057
 9170TIP3    H227475   0.772   0.653   5.824  0.2842  1.0530 -0.1641
 9171TIP3   OH227476   1.917   5.840   3.842 -0.3546 -0.8048 -0.1393
 9171TIP3    H127477   1.949   5.750   3.832 -0.9174 -1.0701  0.3865
 9171TIP3    H227478   1.828   5.838   3.805  0.0355 -0.1865 -1.1693
 9172TIP3   OH227479   1.232   3.539   1.189 -0.0162 -0.2840 -0.3074
 9172TIP3    H127480   1.322   3.568   1.174  0.3123 -0.9819  0.2188
 9172TIP3    H227481   1.202   3.510   1.103 -0.2697  1.3121 -0.7917
 9173TIP3   OH227482   2.454   3.446   1.623  0.1973  0.2034 -0.5579
 9173TIP3    H127483   2.460   3.467   1.716 -1.1614 -0.6406 -0.2474
 9173TIP3    H227484   2.490   3.523   1.578 -1.5045  1.7487  0.5954
 9174TIP3   OH227485   0.327   1.852   2.578 -0.3412  0.4347  0.4483
 9174TIP3    H127486   0.368   1.798   2.645 -1.6606 -0.8268  0.2776
 9174TIP3    H227487   0.396   1.866   2.513  0.3095 -0.1946  0.9885
 9175TIP3   OH227488   5.519   1.237   5.743 -0.3416  0.9272 -0.2757
 9175TIP3    H127489   5.610   1.261   5.725  0.7676 -2.3748  0.2300
 9175TIP3    H227490   5.491   1.187   5.667 -0.5318 -0.8852  0.9190
 9176TIP3   OH227491   3.342   6.335   4.489 -0.0438  0.2534 -1.0376
 9176TIP3    H127492   3.338   6.282   4.568  0.2337 -0.3768 -1.4378
 9176TIP3    H227493   3.333   6.272   4.417  1.2070  0.6117 -1.5382
 9177TIP3   OH227494   0.710   4.086   0.077  0.0090 -0.1092 -0.1354
 9177TIP3    H127495   0.740   4.152   0.140 -0.9352  0.5120 -0.3127
 9177TIP3    H227496   0.656   4.135   0.015 -0.3976 -0.9894 -0.4864
 9178TIP3   OH227497   6.405   4.480   1.771  0.2653 -0.2838 -0.1075
 9178TIP3    H127498   6.466   4.428   1.719  0.9407  1.0997 -0.7710
 9178TIP3    H227499   6.319   4.461   1.736  0.6864  0.4303 -1.6100
 9179TIP3   OH227500   3.662   1.285   0.921  0.2430 -0.2749  0.4491
 9179TIP3    H127501   3.663   1.340   1.000 -0.1047  0.3022  0.0569
 9179TIP3    H227502   3.614   1.337   0.856  0.7123 -0.6471 -0.2109
 9180TIP3   OH227503   1.516   0.630   3.433 -0.0888 -0.2537  0.1022
 9180TIP3    H127504   1.510   0.693   3.505 -1.2437 -0.9396  0.6470
 9180TIP3    H227505   1.544   0.682   3.358  0.6427  0.5762  0.9241
 9181TIP3   OH227506   3.172   2.594   0.833  0.0439  0.6731 -0.4507
 9181TIP3    H127507   3.094   2.575   0.885  0.8831 -0.8131  0.3247
 9181TIP3    H227508   3.160   2.685   0.804 -1.6802  0.6652  0.1264
 9182TIP3   OH227509   4.533   1.351   5.785 -0.2919  0.6903 -0.4163
 9182TIP3    H127510   4.604   1.286   5.783 -0.5333  0.4147 -0.1787
 9182TIP3    H227511   4.454   1.298   5.791 -0.5028  1.0072 -0.4261
 9183TIP3   OH227512   6.751   6.491   4.545  0.0168 -0.0605 -0.5721
 9183TIP3    H127513   6.832   6.540   4.527 -0.7237  1.0293 -1.0563
 9183TIP3    H227514   6.685   6.558   4.558 -1.3506 -0.8933 -2.6658
 9184TIP3   OH227515   6.868   0.809   5.601  0.3221 -0.3193  0.0916
 9184TIP3    H127516   6.844   0.901   5.593  0.0133 -0.5299 -1.9422
 9184TIP3    H227517   6.950   0.801   5.553  0.1831 -1.1697 -0.0183
 9185TIP3   OH227518   6.320   0.545   0.327  0.0913  0.0668  0.1747
 9185TIP3    H127519   6.316   0.578   0.237 -0.7214 -1.2512 -0.2962
 9185TIP3    H227520   6.228   0.537   0.354  0.2576 -1.5137  0.3648
 9186TIP3   OH227521   1.341   4.544   5.462  0.0576 -0.1039  0.4116
 9186TIP3    H127522   1.427   4.503   5.472 -0.5537 -1.6358 -0.3133
 9186TIP3    H227523   1.307   4.549   5.551  0.9222  0.6178  0.7197
 9187TIP3   OH227524   1.525   1.269   0.245 -0.2637  0.1065  0.4944
 9187TIP3    H127525   1.592   1.338   0.249 -0.7242  0.6524 -0.7374
 9187TIP3    H227526   1.575   1.188   0.249  0.3069  0.4813  1.7075
 9188TIP3   OH227527   5.738   5.348   3.828  0.1126 -0.2279  0.1346
 9188TIP3    H127528   5.761   5.430   3.872  0.1512 -0.4036  0.4477
 9188TIP3    H227529   5.690   5.298   3.894  2.8487 -1.8100  1.0830
 9189TIP3   OH227530   5.495   2.261   5.861  0.7755 -0.4978  0.1898
 9189TIP3    H127531   5.448   2.190   5.817  1.6876 -0.3343 -1.0754
 9189TIP3    H227532   5.433   2.334   5.863  1.0775 -0.1369 -1.8761
 9190TIP3   OH227533   2.854   0.878   0.830 -0.0927  0.7195 -0.2260
 9190TIP3    H127534   2.917   0.808   0.814 -1.1515 -0.4539  0.5610
 9190TIP3    H227535   2.906   0.948   0.871  0.5405 -0.6775  1.4956
 9191TIP3   OH227536   5.221   2.992   0.222 -0.2072  0.2269 -0.4062
 9191TIP3    H127537   5.205   2.898   0.215 -1.7851  0.5064 -0.8909
 9191TIP3    H227538   5.200   3.026   0.135  0.0320  1.0797 -0.1370
 9192TIP3   OH227539   2.376   2.001   3.838  0.0450  0.3215  0.0837
 9192TIP3    H127540   2.407   1.916   3.869 -0.4047 -0.1034 -0.6005
 9192TIP3    H227541   2.447   2.062   3.860 -0.2152  0.0362  1.8493
 9193TIP3   OH227542   6.254   6.157   3.810  0.1606 -0.2095  0.3398
 9193TIP3    H127543   6.230   6.222   3.877  1.5654  0.8222 -0.1157
 9193TIP3    H227544   6.177   6.101   3.803 -1.4394  1.8574  0.2160
 9194TIP3   OH227545   6.930   5.624   1.671 -0.0225  0.4792 -0.0361
 9194TIP3    H127546   6.974   5.683   1.609  1.8034 -1.1401 -0.3714
 9194TIP3    H227547   6.982   5.545   1.670 -2.1482 -1.0277  0.7353
 9195TIP3   OH227548   3.854   1.050   3.546 -0.2128 -0.3603  0.4828
 9195TIP3    H127549   3.810   1.013   3.470 -1.0673 -1.4208  1.4690
 9195TIP3    H227550   3.840   1.144   3.539 -0.3595 -0.4584 -0.6190
 9196TIP3   OH227551   6.648   5.031   2.187 -0.3452  0.7097 -0.0981
 9196TIP3    H127552   6.726   5.049   2.239  0.1273  1.2519 -0.9685
 9196TIP3    H227553   6.665   4.947   2.145 -0.5659  0.4552  0.3138
 9197TIP3   OH227554   0.406   1.938   3.225  0.1312 -0.5283 -0.1418
 9197TIP3    H127555   0.430   1.897   3.308  2.0346  0.8984  0.1038
 9197TIP3    H227556   0.439   2.028   3.232 -0.1580 -0.1959 -2.2215
 9198TIP3   OH227557   6.487   0.284   3.811 -0.0814  0.1227 -0.0058
 9198TIP3    H127558   6.567   0.310   3.857 -0.1742 -0.3854  0.4399
 9198TIP3    H227559   6.509   0.202   3.767 -0.6081 -0.4749  0.8200
 9199TIP3   OH227560   0.407   4.917   1.530  0.6087  0.0807 -0.0742
 9199TIP3    H127561   0.360   4.844   1.571  2.0876 -1.0637 -0.3578
 9199TIP3    H227562   0.497   4.886   1.519  2.4618  3.3379  3.5587
 9200TIP3   OH227563   5.064   5.527   0.158  0.7258  0.4224  0.2975
 9200TIP3    H127564   5.032   5.611   0.127  0.6654 -0.1232 -1.2247
 9200TIP3    H227565   5.158   5.538   0.165  0.8049  0.4174 -0.6263
 9201TIP3   OH227566   3.067   3.935   1.303  0.0735 -0.7180  0.2554
 9201TIP3    H127567   3.089   3.987   1.381 -2.7822  0.2773  0.5005
 9201TIP3    H227568   2.989   3.885   1.329 -0.2611 -1.2259 -1.6161
 9202TIP3   OH227569   6.923   4.534   2.427  0.3119 -0.2132  0.5280
 9202TIP3    H127570   6.838   4.491   2.415 -0.0608  0.9666 -1.4731
 9202TIP3    H227571   6.966   4.527   2.342  0.6150  2.4717  0.3811
 9203TIP3   OH227572   5.593   2.367   0.398 -0.1254 -0.2078 -0.0471
 9203TIP3    H127573   5.565   2.282   0.366 -3.1872 -0.1198  2.0079
 9203TIP3    H227574   5.535   2.430   0.355  1.2825  0.7809 -0.6017
 9204TIP3   OH227575   5.888   2.415   3.165 -0.0794  0.0424  0.5501
 9204TIP3    H127576   5.811   2.408   3.222 -0.7841 -0.7087 -0.4446
 9204TIP3    H227577   5.938   2.335   3.182 -1.0754 -0.9693 -0.9106
 9205TIP3   OH227578   3.610   6.525   3.369 -0.2989 -0.4286 -0.1916
 9205TIP3    H127579   3.550   6.560   3.303  0.8435  0.1306 -0.9716
 9205TIP3    H227580   3.669   6.598   3.389 -0.2937 -0.7562  1.0672
 9206TIP3   OH227581   2.740   4.697   1.370 -0.2570  0.2380 -0.7021
 9206TIP3    H127582   2.679   4.767   1.345  0.3042  0.7476 -0.6737
 9206TIP3    H227583   2.826   4.730   1.344  0.7916  1.9459  3.9623
 9207TIP3   OH227584   6.476   1.277   2.391  0.7311  0.0405  0.2215
 9207TIP3    H127585   6.437   1.191   2.375  1.9951 -0.4955 -0.1188
 9207TIP3    H227586   6.528   1.265   2.470  0.1478  0.7780  0.7340
 9208TIP3   OH227587   6.208   3.932   5.102 -0.7850  0.0452  0.1970
 9208TIP3    H127588   6.154   4.010   5.091  1.1070  1.3944  0.0824
 9208TIP3    H227589   6.231   3.905   5.013  1.2511  1.3715  0.2559
 9209TIP3   OH227590   3.861   0.170   2.988  0.2714  0.1051  0.3326
 9209TIP3    H127591   3.953   0.170   2.961 -0.2516 -1.9982 -1.8749
 9209TIP3    H227592   3.863   0.147   3.081  2.0062  2.6136  1.0160
 9210TIP3   OH227593   5.849   2.068   0.040  0.4212 -0.5372 -0.2467
 9210TIP3    H127594   5.885   2.019  -0.034  3.0260 -1.0278  1.2344
 9210TIP3    H227595   5.916   2.134   0.059  0.2795 -1.0445  2.2600
 9211TIP3   OH227596   0.944   2.274   5.079 -0.0459 -0.6769  0.2229
 9211TIP3    H127597   0.972   2.242   5.164 -0.3621 -0.2201  0.5013
 9211TIP3    H227598   0.971   2.206   5.018  0.4940 -0.8441  0.6436
 9212TIP3   OH227599   2.520   0.546   5.526 -0.2468  0.3642 -0.0726
 9212TIP3    H127600   2.520   0.642   5.529  1.7739  0.4199 -0.5180
 9212TIP3    H227601   2.581   0.520   5.594  0.4089 -0.5369 -0.9737
 9213TIP3   OH227602   1.024   5.790   5.847 -0.4176 -0.3907 -0.1262
 9213TIP3    H127603   1.009   5.737   5.769 -2.5759  0.4146 -0.3369
 9213TIP3    H227604   0.939   5.792   5.891  0.1860  1.0246  1.0531
 9214TIP3   OH227605   3.418   2.765   1.946 -0.2152  0.1392  0.1963
 9214TIP3    H127606   3.493   2.820   1.971 -1.0978  0.8585  1.3486
 9214TIP3    H227607   3.343   2.805   1.990 -1.0703 -1.3467  0.1441
 9215TIP3   OH227608   4.060   3.977   0.083 -0.2121  0.2628  0.4021
 9215TIP3    H127609   4.066   3.882   0.078 -0.3992  0.2707  0.0426
 9215TIP3    H227610   4.044   4.005  -0.007 -0.5895  0.6041  0.5722
 9216TIP3   OH227611   4.674   1.345   0.827 -0.3312  0.0898  0.0587
 9216TIP3    H127612   4.743   1.279   0.835 -0.1969  0.3425  1.3290
 9216TIP3    H227613   4.593   1.298   0.847 -0.2259  0.3020  1.0488
 9217TIP3   OH227614   5.186   6.195   5.202 -0.0030 -0.1101 -0.0450
 9217TIP3    H127615   5.273   6.158   5.218  0.0107  0.2255  0.7218
 9217TIP3    H227616   5.193   6.237   5.117  1.0608  1.2064  0.6481
 9218TIP3   OH227617   6.345   4.854   2.241  0.2238  0.3214 -0.0866
 9218TIP3    H127618   6.318   4.917   2.308 -0.3191  1.5571 -1.4031
 9218TIP3    H227619   6.266   4.840   2.188  0.3763 -1.3606  0.0658
 9219TIP3   OH227620   5.243   5.416   3.481 -0.3359  0.1640 -0.4880
 9219TIP3    H127621   5.332   5.391   3.457  0.9856  0.8797  3.1494
 9219TIP3    H227622   5.226   5.495   3.430  1.2448  0.2404 -0.9552
 9220TIP3   OH227623   2.491   4.855   3.934 -0.0812 -0.0333 -0.1800
 9220TIP3    H127624   2.508   4.867   4.028 -1.9984 -1.4369  0.4182
 9220TIP3    H227625   2.400   4.881   3.924 -0.2946 -1.1676 -1.3890
 9221TIP3   OH227626   5.401   5.239   4.712  0.4014 -0.0889  0.6279
 9221TIP3    H127627   5.420   5.145   4.703 -2.1887 -0.6700  0.4826
 9221TIP3    H227628   5.332   5.256   4.648  2.3290  2.4918 -0.9639
 9222TIP3   OH227629   6.141   3.837   1.736  0.4017  0.5868 -0.2475
 9222TIP3    H127630   6.184   3.834   1.822  1.5060  1.5495 -0.7331
 9222TIP3    H227631   6.155   3.926   1.705 -3.6078  1.6112  0.3256
 9223TIP3   OH227632   1.772   4.013   4.965  0.0057 -0.0898 -0.5169
 9223TIP3    H127633   1.771   3.941   4.902  0.3871 -0.2949 -0.2894
 9223TIP3    H227634   1.856   4.056   4.950  1.0484 -1.3926  1.2503
 9224TIP3   OH227635   2.880   1.068   2.210  0.2998 -0.0284 -0.5025
 9224TIP3    H127636   2.924   1.139   2.257 -1.6206  1.4676 -0.8496
 9224TIP3    H227637   2.859   1.004   2.278 -0.0960  0.8766  0.2530
 9225TIP3   OH227638   5.363   5.400   1.204  0.4561 -0.5292  0.5046
 9225TIP3    H127639   5.437   5.340   1.214 -0.1181 -1.2063  0.7787
 9225TIP3    H227640   5.296   5.348   1.159 -0.2362 -0.2596  1.2089
 9226TIP3   OH227641   2.259   5.114   2.198 -0.4630  0.5605 -0.9439
 9226TIP3    H127642   2.341   5.153   2.228 -1.6770  1.2734  1.7064
 9226TIP3    H227643   2.286   5.035   2.150  1.7758  1.1833 -0.8235
 9227TIP3   OH227644   3.173   6.487   1.278 -0.5203 -0.6267  0.0532
 9227TIP3    H127645   3.121   6.407   1.286  1.1135 -1.8978 -1.4363
 9227TIP3    H227646   3.235   6.482   1.351 -0.2890 -0.8163 -0.1569
 9228TIP3   OH227647   4.655   4.197   3.188  0.4410  0.4159 -0.8776
 9228TIP3    H127648   4.730   4.140   3.201  0.3202  0.1262 -1.4395
 9228TIP3    H227649   4.666   4.233   3.100  0.4293  1.1338 -0.5959
 9229TIP3   OH227650   6.099   5.164   4.456 -0.8301  0.5670 -0.4850
 9229TIP3    H127651   6.048   5.242   4.476  0.6672  1.9383 -1.6902
 9229TIP3    H227652   6.189   5.196   4.448  0.0624 -1.5380  0.3767
 9230TIP3   OH227653   2.736   4.308   2.557 -0.5898  0.0634  0.2125
 9230TIP3    H127654   2.722   4.328   2.464 -0.6047  0.2045  0.2459
 9230TIP3    H227655   2.773   4.388   2.593  2.1481 -0.8653 -0.2905
 9231TIP3   OH227656   0.958   2.085   3.811 -0.2765  0.1188  0.3618
 9231TIP3    H127657   0.910   2.050   3.886  1.4950  0.0417  1.5129
 9231TIP3    H227658   0.911   2.165   3.788 -1.2952 -0.2577  1.0540
 9232TIP3   OH227659   3.808   6.023   1.671 -0.2590 -0.6105 -0.9435
 9232TIP3    H127660   3.725   6.009   1.627 -0.6749  2.2513 -1.2570
 9232TIP3    H227661   3.873   6.029   1.601 -0.5632  1.6838 -1.0851
 9233TIP3   OH227662   6.689   1.520   5.574 -0.5124 -0.7113  0.1972
 9233TIP3    H127663   6.675   1.492   5.483 -0.8772  1.6442 -0.5305
 9233TIP3    H227664   6.603   1.550   5.603  0.0444  0.6541  0.5176
 9234TIP3   OH227665   5.782   3.415   2.436 -0.1679  0.9349  0.3069
 9234TIP3    H127666   5.800   3.375   2.350 -2.6774  0.6022 -0.1371
 9234TIP3    H227667   5.856   3.473   2.451 -0.2380  1.9877 -2.7326
 9235TIP3   OH227668   1.760   3.062   5.355 -0.0825  0.1648  0.6458
 9235TIP3    H127669   1.791   3.140   5.309  0.4257  0.2036  1.0507
 9235TIP3    H227670   1.839   3.011   5.372 -0.4647 -0.7078 -0.0908
 9236TIP3   OH227671   5.351   4.861   3.630 -0.2796 -0.2303  0.0802
 9236TIP3    H127672   5.390   4.946   3.650 -0.6316  0.2100 -0.9922
 9236TIP3    H227673   5.258   4.874   3.648 -0.6743  0.3068 -2.0395
 9237TIP3   OH227674   2.819   0.907   5.616  0.4499 -0.0269 -0.2647
 9237TIP3    H127675   2.872   0.863   5.683  0.9665  0.0394 -0.6257
 9237TIP3    H227676   2.729   0.886   5.640  0.4818  1.8002  1.7278
 9238TIP3   OH227677   5.367   1.507   1.608  0.0434  0.3828 -0.1227
 9238TIP3    H127678   5.444   1.481   1.558  0.6403 -1.0982  1.4939
 9238TIP3    H227679   5.294   1.463   1.563  0.0653  1.8175 -1.6765
 9239TIP3   OH227680   5.082   6.445   1.175  0.2984 -0.3219 -0.0447
 9239TIP3    H127681   5.119   6.362   1.145 -0.0551 -1.5638  2.6639
 9239TIP3    H227682   5.027   6.422   1.249 -1.8054  2.0858 -0.6983
 9240TIP3   OH227683   4.272   5.898   3.746  0.2494 -0.3351  0.1904
 9240TIP3    H127684   4.265   5.962   3.675  2.1328  1.8167  1.7735
 9240TIP3    H227685   4.304   5.819   3.703  0.3569  0.5698 -1.5124
 9241TIP3   OH227686   5.881   5.257   5.211  0.2715 -0.2823 -0.3374
 9241TIP3    H127687   5.912   5.322   5.147 -1.0540  1.6766  0.9023
 9241TIP3    H227688   5.798   5.226   5.175 -0.3109  0.5757  0.2273
 9242TIP3   OH227689   2.597   2.161   3.905  0.1760 -0.4747  0.3023
 9242TIP3    H127690   2.666   2.182   3.842 -0.5390  0.0765 -0.3185
 9242TIP3    H227691   2.554   2.245   3.923 -2.0647 -1.1177 -1.4213
 9243TIP3   OH227692   5.081   4.987   4.108 -0.5411  0.3291  0.4696
 9243TIP3    H127693   5.138   5.056   4.143 -0.2460  1.2680 -1.7283
 9243TIP3    H227694   5.138   4.910   4.102 -0.6298  0.0971  2.0708
 9244TIP3   OH227695   6.238   2.014   2.687 -0.2522  0.3201 -0.4076
 9244TIP3    H127696   6.228   2.044   2.778 -0.8206 -1.6421  0.2354
 9244TIP3    H227697   6.148   2.000   2.657 -0.1070  1.8045 -1.6113
 9245TIP3   OH227698   0.509   0.748  -0.015 -0.3738 -0.1304 -0.4749
 9245TIP3    H127699   0.543   0.831  -0.049 -2.9552  0.0515 -2.9653
 9245TIP3    H227700   0.465   0.772   0.067 -0.6793  0.9172 -0.9260
 9246TIP3   OH227701   5.213   2.382   0.738 -0.0373  0.3269  0.2888
 9246TIP3    H127702   5.290   2.382   0.682 -1.2319 -0.6217 -1.4554
 9246TIP3    H227703   5.184   2.473   0.740 -0.0930  0.3509 -0.8746
 9247TIP3   OH227704   6.499   2.690   3.010  0.0712 -0.1174  0.7307
 9247TIP3    H127705   6.525   2.642   2.931 -0.0371 -0.1943  0.7431
 9247TIP3    H227706   6.525   2.634   3.082  0.5875  0.1518  0.7656
 9248TIP3   OH227707   6.254   5.808   2.612 -0.1102  0.7503 -0.4267
 9248TIP3    H127708   6.230   5.716   2.622  1.0505  0.4956  0.1040
 9248TIP3    H227709   6.286   5.835   2.698 -0.3693  1.6395 -0.5911
 9249TIP3   OH227710   3.751   3.608   2.251  0.0059  0.1735  0.3217
 9249TIP3    H127711   3.677   3.626   2.310 -1.4923  3.1260 -2.1892
 9249TIP3    H227712   3.782   3.694   2.224  0.7464 -0.9996 -3.0349
 9250TIP3   OH227713   6.773   0.608   1.621  0.3672 -0.2032 -0.4898
 9250TIP3    H127714   6.723   0.529   1.637  0.4728 -0.6967 -2.3277
 9250TIP3    H227715   6.776   0.653   1.706 -1.4099 -1.1549  0.1233
 9251TIP3   OH227716   2.502   6.779   0.004 -0.2213  0.6503  0.1903
 9251TIP3    H127717   2.578   6.749   0.053  0.5113 -1.4912 -2.0725
 9251TIP3    H227718   2.457   6.699  -0.023 -2.1113  1.8214 -0.3556
 9252TIP3   OH227719   0.349   2.240   1.778  0.6926 -0.5950 -0.3441
 9252TIP3    H127720   0.360   2.291   1.858 -1.3367 -1.4438  0.5447
 9252TIP3    H227721   0.409   2.280   1.715 -1.2503  3.4000  0.0438
 9253TIP3   OH227722   5.498   2.489   1.940  0.1281 -0.5854 -0.1577
 9253TIP3    H127723   5.457   2.513   1.856 -1.1327  1.3732  0.9354
 9253TIP3    H227724   5.428   2.446   1.989 -0.0994  1.0057  0.9863
 9254TIP3   OH227725   0.048   6.812   5.467  0.3751  0.8342 -0.1262
 9254TIP3    H127726   0.103   6.837   5.393 -1.5011 -1.2263 -2.3886
 9254TIP3    H227727   0.094   6.737   5.506 -1.0536 -1.5163 -2.6052
 9255TIP3   OH227728   5.002   3.186   0.139 -0.3578 -0.2064  0.3960
 9255TIP3    H127729   4.978   3.094   0.126 -0.0853 -0.0701 -1.1840
 9255TIP3    H227730   5.066   3.204   0.070  0.7926  0.7438  1.6450
 9256TIP3   OH227731   3.571   4.998   4.344  0.1874  0.0092 -0.3895
 9256TIP3    H127732   3.642   5.062   4.334 -0.2576  0.3802 -1.2938
 9256TIP3    H227733   3.526   4.999   4.259  0.1776 -1.5260 -0.4165
 9257TIP3   OH227734   1.817   0.928   4.433  0.2437  0.0372  0.1601
 9257TIP3    H127735   1.814   0.840   4.472  0.1548 -1.0492 -2.1657
 9257TIP3    H227736   1.749   0.976   4.480 -0.3519 -1.4085  0.8531
 9258TIP3   OH227737   3.170   4.530   1.582 -0.1208 -0.1950 -0.1687
 9258TIP3    H127738   3.182   4.608   1.637  0.9304  0.4192 -1.2256
 9258TIP3    H227739   3.241   4.471   1.608  0.0136 -0.1555 -0.4432
 9259TIP3   OH227740   2.284   1.384   1.625  0.1446 -0.0328  0.5019
 9259TIP3    H127741   2.242   1.365   1.541  0.1909  0.1298  0.4408
 9259TIP3    H227742   2.256   1.313   1.682  0.5138 -0.4140  0.2122
 9260TIP3   OH227743   1.095   3.451   2.350 -0.0632  0.4234  0.3021
 9260TIP3    H127744   1.144   3.380   2.392  0.1915  0.7331  0.5357
 9260TIP3    H227745   1.059   3.502   2.423  1.4053  1.6892  0.2092
 9261TIP3   OH227746   3.913   3.052   1.689 -0.3936 -0.7374  0.4917
 9261TIP3    H127747   3.840   3.036   1.750  0.5344 -0.4482  1.7338
 9261TIP3    H227748   3.880   3.120   1.630 -0.4940  0.8924  2.2964
 9262TIP3   OH227749   2.429   4.774   2.660 -0.3241  0.0559  0.3756
 9262TIP3    H127750   2.491   4.828   2.709  0.2867 -1.2233  1.0754
 9262TIP3    H227751   2.481   4.739   2.588 -1.0389  1.3596 -0.8227
 9263TIP3   OH227752   2.002   6.247   1.412 -0.3408 -0.0480 -0.8651
 9263TIP3    H127753   1.994   6.181   1.481 -0.0882 -2.1864 -2.7767
 9263TIP3    H227754   1.912   6.272   1.392 -0.3937  1.4656  0.9223
 9264TIP3   OH227755   6.918   3.625   4.254 -0.2498 -0.1078 -0.2332
 9264TIP3    H127756   6.831   3.610   4.292 -0.3757 -0.4588 -0.6607
 9264TIP3    H227757   6.934   3.548   4.200  0.9177 -0.7222  0.9185
 9265TIP3   OH227758   0.781   2.564   0.890 -0.3314  0.5358 -0.0577
 9265TIP3    H127759   0.866   2.521   0.884 -1.3587 -1.4092 -2.5391
 9265TIP3    H227760   0.784   2.630   0.821 -1.2869 -0.5417 -1.1725
 9266TIP3   OH227761   4.378   0.089   1.061  0.4238  0.4553 -0.2653
 9266TIP3    H127762   4.326   0.013   1.085  1.1184 -0.7984 -2.4566
 9266TIP3    H227763   4.443   0.096   1.131 -0.1488 -0.4501  0.3843
 9267TIP3   OH227764   3.646   5.985   3.404 -0.6135  0.3852  0.6923
 9267TIP3    H127765   3.702   6.063   3.401 -0.3362  0.1686 -0.0924
 9267TIP3    H227766   3.560   6.018   3.429 -0.3162  0.8305  1.1458
 9268TIP3   OH227767   1.132   2.629   2.352 -0.1266 -0.1608 -0.1311
 9268TIP3    H127768   1.088   2.588   2.426 -2.6079  0.1761 -1.3190
 9268TIP3    H227769   1.203   2.679   2.391  0.5074 -2.3126  1.7164
 9269TIP3   OH227770   4.052   5.258   3.972 -0.2292  0.4352  0.4279
 9269TIP3    H127771   3.969   5.293   4.002 -0.0454  1.3172 -0.0657
 9269TIP3    H227772   4.051   5.270   3.877  0.8188  1.2562  0.5079
 9270TIP3   OH227773   2.315   2.206   5.204  0.3429  0.3670 -0.1615
 9270TIP3    H127774   2.287   2.171   5.289  0.0538  0.6564 -0.1363
 9270TIP3    H227775   2.410   2.215   5.212  0.5358 -1.1618 -0.4429
 9271TIP3   OH227776   5.342   3.432   0.762  0.1505 -0.4617 -0.4220
 9271TIP3    H127777   5.288   3.385   0.699  0.2758 -0.3152 -0.6407
 9271TIP3    H227778   5.371   3.510   0.716  1.6540 -1.1921 -0.7862
 9272TIP3   OH227779   3.252   1.322   2.916  0.3201 -0.1529  0.0339
 9272TIP3    H127780   3.312   1.360   2.852  0.5384  0.6771  0.7228
 9272TIP3    H227781   3.254   1.228   2.897  1.8493 -0.1521  0.0490
 9273TIP3   OH227782   5.788   3.324   3.011  0.5614 -0.2608 -0.0993
 9273TIP3    H127783   5.753   3.243   2.974 -1.5028  1.0640 -1.2352
 9273TIP3    H227784   5.753   3.326   3.101 -1.5479  0.5119 -0.8684
 9274TIP3   OH227785   1.853   5.536   5.098 -0.0126  0.3459  0.0053
 9274TIP3    H127786   1.763   5.568   5.088  0.7836  3.1967  1.2384
 9274TIP3    H227787   1.881   5.569   5.183  2.4229 -0.0054 -0.6074
 9275TIP3   OH227788   0.017   5.957   3.542  0.4487 -0.3798  0.1049
 9275TIP3    H127789   0.072   5.907   3.602 -1.1356 -0.1833  1.8350
 9275TIP3    H227790   0.067   6.037   3.524  2.4891 -1.9767 -1.7627
 9276TIP3   OH227791   2.040   3.829   5.640  0.0558 -0.2017 -0.1337
 9276TIP3    H127792   1.951   3.794   5.639  0.0850 -0.2880  0.1109
 9276TIP3    H227793   2.071   3.812   5.729 -0.0503  0.7446  0.0968
 9277TIP3   OH227794   1.247   1.703   4.295 -0.0796  0.7755  0.2575
 9277TIP3    H127795   1.277   1.762   4.225  0.8335 -0.0440 -0.0753
 9277TIP3    H227796   1.304   1.626   4.287 -1.6859 -0.4617  0.2243
 9278TIP3   OH227797   1.619   3.468   0.914  0.0929  0.4053  0.0595
 9278TIP3    H127798   1.602   3.384   0.955 -0.5724  0.7740  0.5625
 9278TIP3    H227799   1.666   3.447   0.833 -1.4825 -0.5619 -0.6326
 9279TIP3   OH227800   0.671   0.126   2.291  0.3303  0.0043 -0.0683
 9279TIP3    H127801   0.754   0.113   2.336  0.8627  1.1607 -0.6507
 9279TIP3    H227802   0.625   0.193   2.343 -0.1950 -0.5583  0.1963
 9280TIP3   OH227803   3.928   3.354   3.788  0.0621  0.2212 -0.3725
 9280TIP3    H127804   3.851   3.406   3.766 -1.0291 -1.0121  0.4138
 9280TIP3    H227805   3.988   3.416   3.828 -1.2852  0.8720  0.7133
 9281TIP3   OH227806   1.286   6.322   0.790  0.2541 -0.4514 -0.2878
 9281TIP3    H127807   1.202   6.365   0.802  1.4314  1.6990  0.7739
 9281TIP3    H227808   1.283   6.290   0.700 -1.3510  0.3395 -0.5594
 9282TIP3   OH227809   3.521   5.312   2.096  0.5534 -0.3461  0.5803
 9282TIP3    H127810   3.567   5.230   2.080  1.0751 -0.8140  3.7603
 9282TIP3    H227811   3.466   5.294   2.172 -2.4043  1.1916 -1.0258
 9283TIP3   OH227812   6.029   2.273   1.939  0.3551  0.0806  0.1162
 9283TIP3    H127813   5.934   2.264   1.929 -0.1078  1.7017  2.4524
 9283TIP3    H227814   6.052   2.208   2.006  0.6502  0.6215  0.5463
 9284TIP3   OH227815   4.900   4.058   0.334  0.7201 -0.1296  0.2484
 9284TIP3    H127816   4.934   4.050   0.245  0.1689 -1.2222  0.1080
 9284TIP3    H227817   4.811   4.022   0.328  0.0115  1.4378  0.8735
 9285TIP3   OH227818   0.341   5.137   0.714  0.0317  0.6539  0.2834
 9285TIP3    H127819   0.266   5.115   0.659  0.5753  0.5608 -0.4450
 9285TIP3    H227820   0.415   5.142   0.653  0.4930  1.4267  0.8821
 9286TIP3   OH227821   1.081   2.730   5.477 -0.0739 -0.3551 -0.1098
 9286TIP3    H127822   1.033   2.747   5.558  2.6493 -0.6983  1.7154
 9286TIP3    H227823   1.101   2.817   5.443 -0.3348 -0.1837  0.1699
 9287TIP3   OH227824   6.656   5.463   3.480 -0.0639  0.0484  0.0228
 9287TIP3    H127825   6.599   5.538   3.467 -0.8884 -0.5248  0.2816
 9287TIP3    H227826   6.704   5.455   3.397  0.6300  1.3386  0.2827
 9288TIP3   OH227827   7.111   3.326   0.352  0.1044 -1.0412  0.0406
 9288TIP3    H127828   7.086   3.234   0.344 -0.6461 -0.8185 -0.2406
 9288TIP3    H227829   7.068   3.355   0.433 -1.1812 -0.4643 -0.8191
 9289TIP3   OH227830   2.369   1.741   1.692  0.1358 -0.3773  0.2491
 9289TIP3    H127831   2.301   1.728   1.758  1.0612  1.6326  1.7344
 9289TIP3    H227832   2.451   1.740   1.742  1.0162 -0.3770 -1.1247
 9290TIP3   OH227833   0.563   2.848   5.754  0.3012  0.2755  0.3209
 9290TIP3    H127834   0.573   2.942   5.768 -1.8744  0.6185 -0.1032
 9290TIP3    H227835   0.567   2.811   5.842 -0.7116  1.0054  0.6967
 9291TIP3   OH227836   4.075   3.597   1.477  0.0834 -0.4378 -0.6892
 9291TIP3    H127837   4.051   3.517   1.429 -1.4065 -0.0100 -0.7126
 9291TIP3    H227838   4.061   3.575   1.569  1.5137 -0.7789 -0.5209
 9292TIP3   OH227839   3.799   2.288   0.629  0.1519  0.1837  0.3700
 9292TIP3    H127840   3.717   2.254   0.665  0.4765 -1.0315  0.0051
 9292TIP3    H227841   3.813   2.237   0.549 -0.0336  2.1303 -0.9729
 9293TIP3   OH227842   2.844   3.012   3.730 -0.6132  0.2004  0.9113
 9293TIP3    H127843   2.849   2.994   3.824  1.2931  2.4928  1.3576
 9293TIP3    H227844   2.759   3.055   3.719 -1.4308 -1.2423  1.2943
 9294TIP3   OH227845   1.543   3.721   3.668  0.4395 -0.2377 -0.1770
 9294TIP3    H127846   1.625   3.717   3.717 -0.1071  1.0052  0.8705
 9294TIP3    H227847   1.479   3.752   3.731 -0.6318 -0.1788 -1.2700
 9295TIP3   OH227848   5.598   2.458   3.083  0.1705 -0.2073  0.0737
 9295TIP3    H127849   5.666   2.516   3.050  0.6550 -0.6740  0.2493
 9295TIP3    H227850   5.554   2.425   3.004  0.3824 -0.1953 -0.0482
 9296TIP3   OH227851   5.143   4.939   4.484 -0.1093 -0.6221 -0.0713
 9296TIP3    H127852   5.206   4.962   4.553  0.5993  2.0362 -1.4684
 9296TIP3    H227853   5.065   4.991   4.504  0.2114  0.4190 -1.3564
 9297TIP3   OH227854   1.960   2.491   0.522  0.2661  0.1481  0.2318
 9297TIP3    H127855   2.044   2.525   0.549  0.3724  0.1248 -0.0613
 9297TIP3    H227856   1.897   2.531   0.582  0.3734  0.9639 -0.1912
 9298TIP3   OH227857   0.338   0.963   4.482  0.0753 -0.8605  0.1494
 9298TIP3    H127858   0.348   0.994   4.392  0.4460  0.6231  0.6675
 9298TIP3    H227859   0.428   0.955   4.515 -0.0539 -1.4779  0.3718
 9299TIP3   OH227860   3.470   5.383   1.763 -0.2515  0.4687 -0.1597
 9299TIP3    H127861   3.473   5.382   1.859 -0.8678 -1.0520 -0.1285
 9299TIP3    H227862   3.562   5.383   1.737 -0.0633 -0.2024  0.4572
 9300TIP3   OH227863   6.476   6.587   3.593  0.3193 -0.3213  0.1438
 9300TIP3    H127864   6.557   6.634   3.617  0.5242 -0.1366 -0.8599
 9300TIP3    H227865   6.492   6.497   3.621  1.6258 -0.6971 -1.5942
 9301TIP3   OH227866   0.220   0.756   0.648 -0.3597 -0.4906 -0.3476
 9301TIP3    H127867   0.179   0.671   0.635 -2.0611 -0.1317  2.0019
 9301TIP3    H227868   0.246   0.756   0.740  0.8884  1.0248 -0.6606
 9302TIP3   OH227869   2.778   5.913   1.303 -0.1971  0.4058 -0.9226
 9302TIP3    H127870   2.863   5.913   1.259 -0.4393  2.0851 -1.4542
 9302TIP3    H227871   2.790   5.969   1.379 -0.0005 -1.8563  0.8407
 9303TIP3   OH227872   4.285   6.597   1.967  0.5022 -0.5425  0.1905
 9303TIP3    H127873   4.350   6.611   2.036  0.1466 -0.0606  0.4336
 9303TIP3    H227874   4.249   6.510   1.985 -0.8475  0.2766  1.6855
 9304TIP3   OH227875   1.051   5.251   1.125 -0.1935 -0.6421 -0.9040
 9304TIP3    H127876   1.094   5.179   1.079 -1.9344 -1.3635 -1.4890
 9304TIP3    H227877   0.971   5.212   1.161 -0.7281  0.8007 -0.4505
 9305TIP3   OH227878   5.066   1.470   5.612 -0.0364 -0.3698 -0.2639
 9305TIP3    H127879   5.104   1.554   5.638 -2.3094  0.4756  0.6031
 9305TIP3    H227880   5.060   1.475   5.516  0.6040  0.0907 -0.2835
 9306TIP3   OH227881   3.980   6.007   4.353 -0.1799  0.7786 -0.1621
 9306TIP3    H127882   3.904   6.019   4.410 -0.9045  0.9050 -1.1196
 9306TIP3    H227883   4.039   6.079   4.376 -0.0080  0.2445  1.1069
 9307TIP3   OH227884   0.295   5.889   1.009  0.3427  0.0386 -0.3752
 9307TIP3    H127885   0.353   5.956   0.974  0.7892 -0.2843 -0.2519
 9307TIP3    H227886   0.334   5.806   0.983 -0.0693 -0.1810 -0.3066
 9308TIP3   OH227887   3.048   2.054   0.649  0.3134 -0.0996 -0.8729
 9308TIP3    H127888   3.099   2.083   0.725 -0.5534  0.6664 -0.5653
 9308TIP3    H227889   3.073   1.962   0.637  1.5513  0.1809 -0.5743
 9309TIP3   OH227890   4.279   4.462   1.459 -0.4367  0.1393  0.3657
 9309TIP3    H127891   4.306   4.415   1.538  0.8137  1.6071  0.8493
 9309TIP3    H227892   4.187   4.436   1.447  0.1484 -2.3244  0.6223
 9310TIP3   OH227893   1.740   4.655   0.649 -0.1283  0.0771 -0.0951
 9310TIP3    H127894   1.713   4.579   0.700  0.1166  0.2572  0.3094
 9310TIP3    H227895   1.727   4.730   0.708  1.1043  0.1836  0.0726
 9311TIP3   OH227896   1.801   5.835   3.403 -0.1119 -0.2304 -0.1013
 9311TIP3    H127897   1.895   5.817   3.405 -0.3125 -1.3341  0.1371
 9311TIP3    H227898   1.793   5.924   3.438  0.9888  0.6234 -1.8951
 9312TIP3   OH227899   1.793   1.887   1.752  0.1146 -0.0573  0.2259
 9312TIP3    H127900   1.815   1.823   1.820 -0.3472  0.7173  1.0986
 9312TIP3    H227901   1.839   1.854   1.674 -0.6004 -1.7944  0.4882
 9313TIP3   OH227902   3.586   3.759   5.151  0.1277  0.4960  0.0602
 9313TIP3    H127903   3.618   3.743   5.062 -0.1247 -1.1289  0.2377
 9313TIP3    H227904   3.564   3.853   5.152  2.6014  1.1460 -0.7672
 9314TIP3   OH227905   6.779   0.613   3.814 -0.1848 -0.2962  0.0273
 9314TIP3    H127906   6.787   0.558   3.735  1.0481 -0.2689  0.1175
 9314TIP3    H227907   6.817   0.697   3.788  1.3216 -0.6508  0.9882
 9315TIP3   OH227908   7.062   4.763   0.729 -0.1265  0.5906  0.1086
 9315TIP3    H127909   7.035   4.719   0.648  0.2326 -0.2226  0.4127
 9315TIP3    H227910   7.104   4.694   0.780 -1.6693  0.7190  1.6394
 9316TIP3   OH227911   3.053   4.312   1.390 -0.1320 -0.5952  0.2894
 9316TIP3    H127912   2.994   4.249   1.432 -1.4673  1.8332  2.3311
 9316TIP3    H227913   3.089   4.364   1.462  2.2478 -0.0688 -1.1712
 9317TIP3   OH227914   0.245   3.215   3.424  0.1414  0.1192  0.0666
 9317TIP3    H127915   0.175   3.156   3.451 -0.0901  0.6025  0.5394
 9317TIP3    H227916   0.217   3.301   3.456 -0.3338  0.8077 -1.9997
 9318TIP3   OH227917   5.622   6.407   3.113  0.6552  0.0708  0.5490
 9318TIP3    H127918   5.552   6.416   3.179  0.3789  1.0687  0.1410
 9318TIP3    H227919   5.587   6.346   3.049 -0.1620  1.1185 -0.0317
 9319TIP3   OH227920   6.115   4.356   4.299 -0.4007  0.4401  0.0750
 9319TIP3    H127921   6.068   4.434   4.327 -1.4491  0.5590 -1.8635
 9319TIP3    H227922   6.181   4.389   4.237  1.5271  0.1361  1.8352
 9320TIP3   OH227923   6.008   2.171   5.416  0.0883  0.2311  0.2167
 9320TIP3    H127924   5.968   2.218   5.489  1.5211  0.1062  1.1302
 9320TIP3    H227925   6.056   2.238   5.367 -0.7555  0.2911 -0.5570
 9321TIP3   OH227926   4.520   2.857   4.437 -0.7701  0.0789  0.2780
 9321TIP3    H127927   4.489   2.881   4.525 -0.7621  0.1363  0.2655
 9321TIP3    H227928   4.604   2.901   4.429 -1.6789  1.7640 -0.5285
 9322TIP3   OH227929   5.148   2.583   3.294 -0.1472  0.5755 -0.0565
 9322TIP3    H127930   5.133   2.674   3.268 -3.4551  0.5260  1.1644
 9322TIP3    H227931   5.178   2.589   3.385  1.1331  0.4477 -0.4544
 9323TIP3   OH227932   0.274   3.071   5.476  0.6480  0.2261 -0.3161
 9323TIP3    H127933   0.237   3.014   5.408  0.2283 -0.5702  0.5702
 9323TIP3    H227934   0.318   3.012   5.536  0.1555  0.8219  0.6508
 9324TIP3   OH227935   6.654   1.410   2.213 -0.3978  0.1617  0.7016
 9324TIP3    H127936   6.596   1.352   2.263 -0.0186  1.2418  2.4514
 9324TIP3    H227937   6.668   1.485   2.270  0.1218  1.4296 -1.0225
 9325TIP3   OH227938   6.492   6.158   3.581  0.1966  0.0735 -0.3705
 9325TIP3    H127939   6.417   6.143   3.638  0.5915  0.5532  0.2998
 9325TIP3    H227940   6.538   6.074   3.578  1.2923  0.5074  1.7179
 9326TIP3   OH227941   2.068   2.817   1.507 -0.1174  0.6849 -0.1294
 9326TIP3    H127942   1.979   2.801   1.537 -0.6262  1.1354 -1.3465
 9326TIP3    H227943   2.059   2.844   1.415  1.1838  1.6154 -0.0257
 9327TIP3   OH227944   2.866   3.115   2.806  0.5134 -0.5349 -0.3015
 9327TIP3    H127945   2.935   3.074   2.858  1.1072 -1.5553 -1.8362
 9327TIP3    H227946   2.912   3.169   2.742 -0.0661 -1.4358 -1.5270
 9328TIP3   OH227947   2.302   3.207   5.902 -0.4706  0.0993 -0.1342
 9328TIP3    H127948   2.339   3.182   5.818 -0.5496  1.2432 -0.5266
 9328TIP3    H227949   2.221   3.157   5.910 -1.1400  0.9462 -1.3508
 9329TIP3   OH227950   1.277   4.163   3.467  0.0447  0.0677  0.1525
 9329TIP3    H127951   1.359   4.206   3.490  0.1651 -0.9770  1.8326
 9329TIP3    H227952   1.212   4.204   3.525 -0.5099  0.3717 -0.6559
 9330TIP3   OH227953   6.704   0.924   0.401 -0.1386 -0.8688  0.3650
 9330TIP3    H127954   6.776   0.890   0.454  0.0934 -1.1119 -0.0941
 9330TIP3    H227955   6.717   1.019   0.401 -0.6960 -0.7772  1.5165
 9331TIP3   OH227956   5.614   5.123   3.953  0.6418 -0.1141  0.2990
 9331TIP3    H127957   5.677   5.165   4.012  1.2873 -0.9233  0.1977
 9331TIP3    H227958   5.559   5.070   4.011 -0.7346  1.4769  0.5414
 9332TIP3   OH227959   0.651   0.392   5.765 -0.2273 -0.0723  0.4017
 9332TIP3    H127960   0.691   0.464   5.814  0.5599  0.7225 -1.3327
 9332TIP3    H227961   0.586   0.434   5.709 -2.8827 -1.2299  2.3986
 9333TIP3   OH227962   1.695   6.025   0.380 -0.4115  0.1469 -0.5296
 9333TIP3    H127963   1.676   5.985   0.465  1.2996  0.6278  0.1196
 9333TIP3    H227964   1.737   5.955   0.329 -1.5146 -0.1679 -1.0399
 9334TIP3   OH227965   2.034   3.445   5.777 -0.3048 -0.1158  0.2210
 9334TIP3    H127966   2.002   3.382   5.712 -0.1630 -0.2649  0.2961
 9334TIP3    H227967   2.116   3.478   5.741 -0.9314  0.8762 -0.3648
 9335TIP3   OH227968   2.564   1.917   5.663 -0.3487  0.0216  0.9757
 9335TIP3    H127969   2.572   1.913   5.568 -3.4856  2.3985  0.4289
 9335TIP3    H227970   2.469   1.915   5.679 -0.2146  3.7413  3.6106
 9336TIP3   OH227971   3.657   5.760   3.259  0.4738  0.3103 -0.2298
 9336TIP3    H127972   3.682   5.847   3.287  1.6479 -0.5021  1.4101
 9336TIP3    H227973   3.640   5.769   3.165  1.1203  2.1601 -0.2106
 9337TIP3   OH227974   6.705   3.079   1.491 -0.3339  0.4552 -0.1277
 9337TIP3    H127975   6.664   3.064   1.406  1.9257 -1.3582 -1.0158
 9337TIP3    H227976   6.746   3.166   1.483  1.4686 -0.4613 -1.6883
 9338TIP3   OH227977   4.958   0.313   1.110 -0.0209 -0.5346 -0.0727
 9338TIP3    H127978   4.875   0.359   1.110  0.2925  0.0994  1.5605
 9338TIP3    H227979   4.962   0.270   1.025 -1.4335  0.4539 -0.6710
 9339TIP3   OH227980   2.623   0.010   5.762 -0.1600  0.4436 -0.0819
 9339TIP3    H127981   2.604  -0.064   5.705 -1.9549  0.3764  0.5259
 9339TIP3    H227982   2.659   0.077   5.704 -0.8518 -0.0355 -1.0876
 9340TIP3   OH227983   1.739   1.162   1.916 -0.7219 -0.0746  0.2599
 9340TIP3    H127984   1.698   1.249   1.916 -2.0029 -0.6455 -0.6035
 9340TIP3    H227985   1.704   1.118   1.993 -0.3614  0.0434  0.4921
 9341TIP3   OH227986   2.246   0.199   2.390 -0.6591 -0.0474 -0.4022
 9341TIP3    H127987   2.311   0.172   2.456  0.8746  0.0404 -1.8151
 9341TIP3    H227988   2.168   0.221   2.441  0.1518 -0.9167  1.3031
 9342TIP3   OH227989   4.047   1.807   4.908 -0.1875  0.0332  0.2417
 9342TIP3    H127990   4.109   1.787   4.978  0.1732  0.1078 -0.0532
 9342TIP3    H227991   4.099   1.854   4.843  0.4318 -3.2355 -1.8280
 9343TIP3   OH227992   5.760   3.783   3.226 -0.3592 -0.5953  0.2508
 9343TIP3    H127993   5.737   3.704   3.177  0.5680 -0.6985 -0.0384
 9343TIP3    H227994   5.854   3.792   3.214 -0.4789  0.6866  0.0816
 9344TIP3   OH227995   0.200   6.396   4.920 -0.5244  0.5919 -0.6365
 9344TIP3    H127996   0.235   6.459   4.857  0.2959 -0.6525 -1.4769
 9344TIP3    H227997   0.223   6.310   4.883 -2.1739 -0.2203  0.1330
 9345TIP3   OH227998   1.469   3.085   4.832  1.2354  0.1749 -0.3179
 9345TIP3    H127999   1.385   3.120   4.804  0.8920  0.3852  0.9269
 9345TIP3    H228000   1.475   2.999   4.791  0.2593  0.0186 -0.1433
 9346TIP3   OH228001   1.346   6.494   4.885  0.1672  0.1874  0.1996
 9346TIP3    H128002   1.325   6.555   4.814  0.1724  0.4732  0.4442
 9346TIP3    H228003   1.442   6.489   4.884  0.2460  1.2522  1.0711
 9347TIP3   OH228004   6.752   3.237   3.264  0.2842 -0.4403  0.2465
 9347TIP3    H128005   6.676   3.209   3.314  0.8585 -1.4366  0.5777
 9347TIP3    H228006   6.821   3.253   3.329  0.0531  1.5888  0.0609
 9348TIP3   OH228007   1.845   2.561   5.671  0.1117  0.3321  0.1591
 9348TIP3    H128008   1.875   2.528   5.586 -0.4134 -1.2944  0.5624
 9348TIP3    H228009   1.899   2.515   5.735 -0.2493  0.7003  0.7354
 9349TIP3   OH228010   6.629   0.445   4.573  0.2158 -0.3807 -0.4255
 9349TIP3    H128011   6.722   0.436   4.597 -0.1922  0.8360  1.7857
 9349TIP3    H228012   6.612   0.539   4.575 -0.7442 -0.4513 -2.3481
 9350TIP3   OH228013   5.250   1.015   0.169  0.5010 -0.0154  0.3734
 9350TIP3    H128014   5.270   0.994   0.260 -1.2119  1.1200  1.0909
 9350TIP3    H228015   5.299   1.096   0.152 -0.7215  0.9047  1.0133
 9351TIP3   OH228016   2.095   5.417   5.506  0.4190  0.2920  0.3013
 9351TIP3    H128017   2.182   5.404   5.468  0.8762 -1.1099  1.6832
 9351TIP3    H228018   2.112   5.449   5.595 -0.4838  0.4279  0.4348
 9352TIP3   OH228019   6.306   5.243   2.561 -0.4221  0.4587 -0.0217
 9352TIP3    H128020   6.347   5.312   2.614  1.8849  1.1063 -2.4330
 9352TIP3    H228021   6.286   5.287   2.478  0.8441 -1.6495 -1.5252
 9353TIP3   OH228022   1.278   4.036   5.779 -0.2109 -0.0639  0.3722
 9353TIP3    H128023   1.262   4.123   5.744  0.0581  0.6841  2.0115
 9353TIP3    H228024   1.352   4.003   5.728  0.5843  1.2517  0.6220
 9354TIP3   OH228025   5.815   0.558   0.670  0.4057  0.0639 -0.6712
 9354TIP3    H128026   5.758   0.611   0.613 -1.4333 -1.0821 -0.0049
 9354TIP3    H228027   5.884   0.617   0.697 -2.1709  2.5612  0.9778
 9355TIP3   OH228028   4.463   0.986   3.923  0.6056  0.2712 -0.3682
 9355TIP3    H128029   4.552   0.962   3.895  0.2901 -0.9206 -0.3879
 9355TIP3    H228030   4.458   0.957   4.013 -0.0894 -0.5497 -0.6678
 9356TIP3   OH228031   3.932   2.054   5.073 -0.1196 -0.1054 -0.2072
 9356TIP3    H128032   3.855   1.997   5.065 -0.9291  0.9824 -0.4306
 9356TIP3    H228033   4.005   1.994   5.088 -1.0178 -1.1662  0.0729
 9357TIP3   OH228034   6.533   1.760   0.162  0.2277  0.0711 -0.2186
 9357TIP3    H128035   6.522   1.697   0.091 -1.4981 -0.4758  0.4912
 9357TIP3    H228036   6.625   1.752   0.187  0.0379 -2.2347 -0.0883
 9358TIP3   OH228037   1.087   2.463   1.356 -0.1215  0.0573 -0.1158
 9358TIP3    H128038   1.071   2.514   1.436 -0.5789  1.3913 -1.0093
 9358TIP3    H228039   1.107   2.375   1.387  0.0265  0.6139  1.4775
 9359TIP3   OH228040   5.686   4.700  -0.006  0.1198 -0.1300 -0.5698
 9359TIP3    H128041   5.702   4.636   0.063  0.9889 -0.7181 -1.2872
 9359TIP3    H228042   5.703   4.785   0.035 -1.1680 -0.3346  0.4252
 9360TIP3   OH228043   7.116   6.501   5.742  0.8339 -0.4804 -0.1550
 9360TIP3    H128044   7.197   6.450   5.735  1.1840  0.2448 -2.5217
 9360TIP3    H228045   7.137   6.584   5.698 -0.1242  1.2265  2.3887
 9361TIP3   OH228046   2.239   0.519   5.077  0.4001  0.2730 -0.2673
 9361TIP3    H128047   2.296   0.581   5.031 -0.7600  0.1303 -2.0166
 9361TIP3    H228048   2.265   0.524   5.168  2.5076  0.9501 -0.8647
 9362TIP3   OH228049   1.481   5.390   0.310  0.0920 -0.4604  0.0276
 9362TIP3    H128050   1.455   5.469   0.263  0.1507 -0.6339 -0.3013
 9362TIP3    H228051   1.506   5.328   0.241 -0.6291 -1.0107  0.2524
 9363TIP3   OH228052   3.184   4.181   5.246  0.2850 -0.2558  0.3853
 9363TIP3    H128053   3.237   4.181   5.326 -0.2004  0.0913  0.7093
 9363TIP3    H228054   3.124   4.255   5.257 -0.3999 -0.7658  0.1074
 9364TIP3   OH228055   5.282   4.193   1.226  0.8494 -0.5468  0.2984
 9364TIP3    H128056   5.220   4.122   1.242  1.8633 -1.9826 -1.8042
 9364TIP3    H228057   5.355   4.175   1.285  0.6036 -0.5691  0.5980
 9365TIP3   OH228058   4.824   4.425   4.433 -1.0810 -0.0220  0.0782
 9365TIP3    H128059   4.832   4.337   4.396 -0.6607  0.8420 -2.0300
 9365TIP3    H228060   4.913   4.447   4.461 -1.1092 -0.1042  0.2351
 9366TIP3   OH228061   3.507   0.883   3.631  0.0744  0.1597  0.2881
 9366TIP3    H128062   3.443   0.931   3.684  0.2127  1.2067 -0.4465
 9366TIP3    H228063   3.510   0.932   3.549 -1.3645 -2.3482 -1.3587
 9367TIP3   OH228064   4.112   1.877   1.551  0.5542 -0.0956  0.1679
 9367TIP3    H128065   4.110   1.846   1.641 -1.5924 -0.5819  0.0066
 9367TIP3    H228066   4.133   1.970   1.558  0.8057 -0.2129  1.1193
 9368TIP3   OH228067   0.421   3.599   5.855 -0.1227 -0.1150  0.3852
 9368TIP3    H128068   0.506   3.643   5.861  0.0458  0.4956 -3.5767
 9368TIP3    H228069   0.362   3.653   5.908  1.2722  1.4966  0.3962
 9369TIP3   OH228070   2.774   0.154   3.139 -0.2723  0.5856 -0.2427
 9369TIP3    H128071   2.690   0.114   3.117 -0.7088  0.2357  1.8142
 9369TIP3    H228072   2.838   0.087   3.118 -0.7979 -0.3191  0.8825
 9370TIP3   OH228073   6.427   5.819   1.149  0.2283 -0.6310  0.4616
 9370TIP3    H128074   6.350   5.838   1.095  1.3164  1.1910 -0.5405
 9370TIP3    H228075   6.426   5.887   1.217  0.3869 -1.2525  1.1031
 9371TIP3   OH228076   4.036   6.371   4.956  0.0768 -0.3733 -0.6704
 9371TIP3    H128077   4.052   6.414   5.039  0.9696  1.7230 -1.8568
 9371TIP3    H228078   4.123   6.360   4.917 -0.3441 -0.9976 -1.4790
 9372TIP3   OH228079   4.812   0.824   2.840 -0.2448 -0.4570  0.3606
 9372TIP3    H128080   4.840   0.749   2.891 -0.0852 -0.6981 -0.0791
 9372TIP3    H228081   4.755   0.874   2.899  0.7353 -0.2000  1.1034
 9373TIP3   OH228082   4.335   6.572   2.790  0.1295  0.6226 -0.1261
 9373TIP3    H128083   4.352   6.500   2.729 -0.0390 -0.6481  1.2673
 9373TIP3    H228084   4.249   6.551   2.827  1.2695 -0.0397  2.3543
 9374TIP3   OH228085   2.037   0.868   4.879 -0.1494 -0.2343  0.0141
 9374TIP3    H128086   1.945   0.888   4.896 -0.3225 -1.0539  0.0680
 9374TIP3    H228087   2.085   0.942   4.917 -0.7933  0.3492 -0.2838
 9375TIP3   OH228088   4.056   3.893   3.824 -0.2540  0.1274 -0.2192
 9375TIP3    H128089   4.125   3.951   3.792  0.6807  0.3759  2.0409
 9375TIP3    H228090   4.053   3.909   3.919 -1.9214 -1.4718  0.0576
 9376TIP3   OH228091   7.078   2.626   5.404  0.2430  0.3806 -0.0877
 9376TIP3    H128092   7.036   2.651   5.322 -0.7049 -0.5720  0.0915
 9376TIP3    H228093   7.028   2.671   5.472  0.2943  0.2347  0.0466
 9377TIP3   OH228094   6.485   3.497   3.032  0.2310 -0.1517  0.2920
 9377TIP3    H128095   6.513   3.588   3.040  0.7930 -0.3609  0.7300
 9377TIP3    H228096   6.412   3.488   3.094 -0.0540  0.0820 -0.0015
 9378TIP3   OH228097   2.488   5.735   0.971  0.7319  0.0169  0.0550
 9378TIP3    H128098   2.461   5.654   1.015 -0.5642  0.3435 -0.0836
 9378TIP3    H228099   2.437   5.735   0.889  1.9275  0.1918 -0.7107
 9379TIP3   OH228100   2.617   4.452   1.277  0.5048  0.2440  0.3846
 9379TIP3    H128101   2.662   4.535   1.290 -0.6031  0.6987  1.5038
 9379TIP3    H228102   2.592   4.424   1.365 -0.0135 -0.7775 -0.0723
 9380TIP3   OH228103   4.379   3.681   4.004 -0.3225  0.2024 -0.1588
 9380TIP3    H128104   4.426   3.649   4.080 -0.4729 -0.3614 -0.3014
 9380TIP3    H228105   4.390   3.613   3.938 -1.3448  0.0541 -0.1874
 9381TIP3   OH228106   0.932   0.210   1.108  0.7180  0.2409 -0.5799
 9381TIP3    H128107   0.892   0.127   1.133  0.2904  0.8306  0.7766
 9381TIP3    H228108   1.026   0.193   1.113  0.6423  0.2438  1.1927
 9382TIP3   OH228109   0.103   3.458   3.715 -0.3401 -0.2363 -0.1534
 9382TIP3    H128110   0.043   3.532   3.700 -0.5751 -0.3231  0.3383
 9382TIP3    H228111   0.113   3.454   3.810  1.1298  0.3036 -0.2668
 9383TIP3   OH228112   6.040   5.403   0.828  0.6453  0.2838  0.4803
 9383TIP3    H128113   5.951   5.397   0.862 -0.1594  3.1768 -0.7829
 9383TIP3    H228114   6.095   5.368   0.898 -1.3851 -1.0077  1.5543
 9384TIP3   OH228115   4.139   0.646   1.910 -0.5366 -0.2371 -0.1737
 9384TIP3    H128116   4.161   0.559   1.944 -0.5957 -0.0222  0.4214
 9384TIP3    H228117   4.196   0.706   1.958 -0.1890  0.0159 -0.8965
 9385TIP3   OH228118   6.813   0.141   1.458  0.2890  0.2290 -0.2890
 9385TIP3    H128119   6.893   0.129   1.510  0.0245  1.6353  0.5158
 9385TIP3    H228120   6.840   0.201   1.388 -0.2691  1.6606  0.6575
 9386TIP3   OH228121   5.679   5.616   0.147  0.9730 -0.3321  0.5209
 9386TIP3    H128122   5.681   5.525   0.117 -2.5796 -0.9683  1.6776
 9386TIP3    H228123   5.630   5.612   0.230  3.1666  2.3360  2.1102
 9387TIP3   OH228124   3.308   2.167   2.380 -0.3290 -0.4504 -0.7697
 9387TIP3    H128125   3.343   2.086   2.344  0.7689 -0.7038  0.7344
 9387TIP3    H228126   3.222   2.144   2.415 -0.0937 -0.9322 -0.5060
 9388TIP3   OH228127   5.859   6.130   3.428  0.3621  0.7263  0.1759
 9388TIP3    H128128   5.865   6.212   3.380 -1.6272  0.7649 -0.1037
 9388TIP3    H228129   5.783   6.085   3.389  0.1777 -0.3241  1.6615
 9389TIP3   OH228130   0.617   3.051   4.289  0.1645  0.5532 -0.3559
 9389TIP3    H128131   0.554   2.986   4.258 -0.4778  1.3033 -0.6212
 9389TIP3    H228132   0.694   3.038   4.233  0.3950 -0.5742  0.1738
 9390TIP3   OH228133   2.147   2.254   1.989 -0.0891  0.1618  0.5673
 9390TIP3    H128134   2.120   2.338   2.026 -0.7650  0.8102 -1.2964
 9390TIP3    H228135   2.069   2.198   1.994 -0.6410  0.7289 -1.1398
 9391TIP3   OH228136   4.084   4.564   5.581 -0.1064  0.1217  0.3379
 9391TIP3    H128137   4.072   4.659   5.569  0.8834  0.2711  0.4622
 9391TIP3    H228138   4.045   4.546   5.666  0.6072  0.6167  0.7874
 9392TIP3   OH228139   1.787   6.283   0.184  0.2665  0.1894  0.3093
 9392TIP3    H128140   1.728   6.210   0.202  0.1779  0.0592 -0.4711
 9392TIP3    H228141   1.868   6.261   0.230  1.0738 -1.5738 -1.7534
 9393TIP3   OH228142   3.994   0.499   4.117 -0.8609  0.5112 -0.2198
 9393TIP3    H128143   3.963   0.426   4.064  0.9745  0.7918 -1.8086
 9393TIP3    H228144   3.981   0.577   4.063 -0.2315  0.9952  0.2931
 9394TIP3   OH228145   7.060   0.014   0.478 -0.3220  0.1651 -0.4371
 9394TIP3    H128146   7.094   0.102   0.491 -2.4790  1.2372 -1.5446
 9394TIP3    H228147   7.109  -0.021   0.404 -1.1979  1.4862 -1.6989
 9395TIP3   OH228148   2.533   2.024   1.594  0.1798  0.1778  0.6919
 9395TIP3    H128149   2.596   1.964   1.554 -0.8761 -0.4473 -0.0628
 9395TIP3    H228150   2.525   1.994   1.684  0.5316 -0.0920  0.6346
 9396TIP3   OH228151   2.548   1.088   3.000 -0.1710 -0.6742 -0.4199
 9396TIP3    H128152   2.535   1.015   3.060 -0.2905 -0.3265 -0.0147
 9396TIP3    H228153   2.512   1.164   3.046 -0.9670 -0.5298 -1.2373
 9397TIP3   OH228154   4.715   0.950   3.777  0.1533 -0.1727  0.3977
 9397TIP3    H128155   4.799   0.931   3.734  0.0152  1.0015 -0.4535
 9397TIP3    H228156   4.650   0.941   3.707 -0.2100  0.6703  0.6142
 9398TIP3   OH228157   5.360   1.142   0.940  0.1964 -0.1529 -0.6300
 9398TIP3    H128158   5.290   1.081   0.918  2.3615 -3.4335  0.7302
 9398TIP3    H228159   5.440   1.098   0.910  2.0223  1.2962  1.7518
 9399TIP3   OH228160   1.626   1.785   2.521  0.1240 -0.2222  0.4748
 9399TIP3    H128161   1.541   1.824   2.503  0.0888 -0.1682  0.7503
 9399TIP3    H228162   1.661   1.837   2.593  1.2468  1.0030 -0.9115
 9400TIP3   OH228163   5.438   1.842   3.401 -0.5769  0.7258 -0.0203
 9400TIP3    H128164   5.509   1.896   3.366  0.4559 -0.3640  0.3635
 9400TIP3    H228165   5.458   1.753   3.372 -1.0824  0.2044  1.1684
 9401TIP3   OH228166   2.778   2.086   2.975  0.1378 -0.1348  0.3720
 9401TIP3    H128167   2.826   2.009   2.942 -0.1332 -0.6001  1.0278
 9401TIP3    H228168   2.845   2.153   2.985  0.3932 -0.3080 -0.1525
 9402TIP3   OH228169   5.305   1.339   2.665  0.1107  0.5339  0.4262
 9402TIP3    H128170   5.372   1.403   2.640  1.7940 -0.8106  1.2649
 9402TIP3    H228171   5.323   1.321   2.757 -0.8599 -0.5302  0.4214
 9403TIP3   OH228172   2.409   3.059   1.231  0.1336  0.9863 -0.3457
 9403TIP3    H128173   2.362   2.990   1.278 -1.6613  1.9026 -0.7072
 9403TIP3    H228174   2.400   3.137   1.286  1.3381  1.1864 -0.3910
 9404TIP3   OH228175   0.058   0.154   2.594 -0.3917  0.5477  0.6863
 9404TIP3    H128176  -0.025   0.201   2.586  0.1313  1.1154 -4.1054
 9404TIP3    H228177   0.047   0.075   2.542  1.7156  0.0481  0.8906
 9405TIP3   OH228178   7.057   0.464   0.010  0.2916 -0.3104 -0.5841
 9405TIP3    H128179   6.977   0.512   0.032  0.2711  0.4519 -2.1983
 9405TIP3    H228180   7.127   0.513   0.054  0.1468  0.5581 -1.3066
 9406TIP3   OH228181   6.299   6.346   4.386  0.0089 -0.0357  0.1603
 9406TIP3    H128182   6.261   6.425   4.349  0.1708 -0.1859 -0.3370
 9406TIP3    H228183   6.391   6.350   4.361  0.5090  0.6882  1.9638
 9407TIP3   OH228184   6.929   4.494   0.109 -0.8921  0.2205  0.1114
 9407TIP3    H128185   6.833   4.493   0.102 -0.8227 -0.9172 -0.8869
 9407TIP3    H228186   6.959   4.495   0.019  0.0519  0.6485  0.4240
 9408TIP3   OH228187   2.889   2.237   3.256 -0.0588 -0.1443  0.3087
 9408TIP3    H128188   2.924   2.286   3.182  0.4888  0.0329  0.6730
 9408TIP3    H228189   2.809   2.283   3.281  0.6539  0.8243  0.8953
 9409TIP3   OH228190   2.782   2.405   1.965 -0.5143 -0.1640 -0.6868
 9409TIP3    H128191   2.813   2.463   2.035 -0.0534  0.9144 -1.7340
 9409TIP3    H228192   2.723   2.344   2.008  0.5294 -0.1675  0.8131
 9410TIP3   OH228193   2.314   6.715   2.347  0.0311  0.1122  0.2065
 9410TIP3    H128194   2.381   6.698   2.413  0.2822 -0.4762 -0.1923
 9410TIP3    H228195   2.305   6.811   2.346 -1.7642  0.0813  2.8328
 9411TIP3   OH228196   5.533   5.539   4.115  0.3134  0.1714 -0.1206
 9411TIP3    H128197   5.473   5.614   4.122  0.4410  0.2923 -0.3354
 9411TIP3    H228198   5.475   5.463   4.105  0.1904  0.2663 -0.1342
 9412TIP3   OH228199   2.979   3.435   1.490  0.1523 -0.4180 -0.0733
 9412TIP3    H128200   2.896   3.398   1.459 -0.2028 -0.0232  0.3756
 9412TIP3    H228201   3.023   3.363   1.534 -0.4642 -0.3713  0.6608
 9413TIP3   OH228202   4.661   5.828   5.863 -0.1555  0.7985  0.1780
 9413TIP3    H128203   4.689   5.745   5.823  0.3379  1.8392 -1.7959
 9413TIP3    H228204   4.743   5.873   5.884 -0.4144  0.9560  0.8616
 9414TIP3   OH228205   2.305   0.978   2.834  0.4133  0.2907 -0.0397
 9414TIP3    H128206   2.356   1.059   2.841  0.2292  0.2952  1.5958
 9414TIP3    H228207   2.249   0.991   2.757  2.2874  0.5929 -1.4446
 9415TIP3   OH228208   5.069   5.257   3.625  0.4758  0.4400  0.2282
 9415TIP3    H128209   5.130   5.304   3.568 -0.7059  1.6880 -0.0626
 9415TIP3    H228210   5.001   5.322   3.646 -0.9677 -1.0124  0.1990
 9416TIP3   OH228211   0.919   2.672   2.952  0.6143  0.2677  0.1473
 9416TIP3    H128212   0.929   2.760   2.989 -1.7193  1.0257 -0.8190
 9416TIP3    H228213   0.846   2.634   3.002  0.1379 -0.2467 -0.9221
 9417TIP3   OH228214   7.108   6.407   1.766 -0.1837 -0.0180 -0.0501
 9417TIP3    H128215   7.115   6.341   1.835 -1.8986  0.6964  0.8663
 9417TIP3    H228216   7.179   6.386   1.706  2.3565  0.2466  2.6477
 9418TIP3   OH228217   2.534   2.028   0.417 -0.1578  0.0888 -0.3020
 9418TIP3    H128218   2.490   2.004   0.336  1.2141 -0.1477 -1.0076
 9418TIP3    H228219   2.594   1.955   0.435 -0.3153  0.2157  0.8298
 9419TIP3   OH228220   4.735   4.120   4.476 -0.2227 -0.0178  0.4020
 9419TIP3    H128221   4.721   4.069   4.556 -0.8557  0.3839  0.5568
 9419TIP3    H228222   4.648   4.149   4.451 -0.0870 -0.5359 -0.7105
 9420TIP3   OH228223   4.526   4.166   0.179 -0.0506  0.1114 -0.5369
 9420TIP3    H128224   4.554   4.074   0.178 -0.4690 -0.0573  1.1001
 9420TIP3    H228225   4.432   4.162   0.160  0.2709  0.3793 -2.3306
 9421TIP3   OH228226   3.936   1.563   3.652 -0.1698 -0.0415  0.2338
 9421TIP3    H128227   3.986   1.612   3.587  0.5178  0.5387  1.1717
 9421TIP3    H228228   3.882   1.504   3.601  0.2582  0.4904 -0.8685
 9422TIP3   OH228229   1.581   2.350   4.537  0.1695  0.1906  0.1461
 9422TIP3    H128230   1.579   2.280   4.472  1.5799 -0.2524  0.5432
 9422TIP3    H228231   1.584   2.303   4.621  2.4794  0.6520  0.3817
 9423TIP3   OH228232   5.110   6.154   0.528  0.6211 -0.3918  0.1676
 9423TIP3    H128233   5.029   6.104   0.533  0.3653 -0.2486 -1.8455
 9423TIP3    H228234   5.085   6.244   0.546  0.7714 -0.6740  1.9421
 9424TIP3   OH228235   0.563   0.095   3.925  0.2661  0.2499  0.4906
 9424TIP3    H128236   0.505   0.143   3.984  1.6397  1.3820  0.9674
 9424TIP3    H228237   0.625   0.051   3.983  0.3891 -0.2869 -0.0411
 9425TIP3   OH228238   3.914   4.527   2.800  0.0528 -0.4443 -0.1775
 9425TIP3    H128239   3.865   4.503   2.720 -0.4569 -3.1842  0.8315
 9425TIP3    H228240   3.941   4.443   2.837  1.9623  0.8403  1.5487
 9426TIP3   OH228241   4.465   0.238   0.179 -0.4969 -0.0446 -0.1656
 9426TIP3    H128242   4.540   0.287   0.146 -1.7058  1.5456 -0.5994
 9426TIP3    H228243   4.505   0.162   0.222  1.3970  1.0300  0.1002
 9427TIP3   OH228244   4.006   0.400   3.526  0.2558  0.1837 -0.1835
 9427TIP3    H128245   4.035   0.492   3.531  1.8355 -0.1236 -2.1980
 9427TIP3    H228246   3.911   0.405   3.529  0.1907  2.1347 -2.4367
 9428TIP3   OH228247   6.413   1.296   2.841 -0.0811  0.4179 -0.0052
 9428TIP3    H128248   6.462   1.286   2.759 -0.5770 -0.2498 -0.2246
 9428TIP3    H228249   6.440   1.382   2.875 -1.3718  1.6222 -1.8599
 9429TIP3   OH228250   0.963   3.597   2.563 -0.5173  0.3118  0.0031
 9429TIP3    H128251   0.995   3.671   2.614  2.3806 -0.8256  0.0377
 9429TIP3    H228252   0.940   3.531   2.628  0.1645 -0.0016 -0.0613
 9430TIP3   OH228253   3.050   3.817   0.978 -0.1044  0.9945  0.3536
 9430TIP3    H128254   3.002   3.743   0.940 -0.1828  1.3204 -0.1891
 9430TIP3    H228255   3.060   3.878   0.906  1.7386  0.6500  0.2795
 9431TIP3   OH228256   0.813   6.744   0.066  0.4106 -0.5029  0.1003
 9431TIP3    H128257   0.825   6.739   0.161  0.7578  0.6858  0.1293
 9431TIP3    H228258   0.801   6.837   0.048 -0.9782 -0.8451 -0.8772
 9432TIP3   OH228259   3.256   0.637   3.427  0.2093  0.3209  0.0199
 9432TIP3    H128260   3.261   0.544   3.450  0.6267 -0.0719 -1.5375
 9432TIP3    H228261   3.163   0.653   3.409  0.2782 -0.0759 -0.7281
 9433TIP3   OH228262   5.589   4.351   2.426  0.4362 -0.4842 -0.1889
 9433TIP3    H128263   5.592   4.385   2.515  0.5977 -0.9662 -0.0038
 9433TIP3    H228264   5.681   4.349   2.398  0.4625 -1.0249 -0.0884
 9434TIP3   OH228265   3.656   3.261   2.424  0.0969  0.2629  0.1819
 9434TIP3    H128266   3.675   3.265   2.330 -0.3912  0.9069  0.1019
 9434TIP3    H228267   3.560   3.259   2.428  0.0601 -3.2625  0.5517
 9435TIP3   OH228268   4.136   1.953   5.634  0.2639 -0.0996 -0.1777
 9435TIP3    H128269   4.175   1.879   5.680  1.2280 -0.0640 -0.8922
 9435TIP3    H228270   4.211   2.010   5.614 -0.3144  0.5211 -0.6143
 9436TIP3   OH228271   3.445   0.857   5.289  0.4589  0.0873  0.1434
 9436TIP3    H128272   3.475   0.940   5.252 -0.9725  0.5534 -0.0117
 9436TIP3    H228273   3.356   0.874   5.320  0.5550 -1.0819  1.1706
 9437TIP3   OH228274   3.532   2.295   5.096 -0.5561  0.5455  0.1539
 9437TIP3    H128275   3.583   2.362   5.051 -0.3291  0.0678 -0.3157
 9437TIP3    H228276   3.593   2.256   5.159 -0.7794  0.9921  0.6492
 9438TIP3   OH228277   2.205   2.719   1.734 -0.6063 -0.2543  0.7611
 9438TIP3    H128278   2.148   2.750   1.804 -0.3853  0.3092  0.6975
 9438TIP3    H228279   2.181   2.773   1.658  0.0185 -0.0045  0.7388
 9439TIP3   OH228280   0.753   5.338   5.840  0.4470 -0.1540 -0.0680
 9439TIP3    H128281   0.822   5.354   5.904 -1.0152  3.0840  0.9033
 9439TIP3    H228282   0.766   5.405   5.773 -1.5702  0.4406  0.0602
 9440TIP3   OH228283   0.619   5.607   2.160 -0.0762  0.1999 -0.3022
 9440TIP3    H128284   0.619   5.512   2.150 -2.2585  0.2454 -1.2977
 9440TIP3    H228285   0.572   5.623   2.242  1.1913  0.4284  0.4105
 9441TIP3   OH228286   2.010   4.243   5.354 -0.1345  0.1115  0.7441
 9441TIP3    H128287   2.048   4.163   5.318  0.7543  0.1461  1.5533
 9441TIP3    H228288   1.949   4.213   5.421 -1.7566  0.0481 -0.6945
 9442TIP3   OH228289   1.023   0.690   5.445  0.3439  0.3043  0.6625
 9442TIP3    H128290   0.955   0.628   5.473  1.7694 -0.9235  1.5667
 9442TIP3    H228291   1.015   0.693   5.350 -0.6584 -0.1925  0.7133
 9443TIP3   OH228292   6.796   5.458   0.040  0.1504 -0.2616  0.0750
 9443TIP3    H128293   6.714   5.421   0.074  0.5107  0.3336  1.6469
 9443TIP3    H228294   6.768   5.534  -0.011 -0.2254  0.8027  1.7910
 9444TIP3   OH228295   1.990   4.960   1.600  0.3907  0.8039 -0.1075
 9444TIP3    H128296   2.084   4.965   1.584  0.8454 -0.4652  1.8691
 9444TIP3    H228297   1.958   5.050   1.586  1.7210  1.0912 -1.5682
 9445TIP3   OH228298   2.101   6.400   3.501 -0.2119 -0.2187  0.5192
 9445TIP3    H128299   2.027   6.374   3.446 -0.5951  1.6259  0.0934
 9445TIP3    H228300   2.158   6.449   3.442  1.1715 -1.2430  0.9523
 9446TIP3   OH228301   4.143   1.593   2.605  0.2720 -0.5409  0.1806
 9446TIP3    H128302   4.205   1.534   2.647  0.6796 -0.4072 -0.2226
 9446TIP3    H228303   4.197   1.664   2.570 -0.1299 -0.3128  0.0154
 9447TIP3   OH228304   3.115   3.571   2.544 -0.2648  0.2767 -0.4866
 9447TIP3    H128305   3.155   3.532   2.621  0.4830 -1.5362 -1.7111
 9447TIP3    H228306   3.180   3.635   2.514 -0.7923  1.3818  0.6322
 9448TIP3   OH228307   5.578   0.139   2.569  0.0471  0.9120  0.6493
 9448TIP3    H128308   5.642   0.185   2.514 -0.0956  0.2131 -0.1219
 9448TIP3    H228309   5.588   0.047   2.545 -1.2857  0.7919  0.4687
 9449TIP3   OH228310   2.279   3.758   1.575  0.2669  0.3239 -0.1109
 9449TIP3    H128311   2.217   3.829   1.593  0.8258  1.3582 -1.9242
 9449TIP3    H228312   2.226   3.680   1.566 -0.5699  0.8570  0.1313
 9450TIP3   OH228313   0.426   0.760   3.981 -0.2054 -0.1460  0.2253
 9450TIP3    H128314   0.510   0.785   4.021 -0.2656 -0.7920  0.7775
 9450TIP3    H228315   0.435   0.786   3.890  1.0235 -1.1742  0.0225
 9451TIP3   OH228316   3.505   2.722   5.810 -0.3687  0.6778  0.0142
 9451TIP3    H128317   3.456   2.641   5.794  2.2120 -0.7283 -1.3667
 9451TIP3    H228318   3.496   2.737   5.904 -1.3991 -0.8816  0.2034
 9452TIP3   OH228319   2.990   3.578   4.192  0.5139 -0.4442  0.0486
 9452TIP3    H128320   3.008   3.647   4.256 -0.3096  0.6373 -0.8597
 9452TIP3    H228321   3.020   3.497   4.235  2.2642  0.5501  0.8099
 9453TIP3   OH228322   5.038   6.045   4.480 -0.0198  0.6666  0.1126
 9453TIP3    H128323   4.952   6.014   4.507  0.7573 -0.2040  1.7224
 9453TIP3    H228324   5.020   6.124   4.429 -1.9243 -1.1182 -2.1801
 9454TIP3   OH228325   6.547   4.039   2.709 -0.1302 -0.0831 -0.1994
 9454TIP3    H128326   6.583   4.127   2.711  0.1551 -0.1674 -0.9964
 9454TIP3    H228327   6.463   4.048   2.663 -0.4360 -0.1180  0.3468
 9455TIP3   OH228328   6.871   4.708   0.514 -0.2097  0.1535  0.2417
 9455TIP3    H128329   6.885   4.731   0.422 -0.9106 -0.4295 -0.0206
 9455TIP3    H228330   6.864   4.613   0.515 -0.3658  0.1630  0.8810
 9456TIP3   OH228331   2.882   3.168   3.359  0.5141  0.4911  0.1775
 9456TIP3    H128332   2.839   3.114   3.292  1.7801 -0.2418 -0.0784
 9456TIP3    H228333   2.971   3.178   3.327  0.9378  0.7693  1.4009
 9457TIP3   OH228334   3.356   6.596   4.113  0.2893  0.0276 -0.2390
 9457TIP3    H128335   3.411   6.636   4.180  2.0243 -1.1819 -0.8711
 9457TIP3    H228336   3.403   6.609   4.031  0.0160 -1.6529 -0.7062
 9458TIP3   OH228337   0.147   0.171   3.388  0.3040  0.2937 -0.1294
 9458TIP3    H128338   0.171   0.111   3.459 -0.8793 -1.2220 -0.9648
 9458TIP3    H228339   0.208   0.244   3.397  0.9534 -0.4247  1.7101
 9459TIP3   OH228340   6.103   0.354   2.547 -0.8239  0.1883 -0.3541
 9459TIP3    H128341   6.060   0.273   2.520 -1.3937  0.3344  0.0836
 9459TIP3    H228342   6.187   0.327   2.582 -1.0612 -0.2314 -0.0965
 9460TIP3   OH228343   4.796   0.864   0.663  0.0401 -0.0656 -0.6434
 9460TIP3    H128344   4.868   0.923   0.683  0.1430 -0.0495 -1.0650
 9460TIP3    H228345   4.753   0.903   0.587 -2.1017  1.4438  1.2149
 9461TIP3   OH228346   5.034   1.613   1.088 -0.5030  0.2055  0.3313
 9461TIP3    H128347   4.949   1.569   1.087 -1.2163  1.5219  0.6695
 9461TIP3    H228348   5.095   1.547   1.123 -1.5827 -0.4078  1.1136
 9462TIP3   OH228349   2.870   1.884   1.767  0.1304  0.4612 -0.0108
 9462TIP3    H128350   2.844   1.968   1.803 -0.1663  1.2342 -1.9339
 9462TIP3    H228351   2.966   1.884   1.770  0.2443  1.8159 -1.9156
 9463TIP3   OH228352   6.943   6.621   5.306  0.0678  0.1125  0.4250
 9463TIP3    H128353   6.852   6.651   5.299 -0.2766 -1.2584 -2.3559
 9463TIP3    H228354   6.937   6.526   5.313  1.2042 -0.4004 -3.3993
 9464TIP3   OH228355   6.777   2.837   3.640 -0.8039  0.0256 -0.3840
 9464TIP3    H128356   6.870   2.830   3.660 -1.0862  0.4544  1.2437
 9464TIP3    H228357   6.754   2.754   3.598 -0.3922 -1.5582  2.3358
 9465TIP3   OH228358   1.896   2.722   1.114  0.4881 -0.5954  0.2355
 9465TIP3    H128359   1.846   2.790   1.160  0.1511 -0.6487 -0.0521
 9465TIP3    H228360   1.868   2.640   1.155  0.3474 -0.6247  0.0800
 9466TIP3   OH228361   1.151   5.403   3.586  0.1644 -0.2887  0.2375
 9466TIP3    H128362   1.242   5.434   3.588  0.1671  0.0055 -1.7572
 9466TIP3    H228363   1.143   5.358   3.502 -0.7655 -2.9437  1.6336
 9467TIP3   OH228364   6.963   0.901   1.335  0.0664  0.5463 -0.2172
 9467TIP3    H128365   6.899   0.891   1.405 -1.3123  0.5024 -1.4265
 9467TIP3    H228366   6.979   0.812   1.303 -1.1155  0.7489 -1.4656
 9468TIP3   OH228367   2.841   5.483   1.291  0.1953 -0.5225 -0.4785
 9468TIP3    H128368   2.817   5.538   1.216  1.1539 -0.1519 -0.5352
 9468TIP3    H228369   2.769   5.421   1.299 -0.5327  0.2409 -0.9106
 9469TIP3   OH228370   2.285   4.468   1.536  0.1441 -0.0575  0.1674
 9469TIP3    H128371   2.284   4.556   1.499 -1.3375  0.6989  1.8060
 9469TIP3    H228372   2.223   4.418   1.482  0.9996 -0.1082 -0.7742
 9470TIP3   OH228373   7.070   2.822   2.280  0.3148  0.2700  0.2011
 9470TIP3    H128374   7.120   2.809   2.361  0.6542 -0.4166 -0.1130
 9470TIP3    H228375   7.106   2.758   2.219  0.4932  1.2070 -0.7021
 9471TIP3   OH228376   0.558   0.125   0.738 -0.5107 -0.0882 -0.1888
 9471TIP3    H128377   0.607   0.071   0.676 -0.5072 -0.8226  0.4398
 9471TIP3    H228378   0.614   0.200   0.754  1.3105 -1.7580  1.9250
 9472TIP3   OH228379   1.593   1.632   0.458 -0.4235  0.1594  0.1138
 9472TIP3    H128380   1.569   1.712   0.505 -0.9412  0.0014  0.1209
 9472TIP3    H228381   1.554   1.561   0.509 -0.0839 -0.0868  0.0295
 9473TIP3   OH228382   6.625   5.896   3.322  0.0895  0.4231  0.4746
 9473TIP3    H128383   6.678   5.894   3.402  0.7002 -1.2279  0.0784
 9473TIP3    H228384   6.637   5.985   3.288  1.0002  0.7041  1.4534
 9474TIP3   OH228385   2.801   4.609   5.443  0.7224  0.5176  0.4644
 9474TIP3    H128386   2.852   4.552   5.501  0.7357  1.8124  1.8045
 9474TIP3    H228387   2.723   4.559   5.421  1.9608 -1.0261 -0.6147
 9475TIP3   OH228388   0.847   4.550   1.084  0.1367 -0.1328  0.0299
 9475TIP3    H128389   0.901   4.535   1.162 -0.2382 -1.1456  0.1141
 9475TIP3    H228390   0.764   4.508   1.104  0.0285 -0.3854 -0.9037
 9476TIP3   OH228391   6.816   0.482   2.218 -0.4059 -0.3186  0.1302
 9476TIP3    H128392   6.836   0.452   2.129  0.6146  0.7420 -0.0214
 9476TIP3    H228393   6.809   0.401   2.269 -0.1017 -0.9074 -0.7307
 9477TIP3   OH228394   0.823   6.802   2.892  0.3707 -0.3875  0.5607
 9477TIP3    H128395   0.763   6.750   2.839 -0.3791 -0.2852  1.2891
 9477TIP3    H228396   0.848   6.744   2.964  0.6841 -0.2285  0.5834
 9478TIP3   OH228397   5.545   2.206   0.105  0.8053 -0.0225 -0.3267
 9478TIP3    H128398   5.487   2.134   0.131 -0.3662  1.3139  0.9393
 9478TIP3    H228399   5.558   2.193   0.011 -2.2462  0.0548 -0.8614
 9479TIP3   OH228400   4.421   3.090   1.183  0.4756 -0.1553 -0.2187
 9479TIP3    H128401   4.468   3.065   1.104  2.2519  1.8181  0.1367
 9479TIP3    H228402   4.489   3.117   1.244 -1.0592  2.5309  0.4369
 9480TIP3   OH228403   0.789   2.683   4.565 -0.6960 -0.5211 -0.4268
 9480TIP3    H128404   0.791   2.677   4.470 -0.3440 -0.3236 -0.4319
 9480TIP3    H228405   0.862   2.628   4.594  0.8271  1.3880 -0.3731
 9481TIP3   OH228406   6.229   4.695   5.433 -0.1268  0.1665 -0.5937
 9481TIP3    H128407   6.265   4.690   5.521 -3.0675 -0.9326  0.6699
 9481TIP3    H228408   6.277   4.628   5.384 -0.5435 -1.4200  1.0504
 9482TIP3   OH228409   3.444   0.703   1.562  0.2231 -0.1841  0.2388
 9482TIP3    H128410   3.450   0.761   1.486  1.5652 -0.3062  0.2226
 9482TIP3    H228411   3.372   0.739   1.614 -0.5786  0.0270 -0.9691
 9483TIP3   OH228412   0.180   3.754   5.552  0.0438 -0.4670 -0.5588
 9483TIP3    H128413   0.144   3.795   5.630  3.7799  0.0754  1.0898
 9483TIP3    H228414   0.140   3.803   5.479 -0.4598  1.8516  1.1391
 9484TIP3   OH228415   3.694   5.400   2.374  0.4603 -0.4521 -0.0898
 9484TIP3    H128416   3.773   5.404   2.320 -0.0676 -0.2023 -0.8647
 9484TIP3    H228417   3.681   5.307   2.392  0.9653 -0.4873  0.0996
 9485TIP3   OH228418   1.001   2.418   0.983 -0.6477  0.1449 -0.3984
 9485TIP3    H128419   1.088   2.455   0.968 -0.6135  1.0102  1.5724
 9485TIP3    H228420   1.015   2.324   0.989  0.2553  0.3120  0.3855
 9486TIP3   OH228421   3.763   3.933   1.144 -0.2421 -0.2343 -0.2422
 9486TIP3    H128422   3.769   3.862   1.080 -0.3321 -0.9987  0.5805
 9486TIP3    H228423   3.669   3.953   1.148 -0.2816 -0.4350 -0.1005
 9487TIP3   OH228424   1.648   0.135   3.750 -0.4524 -0.2241  0.0217
 9487TIP3    H128425   1.665   0.228   3.732 -2.4798 -0.2759 -2.8601
 9487TIP3    H228426   1.727   0.090   3.721  0.2005  0.5183  0.6158
 9488TIP3   OH228427   6.089   3.562   0.904 -0.2157 -0.0784  0.5967
 9488TIP3    H128428   6.135   3.596   0.981  0.2273  0.5091  0.0830
 9488TIP3    H228429   6.041   3.638   0.870  2.0930  0.5147 -1.5306
 9489TIP3   OH228430   6.747   2.256   4.471  0.5694  0.0515  0.1600
 9489TIP3    H128431   6.745   2.318   4.398  0.6819  0.6589  0.6637
 9489TIP3    H228432   6.723   2.172   4.432  0.2252  0.4480 -0.4963
 9490TIP3   OH228433   0.792   6.759   0.683  0.1649  0.1165 -0.1739
 9490TIP3    H128434   0.825   6.684   0.635  0.1370 -1.2759  1.8733
 9490TIP3    H228435   0.757   6.723   0.764 -0.3204  2.2869  0.6628
 9491TIP3   OH228436   2.049   0.171   0.491  0.2612  0.3691 -0.4494
 9491TIP3    H128437   2.115   0.238   0.504  0.8777  0.0676 -1.7655
 9491TIP3    H228438   1.977   0.216   0.446 -0.6347  0.7872  1.3433
 9492TIP3   OH228439   0.823   1.190   4.632 -0.6637 -0.0803  0.4639
 9492TIP3    H128440   0.741   1.185   4.680 -0.6034 -0.4766  0.5292
 9492TIP3    H228441   0.835   1.102   4.595 -0.7656  0.2430 -0.3716
 9493TIP3   OH228442   1.193   2.484   4.675  0.1509  0.1170  0.2363
 9493TIP3    H128443   1.215   2.441   4.758  1.7969 -0.4797 -0.4481
 9493TIP3    H228444   1.202   2.414   4.609 -0.4582  0.7333 -0.5190
 9494TIP3   OH228445   3.806   3.656   2.533  0.3532 -0.1227  0.3546
 9494TIP3    H128446   3.833   3.569   2.503 -0.1904 -0.3178  0.4222
 9494TIP3    H228447   3.888   3.703   2.548  0.6467 -0.5536  0.1126
 9495TIP3   OH228448   6.025   0.331   5.043  0.0359 -0.1819  0.7993
 9495TIP3    H128449   6.007   0.340   5.136  1.0941  0.6200  0.9409
 9495TIP3    H228450   6.108   0.284   5.038  0.0186 -0.1664  0.2698
 9496TIP3   OH228451   1.953   3.624   4.771  0.2869  0.1187  0.7885
 9496TIP3    H128452   1.937   3.531   4.791 -1.4272  0.5837  1.7942
 9496TIP3    H228453   1.953   3.628   4.676 -0.8200 -0.7628  0.7179
 9497TIP3   OH228454   6.128   5.911   0.137 -0.2722 -0.2204 -0.5649
 9497TIP3    H128455   6.184   5.884   0.065 -0.6841 -1.3425 -0.4883
 9497TIP3    H228456   6.119   5.833   0.191 -1.5323  0.0585 -0.3310
 9498TIP3   OH228457   1.686   5.405   4.131  0.2638  0.2875  0.1210
 9498TIP3    H128458   1.661   5.427   4.221 -1.4586  1.6035 -0.6241
 9498TIP3    H228459   1.611   5.355   4.097  0.7394  0.1240 -0.7035
 9499TIP3   OH228460   2.123   5.335   0.208  0.0452 -0.3621 -0.5849
 9499TIP3    H128461   2.173   5.416   0.197  0.4101 -0.6648 -1.1792
 9499TIP3    H228462   2.034   5.364   0.225 -0.0142  0.1605 -1.7004
 9500TIP3   OH228463   5.957   5.228   5.495 -0.4582 -0.0314  0.5226
 9500TIP3    H128464   6.048   5.220   5.523 -0.3347 -0.4120  0.0239
 9500TIP3    H228465   5.957   5.198   5.404 -0.8925  0.9287  0.1843
 9501TIP3   OH228466   3.928   3.947   1.721  0.1690  0.0395  0.3675
 9501TIP3    H128467   3.900   3.861   1.751 -1.3000  1.0443  2.0911
 9501TIP3    H228468   4.014   3.960   1.761 -0.6592  0.3138  2.1750
 9502TIP3   OH228469   3.986   1.676   5.218 -0.1071  0.1469  0.3722
 9502TIP3    H128470   4.046   1.742   5.253 -3.1205  1.9844  2.5868
 9502TIP3    H228471   3.979   1.611   5.288  0.0955 -0.6156 -0.3049
 9503TIP3   OH228472   5.719   1.311   3.678  0.1432  0.4176 -0.0157
 9503TIP3    H128473   5.768   1.340   3.601 -1.7628  2.2258 -0.6589
 9503TIP3    H228474   5.691   1.222   3.657  1.3676  0.1137 -0.4805
 9504TIP3   OH228475   1.048   6.005   0.217  0.2198  0.9079  0.0815
 9504TIP3    H128476   1.090   5.919   0.212 -0.0970  0.7401  0.2499
 9504TIP3    H228477   0.957   5.988   0.193  0.1267  1.1785  0.2422
 9505TIP3   OH228478   1.080   3.324   5.764  0.0431 -0.3316 -0.1460
 9505TIP3    H128479   1.091   3.416   5.743  0.9793  0.1900  2.2432
 9505TIP3    H228480   1.130   3.312   5.845  0.4734 -3.0847 -0.7087
 9506TIP3   OH228481   1.432   4.183   5.332  0.0341 -0.5651  0.4241
 9506TIP3    H128482   1.406   4.102   5.375 -0.0050  0.1315  1.7791
 9506TIP3    H228483   1.353   4.212   5.286  0.4576 -2.0124 -1.3265
 9507TIP3   OH228484   1.323   0.707   5.870 -0.8661 -0.1611  0.0356
 9507TIP3    H128485   1.333   0.672   5.959  0.9365  1.2632  0.4525
 9507TIP3    H228486   1.345   0.633   5.813  2.4917 -0.0024  0.8778
 9508TIP3   OH228487   3.584   1.925   3.421  0.0133 -0.1584 -0.5064
 9508TIP3    H128488   3.504   1.936   3.372 -1.2027  1.5961  1.6875
 9508TIP3    H228489   3.654   1.929   3.356 -1.5988 -1.4822 -2.4298
 9509TIP3   OH228490   0.336   3.154   3.182 -0.2726  0.4340  0.3849
 9509TIP3    H128491   0.260   3.199   3.145  0.0316  1.0827  0.5441
 9509TIP3    H228492   0.319   3.153   3.277  0.4491  1.6124  0.5480
 9510TIP3   OH228493   2.337   2.557   5.848  0.2726  0.2861 -0.2610
 9510TIP3    H128494   2.396   2.597   5.911 -0.2592 -0.3338  0.6606
 9510TIP3    H228495   2.388   2.550   5.768  0.6864  1.8676 -0.1630
 9511TIP3   OH228496   5.701   5.731   5.520 -0.6233 -0.3436 -0.5854
 9511TIP3    H128497   5.714   5.638   5.502  1.7917 -0.3051  0.5388
 9511TIP3    H228498   5.611   5.736   5.553 -0.3399 -2.5267  0.7324
 9512TIP3   OH228499   3.599   2.687   4.532  0.3601  0.0612  0.3250
 9512TIP3    H128500   3.582   2.726   4.446 -1.1350  1.2740  1.1241
 9512TIP3    H228501   3.577   2.756   4.594 -2.1920 -1.9462  1.8267
 9513TIP3   OH228502   6.947   3.247   5.205 -0.0527  0.4796 -0.9786
 9513TIP3    H128503   7.009   3.269   5.136  2.0352 -1.5159  0.1328
 9513TIP3    H228504   6.999   3.242   5.285 -1.7381 -0.7095  0.1250
 9514TIP3   OH228505   1.196   5.973   4.925 -0.2242  0.5052  0.0255
 9514TIP3    H128506   1.144   5.900   4.960  1.8398 -1.2692 -0.3723
 9514TIP3    H228507   1.204   6.033   4.999  0.9624 -1.4095  1.5822
 9515TIP3   OH228508   3.715   5.619   0.059  0.2035  0.1305 -0.6898
 9515TIP3    H128509   3.638   5.676   0.063 -0.6581 -1.0051 -0.2469
 9515TIP3    H228510   3.681   5.537   0.021  1.0140 -0.6621  0.2472
 9516TIP3   OH228511   4.060   6.516   4.315 -0.6668 -0.0731 -0.1726
 9516TIP3    H128512   4.111   6.476   4.386 -0.3411  0.0308 -0.3448
 9516TIP3    H228513   3.988   6.560   4.359  0.1118  0.8913  0.1926
 9517TIP3   OH228514   6.532   3.796   4.317  0.2330  0.0717 -0.4451
 9517TIP3    H128515   6.554   3.704   4.333  1.7700  0.3799 -0.6124
 9517TIP3    H228516   6.573   3.817   4.233  0.0309  0.9493 -0.3391
 9518TIP3   OH228517   2.988   0.187   2.172  0.1399 -0.0631 -0.2137
 9518TIP3    H128518   2.992   0.260   2.110 -1.1897  0.4821  0.2972
 9518TIP3    H228519   3.023   0.223   2.254  0.7403 -0.4111 -0.3139
 9519TIP3   OH228520   5.147   5.851   0.575 -0.1813 -0.6852 -0.0364
 9519TIP3    H128521   5.095   5.884   0.648  0.2831  0.6412 -0.2794
 9519TIP3    H228522   5.099   5.878   0.497 -0.9326 -2.5097 -0.2727
 9520TIP3   OH228523   4.621   2.698   3.971 -0.3793 -0.7024  0.1473
 9520TIP3    H128524   4.663   2.784   3.964 -0.2164 -0.8376 -0.7013
 9520TIP3    H228525   4.593   2.692   4.062 -0.5037  0.3067  0.1896
 9521TIP3   OH228526   6.218   6.550   4.812 -0.5293 -0.1131  0.1586
 9521TIP3    H128527   6.201   6.527   4.903 -0.5790  1.1518  0.4891
 9521TIP3    H228528   6.131   6.556   4.772 -0.6307  1.2036  0.5285
 9522TIP3   OH228529   4.874   2.075   0.878 -0.0399 -0.0630  0.3581
 9522TIP3    H128530   4.909   2.003   0.930  1.1263  0.4724  0.3397
 9522TIP3    H228531   4.863   2.039   0.790 -1.1568 -0.7086  0.7385
 9523TIP3   OH228532   5.310   2.342   2.500 -0.0431  0.2127 -0.1879
 9523TIP3    H128533   5.257   2.309   2.573 -0.8780  0.7260 -0.5534
 9523TIP3    H228534   5.374   2.399   2.542 -0.6118  0.6217  0.1323
 9524TIP3   OH228535   6.025   4.467   0.254  0.0242 -0.2574  0.1192
 9524TIP3    H128536   6.050   4.400   0.191  0.5248 -0.3898  0.4498
 9524TIP3    H228537   6.102   4.523   0.263 -0.5600  0.6945 -0.5508
 9525TIP3   OH228538   0.442   3.463   0.361  0.2177 -0.2802  0.0726
 9525TIP3    H128539   0.351   3.440   0.382 -0.5377 -0.5217 -3.0164
 9525TIP3    H228540   0.452   3.553   0.392 -1.0406 -0.2801  0.5281
 9526TIP3   OH228541   5.227   3.044   2.843  0.3417  0.0842 -0.2910
 9526TIP3    H128542   5.269   3.045   2.758  0.3415  2.8954 -0.3513
 9526TIP3    H228543   5.273   2.976   2.892  2.3824  0.4649 -1.5682
 9527TIP3   OH228544   6.018   0.434   5.885 -0.1252 -0.4590  0.7148
 9527TIP3    H128545   6.022   0.526   5.913 -0.8216  0.4169 -1.7476
 9527TIP3    H228546   6.088   0.426   5.820  0.3499 -1.8735  1.3769
 9528TIP3   OH228547   1.498   4.167   3.717 -0.2997 -0.3306  0.1657
 9528TIP3    H128548   1.495   4.099   3.649 -1.6848  0.1943 -0.3241
 9528TIP3    H228549   1.592   4.187   3.726 -0.0907 -0.2287 -1.7920
 9529TIP3   OH228550   6.362   0.596   5.474  0.1945  0.7199  0.2860
 9529TIP3    H128551   6.429   0.631   5.533 -0.4591  1.5181  0.5826
 9529TIP3    H228552   6.393   0.620   5.386  1.1550 -0.4466  0.2797
 9530TIP3   OH228553   2.849   6.062   5.618 -0.1741  0.7999 -0.3488
 9530TIP3    H128554   2.917   6.113   5.663 -0.3842  2.7304 -2.0923
 9530TIP3    H228555   2.788   6.037   5.688  0.5852  1.9047  0.7436
 9531TIP3   OH228556   5.581   4.021   4.306 -0.3013 -0.7859  0.3383
 9531TIP3    H128557   5.550   4.082   4.239 -1.9040  1.0474  2.5657
 9531TIP3    H228558   5.675   4.038   4.311 -0.6116  1.1969  0.4938
 9532TIP3   OH228559   0.475   5.714   4.723 -0.2014 -0.5448  0.0372
 9532TIP3    H128560   0.570   5.721   4.712 -0.1957 -1.6211 -0.7264
 9532TIP3    H228561   0.444   5.804   4.719  0.7797 -0.1766  0.2973
 9533TIP3   OH228562   6.447   4.315   2.495  0.3644  0.2434 -0.1599
 9533TIP3    H128563   6.444   4.411   2.493  0.4443  0.3063  1.5565
 9533TIP3    H228564   6.362   4.287   2.461  0.1654  0.9286 -0.2305
 9534TIP3   OH228565   5.881   3.245   5.390 -0.1678 -0.3891  0.2846
 9534TIP3    H128566   5.835   3.308   5.445 -2.0056 -1.5466  0.1323
 9534TIP3    H228567   5.929   3.300   5.327 -1.3802  0.8800  0.4138
 9535TIP3   OH228568   6.273   5.305   1.196 -0.9170  0.2362  0.3550
 9535TIP3    H128569   6.278   5.394   1.162 -0.6811  1.0970  2.4536
 9535TIP3    H228570   6.242   5.252   1.123 -2.7384  2.3305 -0.4699
 9536TIP3   OH228571   4.557   0.238   3.089  0.4173  0.3272 -0.1222
 9536TIP3    H128572   4.489   0.174   3.109 -0.1256  1.0047  0.2234
 9536TIP3    H228573   4.637   0.202   3.129 -0.0653  0.2900  0.8324
 9537TIP3   OH228574   3.973   4.275   2.914  0.2645  0.3939  0.2054
 9537TIP3    H128575   4.031   4.218   2.863  1.9706  0.3156  2.0977
 9537TIP3    H228576   3.949   4.223   2.990 -1.7000  0.7322 -0.1468
 9538TIP3   OH228577   0.835   4.905   3.647  0.2071 -0.6571  0.1894
 9538TIP3    H128578   0.896   4.832   3.655  2.3581  1.0423  0.0783
 9538TIP3    H228579   0.883   4.973   3.599 -1.4886  1.0634  0.7681
 9539TIP3   OH228580   3.044   0.490   4.590 -0.1676 -0.0148 -0.3408
 9539TIP3    H128581   3.096   0.419   4.628 -0.9817 -0.1125  0.6366
 9539TIP3    H228582   3.036   0.555   4.661  1.0296  1.3375 -1.3809
 9540TIP3   OH228583   0.228   1.273   2.907  0.4199 -0.2227 -0.0670
 9540TIP3    H128584   0.289   1.200   2.898 -2.2054 -2.4443 -1.5820
 9540TIP3    H228585   0.220   1.309   2.819 -1.0182 -0.5618 -0.1094
 9541TIP3   OH228586   5.273   2.620   3.541  0.8366 -0.6330 -0.0426
 9541TIP3    H128587   5.308   2.597   3.627 -0.1474 -0.1180  0.5200
 9541TIP3    H228588   5.345   2.665   3.497  1.7477 -1.9720  0.0259
 9542TIP3   OH228589   5.671   4.405   2.046 -0.0875  0.1220 -0.4902
 9542TIP3    H128590   5.631   4.463   1.982  0.0677 -1.1728 -1.7890
 9542TIP3    H228591   5.637   4.436   2.130  1.6422  3.4946 -0.8151
 9543TIP3   OH228592   6.216   1.384   2.451  0.1816 -0.3060  0.7610
 9543TIP3    H128593   6.209   1.454   2.515 -0.3221  1.5527 -1.2105
 9543TIP3    H228594   6.309   1.380   2.429  0.0678  0.5886  0.0485
 9544TIP3   OH228595   6.296   0.755   2.962  0.3355 -0.2382  0.0816
 9544TIP3    H128596   6.325   0.674   2.920  1.2185  0.6856 -1.1645
 9544TIP3    H228597   6.333   0.825   2.908  1.2887  1.0211  2.2396
 9545TIP3   OH228598   6.351   0.779   0.476 -0.3528  0.2509  0.0816
 9545TIP3    H128599   6.401   0.845   0.429  0.4148 -0.5167 -0.2049
 9545TIP3    H228600   6.371   0.696   0.432 -1.5485 -0.1423  0.2260
 9546TIP3   OH228601   6.862   4.079   5.562 -0.7228  0.1625  0.2036
 9546TIP3    H128602   6.847   4.095   5.655  0.2966 -0.8604  0.5704
 9546TIP3    H228603   6.814   3.998   5.543  0.3962 -0.5352  0.2576
 9547TIP3   OH228604   6.656   6.741   1.837 -0.2434 -0.3623  0.8237
 9547TIP3    H128605   6.612   6.697   1.910 -0.1092 -4.0875 -1.0763
 9547TIP3    H228606   6.607   6.715   1.760  0.8312  1.7205 -0.6754
 9548TIP3   OH228607   6.200   5.074   4.801  0.3392  0.5589 -0.2116
 9548TIP3    H128608   6.231   5.153   4.846  0.3461  0.7162 -0.4903
 9548TIP3    H228609   6.280   5.026   4.782  0.2051 -1.0185  2.6448
 9549TIP3   OH228610   4.476   5.217   1.360 -0.0576  0.1780 -0.6814
 9549TIP3    H128611   4.566   5.230   1.329  0.3380 -0.7876  0.0307
 9549TIP3    H228612   4.428   5.292   1.324  1.4260  1.7528  0.4705
 9550TIP3   OH228613   0.562   3.367   2.966  0.4318  0.1614  0.4754
 9550TIP3    H128614   0.571   3.457   2.933 -0.1982  0.2127  0.4290
 9550TIP3    H228615   0.637   3.320   2.929  0.7014  0.6404  0.4059
 9551TIP3   OH228616   4.292   4.209   1.976 -0.0057  0.0096 -0.3458
 9551TIP3    H128617   4.387   4.200   1.982 -0.0751 -0.4454  0.0693
 9551TIP3    H228618   4.279   4.296   1.936  0.5983 -0.3746 -1.4113
 9552TIP3   OH228619   2.924   1.211   5.035 -0.3639  0.7368 -0.8322
 9552TIP3    H128620   2.892   1.152   4.967  0.0507 -0.4127 -0.0499
 9552TIP3    H228621   2.975   1.156   5.094  1.0712  2.0867 -0.7385
 9553TIP3   OH228622   1.885   0.002   5.296 -0.4670 -0.1140 -0.1570
 9553TIP3    H128623   1.914   0.049   5.218 -1.5428 -1.6314 -1.5487
 9553TIP3    H228624   1.811   0.053   5.328 -1.4213 -0.6075 -1.4680
 9554TIP3   OH228625   1.881   0.347   3.041  0.4315  0.5666  0.3092
 9554TIP3    H128626   1.902   0.297   3.120 -0.0739  0.3699  0.3253
 9554TIP3    H228627   1.786   0.337   3.032  0.4588  0.7716 -0.1991
 9555TIP3   OH228628   5.692   3.796   0.842 -0.3523 -0.0499  0.1843
 9555TIP3    H128629   5.779   3.798   0.803 -0.2038 -0.4622  0.4920
 9555TIP3    H228630   5.664   3.887   0.842  2.2044  1.0475  4.8577
 9556TIP3   OH228631   3.496   0.777   0.341  0.6383 -0.2128  0.2661
 9556TIP3    H128632   3.417   0.831   0.332  1.0857  0.5282  0.7261
 9556TIP3    H228633   3.502   0.731   0.257 -0.8908 -1.1264  0.6155
 9557TIP3   OH228634   0.802   0.534   2.587  0.0988  0.1995 -0.6278
 9557TIP3    H128635   0.752   0.554   2.508  0.2608 -0.9531 -1.0355
 9557TIP3    H228636   0.755   0.580   2.657 -1.2272 -0.4262 -1.0757
 9558TIP3   OH228637   1.404   4.941   1.871  0.1952  0.0846 -0.4015
 9558TIP3    H128638   1.463   4.967   1.943 -0.3731  0.4542 -0.0626
 9558TIP3    H228639   1.348   5.018   1.859  1.6173  0.8637 -2.6401
 9559TIP3   OH228640   0.641   2.024   3.498  0.1625 -0.0998  0.4054
 9559TIP3    H128641   0.644   2.058   3.409  1.9119 -0.4595  0.2849
 9559TIP3    H228642   0.606   1.935   3.488 -0.1112  0.0352  0.1457
 9560TIP3   OH228643   5.579   1.012   0.821  0.2250 -0.1723  0.0445
 9560TIP3    H128644   5.645   0.988   0.886  1.7130 -0.2078 -1.4033
 9560TIP3    H228645   5.627   1.014   0.738 -1.5564  0.0703 -1.0346
 9561TIP3   OH228646   1.009   1.200   5.063  0.5984  0.0911 -0.5113
 9561TIP3    H128647   0.989   1.106   5.069 -0.8527  0.2945 -1.5770
 9561TIP3    H228648   1.063   1.218   5.140  0.1534 -1.4345  0.1994
 9562TIP3   OH228649   5.732   1.882   4.132  0.0196  0.1008  0.0988
 9562TIP3    H128650   5.825   1.905   4.138  0.3249 -1.0608 -0.0178
 9562TIP3    H228651   5.701   1.931   4.056  0.8990 -0.6266 -0.7629
 9563TIP3   OH228652   1.413   1.170   3.492 -0.7705 -0.0177 -0.0787
 9563TIP3    H128653   1.329   1.189   3.535 -1.3469  0.1994 -1.2518
 9563TIP3    H228654   1.474   1.234   3.528 -1.7915  1.6975 -1.2342
 9564TIP3   OH228655   3.453   2.356   5.468 -0.3490  0.2140 -0.5722
 9564TIP3    H128656   3.524   2.384   5.526  0.8641 -1.8035 -0.9808
 9564TIP3    H228657   3.497   2.313   5.395 -1.9532 -1.0654 -0.8551
 9565TIP3   OH228658   4.346   0.756   2.076  0.1433 -0.5767  0.3193
 9565TIP3    H128659   4.439   0.736   2.059  0.2541  1.0815 -1.3305
 9565TIP3    H228660   4.342   0.773   2.170  1.7335  0.3121  0.2567
 9566TIP3   OH228661   3.523   1.666   2.317  0.2045 -0.2053  0.2463
 9566TIP3    H128662   3.567   1.585   2.292 -0.3160 -0.7109  0.9090
 9566TIP3    H228663   3.592   1.723   2.349  0.4565 -0.7663  0.7161
 9567TIP3   OH228664   6.347   4.783   3.776  0.4526 -0.1241 -0.5968
 9567TIP3    H128665   6.268   4.786   3.723 -1.2942 -0.3850  1.8374
 9567TIP3    H228666   6.388   4.869   3.763 -1.1957  0.7022 -0.5234
 9568TIP3   OH228667   6.896   4.046   4.286  0.0661 -0.2950  0.2916
 9568TIP3    H128668   6.908   4.117   4.223  1.2851 -1.6790 -1.1209
 9568TIP3    H228669   6.972   4.052   4.344 -0.8042  0.6759  1.3766
 9569TIP3   OH228670   3.249   3.575   1.072 -0.1783 -0.4686  0.3380
 9569TIP3    H128671   3.192   3.552   1.146  0.5130  0.0495  1.0507
 9569TIP3    H228672   3.199   3.549   0.995 -1.4076  0.0006  0.9352
 9570TIP3   OH228673   6.420  -0.016   5.375  0.0741  0.4318 -0.2624
 9570TIP3    H128674   6.496   0.041   5.390  0.1776 -0.2305  2.1727
 9570TIP3    H228675   6.346   0.044   5.368  0.5285  0.9929 -0.3484
 9571TIP3   OH228676   2.955   1.653   3.736  0.1909  0.0835  0.4159
 9571TIP3    H128677   2.985   1.579   3.684 -0.5029  1.4156 -2.0125
 9571TIP3    H228678   2.922   1.716   3.672 -2.4755  1.0699  2.5476
 9572TIP3   OH228679   1.011   4.060   3.695  0.1263 -0.3666  0.3210
 9572TIP3    H128680   0.963   4.062   3.612 -0.5585 -0.1041  0.7160
 9572TIP3    H228681   1.043   4.150   3.706 -0.2941 -0.2530  0.6315
 9573TIP3   OH228682   2.674   3.292   0.680 -0.2456  0.5601  0.1584
 9573TIP3    H128683   2.620   3.232   0.629 -0.3099  1.9541 -1.5245
 9573TIP3    H228684   2.629   3.376   0.675  0.2652  0.9688  1.7485
 9574TIP3   OH228685   1.392   2.718   0.570  0.3471  0.2705 -0.9064
 9574TIP3    H128686   1.387   2.626   0.544 -0.9561  0.2514 -0.6518
 9574TIP3    H228687   1.302   2.750   0.563  0.8081  1.5766 -1.1524
 9575TIP3   OH228688   2.729   0.074   1.827 -0.6323  0.5047 -0.1116
 9575TIP3    H128689   2.780   0.085   1.747 -1.7700 -0.5892 -1.0077
 9575TIP3    H228690   2.784   0.018   1.882  0.3808  1.6734  0.1240
 9576TIP3   OH228691   6.095   0.981   3.013  0.3859  0.7700  0.1576
 9576TIP3    H128692   6.006   1.016   3.018  0.0566 -0.1380  1.3111
 9576TIP3    H228693   6.146   1.049   2.970 -0.9020  1.2243 -0.6971
 9577TIP3   OH228694   5.055   4.174   0.524  0.1481  0.3817 -0.2990
 9577TIP3    H128695   5.025   4.264   0.519  2.4247  1.1785 -1.0780
 9577TIP3    H228696   4.995   4.125   0.468 -2.4649  0.9251  1.8200
 9578TIP3   OH228697   3.827   6.651   0.237  0.5780 -0.2593  0.2283
 9578TIP3    H128698   3.852   6.736   0.273  1.2848 -1.1598  2.0452
 9578TIP3    H228699   3.871   6.588   0.294  0.7659 -1.8498 -1.5683
 9579TIP3   OH228700   1.649   0.127   5.393  0.6701  0.0271 -0.6943
 9579TIP3    H128701   1.602   0.062   5.444 -0.6869  1.7972  0.4305
 9579TIP3    H228702   1.587   0.154   5.326  0.1339  2.0484  0.5217
 9580TIP3   OH228703   2.953   2.685   2.830 -0.3954 -0.2169  0.2759
 9580TIP3    H128704   2.908   2.608   2.795 -0.4833 -0.1652  0.2751
 9580TIP3    H228705   2.974   2.661   2.920 -0.0823 -0.3873  0.1569
 9581TIP3   OH228706   1.698   6.531   4.536 -0.0199 -0.2331  0.3773
 9581TIP3    H128707   1.678   6.623   4.515  0.0708 -0.6599 -1.8611
 9581TIP3    H228708   1.786   6.534   4.572  0.7581  0.4293 -1.4466
 9582TIP3   OH228709   2.495   5.441   3.967 -0.0869  0.4997  0.0304
 9582TIP3    H128710   2.588   5.449   3.944  0.3720 -0.3060  1.4449
 9582TIP3    H228711   2.477   5.347   3.961 -1.0827  0.7385 -1.1132
 9583TIP3   OH228712   4.524   4.486   1.306  0.2842  0.0166 -0.5666
 9583TIP3    H128713   4.445   4.467   1.355  1.4172 -0.3588  1.2134
 9583TIP3    H228714   4.580   4.533   1.368  1.3238  0.5953 -1.8824
 9584TIP3   OH228715   3.895   0.820   4.547 -0.6275 -0.0465 -0.5741
 9584TIP3    H128716   3.891   0.763   4.624 -0.5637 -0.6041 -0.9719
 9584TIP3    H228717   3.846   0.771   4.480  1.7724 -0.9681 -1.7650
 9585TIP3   OH228718   1.112   6.559   2.840  0.1495  0.3343  0.2265
 9585TIP3    H128719   1.049   6.630   2.829  0.2129  0.4866  0.8106
 9585TIP3    H228720   1.183   6.598   2.891 -0.5044 -0.5239  1.8822
 9586TIP3   OH228721   1.759   6.283   5.574 -0.1798  0.1566  0.3778
 9586TIP3    H128722   1.810   6.207   5.600 -0.1050  0.0662 -0.0186
 9586TIP3    H228723   1.668   6.257   5.587 -0.2011 -0.3653 -0.6845
 9587TIP3   OH228724   2.190   4.573   2.945  0.0618  0.1047  0.2441
 9587TIP3    H128725   2.183   4.667   2.930 -0.9900 -0.1050 -0.6452
 9587TIP3    H228726   2.147   4.533   2.870 -1.8658 -1.0489  1.8669
 9588TIP3   OH228727   6.574   3.428   3.911  0.6820  0.2549 -0.1128
 9588TIP3    H128728   6.561   3.427   3.816 -1.2241  0.8164  0.1148
 9588TIP3    H228729   6.628   3.506   3.927  1.6984 -0.2821 -0.7770
 9589TIP3   OH228730   3.300   2.963   1.609 -0.8212 -0.3326 -0.3509
 9589TIP3    H128731   3.387   2.935   1.636 -1.1003 -0.9847 -0.0959
 9589TIP3    H228732   3.277   3.034   1.669 -0.1451  0.3924 -0.9350
 9590TIP3   OH228733   0.788   5.056   2.258  0.1964 -0.4344 -0.5460
 9590TIP3    H128734   0.703   5.016   2.278  0.3891 -1.5209 -1.7824
 9590TIP3    H228735   0.770   5.150   2.258 -0.6772 -0.5700  0.5911
 9591TIP3   OH228736   0.395   0.540   3.475  0.3793 -0.1073  0.0646
 9591TIP3    H128737   0.487   0.561   3.488  0.2728  1.0041 -0.7798
 9591TIP3    H228738   0.395   0.462   3.420  0.8829  1.1779 -1.8806
 9592TIP3   OH228739   2.549   4.706   1.034  0.4779 -0.0427  0.0189
 9592TIP3    H128740   2.556   4.773   1.102 -0.6815  0.9511 -0.7992
 9592TIP3    H228741   2.458   4.679   1.036  0.4697 -0.1228 -1.0114
 9593TIP3   OH228742   7.111   1.385   2.731 -0.3341  0.5114 -0.4608
 9593TIP3    H128743   7.136   1.418   2.817  0.7404 -2.2163  0.3703
 9593TIP3    H228744   7.163   1.437   2.669 -0.2372  1.7005  0.5884
 9594TIP3   OH228745   2.180   4.374   4.363 -0.2798  0.4282 -0.4629
 9594TIP3    H128746   2.268   4.388   4.398 -0.9798  0.4358  1.4105
 9594TIP3    H228747   2.152   4.460   4.333  0.0494  0.5869 -0.3266
 9595TIP3   OH228748   4.054   6.684   0.959  0.6433  0.4226 -0.2861
 9595TIP3    H128749   4.069   6.770   0.997  0.8151 -0.3560  1.5083
 9595TIP3    H228750   4.117   6.627   1.003  0.8059 -0.5675 -1.7268
 9596TIP3   OH228751   5.982   5.702   3.225  0.2202 -0.5347  0.1949
 9596TIP3    H128752   6.048   5.718   3.292  0.1286  2.6060 -0.3169
 9596TIP3    H228753   5.899   5.704   3.271  0.2301  0.3903  0.1876
 9597TIP3   OH228754   3.693   0.829   5.423 -0.2332 -0.3880  0.3246
 9597TIP3    H128755   3.699   0.735   5.402 -0.4131 -0.8616  2.1906
 9597TIP3    H228756   3.602   0.852   5.404 -0.0154 -0.3978 -0.7980
 9598TIP3   OH228757   3.444   1.009   2.297  0.0537 -0.1503 -0.2082
 9598TIP3    H128758   3.466   1.093   2.338 -0.5657 -0.9857  1.9112
 9598TIP3    H228759   3.517   0.951   2.319 -0.7485 -0.8841  0.5781
 9599TIP3   OH228760   6.903   0.185   2.860  0.0450  0.4330  0.2725
 9599TIP3    H128761   6.851   0.261   2.887 -0.5010  0.4556 -0.7912
 9599TIP3    H228762   6.929   0.143   2.942 -0.9925  0.8650  0.8402
 9600TIP3   OH228763   6.251   2.557   2.903 -0.2160 -0.1848  0.2785
 9600TIP3    H128764   6.222   2.507   2.827 -0.1631  1.2308 -0.7192
 9600TIP3    H228765   6.329   2.603   2.873  0.2568 -0.1869  1.4403
 9601TIP3   OH228766   2.411   6.676   2.030 -0.0974  0.0062  0.6228
 9601TIP3    H128767   2.434   6.741   1.964 -1.7323  0.7985  0.7871
 9601TIP3    H228768   2.404   6.726   2.111 -0.6471 -0.5005  0.8911
 9602TIP3   OH228769   3.487   5.141   2.364  0.0070  0.2878  0.2959
 9602TIP3    H128770   3.563   5.088   2.387 -0.0111 -0.0998 -0.5018
 9602TIP3    H228771   3.414   5.100   2.412  0.0486 -0.2263 -0.0719
 9603TIP3   OH228772   2.949   4.879   4.394  0.2365  0.0084 -0.1542
 9603TIP3    H128773   3.030   4.908   4.436 -0.1108  1.4379 -0.4188
 9603TIP3    H228774   2.889   4.953   4.404  0.2450  0.6136 -3.5202
 9604TIP3   OH228775   0.690   1.377   3.495  0.0582 -0.4714  0.3080
 9604TIP3    H128776   0.742   1.448   3.458  1.9713 -0.8662  2.1137
 9604TIP3    H228777   0.605   1.418   3.514 -0.3967  0.2040 -2.5847
 9605TIP3   OH228778   2.272   3.356   2.323 -0.1632 -0.3448 -0.2486
 9605TIP3    H128779   2.263   3.428   2.261  0.6802 -1.4086 -1.6741
 9605TIP3    H228780   2.193   3.303   2.309 -1.3755  0.8369  1.6280
 9606TIP3   OH228781   4.189   1.331   4.686 -0.0570 -0.4755 -0.0060
 9606TIP3    H128782   4.197   1.389   4.761  0.1767  0.0894 -0.4547
 9606TIP3    H228783   4.127   1.375   4.628 -0.5614 -1.1120  0.0429
 9607TIP3   OH228784   3.219   5.833   0.738 -0.2380 -0.2725  0.0460
 9607TIP3    H128785   3.235   5.780   0.660 -1.0659 -0.1382 -0.2316
 9607TIP3    H228786   3.227   5.771   0.811 -0.8924 -0.7227 -0.2520
 9608TIP3   OH228787   2.475   3.430   1.914 -0.6626 -0.0533 -0.0793
 9608TIP3    H128788   2.411   3.500   1.921  0.7769  1.1696  2.8716
 9608TIP3    H228789   2.464   3.379   1.995  0.0752 -1.6524 -0.9303
 9609TIP3   OH228790   4.350   3.741   1.953 -0.3971  0.1820  0.2783
 9609TIP3    H128791   4.394   3.716   1.872 -0.3084 -0.1632  0.4299
 9609TIP3    H228792   4.421   3.767   2.012 -0.3915 -0.3193  0.5036
 9610TIP3   OH228793   2.483   1.459   5.058  0.2515 -0.2655  0.3348
 9610TIP3    H128794   2.566   1.448   5.011 -0.2333  0.6568 -0.8117
 9610TIP3    H228795   2.418   1.418   5.001 -0.2994  0.5275  0.3775
 9611TIP3   OH228796   1.836   4.925   4.687 -0.0191  0.0893  0.1511
 9611TIP3    H128797   1.835   5.019   4.673 -1.0359  0.0606 -0.0496
 9611TIP3    H228798   1.907   4.910   4.750  0.1673  0.9753  0.1552
 9612TIP3   OH228799   4.120   2.242   4.092 -0.0672  0.3359 -0.5276
 9612TIP3    H128800   4.197   2.202   4.133 -0.5588 -0.9580 -0.8280
 9612TIP3    H228801   4.069   2.276   4.166 -0.4983 -1.1795 -0.0813
 9613TIP3   OH228802   0.811   1.431   2.777 -0.1761  0.0616 -0.0090
 9613TIP3    H128803   0.794   1.424   2.683 -2.7023  3.8944 -0.0693
 9613TIP3    H228804   0.735   1.389   2.818 -1.5527  2.4860  0.0979
 9614TIP3   OH228805   5.691   3.255   0.531  0.4277 -0.3754  0.0524
 9614TIP3    H128806   5.637   3.333   0.543  0.9364 -0.3601  2.6887
 9614TIP3    H228807   5.652   3.211   0.455 -0.0410  2.2555 -1.3404
 9615TIP3   OH228808   6.168   6.601   4.371 -0.2754 -0.5800 -0.1458
 9615TIP3    H128809   6.244   6.643   4.332  0.0848 -1.1662 -0.0763
 9615TIP3    H228810   6.095   6.628   4.315 -0.2906  1.2982  0.7161
 9616TIP3   OH228811   1.310   6.070   3.960 -0.3020 -0.1885  0.4940
 9616TIP3    H128812   1.268   6.147   3.921  0.3922 -0.3844 -0.6795
 9616TIP3    H228813   1.292   5.999   3.898  2.0690 -0.1993 -0.2828
 9617TIP3   OH228814   1.937   1.148   1.666  0.6089  0.1219  0.0600
 9617TIP3    H128815   1.918   1.061   1.700 -0.8904  1.4874  3.0485
 9617TIP3    H228816   2.022   1.171   1.703  1.7543 -0.5670 -1.9757
 9618TIP3   OH228817   2.388   6.670   1.313 -0.3727 -0.0948  0.3615
 9618TIP3    H128818   2.478   6.654   1.341  0.6521  1.2497 -1.8291
 9618TIP3    H228819   2.361   6.588   1.271  0.0203 -0.3370  0.5775
 9619TIP3   OH228820   1.267   0.775   5.500  0.1081 -0.0814 -0.0827
 9619TIP3    H128821   1.264   0.858   5.548 -0.9630 -0.7760  1.0997
 9619TIP3    H228822   1.175   0.753   5.484  0.4036 -0.6946 -1.0009
 9620TIP3   OH228823   1.399   5.951   0.750 -0.3500  0.1350 -0.0920
 9620TIP3    H128824   1.446   6.034   0.755 -0.7671  0.3360  0.5291
 9620TIP3    H228825   1.321   5.964   0.804 -0.3699 -0.6910  0.0847
 9621TIP3   OH228826   4.261   4.642   5.330  0.2951 -0.4154  0.1730
 9621TIP3    H128827   4.169   4.642   5.304 -0.0287 -1.7074  1.1666
 9621TIP3    H228828   4.297   4.563   5.288  0.7068 -0.4277  0.5457
 9622TIP3   OH228829   5.988   2.968   5.099  0.8942 -0.2184  0.0793
 9622TIP3    H128830   5.951   3.016   5.025  1.4186 -0.8108 -0.5868
 9622TIP3    H228831   5.915   2.955   5.159  0.8619  2.0030  0.6308
 9623TIP3   OH228832   0.810   3.732   4.663 -0.2452  0.8275  0.3813
 9623TIP3    H128833   0.779   3.721   4.752 -0.8707 -0.4026  0.0315
 9623TIP3    H228834   0.736   3.706   4.608  0.5685  0.2579 -0.4769
 9624TIP3   OH228835   2.657   2.720   3.730  0.0751 -0.1524 -0.2018
 9624TIP3    H128836   2.615   2.643   3.694  0.0944 -0.4903  0.4876
 9624TIP3    H228837   2.585   2.779   3.753 -0.0016 -0.4570  0.3622
 9625TIP3   OH228838   4.306   0.800   0.835  0.3676 -0.4737 -0.4554
 9625TIP3    H128839   4.386   0.848   0.814 -0.2321  0.9688  0.4177
 9625TIP3    H228840   4.318   0.771   0.925 -0.8012  1.4096  0.3813
 9626TIP3   OH228841   2.949   3.344   2.634  0.3200  0.1185  0.0278
 9626TIP3    H128842   2.910   3.394   2.562 -0.4533  0.0420  0.3752
 9626TIP3    H228843   3.025   3.301   2.596 -0.3879 -0.3662 -0.8874
 9627TIP3   OH228844   0.075   2.990   3.424 -0.8220  0.3569 -0.3918
 9627TIP3    H128845   0.104   2.956   3.339 -1.8874  0.0043 -0.6289
 9627TIP3    H228846  -0.013   2.954   3.436 -0.5409  0.0657  1.0558
 9628TIP3   OH228847   2.501   0.797   0.373 -0.4114  0.5870 -0.0557
 9628TIP3    H128848   2.412   0.791   0.408 -0.1349  0.2990  0.6218
 9628TIP3    H228849   2.489   0.818   0.280 -1.1933  0.1888 -0.0545
 9629TIP3   OH228850   0.603   1.392   2.584  0.2806 -0.3969 -0.1497
 9629TIP3    H128851   0.552   1.313   2.567  0.7483 -1.0478  1.3275
 9629TIP3    H228852   0.596   1.405   2.679  1.0212  0.7789 -0.2386
 9630TIP3   OH228853   5.642   1.240   2.339  0.1124 -0.0061  1.0300
 9630TIP3    H128854   5.667   1.153   2.371  0.7080  0.4212  1.7665
 9630TIP3    H228855   5.717   1.296   2.362 -0.1608  0.6517  0.3444
 9631TIP3   OH228856   3.194   2.845   5.612 -0.7446  0.5193  0.6406
 9631TIP3    H128857   3.230   2.758   5.593 -0.2802  0.4881  1.5685
 9631TIP3    H228858   3.177   2.884   5.526  2.0961  0.7692  0.0784
 9632TIP3   OH228859   4.380   0.894   0.477  0.4750  0.3902  0.1057
 9632TIP3    H128860   4.296   0.935   0.498  0.3888  0.0760  0.3664
 9632TIP3    H228861   4.444   0.965   0.486  0.4503  0.2584  1.4482
 9633TIP3   OH228862   6.704   2.086   5.394  0.0022 -0.1765 -0.6756
 9633TIP3    H128863   6.787   2.067   5.437  0.2943  0.5091 -0.9129
 9633TIP3    H228864   6.706   2.034   5.314  0.4520  0.2395 -0.9462
 9634TIP3   OH228865   1.053   1.081   4.819  0.0212 -0.2149  0.1520
 9634TIP3    H128866   0.961   1.061   4.799 -0.7360  1.5787  1.5235
 9634TIP3    H228867   1.048   1.137   4.896  2.3419 -0.6593  0.6880
 9635TIP3   OH228868   6.408   2.925   5.492 -0.0015  0.0847 -0.4481
 9635TIP3    H128869   6.409   2.892   5.402 -0.4138 -0.8181 -0.1351
 9635TIP3    H228870   6.317   2.918   5.519  0.4973 -2.1780  0.9214
 9636TIP3   OH228871   5.657   4.029   5.748 -0.3430 -0.0211  0.5417
 9636TIP3    H128872   5.738   4.079   5.750 -0.4563  0.1630  0.6019
 9636TIP3    H228873   5.612   4.059   5.669 -0.1040 -0.5194  0.2107
 9637TIP3   OH228874   5.743   6.617   5.223 -0.0393 -0.1090 -0.0121
 9637TIP3    H128875   5.739   6.685   5.155  1.3901 -0.3566 -0.3824
 9637TIP3    H228876   5.762   6.536   5.175 -0.6713 -0.5813  0.5248
 9638TIP3   OH228877   6.531   5.146   0.443  0.1327  0.0152 -0.2155
 9638TIP3    H128878   6.589   5.194   0.503  1.6400 -1.2947 -0.5555
 9638TIP3    H228879   6.541   5.054   0.469  1.0157 -0.6114 -2.5916
 9639TIP3   OH228880   7.206   2.315   3.010  0.0733 -0.8246  0.3159
 9639TIP3    H128881   7.251   2.371   2.946  0.8507 -1.0496  0.6533
 9639TIP3    H228882   7.114   2.338   3.001  0.2727 -0.2093 -0.2588
 9640TIP3   OH228883   6.788   1.058   5.545  0.2431  0.1663  0.1053
 9640TIP3    H128884   6.768   1.118   5.617  0.5756 -0.2984  0.5943
 9640TIP3    H228885   6.847   1.108   5.488  1.7705 -0.1766  1.2991
 9641TIP3   OH228886   1.606   1.957   0.079  0.5385  0.0450 -0.3370
 9641TIP3    H128887   1.568   1.959  -0.008 -0.9332  0.4363  0.2780
 9641TIP3    H228888   1.569   1.879   0.120  2.1231 -0.7810 -0.4295
 9642TIP3   OH228889   3.263   6.525   2.274  0.4137  0.8719  0.1855
 9642TIP3    H128890   3.181   6.571   2.255 -0.4601  0.5358  2.7410
 9642TIP3    H228891   3.237   6.433   2.281  1.4127  0.4788 -0.9337
 9643TIP3   OH228892   2.285   3.587   5.803  0.2063  0.8088  0.9495
 9643TIP3    H128893   2.271   3.677   5.835  0.9688  1.3580 -0.2002
 9643TIP3    H228894   2.369   3.561   5.841  0.7867  1.2118 -0.0322
 9644TIP3   OH228895   4.622   6.164   3.533  0.4333 -0.3979  0.6943
 9644TIP3    H128896   4.690   6.103   3.504  0.6492 -0.3593  1.1074
 9644TIP3    H228897   4.648   6.248   3.495 -0.9801 -0.9350 -1.6226
 9645TIP3   OH228898   3.306   3.311   3.175  0.0686  0.3268 -0.3427
 9645TIP3    H128899   3.298   3.401   3.143 -0.4176  0.5143  0.2791
 9645TIP3    H228900   3.386   3.278   3.135 -1.0432  0.1905 -2.5588
 9646TIP3   OH228901   4.617   1.130   5.450 -0.1238  0.0406 -0.2252
 9646TIP3    H128902   4.531   1.141   5.492  0.4283 -0.3501  1.0479
 9646TIP3    H228903   4.628   1.209   5.398 -1.5495 -0.2034 -0.9454
 9647TIP3   OH228904   1.940   0.194   4.573  0.4592  0.0861 -0.1321
 9647TIP3    H128905   2.027   0.166   4.602  0.5008  1.2069  0.9067
 9647TIP3    H228906   1.945   0.289   4.572 -1.8292  0.4274  3.6069
 9648TIP3   OH228907   5.847   2.291   1.120  0.4976  0.3749  0.6454
 9648TIP3    H128908   5.896   2.213   1.095 -1.0538 -0.4617  0.0987
 9648TIP3    H228909   5.810   2.323   1.038  1.4928  2.0041  0.7746
 9649TIP3   OH228910   0.068   5.089   0.957  0.3395 -0.9557  0.7869
 9649TIP3    H128911   0.137   5.133   1.005 -0.1931  0.0570  0.6472
 9649TIP3    H228912   0.114   5.028   0.898  1.1040 -0.3216  0.7199
 9650TIP3   OH228913   6.678   4.270   2.728 -0.2320 -0.6099 -0.4061
 9650TIP3    H128914   6.727   4.274   2.810 -0.0037  0.3437 -0.5825
 9650TIP3    H228915   6.646   4.359   2.714 -0.1429 -0.7218 -1.4219
 9651TIP3   OH228916   4.000   3.376   0.498 -0.3553  0.1198 -0.6689
 9651TIP3    H128917   3.928   3.324   0.533 -1.3093  1.4222 -0.5921
 9651TIP3    H228918   4.071   3.366   0.561 -1.5938  1.3874  1.0476
 9652TIP3   OH228919   1.728   0.103   4.075  0.3139  0.1744 -0.6761
 9652TIP3    H128920   1.647   0.055   4.056 -0.5841  2.0796 -2.0022
 9652TIP3    H228921   1.759   0.132   3.990  2.1275 -0.0451 -0.1275
 9653TIP3   OH228922   0.872   6.046   4.789 -0.1638  0.1457 -0.2136
 9653TIP3    H128923   0.892   6.027   4.881 -2.1013  0.9725  0.4295
 9653TIP3    H228924   0.938   5.998   4.740 -0.4350 -2.1803  1.5291
 9654TIP3   OH228925   0.126   2.086   2.754  0.3852 -0.0054 -0.0304
 9654TIP3    H128926   0.066   2.143   2.705  0.2908  0.3214  0.4580
 9654TIP3    H228927   0.211   2.100   2.712 -0.1473 -1.7670 -1.8560
 9655TIP3   OH228928   3.622   3.358   3.867 -0.0457  0.0373 -0.1807
 9655TIP3    H128929   3.639   3.265   3.880  0.0531 -0.4889 -3.3319
 9655TIP3    H228930   3.527   3.366   3.871 -0.0031  0.1696  1.6957
 9656TIP3   OH228931   1.673   4.228   0.999  0.2470  0.0630 -0.2591
 9656TIP3    H128932   1.697   4.136   0.989 -2.4375 -0.7204 -0.3440
 9656TIP3    H228933   1.703   4.251   1.087 -1.1642 -1.6635  0.7284
 9657TIP3   OH228934   4.354   2.330   5.842  0.3159 -0.2976 -0.1776
 9657TIP3    H128935   4.308   2.397   5.791 -0.0955  0.2579  0.8914
 9657TIP3    H228936   4.446   2.342   5.818  0.0709 -0.5327 -1.3203
 9658TIP3   OH228937   1.262   4.799   3.775  0.2783  0.0677 -0.1579
 9658TIP3    H128938   1.172   4.779   3.751  0.1111  1.9827 -1.3618
 9658TIP3    H228939   1.277   4.751   3.857 -1.6363 -0.6775 -0.1963
 9659TIP3   OH228940   6.931   6.647   1.176 -0.2351  0.2866  0.0172
 9659TIP3    H128941   7.002   6.662   1.239 -0.0634  1.4003 -0.4216
 9659TIP3    H228942   6.959   6.693   1.097 -1.1505  0.1804 -0.3815
 9660TIP3   OH228943   2.540   5.228   3.264 -0.0288 -0.6229 -0.3054
 9660TIP3    H128944   2.553   5.287   3.338 -0.1849  0.0987 -0.8472
 9660TIP3    H228945   2.472   5.269   3.211  0.7178 -0.6532 -1.3307
 9661TIP3   OH228946   6.655   3.918   2.475  0.3368 -0.1183  0.0788
 9661TIP3    H128947   6.608   3.963   2.545  2.8404 -0.2567  2.0199
 9661TIP3    H228948   6.606   3.937   2.396 -2.8081 -0.1465  1.8616
 9662TIP3   OH228949   2.330   2.334   4.132 -0.5113 -0.3293  0.0546
 9662TIP3    H128950   2.286   2.309   4.214  0.5505 -2.0408  0.1646
 9662TIP3    H228951   2.289   2.279   4.065 -0.4911  0.1308 -0.3421
 9663TIP3   OH228952   5.200   1.895   2.748 -0.0671 -0.3014  0.4418
 9663TIP3    H128953   5.184   1.971   2.805  0.9684  1.4651 -1.4920
 9663TIP3    H228954   5.131   1.833   2.771 -1.3842  1.4943  1.6214
 9664TIP3   OH228955   0.305   6.291   3.431 -0.2055  0.5686 -0.1936
 9664TIP3    H128956   0.343   6.333   3.508 -0.0623  0.6633 -0.3154
 9664TIP3    H228957   0.344   6.203   3.430  0.4417  0.8465 -0.6238
 9665TIP3   OH228958   1.482   2.358   0.211  0.0887  0.7286 -0.6543
 9665TIP3    H128959   1.532   2.318   0.140  2.0055  2.1012 -0.1438
 9665TIP3    H228960   1.547   2.399   0.268 -1.2305 -1.2151  2.5811
 9666TIP3   OH228961   4.403   4.392   4.193 -0.8027  0.4220  0.0790
 9666TIP3    H128962   4.345   4.439   4.134 -1.3046 -0.8704 -0.4944
 9666TIP3    H228963   4.459   4.339   4.136 -2.6124 -2.3782  0.7025
 9667TIP3   OH228964   2.857   3.873   0.515 -0.1088  0.4769  0.1270
 9667TIP3    H128965   2.782   3.878   0.574 -1.0734  0.2032 -1.0369
 9667TIP3    H228966   2.848   3.951   0.459  0.4098  0.3741 -0.1065
 9668TIP3   OH228967   3.859   5.213   1.446 -0.1322  0.5490 -0.0267
 9668TIP3    H128968   3.902   5.160   1.514  1.7491  0.5366 -1.1803
 9668TIP3    H228969   3.832   5.149   1.380  1.3253  0.8711 -0.9871
 9669TIP3   OH228970   6.748   0.442   5.433  0.0608 -0.2544 -0.2022
 9669TIP3    H128971   6.807   0.496   5.380 -1.1869  0.2469 -1.1125
 9669TIP3    H228972   6.707   0.503   5.494  0.0665 -0.5092  0.0593
 9670TIP3   OH228973   6.447   1.247   5.491 -0.3937  0.2705 -0.2694
 9670TIP3    H128974   6.470   1.338   5.472 -0.3817  0.4450  0.5438
 9670TIP3    H228975   6.395   1.219   5.417 -0.6600  1.0428 -0.3783
 9671TIP3   OH228976   0.130   1.944   3.336 -0.3664  0.5611 -0.1288
 9671TIP3    H128977   0.114   1.910   3.425 -0.1357  1.6263  0.3359
 9671TIP3    H228978   0.161   1.868   3.287  0.3161  0.1229  0.9325
 9672TIP3   OH228979   2.882   0.369   2.936  0.0392 -0.3458 -0.2381
 9672TIP3    H128980   2.898   0.453   2.978  0.7630 -0.0983 -0.9943
 9672TIP3    H228981   2.951   0.312   2.969  2.2419  0.5351 -2.9681
 9673TIP3   OH228982   3.403   4.808   0.214 -0.0853  0.1236  0.0010
 9673TIP3    H128983   3.316   4.847   0.216 -0.0546  0.1857  0.2009
 9673TIP3    H228984   3.461   4.879   0.243  0.2674  0.6869 -1.9689
 9674TIP3   OH228985   1.620   0.060   0.717 -0.2810  0.4627  0.0136
 9674TIP3    H128986   1.591  -0.031   0.706  0.9859  0.2304 -1.6671
 9674TIP3    H228987   1.708   0.053   0.753 -0.4971  1.0534  0.6635
 9675TIP3   OH228988   1.259   0.473   1.153  0.4258  0.0747 -0.1126
 9675TIP3    H128989   1.266   0.460   1.248  0.4033 -0.4339 -0.1774
 9675TIP3    H228990   1.345   0.447   1.120  0.5600  0.6181 -0.1945
 9676TIP3   OH228991   7.221   5.837   2.770  0.3030  0.0276  0.2061
 9676TIP3    H128992   7.214   5.760   2.714 -1.3635  0.6168 -0.4394
 9676TIP3    H228993   7.138   5.882   2.760  0.2255  0.5563  2.5943
 9677TIP3   OH228994   1.874   3.384   4.013 -0.4685  0.0731  0.0729
 9677TIP3    H128995   1.800   3.427   4.058 -0.4253 -0.1877  0.3906
 9677TIP3    H228996   1.915   3.455   3.963 -1.6389  0.0002 -1.0511
 9678TIP3   OH228997   0.385   4.593   3.633 -0.3848  0.3656  0.6777
 9678TIP3    H128998   0.386   4.679   3.676 -2.0792 -0.9622  3.6572
 9678TIP3    H228999   0.438   4.537   3.690 -0.6199 -0.9466 -0.3483
 9679TIP3   OH229000   5.430   0.369   1.219 -0.2184  0.2110 -0.1957
 9679TIP3    H129001   5.496   0.419   1.268 -0.4854  0.6144 -0.2398
 9679TIP3    H229002   5.353   0.426   1.218 -0.2367  0.1861 -1.0295
 9680TIP3   OH229003   5.068   2.819   3.529 -0.3868 -0.0392  0.0281
 9680TIP3    H129004   5.012   2.897   3.535 -1.6769 -0.9565  0.2796
 9680TIP3    H229005   5.011   2.751   3.493  0.9730 -0.6501 -1.0203
 9681TIP3   OH229006   2.919   1.599   2.362  0.2571 -0.4682 -0.7243
 9681TIP3    H129007   2.917   1.645   2.278 -0.0542  0.8302 -0.0333
 9681TIP3    H229008   2.831   1.612   2.398  0.7933  0.1643  0.4037
 9682TIP3   OH229009   5.866   0.769   3.114  0.5486 -0.1547 -0.2165
 9682TIP3    H129010   5.879   0.706   3.186  1.8448 -0.2362 -0.5063
 9682TIP3    H229011   5.849   0.852   3.158 -0.2085 -0.5031  0.1725
 9683TIP3   OH229012   4.195   5.220   0.039  0.2951 -0.0786  0.5147
 9683TIP3    H129013   4.258   5.251   0.103  0.4140 -0.1563  0.4355
 9683TIP3    H229014   4.236   5.143  -0.000 -0.5345 -1.1382  1.6290
 9684TIP3   OH229015   3.199   0.972   5.339 -0.2570 -0.5393 -0.2336
 9684TIP3    H129016   3.133   0.968   5.269 -0.0572  0.5033 -0.4990
 9684TIP3    H229017   3.148   0.979   5.420 -0.4794 -0.3653 -0.3881
 9685TIP3   OH229018   6.430   3.617   3.602 -0.0123 -0.1582 -0.4771
 9685TIP3    H129019   6.391   3.549   3.547 -1.4158  0.5187 -0.3507
 9685TIP3    H229020   6.506   3.647   3.552 -0.6556 -0.2936 -1.5716
 9686TIP3   OH229021   3.403   4.829   5.587  0.1648 -0.4036 -0.3509
 9686TIP3    H129022   3.353   4.887   5.644 -0.4760 -1.8823  0.6601
 9686TIP3    H229023   3.356   4.829   5.504 -0.5490 -0.4442  0.0445
 9687TIP3   OH229024   0.347   3.104   1.110  0.0629  0.0102 -0.4512
 9687TIP3    H129025   0.408   3.074   1.177 -1.2719 -2.7420 -0.3402
 9687TIP3    H229026   0.262   3.070   1.137 -1.5150  3.1877 -0.9335
 9688TIP3   OH229027   0.963   1.466   4.061  0.1288 -0.0694  0.0727
 9688TIP3    H129028   0.871   1.457   4.083  0.0341 -0.5894 -0.5132
 9688TIP3    H229029   0.982   1.559   4.076 -0.3093 -0.0985  0.8507
 9689TIP3   OH229030   1.227   0.198   4.371  0.2757 -0.2583 -0.8080
 9689TIP3    H129031   1.176   0.125   4.337  0.0686 -0.9171  0.8070
 9689TIP3    H229032   1.240   0.256   4.296 -0.8529 -1.2093 -1.7736
 9690TIP3   OH229033   0.713   4.352   5.790 -0.2776  0.3757  0.5986
 9690TIP3    H129034   0.665   4.404   5.725  0.2910  0.1059 -0.0539
 9690TIP3    H229035   0.651   4.285   5.817 -0.3968  0.2446  0.0230
 9691TIP3   OH229036   4.913   5.468   3.029 -0.0329  0.1827 -0.0090
 9691TIP3    H129037   4.964   5.541   3.066 -0.8419  0.5783  0.3514
 9691TIP3    H229038   4.975   5.395   3.026  0.8591  0.9358 -0.5850
 9692TIP3   OH229039   5.701   0.267   2.344 -0.2168  0.1525  0.4406
 9692TIP3    H129040   5.752   0.288   2.266  0.0490 -1.5561  0.1162
 9692TIP3    H229041   5.731   0.329   2.410  0.1534  1.0793 -0.5758
 9693TIP3   OH229042   6.360   6.282   1.586 -0.0557 -0.0225 -0.0985
 9693TIP3    H129043   6.353   6.199   1.538  0.4129  0.8240 -1.7006
 9693TIP3    H229044   6.415   6.337   1.530 -1.1628  1.7191  0.4715
 9694TIP3   OH229045   6.142   0.317   0.184 -0.1152 -0.3136 -0.6791
 9694TIP3    H129046   6.212   0.252   0.192 -1.2213 -1.6658 -1.3907
 9694TIP3    H229047   6.140   0.360   0.269 -0.2518 -2.2105  0.3461
 9695TIP3   OH229048   2.734   1.173   2.826  0.2665 -0.1153 -0.9033
 9695TIP3    H129049   2.713   1.260   2.858  1.2984 -0.3441  0.5284
 9695TIP3    H229050   2.688   1.113   2.885  3.5525 -0.5858  1.4924
 9696TIP3   OH229051   5.490   2.689   4.831  0.0498  0.5524  0.3653
 9696TIP3    H129052   5.521   2.755   4.893 -1.5036 -1.0504  3.0213
 9696TIP3    H229053   5.570   2.651   4.794  1.1418  0.1914  2.9351
 9697TIP3   OH229054   4.093   0.692   0.655 -0.0626  0.2393 -0.1588
 9697TIP3    H129055   4.168   0.707   0.713  1.1113 -0.1872 -1.5032
 9697TIP3    H229056   4.079   0.597   0.659  0.2534  0.1595 -0.8197
 9698TIP3   OH229057   6.860   3.699   0.984  0.0124 -0.1026 -0.5820
 9698TIP3    H129058   6.782   3.752   0.969 -1.3235 -0.9787  2.4911
 9698TIP3    H229059   6.867   3.693   1.079  3.4354 -0.7001 -0.7455
 9699TIP3   OH229060   3.210   0.236   1.298  0.0823 -0.0724  0.3398
 9699TIP3    H129061   3.250   0.175   1.236  1.1627  0.4256  0.5180
 9699TIP3    H229062   3.213   0.320   1.252 -0.8019 -0.0288  0.3489
 9700TIP3   OH229063   1.651   2.487   2.071  0.0792  0.3258  0.4485
 9700TIP3    H129064   1.559   2.510   2.059 -0.8471 -2.2701  1.8059
 9700TIP3    H229065   1.666   2.416   2.009  1.5158  1.4077 -0.4934
 9701TIP3   OH229066   5.190   2.712   5.784  0.2516  0.4984 -0.2923
 9701TIP3    H129067   5.123   2.714   5.716  0.4590 -0.9918 -0.5777
 9701TIP3    H229068   5.202   2.804   5.809  0.6069  1.1505 -2.6679
 9702TIP3   OH229069   0.708   4.706   2.130 -0.0776  0.1278 -0.0482
 9702TIP3    H129070   0.773   4.775   2.143  0.2128 -0.2013  0.2494
 9702TIP3    H229071   0.760   4.628   2.110 -0.2780 -0.5399  1.8261
 9703TIP3   OH229072   2.179   2.417   3.003 -0.2813 -0.2651  0.6095
 9703TIP3    H129073   2.168   2.479   3.075  1.0936 -1.8440  2.2711
 9703TIP3    H229074   2.099   2.364   3.005 -0.9853  0.7299 -0.1387
 9704TIP3   OH229075   3.975   1.891   3.778 -1.1729 -0.0169  0.2053
 9704TIP3    H129076   4.019   1.942   3.710 -2.6072  0.7752 -0.1556
 9704TIP3    H229077   3.902   1.848   3.733 -1.0396 -0.9927  0.8758
 9705TIP3   OH229078   1.655   2.705   0.479 -0.0260  0.0958  0.4509
 9705TIP3    H129079   1.713   2.781   0.475  1.3605 -0.9169  0.4761
 9705TIP3    H229080   1.570   2.740   0.506  0.5323  1.6464  0.2604
 9706TIP3   OH229081   5.920   3.128   1.154 -0.0826 -0.1245  0.2608
 9706TIP3    H129082   5.945   3.159   1.241 -0.0928 -0.2002  0.2909
 9706TIP3    H229083   5.973   3.049   1.141  0.5833  0.3835 -0.1717
 9707TIP3   OH229084   5.103   3.014   1.763  0.2556 -0.2256  0.1201
 9707TIP3    H129085   5.122   3.009   1.669 -1.9720 -1.4963 -0.3333
 9707TIP3    H229086   5.163   3.082   1.796  1.7481 -0.4018 -2.0109
 9708TIP3   OH229087   5.606   1.952   4.744  0.0418  0.5678  0.1558
 9708TIP3    H129088   5.612   2.028   4.686  1.4914  0.4778  0.1686
 9708TIP3    H229089   5.678   1.963   4.805  0.0507 -0.6490  0.3784
 9709TIP3   OH229090   0.023   6.260   5.074  0.5739  0.2911 -0.1845
 9709TIP3    H129091  -0.070   6.269   5.056  0.5148 -1.9015 -1.3571
 9709TIP3    H229092   0.065   6.328   5.021 -0.3199  1.3027  0.3661
 9710TIP3   OH229093   3.366   0.904   3.371 -0.0374  0.0983  0.1178
 9710TIP3    H129094   3.349   0.825   3.423 -0.3633  0.6135  0.8144
 9710TIP3    H229095   3.289   0.912   3.314  0.1013 -0.2044 -0.1180
 9711TIP3   OH229096   6.000   2.912   0.476 -0.3342 -0.3623 -0.3351
 9711TIP3    H129097   6.079   2.901   0.528 -0.6273  1.1202  0.4992
 9711TIP3    H229098   5.999   3.006   0.455 -1.6763 -0.4345 -0.6569
 9712TIP3   OH229099   4.728   5.809   2.298 -0.1919 -0.2998  0.3272
 9712TIP3    H129100   4.787   5.884   2.292  1.4769 -1.6411 -1.5728
 9712TIP3    H229101   4.725   5.775   2.208 -0.0557 -3.1014  1.3091
 9713TIP3   OH229102   6.717   3.267   0.282  0.0574  0.0145 -0.6770
 9713TIP3    H129103   6.668   3.186   0.289  0.8853 -0.5739 -1.4251
 9713TIP3    H229104   6.799   3.242   0.240  0.4994  1.1684 -0.5459
 9714TIP3   OH229105   7.206   3.358   1.101 -0.6907  0.6532 -0.5569
 9714TIP3    H129106   7.248   3.422   1.158 -0.1966  0.4977 -0.7487
 9714TIP3    H229107   7.158   3.410   1.037  1.8155  0.9132 -2.3550
 9715TIP3   OH229108   3.942   2.503   4.636  0.5194 -0.3111  0.0181
 9715TIP3    H129109   4.021   2.457   4.666  1.3624  1.1905  0.1584
 9715TIP3    H229110   3.870   2.456   4.679  1.2509 -2.1552 -0.6672
 9716TIP3   OH229111   0.392   5.885   3.884  0.1669 -0.0634 -0.5136
 9716TIP3    H129112   0.475   5.933   3.886  0.4664 -0.5954  0.8246
 9716TIP3    H229113   0.326   5.952   3.900  0.3660  0.2779 -1.0672
 9717TIP3   OH229114   1.722   1.453   4.678 -0.5096  0.1821 -0.5300
 9717TIP3    H129115   1.643   1.474   4.629 -1.2981  1.4846  1.1544
 9717TIP3    H229116   1.706   1.492   4.765  1.7770  0.0514 -0.0030
 9718TIP3   OH229117   1.033   3.117   0.622  0.4959 -0.1553 -0.3542
 9718TIP3    H129118   1.037   3.054   0.694 -0.3246 -0.0874 -0.2329
 9718TIP3    H229119   1.124   3.131   0.596  0.8220  0.0061  0.8361
 9719TIP3   OH229120   3.249   1.464   5.646  0.1774  0.7590 -0.0459
 9719TIP3    H129121   3.294   1.540   5.682 -0.5363  0.7964  0.7808
 9719TIP3    H229122   3.282   1.390   5.697 -0.5468  0.7626  0.4331
 9720TIP3   OH229123   3.741   3.711   0.945 -0.0380 -0.1898 -0.0844
 9720TIP3    H129124   3.766   3.762   0.868 -0.2786  0.6952  0.4012
 9720TIP3    H229125   3.657   3.672   0.922  0.3066 -0.6511 -0.5842
 9721TIP3   OH229126   0.487   2.632   5.027 -0.2910 -0.0781  0.0802
 9721TIP3    H129127   0.515   2.646   4.936 -3.5162  0.0453 -1.0332
 9721TIP3    H229128   0.518   2.543   5.047  1.1649  0.1850 -0.7944
 9722TIP3   OH229129   5.281   0.106   3.907 -0.0671  0.2809 -0.0118
 9722TIP3    H129130   5.212   0.164   3.940 -0.6527 -0.0288 -0.6585
 9722TIP3    H229131   5.362   0.152   3.925 -0.5507  1.6827 -1.2405
 9723TIP3   OH229132   6.056   0.464   0.386 -0.3341  0.7143  0.5437
 9723TIP3    H129133   5.976   0.516   0.380 -1.1565 -0.4252  1.1746
 9723TIP3    H229134   6.050   0.422   0.472  0.0234 -0.8269 -0.1560
 9724TIP3   OH229135   1.125   3.762   3.483 -0.0733  0.9583  0.1823
 9724TIP3    H129136   1.065   3.771   3.557  0.4047 -1.0903  0.8985
 9724TIP3    H229137   1.080   3.704   3.422  0.5391  0.6421  0.0206
 9725TIP3   OH229138   4.752   3.051   0.563  0.2530 -0.1678  0.1453
 9725TIP3    H129139   4.756   3.110   0.639 -0.8079 -0.5607  0.5336
 9725TIP3    H229140   4.666   3.068   0.525  1.1549  0.7359 -1.5871
 9726TIP3   OH229141   6.909   0.254   3.315 -0.0357 -0.5122  0.2368
 9726TIP3    H129142   6.832   0.272   3.369  0.8278  0.4954  1.1762
 9726TIP3    H229143   6.974   0.217   3.375  0.6168 -0.2497 -0.2853
 9727TIP3   OH229144   0.958   1.502   5.703 -0.6621  0.6465  0.4921
 9727TIP3    H129145   0.975   1.503   5.609 -1.9471 -0.0414  0.2373
 9727TIP3    H229146   0.995   1.418   5.732 -2.1524 -0.1548  0.1945
 9728TIP3   OH229147   6.518   1.456   4.812 -0.0765  0.2009  0.1069
 9728TIP3    H129148   6.573   1.491   4.742 -1.2656  0.2029 -0.8670
 9728TIP3    H229149   6.436   1.504   4.803 -0.0112  0.7460  2.0049
 9729TIP3   OH229150   4.140   1.025   0.844 -0.0897  0.4435  0.1150
 9729TIP3    H129151   4.205   0.959   0.819 -0.2630  0.6272 -0.8508
 9729TIP3    H229152   4.080   1.028   0.770 -1.0881  0.4339  0.9014
 9730TIP3   OH229153   1.985   3.885   2.512  0.4338  0.3305 -0.2747
 9730TIP3    H129154   1.896   3.917   2.499 -0.2759 -0.9603  1.1203
 9730TIP3    H229155   1.982   3.793   2.484  1.1663  0.1062  0.3597
 9731TIP3   OH229156   6.357   1.088   1.811 -0.2477 -0.0125  0.1337
 9731TIP3    H129157   6.342   1.132   1.895  0.0759  1.5702 -0.6154
 9731TIP3    H229158   6.451   1.097   1.795 -0.2095 -0.8049 -0.1434
 9732TIP3   OH229159   6.287   4.984   0.234 -0.0672 -0.1046  0.0758
 9732TIP3    H129160   6.346   4.909   0.233  0.0157 -0.0365 -0.9503
 9732TIP3    H229161   6.344   5.060   0.229 -0.2351 -0.0371 -0.8794
 9733TIP3   OH229162   1.161   1.559   3.101 -0.3642  0.0532 -0.3419
 9733TIP3    H129163   1.219   1.567   3.176 -2.2708  0.2038  1.1798
 9733TIP3    H229164   1.156   1.648   3.065 -1.6728  0.6231  1.1402
 9734TIP3   OH229165   2.658   6.485   4.610  0.5197  0.4409 -0.0363
 9734TIP3    H129166   2.714   6.562   4.607  0.3636  0.5285 -1.4227
 9734TIP3    H229167   2.585   6.506   4.552  1.3978 -1.4159 -1.9447
 9735TIP3   OH229168   0.742   6.224   0.538  0.0503  0.0947  0.3881
 9735TIP3    H129169   0.831   6.192   0.524  0.3138  1.2986 -0.8755
 9735TIP3    H229170   0.700   6.215   0.452 -0.3164  1.7197  0.3716
 9736TIP3   OH229171   4.086   5.964   2.970 -0.0108  0.0484  0.0628
 9736TIP3    H129172   4.006   5.920   2.939  1.2432 -3.4527  1.3387
 9736TIP3    H229173   4.076   5.966   3.065  1.9370 -1.7817  0.3768
 9737TIP3   OH229174   1.514   2.358   5.807 -0.4369  0.2679 -0.1467
 9737TIP3    H129175   1.447   2.299   5.842  0.3031 -0.5461 -0.0792
 9737TIP3    H229176   1.586   2.301   5.781  0.3467  1.1446  0.0247
 9738TIP3   OH229177   1.282   0.611   0.570  0.0658  0.6231 -0.3274
 9738TIP3    H129178   1.293   0.574   0.657 -1.4949 -1.3448 -0.8781
 9738TIP3    H229179   1.371   0.622   0.536  0.6732  1.0963  1.3577
 9739TIP3   OH229180   5.086   0.469   3.119 -0.4506  0.6356 -0.3934
 9739TIP3    H129181   5.169   0.446   3.077  0.9646 -1.4994  3.0996
 9739TIP3    H229182   5.110   0.537   3.181 -1.4406  0.4647  0.1893
 9740TIP3   OH229183   4.248   0.731   4.043  0.1278  0.1326  0.4800
 9740TIP3    H129184   4.159   0.754   4.068 -0.1383 -0.4203  0.0542
 9740TIP3    H229185   4.297   0.813   4.049 -0.3169  0.3634  1.0910
 9741TIP3   OH229186   6.002   4.761   1.522  0.6862 -0.2889  0.0100
 9741TIP3    H129187   5.999   4.699   1.595  0.6231 -0.4508 -0.1279
 9741TIP3    H229188   5.912   4.762   1.488  0.3684  0.8626  0.8214
 9742TIP3   OH229189   6.127   3.764   4.382 -0.0306 -0.0278  0.3609
 9742TIP3    H129190   6.072   3.799   4.452 -2.0250  1.5345 -1.8253
 9742TIP3    H229191   6.183   3.700   4.425 -0.4819  1.4988  3.5252
 9743TIP3   OH229192   3.884   3.076   3.068  0.5103 -0.2988 -0.2831
 9743TIP3    H129193   3.933   3.000   3.036  0.7504 -0.2950  0.0756
 9743TIP3    H229194   3.829   3.101   2.994  0.9296 -0.4024 -0.6335
 9744TIP3   OH229195   0.722   6.274   4.201  0.3094  0.0253 -0.1028
 9744TIP3    H129196   0.734   6.337   4.272  1.7240  0.2201 -0.4731
 9744TIP3    H229197   0.752   6.190   4.239  0.7397  0.0640 -0.3463
 9745TIP3   OH229198   1.508   4.343   3.430 -0.2269 -0.2974 -0.0122
 9745TIP3    H129199   1.460   4.421   3.401 -0.7400 -0.5281  0.2208
 9745TIP3    H229200   1.582   4.378   3.479 -2.3279  0.0552  3.2115
 9746TIP3   OH229201   3.585   2.637   0.430 -0.1231  0.1387 -0.4234
 9746TIP3    H129202   3.515   2.629   0.495 -0.2954  0.8183 -0.5130
 9746TIP3    H229203   3.539   2.658   0.348  0.2111  1.0055 -0.3968
 9747TIP3   OH229204   3.245   2.963   2.039  0.1414  0.2137 -0.1894
 9747TIP3    H129205   3.235   3.005   2.125  0.9965  1.1666 -0.5281
 9747TIP3    H229206   3.179   3.005   1.984 -0.2035 -0.1786 -0.0758
 9748TIP3   OH229207   3.274   5.314   3.034 -0.1855 -0.4611  0.5065
 9748TIP3    H129208   3.302   5.259   3.108 -1.1099 -0.2285  1.0431
 9748TIP3    H229209   3.355   5.355   3.003  0.2757 -0.8775  1.1342
 9749TIP3   OH229210   1.281   3.979   0.371 -0.6402  0.3229 -0.0805
 9749TIP3    H129211   1.291   4.036   0.294  0.3851 -0.0257 -0.2271
 9749TIP3    H229212   1.365   3.988   0.417 -1.3836  0.8371  1.2199
   7.20839   6.79614   5.88562   0.00000   0.00000  -2.40280   0.00000  -2.40280  -3.39806
