* SET NIONTYPES = 1
* SET NPOSTOT = 45
* SET NNEGTOT = 42
* SET NIONTOT = 87
*  DATE:     6/13/26     12:11: 2      CREATED BY USER: charmm-gui
*
        87  EXT
         1         1  SOD       SOD            33.5281137082       -2.1610302298      -20.1838695678  IONS      1               1.0000000000
         2         2  SOD       SOD            24.6299684146       33.3806593645      -10.4606343790  IONS      2               1.0000000000
         3         3  SOD       SOD           -14.5824259645       22.6116886077       42.3655476556  IONS      3               1.0000000000
         4         4  SOD       SOD            -6.4994963968       25.9217050389        9.8966747710  IONS      4               1.0000000000
         5         5  SOD       SOD           -10.3653448792      -32.1043461000       -8.4797609541  IONS      5               1.0000000000
         6         6  SOD       SOD            11.2448304904      -25.2514049025       -7.7934093762  IONS      6               1.0000000000
         7         7  SOD       SOD             9.3412198394       23.8720297934      -29.4559941074  IONS      7               1.0000000000
         8         8  SOD       SOD            40.2371467303       10.0165607226       14.0848856055  IONS      8               1.0000000000
         9         9  SOD       SOD            12.1399735518      -18.2338918813       13.1566913036  IONS      9               1.0000000000
        10        10  SOD       SOD            27.0077725990       18.4870067889        2.2592461987  IONS      10              1.0000000000
        11        11  SOD       SOD           -21.9945572144      -16.2319081695      -28.9485660550  IONS      11              1.0000000000
        12        12  SOD       SOD           -30.7764765271       31.6038751199      -14.2484639952  IONS      12              1.0000000000
        13        13  SOD       SOD           -35.5918144602       18.9138655492       21.8671478056  IONS      13              1.0000000000
        14        14  SOD       SOD           -13.0470771053      -32.8514729622       -3.1297580514  IONS      14              1.0000000000
        15        15  SOD       SOD            -0.4152622943       -1.0964230655       11.7717792552  IONS      15              1.0000000000
        16        16  SOD       SOD            23.5041072491       -6.8561631874       44.7585776373  IONS      16              1.0000000000
        17        17  SOD       SOD             9.3122207818       24.2254369123       12.5961560906  IONS      17              1.0000000000
        18        18  SOD       SOD           -29.8732622611       -8.0197691055      -17.7307160756  IONS      18              1.0000000000
        19        19  SOD       SOD            22.8845644205       35.1171048701       15.0395590862  IONS      19              1.0000000000
        20        20  SOD       SOD             1.8096835646      -17.2421661177       -8.6536608703  IONS      20              1.0000000000
        21        21  SOD       SOD             9.4489999464      -39.9136557799      -13.2181426792  IONS      21              1.0000000000
        22        22  SOD       SOD            -5.4911079216       -3.3989555550      -40.2367841229  IONS      22              1.0000000000
        23        23  SOD       SOD            26.5772720772      -18.5707946825       32.1643863433  IONS      23              1.0000000000
        24        24  SOD       SOD            25.4177734026      -32.9672147004       30.3510672252  IONS      24              1.0000000000
        25        25  SOD       SOD            38.6260593934      -10.1823775386       21.3466096007  IONS      25              1.0000000000
        26        26  SOD       SOD           -26.4702331080       21.3722433129       -6.6673489600  IONS      26              1.0000000000
        27        27  SOD       SOD           -12.1410583413      -41.7733178532       23.3320976805  IONS      27              1.0000000000
        28        28  SOD       SOD            31.4284931236       -4.0061223517       13.7494112926  IONS      28              1.0000000000
        29        29  SOD       SOD            20.9416095413      -22.3970449690      -19.0177852212  IONS      29              1.0000000000
        30        30  SOD       SOD           -25.3491953534      -23.8878195239       11.6350881663  IONS      30              1.0000000000
        31        31  SOD       SOD           -39.3493535957       13.5787157084      -14.6317998908  IONS      31              1.0000000000
        32        32  SOD       SOD           -14.3891057868        0.6482472306       23.8168720995  IONS      32              1.0000000000
        33        33  SOD       SOD           -20.3108153893       13.5988454253      -19.9635692313  IONS      33              1.0000000000
        34        34  SOD       SOD           -32.2166597685      -33.0926351430        3.0336161509  IONS      34              1.0000000000
        35        35  SOD       SOD           -12.8934787865       -7.4939696761      -32.9443352785  IONS      35              1.0000000000
        36        36  SOD       SOD            16.5891323215       -8.8669700883      -17.7623315838  IONS      36              1.0000000000
        37        37  SOD       SOD            -3.7725133419      -27.7884168134      -16.4050270021  IONS      37              1.0000000000
        38        38  SOD       SOD           -30.9118673475        2.4225263044        0.2980795705  IONS      38              1.0000000000
        39        39  SOD       SOD            27.6779127702       -7.5343948222      -15.4794678461  IONS      39              1.0000000000
        40        40  SOD       SOD            24.9406092534        2.3547041522      -13.5772659587  IONS      40              1.0000000000
        41        41  SOD       SOD            13.1609800593       -7.1762885941       -7.5014928606  IONS      41              1.0000000000
        42        42  SOD       SOD           -24.3609461490      -31.8782761376       23.8450180498  IONS      42              1.0000000000
        43        43  SOD       SOD            22.9424744088       31.0626502438      -23.9371941251  IONS      43              1.0000000000
        44        44  SOD       SOD           -36.2880265328       -1.4283953200      -27.3712632126  IONS      44              1.0000000000
        45        45  SOD       SOD            -6.7411395207       -7.2435355595       28.6855408401  IONS      45              1.0000000000
        46        46  CLA       CLA             0.1497314267       16.4224682375       35.8975208872  IONS      46             -1.0000000000
        47        47  CLA       CLA           -27.0865485329      -12.6572953373      -33.3667292809  IONS      47             -1.0000000000
        48        48  CLA       CLA            30.5817406991       36.1004930102       -1.8657629021  IONS      48             -1.0000000000
        49        49  CLA       CLA            -6.6701663689      -27.6051929150       -8.3892960991  IONS      49             -1.0000000000
        50        50  CLA       CLA           -26.9810720751       -1.4644051160       28.7697503476  IONS      50             -1.0000000000
        51        51  CLA       CLA           -34.3904685326        7.7250037625        7.9489507621  IONS      51             -1.0000000000
        52        52  CLA       CLA             0.3523722297       28.4768785641      -24.8539818055  IONS      52             -1.0000000000
        53        53  CLA       CLA            12.4817755138      -28.4441440106       22.3689153038  IONS      53             -1.0000000000
        54        54  CLA       CLA           -14.6260519369      -14.9320682009      -27.1455173954  IONS      54             -1.0000000000
        55        55  CLA       CLA            40.2380485236       18.7686524600      -22.8376960042  IONS      55             -1.0000000000
        56        56  CLA       CLA             9.3198558311       20.6817885194      -38.0935925902  IONS      56             -1.0000000000
        57        57  CLA       CLA             1.0134224875      -21.1642063959        3.7422564290  IONS      57             -1.0000000000
        58        58  CLA       CLA            36.5304655708       31.8502516779       -3.9312767109  IONS      58             -1.0000000000
        59        59  CLA       CLA           -35.3039416375        2.8085311933       -1.9554241230  IONS      59             -1.0000000000
        60        60  CLA       CLA           -17.7209030625        6.9226063826       21.7090026479  IONS      60             -1.0000000000
        61        61  CLA       CLA             2.1044020425       19.9209504052      -28.9644741787  IONS      61             -1.0000000000
        62        62  CLA       CLA             4.9729230309       40.8392906297      -14.4116646691  IONS      62             -1.0000000000
        63        63  CLA       CLA            40.5945960970       23.1920444762        2.7621403614  IONS      63             -1.0000000000
        64        64  CLA       CLA            29.7176568818        5.8173745506      -12.2323694744  IONS      64             -1.0000000000
        65        65  CLA       CLA           -35.1338933795       -8.9290924431      -15.0510525647  IONS      65             -1.0000000000
        66        66  CLA       CLA            17.3497763772       22.6847063140       25.7523537428  IONS      66             -1.0000000000
        67        67  CLA       CLA           -27.2044722204        8.5267595810      -21.4303283152  IONS      67             -1.0000000000
        68        68  CLA       CLA            16.5421977182      -15.4704268138       10.6154025841  IONS      68             -1.0000000000
        69        69  CLA       CLA            25.5172144652       33.4056079153      -16.7331265308  IONS      69             -1.0000000000
        70        70  CLA       CLA           -37.4438478607      -26.7607879936       -7.0331234831  IONS      70             -1.0000000000
        71        71  CLA       CLA           -17.6282671901       -6.4200740894      -36.2669559183  IONS      71             -1.0000000000
        72        72  CLA       CLA           -28.8762065964       28.0474015507       25.6292094315  IONS      72             -1.0000000000
        73        73  CLA       CLA           -22.5118014204       -9.3203195127       -1.9597913233  IONS      73             -1.0000000000
        74        74  CLA       CLA            13.5564255356       31.6159696901       16.7549370678  IONS      74             -1.0000000000
        75        75  CLA       CLA            19.0444276744       -1.9043506070      -19.1966568501  IONS      75             -1.0000000000
        76        76  CLA       CLA            -5.7604296232      -21.5273018284      -12.4543079796  IONS      76             -1.0000000000
        77        77  CLA       CLA            23.0981005294       35.3627674861      -12.5950740827  IONS      77             -1.0000000000
        78        78  CLA       CLA           -27.6791820784        9.2859034515       -1.7744252794  IONS      78             -1.0000000000
        79        79  CLA       CLA            26.7735375306      -26.0172345652       24.8802038832  IONS      79             -1.0000000000
        80        80  CLA       CLA            12.4158735929       13.2226579578       19.9848444140  IONS      80             -1.0000000000
        81        81  CLA       CLA            22.3918981118      -20.2362735079       40.1972713483  IONS      81             -1.0000000000
        82        82  CLA       CLA             4.3580562703       24.1296087847       18.9598538717  IONS      82             -1.0000000000
        83        83  CLA       CLA             9.9619102129       17.5077270864       35.6038101627  IONS      83             -1.0000000000
        84        84  CLA       CLA           -31.1712947841       23.2358471919       -2.9987018221  IONS      84             -1.0000000000
        85        85  CLA       CLA            11.5920714010       26.3237345085       -1.9751875446  IONS      85             -1.0000000000
        86        86  CLA       CLA           -36.6458660824        1.6267153538       -7.7231245994  IONS      86             -1.0000000000
        87        87  CLA       CLA            15.8164169822      -41.5958035267      -15.6114355057  IONS      87             -1.0000000000
